FOO
138240
    1MOL0     O    1   5.545   1.823   1.007 -0.3612  0.2792  0.2537
    1MOL0     C    2   5.492   1.936   1.014 -0.2990 -0.2316 -0.5089
    1MOL0     O    3   5.392   1.978   0.930  0.6721 -0.2279  0.0284
    1MOL0     C    4   5.297   1.895   0.871 -0.2619  0.5406  0.4014
    1MOL0     C    5   5.267   1.764   0.923  1.2916  0.2385  0.7971
    1MOL0     C    6   5.166   1.695   0.851  0.1554  0.9122  0.0338
    1MOL0     C    7   5.092   1.747   0.749 -0.1569 -0.2256  0.6131
    1MOL0     O    8   4.980   1.686   0.696 -0.0035 -0.5195  0.4434
    1MOL0     C    9   4.941   1.549   0.711  0.8303 -0.6256 -0.1912
    1MOL0     C   10   5.031   1.460   0.623 -0.1433 -0.2107  0.4686
    1MOL0     C   11   5.022   1.483   0.477 -0.4979 -0.2530 -0.5262
    1MOL0     C   12   5.080   1.378   0.380  0.0983  0.4305  0.7830
    1MOL0     C   13   5.061   1.425   0.227  0.3155 -0.2956 -0.5687
    1MOL0     C   14   5.157   1.333   0.154  0.3479 -0.0866 -0.4292
    1MOL0     C   15   5.130   1.341   0.008 -0.5031 -0.5762 -0.2562
    1MOL0     C   16   5.029   1.241  -0.051 -0.6110  0.0396 -0.4410
    1MOL0     N   17   4.983   1.289  -0.187  0.0204 -1.2169  0.2597
    1MOL0     C   18   5.053   1.266  -0.304 -0.1401 -0.7535 -0.3068
    1MOL0     C   19   4.970   1.311  -0.398  0.3321 -0.0295 -0.1567
    1MOL0     C   20   4.988   1.336  -0.549  0.1406 -0.5121  0.7213
    1MOL0     C   21   4.990   1.490  -0.565 -0.7077  0.0367  0.2274
    1MOL0     C   22   5.010   1.532  -0.703  0.2830 -0.4863  1.0116
    1MOL0     C   23   5.016   1.688  -0.719 -0.1473 -1.7280 -0.4973
    1MOL0     O   24   5.092   1.728  -0.831  0.0992  0.8474  0.3700
    1MOL0     C   25   5.045   1.718  -0.955  0.6843  0.1548 -0.2726
    1MOL0     C   26   4.912   1.675  -0.979  0.1325  0.8902 -0.1071
    1MOL0     C   27   4.872   1.668  -1.110  0.8275 -0.0805 -0.0454
    1MOL0     C   28   4.955   1.697  -1.220  0.5585  0.4364 -0.4006
    1MOL0     C   29   4.903   1.677  -1.361 -0.4825  0.3848 -0.0728
    1MOL0     O   30   4.968   1.728  -1.464 -0.3132 -0.0648  0.3479
    1MOL0     C   31   4.927   1.680  -1.587 -0.2381 -0.3180  0.5724
    1MOL0     C   32   4.963   1.554  -1.620 -0.1124 -0.8579 -0.0839
    1MOL0     C   33   4.924   1.495  -1.743 -0.0152 -0.3439  0.3395
    1MOL0     C   34   4.845   1.571  -1.833 -0.1538 -0.2412 -1.4904
    1MOL0     O   35   4.818   1.542  -1.963  0.0321 -0.1394  0.0867
    1MOL0     C   36   4.875   1.430  -2.027  0.4845  0.2904 -0.1882
    1MOL0     C   37   4.782   1.397  -2.143  0.2125  0.5544 -0.9238
    1MOL0     C   38   4.818   1.284  -2.237  0.2529 -0.1506 -0.8941
    1MOL0     C   39   4.962   1.256  -2.259  0.0240 -0.7010 -0.8474
    1MOL0     C   40   5.025   1.359  -2.346  0.2173  0.6045  0.2788
    1MOL0     C   41   5.172   1.372  -2.322 -0.5747  0.0480  0.2409
    1MOL0     C   42   5.258   1.261  -2.382 -0.4017  0.7855  0.3869
    1MOL0     C   43   5.394   1.315  -2.410 -0.1223 -0.0187  0.1218
    1MOL0    Cl   44   5.471   1.383  -2.260 -0.5202 -0.1996  0.2011
    1MOL0     C   45   4.806   1.699  -1.793 -0.1006 -0.6036  0.1120
    1MOL0     C   46   4.842   1.753  -1.668 -0.1206  0.6560  0.5492
    1MOL0     O   47   4.795   1.614  -1.361 -0.3135 -0.0983  1.2200
    1MOL0     C   48   5.094   1.721  -1.193 -0.7838  0.1571 -0.3367
    1MOL0     C   49   5.131   1.734  -1.060 -0.1547  0.0874 -0.4032
    1MOL0     N   50   4.850   1.352  -0.338 -0.4030  0.6359 -0.2523
    1MOL0     N   51   4.860   1.344  -0.217 -0.3692  0.0995 -0.2306
    1MOL0     C   52   5.116   1.870   0.706  0.3136  0.5105 -0.3635
    1MOL0     C   53   5.219   1.946   0.767  0.1540  0.5830  0.3651
    1MOL0     C   54   5.552   2.039   1.102  0.4584 -0.1664 -0.4990
    1MOL0     C   55   5.502   2.167   1.098  0.2910 -0.8526 -0.5803
    1MOL0     C   56   5.542   2.264   1.182  0.8666  0.7244  0.1439
    1MOL0     C   57   5.635   2.251   1.278  0.6252  1.1108  0.1661
    1MOL0     O   58   5.694   2.356   1.346  0.6598  1.2687 -1.4068
    1MOL0     C   59   5.817   2.346   1.416  0.5066  0.7903 -0.3454
    1MOL0     C   60   5.797   2.300   1.560  0.4676  0.7978  0.3539
    1MOL0     C   61   5.715   2.391   1.654 -0.6992  1.0986  1.0507
    1MOL0     C   62   5.775   2.406   1.795  0.3797  0.8951  0.1920
    1MOL0     C   63   5.702   2.517   1.861  0.1801 -0.3074  0.7049
    1MOL0     C   64   5.645   2.599   1.926  0.2402  0.8989  0.6223
    1MOL0     C   65   5.687   2.116   1.286 -0.2027 -0.2563  1.0028
    1MOL0     C   66   5.640   2.012   1.201  0.3217  0.6802  0.1395
    1MOL0     C   67   5.708   1.879   1.222  0.1840  1.3428  0.1791
    1MOL0     H   68   5.305   1.722   1.016  0.2873  1.2917  1.7121
    1MOL0     H   69   5.152   1.594   0.890  0.6831  0.8604  0.0937
    1MOL0     H   70   4.940   1.518   0.816  1.6213 -1.8648 -0.5388
    1MOL0     H   71   4.835   1.534   0.689 -0.1535  1.3647  2.5421
    1MOL0     H   72   5.001   1.354   0.629 -0.8115 -0.0134  0.7762
    1MOL0     H   73   5.134   1.464   0.658 -0.4705 -0.2826  1.4743
    1MOL0     H   74   5.057   1.585   0.459  1.3642 -0.8134 -0.3104
    1MOL0     H   75   4.915   1.486   0.453 -1.0174 -4.6626  0.2542
    1MOL0     H   76   5.187   1.361   0.394  0.2393  1.0193  0.4845
    1MOL0     H   77   5.024   1.284   0.384 -2.2378  1.7445  0.8490
    1MOL0     H   78   4.957   1.416   0.194 -0.2942  2.1893  0.4320
    1MOL0     H   79   5.082   1.532   0.214  0.1189 -0.3183 -1.1189
    1MOL0     H   80   5.261   1.362   0.172  0.1659  0.7802 -0.7126
    1MOL0     H   81   5.144   1.225   0.166  3.5703 -0.7108 -1.5373
    1MOL0     H   82   5.228   1.332  -0.040  0.0051 -1.1894  0.8522
    1MOL0     H   83   5.100   1.445  -0.008  2.8363  0.6967  0.7538
    1MOL0     H   84   5.075   1.142  -0.051  0.6133  0.5594  0.9877
    1MOL0     H   85   4.953   1.241   0.028 -0.3981 -2.6195 -0.1637
    1MOL0     H   86   5.152   1.226  -0.322  0.2154 -0.6662  1.3593
    1MOL0     H   87   5.089   1.301  -0.573  0.4798  0.7220  0.2621
    1MOL0     H   88   4.908   1.291  -0.608  0.9382  1.3284 -1.9914
    1MOL0     H   89   4.901   1.544  -0.533 -0.5915  1.2879 -1.4282
    1MOL0     H   90   5.075   1.523  -0.504  0.8230 -0.0262 -1.7488
    1MOL0     H   91   4.934   1.487  -0.767  0.1721  0.4102  0.5002
    1MOL0     H   92   5.099   1.498  -0.757 -0.4894  3.7549 -3.6263
    1MOL0     H   93   5.063   1.732  -0.631 -2.6734 -1.2048  0.6707
    1MOL0     H   94   4.918   1.736  -0.712  0.8946  0.3337  0.6450
    1MOL0     H   95   4.839   1.634  -0.910 -1.2497 -3.3612 -3.6559
    1MOL0     H   96   4.771   1.631  -1.119 -0.1266  1.3211  3.5890
    1MOL0     H   97   5.003   1.493  -1.539 -0.0007 -0.1849  0.3803
    1MOL0     H   98   4.956   1.392  -1.751 -1.3750 -1.1000  3.4210
    1MOL0     H   99   4.979   1.454  -2.051  0.5155  0.4627  0.1190
    1MOL0     H  100   4.864   1.342  -1.963 -0.9952 -0.1590 -1.0094
    1MOL0     H  101   4.685   1.376  -2.096  1.2845 -2.1123  0.3371
    1MOL0     H  102   4.778   1.486  -2.207  3.3497 -1.0198 -3.5932
    1MOL0     H  103   4.762   1.198  -2.199 -1.5271  2.4479  3.0287
    1MOL0     H  104   4.771   1.318  -2.330  0.0598  1.5823 -0.2033
    1MOL0     H  105   4.973   1.160  -2.311 -0.3797 -1.3436  0.2087
    1MOL0     H  106   5.009   1.248  -2.160 -1.9541  0.4969  0.2613
    1MOL0     H  107   4.980   1.458  -2.334 -2.1358 -0.0829 -1.7954
    1MOL0     H  108   5.016   1.321  -2.448 -1.1394  2.0230 -0.1677
    1MOL0     H  109   5.202   1.472  -2.355  0.1492  0.0318  0.8308
    1MOL0     H  110   5.184   1.381  -2.213  2.6404  2.0455 -0.1409
    1MOL0     H  111   5.208   1.238  -2.476 -0.0430  2.7883 -0.3478
    1MOL0     H  112   5.270   1.170  -2.322  2.4690 -1.5526 -3.2872
    1MOL0     H  113   5.452   1.232  -2.452 -0.8978  0.4336 -2.0000
    1MOL0     H  114   5.399   1.396  -2.484 -1.6371 -1.3500 -1.5240
    1MOL0     H  115   4.747   1.747  -1.871  0.4392 -3.2950 -2.1078
    1MOL0     H  116   4.810   1.852  -1.640 -0.2498  0.6849  0.3046
    1MOL0     H  117   5.159   1.742  -1.278 -1.9932 -0.8382 -1.5620
    1MOL0     H  118   5.235   1.742  -1.033 -0.1464 -4.2183  1.6545
    1MOL0     H  119   5.051   1.925   0.639 -0.1910  2.4316  1.5945
    1MOL0     H  120   5.226   2.048   0.731 -1.0143  0.6366  0.2394
    1MOL0     H  121   5.439   2.194   1.014 -0.1771  2.2629  0.6325
    1MOL0     H  122   5.487   2.357   1.187 -0.7215 -0.2567  2.2625
    1MOL0     H  123   5.878   2.437   1.425 -0.6678  1.4521  1.9843
    1MOL0     H  124   5.881   2.274   1.365  0.8649 -0.7203  2.0432
    1MOL0     H  125   5.896   2.285   1.604  1.2131  1.7499 -0.9205
    1MOL0     H  126   5.745   2.204   1.563  1.5114  0.1771 -0.6052
    1MOL0     H  127   5.611   2.359   1.666 -0.5268  0.5485  1.0997
    1MOL0     H  128   5.709   2.485   1.599 -0.2296  0.5360  0.0107
    1MOL0     H  129   5.767   2.314   1.854  1.2879  0.6648 -0.0267
    1MOL0     H  130   5.883   2.424   1.788  0.2270  1.2450 -1.7682
    1MOL0     H  131   5.595   2.669   1.990 -2.7663 -2.7945  2.6959
    1MOL0     H  132   5.774   2.099   1.349  0.8258 -0.5000 -0.4251
    1MOL0     H  133   5.628   1.807   1.240 -0.2115  1.0405 -2.4234
    1MOL0     H  134   5.765   1.842   1.137 -2.5072  1.1888 -1.6762
    1MOL0     H  135   5.783   1.883   1.302 -0.2099  1.6237  0.5331
    2MOL0     O  136   8.791  10.239   0.136  0.3261  0.4345 -0.0646
    2MOL0     C  137   8.732  10.343   0.126  0.4385  0.6789 -0.2421
    2MOL0     O  138   8.621  10.362   0.043  0.5945  0.2229  0.2251
    2MOL0     C  139   8.570  10.250  -0.011  0.3641  0.5710  0.1774
    2MOL0     C  140   8.610  10.180  -0.122  0.3926  0.1855 -0.7647
    2MOL0     C  141   8.556  10.053  -0.146  0.4194  0.2787  0.0022
    2MOL0     C  142   8.452  10.003  -0.061 -0.5084  0.2785 -0.1168
    2MOL0     O  143   8.396   9.876  -0.064  0.2162  0.1820 -0.5588
    2MOL0     C  144   8.445   9.791  -0.168  1.1227 -0.5482 -0.1524
    2MOL0     C  145   8.343   9.673  -0.173 -0.6676  0.3866  0.0295
    2MOL0     C  146   8.382   9.583  -0.074 -0.5812  0.8341 -0.1878
    2MOL0     C  147   8.298   9.453  -0.072 -0.6110 -1.3333  0.1623
    2MOL0     C  148   8.357   9.350   0.031  0.1585 -0.3648 -0.5456
    2MOL0     C  149   8.279   9.215   0.029 -0.5186 -0.0101  0.1518
    2MOL0     C  150   8.330   9.122   0.134 -0.6765  0.2908  0.5990
    2MOL0     C  151   8.286   9.149   0.272  0.1609  0.0468 -1.0808
    2MOL0     N  152   8.384   9.084   0.353  0.3375  0.5413 -0.0266
    2MOL0     C  153   8.513   9.117   0.364  0.4101 -0.1236 -0.4644
    2MOL0     C  154   8.556   9.058   0.473 -0.2237  0.0914  0.1647
    2MOL0     C  155   8.703   9.079   0.503 -0.0939  0.5675  0.4139
    2MOL0     C  156   8.734   9.040   0.648 -0.4055  0.8012  0.6038
    2MOL0     C  157   8.621   9.070   0.747  1.1474 -0.1327 -0.9552
    2MOL0     C  158   8.674   9.065   0.890 -0.8789 -0.0933  0.7887
    2MOL0     O  159   8.753   8.952   0.904 -0.1188 -0.0418  0.8169
    2MOL0     C  160   8.855   8.941   1.000  1.4309 -0.9194  0.0635
    2MOL0     C  161   8.827   8.946   1.136  0.0229 -0.1221  0.6915
    2MOL0     C  162   8.934   8.948   1.229 -0.3932  0.0369 -0.9060
    2MOL0     C  163   9.068   8.951   1.184 -0.0480 -0.2582  0.3129
    2MOL0     C  164   9.186   8.937   1.269 -1.3472  1.3363  0.2627
    2MOL0     O  165   9.161   8.914   1.398 -0.3413 -0.3187 -0.0280
    2MOL0     C  166   9.263   8.918   1.492  0.2669 -0.1331  0.4879
    2MOL0     C  167   9.397   8.872   1.481  0.9649  1.3969 -0.0540
    2MOL0     C  168   9.481   8.876   1.596  0.6134 -0.9216 -0.5631
    2MOL0     C  169   9.438   8.931   1.718  0.6031  0.6055  0.6162
    2MOL0     O  170   9.511   8.949   1.835 -1.3838 -0.1612 -0.0261
    2MOL0     C  171   9.642   8.894   1.847 -0.2052  0.7221  0.3027
    2MOL0     C  172   9.696   8.922   1.987  0.1694  1.1668 -0.6238
    2MOL0     C  173   9.641   8.826   2.083  0.5341 -1.0320 -0.6141
    2MOL0     C  174   9.664   8.852   2.232  0.2098  0.2470 -1.0567
    2MOL0     C  175   9.643   8.720   2.309  0.2657 -0.5369  0.1273
    2MOL0     C  176   9.768   8.630   2.312  0.4722 -1.1829  1.2608
    2MOL0     C  177   9.889   8.690   2.396  0.6652  0.5169  0.5825
    2MOL0     C  178  10.001   8.716   2.297 -0.1440 -0.1409 -0.4984
    2MOL0    Cl  179  10.144   8.792   2.350 -0.1154  0.3454  0.0348
    2MOL0     C  180   9.310   8.980   1.727  0.3083  0.1638  0.1902
    2MOL0     C  181   9.224   8.982   1.616  0.2566  0.2292  0.7509
    2MOL0     O  182   9.293   8.939   1.212  0.2784  1.0031  0.6444
    2MOL0     C  183   9.093   8.935   1.045 -0.2382  0.2227  0.2769
    2MOL0     C  184   8.986   8.940   0.953  0.2734  0.1962 -0.0964
    2MOL0     N  185   8.461   8.976   0.518  0.6080  0.0196  0.0449
    2MOL0     N  186   8.359   8.989   0.444  0.0302 -0.0294 -0.1053
    2MOL0     C  187   8.405  10.080   0.040 -0.3086  0.4064 -0.1138
    2MOL0     C  188   8.469  10.203   0.065  0.3034 -0.2956 -0.9810
    2MOL0     C  189   8.769  10.457   0.225 -0.4432  0.0518 -0.3074
    2MOL0     C  190   8.667  10.532   0.278  0.3765  0.0202 -1.7298
    2MOL0     C  191   8.693  10.633   0.365 -0.6339 -0.0482 -0.4974
    2MOL0     C  192   8.816  10.661   0.416  0.5656 -0.4837 -0.2003
    2MOL0     O  193   8.818  10.764   0.509 -0.5961 -0.3047 -1.3651
    2MOL0     C  194   8.935  10.812   0.571 -0.9447  0.8143 -0.4543
    2MOL0     C  195   8.960  10.712   0.692 -0.1236  0.6236  0.9262
    2MOL0     C  196   9.108  10.680   0.707 -0.4877  1.2635 -0.1456
    2MOL0     C  197   9.193  10.781   0.785 -0.3178  0.1559 -0.1602
    2MOL0     C  198   9.206  10.912   0.720  0.4998  0.3879  0.4488
    2MOL0     C  199   9.224  11.019   0.668 -0.2007  0.4152  0.7002
    2MOL0     C  200   8.923  10.585   0.367 -0.0935 -0.1825 -0.6077
    2MOL0     C  201   8.900  10.479   0.275 -0.3484 -0.9960  0.3900
    2MOL0     C  202   9.022  10.421   0.221 -0.7060  0.1936  0.3425
    2MOL0     H  203   8.681  10.210  -0.198  0.6080  0.0322 -0.6254
    2MOL0     H  204   8.607   9.991  -0.218  0.3376 -0.9878  0.9848
    2MOL0     H  205   8.436   9.847  -0.261 -2.9805 -0.7084 -0.0318
    2MOL0     H  206   8.543   9.753  -0.136 -0.3186 -2.8822  1.8858
    2MOL0     H  207   8.356   9.629  -0.273  0.3617  2.3240 -0.7455
    2MOL0     H  208   8.242   9.715  -0.168 -0.9088 -0.1761  0.0068
    2MOL0     H  209   8.375   9.627   0.027  0.0515  0.3097  0.0864
    2MOL0     H  210   8.484   9.547  -0.086 -0.8807  0.1350 -0.7074
    2MOL0     H  211   8.200   9.487  -0.040  0.2049  2.2446 -0.7277
    2MOL0     H  212   8.287   9.408  -0.171 -1.2126  0.2399 -0.5108
    2MOL0     H  213   8.456   9.326  -0.009  0.7513  0.7810  0.1910
    2MOL0     H  214   8.372   9.389   0.132 -0.2273  2.6800 -1.5537
    2MOL0     H  215   8.170   9.229   0.035 -0.8909 -2.3821  0.1649
    2MOL0     H  216   8.292   9.165  -0.068  1.8466  0.3501  0.2451
    2MOL0     H  217   8.439   9.132   0.129 -0.8273  2.0693  0.2953
    2MOL0     H  218   8.293   9.022   0.110 -2.2189  1.0255 -0.2542
    2MOL0     H  219   8.276   9.256   0.292  2.7958  0.6148 -2.2792
    2MOL0     H  220   8.192   9.099   0.297  1.6330 -1.2717  2.4189
    2MOL0     H  221   8.569   9.194   0.312 -1.7717  1.9749  0.0596
    2MOL0     H  222   8.760   9.031   0.423 -1.5431  0.6113 -0.6956
    2MOL0     H  223   8.725   9.186   0.491  0.9516  0.4676  1.3408
    2MOL0     H  224   8.759   8.934   0.640  0.9618  1.1155  0.3703
    2MOL0     H  225   8.823   9.094   0.682  0.3189  0.4786 -0.7167
    2MOL0     H  226   8.544   8.992   0.747  0.3680  0.5419 -3.5281
    2MOL0     H  227   8.582   9.171   0.736 -0.1646 -0.3735  1.0281
    2MOL0     H  228   8.596   9.065   0.967 -0.5813 -0.0169  1.0917
    2MOL0     H  229   8.736   9.153   0.909 -0.2064 -1.1357  3.9973
    2MOL0     H  230   8.720   8.948   1.156 -0.5643  2.2875 -2.0431
    2MOL0     H  231   8.907   8.944   1.334  0.4957  1.3124 -0.6084
    2MOL0     H  232   9.431   8.813   1.397 -2.7017 -1.4243  0.1785
    2MOL0     H  233   9.584   8.842   1.600  1.4818  1.5387  0.1239
    2MOL0     H  234   9.647   8.787   1.823  0.7309  1.1999 -1.9062
    2MOL0     H  235   9.717   8.934   1.778  0.2192 -0.6440 -0.0586
    2MOL0     H  236   9.804   8.905   1.994  0.2403  1.7355 -0.3242
    2MOL0     H  237   9.678   9.024   2.021 -4.5077  0.7760 -1.3213
    2MOL0     H  238   9.534   8.816   2.066  0.5734  0.8988 -2.2822
    2MOL0     H  239   9.687   8.729   2.061 -0.6398 -2.3633  2.2884
    2MOL0     H  240   9.592   8.918   2.281  0.6650 -0.0263  0.0160
    2MOL0     H  241   9.764   8.890   2.254  0.4754 -0.6285 -0.7134
    2MOL0     H  242   9.548   8.679   2.275 -1.8970  4.6896 -1.1178
    2MOL0     H  243   9.635   8.752   2.414  0.9069 -0.8608  0.2850
    2MOL0     H  244   9.737   8.535   2.355  0.5647 -1.5323  0.5658
    2MOL0     H  245   9.786   8.609   2.207 -0.3901  1.2458  0.5439
    2MOL0     H  246   9.927   8.617   2.467  1.8805 -0.4142 -0.9640
    2MOL0     H  247   9.857   8.784   2.443 -0.6906  0.2679  0.2204
    2MOL0     H  248  10.032   8.619   2.257  4.1839 -0.1376  2.1998
    2MOL0     H  249   9.950   8.781   2.225 -1.7108 -0.0296  0.6646
    2MOL0     H  250   9.265   9.016   1.819  1.8816 -0.9926  1.4844
    2MOL0     H  251   9.122   9.017   1.625 -0.7238 -2.0983 -0.4583
    2MOL0     H  252   9.188   8.901   1.006 -0.2089 -0.3902  0.8658
    2MOL0     H  253   8.996   8.944   0.845 -0.9280  0.5137 -0.2120
    2MOL0     H  254   8.320  10.042   0.095 -1.1218  1.0798 -0.8760
    2MOL0     H  255   8.437  10.259   0.152 -2.2008 -1.5799 -0.9653
    2MOL0     H  256   8.564  10.531   0.245 -0.3167  1.4924  0.2106
    2MOL0     H  257   8.611  10.692   0.404  1.2132  0.8368  2.3170
    2MOL0     H  258   8.934  10.919   0.592  0.8232  0.6337  0.7254
    2MOL0     H  259   9.015  10.812   0.496  3.6275  1.3383  3.9136
    2MOL0     H  260   8.925  10.616   0.654  0.1180  0.6049  0.7468
    2MOL0     H  261   8.907  10.746   0.782  0.2852  3.1389  0.3033
    2MOL0     H  262   9.152  10.659   0.609 -1.4798  0.2323 -0.3925
    2MOL0     H  263   9.118  10.584   0.759  2.3658  0.1212 -2.4899
    2MOL0     H  264   9.143  10.790   0.881  0.1500 -0.3279  0.1323
    2MOL0     H  265   9.293  10.739   0.802  0.1164  2.3335  3.6874
    2MOL0     H  266   9.243  11.117   0.629 -0.3799 -0.2646 -1.1830
    2MOL0     H  267   9.023  10.616   0.396  0.7831 -3.1325 -0.0783
    2MOL0     H  268   9.053  10.493   0.145  1.4603 -1.3087 -0.3033
    2MOL0     H  269   9.103  10.412   0.295 -0.6974  1.5903  0.5182
    2MOL0     H  270   9.009  10.330   0.162 -1.2495  1.1642 -1.0618
    3MOL0     O  271   4.792   1.919   6.466  0.3548  0.3371  0.3272
    3MOL0     C  272   4.747   1.946   6.574  0.6254 -0.3008 -0.9469
    3MOL0     O  273   4.615   1.924   6.603  0.0386 -0.5406 -0.6559
    3MOL0     C  274   4.531   1.879   6.501 -0.6689 -0.1163  0.0420
    3MOL0     C  275   4.534   1.749   6.453  0.0914 -0.2250  0.7071
    3MOL0     C  276   4.439   1.711   6.359  0.0204 -0.4391 -0.2083
    3MOL0     C  277   4.348   1.801   6.301 -0.0007 -0.0633  0.2982
    3MOL0     O  278   4.260   1.758   6.213  0.1262  0.4294 -0.2328
    3MOL0     C  279   4.156   1.682   6.282  0.1420 -0.7912 -0.4542
    3MOL0     C  280   4.023   1.673   6.201 -0.1727  0.8214  0.4287
    3MOL0     C  281   3.954   1.806   6.165 -0.3200  0.8025  0.0491
    3MOL0     C  282   3.835   1.797   6.061  0.1424  0.1260  0.4795
    3MOL0     C  283   3.772   1.934   6.040  0.4080  0.9646 -0.5809
    3MOL0     C  284   3.871   2.024   5.970 -0.1715  0.6991 -0.3094
    3MOL0     C  285   3.785   2.126   5.907 -0.3437 -0.2223  1.1176
    3MOL0     C  286   3.855   2.234   5.832 -0.8804 -0.0763 -0.0821
    3MOL0     N  287   3.948   2.314   5.902  0.7093 -0.0711 -0.7290
    3MOL0     C  288   4.072   2.353   5.863  0.2795 -0.6752  0.4742
    3MOL0     C  289   4.115   2.437   5.956  0.1960 -0.5420 -1.4510
    3MOL0     C  290   4.226   2.543   5.942  0.4922 -0.1508 -1.2129
    3MOL0     C  291   4.187   2.627   5.831  0.5053  0.6064  0.0460
    3MOL0     C  292   4.262   2.754   5.817 -0.5287  1.1047 -0.6781
    3MOL0     C  293   4.412   2.716   5.758 -0.2019 -0.2494 -0.4293
    3MOL0     O  294   4.482   2.843   5.752  1.3346  0.2035 -0.3740
    3MOL0     C  295   4.609   2.832   5.777  0.1225  1.4739 -0.1255
    3MOL0     C  296   4.662   2.933   5.857 -0.3762 -1.0443 -0.1333
    3MOL0     C  297   4.793   2.937   5.903  0.3820  0.1267 -0.2216
    3MOL0     C  298   4.874   2.834   5.877  0.0164  0.2355 -0.1047
    3MOL0     C  299   5.002   2.835   5.950 -0.8034  0.8879 -0.1007
    3MOL0     O  300   5.062   2.945   6.002  0.4889 -0.3025  0.3616
    3MOL0     C  301   5.179   2.933   6.072 -1.2038  0.3900 -0.7591
    3MOL0     C  302   5.303   2.963   6.008 -0.3624  1.0598  0.2249
    3MOL0     C  303   5.430   2.932   6.071  0.9784 -0.2292 -0.0250
    3MOL0     C  304   5.437   2.869   6.196 -0.1028  0.1227  0.1431
    3MOL0     O  305   5.569   2.851   6.239 -0.0528 -0.1175  0.0903
    3MOL0     C  306   5.603   2.851   6.382 -0.0270  0.5827 -0.5665
    3MOL0     C  307   5.575   2.984   6.452 -0.1726  0.8612 -0.1472
    3MOL0     C  308   5.668   3.006   6.566 -0.4543 -0.1243 -0.1597
    3MOL0     C  309   5.637   3.133   6.651 -0.1531 -0.2555  0.9021
    3MOL0     C  310   5.752   3.166   6.739 -0.5111 -1.0749  0.3821
    3MOL0     C  311   5.728   3.302   6.810  0.4462 -0.3069 -0.1552
    3MOL0     C  312   5.844   3.357   6.889 -0.0723 -0.3455  0.3728
    3MOL0     C  313   5.844   3.514   6.890  0.1024  0.7384 -0.5591
    3MOL0    Cl  314   5.951   3.581   7.023  0.2314  0.3571  0.3496
    3MOL0     C  315   5.320   2.841   6.260 -0.2438 -0.0805 -0.6451
    3MOL0     C  316   5.199   2.868   6.197 -0.0529 -0.6695 -0.0163
    3MOL0     O  317   5.052   2.717   5.954 -0.0244 -0.1989 -0.0141
    3MOL0     C  318   4.822   2.724   5.804  0.3143 -0.3081  0.1209
    3MOL0     C  319   4.695   2.724   5.747  0.0398  0.4858  0.1833
    3MOL0     N  320   4.015   2.452   6.051 -0.7955 -0.2938 -0.2298
    3MOL0     N  321   3.912   2.382   6.015 -1.0572  0.5740 -0.0671
    3MOL0     C  322   4.352   1.933   6.346 -0.4074  0.3755  0.2000
    3MOL0     C  323   4.438   1.970   6.451 -0.0148 -1.1146  0.1207
    3MOL0     C  324   4.837   2.023   6.662 -0.1511 -0.5359 -0.0732
    3MOL0     C  325   4.771   2.118   6.746  0.1946  0.9513 -0.0595
    3MOL0     C  326   4.831   2.193   6.848  0.6252 -0.4423  0.0483
    3MOL0     C  327   4.966   2.173   6.869 -0.2434  0.0854 -0.5031
    3MOL0     O  328   5.033   2.238   6.972 -0.1730 -0.8583  0.1948
    3MOL0     C  329   4.986   2.372   6.997  0.1610 -0.5771 -0.1713
    3MOL0     C  330   5.099   2.455   7.053  0.1497  0.3806  0.8048
    3MOL0     C  331   5.219   2.475   6.957  0.0062 -0.4150 -0.0031
    3MOL0     C  332   5.210   2.609   6.872 -0.4326 -0.6887  0.1693
    3MOL0     C  333   5.243   2.720   6.958  0.5924 -0.7166  0.1297
    3MOL0     C  334   5.267   2.819   7.023 -0.8805 -0.2614 -0.2601
    3MOL0     C  335   5.039   2.078   6.796 -0.7547  0.5460  0.3740
    3MOL0     C  336   4.975   2.004   6.694  0.5016  0.4646 -0.3290
    3MOL0     C  337   5.054   1.905   6.621 -0.1587  0.2407  1.0858
    3MOL0     H  338   4.605   1.681   6.499 -0.3805  1.1178  3.7155
    3MOL0     H  339   4.426   1.608   6.325 -1.2948 -0.0654 -0.9321
    3MOL0     H  340   4.192   1.582   6.308  4.7290  1.0568  1.4764
    3MOL0     H  341   4.137   1.734   6.377 -1.9197 -1.1646 -0.6198
    3MOL0     H  342   3.954   1.616   6.265  1.0315  2.1808  3.0893
    3MOL0     H  343   4.052   1.605   6.120  2.6833 -1.2292  2.9609
    3MOL0     H  344   4.032   1.872   6.127  1.8390 -0.2509  2.3696
    3MOL0     H  345   3.915   1.848   6.258 -2.2377  1.0851 -0.8259
    3MOL0     H  346   3.876   1.759   5.967  4.2642  5.1785 -0.2530
    3MOL0     H  347   3.763   1.730   6.108  0.9359 -0.2775  1.1636
    3MOL0     H  348   3.687   1.921   5.973  1.0325 -1.1738 -1.0081
    3MOL0     H  349   3.744   1.973   6.138  0.9465 -3.0258  1.3593
    3MOL0     H  350   3.937   2.067   6.046  1.2739  0.2047 -1.2600
    3MOL0     H  351   3.924   1.970   5.892 -1.4442 -0.6824 -0.2677
    3MOL0     H  352   3.714   2.167   5.980 -1.5437  1.6451 -0.9899
    3MOL0     H  353   3.721   2.084   5.829 -1.8101  0.6968  1.7872
    3MOL0     H  354   3.924   2.192   5.759 -1.1706 -1.1811  0.2569
    3MOL0     H  355   3.777   2.289   5.778 -2.6848 -1.0061  1.4451
    3MOL0     H  356   4.123   2.338   5.768  0.8947 -3.0366  1.1089
    3MOL0     H  357   4.232   2.605   6.032  0.3444 -0.9106 -0.6623
    3MOL0     H  358   4.323   2.496   5.924  1.6259  1.3923  0.5562
    3MOL0     H  359   4.198   2.570   5.738  1.7477  0.1906  0.4363
    3MOL0     H  360   4.079   2.643   5.826  0.3415 -0.6995 -1.7494
    3MOL0     H  361   4.273   2.791   5.919 -2.7273  1.6261 -0.5882
    3MOL0     H  362   4.212   2.832   5.758 -2.3459  1.2887  1.0214
    3MOL0     H  363   4.401   2.672   5.658  4.0155  0.4215 -1.3758
    3MOL0     H  364   4.466   2.653   5.828  2.0531  2.9752  0.9534
    3MOL0     H  365   4.594   3.017   5.869 -0.6223 -0.4618 -4.1214
    3MOL0     H  366   4.827   3.034   5.940 -2.6487  1.3345 -0.3471
    3MOL0     H  367   5.279   3.022   5.920 -5.0829  1.6546  1.6089
    3MOL0     H  368   5.524   2.959   6.023  2.1164  0.5643  2.4310
    3MOL0     H  369   5.558   2.768   6.438  4.2427 -0.6060  1.4798
    3MOL0     H  370   5.710   2.836   6.397 -0.3795 -2.0040 -0.1203
    3MOL0     H  371   5.577   3.061   6.375 -5.0183  0.1305 -1.3721
    3MOL0     H  372   5.474   2.990   6.494  0.9416  1.5130  2.7014
    3MOL0     H  373   5.671   2.921   6.635  3.4550  0.2161  0.3216
    3MOL0     H  374   5.768   2.999   6.524 -0.5716 -1.0349 -0.3049
    3MOL0     H  375   5.550   3.128   6.716 -0.7354 -1.5711  0.0712
    3MOL0     H  376   5.617   3.223   6.592 -0.5513  0.9201  2.7755
    3MOL0     H  377   5.850   3.166   6.690  0.0639  1.2213  1.4003
    3MOL0     H  378   5.760   3.081   6.808 -1.5815 -1.5395 -0.0318
    3MOL0     H  379   5.711   3.379   6.734 -0.8572 -0.2385  0.1788
    3MOL0     H  380   5.641   3.293   6.876  2.8712 -1.1566  3.2334
    3MOL0     H  381   5.934   3.327   6.834  0.0354 -1.0630  0.9217
    3MOL0     H  382   5.843   3.310   6.988  0.3086 -0.8381  0.1469
    3MOL0     H  383   5.872   3.559   6.795 -1.9619  1.0707 -1.0529
    3MOL0     H  384   5.750   3.561   6.919 -0.6551 -0.4897 -0.9284
    3MOL0     H  385   5.321   2.797   6.359 -2.8802  3.2050  1.0472
    3MOL0     H  386   5.104   2.852   6.249 -0.7239  0.5065 -0.8298
    3MOL0     H  387   4.887   2.639   5.789  2.5456  0.5151  3.7164
    3MOL0     H  388   4.652   2.640   5.694  0.2797 -0.5067  1.5086
    3MOL0     H  389   4.279   2.007   6.313 -0.6219  0.1695  0.2123
    3MOL0     H  390   4.428   2.067   6.499 -3.5342 -2.4073  2.3768
    3MOL0     H  391   4.666   2.135   6.722  0.0766 -1.5432 -1.6189
    3MOL0     H  392   4.768   2.272   6.888  0.0206 -0.6216 -0.5419
    3MOL0     H  393   4.911   2.363   7.077  0.0595 -1.5585 -0.3550
    3MOL0     H  394   4.931   2.427   6.920 -2.5990  1.7242  3.1669
    3MOL0     H  395   5.134   2.407   7.145 -0.6057 -2.1682 -0.1573
    3MOL0     H  396   5.053   2.550   7.084  0.7406  0.1008  2.6839
    3MOL0     H  397   5.239   2.393   6.889 -1.6718  1.1227 -2.5110
    3MOL0     H  398   5.307   2.472   7.023  0.8889 -1.1613 -1.1915
    3MOL0     H  399   5.287   2.607   6.794  2.7975 -0.8506  3.1010
    3MOL0     H  400   5.108   2.610   6.832 -0.1896 -2.4888 -0.5738
    3MOL0     H  401   5.298   2.893   7.093  0.7044 -0.1437 -1.0470
    3MOL0     H  402   5.146   2.068   6.808 -0.5720  1.8917 -0.0322
    3MOL0     H  403   5.150   1.889   6.671  0.4075  1.8237  0.5590
    3MOL0     H  404   5.011   1.805   6.611 -0.4245  0.3504  1.1331
    3MOL0     H  405   5.078   1.936   6.520  1.8168  0.4770  1.5859
    4MOL0     O  406   6.454   2.116  10.692 -0.5027  0.0760  0.1031
    4MOL0     C  407   6.433   2.222  10.734  0.4102 -0.3927  0.7336
    4MOL0     O  408   6.337   2.250  10.840  0.7008 -0.2163 -0.2962
    4MOL0     C  409   6.323   2.142  10.927 -0.0494  0.2071  0.9636
    4MOL0     C  410   6.225   2.044  10.896  0.1219 -0.4589  0.3824
    4MOL0     C  411   6.201   1.940  10.989 -0.6080 -0.1302 -0.3107
    4MOL0     C  412   6.271   1.932  11.111  0.0633  0.0148 -0.6309
    4MOL0     O  413   6.247   1.821  11.184 -0.8831  0.3151 -0.6492
    4MOL0     C  414   6.322   1.800  11.309  0.1865 -0.1241 -0.1722
    4MOL0     C  415   6.271   1.672  11.380 -0.1436 -0.3148 -0.2577
    4MOL0     C  416   6.142   1.704  11.453 -0.2092 -0.2294 -0.4517
    4MOL0     C  417   6.060   1.574  11.491  0.1296 -0.2716  0.0440
    4MOL0     C  418   5.917   1.614  11.541  0.2287  0.0092  0.1881
    4MOL0     C  419   5.822   1.497  11.583 -0.1028  0.1095 -0.0887
    4MOL0     C  420   5.671   1.544  11.595 -0.1232  0.8833  0.3255
    4MOL0     C  421   5.586   1.415  11.587 -0.3485 -1.0562 -0.2390
    4MOL0     N  422   5.599   1.332  11.708  0.6376  0.5083 -0.8383
    4MOL0     C  423   5.686   1.227  11.721 -0.4842 -0.0888  0.9500
    4MOL0     C  424   5.638   1.171  11.836 -0.2311  0.5808 -0.1877
    4MOL0     C  425   5.668   1.037  11.901  0.0402 -0.4657  0.8651
    4MOL0     C  426   5.807   1.057  11.971  0.6816 -0.2547  0.6326
    4MOL0     C  427   5.809   1.161  12.081 -0.4390  0.5701  0.3792
    4MOL0     C  428   5.932   1.153  12.170  0.0993  0.4894 -0.3122
    4MOL0     O  429   6.062   1.164  12.100  0.0058 -0.2429 -0.0792
    4MOL0     C  430   6.170   1.197  12.177 -1.1913 -1.2677 -0.3278
    4MOL0     C  431   6.194   1.120  12.296 -0.2429  0.1490  0.4110
    4MOL0     C  432   6.304   1.161  12.378  0.7280 -0.1683 -0.1350
    4MOL0     C  433   6.376   1.272  12.361 -0.6814  0.8432  0.2931
    4MOL0     C  434   6.496   1.318  12.448  0.4015  0.0384 -0.6219
    4MOL0     O  435   6.576   1.417  12.415  0.2020 -0.3456  0.1850
    4MOL0     C  436   6.660   1.463  12.515  0.7135  0.2358  0.6627
    4MOL0     C  437   6.791   1.420  12.558  0.5375  0.3748 -0.0529
    4MOL0     C  438   6.850   1.487  12.659 -1.4052 -0.0079  0.1467
    4MOL0     C  439   6.790   1.588  12.740  0.6068  0.2669 -0.1694
    4MOL0     O  440   6.854   1.658  12.834  0.0750  0.0947 -0.7286
    4MOL0     C  441   6.819   1.795  12.854 -0.3323  0.4434  0.6733
    4MOL0     C  442   6.927   1.872  12.928 -1.4226  0.3805  0.3245
    4MOL0     C  443   7.070   1.841  12.877 -0.0670  0.3731 -0.1532
    4MOL0     C  444   7.165   1.945  12.933  1.3092 -0.4602 -0.2120
    4MOL0     C  445   7.298   1.985  12.863 -0.3194 -0.2856  0.2872
    4MOL0     C  446   7.281   2.038  12.716  0.4369  0.7063 -0.2449
    4MOL0     C  447   7.181   2.154  12.704 -0.0293 -0.4045  0.4125
    4MOL0     C  448   7.180   2.225  12.568 -0.7725  0.0771  0.5848
    4MOL0    Cl  449   7.095   2.131  12.434 -0.0553 -0.1333 -0.2956
    4MOL0     C  450   6.654   1.621  12.705  0.5005  0.4072 -0.2550
    4MOL0     C  451   6.589   1.561  12.594  0.4782  0.9814  1.5714
    4MOL0     O  452   6.507   1.253  12.552  0.0872  0.2066  0.2720
    4MOL0     C  453   6.354   1.348  12.246 -0.8108 -0.5790  0.2800
    4MOL0     C  454   6.247   1.315  12.163  0.2885  0.0379  0.6995
    4MOL0     N  455   5.535   1.239  11.878  1.1146 -0.3515  0.7998
    4MOL0     N  456   5.502   1.335  11.804  0.7546  0.1643 -0.4448
    4MOL0     C  457   6.363   2.033  11.138 -0.5030  0.0196 -0.7793
    4MOL0     C  458   6.385   2.143  11.048 -0.4888 -0.0741  0.2356
    4MOL0     C  459   6.499   2.339  10.671  0.2217 -0.6599  0.9287
    4MOL0     C  460   6.464   2.465  10.727 -0.4951  0.3522 -0.9855
    4MOL0     C  461   6.528   2.571  10.671 -1.0878 -0.3321 -0.3745
    4MOL0     C  462   6.620   2.567  10.559  0.7719 -1.0669  0.2401
    4MOL0     O  463   6.668   2.675  10.486  0.7514  0.1444  0.1162
    4MOL0     C  464   6.616   2.799  10.520  0.1333 -0.4411 -0.2495
    4MOL0     C  465   6.638   2.909  10.414  0.3467 -0.5777 -0.3582
    4MOL0     C  466   6.569   2.865  10.284 -0.2007  0.3982  0.0414
    4MOL0     C  467   6.588   2.950  10.151  0.3468  0.5489  0.1571
    4MOL0     C  468   6.731   2.955  10.121 -0.2394  0.0949  0.5173
    4MOL0     C  469   6.851   2.941  10.086  0.4358  0.1345  0.3765
    4MOL0     C  470   6.661   2.436  10.506  0.5203 -0.6677  0.2472
    4MOL0     C  471   6.606   2.322  10.574 -0.3086 -0.4172  0.5170
    4MOL0     C  472   6.673   2.187  10.536 -0.0717  0.1328 -0.5616
    4MOL0     H  473   6.173   2.045  10.800 -1.5399  0.7367  1.2533
    4MOL0     H  474   6.137   1.855  10.969  0.0564 -0.3053 -1.9007
    4MOL0     H  475   6.430   1.787  11.296  0.1464 -0.0108 -0.6360
    4MOL0     H  476   6.323   1.879  11.384  2.5712  3.7429 -3.8348
    4MOL0     H  477   6.351   1.645  11.451 -1.7885 -0.8587  1.4655
    4MOL0     H  478   6.266   1.585  11.314  1.1023 -2.1925  1.9486
    4MOL0     H  479   6.076   1.763  11.388  0.0055 -0.0181 -0.4809
    4MOL0     H  480   6.165   1.775  11.532 -1.6532  0.4256 -0.5879
    4MOL0     H  481   6.055   1.519  11.397 -1.7624 -2.9230  1.5448
    4MOL0     H  482   6.120   1.507  11.553  0.1247  0.1649  0.5330
    4MOL0     H  483   5.928   1.689  11.620 -4.4871  0.3242  0.8382
    4MOL0     H  484   5.880   1.674  11.457  1.1608 -1.9262 -1.7048
    4MOL0     H  485   5.837   1.419  11.508 -3.8153 -1.2672  0.3935
    4MOL0     H  486   5.842   1.467  11.687  0.5740 -1.9597 -0.7656
    4MOL0     H  487   5.637   1.604  11.510 -0.1849 -1.5096 -1.4615
    4MOL0     H  488   5.646   1.603  11.684  1.9796 -1.4518  2.6292
    4MOL0     H  489   5.485   1.456  11.577  0.6689  1.1679 -2.1372
    4MOL0     H  490   5.610   1.356  11.498  0.1333  0.7859 -1.3789
    4MOL0     H  491   5.761   1.191  11.652 -2.4156  0.2431 -1.4799
    4MOL0     H  492   5.583   1.016  11.966 -0.9403  3.0376  0.9532
    4MOL0     H  493   5.675   0.954  11.830 -0.3425 -1.1122  1.5728
    4MOL0     H  494   5.841   0.956  11.998 -1.4167 -1.4635 -0.8440
    4MOL0     H  495   5.881   1.085  11.896 -1.4133 -0.6958 -1.7573
    4MOL0     H  496   5.713   1.157  12.132 -2.7444  2.4682 -3.3340
    4MOL0     H  497   5.805   1.259  12.032 -0.4833  0.6995  0.6419
    4MOL0     H  498   5.934   1.058  12.224  1.1425  0.2073 -0.8108
    4MOL0     H  499   5.917   1.231  12.245 -1.2272  0.1932 -0.2603
    4MOL0     H  500   6.129   1.034  12.309 -1.1856  0.3146 -2.4637
    4MOL0     H  501   6.324   1.095  12.462 -2.1627  1.0913  1.6960
    4MOL0     H  502   6.847   1.338  12.513 -1.2616 -0.3775 -1.0307
    4MOL0     H  503   6.948   1.449  12.686 -2.7955 -0.5003  5.6802
    4MOL0     H  504   6.800   1.837  12.755 -1.1791 -0.0601  0.6111
    4MOL0     H  505   6.726   1.799  12.913  1.1261  0.0989  3.1678
    4MOL0     H  506   6.906   1.979  12.917  3.7803  1.7131  0.6125
    4MOL0     H  507   6.945   1.851  13.034  0.7508  1.5218  0.2376
    4MOL0     H  508   7.099   1.743  12.915  1.3617  0.6408 -0.4834
    4MOL0     H  509   7.087   1.850  12.769  3.8848  1.6913  0.4092
    4MOL0     H  510   7.202   1.910  13.030  0.5347 -0.5457  0.0579
    4MOL0     H  511   7.112   2.039  12.951  1.1644  0.4303 -4.2776
    4MOL0     H  512   7.374   1.906  12.858  0.1707  0.2412 -1.0495
    4MOL0     H  513   7.345   2.061  12.926  2.2549 -0.0587 -1.7109
    4MOL0     H  514   7.376   2.050  12.663  0.4805 -2.1638 -0.9732
    4MOL0     H  515   7.243   1.954  12.657 -0.7110  0.9276  0.1384
    4MOL0     H  516   7.206   2.231  12.777  0.8116 -0.2234 -0.0513
    4MOL0     H  517   7.075   2.128  12.714 -1.1457  2.7287 -1.6120
    4MOL0     H  518   7.112   2.309  12.582 -2.1735 -0.7974 -0.6312
    4MOL0     H  519   7.283   2.253  12.545 -0.4013 -0.5040  1.4792
    4MOL0     H  520   6.603   1.699  12.761  2.7040  1.5203  0.3007
    4MOL0     H  521   6.482   1.565  12.576  0.5637 -3.1790 -1.4006
    4MOL0     H  522   6.414   1.434  12.215 -3.4062  1.9646  1.8175
    4MOL0     H  523   6.237   1.374  12.072  0.3375  1.9912  1.9011
    4MOL0     H  524   6.417   2.048  11.230 -1.6556 -1.1097  0.1087
    4MOL0     H  525   6.449   2.220  11.090  2.9011 -3.1076  1.1214
    4MOL0     H  526   6.391   2.478  10.807  0.9927  0.6158  0.3915
    4MOL0     H  527   6.501   2.663  10.721  2.7222  0.6266  0.2188
    4MOL0     H  528   6.671   2.835  10.607  1.3856 -2.6650 -0.0427
    4MOL0     H  529   6.508   2.783  10.535  0.4920 -1.2206  1.9563
    4MOL0     H  530   6.747   2.897  10.412  0.5844  0.9381  1.0611
    4MOL0     H  531   6.605   3.009  10.442 -0.0153 -0.1809 -2.1151
    4MOL0     H  532   6.459   2.866  10.291 -0.3131  1.6331 -1.3190
    4MOL0     H  533   6.610   2.765  10.268  1.0342  0.4401  2.5665
    4MOL0     H  534   6.532   2.914  10.064  0.3602  0.6723  0.0967
    4MOL0     H  535   6.548   3.051  10.164  0.2712  0.4487  0.7159
    4MOL0     H  536   6.949   2.954  10.044 -0.7188  0.3553 -2.4597
    4MOL0     H  537   6.722   2.423  10.417  1.2631  1.7311  0.3429
    4MOL0     H  538   6.609   2.121  10.477  0.5639 -3.2816  2.2169
    4MOL0     H  539   6.772   2.199  10.490  1.0369 -0.2144  1.5756
    4MOL0     H  540   6.696   2.130  10.627 -0.7862  2.8349  1.4198
    5MOL0     O  541   4.383  10.024   4.283  0.5133 -0.1008 -0.9714
    5MOL0     C  542   4.468  10.005   4.200  0.7508  2.0995 -0.2948
    5MOL0     O  543   4.515  10.096   4.108 -0.3062 -0.2559 -0.1895
    5MOL0     C  544   4.455  10.221   4.116 -0.0143  0.4094 -0.4847
    5MOL0     C  545   4.371  10.262   4.009  0.2563 -0.8461  1.2090
    5MOL0     C  546   4.307  10.394   4.019  0.6956 -0.8068  0.1701
    5MOL0     C  547   4.325  10.470   4.136 -0.0128 -0.2252  0.7726
    5MOL0     O  548   4.251  10.588   4.133 -0.0686 -0.4685 -0.2368
    5MOL0     C  549   4.204  10.623   4.263 -0.3553  0.4177 -0.4420
    5MOL0     C  550   4.101  10.729   4.266  0.3507 -0.6949  0.3790
    5MOL0     C  551   3.985  10.706   4.167 -0.1789  0.5741  0.3461
    5MOL0     C  552   3.852  10.654   4.232 -0.3758 -0.6068  0.5110
    5MOL0     C  553   3.758  10.583   4.139 -0.5280  0.0984 -0.1393
    5MOL0     C  554   3.697  10.681   4.033 -0.1436 -0.1983  0.2479
    5MOL0     C  555   3.601  10.777   4.103  0.7998  0.5699  0.0804
    5MOL0     C  556   3.546  10.874   4.007  0.3923  0.3138  0.2096
    5MOL0     N  557   3.647  10.986   4.009  0.6366  0.3154  0.0605
    5MOL0     C  558   3.679  11.075   4.111 -0.2738 -1.2797  0.4563
    5MOL0     C  559   3.798  11.130   4.082 -0.1334 -0.5685  0.4532
    5MOL0     C  560   3.897  11.209   4.165  1.5046 -0.1305  0.2924
    5MOL0     C  561   3.995  11.111   4.225 -0.9049  0.0129  0.1197
    5MOL0     C  562   4.087  11.188   4.317  0.1652  0.2906 -1.1115
    5MOL0     C  563   4.229  11.114   4.335  0.7764 -0.2000 -0.2874
    5MOL0     O  564   4.303  11.196   4.424  0.1026  0.2009  0.1460
    5MOL0     C  565   4.436  11.183   4.435  0.1531  0.1582  0.0830
    5MOL0     C  566   4.508  11.258   4.524  0.3101 -0.4646  0.2846
    5MOL0     C  567   4.639  11.246   4.559 -0.7226  0.2955  0.1345
    5MOL0     C  568   4.713  11.148   4.498 -0.5722  0.0223 -0.1750
    5MOL0     C  569   4.853  11.128   4.545 -0.0703 -0.5338 -0.1188
    5MOL0     O  570   4.938  11.228   4.579 -0.8658 -0.3792  0.6259
    5MOL0     C  571   5.073  11.201   4.626  1.5583 -0.8536 -0.1878
    5MOL0     C  572   5.103  11.197   4.763 -1.6049  0.5857  0.5162
    5MOL0     C  573   5.238  11.174   4.802  0.6487 -1.1471 -0.2310
    5MOL0     C  574   5.338  11.158   4.709  0.4367 -0.0298  0.1910
    5MOL0     O  575   5.465  11.137   4.764 -0.5320  0.0299  0.8560
    5MOL0     C  576   5.552  11.047   4.693 -0.3366  1.6634  0.7215
    5MOL0     C  577   5.655  11.117   4.601 -0.4829 -0.1529 -0.8255
    5MOL0     C  578   5.778  11.175   4.684  0.6571 -0.7054  0.5733
    5MOL0     C  579   5.733  11.307   4.769 -0.1081 -0.2253 -0.0175
    5MOL0     C  580   5.853  11.380   4.834  0.0663  0.5876 -0.3364
    5MOL0     C  581   5.807  11.513   4.882  0.1513  0.5295 -0.1874
    5MOL0     C  582   5.899  11.581   4.982  0.9441 -0.0201  0.6806
    5MOL0     C  583   5.834  11.624   5.112  0.2989 -1.0087  0.8210
    5MOL0    Cl  584   5.684  11.731   5.064 -0.1916 -0.0647  0.2693
    5MOL0     C  585   5.304  11.144   4.573  0.4193 -0.6469  0.4379
    5MOL0     C  586   5.171  11.169   4.528 -0.0666  0.2240  0.2815
    5MOL0     O  587   4.880  11.008   4.553  0.1479 -0.8135  0.0828
    5MOL0     C  588   4.648  11.071   4.398  1.1348  0.2833 -0.0814
    5MOL0     C  589   4.511  11.090   4.364  0.0127 -0.6936 -0.9124
    5MOL0     N  590   3.849  11.066   3.964  1.3916  0.6501  0.3760
    5MOL0     N  591   3.753  10.991   3.917 -0.4544  0.2856  0.3670
    5MOL0     C  592   4.418  10.429   4.239  0.3293  0.2752  0.1050
    5MOL0     C  593   4.477  10.305   4.225  0.7966  0.4043  0.1266
    5MOL0     C  594   4.525   9.859   4.194  1.2852  0.5590  0.2483
    5MOL0     C  595   4.546   9.785   4.316  0.6874  0.5847 -0.3471
    5MOL0     C  596   4.609   9.657   4.323  2.0531 -0.1934 -0.5550
    5MOL0     C  597   4.658   9.610   4.202  0.5452  0.9189 -0.1862
    5MOL0     O  598   4.708   9.482   4.179 -0.0954  0.3156  0.4715
    5MOL0     C  599   4.748   9.400   4.289 -0.0407 -0.2000 -0.7697
    5MOL0     C  600   4.635   9.333   4.368  0.8092  0.1745  0.7222
    5MOL0     C  601   4.620   9.180   4.334  0.9079 -0.3465 -0.7168
    5MOL0     C  602   4.740   9.095   4.379 -1.0151  0.8028  0.5914
    5MOL0     C  603   4.719   8.969   4.308 -0.3110  0.3412  0.1579
    5MOL0     C  604   4.683   8.859   4.267 -1.2679 -0.2838  0.0485
    5MOL0     C  605   4.637   9.679   4.083  0.4748  0.1798 -0.2287
    5MOL0     C  606   4.581   9.802   4.074  1.7221  0.5675  0.2769
    5MOL0     C  607   4.561   9.877   3.938 -1.1175 -0.2433 -0.1832
    5MOL0     H  608   4.352  10.213   3.914 -1.3200  2.5619 -0.4389
    5MOL0     H  609   4.247  10.433   3.937 -1.7021 -2.3041  1.1037
    5MOL0     H  610   4.149  10.537   4.303 -1.3394  0.6733 -1.2104
    5MOL0     H  611   4.284  10.657   4.330 -1.0863  0.8354  0.2450
    5MOL0     H  612   4.159  10.815   4.229  2.0829 -2.3272 -0.8868
    5MOL0     H  613   4.073  10.763   4.366 -0.3944  3.2992 -1.0111
    5MOL0     H  614   4.024  10.633   4.095  1.4763 -0.0997  1.8422
    5MOL0     H  615   3.968  10.804   4.120  2.8946  1.0719  0.0356
    5MOL0     H  616   3.886  10.583   4.308  1.9112  0.5468  0.6586
    5MOL0     H  617   3.811  10.741   4.285 -1.6584 -0.7602 -0.1970
    5MOL0     H  618   3.814  10.503   4.090 -0.1365  1.3071 -1.7691
    5MOL0     H  619   3.676  10.531   4.190  0.2283 -1.4234 -0.4232
    5MOL0     H  620   3.774  10.741   3.985 -0.5509  1.2272  1.3025
    5MOL0     H  621   3.654  10.622   3.952  3.1704 -0.8171 -1.2315
    5MOL0     H  622   3.651  10.822   4.190 -0.3495  3.6523 -0.7224
    5MOL0     H  623   3.513  10.716   4.125 -0.7342  1.9583 -1.9109
    5MOL0     H  624   3.530  10.836   3.906 -1.2429  2.4930 -0.4291
    5MOL0     H  625   3.447  10.906   4.041  0.7639  2.1595 -0.2930
    5MOL0     H  626   3.624  11.079   4.205 -1.7416  0.3168 -0.4016
    5MOL0     H  627   3.948  11.287   4.107 -1.2986  0.9777 -0.8939
    5MOL0     H  628   3.851  11.271   4.242  0.5016 -1.1449  0.5351
    5MOL0     H  629   3.940  11.034   4.280  0.3366  1.3031  3.3713
    5MOL0     H  630   4.068  11.065   4.158  1.0210  1.0362  1.4167
    5MOL0     H  631   4.041  11.190   4.416  2.6258 -1.5483  0.1627
    5MOL0     H  632   4.090  11.292   4.283  0.3021  0.2255 -1.2941
    5MOL0     H  633   4.279  11.103   4.238  1.1332 -3.7830  0.1930
    5MOL0     H  634   4.215  11.017   4.382  1.3807 -0.3771 -0.4602
    5MOL0     H  635   4.458  11.332   4.585 -1.1728 -1.1606 -0.0269
    5MOL0     H  636   4.673  11.313   4.637 -3.3555  0.7417  0.9977
    5MOL0     H  637   5.025  11.224   4.833 -0.6618  2.7511  0.8384
    5MOL0     H  638   5.256  11.179   4.909 -0.0436  0.4968 -0.1581
    5MOL0     H  639   5.606  10.991   4.770 -1.6183 -1.0209 -0.1661
    5MOL0     H  640   5.488  10.982   4.632 -1.2003  0.4216  2.8328
    5MOL0     H  641   5.691  11.053   4.520 -0.4032  0.5104 -1.3174
    5MOL0     H  642   5.603  11.190   4.539  0.4028 -1.6067 -3.4106
    5MOL0     H  643   5.813  11.100   4.755 -0.2348 -0.9854  0.7338
    5MOL0     H  644   5.860  11.195   4.614 -0.8178  1.8256 -0.6078
    5MOL0     H  645   5.659  11.292   4.848  1.0761  0.0907  1.1876
    5MOL0     H  646   5.690  11.368   4.689 -0.7233  0.3269  0.7192
    5MOL0     H  647   5.949  11.374   4.783  0.5194  0.8656  0.4671
    5MOL0     H  648   5.868  11.312   4.918  1.4469  0.3343 -0.7601
    5MOL0     H  649   5.789  11.576   4.795 -0.0052 -0.0762 -0.5934
    5MOL0     H  650   5.709  11.497   4.930  0.6601  2.8489  1.8224
    5MOL0     H  651   5.935  11.658   4.913 -1.7162 -0.5227 -1.4309
    5MOL0     H  652   5.982  11.515   5.011  2.8662  2.3838  1.0307
    5MOL0     H  653   5.797  11.540   5.171  1.1616 -1.6164  0.5027
    5MOL0     H  654   5.909  11.677   5.171  2.4208 -0.8556 -1.8441
    5MOL0     H  655   5.379  11.130   4.496  1.9996  1.1331  1.5582
    5MOL0     H  656   5.143  11.182   4.424 -0.2528 -0.6283  0.2140
    5MOL0     H  657   4.707  11.003   4.337 -0.0787 -1.1906  0.3490
    5MOL0     H  658   4.470  11.028   4.286 -3.3094  2.2827 -1.7789
    5MOL0     H  659   4.444  10.499   4.317  1.3087 -0.6512  0.6319
    5MOL0     H  660   4.536  10.259   4.304  0.0018 -2.9444 -1.0462
    5MOL0     H  661   4.494   9.819   4.405  0.6168  1.9017 -0.8675
    5MOL0     H  662   4.612   9.613   4.422 -0.4314 -0.2327 -0.4381
    5MOL0     H  663   4.803   9.456   4.365  0.5091  0.5228 -1.6791
    5MOL0     H  664   4.817   9.324   4.252 -2.1323 -2.1175 -0.9368
    5MOL0     H  665   4.538   9.379   4.347 -0.2725 -1.9659  0.7744
    5MOL0     H  666   4.653   9.338   4.476  1.8550 -2.2972  0.7348
    5MOL0     H  667   4.607   9.185   4.226 -0.6513  2.1450 -0.5162
    5MOL0     H  668   4.526   9.133   4.364 -0.9795  1.2518 -3.6616
    5MOL0     H  669   4.836   9.140   4.356  0.4587 -2.2412  0.3035
    5MOL0     H  670   4.737   9.077   4.487 -0.0609 -1.9215  0.2484
    5MOL0     H  671   4.663   8.760   4.231 -2.0817 -0.1955  0.2399
    5MOL0     H  672   4.682   9.625   4.000  2.8040  2.9070 -0.9141
    5MOL0     H  673   4.457   9.882   3.905 -0.6118 -1.8000 -2.2138
    5MOL0     H  674   4.614   9.973   3.934  0.3375 -1.0442 -0.9868
    5MOL0     H  675   4.608   9.829   3.852  1.7602  0.8445  0.6409
    6MOL0     O  676   0.238   7.794   7.812  0.0509 -0.2894  0.8978
    6MOL0     C  677   0.309   7.741   7.729  0.4211  0.7244  0.0398
    6MOL0     O  678   0.279   7.624   7.662 -0.2358  0.0660 -0.5412
    6MOL0     C  679   0.163   7.562   7.685  0.0289 -0.1442  0.2816
    6MOL0     C  680   0.047   7.628   7.648  0.2915 -0.5561 -1.3595
    6MOL0     C  681  -0.073   7.554   7.637  0.3916  1.1630  0.0499
    6MOL0     C  682  -0.079   7.416   7.657  0.8561  0.0590  0.6235
    6MOL0     O  683  -0.202   7.360   7.636  0.0369 -0.1928 -0.2909
    6MOL0     C  684  -0.234   7.241   7.721  0.3121 -0.0705 -0.0117
    6MOL0     C  685  -0.377   7.198   7.732  0.3226  0.1583  0.2583
    6MOL0     C  686  -0.371   7.068   7.815  0.6766 -0.1665 -0.4728
    6MOL0     C  687  -0.319   6.932   7.744  0.4937 -0.5903 -0.0690
    6MOL0     C  688  -0.401   6.879   7.627  0.6686  0.3922 -0.1949
    6MOL0     C  689  -0.354   6.744   7.593  0.2151  0.4259  0.3388
    6MOL0     C  690  -0.430   6.701   7.467 -0.3909  0.4165  0.1132
    6MOL0     C  691  -0.419   6.548   7.449  0.1621 -0.6938 -0.4863
    6MOL0     N  692  -0.458   6.503   7.323 -0.1073  0.4824  0.1545
    6MOL0     C  693  -0.471   6.574   7.208 -0.4295 -0.0866 -0.0953
    6MOL0     C  694  -0.501   6.497   7.110  1.3190  0.9648  0.4676
    6MOL0     C  695  -0.538   6.526   6.962 -0.7788  0.0782  0.9306
    6MOL0     C  696  -0.538   6.420   6.859  0.5793  0.6062  0.0672
    6MOL0     C  697  -0.672   6.359   6.874 -0.4334  0.7368 -0.0146
    6MOL0     C  698  -0.674   6.229   6.792 -0.7989 -0.9417  0.2576
    6MOL0     O  699  -0.806   6.176   6.786  0.2245  0.2759  0.1826
    6MOL0     C  700  -0.906   6.225   6.703  0.0350 -0.7571  0.0528
    6MOL0     C  701  -0.894   6.339   6.624  0.4008  0.5241 -0.0675
    6MOL0     C  702  -0.999   6.363   6.525 -0.2608 -0.8545  0.1235
    6MOL0     C  703  -1.118   6.296   6.527  0.7597 -0.2069  0.7409
    6MOL0     C  704  -1.221   6.310   6.430  0.5464  1.7187 -0.1959
    6MOL0     O  705  -1.182   6.272   6.307  0.4977 -0.5919 -0.0176
    6MOL0     C  706  -1.271   6.312   6.210  1.0427 -0.1483 -0.0455
    6MOL0     C  707  -1.249   6.444   6.164 -0.8743 -0.2919  0.0128
    6MOL0     C  708  -1.332   6.485   6.063 -0.2772 -0.7947  0.2311
    6MOL0     C  709  -1.438   6.413   6.011 -0.1158 -0.2363  1.5615
    6MOL0     O  710  -1.510   6.446   5.894 -0.1798  0.7264 -0.0132
    6MOL0     C  711  -1.484   6.575   5.839 -0.4651 -0.0336  0.2558
    6MOL0     C  712  -1.572   6.598   5.719  0.6737  1.1851  0.1866
    6MOL0     C  713  -1.627   6.476   5.675 -0.6087 -0.6424  0.9781
    6MOL0     C  714  -1.689   6.498   5.531 -0.4952 -0.8356 -0.2097
    6MOL0     C  715  -1.728   6.365   5.459  0.1184  0.2562  1.0105
    6MOL0     C  716  -1.764   6.388   5.308  0.4367  0.4845 -0.0527
    6MOL0     C  717  -1.913   6.410   5.282 -1.1310 -0.2115  0.9700
    6MOL0     C  718  -2.003   6.295   5.339 -0.2449  0.3809 -0.3262
    6MOL0    Cl  719  -2.173   6.334   5.281 -0.1692 -0.4651  0.0211
    6MOL0     C  720  -1.466   6.292   6.073  0.0506 -0.3803 -0.2003
    6MOL0     C  721  -1.379   6.236   6.156  0.6949 -0.4001 -1.2342
    6MOL0     O  722  -1.336   6.339   6.464 -0.2201  0.4536 -0.2619
    6MOL0     C  723  -1.138   6.202   6.621 -0.1391  0.2833  0.6908
    6MOL0     C  724  -1.030   6.162   6.710  0.3640 -0.0938 -0.0428
    6MOL0     N  725  -0.513   6.377   7.174  0.2077 -0.1215 -0.0665
    6MOL0     N  726  -0.467   6.376   7.300  0.0658  0.6579  0.3496
    6MOL0     C  727   0.036   7.353   7.702 -1.2966 -0.1553 -0.1520
    6MOL0     C  728   0.150   7.430   7.729 -1.0426 -0.3353 -0.1370
    6MOL0     C  729   0.442   7.809   7.712  0.3017 -0.5008 -0.0260
    6MOL0     C  730   0.450   7.949   7.729  0.5917 -0.4164 -0.2796
    6MOL0     C  731   0.568   8.021   7.712  0.9132  0.4358  0.3629
    6MOL0     C  732   0.692   7.960   7.700  0.2080  0.4629  0.1077
    6MOL0     O  733   0.808   8.029   7.689 -0.4348  0.1473 -0.6465
    6MOL0     C  734   0.814   8.178   7.694  0.2495  0.5241 -0.2320
    6MOL0     C  735   0.850   8.215   7.841 -0.8798  0.6179 -0.3059
    6MOL0     C  736   0.875   8.366   7.843  0.4231  0.6926  0.6774
    6MOL0     C  737   0.746   8.439   7.877 -0.0298  0.3320  0.2572
    6MOL0     C  738   0.656   8.454   7.757 -0.5656  0.0567  0.4631
    6MOL0     C  739   0.585   8.469   7.662  0.3362 -0.1501 -0.2865
    6MOL0     C  740   0.693   7.820   7.689 -0.0912  0.3208  0.2654
    6MOL0     C  741   0.571   7.741   7.703 -0.3846  0.1635  0.2038
    6MOL0     C  742   0.585   7.584   7.693 -0.3817 -1.1233  1.1487
    6MOL0     H  743   0.050   7.729   7.608 -2.1964  0.6125  0.9854
    6MOL0     H  744  -0.153   7.605   7.585  1.0376  0.1890 -2.0050
    6MOL0     H  745  -0.165   7.164   7.685  4.2177  3.1934 -0.1968
    6MOL0     H  746  -0.208   7.261   7.825 -1.5558  2.3677  0.0780
    6MOL0     H  747  -0.413   7.189   7.630 -2.6020  4.7164  0.6540
    6MOL0     H  748  -0.434   7.273   7.786 -1.2232 -1.1877  0.5696
    6MOL0     H  749  -0.477   7.052   7.841  0.3836  2.0919 -0.0770
    6MOL0     H  750  -0.324   7.079   7.913 -0.0582  0.6268 -0.1868
    6MOL0     H  751  -0.224   6.963   7.698  0.6281 -2.2838 -1.0229
    6MOL0     H  752  -0.303   6.849   7.814 -2.6062 -1.1582  0.0939
    6MOL0     H  753  -0.509   6.878   7.645  0.7865  1.3202  0.6070
    6MOL0     H  754  -0.388   6.944   7.540 -1.3520  2.4755  0.9610
    6MOL0     H  755  -0.247   6.726   7.579 -0.1426 -4.7079  2.0398
    6MOL0     H  756  -0.379   6.674   7.673  2.5486  1.0473  1.6919
    6MOL0     H  757  -0.381   6.764   7.393  0.9541  2.5047  2.6387
    6MOL0     H  758  -0.536   6.728   7.471 -0.1791  1.4524 -0.7787
    6MOL0     H  759  -0.315   6.516   7.464  0.2821 -1.3355 -2.3404
    6MOL0     H  760  -0.484   6.505   7.526  1.9390 -1.9518  0.3883
    6MOL0     H  761  -0.447   6.680   7.199  0.1016 -0.1187  0.8552
    6MOL0     H  762  -0.639   6.568   6.970 -0.9035 -0.1037  0.3139
    6MOL0     H  763  -0.474   6.605   6.922  0.8346 -1.7448 -0.2537
    6MOL0     H  764  -0.533   6.469   6.761 -1.7131  1.7222  0.4490
    6MOL0     H  765  -0.448   6.357   6.856  0.1548 -0.0037 -0.2985
    6MOL0     H  766  -0.763   6.413   6.848 -0.6936  0.1241 -0.4034
    6MOL0     H  767  -0.690   6.332   6.979 -0.6970 -0.9148 -0.4575
    6MOL0     H  768  -0.608   6.160   6.845 -1.4423 -1.3537  0.5430
    6MOL0     H  769  -0.629   6.240   6.693  0.4942  4.0638  1.1383
    6MOL0     H  770  -0.803   6.396   6.607  0.7284 -0.0281 -0.1817
    6MOL0     H  771  -0.982   6.446   6.457  0.9597  0.3974  1.8734
    6MOL0     H  772  -1.172   6.510   6.202 -1.1158  0.2949 -0.4899
    6MOL0     H  773  -1.319   6.589   6.034 -0.9732 -0.0055  2.4863
    6MOL0     H  774  -1.513   6.655   5.907  2.2493  1.6159 -0.3940
    6MOL0     H  775  -1.380   6.583   5.807 -1.2686 -0.4608 -2.7967
    6MOL0     H  776  -1.663   6.651   5.748 -0.6015 -2.2116  3.1029
    6MOL0     H  777  -1.512   6.648   5.643 -0.5941  0.8913 -1.0514
    6MOL0     H  778  -1.548   6.402   5.660 -0.1860  0.1307 -0.9201
    6MOL0     H  779  -1.698   6.439   5.749 -4.3718 -2.1294 -2.9582
    6MOL0     H  780  -1.622   6.547   5.459 -4.4172  1.5071 -2.6011
    6MOL0     H  781  -1.778   6.559   5.550 -1.6427 -2.7585  0.8843
    6MOL0     H  782  -1.797   6.305   5.519 -2.7010  0.8058 -1.4585
    6MOL0     H  783  -1.639   6.303   5.466 -1.3614 -2.0084  0.9665
    6MOL0     H  784  -1.706   6.468   5.261 -0.4482  0.6269 -0.9221
    6MOL0     H  785  -1.745   6.293   5.258 -1.5132 -1.3105  2.3517
    6MOL0     H  786  -1.928   6.420   5.175  1.6429  0.6312  0.5653
    6MOL0     H  787  -1.932   6.513   5.316 -0.5255  1.1962 -2.5176
    6MOL0     H  788  -1.964   6.193   5.325  2.0101  1.1664 -0.2897
    6MOL0     H  789  -1.995   6.299   5.448  0.7542  3.0545 -0.4301
    6MOL0     H  790  -1.559   6.246   6.040 -1.6361  3.2056 -1.0006
    6MOL0     H  791  -1.409   6.139   6.194 -3.6381  1.0244 -0.4539
    6MOL0     H  792  -1.237   6.162   6.640 -0.5096  0.7586 -0.1825
    6MOL0     H  793  -1.058   6.076   6.770 -2.7491 -1.0280 -2.5694
    6MOL0     H  794   0.052   7.246   7.713  3.1524  0.4838  1.4997
    6MOL0     H  795   0.241   7.379   7.760  0.9022  2.9405 -0.0766
    6MOL0     H  796   0.365   8.012   7.750  0.0712 -1.0150 -0.5781
    6MOL0     H  797   0.567   8.129   7.717 -0.0282  0.7269 -3.1115
    6MOL0     H  798   0.723   8.220   7.651 -0.1549  0.1742  0.2786
    6MOL0     H  799   0.884   8.221   7.622 -1.8898  0.2324 -2.6305
    6MOL0     H  800   0.938   8.161   7.877 -2.4189 -0.3502  2.3107
    6MOL0     H  801   0.759   8.195   7.900  0.6262  0.4082  2.0849
    6MOL0     H  802   0.915   8.400   7.747  1.5739  0.9570  1.2325
    6MOL0     H  803   0.959   8.388   7.910  1.5187 -0.0620 -0.4089
    6MOL0     H  804   0.692   8.389   7.958  2.8385  0.5273  2.4311
    6MOL0     H  805   0.763   8.540   7.914  0.8061  0.0968  0.5268
    6MOL0     H  806   0.529   8.463   7.571  1.5174 -0.4496 -1.0217
    6MOL0     H  807   0.787   7.766   7.686  1.4660  2.8375  0.2662
    6MOL0     H  808   0.507   7.560   7.620  0.9428  0.0845 -0.7571
    6MOL0     H  809   0.681   7.538   7.668  1.4533  3.3623 -1.1082
    6MOL0     H  810   0.559   7.547   7.793 -2.1783  1.6754  1.8349
    7MOL0     O  811   6.258   5.009   7.763 -0.3606 -0.5792  0.1860
    7MOL0     C  812   6.367   4.948   7.750 -0.0603  0.9186  0.5148
    7MOL0     O  813   6.409   4.889   7.635 -0.2976  0.0152  0.1366
    7MOL0     C  814   6.325   4.868   7.529 -0.2765 -0.8173  0.2281
    7MOL0     C  815   6.214   4.801   7.551  0.6536  0.6961 -0.3618
    7MOL0     C  816   6.126   4.778   7.446  0.4227 -0.0394 -0.2248
    7MOL0     C  817   6.152   4.819   7.304  0.0821 -0.5808 -0.4222
    7MOL0     O  818   6.070   4.801   7.198  0.8612 -0.4259  0.2551
    7MOL0     C  819   5.950   4.728   7.214  0.4664 -0.6936  0.2538
    7MOL0     C  820   5.891   4.717   7.071 -0.5537 -0.5694 -1.2513
    7MOL0     C  821   5.784   4.611   7.052  0.1649 -0.7985  0.2991
    7MOL0     C  822   5.801   4.509   6.938  0.4742  0.4029 -0.4883
    7MOL0     C  823   5.681   4.418   6.934 -0.5851 -1.2280 -0.3079
    7MOL0     C  824   5.535   4.474   6.929 -0.5640  0.0739  0.0070
    7MOL0     C  825   5.447   4.354   6.965 -0.3748  0.4376  0.7288
    7MOL0     C  826   5.424   4.339   7.111  1.3723 -0.4187  0.4298
    7MOL0     N  827   5.293   4.268   7.149 -0.0169  0.2287  1.0963
    7MOL0     C  828   5.172   4.330   7.146  0.0833  1.2362  0.0768
    7MOL0     C  829   5.082   4.230   7.193 -0.5016 -0.4864  1.0490
    7MOL0     C  830   4.938   4.245   7.211  0.5214  0.3206  0.2550
    7MOL0     C  831   4.868   4.255   7.077 -0.2090  0.1744  0.0659
    7MOL0     C  832   4.884   4.131   6.992  1.0975  1.5800 -0.5967
    7MOL0     C  833   4.862   4.172   6.846 -0.2137  0.1422 -0.2991
    7MOL0     O  834   4.900   4.071   6.753 -0.0989 -0.1838 -0.3618
    7MOL0     C  835   5.035   4.028   6.747 -0.2085 -0.2292  0.5240
    7MOL0     C  836   5.063   3.925   6.649 -0.5246 -0.3401 -0.0672
    7MOL0     C  837   5.190   3.868   6.651  0.1750  0.3905  0.7783
    7MOL0     C  838   5.295   3.912   6.728  0.3925  0.4234  0.2076
    7MOL0     C  839   5.426   3.858   6.714 -0.2724  0.6296  1.2074
    7MOL0     O  840   5.440   3.726   6.668  0.3788 -0.2643  0.0371
    7MOL0     C  841   5.541   3.701   6.574  0.5639 -0.1006  0.6595
    7MOL0     C  842   5.579   3.568   6.561 -0.0627  0.6364 -0.3450
    7MOL0     C  843   5.685   3.530   6.478  0.2179 -0.6344  0.5005
    7MOL0     C  844   5.770   3.629   6.417  1.0434 -0.0340 -0.5403
    7MOL0     O  845   5.874   3.586   6.347 -0.7260  0.2297  0.1619
    7MOL0     C  846   5.985   3.665   6.338  0.5257 -0.4867  0.0575
    7MOL0     C  847   6.115   3.593   6.323 -0.6733 -0.7622 -0.3288
    7MOL0     C  848   6.196   3.588   6.456  0.6320 -0.9644 -0.9707
    7MOL0     C  849   6.151   3.503   6.572  0.0658 -0.5516 -0.3168
    7MOL0     C  850   6.256   3.509   6.686 -0.2214 -0.2003 -0.0292
    7MOL0     C  851   6.224   3.419   6.805 -0.5504  0.2079 -0.2091
    7MOL0     C  852   6.292   3.453   6.935  0.2580  0.1679 -0.8350
    7MOL0     C  853   6.303   3.326   7.013  0.7642 -0.1867  0.4790
    7MOL0    Cl  854   6.456   3.229   6.967 -0.2628 -0.0929  0.0913
    7MOL0     C  855   5.729   3.761   6.428  0.6627  0.0296  0.5785
    7MOL0     C  856   5.617   3.800   6.506  0.9686  1.0494 -0.6542
    7MOL0     O  857   5.518   3.922   6.764 -0.0566  1.7059  0.2569
    7MOL0     C  858   5.274   4.011   6.821  0.0547 -0.3012  0.2923
    7MOL0     C  859   5.142   4.076   6.826 -0.3280 -0.1275  0.5820
    7MOL0     N  860   5.163   4.115   7.213  0.2988  0.1876 -0.0733
    7MOL0     N  861   5.288   4.136   7.186 -0.3113 -0.1363  0.1258
    7MOL0     C  862   6.273   4.884   7.288 -0.6564 -0.4881 -0.7133
    7MOL0     C  863   6.358   4.914   7.397 -0.0197 -1.1322  0.0054
    7MOL0     C  864   6.462   4.936   7.866 -0.3961 -0.0363 -0.2197
    7MOL0     C  865   6.536   4.816   7.875 -0.8274 -0.0084 -0.4952
    7MOL0     C  866   6.643   4.812   7.962 -0.8531 -0.4415 -0.0657
    7MOL0     C  867   6.667   4.914   8.060 -0.4129 -0.6701 -0.1455
    7MOL0     O  868   6.770   4.911   8.154  0.2074  0.1554  0.0898
    7MOL0     C  869   6.790   4.782   8.222  0.3419 -0.2502  0.5242
    7MOL0     C  870   6.880   4.796   8.336  0.7425 -0.0311 -0.4847
    7MOL0     C  871   6.940   4.658   8.371  0.1638  0.9187 -0.0946
    7MOL0     C  872   6.985   4.639   8.514  0.1398 -0.3882 -0.1520
    7MOL0     C  873   7.089   4.730   8.550  0.0063  0.1762  0.6318
    7MOL0     C  874   7.153   4.829   8.591 -0.5130  0.0654 -0.1947
    7MOL0     C  875   6.586   5.023   8.060 -0.7595  0.1856  0.8372
    7MOL0     C  876   6.491   5.042   7.955  0.0690 -1.2818  0.7274
    7MOL0     C  877   6.419   5.172   7.945 -0.1135  0.1319 -0.5690
    7MOL0     H  878   6.184   4.765   7.649 -0.8729 -0.1214 -1.1134
    7MOL0     H  879   6.031   4.727   7.460 -1.1849  2.9804  0.8108
    7MOL0     H  880   5.985   4.630   7.249 -0.5673 -1.6903 -1.3522
    7MOL0     H  881   5.880   4.773   7.284 -1.5059 -2.9954 -0.0787
    7MOL0     H  882   5.971   4.698   6.999 -0.5237 -0.9504 -1.1212
    7MOL0     H  883   5.861   4.819   7.047  1.1583  1.1199  2.8792
    7MOL0     H  884   5.701   4.677   7.024  1.6563  1.3268  0.6007
    7MOL0     H  885   5.757   4.574   7.151  0.3277 -1.6478  0.0351
    7MOL0     H  886   5.808   4.564   6.844 -0.8907  2.6172  0.6323
    7MOL0     H  887   5.900   4.463   6.945  0.3885  0.4455  3.3360
    7MOL0     H  888   5.689   4.354   6.845 -1.0429  1.3141 -2.2987
    7MOL0     H  889   5.695   4.355   7.023 -0.8747 -1.7980 -0.6574
    7MOL0     H  890   5.516   4.547   7.008  2.6200 -1.4570  2.4385
    7MOL0     H  891   5.517   4.515   6.830 -0.5698 -0.0122 -0.0286
    7MOL0     H  892   5.489   4.258   6.933 -0.6921  1.1049 -1.8910
    7MOL0     H  893   5.350   4.353   6.915  0.4493 -1.2008 -0.9615
    7MOL0     H  894   5.497   4.281   7.169  0.0485 -2.8040 -0.1365
    7MOL0     H  895   5.415   4.442   7.147 -1.3257 -0.1732 -0.6630
    7MOL0     H  896   5.136   4.427   7.114  0.7277  0.9903 -1.4577
    7MOL0     H  897   4.894   4.160   7.263  1.9572 -1.1900 -0.8615
    7MOL0     H  898   4.921   4.330   7.278 -3.5063  0.3989 -0.6403
    7MOL0     H  899   4.760   4.272   7.088 -0.0094  1.5370  0.0355
    7MOL0     H  900   4.918   4.343   7.036  1.4271  0.3345  2.1856
    7MOL0     H  901   4.804   4.058   7.013  0.6056  1.8243 -1.5719
    7MOL0     H  902   4.975   4.071   7.001 -1.1947 -2.3180 -0.7396
    7MOL0     H  903   4.923   4.263   6.838 -1.6477  1.0525 -1.4454
    7MOL0     H  904   4.755   4.183   6.826 -0.7896 -0.8144  1.9245
    7MOL0     H  905   4.990   3.876   6.585 -0.1493 -0.7511 -0.1861
    7MOL0     H  906   5.214   3.785   6.585 -1.8202  0.9202 -0.7407
    7MOL0     H  907   5.525   3.497   6.622  2.2698 -1.3864 -0.4762
    7MOL0     H  908   5.709   3.425   6.469  3.0978 -0.0611  0.6789
    7MOL0     H  909   5.972   3.720   6.244  1.2493  1.4983  1.0480
    7MOL0     H  910   5.990   3.727   6.428  0.3774  1.6434 -1.3099
    7MOL0     H  911   6.106   3.497   6.270  0.1256 -0.4935 -0.9621
    7MOL0     H  912   6.178   3.655   6.259  1.7110 -0.9573  1.6585
    7MOL0     H  913   6.297   3.558   6.429  1.5307  1.3025 -0.3330
    7MOL0     H  914   6.208   3.688   6.498 -4.4251 -0.9185  1.1629
    7MOL0     H  915   6.130   3.402   6.534 -5.6984  0.1045  0.2229
    7MOL0     H  916   6.054   3.537   6.607  0.6875  0.0225  0.9017
    7MOL0     H  917   6.256   3.612   6.722  1.3968 -0.3351  0.4488
    7MOL0     H  918   6.355   3.488   6.646 -0.0148  3.1596 -1.6045
    7MOL0     H  919   6.119   3.434   6.830 -0.2539 -0.5052  1.6440
    7MOL0     H  920   6.225   3.311   6.784 -1.7208 -0.0256  0.7871
    7MOL0     H  921   6.229   3.534   6.973  0.6421  0.2490 -0.3584
    7MOL0     H  922   6.394   3.490   6.922  0.3666  1.2476  2.3607
    7MOL0     H  923   6.313   3.354   7.118 -3.2784 -0.0417  0.9899
    7MOL0     H  924   6.209   3.270   7.005  1.4356 -1.4617  1.1988
    7MOL0     H  925   5.785   3.845   6.388  0.0552 -0.0552 -0.4790
    7MOL0     H  926   5.591   3.904   6.522  1.3460  1.1624 -0.7611
    7MOL0     H  927   5.348   4.036   6.897 -0.8435  2.3594  0.3780
    7MOL0     H  928   5.127   4.170   6.878  0.0933 -1.1064  2.5560
    7MOL0     H  929   6.296   4.919   7.188  0.9311  0.4574 -0.0435
    7MOL0     H  930   6.449   4.968   7.374 -0.5264  0.6956  2.0447
    7MOL0     H  931   6.524   4.737   7.802  0.9597 -0.2803 -0.5445
    7MOL0     H  932   6.700   4.721   7.969 -1.6758 -1.0936 -1.4933
    7MOL0     H  933   6.821   4.711   8.145 -0.0921  1.0885 -0.9498
    7MOL0     H  934   6.690   4.753   8.257 -0.2913  0.4926 -0.5826
    7MOL0     H  935   6.830   4.836   8.425  0.7797 -0.1175 -0.4252
    7MOL0     H  936   6.965   4.860   8.309  1.9199 -1.8011 -1.1060
    7MOL0     H  937   7.027   4.642   8.306  2.2349  0.3356  2.6528
    7MOL0     H  938   6.867   4.579   8.351  1.2654 -0.8822  2.5072
    7MOL0     H  939   6.896   4.648   8.576  0.2226  1.5196 -0.2365
    7MOL0     H  940   7.022   4.538   8.535 -0.9071 -0.6819  0.3389
    7MOL0     H  941   7.198   4.914   8.637 -0.5558 -1.3330  2.6609
    7MOL0     H  942   6.601   5.106   8.128  0.3871  3.2239 -2.7743
    7MOL0     H  943   6.418   5.215   7.845  1.2814  0.2050 -0.5685
    7MOL0     H  944   6.314   5.172   7.977 -0.3465 -3.2218 -0.9765
    7MOL0     H  945   6.481   5.233   8.012  0.1466 -0.3807 -0.3376
    8MOL0     O  946   8.294   4.768   2.091 -0.3851 -0.0261  0.1948
    8MOL0     C  947   8.380   4.707   2.148 -0.3685 -1.2756 -0.3557
    8MOL0     O  948   8.383   4.694   2.286 -0.4130  0.5750 -0.5380
    8MOL0     C  949   8.316   4.790   2.359 -0.1363 -0.0131 -0.3770
    8MOL0     C  950   8.249   4.752   2.476  0.3433 -0.1956  0.0829
    8MOL0     C  951   8.191   4.849   2.555 -0.1208 -0.3590 -1.0972
    8MOL0     C  952   8.196   4.988   2.523  0.3257  0.3139 -0.5349
    8MOL0     O  953   8.155   5.090   2.606  0.1574 -0.2415 -0.1082
    8MOL0     C  954   8.145   5.083   2.749 -0.1509  0.0831  0.3423
    8MOL0     C  955   7.994   5.108   2.791  0.0600 -0.6353 -0.0944
    8MOL0     C  956   7.903   4.984   2.755 -0.3578  0.5447  0.4146
    8MOL0     C  957   7.765   5.018   2.764  0.1900 -0.6164  0.1255
    8MOL0     C  958   7.689   4.955   2.885 -0.2273  0.2597 -0.4787
    8MOL0     C  959   7.668   4.802   2.865 -0.8092  0.1206 -0.0960
    8MOL0     C  960   7.575   4.753   2.984  0.0302  0.0021  0.2987
    8MOL0     C  961   7.639   4.713   3.119  0.4631 -0.2008  0.1176
    8MOL0     N  962   7.757   4.630   3.101 -0.2533  0.3011  0.4420
    8MOL0     C  963   7.891   4.659   3.128  0.5484  0.5021 -0.2474
    8MOL0     C  964   7.966   4.553   3.086 -0.5734 -0.7854  0.5832
    8MOL0     C  965   8.114   4.536   3.072 -0.4004 -0.0639 -0.5607
    8MOL0     C  966   8.159   4.391   3.059 -0.6076  0.2783  0.4350
    8MOL0     C  967   8.315   4.376   3.060  0.2889 -0.2060  0.7652
    8MOL0     C  968   8.379   4.434   2.939 -0.6370 -0.7753 -0.4555
    8MOL0     O  969   8.520   4.394   2.937 -0.2526  0.7621  0.2525
    8MOL0     C  970   8.586   4.424   2.821 -0.5568  0.0317  0.3110
    8MOL0     C  971   8.554   4.532   2.744 -1.6167 -0.5351 -0.5162
    8MOL0     C  972   8.616   4.547   2.621  0.1751  0.4410 -0.0290
    8MOL0     C  973   8.697   4.444   2.569  0.4570 -0.5758 -0.3775
    8MOL0     C  974   8.758   4.460   2.432 -0.2809  0.2934 -0.1583
    8MOL0     O  975   8.749   4.592   2.379 -0.1682 -0.2356 -0.5743
    8MOL0     C  976   8.840   4.628   2.280 -0.4677  0.5487 -0.4891
    8MOL0     C  977   8.968   4.563   2.268 -0.7338 -0.1841 -0.4191
    8MOL0     C  978   9.047   4.605   2.164 -1.0427 -0.3930  0.4176
    8MOL0     C  979   9.000   4.701   2.067 -0.2742  0.1590 -0.2235
    8MOL0     O  980   9.066   4.748   1.954 -0.5453  0.2956 -0.8115
    8MOL0     C  981   9.188   4.684   1.916  0.3301 -0.2202  0.1946
    8MOL0     C  982   9.226   4.726   1.775 -0.3041 -0.4300 -0.5511
    8MOL0     C  983   9.135   4.697   1.662 -0.2779  0.2107  0.7474
    8MOL0     C  984   9.087   4.552   1.655 -0.6505 -0.0165 -0.4092
    8MOL0     C  985   9.002   4.543   1.522 -0.5357 -1.2332 -0.9311
    8MOL0     C  986   8.963   4.397   1.500  0.1902  0.7970  0.1036
    8MOL0     C  987   8.850   4.381   1.401  0.2837 -0.2520 -0.2421
    8MOL0     C  988   8.899   4.361   1.254 -0.4898  0.4779 -0.6134
    8MOL0    Cl  989   8.752   4.380   1.158  0.1930  0.4043 -0.3369
    8MOL0     C  990   8.881   4.757   2.095  0.0862 -1.3680  0.7802
    8MOL0     C  991   8.807   4.727   2.198  0.0431  0.5973  1.0104
    8MOL0     O  992   8.797   4.354   2.373 -0.0684  0.1784 -0.5068
    8MOL0     C  993   8.734   4.341   2.651  0.0853 -0.1551 -0.5599
    8MOL0     C  994   8.677   4.328   2.777 -0.7918 -0.2861 -0.6344
    8MOL0     N  995   7.877   4.463   3.031 -0.1831 -0.5325  0.4377
    8MOL0     N  996   7.756   4.502   3.046  0.4713 -0.7486 -1.1765
    8MOL0     C  997   8.275   5.027   2.412 -0.6710  0.4915 -0.1789
    8MOL0     C  998   8.342   4.928   2.335 -0.3245  0.1149 -1.4761
    8MOL0     C  999   8.489   4.645   2.070 -0.3247  1.4651 -0.0464
    8MOL0     C 1000   8.529   4.515   2.117  0.0789  0.2051 -0.4267
    8MOL0     C 1001   8.625   4.439   2.047  0.3429 -0.0959 -0.4229
    8MOL0     C 1002   8.688   4.496   1.936 -0.0534 -0.2720  0.4984
    8MOL0     O 1003   8.779   4.433   1.859 -0.8715  0.1458 -0.9615
    8MOL0     C 1004   8.852   4.324   1.905  0.8631  0.7311  0.1022
    8MOL0     C 1005   8.785   4.202   1.845  0.0216 -0.6464 -0.1302
    8MOL0     C 1006   8.860   4.079   1.882 -0.0500  0.1363 -0.6480
    8MOL0     C 1007   8.989   4.057   1.798 -0.1041 -0.4831 -0.2847
    8MOL0     C 1008   9.035   3.918   1.823  0.0638  0.4946  0.5022
    8MOL0     C 1009   9.059   3.797   1.839  0.5434 -0.4977 -0.4108
    8MOL0     C 1010   8.639   4.615   1.887  0.5529  0.0606  0.1238
    8MOL0     C 1011   8.542   4.692   1.946  0.8271 -0.1141 -0.5323
    8MOL0     C 1012   8.503   4.827   1.890 -0.5690  0.2721  0.6113
    8MOL0     H 1013   8.239   4.649   2.508 -0.2792  0.5816  2.6037
    8MOL0     H 1014   8.154   4.826   2.655 -0.9809 -0.0448 -1.3387
    8MOL0     H 1015   8.192   4.997   2.798  0.3341  1.7766  3.0615
    8MOL0     H 1016   8.204   5.160   2.800  1.0435 -1.9608  2.2568
    8MOL0     H 1017   7.962   5.199   2.739 -2.6000 -1.8694 -0.7590
    8MOL0     H 1018   7.991   5.127   2.899  0.8018 -2.4779  0.2770
    8MOL0     H 1019   7.926   4.906   2.828 -1.1361 -0.0916  0.0055
    8MOL0     H 1020   7.933   4.939   2.660  1.4815 -1.1783  1.7246
    8MOL0     H 1021   7.745   5.124   2.781 -3.2619 -0.8249 -1.7513
    8MOL0     H 1022   7.706   5.001   2.674  1.1059 -0.1838 -0.5743
    8MOL0     H 1023   7.744   4.971   2.978  0.3090 -0.2704 -0.7001
    8MOL0     H 1024   7.593   5.005   2.901  0.5042  1.5353  0.0596
    8MOL0     H 1025   7.631   4.804   2.762 -1.6026  0.3689  0.1845
    8MOL0     H 1026   7.764   4.751   2.874  0.2480  2.3518  3.5899
    8MOL0     H 1027   7.522   4.664   2.950 -1.6147  1.4498 -1.1226
    8MOL0     H 1028   7.491   4.820   3.007  0.1426  1.0782 -2.1025
    8MOL0     H 1029   7.662   4.792   3.191  3.2435 -2.8750  2.4652
    8MOL0     H 1030   7.570   4.652   3.178 -0.2589  1.6475  1.2913
    8MOL0     H 1031   7.921   4.753   3.174 -1.3242 -0.0829  2.4583
    8MOL0     H 1032   8.150   4.602   2.992  0.5241  1.4147  1.0007
    8MOL0     H 1033   8.162   4.578   3.161  0.1282 -0.7803 -0.5014
    8MOL0     H 1034   8.119   4.321   3.133  0.5795 -0.6860  0.2096
    8MOL0     H 1035   8.118   4.354   2.965  0.8696 -2.3009  0.7053
    8MOL0     H 1036   8.335   4.269   3.048 -1.5530 -0.7158  1.8127
    8MOL0     H 1037   8.351   4.399   3.161 -3.5649  1.9179  1.8596
    8MOL0     H 1038   8.363   4.542   2.952 -3.1849 -0.9688 -1.4438
    8MOL0     H 1039   8.329   4.402   2.847 -0.8636  1.0101 -0.9941
    8MOL0     H 1040   8.484   4.603   2.787  0.4386  1.4684 -0.2635
    8MOL0     H 1041   8.586   4.641   2.578  0.1514 -0.2557 -1.5926
    8MOL0     H 1042   8.999   4.473   2.320 -1.4228  0.8078  1.8483
    8MOL0     H 1043   9.149   4.570   2.148 -1.7030 -0.9944 -3.7264
    8MOL0     H 1044   9.267   4.723   1.981  0.6193  0.6459 -0.6610
    8MOL0     H 1045   9.181   4.575   1.918 -3.1202 -0.1130  1.3388
    8MOL0     H 1046   9.244   4.834   1.778 -0.6400 -0.3486 -1.2441
    8MOL0     H 1047   9.326   4.683   1.759 -0.1566  0.2466 -1.5139
    8MOL0     H 1048   9.053   4.768   1.673 -2.1636 -1.9879  1.6558
    8MOL0     H 1049   9.184   4.721   1.567 -0.8692 -1.7477 -0.1142
    8MOL0     H 1050   9.029   4.523   1.743 -1.4985  1.4765 -0.4375
    8MOL0     H 1051   9.176   4.489   1.660 -0.7001  0.0095  2.8094
    8MOL0     H 1052   9.058   4.580   1.436 -2.5792  0.9736 -1.4032
    8MOL0     H 1053   8.910   4.602   1.529  1.2521  1.9555 -2.3826
    8MOL0     H 1054   9.050   4.336   1.476  0.8715  1.2824  1.2660
    8MOL0     H 1055   8.925   4.363   1.597 -2.3238  0.3504 -0.9714
    8MOL0     H 1056   8.784   4.467   1.418  0.1014 -0.3308 -0.5410
    8MOL0     H 1057   8.799   4.293   1.440 -1.0549  2.0323  3.8792
    8MOL0     H 1058   8.970   4.440   1.226  1.0194  0.5639  2.8439
    8MOL0     H 1059   8.935   4.264   1.220 -0.6178 -0.1079  0.8171
    8MOL0     H 1060   8.862   4.845   2.035  2.1374 -1.5794 -0.2908
    8MOL0     H 1061   8.713   4.780   2.205 -0.5908 -0.2286 -0.8098
    8MOL0     H 1062   8.784   4.253   2.611 -0.3637 -0.4782 -0.4214
    8MOL0     H 1063   8.687   4.238   2.836 -2.7070 -0.9132 -1.1886
    8MOL0     H 1064   8.305   5.130   2.395  1.0625  0.5427  2.5495
    8MOL0     H 1065   8.414   4.961   2.261 -1.3688  1.8891 -1.7741
    8MOL0     H 1066   8.475   4.465   2.197  0.7693 -0.0266 -0.0948
    8MOL0     H 1067   8.649   4.340   2.083  0.6650 -0.3292 -1.2446
    8MOL0     H 1068   8.844   4.307   2.013 -0.0638 -1.0050 -0.1924
    8MOL0     H 1069   8.959   4.334   1.886  1.4577 -1.9212  1.5639
    8MOL0     H 1070   8.798   4.226   1.739  2.2109  3.8984  0.9112
    8MOL0     H 1071   8.680   4.195   1.876  0.2504  2.7666  1.8945
    8MOL0     H 1072   8.794   3.994   1.898 -0.9709  1.2641  2.1767
    8MOL0     H 1073   8.887   4.078   1.989  1.9242 -1.9867 -1.0647
    8MOL0     H 1074   8.971   4.060   1.690 -1.9961 -1.5241 -0.0360
    8MOL0     H 1075   9.073   4.116   1.836  0.1757 -1.2398  0.3207
    8MOL0     H 1076   9.057   3.692   1.857  1.5151 -0.4592 -0.0176
    8MOL0     H 1077   8.687   4.654   1.798  1.0071 -1.1574 -0.1846
    8MOL0     H 1078   8.512   4.903   1.968 -2.2790  0.3138  0.8034
    8MOL0     H 1079   8.561   4.858   1.803 -5.1079  1.7638 -2.2385
    8MOL0     H 1080   8.399   4.810   1.859 -0.4826 -0.3144  0.6149
    9MOL0     O 1081  10.171   8.729   0.465  0.0985 -0.0191  0.1458
    9MOL0     C 1082  10.143   8.612   0.438  0.3563 -0.0125 -0.4702
    9MOL0     O 1083  10.219   8.506   0.473 -0.0446  0.3178  0.2197
    9MOL0     C 1084  10.332   8.538   0.555  0.0518  0.2362 -0.5430
    9MOL0     C 1085  10.330   8.590   0.683  0.1853 -0.2615  0.3671
    9MOL0     C 1086  10.443   8.618   0.760  0.7489  0.0448 -0.2572
    9MOL0     C 1087  10.567   8.601   0.707  0.0133  0.7984  1.1791
    9MOL0     O 1088  10.657   8.642   0.791 -0.4491  0.6319 -0.0225
    9MOL0     C 1089  10.794   8.588   0.779  0.3369 -0.7434 -0.0794
    9MOL0     C 1090  10.879   8.660   0.878  0.0766 -0.4629  1.1012
    9MOL0     C 1091  11.007   8.577   0.889 -0.4108  0.4630 -1.3036
    9MOL0     C 1092  11.111   8.665   0.957 -0.0085 -0.3577 -0.0751
    9MOL0     C 1093  11.245   8.599   0.981 -0.0800  0.7492 -0.4222
    9MOL0     C 1094  11.321   8.619   0.839  0.2113  0.7419  0.0067
    9MOL0     C 1095  11.434   8.511   0.806  0.0385  0.2900  0.6837
    9MOL0     C 1096  11.560   8.549   0.879  0.9915 -0.1066  0.4017
    9MOL0     N 1097  11.666   8.449   0.863 -0.5608  0.8903 -0.1787
    9MOL0     C 1098  11.773   8.446   0.769  0.6567 -0.3664 -0.6097
    9MOL0     C 1099  11.849   8.344   0.812 -0.4462  0.8012  0.6177
    9MOL0     C 1100  11.971   8.301   0.735  0.1984 -0.5736 -0.2579
    9MOL0     C 1101  12.069   8.241   0.834 -0.7137  0.0012  0.0911
    9MOL0     C 1102  12.210   8.202   0.767  0.2964 -0.3665 -0.6014
    9MOL0     C 1103  12.200   8.143   0.624  0.4816 -0.6072  0.5163
    9MOL0     O 1104  12.329   8.118   0.574 -0.5811 -0.1662  0.3972
    9MOL0     C 1105  12.358   8.094   0.440 -0.0029 -0.6366  0.0180
    9MOL0     C 1106  12.265   8.062   0.340 -0.2564 -0.4140 -0.0151
    9MOL0     C 1107  12.306   8.027   0.210  0.7461  0.0638  0.2177
    9MOL0     C 1108  12.447   8.024   0.182 -0.3901  0.2230 -0.2929
    9MOL0     C 1109  12.486   7.996   0.035 -0.5617 -0.9510  0.8406
    9MOL0     O 1110  12.625   8.007   0.011  0.2297  0.0621  0.1427
    9MOL0     C 1111  12.650   8.023  -0.125 -0.1950 -1.1808  0.3853
    9MOL0     C 1112  12.713   7.920  -0.191 -0.8216 -0.6441 -0.7283
    9MOL0     C 1113  12.741   7.932  -0.329  0.7922  0.2622 -0.7376
    9MOL0     C 1114  12.700   8.055  -0.407 -0.9042  0.7738  0.2392
    9MOL0     O 1115  12.722   8.056  -0.546 -0.2699 -0.4081 -0.2014
    9MOL0     C 1116  12.624   8.129  -0.630 -0.3980  0.3489 -1.0750
    9MOL0     C 1117  12.657   8.117  -0.770 -0.8624  0.0879  0.8054
    9MOL0     C 1118  12.674   8.244  -0.859 -0.3820  0.0323  0.3386
    9MOL0     C 1119  12.548   8.333  -0.845  0.2914  0.2754 -1.4002
    9MOL0     C 1120  12.537   8.465  -0.929  1.0769  0.4341 -0.2030
    9MOL0     C 1121  12.516   8.424  -1.076  0.4616  0.0294  0.6818
    9MOL0     C 1122  12.526   8.543  -1.179  0.0740 -0.7563 -0.0386
    9MOL0     C 1123  12.501   8.503  -1.334  0.6588  0.2851 -0.7611
    9MOL0    Cl 1124  12.515   8.647  -1.440  0.4386  0.4094  0.0505
    9MOL0     C 1125  12.649   8.160  -0.328 -0.1061  0.3480 -0.3582
    9MOL0     C 1126  12.628   8.143  -0.192 -0.4517 -0.6765  0.3942
    9MOL0     O 1127  12.396   7.969  -0.047  0.2083 -0.6498 -0.4665
    9MOL0     C 1128  12.544   8.056   0.274  0.0581  0.3989 -1.2409
    9MOL0     C 1129  12.495   8.085   0.406 -0.6941 -0.0350  0.3749
    9MOL0     N 1130  11.798   8.283   0.922  0.8952  0.1539  0.4479
    9MOL0     N 1131  11.691   8.346   0.951 -0.2079 -0.2418 -1.1720
    9MOL0     C 1132  10.582   8.545   0.573  0.5261  0.0866 -1.2857
    9MOL0     C 1133  10.464   8.510   0.508 -0.2734 -0.1657  0.8402
    9MOL0     C 1134  10.029   8.594   0.348 -0.9248  0.1635  0.1130
    9MOL0     C 1135  10.032   8.488   0.251 -1.1501 -0.5377 -0.3345
    9MOL0     C 1136   9.943   8.472   0.147 -0.1518 -0.1362 -1.0495
    9MOL0     C 1137   9.840   8.570   0.131  0.8301 -0.2494  0.2404
    9MOL0     O 1138   9.734   8.563   0.038  0.8675  0.2034  0.2832
    9MOL0     C 1139   9.753   8.491  -0.086 -0.5505  0.3383  0.0049
    9MOL0     C 1140   9.845   8.581  -0.180 -0.6184  0.9847 -0.6710
    9MOL0     C 1141   9.885   8.516  -0.313  0.8544 -0.6626  1.0970
    9MOL0     C 1142   9.905   8.358  -0.314  0.3195 -0.0670  0.0861
    9MOL0     C 1143  10.012   8.315  -0.221 -0.6125 -0.9175 -0.2755
    9MOL0     C 1144  10.094   8.282  -0.142 -0.0792 -0.8390 -0.4725
    9MOL0     C 1145   9.840   8.674   0.223  1.1649 -0.0717 -0.4040
    9MOL0     C 1146   9.930   8.686   0.328 -0.0217 -0.9831  0.3707
    9MOL0     C 1147   9.913   8.803   0.414 -0.1599 -0.2733 -0.4130
    9MOL0     H 1148  10.233   8.601   0.730 -0.1956 -4.7490  1.1273
    9MOL0     H 1149  10.427   8.661   0.858 -0.1611  0.2813 -0.4971
    9MOL0     H 1150  10.793   8.484   0.811 -0.9637 -0.5618  0.5433
    9MOL0     H 1151  10.832   8.606   0.678  2.2145  0.7909  0.8263
    9MOL0     H 1152  10.833   8.683   0.975 -1.0475 -1.7995  0.9059
    9MOL0     H 1153  10.906   8.757   0.834  0.7495 -2.0233 -2.1662
    9MOL0     H 1154  11.046   8.534   0.796  3.0469 -1.0613  0.7016
    9MOL0     H 1155  10.998   8.496   0.961 -0.7634  0.1181 -1.7304
    9MOL0     H 1156  11.119   8.756   0.898 -0.1266  2.4589  3.8282
    9MOL0     H 1157  11.079   8.689   1.059  0.8940 -0.9223  0.3517
    9MOL0     H 1158  11.297   8.653   1.061 -2.7431  3.0447 -0.0945
    9MOL0     H 1159  11.236   8.492   1.004 -1.3112  0.6836 -1.1268
    9MOL0     H 1160  11.252   8.603   0.756  0.9728 -1.4706 -0.2785
    9MOL0     H 1161  11.372   8.713   0.817  3.6150 -0.7719  0.6956
    9MOL0     H 1162  11.458   8.490   0.702  1.0138  0.9729  0.7569
    9MOL0     H 1163  11.410   8.418   0.859 -1.4359 -0.2711 -0.8790
    9MOL0     H 1164  11.595   8.647   0.846 -0.1779 -0.3441 -1.7517
    9MOL0     H 1165  11.525   8.556   0.982 -2.9092  2.2851 -0.8425
    9MOL0     H 1166  11.785   8.499   0.675  1.6541  3.0962  1.3084
    9MOL0     H 1167  11.954   8.226   0.656 -0.2859  1.1114 -1.8147
    9MOL0     H 1168  12.011   8.391   0.687 -0.9627 -0.7213 -1.5656
    9MOL0     H 1169  12.090   8.307   0.918  1.4120 -0.4479 -0.0290
    9MOL0     H 1170  12.022   8.145   0.857  2.3937 -1.7468 -0.2978
    9MOL0     H 1171  12.255   8.131   0.837  0.2358  0.9454  0.8218
    9MOL0     H 1172  12.272   8.292   0.769  1.8166 -1.2768 -2.6848
    9MOL0     H 1173  12.134   8.200   0.558  0.6254 -2.0184 -0.9160
    9MOL0     H 1174  12.145   8.050   0.637  1.0410 -1.0531 -0.2645
    9MOL0     H 1175  12.159   8.080   0.351 -0.6237  3.1334 -5.4819
    9MOL0     H 1176  12.241   8.013   0.124  1.2738 -1.4680  0.0248
    9MOL0     H 1177  12.748   7.833  -0.136  2.5071  2.4316  2.6448
    9MOL0     H 1178  12.789   7.846  -0.373  0.6321 -2.1339  3.3130
    9MOL0     H 1179  12.518   8.107  -0.610 -0.2916  1.0507  0.3904
    9MOL0     H 1180  12.620   8.235  -0.605 -5.2909 -0.1836  1.7619
    9MOL0     H 1181  12.753   8.067  -0.763  0.6005  1.9506 -2.8608
    9MOL0     H 1182  12.585   8.044  -0.809 -1.8753  2.5276 -2.4052
    9MOL0     H 1183  12.769   8.298  -0.852  0.6946 -1.6377 -0.6860
    9MOL0     H 1184  12.667   8.200  -0.959  1.4762  2.3857 -0.9437
    9MOL0     H 1185  12.551   8.374  -0.744  2.0564 -1.4887 -0.6780
    9MOL0     H 1186  12.452   8.281  -0.849 -0.8763  1.6746  2.9496
    9MOL0     H 1187  12.632   8.517  -0.920  1.9529 -0.8129 -1.6983
    9MOL0     H 1188  12.449   8.526  -0.905 -0.6983 -2.7538  2.2123
    9MOL0     H 1189  12.580   8.342  -1.109 -2.5976 -2.6998  1.0567
    9MOL0     H 1190  12.416   8.381  -1.087 -0.0149  0.9155  1.4538
    9MOL0     H 1191  12.619   8.599  -1.173 -0.0918 -0.0226 -2.8948
    9MOL0     H 1192  12.445   8.608  -1.145 -0.1171 -0.2846 -1.3204
    9MOL0     H 1193  12.565   8.433  -1.388  1.0929  1.0055 -1.2127
    9MOL0     H 1194  12.404   8.455  -1.335  0.0053  1.4660  0.6998
    9MOL0     H 1195  12.618   8.253  -0.375 -2.5509 -0.9114 -1.4171
    9MOL0     H 1196  12.576   8.226  -0.145 -1.0248  0.1942 -1.6911
    9MOL0     H 1197  12.650   8.046   0.255  0.0103 -3.1994 -0.3651
    9MOL0     H 1198  12.584   8.089   0.468  0.2388 -2.1924 -0.7237
    9MOL0     H 1199  10.677   8.520   0.526  1.7839 -1.6604  1.9226
    9MOL0     H 1200  10.457   8.467   0.408 -0.2805  0.8222  0.4127
    9MOL0     H 1201  10.117   8.421   0.247 -0.9551 -0.2410 -1.2848
    9MOL0     H 1202   9.963   8.384   0.086 -2.0535 -2.4625  1.4052
    9MOL0     H 1203   9.657   8.484  -0.137 -0.5852 -1.3369  0.2647
    9MOL0     H 1204   9.797   8.394  -0.065  1.4410  1.3996  1.0552
    9MOL0     H 1205   9.939   8.616  -0.136 -0.8040  0.1384  0.4581
    9MOL0     H 1206   9.795   8.675  -0.205 -0.6980  0.6358 -1.8804
    9MOL0     H 1207   9.973   8.564  -0.357  0.8321  0.2837  2.0631
    9MOL0     H 1208   9.809   8.535  -0.390  1.4772 -0.4045  0.5331
    9MOL0     H 1209   9.808   8.312  -0.290 -3.4042  5.2196 -2.7385
    9MOL0     H 1210   9.918   8.322  -0.416 -2.3342  1.1311 -0.7841
    9MOL0     H 1211  10.161   8.250  -0.064 -0.0553 -2.1898 -1.0080
    9MOL0     H 1212   9.758   8.744   0.213  1.4068  0.0419 -1.7743
    9MOL0     H 1213   9.950   8.772   0.512  2.5729  2.7875 -0.3051
    9MOL0     H 1214   9.979   8.886   0.383  1.1651 -1.3721 -0.6422
    9MOL0     H 1215   9.813   8.848   0.416  0.9766  2.5032  1.4155
   10MOL0     O 1216   6.172   9.492   1.594  0.3169  0.0158  0.6444
   10MOL0     C 1217   6.283   9.469   1.555 -0.4476  0.2102  0.0455
   10MOL0     O 1218   6.327   9.346   1.530  0.1623 -0.6469  0.0015
   10MOL0     C 1219   6.245   9.239   1.560 -0.3453  0.8002 -0.8097
   10MOL0     C 1220   6.264   9.163   1.675  0.1003 -0.8297  0.1576
   10MOL0     C 1221   6.183   9.054   1.715  0.0002 -0.4436 -0.4186
   10MOL0     C 1222   6.086   9.009   1.625 -0.4379 -0.7948 -0.1617
   10MOL0     O 1223   6.000   8.908   1.664 -0.4687  0.9281  0.0681
   10MOL0     C 1224   5.958   8.812   1.566  0.7083 -0.7041  0.2255
   10MOL0     C 1225   5.796   8.833   1.531 -0.9785  0.5533 -0.1615
   10MOL0     C 1226   5.753   8.978   1.493  0.0669 -0.0522  0.4371
   10MOL0     C 1227   5.728   9.000   1.344 -0.1891 -0.0810  0.5140
   10MOL0     C 1228   5.746   9.138   1.297 -0.5479  0.2337  0.7156
   10MOL0     C 1229   5.747   9.141   1.142 -0.2543 -0.0598  0.6674
   10MOL0     C 1230   5.691   9.276   1.087 -0.8454  0.8330  0.2977
   10MOL0     C 1231   5.542   9.300   1.102  0.6009  1.1305  0.1968
   10MOL0     N 1232   5.508   9.431   1.044  0.3036  0.0771 -0.5814
   10MOL0     C 1233   5.472   9.436   0.908  0.2489 -0.1415 -0.5733
   10MOL0     C 1234   5.475   9.571   0.892 -0.9477  0.2801  0.3408
   10MOL0     C 1235   5.443   9.648   0.768 -0.1833  0.1014  0.8844
   10MOL0     C 1236   5.563   9.667   0.679 -0.4269  0.2882 -0.0750
   10MOL0     C 1237   5.524   9.772   0.570  0.5962  0.9804 -0.7964
   10MOL0     C 1238   5.643   9.837   0.510  0.3341 -0.1500 -0.3601
   10MOL0     O 1239   5.737   9.741   0.463 -0.3554 -0.3667  0.0579
   10MOL0     C 1240   5.736   9.685   0.339 -0.1799 -0.3988  0.1999
   10MOL0     C 1241   5.642   9.716   0.233 -0.4298 -0.3735 -0.4422
   10MOL0     C 1242   5.646   9.649   0.113  0.1170 -0.1574  0.3010
   10MOL0     C 1243   5.752   9.562   0.082  0.2445 -0.4522  0.4175
   10MOL0     C 1244   5.748   9.482  -0.048  0.2463 -0.5812  0.1264
   10MOL0     O 1245   5.868   9.409  -0.070 -0.1243 -0.2669  0.1821
   10MOL0     C 1246   5.911   9.358  -0.186 -0.2974 -0.0148  0.2081
   10MOL0     C 1247   6.046   9.313  -0.178  0.6967 -0.5208  0.0620
   10MOL0     C 1248   6.106   9.254  -0.293  0.1369  0.0182  0.2333
   10MOL0     C 1249   6.040   9.243  -0.413 -0.3805  0.7431  0.1351
   10MOL0     O 1250   6.103   9.191  -0.522 -0.4694 -0.1496  0.2902
   10MOL0     C 1251   6.227   9.123  -0.494  0.2314 -0.0609 -0.0193
   10MOL0     C 1252   6.294   9.081  -0.618  0.3825  0.4756 -0.3963
   10MOL0     C 1253   6.406   8.974  -0.600  0.3173  0.1749 -0.9588
   10MOL0     C 1254   6.490   8.945  -0.722  0.2885  0.4368  0.6619
   10MOL0     C 1255   6.575   8.820  -0.695 -0.1763 -0.9608 -0.0629
   10MOL0     C 1256   6.614   8.741  -0.818 -0.2382  0.6217  0.5862
   10MOL0     C 1257   6.725   8.813  -0.900 -0.6628  0.0086 -0.4083
   10MOL0     C 1258   6.685   8.842  -1.045 -0.8045  0.2718  0.3391
   10MOL0    Cl 1259   6.569   8.986  -1.057 -0.1612 -0.6082  0.0270
   10MOL0     C 1260   5.904   9.294  -0.416 -0.5141  0.1145  0.3441
   10MOL0     C 1261   5.846   9.347  -0.305 -0.0476 -0.5155  0.0976
   10MOL0     O 1262   5.642   9.466  -0.114  0.6394 -0.0600  0.5126
   10MOL0     C 1263   5.854   9.539   0.183 -0.7356  0.2325 -0.0825
   10MOL0     C 1264   5.839   9.596   0.313 -0.9006  0.2696  0.7167
   10MOL0     N 1265   5.496   9.638   1.017  0.2902 -0.3115  0.2302
   10MOL0     N 1266   5.533   9.554   1.101 -0.9777 -0.5865  0.9073
   10MOL0     C 1267   6.081   9.078   1.501 -0.3949  0.3613  0.1525
   10MOL0     C 1268   6.150   9.199   1.470  0.2649 -0.0532 -0.0958
   10MOL0     C 1269   6.364   9.585   1.507 -0.2387 -0.3675 -0.2102
   10MOL0     C 1270   6.459   9.559   1.404 -0.7903 -0.5653  0.5118
   10MOL0     C 1271   6.531   9.659   1.354 -0.7451  0.0785 -0.1662
   10MOL0     C 1272   6.523   9.794   1.408  0.0385 -0.2663  0.5037
   10MOL0     O 1273   6.591   9.903   1.354  0.7971  0.1575  0.2081
   10MOL0     C 1274   6.717   9.877   1.300  0.1585 -0.4743 -0.2779
   10MOL0     C 1275   6.828   9.811   1.390  0.1433 -0.0792 -0.0733
   10MOL0     C 1276   6.886   9.908   1.491 -0.3233  0.1554 -0.4539
   10MOL0     C 1277   6.801   9.995   1.581  0.0389  0.1997 -0.8855
   10MOL0     C 1278   6.731   9.934   1.698 -0.3232  0.3401  0.4610
   10MOL0     C 1279   6.657   9.885   1.782  0.1645 -0.5841  0.6607
   10MOL0     C 1280   6.430   9.824   1.512  0.4927  0.3837  0.3418
   10MOL0     C 1281   6.362   9.714   1.567  0.1523 -0.0445 -0.1011
   10MOL0     C 1282   6.277   9.748   1.685  0.7335 -0.3397 -0.1949
   10MOL0     H 1283   6.356   9.194   1.725 -0.1235 -4.0739  2.9493
   10MOL0     H 1284   6.193   9.002   1.810  1.4632 -0.3553 -0.4894
   10MOL0     H 1285   6.017   8.824   1.475 -0.8599 -3.0713 -1.2122
   10MOL0     H 1286   5.978   8.712   1.603 -3.4874 -1.5029  0.8795
   10MOL0     H 1287   5.744   8.819   1.626  0.2751  1.5659  0.7243
   10MOL0     H 1288   5.766   8.760   1.456  3.3567 -0.7075 -0.9683
   10MOL0     H 1289   5.831   9.048   1.521 -0.9368  1.3851 -0.2296
   10MOL0     H 1290   5.662   9.007   1.546  0.1962 -0.8885  1.1330
   10MOL0     H 1291   5.806   8.941   1.295 -0.7350 -0.9861  0.7062
   10MOL0     H 1292   5.633   8.965   1.302 -0.7504  2.4888 -0.5007
   10MOL0     H 1293   5.658   9.184   1.342 -1.8267 -1.2768 -0.1075
   10MOL0     H 1294   5.836   9.186   1.334  0.3395 -0.8534  0.0516
   10MOL0     H 1295   5.842   9.106   1.101 -1.9576 -0.4643 -3.4368
   10MOL0     H 1296   5.665   9.080   1.101 -1.4655  2.2790 -0.6096
   10MOL0     H 1297   5.725   9.278   0.983  0.9667  1.4421  0.8577
   10MOL0     H 1298   5.752   9.350   1.139 -1.1186  0.4702  1.1557
   10MOL0     H 1299   5.484   9.223   1.050  2.3225  2.0402 -3.3903
   10MOL0     H 1300   5.503   9.309   1.204 -3.8365  1.9199 -1.3617
   10MOL0     H 1301   5.465   9.350   0.842  1.7152 -0.8518  0.1399
   10MOL0     H 1302   5.375   9.597   0.699  2.6971  0.9572 -2.8570
   10MOL0     H 1303   5.387   9.737   0.799  0.2844  0.3431  1.0440
   10MOL0     H 1304   5.650   9.704   0.734  2.5562 -0.1614 -4.0176
   10MOL0     H 1305   5.594   9.583   0.615  1.6069  1.4678 -0.7255
   10MOL0     H 1306   5.466   9.847   0.624 -2.6821 -2.8141  1.4693
   10MOL0     H 1307   5.465   9.732   0.487  0.1990  2.7192 -1.3907
   10MOL0     H 1308   5.707   9.892   0.580 -2.4490  2.6264  0.2153
   10MOL0     H 1309   5.612   9.903   0.429  0.9399  0.3971 -0.1501
   10MOL0     H 1310   5.563   9.790   0.245  1.1444  1.0426  1.8578
   10MOL0     H 1311   5.569   9.668   0.038  2.3314  0.6219 -1.9090
   10MOL0     H 1312   6.100   9.312  -0.084  2.6452 -1.3385 -1.0036
   10MOL0     H 1313   6.195   9.193  -0.281 -0.5120 -1.1400 -0.7088
   10MOL0     H 1314   6.304   9.180  -0.441 -0.2078 -0.0360  0.5987
   10MOL0     H 1315   6.204   9.029  -0.443 -1.1597 -0.9839 -2.1846
   10MOL0     H 1316   6.228   9.043  -0.696  0.3052 -0.8851  0.2903
   10MOL0     H 1317   6.356   9.164  -0.655  3.7195 -0.3434  2.6925
   10MOL0     H 1318   6.469   9.002  -0.515 -0.1842 -0.8628 -0.2346
   10MOL0     H 1319   6.352   8.885  -0.567  1.6625 -0.1192  0.5913
   10MOL0     H 1320   6.563   9.025  -0.735  0.7045  0.6566  3.6429
   10MOL0     H 1321   6.420   8.935  -0.806  1.0648  3.2776 -0.4261
   10MOL0     H 1322   6.518   8.749  -0.635 -1.7022  0.0537 -0.2537
   10MOL0     H 1323   6.664   8.850  -0.638 -1.0612  2.2652 -0.1714
   10MOL0     H 1324   6.638   8.635  -0.801 -2.6021  0.2051  1.7709
   10MOL0     H 1325   6.529   8.732  -0.887 -0.8887  2.7951  1.0430
   10MOL0     H 1326   6.812   8.748  -0.911 -1.2381 -0.5045 -2.4623
   10MOL0     H 1327   6.759   8.900  -0.843  0.2238  1.4728 -3.0006
   10MOL0     H 1328   6.775   8.877  -1.095 -1.4331  2.7172  0.7888
   10MOL0     H 1329   6.653   8.750  -1.095 -3.0606  1.6725 -0.9986
   10MOL0     H 1330   5.858   9.299  -0.514 -1.1058 -0.2278  0.5987
   10MOL0     H 1331   5.745   9.387  -0.304  0.1466  0.1074 -1.6268
   10MOL0     H 1332   5.943   9.483   0.158 -0.6050  0.5788 -0.4111
   10MOL0     H 1333   5.915   9.580   0.389  1.3546 -0.4863 -1.5879
   10MOL0     H 1334   6.013   9.052   1.420 -0.4678  0.8497  0.0542
   10MOL0     H 1335   6.142   9.236   1.368 -1.4767 -1.7295 -0.6201
   10MOL0     H 1336   6.469   9.460   1.360 -0.9321  0.3792 -1.8124
   10MOL0     H 1337   6.573   9.649   1.254 -1.8105 -2.3731 -0.4360
   10MOL0     H 1338   6.751   9.979   1.283  1.3383 -0.1839  3.1420
   10MOL0     H 1339   6.700   9.822   1.206  0.3801  1.0570 -1.2550
   10MOL0     H 1340   6.904   9.765   1.325 -0.0995 -1.5949  0.6512
   10MOL0     H 1341   6.792   9.721   1.441  0.8798 -0.9196 -0.9787
   10MOL0     H 1342   6.972   9.959   1.445 -0.2892 -1.7934 -2.7063
   10MOL0     H 1343   6.938   9.842   1.561  0.5080 -0.9614 -2.0740
   10MOL0     H 1344   6.866  10.067   1.631 -3.8829  1.4692  3.0114
   10MOL0     H 1345   6.730  10.056   1.525 -0.8259  0.1272  0.0922
   10MOL0     H 1346   6.591   9.830   1.846 -1.2243 -1.3127 -1.2944
   10MOL0     H 1347   6.443   9.926   1.547 -1.5779 -0.0639  2.6732
   10MOL0     H 1348   6.251   9.854   1.691  1.1506 -0.3189  3.0754
   10MOL0     H 1349   6.182   9.695   1.692  0.6239 -0.2813 -1.1137
   10MOL0     H 1350   6.328   9.730   1.780  0.7235 -0.8884 -0.2912
   11MOL0     O 1351   6.563   0.153  11.190 -0.0932 -0.1548 -0.9624
   11MOL0     C 1352   6.458   0.198  11.230  0.3438 -0.7386 -0.0465
   11MOL0     O 1353   6.431   0.304  11.314  0.1734  1.7698 -0.0273
   11MOL0     C 1354   6.536   0.370  11.362 -0.8461 -0.5115  0.5703
   11MOL0     C 1355   6.595   0.344  11.488  0.0946 -0.6787  0.4496
   11MOL0     C 1356   6.721   0.405  11.515  0.5018 -0.0912 -0.3459
   11MOL0     C 1357   6.780   0.488  11.435  0.7889  0.2436 -0.5863
   11MOL0     O 1358   6.906   0.542  11.472  1.0844  0.9001  0.3304
   11MOL0     C 1359   6.985   0.642  11.401  0.8216 -0.5760 -0.3822
   11MOL0     C 1360   6.922   0.780  11.435  0.3275 -0.5285 -0.5998
   11MOL0     C 1361   7.018   0.885  11.374  0.5816  0.0412 -0.6457
   11MOL0     C 1362   6.931   1.007  11.340 -0.0272 -0.0171  0.0191
   11MOL0     C 1363   6.995   1.132  11.342 -0.1659  0.0430  0.1547
   11MOL0     C 1364   6.895   1.251  11.318  0.6850 -0.0883 -0.3520
   11MOL0     C 1365   6.948   1.342  11.204 -0.2734 -0.5568  0.5594
   11MOL0     C 1366   7.076   1.415  11.246 -0.5410 -1.6850 -0.0863
   11MOL0     N 1367   7.156   1.464  11.124 -0.6237 -0.4780  0.4327
   11MOL0     C 1368   7.107   1.562  11.041 -0.3924  0.5498  0.5261
   11MOL0     C 1369   7.211   1.574  10.952  0.5425 -0.3676 -0.1502
   11MOL0     C 1370   7.240   1.670  10.838  0.6999 -0.3303 -0.3783
   11MOL0     C 1371   7.316   1.785  10.891 -0.5878 -0.0471 -0.5130
   11MOL0     C 1372   7.361   1.873  10.769  0.0852 -0.0728 -0.3478
   11MOL0     C 1373   7.394   2.005  10.833  0.0468  0.3708 -0.0362
   11MOL0     O 1374   7.430   2.107  10.733  0.5361 -0.2118  0.0019
   11MOL0     C 1375   7.488   2.224  10.770 -0.0286 -0.5258 -0.4151
   11MOL0     C 1376   7.483   2.319  10.670 -0.0913  0.4062 -0.5437
   11MOL0     C 1377   7.534   2.450  10.704  0.2022  0.3779  0.3729
   11MOL0     C 1378   7.598   2.482  10.831  1.0016  0.8160  0.3295
   11MOL0     C 1379   7.642   2.618  10.874  1.0108 -1.1003 -0.4700
   11MOL0     O 1380   7.679   2.637  11.003 -0.7316  0.4360  0.5574
   11MOL0     C 1381   7.674   2.764  11.052  0.0364 -0.4262  0.0154
   11MOL0     C 1382   7.797   2.830  11.057  0.0467  1.1757 -0.8076
   11MOL0     C 1383   7.797   2.964  11.099  0.2926 -0.0275 -0.6229
   11MOL0     C 1384   7.685   3.037  11.149 -0.4254 -0.1668 -0.3116
   11MOL0     O 1385   7.717   3.168  11.196  0.6658 -0.3435 -0.2166
   11MOL0     C 1386   7.623   3.220  11.291 -0.0129  0.0666 -0.5644
   11MOL0     C 1387   7.692   3.326  11.366  0.1228  0.2860  0.0602
   11MOL0     C 1388   7.709   3.448  11.274  0.0421  0.8563 -0.0698
   11MOL0     C 1389   7.769   3.560  11.361  0.1864  0.5173  0.6412
   11MOL0     C 1390   7.785   3.701  11.281  0.4984 -0.4501  0.4858
   11MOL0     C 1391   7.910   3.686  11.193  0.2378 -0.0737  0.2564
   11MOL0     C 1392   7.909   3.814  11.109  0.7889 -0.7765  0.5274
   11MOL0     C 1393   7.987   3.792  10.986 -0.6675 -0.8941  0.9057
   11MOL0    Cl 1394   8.050   3.965  10.936 -0.4368  0.2782  0.3960
   11MOL0     C 1395   7.566   2.971  11.146 -0.1013  0.6863 -0.0571
   11MOL0     C 1396   7.562   2.835  11.109 -0.2734  1.6272 -0.4286
   11MOL0     O 1397   7.616   2.709  10.793 -0.1623  0.4114  0.2491
   11MOL0     C 1398   7.601   2.372  10.923  0.0714  0.0898  0.4939
   11MOL0     C 1399   7.543   2.253  10.895  0.8815  0.7875  0.7200
   11MOL0     N 1400   7.306   1.476  10.978 -0.3695 -0.3116  0.4351
   11MOL0     N 1401   7.276   1.421  11.082  0.3828 -0.7730  0.3306
   11MOL0     C 1402   6.721   0.516  11.311 -0.8392  0.4368  0.0435
   11MOL0     C 1403   6.603   0.457  11.269 -0.0349  0.2931 -0.5653
   11MOL0     C 1404   6.340   0.119  11.191  0.5002  0.1169  0.9211
   11MOL0     C 1405   6.304  -0.000  11.261 -0.8667  0.1465  0.2148
   11MOL0     C 1406   6.201  -0.079  11.234 -0.0211 -0.1314  0.8397
   11MOL0     C 1407   6.127  -0.038  11.125 -0.4266  0.2115 -0.3425
   11MOL0     O 1408   6.020  -0.107  11.081  0.1710 -0.7818 -0.3234
   11MOL0     C 1409   6.009  -0.248  11.104 -0.0625 -0.2878  0.5324
   11MOL0     C 1410   5.953  -0.315  10.979 -0.5128  0.0211  0.1721
   11MOL0     C 1411   5.933  -0.465  11.004  0.0296 -0.4756 -0.5399
   11MOL0     C 1412   6.049  -0.552  11.033 -0.7559  1.0829  0.5684
   11MOL0     C 1413   6.145  -0.565  10.925  0.5909 -0.2851  1.1258
   11MOL0     C 1414   6.227  -0.588  10.843 -0.3154  0.1671  0.0021
   11MOL0     C 1415   6.149   0.079  11.067 -0.4298  0.8747  0.3565
   11MOL0     C 1416   6.251   0.155  11.094 -1.3796  0.0288 -0.3258
   11MOL0     C 1417   6.278   0.279  11.003 -1.1729 -0.1163 -1.0459
   11MOL0     H 1418   6.533   0.282  11.553 -0.2609 -1.9930 -1.0769
   11MOL0     H 1419   6.767   0.393  11.613 -0.0502  3.5159  0.4983
   11MOL0     H 1420   7.086   0.620  11.436  0.8785 -1.4360 -1.0456
   11MOL0     H 1421   6.977   0.625  11.293 -1.2655  1.7358 -0.6833
   11MOL0     H 1422   6.920   0.792  11.543 -0.2010 -1.1648 -0.5357
   11MOL0     H 1423   6.823   0.791  11.390  0.3171 -1.7467 -0.9106
   11MOL0     H 1424   7.062   0.852  11.280  2.1450 -0.7019  0.3143
   11MOL0     H 1425   7.094   0.915  11.447 -2.6445  2.7383  1.9363
   11MOL0     H 1426   6.879   0.991  11.244  2.3658  2.0600 -1.7702
   11MOL0     H 1427   6.854   1.022  11.416  1.4784  1.3034  1.3491
   11MOL0     H 1428   7.051   1.158  11.432 -0.8900  1.6435  0.1740
   11MOL0     H 1429   7.071   1.126  11.264 -1.6694  1.3594 -1.4952
   11MOL0     H 1430   6.801   1.208  11.283  0.3055 -0.1717  0.7464
   11MOL0     H 1431   6.886   1.298  11.417  1.0816  0.5869 -0.6305
   11MOL0     H 1432   6.872   1.414  11.174  0.6461 -0.5874 -2.1701
   11MOL0     H 1433   6.954   1.281  11.113  0.6394  1.0338 -0.5051
   11MOL0     H 1434   7.045   1.494  11.315  0.1278 -0.5805 -1.0171
   11MOL0     H 1435   7.139   1.342  11.297  1.4069 -0.7385 -1.0418
   11MOL0     H 1436   7.009   1.608  11.041 -0.2774  0.8529  1.9017
   11MOL0     H 1437   7.293   1.615  10.759 -2.9027 -3.1004 -1.1236
   11MOL0     H 1438   7.146   1.712  10.802  1.1720  3.4102  2.1406
   11MOL0     H 1439   7.258   1.842  10.965 -0.8539 -2.6760  1.4795
   11MOL0     H 1440   7.414   1.767  10.937 -1.0529  1.3747  1.1248
   11MOL0     H 1441   7.277   1.886  10.700 -1.6411  0.5893  1.7772
   11MOL0     H 1442   7.449   1.831  10.720  0.6326  0.5582  0.0839
   11MOL0     H 1443   7.477   1.978  10.898 -0.6723 -0.4665  0.5643
   11MOL0     H 1444   7.314   2.048  10.895  2.7609  0.8675  3.4022
   11MOL0     H 1445   7.438   2.297  10.573  0.5086 -0.9902 -0.5313
   11MOL0     H 1446   7.519   2.528  10.630 -2.8543  0.7850  1.2424
   11MOL0     H 1447   7.883   2.777  11.018  1.8258  2.6055  0.9402
   11MOL0     H 1448   7.897   3.005  11.106 -0.2815  1.2051  0.7589
   11MOL0     H 1449   7.538   3.270  11.244 -3.7363 -1.2184  4.0066
   11MOL0     H 1450   7.578   3.145  11.357 -1.1671 -1.3725 -2.8338
   11MOL0     H 1451   7.631   3.357  11.451  2.7683  1.0784  1.8072
   11MOL0     H 1452   7.784   3.276  11.400  0.1290 -2.0623 -3.0145
   11MOL0     H 1453   7.772   3.416  11.190 -1.8913  0.8381 -1.5673
   11MOL0     H 1454   7.611   3.476  11.235 -0.4848 -0.9616 -0.1389
   11MOL0     H 1455   7.869   3.540  11.401  0.5714 -0.7001 -0.8595
   11MOL0     H 1456   7.706   3.557  11.451  0.0909 -0.3394  0.5519
   11MOL0     H 1457   7.787   3.787  11.348  0.1155 -1.7009  2.1727
   11MOL0     H 1458   7.703   3.718  11.210  2.5172 -0.4420 -1.9844
   11MOL0     H 1459   8.000   3.670  11.253  0.7866  2.3884  0.1984
   11MOL0     H 1460   7.901   3.601  11.124 -0.9260  0.9739 -0.9358
   11MOL0     H 1461   7.956   3.893  11.169  0.0970 -1.8660  2.5903
   11MOL0     H 1462   7.809   3.850  11.084  1.0750  0.8832  1.6066
   11MOL0     H 1463   8.076   3.732  11.003  0.1793  0.3071  0.8798
   11MOL0     H 1464   7.922   3.740  10.915  1.1786 -1.8622 -0.1436
   11MOL0     H 1465   7.475   3.021  11.176 -0.5510 -1.0986  1.7608
   11MOL0     H 1466   7.464   2.792  11.122  0.5712  0.5915  4.1872
   11MOL0     H 1467   7.653   2.386  11.018 -1.0430 -1.8961  1.4745
   11MOL0     H 1468   7.546   2.177  10.971 -1.1495  1.8790  1.9888
   11MOL0     H 1469   6.780   0.574  11.242 -1.6400  1.7063  0.3734
   11MOL0     H 1470   6.566   0.482  11.171 -0.9162  1.8959  0.1417
   11MOL0     H 1471   6.362  -0.023  11.350 -1.0301  0.9357  0.5270
   11MOL0     H 1472   6.186  -0.172  11.288  0.8360 -0.3409  0.7301
   11MOL0     H 1473   5.944  -0.270  11.189  1.0297 -2.0480  0.9563
   11MOL0     H 1474   6.113  -0.281  11.110  1.4705  3.6694 -0.7237
   11MOL0     H 1475   6.022  -0.309  10.895 -0.8287 -1.4164 -0.2228
   11MOL0     H 1476   5.857  -0.270  10.949 -0.4350 -0.8609 -1.5165
   11MOL0     H 1477   5.898  -0.505  10.909  1.9019  0.6381 -1.7691
   11MOL0     H 1478   5.854  -0.469  11.080  0.0032 -2.4645 -0.6020
   11MOL0     H 1479   6.103  -0.509  11.118  1.0935  0.1688 -0.0994
   11MOL0     H 1480   6.022  -0.650  11.073 -0.1580  1.2705  1.4606
   11MOL0     H 1481   6.312  -0.624  10.789  1.1174  1.1869  1.5058
   11MOL0     H 1482   6.078   0.112  10.991 -1.4037  0.7272  1.1895
   11MOL0     H 1483   6.378   0.273  10.959 -0.7723 -2.7782  0.0568
   11MOL0     H 1484   6.198   0.281  10.928 -2.0318  0.1589 -0.1446
   11MOL0     H 1485   6.261   0.365  11.068 -2.1239  0.8788 -2.5322
   12MOL0     O 1486   2.384   8.758   4.168  0.2055  0.0720 -0.5736
   12MOL0     C 1487   2.269   8.779   4.128  0.3236  1.0870  0.4332
   12MOL0     O 1488   2.241   8.818   3.996 -0.3266 -0.3909  0.7507
   12MOL0     C 1489   2.350   8.842   3.909  0.1836  1.1339  0.2084
   12MOL0     C 1490   2.470   8.770   3.914 -0.3743  0.3446  0.9785
   12MOL0     C 1491   2.573   8.804   3.833 -0.2887  0.0783 -0.7976
   12MOL0     C 1492   2.561   8.912   3.740  0.4833  0.5311  0.3246
   12MOL0     O 1493   2.655   8.940   3.648 -0.0363 -1.0191  0.2615
   12MOL0     C 1494   2.784   8.891   3.645  0.7268  0.9840  0.3038
   12MOL0     C 1495   2.859   8.879   3.507 -0.3865 -0.0936 -0.8426
   12MOL0     C 1496   2.899   9.015   3.459 -0.2683  0.2536 -0.7101
   12MOL0     C 1497   2.995   9.012   3.335 -0.1655  0.0037  0.4811
   12MOL0     C 1498   3.042   9.146   3.298 -0.0415 -0.1533  1.1982
   12MOL0     C 1499   3.157   9.195   3.387 -0.0272  0.2159 -0.8962
   12MOL0     C 1500   3.223   9.324   3.336  0.1435  0.2748 -0.7074
   12MOL0     C 1501   3.361   9.346   3.409  0.5481  0.3882  0.2287
   12MOL0     N 1502   3.401   9.486   3.382  0.4721 -0.2403  0.1393
   12MOL0     C 1503   3.404   9.582   3.483 -0.0015  0.4303 -0.4642
   12MOL0     C 1504   3.444   9.690   3.421  0.2815  0.5373 -0.1160
   12MOL0     C 1505   3.484   9.830   3.475 -0.9145  0.9594  0.0037
   12MOL0     C 1506   3.561   9.917   3.381 -0.7341 -0.8785  0.2852
   12MOL0     C 1507   3.471   9.979   3.270  0.2183 -0.4890  1.1141
   12MOL0     C 1508   3.533  10.094   3.178  0.1127 -0.4992  0.1263
   12MOL0     O 1509   3.549  10.212   3.260  0.4361 -0.3658  0.2393
   12MOL0     C 1510   3.642  10.308   3.221 -0.1143  0.1257  0.2587
   12MOL0     C 1511   3.700  10.319   3.096 -0.2836  0.8630  0.9057
   12MOL0     C 1512   3.817  10.405   3.084  0.6123 -0.3079 -0.3000
   12MOL0     C 1513   3.857  10.499   3.188 -0.1062  0.7196  0.7959
   12MOL0     C 1514   3.974  10.574   3.169 -0.5290 -0.1250  0.5943
   12MOL0     O 1515   4.039  10.632   3.276 -0.2167  0.1593  0.2206
   12MOL0     C 1516   4.162  10.695   3.260  0.0521 -0.6438 -0.0116
   12MOL0     C 1517   4.280  10.652   3.195 -0.3611  0.8072  0.3123
   12MOL0     C 1518   4.401  10.717   3.204  0.2311 -0.6503  0.7936
   12MOL0     C 1519   4.412  10.840   3.257  0.0212 -0.0241 -0.5974
   12MOL0     O 1520   4.533  10.902   3.259 -0.8414 -0.2633 -0.5796
   12MOL0     C 1521   4.539  11.042   3.247 -0.0056  0.0604 -0.3770
   12MOL0     C 1522   4.507  11.097   3.106 -0.1192 -0.6233 -0.2284
   12MOL0     C 1523   4.592  11.013   3.004 -0.2466 -0.1088 -0.1956
   12MOL0     C 1524   4.574  11.047   2.854  0.5054 -0.2109  0.0768
   12MOL0     C 1525   4.428  11.041   2.811 -0.3310 -0.1953 -0.1308
   12MOL0     C 1526   4.351  10.906   2.850 -0.4945  0.2459  0.4050
   12MOL0     C 1527   4.237  10.878   2.749  0.5886  0.0791  0.3797
   12MOL0     C 1528   4.165  10.749   2.789  1.0091  0.3506 -0.7010
   12MOL0    Cl 1529   4.263  10.593   2.761  0.3422  0.2713 -0.6045
   12MOL0     C 1530   4.297  10.893   3.318  0.9584  0.4761  0.3165
   12MOL0     C 1531   4.177  10.821   3.326  0.3134 -0.3340  0.4169
   12MOL0     O 1532   4.014  10.596   3.053 -0.5373  0.3132  0.0451
   12MOL0     C 1533   3.796  10.479   3.310  0.2463 -1.2144 -0.1852
   12MOL0     C 1534   3.695  10.385   3.330  0.9197 -0.8996  1.5974
   12MOL0     N 1535   3.474   9.653   3.288  0.1775 -0.0353  0.2129
   12MOL0     N 1536   3.449   9.525   3.271 -0.7665 -0.6029 -0.6970
   12MOL0     C 1537   2.442   8.975   3.727 -0.2918 -0.5696 -0.3268
   12MOL0     C 1538   2.335   8.940   3.816  1.4786  0.2337  0.1834
   12MOL0     C 1539   2.152   8.758   4.222 -0.7888 -0.2665 -0.8744
   12MOL0     C 1540   2.027   8.757   4.160 -0.0641 -0.5978 -0.8318
   12MOL0     C 1541   1.908   8.754   4.246 -0.6747 -0.4033  0.3971
   12MOL0     C 1542   1.926   8.760   4.381 -0.0578  0.1765  0.2830
   12MOL0     O 1543   1.817   8.765   4.463  0.1381 -0.7232  0.5798
   12MOL0     C 1544   1.681   8.778   4.412 -0.3738  0.2682  0.4298
   12MOL0     C 1545   1.595   8.750   4.537 -0.0247 -0.2411 -0.1070
   12MOL0     C 1546   1.601   8.861   4.648 -0.9960  1.2246  0.0418
   12MOL0     C 1547   1.480   8.952   4.651 -0.1034 -0.2207 -0.6577
   12MOL0     C 1548   1.456   9.025   4.525 -0.7925  0.1107  0.1355
   12MOL0     C 1549   1.433   9.073   4.420  0.1132 -0.3140  0.4245
   12MOL0     C 1550   2.048   8.750   4.439 -0.5529  0.1415  0.3418
   12MOL0     C 1551   2.162   8.748   4.363 -0.8137 -0.1570  0.6783
   12MOL0     C 1552   2.296   8.753   4.427  0.0997  1.0365  0.5921
   12MOL0     H 1553   2.486   8.680   3.972  1.3609 -0.2589 -0.3391
   12MOL0     H 1554   2.666   8.753   3.853  0.4206  1.6764  0.1384
   12MOL0     H 1555   2.844   8.944   3.719  4.6836 -1.1985 -1.0550
   12MOL0     H 1556   2.780   8.789   3.685 -0.6790  1.9877  2.9469
   12MOL0     H 1557   2.793   8.829   3.435 -1.2561 -2.3591  1.3855
   12MOL0     H 1558   2.941   8.809   3.523  1.1496  1.3613 -2.0314
   12MOL0     H 1559   2.941   9.064   3.547 -0.6763 -0.4170 -0.1354
   12MOL0     H 1560   2.808   9.075   3.451 -0.9909 -0.6923  0.1119
   12MOL0     H 1561   3.072   8.935   3.346 -0.5651 -0.3310  1.0301
   12MOL0     H 1562   2.925   8.986   3.255  0.3832  2.9381 -1.0615
   12MOL0     H 1563   3.075   9.134   3.194  0.0031 -1.9722  1.3855
   12MOL0     H 1564   2.959   9.217   3.301  1.4634  1.6716  3.1649
   12MOL0     H 1565   3.134   9.206   3.494 -0.5132 -0.0660 -0.9706
   12MOL0     H 1566   3.229   9.114   3.372 -2.5749 -2.7900  1.6641
   12MOL0     H 1567   3.171   9.412   3.375  0.9564  0.8251 -0.8416
   12MOL0     H 1568   3.226   9.335   3.228 -1.1742  1.8872 -0.6162
   12MOL0     H 1569   3.369   9.323   3.515  1.1586  1.3956  0.4171
   12MOL0     H 1570   3.431   9.283   3.354  0.4965  1.8669 -1.6473
   12MOL0     H 1571   3.381   9.551   3.584  1.1479 -2.7790 -1.0720
   12MOL0     H 1572   3.398   9.878   3.523 -0.3221  3.6321 -1.4172
   12MOL0     H 1573   3.558   9.799   3.549  0.5068  3.2807 -0.3311
   12MOL0     H 1574   3.613  10.001   3.428 -2.7284  0.6774 -0.1315
   12MOL0     H 1575   3.632   9.860   3.320 -1.9495 -1.6218 -0.4737
   12MOL0     H 1576   3.379  10.019   3.314  1.0578 -0.0888  2.5374
   12MOL0     H 1577   3.458   9.901   3.194  2.2882 -2.6049  2.8074
   12MOL0     H 1578   3.464  10.108   3.094 -0.6979 -3.4991  0.1732
   12MOL0     H 1579   3.630  10.058   3.142  2.5853  2.8653  2.6933
   12MOL0     H 1580   3.683  10.255   3.010 -0.4430  3.4053 -1.0798
   12MOL0     H 1581   3.884  10.406   2.999 -0.5975  1.6225 -1.3088
   12MOL0     H 1582   4.286  10.550   3.157 -2.2800  0.3137  1.2093
   12MOL0     H 1583   4.490  10.677   3.158  0.6644  1.3069 -0.1657
   12MOL0     H 1584   4.480  11.086   3.328  0.8106 -1.7792  1.2850
   12MOL0     H 1585   4.642  11.062   3.279  0.9936 -1.6831 -2.2469
   12MOL0     H 1586   4.401  11.079   3.085 -0.1203  0.2059 -1.0002
   12MOL0     H 1587   4.534  11.203   3.104 -1.2862 -0.3180 -1.0129
   12MOL0     H 1588   4.698  11.019   3.032  0.3249  3.3262 -2.5433
   12MOL0     H 1589   4.566  10.906   3.007  3.3166 -1.1798 -1.4095
   12MOL0     H 1590   4.626  10.980   2.785  0.3438 -2.4819  2.0303
   12MOL0     H 1591   4.615  11.147   2.838 -1.0503  0.6668  1.2384
   12MOL0     H 1592   4.415  11.074   2.708  1.2797  2.8876  0.5306
   12MOL0     H 1593   4.375  11.113   2.874  1.4171  1.5153 -0.5326
   12MOL0     H 1594   4.416  10.819   2.862 -1.1258 -0.1179  1.2337
   12MOL0     H 1595   4.310  10.912   2.951 -0.5225 -2.6848  0.6679
   12MOL0     H 1596   4.285  10.859   2.653 -1.2966 -0.8668 -0.4255
   12MOL0     H 1597   4.165  10.961   2.749 -1.1665 -1.3849  0.2182
   12MOL0     H 1598   4.132  10.758   2.893  3.2875 -0.0629  0.1038
   12MOL0     H 1599   4.071  10.731   2.735 -0.2509 -1.4562  1.8913
   12MOL0     H 1600   4.294  10.993   3.361  0.3428 -0.0675  1.5904
   12MOL0     H 1601   4.096  10.864   3.383 -1.3957  0.9990 -2.7415
   12MOL0     H 1602   3.835  10.537   3.393  1.0289 -2.1907  0.1474
   12MOL0     H 1603   3.643  10.371   3.425 -1.9681  1.5812  0.5558
   12MOL0     H 1604   2.429   9.044   3.644 -2.8415 -1.2691 -0.6057
   12MOL0     H 1605   2.249   9.007   3.808  1.3386 -0.1674 -2.1715
   12MOL0     H 1606   2.016   8.755   4.052 -1.2693  2.8465 -0.9034
   12MOL0     H 1607   1.814   8.768   4.194  0.2709 -0.4399 -1.4088
   12MOL0     H 1608   1.665   8.695   4.343  1.4233 -0.1772  0.5099
   12MOL0     H 1609   1.658   8.870   4.358  0.1253 -0.0443 -0.3255
   12MOL0     H 1610   1.611   8.649   4.575  1.5895 -0.3935 -1.1330
   12MOL0     H 1611   1.494   8.754   4.494  0.7983 -4.1794 -2.9269
   12MOL0     H 1612   1.700   8.907   4.644 -0.4410  0.0250 -3.4124
   12MOL0     H 1613   1.599   8.807   4.743 -0.2355 -2.1732 -1.7264
   12MOL0     H 1614   1.400   8.883   4.680  0.4266 -1.5904 -2.2983
   12MOL0     H 1615   1.506   9.018   4.735  2.4704 -0.1684 -1.3981
   12MOL0     H 1616   1.392   9.104   4.326  1.2266  3.0859  0.9322
   12MOL0     H 1617   2.056   8.764   4.546  1.9944  0.6582  0.1453
   12MOL0     H 1618   2.349   8.840   4.384 -0.7941  0.6945 -1.2810
   12MOL0     H 1619   2.264   8.763   4.531 -2.2279  1.4077 -0.1025
   12MOL0     H 1620   2.360   8.668   4.402 -1.0816  0.6774 -1.4727
   13MOL0     O 1621   6.419   9.416   2.626 -0.5597  0.4489 -0.1061
   13MOL0     C 1622   6.425   9.449   2.509 -0.0178 -0.3237 -0.0196
   13MOL0     O 1623   6.384   9.367   2.412 -0.1051  0.3647  0.6571
   13MOL0     C 1624   6.322   9.246   2.428  0.4244 -0.1132 -0.1914
   13MOL0     C 1625   6.382   9.137   2.366  0.0753 -0.7513 -0.3698
   13MOL0     C 1626   6.334   9.012   2.385  0.0305 -0.3187 -0.8901
   13MOL0     C 1627   6.219   9.000   2.467 -1.4423 -0.2307  0.8753
   13MOL0     O 1628   6.171   8.868   2.478 -0.5720 -0.7277  0.9405
   13MOL0     C 1629   6.061   8.838   2.392  0.1922 -0.7980 -0.6468
   13MOL0     C 1630   6.029   8.690   2.415  0.1490  0.1510  0.0842
   13MOL0     C 1631   5.922   8.658   2.522  1.2466  0.6770  0.5603
   13MOL0     C 1632   5.916   8.507   2.558  0.1223  0.0735  0.0630
   13MOL0     C 1633   5.858   8.485   2.694 -0.1258 -0.0951  0.9192
   13MOL0     C 1634   5.851   8.340   2.714  0.0489  0.9097  1.2496
   13MOL0     C 1635   5.742   8.311   2.818  0.4546  0.1869  0.2438
   13MOL0     C 1636   5.600   8.315   2.755  0.8632 -0.0524 -0.1111
   13MOL0     N 1637   5.564   8.187   2.678  0.3725 -0.5160  0.6389
   13MOL0     C 1638   5.549   8.061   2.732  0.2289 -1.4536 -0.0935
   13MOL0     C 1639   5.532   7.983   2.623 -0.4039  0.6595 -1.1002
   13MOL0     C 1640   5.524   7.834   2.630  0.3939 -0.4339 -0.0969
   13MOL0     C 1641   5.631   7.756   2.553  0.7454 -0.5073 -1.0105
   13MOL0     C 1642   5.769   7.801   2.570  0.5887  0.6229 -1.2771
   13MOL0     C 1643   5.820   7.931   2.503 -0.1035 -0.5048 -0.0421
   13MOL0     O 1644   5.956   7.923   2.467 -0.9365  0.2776  0.7042
   13MOL0     C 1645   6.029   8.034   2.476  0.2778  0.1205  0.7482
   13MOL0     C 1646   6.126   8.042   2.581  1.3696 -0.1421  1.1453
   13MOL0     C 1647   6.222   8.136   2.571  0.2014  1.0187 -0.7084
   13MOL0     C 1648   6.237   8.226   2.463 -0.0212  0.1763  0.9085
   13MOL0     C 1649   6.352   8.314   2.450 -0.2860 -0.3021 -0.0101
   13MOL0     O 1650   6.343   8.414   2.366  0.4255  0.0873  0.0079
   13MOL0     C 1651   6.440   8.502   2.373 -0.5430 -0.5773  0.3439
   13MOL0     C 1652   6.550   8.501   2.296  0.5848 -0.5022 -0.0297
   13MOL0     C 1653   6.643   8.604   2.287  0.8648  0.0678 -0.3322
   13MOL0     C 1654   6.623   8.713   2.376 -0.0005  0.8695  0.8361
   13MOL0     O 1655   6.718   8.811   2.352 -0.0257  0.2317  0.0157
   13MOL0     C 1656   6.685   8.941   2.403 -1.0535  0.2867  0.4042
   13MOL0     C 1657   6.728   9.057   2.308 -0.4012  0.1432 -0.5748
   13MOL0     C 1658   6.880   9.081   2.294 -0.3725  0.4849  0.6063
   13MOL0     C 1659   6.949   9.112   2.428 -0.4252 -0.0544  0.1078
   13MOL0     C 1660   7.095   9.158   2.409  0.1498 -0.1833  0.0841
   13MOL0     C 1661   7.161   9.206   2.536 -0.2039 -0.3211  0.6771
   13MOL0     C 1662   7.316   9.199   2.520  0.0509  0.0126  1.3446
   13MOL0     C 1663   7.393   9.278   2.631 -0.3360  0.0167  0.9735
   13MOL0    Cl 1664   7.372   9.460   2.622  0.7764 -0.1963  0.7276
   13MOL0     C 1665   6.512   8.719   2.466  0.6561  0.5588  0.5128
   13MOL0     C 1666   6.418   8.616   2.450 -0.0910  0.2806 -0.0396
   13MOL0     O 1667   6.430   8.316   2.544  0.1741 -0.5983 -0.2025
   13MOL0     C 1668   6.134   8.231   2.367 -1.6877 -0.5068  0.3413
   13MOL0     C 1669   6.034   8.130   2.373  0.4843 -0.4767 -0.1746
   13MOL0     N 1670   5.537   8.057   2.514 -0.2406 -0.4356 -1.0241
   13MOL0     N 1671   5.564   8.180   2.543  0.5509  0.2251  1.2556
   13MOL0     C 1672   6.155   9.104   2.524 -1.1378  0.3402 -0.5702
   13MOL0     C 1673   6.200   9.231   2.492 -0.1873 -0.3757 -0.1214
   13MOL0     C 1674   6.476   9.583   2.484 -0.0909 -0.2343  0.8848
   13MOL0     C 1675   6.453   9.686   2.575  0.3469  0.7791  0.3780
   13MOL0     C 1676   6.501   9.816   2.552 -1.0422 -0.4597 -0.8990
   13MOL0     C 1677   6.583   9.853   2.444  0.1544 -0.2271  0.4044
   13MOL0     O 1678   6.627   9.975   2.403 -0.2083 -0.7919 -0.0960
   13MOL0     C 1679   6.623  10.079   2.500  1.1494 -0.9486  0.2563
   13MOL0     C 1680   6.674  10.219   2.454  0.1722 -0.0688 -0.5499
   13MOL0     C 1681   6.819  10.222   2.398 -0.0823  0.1449 -0.2206
   13MOL0     C 1682   6.838  10.338   2.300  1.2132 -0.2606 -0.0692
   13MOL0     C 1683   6.804  10.465   2.365  0.1523  0.5581 -0.0502
   13MOL0     C 1684   6.781  10.571   2.424 -0.0860 -0.1308 -0.3181
   13MOL0     C 1685   6.602   9.753   2.352  0.1705 -0.2168  0.6809
   13MOL0     C 1686   6.554   9.620   2.369 -0.7059  1.0442  0.2846
   13MOL0     C 1687   6.596   9.514   2.266  0.0316 -0.2570  0.1509
   13MOL0     H 1688   6.463   9.154   2.295  2.1840 -4.7627  0.7334
   13MOL0     H 1689   6.368   8.917   2.345  2.7084  0.1455  0.0869
   13MOL0     H 1690   5.984   8.910   2.424  2.0351 -0.5009  3.8987
   13MOL0     H 1691   6.090   8.842   2.287  2.7605  1.9489  0.0225
   13MOL0     H 1692   6.123   8.638   2.439 -0.5109 -0.4921  1.3510
   13MOL0     H 1693   5.998   8.635   2.325  0.0794 -1.6306  1.1552
   13MOL0     H 1694   5.825   8.685   2.479  2.4063  1.8481 -1.5400
   13MOL0     H 1695   5.937   8.714   2.615  0.2237  1.1215  0.4705
   13MOL0     H 1696   5.847   8.452   2.494  0.7665 -1.2597  0.4675
   13MOL0     H 1697   6.015   8.462   2.548 -1.3598 -3.6339  0.5978
   13MOL0     H 1698   5.907   8.540   2.775  0.4016 -1.1712  1.3419
   13MOL0     H 1699   5.756   8.521   2.678 -0.5464 -1.3263  0.7278
   13MOL0     H 1700   5.828   8.291   2.619 -0.7574  0.9385  1.4209
   13MOL0     H 1701   5.953   8.324   2.752 -0.1370  0.6380  1.6453
   13MOL0     H 1702   5.756   8.396   2.885 -0.6732  1.4084 -0.9931
   13MOL0     H 1703   5.759   8.212   2.861  0.3838 -0.5841 -1.4172
   13MOL0     H 1704   5.527   8.322   2.837 -0.5581  1.4013 -1.4242
   13MOL0     H 1705   5.589   8.401   2.688 -2.4753 -0.0976  0.1706
   13MOL0     H 1706   5.540   8.033   2.836 -2.7413 -0.0782  0.1324
   13MOL0     H 1707   5.510   7.806   2.736  0.8961 -0.4444 -0.0331
   13MOL0     H 1708   5.435   7.797   2.578  1.2655  1.2000 -2.9252
   13MOL0     H 1709   5.617   7.654   2.592 -0.7095  0.1169  0.2035
   13MOL0     H 1710   5.611   7.763   2.446  2.5503  0.7643 -1.3028
   13MOL0     H 1711   5.831   7.715   2.546  0.4194  0.2279 -0.3405
   13MOL0     H 1712   5.787   7.817   2.677  1.1148 -0.1633 -1.2492
   13MOL0     H 1713   5.796   8.020   2.562  0.1286 -0.2482 -0.3332
   13MOL0     H 1714   5.767   7.942   2.409 -0.7270 -0.3541  0.3214
   13MOL0     H 1715   6.135   7.959   2.651 -0.5514  0.3331  2.0043
   13MOL0     H 1716   6.304   8.127   2.642 -0.6188  1.3186  0.2966
   13MOL0     H 1717   6.556   8.411   2.234  0.5468 -1.4013  1.2376
   13MOL0     H 1718   6.725   8.597   2.216  1.3561 -3.7845  0.4217
   13MOL0     H 1719   6.580   8.962   2.424 -0.6220  1.7934  1.2077
   13MOL0     H 1720   6.729   8.954   2.502 -0.3722  1.2146 -0.0066
   13MOL0     H 1721   6.675   9.040   2.214 -3.1704 -4.8270  1.5460
   13MOL0     H 1722   6.694   9.152   2.349 -0.0951 -0.4458  1.0985
   13MOL0     H 1723   6.922   8.986   2.261  2.7890  1.6496  0.8995
   13MOL0     H 1724   6.903   9.155   2.216  0.4236 -0.1759  0.1966
   13MOL0     H 1725   6.941   9.033   2.503  2.3751 -0.2841  0.2728
   13MOL0     H 1726   6.905   9.205   2.464  0.2125  0.6568 -0.9300
   13MOL0     H 1727   7.088   9.241   2.337 -3.6815  1.5416  2.1488
   13MOL0     H 1728   7.147   9.069   2.373 -1.0423 -1.3110  1.0865
   13MOL0     H 1729   7.127   9.306   2.566 -1.0161 -0.7210  1.1013
   13MOL0     H 1730   7.124   9.132   2.607 -6.6842  0.6728 -1.0364
   13MOL0     H 1731   7.338   9.235   2.419  0.3566 -4.3558 -0.3333
   13MOL0     H 1732   7.353   9.096   2.523  0.8484  0.2995  1.7728
   13MOL0     H 1733   7.359   9.253   2.732 -0.3006  3.1397  1.8656
   13MOL0     H 1734   7.499   9.253   2.623 -0.4294 -0.2600  0.5697
   13MOL0     H 1735   6.490   8.806   2.527 -1.1008  0.5096 -0.0163
   13MOL0     H 1736   6.320   8.621   2.497 -1.1336 -3.6864 -1.4211
   13MOL0     H 1737   6.138   8.304   2.287 -3.0952  3.3337  3.4491
   13MOL0     H 1738   5.962   8.121   2.292  1.0155 -0.0159 -0.7170
   13MOL0     H 1739   6.062   9.078   2.573  0.0736 -1.9954  0.6915
   13MOL0     H 1740   6.159   9.325   2.527  1.1577  0.1335  0.1328
   13MOL0     H 1741   6.396   9.656   2.663 -1.6337 -0.3114 -1.1797
   13MOL0     H 1742   6.479   9.894   2.624  1.3038 -2.4750  2.2855
   13MOL0     H 1743   6.689  10.050   2.583 -0.9488  4.7892  4.6531
   13MOL0     H 1744   6.522  10.097   2.538  1.3739 -1.0876  0.9376
   13MOL0     H 1745   6.673  10.281   2.543 -0.8559 -0.2719 -0.4153
   13MOL0     H 1746   6.600  10.256   2.383 -1.8613 -0.3679  1.3120
   13MOL0     H 1747   6.835  10.127   2.347 -3.3956 -2.0418  2.3707
   13MOL0     H 1748   6.890  10.231   2.481  0.0769  2.6877 -0.5426
   13MOL0     H 1749   6.940  10.338   2.260  1.4096  0.1840  0.4157
   13MOL0     H 1750   6.769  10.333   2.216  0.8023 -0.2701  0.2626
   13MOL0     H 1751   6.759  10.668   2.464  1.8510  0.2317 -0.0501
   13MOL0     H 1752   6.648   9.782   2.258 -1.8299  4.5609  0.8667
   13MOL0     H 1753   6.671   9.559   2.201  0.2840 -0.2951  0.4111
   13MOL0     H 1754   6.640   9.434   2.327  2.6956  0.3186 -0.8734
   13MOL0     H 1755   6.508   9.474   2.214  0.9931 -1.9770 -0.2513
   14MOL0     O 1756   8.990   9.540  10.246  0.3419 -0.4775  0.7551
   14MOL0     C 1757   9.102   9.486  10.225 -0.0967  0.9403 -1.0951
   14MOL0     O 1758   9.168   9.457  10.108 -0.0107  0.9365  0.4493
   14MOL0     C 1759   9.116   9.509   9.999  0.0076  0.5394  0.8199
   14MOL0     C 1760   9.110   9.648   9.984  0.5300  0.6575 -0.3418
   14MOL0     C 1761   9.049   9.711   9.879 -0.2529  0.3086  0.8897
   14MOL0     C 1762   9.004   9.632   9.773 -0.2079 -0.3695 -0.0961
   14MOL0     O 1763   8.946   9.686   9.660  0.4154 -0.0762  0.6530
   14MOL0     C 1764   9.027   9.773   9.590 -0.1947 -0.5159 -0.2247
   14MOL0     C 1765   8.984   9.766   9.443 -0.0837 -0.1974  0.5862
   14MOL0     C 1766   8.843   9.830   9.429 -0.9415  0.1301  0.8161
   14MOL0     C 1767   8.788   9.805   9.287 -0.2802  0.9182 -0.1443
   14MOL0     C 1768   8.813   9.663   9.234  0.7243 -0.5333 -0.0956
   14MOL0     C 1769   8.757   9.635   9.098  0.4440  0.5870 -0.0590
   14MOL0     C 1770   8.826   9.506   9.040 -1.0997  0.1349 -0.3092
   14MOL0     C 1771   8.769   9.382   9.075 -0.1241  0.4237 -0.4000
   14MOL0     N 1772   8.661   9.364   8.979  0.0607  0.3572 -0.1816
   14MOL0     C 1773   8.523   9.398   9.003 -0.2390  0.7363  0.1980
   14MOL0     C 1774   8.465   9.346   8.890 -0.3282 -0.1365 -1.3177
   14MOL0     C 1775   8.324   9.359   8.850 -0.3324  0.4817  0.3091
   14MOL0     C 1776   8.297   9.499   8.788  0.4451 -0.3287  0.2985
   14MOL0     C 1777   8.160   9.514   8.711  0.9327 -0.4011  0.1505
   14MOL0     C 1778   8.031   9.456   8.772 -0.0897 -0.2842  0.8080
   14MOL0     O 1779   8.032   9.311   8.736 -0.2940  0.8931 -0.2454
   14MOL0     C 1780   7.913   9.245   8.747  0.0907  0.1010  0.0084
   14MOL0     C 1781   7.791   9.297   8.804 -0.9319  0.5675  1.2076
   14MOL0     C 1782   7.680   9.221   8.798  0.6702  0.1829 -0.7021
   14MOL0     C 1783   7.684   9.093   8.739  0.5665 -0.4359 -0.6428
   14MOL0     C 1784   7.566   9.005   8.725 -0.4587  0.8953 -0.5606
   14MOL0     O 1785   7.434   9.048   8.726  0.3748 -0.7695 -0.5757
   14MOL0     C 1786   7.335   8.950   8.749  0.4009  0.6890  0.2266
   14MOL0     C 1787   7.269   8.886   8.649  0.7012  0.2266 -0.7713
   14MOL0     C 1788   7.157   8.809   8.677  0.0946  0.0791 -0.4369
   14MOL0     C 1789   7.119   8.793   8.810  0.1326  1.2058 -0.0769
   14MOL0     O 1790   7.012   8.719   8.856 -0.3566 -0.3231 -0.3956
   14MOL0     C 1791   6.930   8.656   8.759 -1.1781  0.2028 -0.5136
   14MOL0     C 1792   6.819   8.596   8.835  1.1496  0.4482  0.7800
   14MOL0     C 1793   6.743   8.491   8.757  0.1419  0.6348  0.5486
   14MOL0     C 1794   6.596   8.470   8.789 -0.2646  0.5525  0.3854
   14MOL0     C 1795   6.531   8.375   8.682  0.5504  0.4343 -0.0122
   14MOL0     C 1796   6.377   8.370   8.703  0.9596  0.6247 -0.1046
   14MOL0     C 1797   6.310   8.278   8.611 -0.2275  0.0914  0.8175
   14MOL0     C 1798   6.309   8.329   8.463 -0.3515 -0.5065 -0.2858
   14MOL0    Cl 1799   6.205   8.225   8.366  0.3180 -0.2617  0.0222
   14MOL0     C 1800   7.194   8.839   8.915  0.2002 -0.1419 -0.2685
   14MOL0     C 1801   7.294   8.926   8.884  0.3772 -0.0829 -0.7933
   14MOL0     O 1802   7.599   8.888   8.735  0.8131  0.7506  0.2858
   14MOL0     C 1803   7.811   9.043   8.692  0.4505 -0.0298 -0.6346
   14MOL0     C 1804   7.925   9.113   8.694  0.3424 -0.8500 -0.5425
   14MOL0     N 1805   8.549   9.278   8.814 -0.0194  0.2330  0.2784
   14MOL0     N 1806   8.665   9.284   8.864 -0.6515 -0.0399  0.2120
   14MOL0     C 1807   9.022   9.488   9.770  0.0293  0.4174 -0.3146
   14MOL0     C 1808   9.075   9.428   9.892 -0.7186  0.8950  0.6600
   14MOL0     C 1809   9.170   9.439  10.348  0.2568 -1.1570 -0.4526
   14MOL0     C 1810   9.178   9.538  10.450  0.9129  0.5658  0.7603
   14MOL0     C 1811   9.246   9.506  10.569 -0.5791  0.4571  0.4043
   14MOL0     C 1812   9.314   9.380  10.578 -0.7338  0.1098  0.1848
   14MOL0     O 1813   9.380   9.365  10.696  0.0604 -0.3425 -0.9946
   14MOL0     C 1814   9.426   9.235  10.725 -0.7887  0.4063  0.2676
   14MOL0     C 1815   9.510   9.237  10.853  0.2504  0.8763 -0.4219
   14MOL0     C 1816   9.421   9.291  10.963 -0.0637  0.7279 -0.5297
   14MOL0     C 1817   9.463   9.222  11.097  0.2661 -0.4324  0.4911
   14MOL0     C 1818   9.602   9.252  11.121  0.0475  0.1991  0.6074
   14MOL0     C 1819   9.713   9.262  11.170  0.3291  0.2281  0.0628
   14MOL0     C 1820   9.307   9.288  10.474  0.9657  0.7427 -0.2592
   14MOL0     C 1821   9.241   9.321  10.363 -1.0025 -0.1934  0.2413
   14MOL0     C 1822   9.232   9.213  10.251 -0.4275  0.0029  0.2176
   14MOL0     H 1823   9.141   9.707  10.070 -2.3853 -1.8844  2.7679
   14MOL0     H 1824   9.050   9.819   9.871  2.9189  0.2805 -0.5652
   14MOL0     H 1825   9.015   9.880   9.609 -1.7389 -0.9549  1.4499
   14MOL0     H 1826   9.133   9.746   9.589 -0.0008  0.2141 -0.9866
   14MOL0     H 1827   8.989   9.662   9.410 -1.4941  0.2474 -1.2088
   14MOL0     H 1828   9.048   9.830   9.382 -3.4612  0.3621 -2.7947
   14MOL0     H 1829   8.849   9.938   9.447 -0.3398  0.3125 -0.3856
   14MOL0     H 1830   8.779   9.780   9.502  0.2616 -3.2223 -0.2577
   14MOL0     H 1831   8.680   9.824   9.288 -0.0925  2.0544 -0.2013
   14MOL0     H 1832   8.844   9.877   9.228  4.8965 -1.6428  1.0212
   14MOL0     H 1833   8.921   9.645   9.226  0.8556 -0.8375  1.8132
   14MOL0     H 1834   8.762   9.593   9.301 -1.6171  1.2758  0.1173
   14MOL0     H 1835   8.650   9.613   9.106  1.1779 -4.6122 -0.7410
   14MOL0     H 1836   8.758   9.721   9.031 -2.9981  0.5538 -0.3326
   14MOL0     H 1837   8.931   9.509   9.070 -1.8385  1.3220  2.5716
   14MOL0     H 1838   8.829   9.529   8.933  2.8225  0.9891 -0.1765
   14MOL0     H 1839   8.857   9.319   9.058  0.1269  1.0839 -1.6609
   14MOL0     H 1840   8.744   9.367   9.180  2.0423  0.6855  0.1961
   14MOL0     H 1841   8.491   9.446   9.095 -0.7540 -0.5318  0.6987
   14MOL0     H 1842   8.310   9.284   8.772  0.1081  1.7076 -0.9906
   14MOL0     H 1843   8.249   9.332   8.925  0.0242  0.6012  0.7198
   14MOL0     H 1844   8.302   9.582   8.860 -0.7887  0.0385 -0.0137
   14MOL0     H 1845   8.380   9.522   8.721  1.4638  0.5902  1.8208
   14MOL0     H 1846   8.174   9.478   8.609  2.8643 -0.7509  0.5025
   14MOL0     H 1847   8.158   9.622   8.696  0.4615 -0.4391 -0.0789
   14MOL0     H 1848   7.943   9.503   8.728 -0.6388 -0.2060  1.9669
   14MOL0     H 1849   8.029   9.477   8.879 -0.9882  1.0219  0.5547
   14MOL0     H 1850   7.800   9.387   8.864 -2.3491  0.4107  1.6751
   14MOL0     H 1851   7.589   9.257   8.844  0.4677 -0.4675 -0.5944
   14MOL0     H 1852   7.290   8.908   8.545  0.2797  4.1180 -0.1788
   14MOL0     H 1853   7.099   8.767   8.595 -0.1049 -0.2250 -0.1427
   14MOL0     H 1854   6.885   8.718   8.681  0.0183  2.2301  0.3303
   14MOL0     H 1855   6.987   8.574   8.715  3.2573  2.1943  0.8810
   14MOL0     H 1856   6.864   8.549   8.922  1.2498  1.1883  1.1298
   14MOL0     H 1857   6.757   8.683   8.858  0.4454  0.4656 -0.9582
   14MOL0     H 1858   6.733   8.517   8.651 -2.0531 -2.5643 -0.1970
   14MOL0     H 1859   6.796   8.396   8.761 -0.2912  0.4476  2.5843
   14MOL0     H 1860   6.549   8.569   8.788 -0.0719  0.7040  2.2045
   14MOL0     H 1861   6.584   8.433   8.892 -2.3508 -0.8423 -0.2872
   14MOL0     H 1862   6.573   8.274   8.690  0.2756  0.1257 -1.8874
   14MOL0     H 1863   6.548   8.412   8.580 -0.6801 -1.2158 -0.8624
   14MOL0     H 1864   6.352   8.335   8.803  2.0586  0.8219  0.2440
   14MOL0     H 1865   6.337   8.471   8.692  1.2919  1.0551  2.2212
   14MOL0     H 1866   6.202   8.282   8.630  0.0196  1.0260  2.2226
   14MOL0     H 1867   6.346   8.178   8.633 -3.2459 -0.8187  2.1670
   14MOL0     H 1868   6.275   8.433   8.461 -0.2569 -0.1451  4.8234
   14MOL0     H 1869   6.411   8.336   8.423 -0.7274  0.5435 -1.0989
   14MOL0     H 1870   7.164   8.807   9.014 -1.0803 -0.9492 -0.8886
   14MOL0     H 1871   7.366   8.958   8.959 -1.7094  3.1183  0.0523
   14MOL0     H 1872   7.832   8.943   8.655  1.0171  0.5290 -1.8778
   14MOL0     H 1873   8.019   9.082   8.649  1.5408  0.6047  0.8369
   14MOL0     H 1874   8.982   9.427   9.689  1.3854 -1.2472  0.2069
   14MOL0     H 1875   9.079   9.321   9.911 -2.2205  0.8575  0.8926
   14MOL0     H 1876   9.147   9.642  10.445  2.3994  1.3890  4.8510
   14MOL0     H 1877   9.248   9.579  10.649 -1.9335 -1.2837  2.1167
   14MOL0     H 1878   9.498   9.199  10.651 -0.1694  2.6564 -0.3008
   14MOL0     H 1879   9.345   9.162  10.730  0.1474 -0.6524  0.6363
   14MOL0     H 1880   9.596   9.305  10.856  1.5014 -0.6445  2.1456
   14MOL0     H 1881   9.549   9.142  10.889 -0.2489  0.8510  0.0724
   14MOL0     H 1882   9.314   9.272  10.948 -0.5470  2.2638  0.7102
   14MOL0     H 1883   9.416   9.400  10.964 -0.7494  0.8671 -4.3305
   14MOL0     H 1884   9.398   9.271  11.170 -0.9204 -0.3513 -0.5854
   14MOL0     H 1885   9.438   9.116  11.104 -2.9280 -0.0442 -2.2659
   14MOL0     H 1886   9.809   9.283  11.212 -0.1293 -1.1756  2.0055
   14MOL0     H 1887   9.340   9.185  10.481  1.5509  0.9985  1.2967
   14MOL0     H 1888   9.326   9.225  10.196  2.4935 -3.1700  3.9688
   14MOL0     H 1889   9.235   9.118  10.305  2.2949  1.4878  3.0225
   14MOL0     H 1890   9.149   9.220  10.181 -1.0795 -0.4514  0.9334
   15MOL0     O 1891   4.794   7.395   3.093 -0.3235 -0.0790 -0.0025
   15MOL0     C 1892   4.871   7.457   3.022 -0.2342 -0.6748 -0.5253
   15MOL0     O 1893   4.846   7.571   2.958  0.5337  0.2773  0.1236
   15MOL0     C 1894   4.719   7.626   2.987 -0.5696 -0.6379 -0.2119
   15MOL0     C 1895   4.710   7.745   3.044 -0.7860 -0.1662 -1.0709
   15MOL0     C 1896   4.596   7.806   3.076  0.4808  0.4440 -0.3433
   15MOL0     C 1897   4.472   7.764   3.031 -0.1505 -0.4612  0.0134
   15MOL0     O 1898   4.360   7.840   3.056  0.1007  0.3870 -0.6807
   15MOL0     C 1899   4.257   7.846   2.962  0.2365 -0.9042 -0.0998
   15MOL0     C 1900   4.142   7.933   3.024  0.3938  0.0472 -0.1918
   15MOL0     C 1901   4.090   8.039   2.918  0.3819  0.0898  0.0342
   15MOL0     C 1902   4.001   8.139   3.000  0.5789 -0.1643 -0.5299
   15MOL0     C 1903   3.927   8.227   2.918  0.3597  0.2667 -0.1269
   15MOL0     C 1904   4.023   8.305   2.827 -0.4619  0.1060  0.4715
   15MOL0     C 1905   3.950   8.432   2.773 -0.0069  0.6870 -0.2465
   15MOL0     C 1906   3.831   8.386   2.688 -0.5447  0.1505 -0.3807
   15MOL0     N 1907   3.789   8.500   2.609 -0.2246  0.2353 -0.1358
   15MOL0     C 1908   3.826   8.532   2.478  0.4529 -0.4444 -0.0491
   15MOL0     C 1909   3.754   8.646   2.454 -0.3018  0.1544  0.1217
   15MOL0     C 1910   3.760   8.745   2.345  0.8087 -0.4101  0.4033
   15MOL0     C 1911   3.888   8.820   2.356  0.3747 -0.1045 -1.0767
   15MOL0     C 1912   3.936   8.883   2.225 -0.7346 -0.2815  0.1923
   15MOL0     C 1913   4.043   8.983   2.257 -0.4360 -0.7015 -0.1011
   15MOL0     O 1914   4.147   8.938   2.351 -0.0476  0.1014 -0.4994
   15MOL0     C 1915   4.224   8.827   2.306  0.1464  0.2836 -0.2603
   15MOL0     C 1916   4.261   8.796   2.175 -0.0940  0.1573  0.0906
   15MOL0     C 1917   4.348   8.690   2.145 -1.0719  0.7879 -0.1403
   15MOL0     C 1918   4.411   8.604   2.238 -0.2271  0.2135  1.7980
   15MOL0     C 1919   4.508   8.490   2.207 -0.6938  0.0563  0.2916
   15MOL0     O 1920   4.563   8.422   2.310  0.5605 -0.5055 -0.7583
   15MOL0     C 1921   4.647   8.327   2.274  0.6304  0.3915  0.5016
   15MOL0     C 1922   4.780   8.341   2.244 -0.6229 -0.0462  0.1855
   15MOL0     C 1923   4.862   8.234   2.196  0.5605  0.5187  0.3808
   15MOL0     C 1924   4.806   8.105   2.205  0.7119  0.2610  0.6381
   15MOL0     O 1925   4.889   8.005   2.169  0.3438 -0.2981 -0.0730
   15MOL0     C 1926   4.892   7.905   2.263  0.1374 -0.3898  0.5674
   15MOL0     C 1927   4.955   7.947   2.394 -0.1324 -0.0050  0.2560
   15MOL0     C 1928   4.954   7.822   2.485  0.0173  0.6207  0.0373
   15MOL0     C 1929   5.024   7.860   2.617  0.1234  0.8926 -0.0608
   15MOL0     C 1930   5.025   7.754   2.723  0.3996  0.1526 -0.1883
   15MOL0     C 1931   5.113   7.778   2.845  0.3187  0.4298  0.6995
   15MOL0     C 1932   5.053   7.874   2.944 -0.7217 -0.0011 -0.9731
   15MOL0     C 1933   5.116   7.883   3.093  0.5089  0.9064 -0.2619
   15MOL0    Cl 1934   5.245   8.003   3.065 -0.0413  0.0699 -0.6024
   15MOL0     C 1935   4.669   8.092   2.251  0.4016 -0.1171 -0.1575
   15MOL0     C 1936   4.591   8.194   2.283 -0.1643  0.2575  0.0792
   15MOL0     O 1937   4.531   8.476   2.089 -0.8148  0.2438 -0.2796
   15MOL0     C 1938   4.363   8.628   2.368  0.0563  0.4136  0.5849
   15MOL0     C 1939   4.278   8.738   2.398  0.2698 -0.2820 -0.4540
   15MOL0     N 1940   3.674   8.676   2.560  0.3894  0.9122  0.9295
   15MOL0     N 1941   3.696   8.590   2.650 -0.6489  0.0663  0.8653
   15MOL0     C 1942   4.479   7.644   2.958  0.1168 -0.5304 -0.7127
   15MOL0     C 1943   4.598   7.571   2.936 -0.3189 -0.3176  0.6021
   15MOL0     C 1944   4.996   7.389   2.973 -0.2605  0.1134  0.3129
   15MOL0     C 1945   5.025   7.398   2.838 -0.5699  1.2178 -0.5796
   15MOL0     C 1946   5.127   7.329   2.774  0.2287 -1.7041  0.1657
   15MOL0     C 1947   5.210   7.243   2.842 -0.7488  0.6177  1.3004
   15MOL0     O 1948   5.314   7.164   2.787  0.4029  0.2771  0.7056
   15MOL0     C 1949   5.297   7.023   2.804  0.2789 -0.1407 -0.5358
   15MOL0     C 1950   5.194   6.982   2.692  0.0062 -0.2737  0.3701
   15MOL0     C 1951   5.157   6.839   2.726  0.4046 -1.6421 -0.0678
   15MOL0     C 1952   5.057   6.795   2.624 -0.7571 -0.4271 -0.1457
   15MOL0     C 1953   5.094   6.787   2.480  0.5469 -0.1242 -0.3223
   15MOL0     C 1954   5.136   6.760   2.366  0.3301 -0.5767 -0.0194
   15MOL0     C 1955   5.184   7.242   2.983  0.3648  0.0180  0.4028
   15MOL0     C 1956   5.089   7.311   3.048  0.8734  0.6889 -0.0608
   15MOL0     C 1957   5.091   7.310   3.194 -0.3268  0.2030  0.0006
   15MOL0     H 1958   4.805   7.785   3.079 -0.3674 -0.8217 -1.4552
   15MOL0     H 1959   4.598   7.895   3.136  2.2145  1.3726 -1.6737
   15MOL0     H 1960   4.295   7.886   2.868 -0.4569  0.4868  0.1714
   15MOL0     H 1961   4.222   7.745   2.940  0.4518 -0.5049 -2.5593
   15MOL0     H 1962   4.182   7.972   3.117 -1.6389  1.9855 -0.0553
   15MOL0     H 1963   4.062   7.862   3.048  2.0438 -0.5624  4.6254
   15MOL0     H 1964   4.029   7.983   2.847  0.9698 -1.9283  1.0583
   15MOL0     H 1965   4.183   8.081   2.877 -0.7278  0.0534 -2.7314
   15MOL0     H 1966   3.931   8.085   3.063  1.5071 -0.1883  0.5164
   15MOL0     H 1967   4.064   8.205   3.061  1.4670 -0.3727 -1.1937
   15MOL0     H 1968   3.854   8.168   2.861  1.0835 -2.5039  1.6022
   15MOL0     H 1969   3.867   8.302   2.971  0.3050 -0.5369  0.9845
   15MOL0     H 1970   4.113   8.338   2.880 -0.0134 -2.0230  1.1270
   15MOL0     H 1971   4.042   8.249   2.735  1.3222 -0.1527  0.9689
   15MOL0     H 1972   4.017   8.485   2.704 -0.6567 -2.5118 -3.7031
   15MOL0     H 1973   3.904   8.501   2.844 -6.1711 -0.2395 -2.6757
   15MOL0     H 1974   3.864   8.310   2.617  1.4647  0.7486 -0.1592
   15MOL0     H 1975   3.748   8.351   2.750 -0.6493  2.3132  0.8157
   15MOL0     H 1976   3.912   8.499   2.420  0.4006  0.1454 -0.4663
   15MOL0     H 1977   3.761   8.697   2.246  0.1596 -1.3625  0.8413
   15MOL0     H 1978   3.668   8.803   2.350  0.6333 -0.6591  0.1241
   15MOL0     H 1979   3.878   8.897   2.432  2.5312 -1.3925  0.6266
   15MOL0     H 1980   3.956   8.747   2.401 -1.0053 -0.3062  0.7876
   15MOL0     H 1981   3.858   8.933   2.167 -0.7542 -2.2254 -1.6025
   15MOL0     H 1982   3.982   8.808   2.160  0.0709 -1.5334  2.0893
   15MOL0     H 1983   3.997   9.073   2.297  2.1709  1.2088 -1.1104
   15MOL0     H 1984   4.093   9.018   2.166  0.7101  0.6792  1.0207
   15MOL0     H 1985   4.234   8.868   2.098  2.0598  0.6355 -0.2820
   15MOL0     H 1986   4.348   8.670   2.038 -6.8311  0.0129 -0.3184
   15MOL0     H 1987   4.816   8.443   2.248  1.3258 -0.6817  0.0510
   15MOL0     H 1988   4.964   8.249   2.163  0.8735  2.7224  2.1670
   15MOL0     H 1989   4.787   7.873   2.266 -0.0422 -0.2435 -1.8691
   15MOL0     H 1990   4.944   7.817   2.223 -2.1948 -1.0940 -1.2325
   15MOL0     H 1991   5.055   7.984   2.369  0.0161 -0.8330 -0.4217
   15MOL0     H 1992   4.897   8.027   2.441  1.5216 -0.0012  2.4717
   15MOL0     H 1993   4.852   7.792   2.511  0.0724  2.0883  2.1019
   15MOL0     H 1994   4.990   7.738   2.425  0.1320  0.0454  0.9091
   15MOL0     H 1995   4.990   7.958   2.654  0.5036  0.6267  1.0404
   15MOL0     H 1996   5.128   7.875   2.589  0.1320  1.1731  0.1071
   15MOL0     H 1997   5.064   7.661   2.681  2.3015  0.5183  0.6901
   15MOL0     H 1998   4.922   7.754   2.759  0.5634  0.8483  0.2891
   15MOL0     H 1999   5.120   7.684   2.900  3.9432 -0.8811 -1.6517
   15MOL0     H 2000   5.213   7.816   2.824  1.0921 -1.4899  0.7015
   15MOL0     H 2001   4.946   7.850   2.950 -0.8232  0.8196  2.4041
   15MOL0     H 2002   5.057   7.977   2.908 -0.2997 -0.4196 -2.1767
   15MOL0     H 2003   5.033   7.917   3.155  0.4194 -0.0283  0.1446
   15MOL0     H 2004   5.152   7.783   3.122  1.2875  0.2224 -3.2403
   15MOL0     H 2005   4.617   7.997   2.244  2.0164 -0.9099 -2.4018
   15MOL0     H 2006   4.485   8.186   2.305 -0.7989  0.3793 -2.6209
   15MOL0     H 2007   4.395   8.567   2.452  2.8209  0.2390 -0.4647
   15MOL0     H 2008   4.254   8.759   2.501  3.2370 -2.0590  0.7531
   15MOL0     H 2009   4.385   7.602   2.923 -1.6041  1.0805  1.6612
   15MOL0     H 2010   4.596   7.477   2.881  0.3516  1.5823 -2.9360
   15MOL0     H 2011   4.961   7.456   2.772 -1.0034  1.4930  0.0768
   15MOL0     H 2012   5.125   7.340   2.666 -0.9822  1.3611  0.4193
   15MOL0     H 2013   5.253   6.993   2.900 -2.7388  1.1595 -1.4038
   15MOL0     H 2014   5.396   6.976   2.796  1.5252  2.4052 -1.1836
   15MOL0     H 2015   5.245   6.991   2.595 -1.5778  1.8301 -0.3311
   15MOL0     H 2016   5.103   7.043   2.692  0.7619  0.9533  2.9277
   15MOL0     H 2017   5.120   6.841   2.828 -1.6017 -0.7278 -0.7589
   15MOL0     H 2018   5.241   6.768   2.720  0.4421 -1.8812  2.5156
   15MOL0     H 2019   5.035   6.691   2.651 -2.7053 -0.8211 -2.8269
   15MOL0     H 2020   4.965   6.852   2.636  0.2527  1.1139  0.6421
   15MOL0     H 2021   5.155   6.757   2.260 -1.1616  2.3528 -0.4577
   15MOL0     H 2022   5.254   7.172   3.026  0.7104 -0.7122 -1.2736
   15MOL0     H 2023   5.162   7.231   3.220 -0.6802 -1.0540 -2.5915
   15MOL0     H 2024   5.137   7.397   3.242  0.5352 -1.0615  1.5958
   15MOL0     H 2025   4.996   7.291   3.245  0.9471 -0.9176  2.1386
   16MOL0     O 2026   7.505   0.082   3.708 -0.2982  0.2228 -0.0052
   16MOL0     C 2027   7.437   0.039   3.612  0.4982  0.0070  0.5816
   16MOL0     O 2028   7.482   0.049   3.478 -0.1509  0.6009  0.5104
   16MOL0     C 2029   7.610   0.102   3.471  0.6542  0.5995 -0.1037
   16MOL0     C 2030   7.720   0.030   3.497  0.1850  0.3612 -0.0490
   16MOL0     C 2031   7.842   0.098   3.513  0.9937 -0.1046 -0.0467
   16MOL0     C 2032   7.850   0.236   3.497  0.1530  0.6048 -0.2276
   16MOL0     O 2033   7.970   0.296   3.512 -1.4166 -0.0204  0.2220
   16MOL0     C 2034   8.017   0.390   3.419  0.3347 -0.3562  0.8530
   16MOL0     C 2035   8.167   0.370   3.404  0.5311  0.1362 -0.5422
   16MOL0     C 2036   8.257   0.408   3.521  0.5252 -0.0726  0.0457
   16MOL0     C 2037   8.344   0.533   3.508  0.0781  0.0409 -0.6942
   16MOL0     C 2038   8.481   0.517   3.573 -0.3137  0.0384  0.1105
   16MOL0     C 2039   8.581   0.412   3.504 -0.0958  0.3745  0.3191
   16MOL0     C 2040   8.720   0.426   3.565 -0.6000  0.2913 -0.0168
   16MOL0     C 2041   8.811   0.305   3.539 -0.1368 -0.1399 -0.1572
   16MOL0     N 2042   8.962   0.321   3.556  0.0095  0.5500  0.2536
   16MOL0     C 2043   9.041   0.329   3.672  0.3449  0.0823  0.3377
   16MOL0     C 2044   9.164   0.361   3.620 -0.1905  0.3866 -0.3883
   16MOL0     C 2045   9.284   0.399   3.701  0.0189 -0.3306  0.0753
   16MOL0     C 2046   9.407   0.342   3.642 -0.1815  0.1551  0.3372
   16MOL0     C 2047   9.442   0.203   3.705 -0.7895 -1.1187 -0.0149
   16MOL0     C 2048   9.586   0.162   3.678 -0.5758 -0.1250  0.7062
   16MOL0     O 2049   9.681   0.264   3.721 -0.0465  1.6115 -0.2244
   16MOL0     C 2050   9.817   0.233   3.714 -0.3686  0.3977  0.6823
   16MOL0     C 2051   9.896   0.337   3.762  0.5000  0.1880 -0.5002
   16MOL0     C 2052  10.031   0.326   3.753 -0.4056  0.7877  0.3913
   16MOL0     C 2053  10.094   0.205   3.715 -0.2825 -0.6639 -0.7993
   16MOL0     C 2054  10.237   0.184   3.715 -0.7090  0.3964  0.1315
   16MOL0     O 2055  10.287   0.055   3.746  0.1913 -0.8766  0.0914
   16MOL0     C 2056  10.385  -0.002   3.664 -0.1402 -0.0276  0.5362
   16MOL0     C 2057  10.444  -0.129   3.695  0.7355 -0.0818 -0.4795
   16MOL0     C 2058  10.519  -0.204   3.608 -0.0647 -0.5481 -0.6817
   16MOL0     C 2059  10.555  -0.157   3.483 -0.3720 -0.3999  1.0280
   16MOL0     O 2060  10.645  -0.219   3.401 -0.3515  0.2962  0.4025
   16MOL0     C 2061  10.608  -0.247   3.264  0.3889 -0.4070  0.5986
   16MOL0     C 2062  10.500  -0.351   3.261  0.2355 -0.3940 -0.8412
   16MOL0     C 2063  10.561  -0.487   3.288 -0.4186  0.3448  0.5288
   16MOL0     C 2064  10.497  -0.566   3.401 -0.2529  0.1820  0.7657
   16MOL0     C 2065  10.402  -0.675   3.338  0.1729 -0.7824  0.9451
   16MOL0     C 2066  10.355  -0.786   3.429 -1.2108 -0.4131  0.0029
   16MOL0     C 2067  10.249  -0.881   3.352 -0.1835 -0.4355 -0.2369
   16MOL0     C 2068  10.200  -0.993   3.433 -0.4617  0.0595 -1.2417
   16MOL0    Cl 2069  10.123  -1.112   3.333  0.1736  0.3513  0.5513
   16MOL0     C 2070  10.502  -0.031   3.451 -0.3937  0.5362 -0.3194
   16MOL0     C 2071  10.423   0.047   3.539  0.3560  0.3353 -0.2998
   16MOL0     O 2072  10.309   0.281   3.710  0.1332 -0.0573 -0.2920
   16MOL0     C 2073  10.014   0.102   3.672 -1.0824 -0.1162  0.4885
   16MOL0     C 2074   9.874   0.119   3.669 -0.0239  0.1291 -0.2452
   16MOL0     N 2075   9.161   0.389   3.485  0.0601 -0.2201  0.1130
   16MOL0     N 2076   9.039   0.357   3.445  0.9878  0.3006 -0.1324
   16MOL0     C 2077   7.735   0.299   3.464 -0.6728 -0.5553  0.2058
   16MOL0     C 2078   7.615   0.234   3.451  0.1951  0.0795  0.2125
   16MOL0     C 2079   7.312  -0.046   3.642  0.3241 -0.1578 -0.9343
   16MOL0     C 2080   7.306  -0.173   3.581  0.2513 -0.4601  0.1194
   16MOL0     C 2081   7.196  -0.256   3.598  0.8627 -0.0295  0.6600
   16MOL0     C 2082   7.078  -0.202   3.666 -0.0301  1.3905 -0.0413
   16MOL0     O 2083   6.974  -0.295   3.654 -0.7255 -0.1234 -0.5303
   16MOL0     C 2084   6.846  -0.245   3.697 -0.4681  0.2516 -0.4444
   16MOL0     C 2085   6.742  -0.302   3.598  0.5652 -0.2445 -0.4207
   16MOL0     C 2086   6.593  -0.279   3.635  0.6567  0.0166 -0.0231
   16MOL0     C 2087   6.541  -0.131   3.648 -0.6986  0.2661 -0.4402
   16MOL0     C 2088   6.399  -0.129   3.675 -0.0957  0.5402 -0.0951
   16MOL0     C 2089   6.275  -0.130   3.691 -0.7900  0.2193  0.4149
   16MOL0     C 2090   7.074  -0.072   3.733 -0.8053  0.0978  0.8428
   16MOL0     C 2091   7.197  -0.001   3.720  0.7484 -0.0571  0.3900
   16MOL0     C 2092   7.188   0.137   3.787  0.7309 -0.0117  0.1031
   16MOL0     H 2093   7.716  -0.075   3.524  0.8918  0.3966  0.1955
   16MOL0     H 2094   7.930   0.052   3.556  1.1066  2.2805  2.6234
   16MOL0     H 2095   7.970   0.383   3.320 -1.3139 -1.0982  1.6382
   16MOL0     H 2096   7.998   0.490   3.459  0.9745 -0.2474  0.8900
   16MOL0     H 2097   8.199   0.428   3.317  0.9845 -1.7533 -1.7006
   16MOL0     H 2098   8.190   0.265   3.382  0.2345  0.6024 -3.5775
   16MOL0     H 2099   8.320   0.323   3.548  2.5623  1.1402 -0.6177
   16MOL0     H 2100   8.197   0.423   3.611  0.5000 -1.4064  0.2775
   16MOL0     H 2101   8.360   0.557   3.403 -2.0932 -0.7857 -1.2549
   16MOL0     H 2102   8.292   0.617   3.556  3.6560  1.1822  1.6758
   16MOL0     H 2103   8.540   0.609   3.570  0.9492 -0.7246  0.5030
   16MOL0     H 2104   8.469   0.489   3.678 -3.8521  1.0690  0.0941
   16MOL0     H 2105   8.537   0.314   3.525 -0.2631 -0.6692 -4.1060
   16MOL0     H 2106   8.584   0.435   3.398 -0.9659  0.9754  0.4121
   16MOL0     H 2107   8.701   0.434   3.673  0.9544  1.2522  0.2135
   16MOL0     H 2108   8.771   0.519   3.540 -1.4954  0.2240 -2.3035
   16MOL0     H 2109   8.775   0.219   3.595  2.4579 -0.8341  0.5832
   16MOL0     H 2110   8.785   0.275   3.437 -1.5287 -2.7603  0.8984
   16MOL0     H 2111   9.007   0.299   3.770  0.7146  0.5281  0.6078
   16MOL0     H 2112   9.295   0.508   3.698  0.8054 -0.4321 -1.6657
   16MOL0     H 2113   9.267   0.380   3.808 -1.0941  1.3163  0.2410
   16MOL0     H 2114   9.404   0.330   3.534 -1.2571 -1.1711  0.4770
   16MOL0     H 2115   9.492   0.406   3.666  0.8989 -1.2227  0.2589
   16MOL0     H 2116   9.389   0.119   3.658 -1.4272 -1.6642  1.5931
   16MOL0     H 2117   9.406   0.194   3.808 -3.2686  2.4595 -0.4101
   16MOL0     H 2118   9.600   0.145   3.571  0.0993 -3.6544  1.2096
   16MOL0     H 2119   9.604   0.074   3.741  0.3701 -0.4163  0.0542
   16MOL0     H 2120   9.845   0.424   3.804  0.9936  0.0755  0.3527
   16MOL0     H 2121  10.093   0.414   3.767  2.7020 -1.0337 -1.1223
   16MOL0     H 2122  10.414  -0.174   3.789  2.4938 -2.2853 -0.8944
   16MOL0     H 2123  10.564  -0.301   3.632  0.4944 -1.1037 -3.6307
   16MOL0     H 2124  10.575  -0.149   3.227 -0.9288  1.2217  5.2652
   16MOL0     H 2125  10.692  -0.286   3.206  0.7590  1.5374 -0.2593
   16MOL0     H 2126  10.421  -0.334   3.335  0.2065  2.1153 -1.3743
   16MOL0     H 2127  10.449  -0.345   3.164  0.4896  2.3903 -0.8657
   16MOL0     H 2128  10.573  -0.547   3.197 -1.3578 -3.0707  2.5006
   16MOL0     H 2129  10.666  -0.472   3.316 -0.6846 -2.1081  3.2317
   16MOL0     H 2130  10.441  -0.507   3.475  0.0833  0.4267  0.8276
   16MOL0     H 2131  10.579  -0.615   3.453 -0.7769 -3.4764 -1.5108
   16MOL0     H 2132  10.449  -0.724   3.253 -3.6137 -1.5649 -0.9292
   16MOL0     H 2133  10.315  -0.618   3.302 -0.2913 -1.9198  0.2384
   16MOL0     H 2134  10.446  -0.833   3.467 -0.3050  1.4067  0.2218
   16MOL0     H 2135  10.308  -0.736   3.514  0.1600  2.3030 -0.6884
   16MOL0     H 2136  10.304  -0.921   3.267  0.3733  0.4116 -0.2921
   16MOL0     H 2137  10.167  -0.826   3.306 -2.7753 -3.2700  0.7292
   16MOL0     H 2138  10.280  -1.032   3.498 -0.6344  1.8216  0.0801
   16MOL0     H 2139  10.126  -0.950   3.501 -1.7475 -1.3276 -1.7005
   16MOL0     H 2140  10.503  -0.005   3.345 -1.7770 -0.9591 -0.7301
   16MOL0     H 2141  10.382   0.134   3.488  0.7699 -0.6672 -2.4805
   16MOL0     H 2142  10.061   0.006   3.652 -1.4461 -0.4747  1.3118
   16MOL0     H 2143   9.814   0.034   3.638 -0.8561 -0.7601  3.3882
   16MOL0     H 2144   7.750   0.406   3.451  4.2468 -0.6255  2.6975
   16MOL0     H 2145   7.522   0.282   3.423 -0.6816 -1.7244 -0.1307
   16MOL0     H 2146   7.397  -0.207   3.532  0.1222  1.3057 -1.4636
   16MOL0     H 2147   7.178  -0.357   3.563 -2.2158 -0.3047  2.6627
   16MOL0     H 2148   6.845  -0.136   3.685 -3.7529  0.1532 -2.1411
   16MOL0     H 2149   6.835  -0.277   3.801  0.2006  2.5314  0.3963
   16MOL0     H 2150   6.755  -0.410   3.599 -0.1585 -0.4117  3.0725
   16MOL0     H 2151   6.754  -0.275   3.492 -1.9674  0.0873 -0.6657
   16MOL0     H 2152   6.578  -0.333   3.729 -0.1668 -2.0741 -1.3006
   16MOL0     H 2153   6.532  -0.329   3.561 -2.8438  0.1236  2.5377
   16MOL0     H 2154   6.586  -0.061   3.719 -0.7625  2.8225 -2.7153
   16MOL0     H 2155   6.570  -0.081   3.555  0.5230  1.7589  0.6825
   16MOL0     H 2156   6.170  -0.122   3.708 -0.6495 -0.6227  1.7902
   16MOL0     H 2157   6.991  -0.017   3.777  1.5229  3.0433  1.8982
   16MOL0     H 2158   7.140   0.138   3.885  5.0409  2.8819  2.5375
   16MOL0     H 2159   7.287   0.154   3.830  0.1269 -1.7153  2.3684
   16MOL0     H 2160   7.144   0.221   3.732  1.1095  0.3204  0.3035
   17MOL0     O 2161   8.969   2.615  11.022 -0.1126 -0.0107 -0.6563
   17MOL0     C 2162   9.014   2.503  11.052  0.5761  0.6154  1.2241
   17MOL0     O 2163   9.023   2.397  10.961 -0.2184  0.6132 -0.2105
   17MOL0     C 2164   9.010   2.420  10.826  0.4149 -0.2726 -0.1117
   17MOL0     C 2165   8.885   2.452  10.770  0.0555  0.0240 -0.1614
   17MOL0     C 2166   8.862   2.465  10.634  0.2354  0.1356 -0.5446
   17MOL0     C 2167   8.978   2.464  10.556 -0.6948 -0.3862 -0.5010
   17MOL0     O 2168   8.960   2.498  10.424 -1.1808 -0.1420 -0.1585
   17MOL0     C 2169   9.036   2.611  10.376 -0.5892 -0.3617 -0.8142
   17MOL0     C 2170   9.003   2.635  10.235 -0.2763 -0.0015 -1.7005
   17MOL0     C 2171   8.862   2.695  10.224  0.9068  0.0532 -0.4560
   17MOL0     C 2172   8.853   2.787  10.099  0.7627 -0.3227 -0.4370
   17MOL0     C 2173   8.887   2.723   9.963 -0.2606  0.5036 -1.5546
   17MOL0     C 2174   8.886   2.833   9.857  0.6507  0.1477 -0.1538
   17MOL0     C 2175   8.946   2.774   9.724  0.3989 -0.4221  0.2069
   17MOL0     C 2176   8.852   2.683   9.641  0.0395 -0.0275 -0.9413
   17MOL0     N 2177   8.725   2.752   9.600 -0.5530 -0.1702 -0.4381
   17MOL0     C 2178   8.627   2.750   9.691  0.6900  0.3039 -0.2615
   17MOL0     C 2179   8.521   2.800   9.624 -0.0826 -1.1709 -0.0751
   17MOL0     C 2180   8.380   2.801   9.678  0.8823  0.4720  0.5567
   17MOL0     C 2181   8.266   2.855   9.594 -0.1050  0.0339 -0.0962
   17MOL0     C 2182   8.140   2.852   9.683 -0.1171 -0.1116 -0.8500
   17MOL0     C 2183   8.011   2.898   9.609  0.4171 -0.4490 -0.0042
   17MOL0     O 2184   7.912   2.791   9.598 -0.8101  0.0329 -0.3781
   17MOL0     C 2185   7.781   2.823   9.568  0.5315 -1.4950  0.1231
   17MOL0     C 2186   7.717   2.942   9.591 -0.0957  0.0546 -0.4332
   17MOL0     C 2187   7.576   2.955   9.565  0.2306  0.0038  0.1922
   17MOL0     C 2188   7.506   2.842   9.514 -0.2833  0.3428 -0.0537
   17MOL0     C 2189   7.356   2.850   9.502 -1.1894 -0.3767  0.2463
   17MOL0     O 2190   7.304   2.750   9.428 -0.2002 -0.9973 -0.0171
   17MOL0     C 2191   7.170   2.758   9.420 -1.1326  0.5829  0.1458
   17MOL0     C 2192   7.098   2.692   9.520 -0.1236 -0.4857  0.1166
   17MOL0     C 2193   6.960   2.702   9.524  0.3387  0.2749 -0.8374
   17MOL0     C 2194   6.885   2.780   9.432 -1.8175  0.3988 -0.0484
   17MOL0     O 2195   6.752   2.796   9.439  0.1182 -0.7065  0.0517
   17MOL0     C 2196   6.680   2.709   9.530 -0.1599  0.2444 -0.7462
   17MOL0     C 2197   6.536   2.718   9.497  0.2712 -0.4283 -0.5737
   17MOL0     C 2198   6.451   2.623   9.576  1.0428 -0.4503 -0.0798
   17MOL0     C 2199   6.311   2.601   9.511 -0.8804  0.1893 -0.4512
   17MOL0     C 2200   6.238   2.491   9.592 -0.2509  0.4565 -0.2004
   17MOL0     C 2201   6.081   2.483   9.559 -0.3015 -0.8968 -0.5454
   17MOL0     C 2202   6.003   2.416   9.671 -0.3162 -0.4693  0.4761
   17MOL0     C 2203   5.985   2.473   9.812  0.1490 -0.7563  0.2573
   17MOL0    Cl 2204   5.884   2.614   9.803  0.7209 -0.0105  0.4445
   17MOL0     C 2205   6.963   2.853   9.332  0.2947  0.3729 -0.1344
   17MOL0     C 2206   7.104   2.839   9.325  0.2878  0.0117 -1.0202
   17MOL0     O 2207   7.298   2.938   9.563  0.1732  0.4420  0.1315
   17MOL0     C 2208   7.576   2.729   9.482 -0.3319  0.4684  0.1246
   17MOL0     C 2209   7.706   2.714   9.520 -0.5932  0.2861  0.2240
   17MOL0     N 2210   8.569   2.843   9.505  0.0623  0.5826  0.0893
   17MOL0     N 2211   8.697   2.816   9.487 -0.1834 -0.6733  0.1728
   17MOL0     C 2212   9.104   2.455  10.613  0.7879  0.1915  0.6355
   17MOL0     C 2213   9.123   2.425  10.745  0.5713  0.8727  0.2875
   17MOL0     C 2214   9.045   2.471  11.194 -0.3183 -0.2653  0.8131
   17MOL0     C 2215   9.043   2.334  11.231 -0.7281 -0.2109  0.1112
   17MOL0     C 2216   9.080   2.279  11.359 -0.0860  0.0637 -0.2793
   17MOL0     C 2217   9.119   2.374  11.451  0.2554 -0.9965  0.6931
   17MOL0     O 2218   9.149   2.337  11.576  0.4402 -0.4946  0.3939
   17MOL0     C 2219   9.225   2.417  11.664 -0.3407  0.6688 -0.4236
   17MOL0     C 2220   9.216   2.341  11.803 -0.0927 -0.0045  0.7415
   17MOL0     C 2221   9.294   2.421  11.914 -0.8288  0.8515  0.8160
   17MOL0     C 2222   9.210   2.513  12.005  0.4164 -0.7192  0.6938
   17MOL0     C 2223   9.174   2.636  11.938 -0.6794  0.4611 -0.9610
   17MOL0     C 2224   9.167   2.740  11.876 -0.3087 -0.3212 -1.0388
   17MOL0     C 2225   9.139   2.515  11.411 -0.1207 -0.2690 -0.4175
   17MOL0     C 2226   9.096   2.567  11.286  0.2836  0.6332  0.3223
   17MOL0     C 2227   9.140   2.711  11.241 -0.2015  0.6726 -0.1107
   17MOL0     H 2228   8.788   2.451  10.818  0.0170 -1.8713 -0.1913
   17MOL0     H 2229   8.762   2.473  10.591  0.2241  0.0706 -0.5339
   17MOL0     H 2230   9.020   2.701  10.436 -1.5132 -1.3135  0.4149
   17MOL0     H 2231   9.145   2.599  10.381 -0.4295  1.2499  0.5725
   17MOL0     H 2232   9.008   2.537  10.187  4.1678 -0.9923  0.2552
   17MOL0     H 2233   9.073   2.703  10.185 -2.3337  1.1098 -3.2153
   17MOL0     H 2234   8.833   2.758  10.309 -2.0146 -1.0470 -0.5304
   17MOL0     H 2235   8.787   2.617  10.237  0.7173  0.6426  2.8863
   17MOL0     H 2236   8.752   2.827  10.096  1.7641  2.9855  2.7380
   17MOL0     H 2237   8.922   2.869  10.122  0.9059 -1.1847  2.7738
   17MOL0     H 2238   8.987   2.679   9.974 -0.4571  0.6143  1.2257
   17MOL0     H 2239   8.808   2.648   9.949 -0.8616  0.5696  1.0907
   17MOL0     H 2240   8.786   2.876   9.846  0.8846  1.5034  2.2234
   17MOL0     H 2241   8.948   2.921   9.878  1.7235 -0.1154 -1.9838
   17MOL0     H 2242   9.036   2.714   9.744  0.3529 -1.3169 -2.0294
   17MOL0     H 2243   8.990   2.846   9.654 -2.0274  0.7251 -0.2406
   17MOL0     H 2244   8.909   2.649   9.555 -1.4676 -1.7557 -1.3236
   17MOL0     H 2245   8.821   2.598   9.703 -0.7681 -1.2675 -2.9357
   17MOL0     H 2246   8.630   2.705   9.790  1.2429 -1.0967 -0.8816
   17MOL0     H 2247   8.350   2.699   9.704  2.0823  0.6012  2.7763
   17MOL0     H 2248   8.387   2.871   9.762 -0.6668  0.8213  0.4242
   17MOL0     H 2249   8.291   2.959   9.571 -1.5598  0.5270  0.4036
   17MOL0     H 2250   8.249   2.792   9.506  2.0323 -2.3437  1.0495
   17MOL0     H 2251   8.151   2.916   9.771 -2.1027  0.2891 -0.8546
   17MOL0     H 2252   8.124   2.751   9.721 -1.0990  0.1358 -0.5731
   17MOL0     H 2253   8.050   2.947   9.520  1.3490 -0.4368  0.3981
   17MOL0     H 2254   7.958   2.979   9.659 -0.7440  2.0576 -4.7037
   17MOL0     H 2255   7.753   3.036   9.633 -2.1691  2.4674 -3.5900
   17MOL0     H 2256   7.529   3.044   9.606  1.0368 -0.1522  1.4952
   17MOL0     H 2257   7.147   2.627   9.591 -0.2974 -2.3730 -1.3849
   17MOL0     H 2258   6.919   2.639   9.602  2.6883  0.9256  1.0360
   17MOL0     H 2259   6.715   2.610   9.501  0.8345 -0.0942  1.4061
   17MOL0     H 2260   6.701   2.736   9.634  0.3161 -0.4105 -0.6668
   17MOL0     H 2261   6.495   2.818   9.515 -2.8370 -1.7661  0.4191
   17MOL0     H 2262   6.523   2.691   9.392  0.3521 -1.5905 -0.2904
   17MOL0     H 2263   6.498   2.526   9.594 -2.7499 -2.1986  1.3518
   17MOL0     H 2264   6.434   2.657   9.679  2.6940  0.9599 -0.2196
   17MOL0     H 2265   6.317   2.563   9.409 -0.3874 -2.3292  0.4251
   17MOL0     H 2266   6.252   2.692   9.515 -1.6226 -0.3026 -0.0167
   17MOL0     H 2267   6.246   2.520   9.697 -0.6892  0.5599 -0.1922
   17MOL0     H 2268   6.290   2.396   9.580 -1.3405 -0.0336 -1.2457
   17MOL0     H 2269   6.050   2.587   9.544  2.1188  0.2047  1.4088
   17MOL0     H 2270   6.075   2.419   9.470  2.0449 -2.3133  0.2024
   17MOL0     H 2271   6.054   2.323   9.698  3.3748  1.2202  0.0477
   17MOL0     H 2272   5.902   2.395   9.637 -0.5658  0.1879  0.7922
   17MOL0     H 2273   5.943   2.390   9.870  1.3317 -0.3689  1.7181
   17MOL0     H 2274   6.082   2.502   9.851 -0.7273  0.3132  1.7435
   17MOL0     H 2275   6.918   2.922   9.262  0.3147  0.2503 -0.2681
   17MOL0     H 2276   7.178   2.900   9.274  1.5614 -0.5703  0.0794
   17MOL0     H 2277   7.525   2.644   9.438 -1.9223  1.4514 -0.0136
   17MOL0     H 2278   7.755   2.619   9.502 -2.0208 -0.1416 -1.6834
   17MOL0     H 2279   9.183   2.465  10.540 -0.3485 -1.1918 -0.8660
   17MOL0     H 2280   9.214   2.406  10.802 -0.4419 -0.6173  1.4965
   17MOL0     H 2281   9.026   2.265  11.149  1.4312  1.9823 -2.3979
   17MOL0     H 2282   9.085   2.173  11.382  3.6685  0.3181  0.6180
   17MOL0     H 2283   9.187   2.518  11.681 -2.8920 -0.5138  1.6046
   17MOL0     H 2284   9.328   2.425  11.627 -0.2607 -0.3136 -0.4505
   17MOL0     H 2285   9.274   2.249  11.797  0.4231  0.4163 -2.5703
   17MOL0     H 2286   9.109   2.323  11.820 -0.1831 -0.3111 -0.1004
   17MOL0     H 2287   9.383   2.469  11.872 -0.7431  0.3014  0.3627
   17MOL0     H 2288   9.330   2.338  11.976  0.2467 -1.6114 -2.7927
   17MOL0     H 2289   9.111   2.474  12.032 -0.6906  0.7510 -0.9835
   17MOL0     H 2290   9.258   2.525  12.103  1.9115  1.6577 -0.2313
   17MOL0     H 2291   9.170   2.837  11.830  1.2277  0.4886  0.6477
   17MOL0     H 2292   9.187   2.583  11.481 -1.0185  3.2821 -3.0093
   17MOL0     H 2293   9.209   2.714  11.157 -1.9824  0.7635 -1.6283
   17MOL0     H 2294   9.050   2.773  11.233 -2.0635 -1.1479  3.8375
   17MOL0     H 2295   9.204   2.759  11.316  1.9717 -0.4163 -1.1894
   18MOL0     O 2296  10.187   5.216   7.806 -0.2574  0.4797  0.4722
   18MOL0     C 2297  10.214   5.263   7.701 -1.3495  0.1520  0.1263
   18MOL0     O 2298  10.136   5.244   7.592  0.1624  0.2794  0.9132
   18MOL0     C 2299  10.024   5.163   7.604 -0.1828 -0.8634  0.2990
   18MOL0     C 2300  10.036   5.030   7.562  0.2362  0.3559  0.0970
   18MOL0     C 2301   9.913   4.947   7.555 -0.1715 -0.2264  0.9678
   18MOL0     C 2302   9.794   5.003   7.578  0.5707 -0.4168  0.7032
   18MOL0     O 2303   9.676   4.930   7.562  0.4339  0.6497 -0.6249
   18MOL0     C 2304   9.592   4.974   7.454 -0.7637  0.1418  0.0105
   18MOL0     C 2305   9.560   4.845   7.379  0.0336  0.6061  0.2803
   18MOL0     C 2306   9.458   4.884   7.265  0.3279  1.8278 -0.1979
   18MOL0     C 2307   9.423   4.761   7.186 -0.3095 -0.6394  0.0808
   18MOL0     C 2308   9.344   4.802   7.067 -0.6605  0.0992  0.3046
   18MOL0     C 2309   9.298   4.671   7.008  0.7582  0.0523 -0.6209
   18MOL0     C 2310   9.238   4.667   6.866  0.1913  0.6824 -0.0989
   18MOL0     C 2311   9.344   4.694   6.758 -0.0177  0.1681  0.4549
   18MOL0     N 2312   9.453   4.593   6.754 -0.0790  1.1015 -0.4393
   18MOL0     C 2313   9.571   4.633   6.805 -0.3768  0.4186  0.0870
   18MOL0     C 2314   9.640   4.507   6.798  0.3103 -0.6983  0.0409
   18MOL0     C 2315   9.779   4.494   6.847  0.0211 -0.1027 -0.2757
   18MOL0     C 2316   9.885   4.513   6.739  0.4314 -0.1734 -0.4194
   18MOL0     C 2317  10.023   4.482   6.795  0.5290  0.1941  0.5420
   18MOL0     C 2318  10.146   4.498   6.704  0.8666 -0.8237 -0.1516
   18MOL0     O 2319  10.265   4.476   6.782  0.0408  0.4739  0.6309
   18MOL0     C 2320  10.368   4.558   6.740 -0.4401  0.5373  0.1544
   18MOL0     C 2321  10.458   4.512   6.640  0.6412 -0.4780  0.1034
   18MOL0     C 2322  10.569   4.590   6.611  0.0692 -0.3562 -0.5482
   18MOL0     C 2323  10.597   4.721   6.671  0.4148 -0.0022  0.1785
   18MOL0     C 2324  10.716   4.795   6.622 -0.0436 -0.0126  0.9681
   18MOL0     O 2325  10.790   4.727   6.540 -0.1939  0.2374  0.2863
   18MOL0     C 2326  10.921   4.764   6.501  0.2698  0.6291  0.2365
   18MOL0     C 2327  10.994   4.873   6.534  0.1858 -0.3004  0.2993
   18MOL0     C 2328  11.134   4.884   6.530  0.4749 -0.6207 -0.1776
   18MOL0     C 2329  11.202   4.765   6.496 -0.0355 -0.9761  0.4781
   18MOL0     O 2330  11.338   4.757   6.476 -0.4001 -0.2011  0.8815
   18MOL0     C 2331  11.410   4.743   6.604 -0.1563  0.1324 -0.0075
   18MOL0     C 2332  11.552   4.806   6.598 -0.4409  0.6495 -0.9786
   18MOL0     C 2333  11.656   4.740   6.703  1.4166 -0.0455  0.7341
   18MOL0     C 2334  11.797   4.785   6.695 -0.4587 -0.5786 -0.1995
   18MOL0     C 2335  11.861   4.744   6.564  0.3386 -0.9243 -0.5112
   18MOL0     C 2336  12.007   4.796   6.565  0.7500 -0.0295  0.2481
   18MOL0     C 2337  12.087   4.723   6.459  0.0002 -0.3147 -0.3952
   18MOL0     C 2338  12.236   4.709   6.502 -0.0112  0.7679  0.0034
   18MOL0    Cl 2339  12.287   4.874   6.545  0.0863  0.2456  0.1487
   18MOL0     C 2340  11.133   4.655   6.448 -0.3427  0.8195  0.5053
   18MOL0     C 2341  10.994   4.654   6.455  0.4066  0.7752 -0.3115
   18MOL0     O 2342  10.739   4.903   6.668 -0.1879  0.0425 -0.3769
   18MOL0     C 2343  10.509   4.759   6.777  0.4851 -0.3058 -0.5547
   18MOL0     C 2344  10.392   4.685   6.804  0.5691 -0.4092 -0.1962
   18MOL0     N 2345   9.553   4.412   6.760  0.1009 -0.1166 -0.5183
   18MOL0     N 2346   9.444   4.467   6.722  0.3602  1.0891  0.3915
   18MOL0     C 2347   9.788   5.134   7.621 -0.2902 -0.0942 -1.2215
   18MOL0     C 2348   9.900   5.216   7.637  0.2992 -0.2235 -0.0492
   18MOL0     C 2349  10.356   5.321   7.669  0.0239  0.6741 -0.2372
   18MOL0     C 2350  10.426   5.364   7.781 -0.8194 -0.9906 -0.7810
   18MOL0     C 2351  10.557   5.407   7.773 -0.5464 -0.0116 -0.0310
   18MOL0     C 2352  10.612   5.421   7.647 -0.3508  0.6690 -0.5102
   18MOL0     O 2353  10.745   5.449   7.639  0.6712  0.6167 -0.0469
   18MOL0     C 2354  10.792   5.573   7.582  0.2742  0.3977 -0.4588
   18MOL0     C 2355  10.850   5.657   7.691  0.4486  0.2801 -0.2663
   18MOL0     C 2356  10.926   5.775   7.622  0.4873  0.7498 -0.1582
   18MOL0     C 2357  10.943   5.898   7.716  0.3826  0.0414 -0.3074
   18MOL0     C 2358  11.007   6.012   7.653 -0.8230 -0.2512  0.4780
   18MOL0     C 2359  11.070   6.097   7.598  0.1288 -0.0569 -0.1714
   18MOL0     C 2360  10.542   5.386   7.535  0.3275 -0.6716  0.5585
   18MOL0     C 2361  10.413   5.329   7.541 -0.5159  0.4849 -0.3243
   18MOL0     C 2362  10.353   5.295   7.410 -0.2993  0.1488  0.2671
   18MOL0     H 2363  10.132   4.985   7.538  0.0834  0.6902 -1.2190
   18MOL0     H 2364   9.923   4.841   7.533 -0.2059  0.4425 -2.9980
   18MOL0     H 2365   9.495   5.015   7.483 -0.2078 -0.7314  3.5211
   18MOL0     H 2366   9.650   5.049   7.399  3.3777 -0.1467  3.4877
   18MOL0     H 2367   9.512   4.772   7.445 -1.6217  1.0485 -0.3861
   18MOL0     H 2368   9.647   4.795   7.336 -1.9654 -3.8524  0.7560
   18MOL0     H 2369   9.506   4.961   7.205 -0.0129  1.0142 -1.5539
   18MOL0     H 2370   9.370   4.934   7.308  1.0056  3.5132 -0.6935
   18MOL0     H 2371   9.520   4.718   7.158 -0.8626 -1.0657 -1.2129
   18MOL0     H 2372   9.359   4.693   7.245 -3.0367  1.4113 -0.3377
   18MOL0     H 2373   9.250   4.848   7.097 -0.7683  1.3119 -1.6814
   18MOL0     H 2374   9.392   4.872   6.998  1.5495  0.1496  1.7813
   18MOL0     H 2375   9.379   4.598   7.014 -0.2418 -1.0490 -0.1605
   18MOL0     H 2376   9.214   4.632   7.066 -1.0501  0.0209 -3.1343
   18MOL0     H 2377   9.167   4.750   6.857 -0.9682 -0.2204  0.4547
   18MOL0     H 2378   9.185   4.573   6.850  0.8459 -0.3211  2.9266
   18MOL0     H 2379   9.299   4.702   6.658 -1.8973 -2.7675  0.9397
   18MOL0     H 2380   9.386   4.793   6.778  2.1474  0.0182 -2.5908
   18MOL0     H 2381   9.613   4.729   6.833  3.8669 -0.6107 -1.9152
   18MOL0     H 2382   9.795   4.581   6.911 -0.7345  0.8729 -1.3662
   18MOL0     H 2383   9.789   4.395   6.894  0.6175  1.1348  2.3566
   18MOL0     H 2384   9.856   4.462   6.646  4.3763  0.7021 -2.3561
   18MOL0     H 2385   9.898   4.619   6.715 -0.6987  0.3554  1.1533
   18MOL0     H 2386  10.022   4.378   6.829  4.0043  0.2848  1.2880
   18MOL0     H 2387  10.034   4.545   6.884 -0.7062  0.2284  0.6946
   18MOL0     H 2388  10.142   4.593   6.649  2.2717  0.2085  1.3917
   18MOL0     H 2389  10.141   4.424   6.625 -0.3425  0.6555 -1.5196
   18MOL0     H 2390  10.444   4.412   6.599 -0.1043  0.5604 -2.3902
   18MOL0     H 2391  10.636   4.543   6.540 -1.5373 -1.3056 -1.5042
   18MOL0     H 2392  10.947   4.963   6.574 -1.7480 -1.1274  0.0047
   18MOL0     H 2393  11.180   4.980   6.550  0.6288 -0.7581  0.1283
   18MOL0     H 2394  11.356   4.799   6.681 -1.3065 -1.8139  0.6793
   18MOL0     H 2395  11.425   4.637   6.627  2.3981 -0.2357 -2.8138
   18MOL0     H 2396  11.591   4.795   6.496 -0.4843  1.2694 -1.0690
   18MOL0     H 2397  11.539   4.915   6.604 -1.1675  0.5643 -0.9150
   18MOL0     H 2398  11.608   4.748   6.801  0.9403 -0.0107  0.5000
   18MOL0     H 2399  11.658   4.635   6.673  0.3717 -0.0372  0.5993
   18MOL0     H 2400  11.857   4.747   6.778 -1.0154  0.5592  0.7479
   18MOL0     H 2401  11.798   4.894   6.703  0.5705 -0.6728  1.3501
   18MOL0     H 2402  11.810   4.779   6.474  1.6208  4.1421  0.4535
   18MOL0     H 2403  11.861   4.634   6.563 -2.6427 -1.0227 -2.7993
   18MOL0     H 2404  12.021   4.902   6.539 -0.4052  0.0041 -0.2801
   18MOL0     H 2405  12.057   4.773   6.660 -0.0161 -0.1836  0.6190
   18MOL0     H 2406  12.080   4.776   6.363  1.3128  0.3159 -0.1596
   18MOL0     H 2407  12.045   4.623   6.445 -0.5070 -0.2244  0.4445
   18MOL0     H 2408  12.237   4.639   6.586  3.1328  0.0817 -0.4855
   18MOL0     H 2409  12.304   4.663   6.430  1.9178 -0.4373  2.4610
   18MOL0     H 2410  11.183   4.566   6.413 -0.6541  1.3258 -1.2915
   18MOL0     H 2411  10.949   4.558   6.429  1.2595  0.2835 -0.0225
   18MOL0     H 2412  10.523   4.855   6.826 -0.0473  0.6427 -2.1904
   18MOL0     H 2413  10.310   4.717   6.866 -0.3928 -1.6144 -0.8005
   18MOL0     H 2414   9.689   5.169   7.648  0.6328  2.8915 -1.3048
   18MOL0     H 2415   9.898   5.320   7.669  2.0631 -0.9504  2.7496
   18MOL0     H 2416  10.393   5.354   7.884 -0.8059 -3.2495 -0.9302
   18MOL0     H 2417  10.609   5.431   7.866  1.7951 -1.9672 -0.7166
   18MOL0     H 2418  10.705   5.616   7.532  0.2440 -1.4019 -2.0509
   18MOL0     H 2419  10.866   5.553   7.504  0.0227 -2.7588 -0.0195
   18MOL0     H 2420  10.921   5.598   7.750  0.3316  1.1459  0.7860
   18MOL0     H 2421  10.784   5.697   7.768  2.9555  1.1515  1.5862
   18MOL0     H 2422  10.879   5.809   7.530 -2.5735  0.1433  1.0458
   18MOL0     H 2423  11.028   5.747   7.594 -0.9666 -0.4076 -5.3538
   18MOL0     H 2424  10.845   5.926   7.757  1.3300  0.5117  1.7335
   18MOL0     H 2425  11.007   5.863   7.798 -1.9198 -1.4283  0.9815
   18MOL0     H 2426  11.104   6.175   7.532 -4.0638  1.7111 -0.5723
   18MOL0     H 2427  10.601   5.400   7.445  1.7922 -1.2473  1.3815
   18MOL0     H 2428  10.414   5.308   7.320 -1.0334  2.3012  0.0363
   18MOL0     H 2429  10.318   5.193   7.392  0.6832  0.0766 -1.4325
   18MOL0     H 2430  10.263   5.355   7.394 -0.6849 -0.5648 -0.3106
   19MOL0     O 2431  10.944   9.595   4.376 -0.2385  0.3298 -0.8028
   19MOL0     C 2432  11.039   9.640   4.439 -0.2690  0.1011 -0.2457
   19MOL0     O 2433  11.080   9.592   4.565  0.1034 -0.1706 -0.5565
   19MOL0     C 2434  10.995   9.497   4.617 -0.3471  0.5054  0.6228
   19MOL0     C 2435  11.043   9.368   4.594 -0.0269 -0.9457  0.2966
   19MOL0     C 2436  10.966   9.258   4.633  0.2738 -0.2071  0.0148
   19MOL0     C 2437  10.845   9.289   4.704  0.1811 -0.2303 -0.0715
   19MOL0     O 2438  10.760   9.196   4.757  0.5421  0.2631 -0.0886
   19MOL0     C 2439  10.771   9.066   4.711  0.2945  0.2504  0.4789
   19MOL0     C 2440  10.683   8.994   4.817 -0.3471 -0.3739  0.8744
   19MOL0     C 2441  10.750   8.878   4.879  0.1081 -0.9120  0.2490
   19MOL0     C 2442  10.783   8.755   4.796  0.3340  0.4481 -0.0507
   19MOL0     C 2443  10.863   8.651   4.865  0.5011  0.5491  0.3286
   19MOL0     C 2444  10.798   8.594   4.989  0.1875  0.1197  0.2815
   19MOL0     C 2445  10.912   8.513   5.068  0.7721  0.0128  0.0368
   19MOL0     C 2446  10.931   8.373   4.989  0.1447  0.0887  0.4412
   19MOL0     N 2447  10.838   8.268   5.025 -0.2110 -1.1086 -0.7943
   19MOL0     C 2448  10.833   8.208   5.148  0.6390  0.3366  0.3987
   19MOL0     C 2449  10.739   8.114   5.149  0.2381 -0.1950  0.5148
   19MOL0     C 2450  10.696   8.030   5.261 -0.0806  0.0266 -0.1457
   19MOL0     C 2451  10.598   8.106   5.356 -0.2381 -0.0000 -0.2293
   19MOL0     C 2452  10.540   8.019   5.469  0.1698  0.2282 -0.7156
   19MOL0     C 2453  10.647   7.921   5.523 -0.6289 -0.9934 -0.1012
   19MOL0     O 2454  10.640   7.802   5.445  0.0448 -0.3655  0.3778
   19MOL0     C 2455  10.631   7.682   5.524  0.9408 -0.7676 -0.2864
   19MOL0     C 2456  10.546   7.575   5.481 -0.2024 -0.1409  1.0993
   19MOL0     C 2457  10.543   7.447   5.537  0.3218  0.4882  0.7522
   19MOL0     C 2458  10.613   7.417   5.650  0.2817 -0.1624 -0.3610
   19MOL0     C 2459  10.617   7.282   5.728  0.2898  0.1276  0.7543
   19MOL0     O 2460  10.546   7.189   5.662  0.4426 -0.2692  0.4052
   19MOL0     C 2461  10.530   7.058   5.706  0.7924  0.7891  0.1349
   19MOL0     C 2462  10.472   7.041   5.829 -0.3551  0.6736  0.4780
   19MOL0     C 2463  10.446   6.910   5.868  0.4421  0.9919 -0.0212
   19MOL0     C 2464  10.473   6.796   5.785 -0.0294 -0.3886 -0.6218
   19MOL0     O 2465  10.453   6.681   5.854 -0.7510 -0.3865 -0.4986
   19MOL0     C 2466  10.495   6.560   5.789  0.0290  0.3412 -0.6949
   19MOL0     C 2467  10.534   6.460   5.900  0.3179  0.0249  0.1632
   19MOL0     C 2468  10.634   6.521   6.001  0.7997 -0.3706  1.5233
   19MOL0     C 2469  10.653   6.423   6.116 -0.7085 -0.2867  0.7531
   19MOL0     C 2470  10.785   6.460   6.177 -0.5352  0.0428 -0.4497
   19MOL0     C 2471  10.812   6.363   6.295 -0.5361 -0.1544 -0.3343
   19MOL0     C 2472  10.916   6.414   6.394 -0.2949 -0.0684  0.0513
   19MOL0     C 2473  11.052   6.453   6.333  0.6513  0.8107  0.1975
   19MOL0    Cl 2474  11.112   6.311   6.227 -0.2382  0.1788 -0.3551
   19MOL0     C 2475  10.522   6.815   5.650  0.1182 -0.1597 -0.5570
   19MOL0     C 2476  10.563   6.950   5.618  0.8456  0.2816  0.0289
   19MOL0     O 2477  10.685   7.254   5.822 -0.1292 -0.4507 -0.1105
   19MOL0     C 2478  10.705   7.512   5.697  0.6579 -0.3575 -0.8499
   19MOL0     C 2479  10.715   7.643   5.636  0.0207 -0.2045  0.2349
   19MOL0     N 2480  10.680   8.125   5.019  1.2291  0.9364  0.0391
   19MOL0     N 2481  10.732   8.221   4.950 -0.2770  0.2446  0.2044
   19MOL0     C 2482  10.804   9.415   4.721 -0.3909  0.2342 -0.0088
   19MOL0     C 2483  10.871   9.521   4.673  0.5326 -0.9277 -0.6803
   19MOL0     C 2484  11.124   9.736   4.369 -0.3307 -0.7698 -0.2157
   19MOL0     C 2485  11.229   9.677   4.296  0.1056  0.4152  0.8023
   19MOL0     C 2486  11.317   9.763   4.224  0.1965  0.4316  0.5068
   19MOL0     C 2487  11.299   9.903   4.235 -0.2583  0.2851 -0.6792
   19MOL0     O 2488  11.398   9.975   4.185 -0.8370 -0.4371 -0.1510
   19MOL0     C 2489  11.396  10.115   4.175 -0.5209  0.7151  0.1962
   19MOL0     C 2490  11.331  10.168   4.049 -0.0696  0.8133  0.4244
   19MOL0     C 2491  11.181  10.147   4.039  0.4110 -0.3749 -0.3492
   19MOL0     C 2492  11.126  10.195   3.906  1.0418 -0.6631 -0.3609
   19MOL0     C 2493  10.987  10.146   3.899  0.0824  0.2859  0.1542
   19MOL0     C 2494  10.865  10.117   3.906  0.4805 -0.7145 -0.6117
   19MOL0     C 2495  11.186   9.957   4.304 -0.7434  0.4724 -0.1191
   19MOL0     C 2496  11.102   9.875   4.382  0.1899  0.2546  1.0005
   19MOL0     C 2497  10.990   9.949   4.455  0.2983 -0.9876  0.3418
   19MOL0     H 2498  11.122   9.361   4.520 -0.0147  1.1381  0.0460
   19MOL0     H 2499  10.986   9.154   4.611  0.6759 -0.0913 -0.1716
   19MOL0     H 2500  10.737   9.049   4.608  1.7469 -0.5878  0.1120
   19MOL0     H 2501  10.872   9.025   4.718  0.5390  0.4021 -1.5750
   19MOL0     H 2502  10.582   8.974   4.779 -0.4122  2.7254 -0.9608
   19MOL0     H 2503  10.659   9.058   4.903 -2.3671 -4.1225  3.4151
   19MOL0     H 2504  10.684   8.868   4.966  2.0337  2.3955  2.2933
   19MOL0     H 2505  10.841   8.918   4.925  0.0981  0.3626 -0.7965
   19MOL0     H 2506  10.685   8.715   4.768  0.1558 -1.3313  2.6728
   19MOL0     H 2507  10.837   8.772   4.703 -1.5009 -2.4204 -1.8054
   19MOL0     H 2508  10.867   8.564   4.798  1.7684 -2.3090  3.8092
   19MOL0     H 2509  10.966   8.681   4.886 -0.0433  0.5737  3.2595
   19MOL0     H 2510  10.749   8.675   5.044 -3.3361 -0.6580 -1.3860
   19MOL0     H 2511  10.713   8.530   4.961 -0.2556  1.4383 -1.5667
   19MOL0     H 2512  10.883   8.485   5.170  2.3086  2.1527  1.1270
   19MOL0     H 2513  11.006   8.564   5.086  1.8523 -2.8375  3.7228
   19MOL0     H 2514  10.909   8.396   4.884 -1.7476  3.3572  1.3980
   19MOL0     H 2515  11.033   8.334   5.000  0.6098  1.1477  0.0497
   19MOL0     H 2516  10.891   8.233   5.236 -2.4764 -1.4216  3.1638
   19MOL0     H 2517  10.635   7.947   5.224 -1.6665  1.2488 -0.3628
   19MOL0     H 2518  10.792   7.999   5.304  1.1083  1.6076 -1.5136
   19MOL0     H 2519  10.642   8.196   5.401  1.4100  0.0685 -1.9110
   19MOL0     H 2520  10.520   8.148   5.292 -0.7152 -1.0223 -0.3350
   19MOL0     H 2521  10.452   7.970   5.428 -0.3700  0.4731  0.1290
   19MOL0     H 2522  10.505   8.080   5.553 -0.2564 -0.0434 -0.6948
   19MOL0     H 2523  10.622   7.900   5.628  1.5108  0.1203  0.6861
   19MOL0     H 2524  10.744   7.973   5.521  0.1205 -2.3335 -0.2195
   19MOL0     H 2525  10.489   7.571   5.389  1.5879 -0.0303 -0.0691
   19MOL0     H 2526  10.497   7.363   5.487 -1.0485  1.3121  0.5711
   19MOL0     H 2527  10.444   7.129   5.884  1.1044  1.9598 -0.7502
   19MOL0     H 2528  10.409   6.883   5.966  1.6082 -0.6880 -0.0050
   19MOL0     H 2529  10.410   6.518   5.734 -0.4841 -0.3850  0.6081
   19MOL0     H 2530  10.572   6.571   5.712  0.5167  2.0768 -0.0077
   19MOL0     H 2531  10.451   6.427   5.964 -0.8208 -0.2279 -1.3939
   19MOL0     H 2532  10.589   6.378   5.855 -0.0447  0.0282 -0.2927
   19MOL0     H 2533  10.730   6.547   5.956  0.2049 -2.1019 -0.9074
   19MOL0     H 2534  10.598   6.614   6.047 -1.4827 -0.6223  0.3843
   19MOL0     H 2535  10.655   6.320   6.077 -1.6816 -0.1782  0.3912
   19MOL0     H 2536  10.572   6.435   6.188  0.3591  0.7422  1.8204
   19MOL0     H 2537  10.771   6.563   6.211 -3.1891 -0.9550  1.8811
   19MOL0     H 2538  10.868   6.439   6.109  1.8341  4.1796  0.8528
   19MOL0     H 2539  10.715   6.353   6.344 -0.7658  1.1667 -0.4802
   19MOL0     H 2540  10.853   6.267   6.262  2.3392  0.5386  0.9253
   19MOL0     H 2541  10.950   6.332   6.457 -1.6550 -1.4472 -0.9553
   19MOL0     H 2542  10.884   6.500   6.455  0.0035  0.9290 -1.1483
   19MOL0     H 2543  11.051   6.549   6.280  4.6173  0.8367 -0.1593
   19MOL0     H 2544  11.128   6.466   6.410  1.7115  1.0499 -0.8555
   19MOL0     H 2545  10.555   6.736   5.583 -0.6052  0.2093 -1.3762
   19MOL0     H 2546  10.610   6.958   5.521  2.4107 -2.1608  0.4981
   19MOL0     H 2547  10.777   7.490   5.776  1.0154  0.5082 -0.9220
   19MOL0     H 2548  10.785   7.722   5.663  1.1360  0.4989 -3.9517
   19MOL0     H 2549  10.709   9.443   4.765 -0.0376  3.2272 -0.9146
   19MOL0     H 2550  10.838   9.620   4.704  1.6468 -0.5450 -0.6939
   19MOL0     H 2551  11.254   9.572   4.294  0.7483  0.5739 -1.5701
   19MOL0     H 2552  11.413   9.726   4.188 -0.3451 -2.0510  1.4270
   19MOL0     H 2553  11.500  10.148   4.187  0.3512 -1.8980  0.5216
   19MOL0     H 2554  11.346  10.159   4.261 -1.8312  0.6186 -0.4931
   19MOL0     H 2555  11.384  10.115   3.969 -0.6241 -0.4575  0.8669
   19MOL0     H 2556  11.353  10.275   4.051  0.9887  0.5946  2.5049
   19MOL0     H 2557  11.124  10.188   4.123  0.6273 -0.7269 -0.0252
   19MOL0     H 2558  11.153  10.041   4.041 -1.7623  0.1349  2.0811
   19MOL0     H 2559  11.134  10.304   3.898  0.1143 -0.3507  2.1047
   19MOL0     H 2560  11.171  10.140   3.823  1.7239 -2.0140  0.8595
   19MOL0     H 2561  10.775  10.069   3.937 -0.0967  1.0734  0.6291
   19MOL0     H 2562  11.171  10.063   4.322  0.4339  0.2009  3.3008
   19MOL0     H 2563  10.913   9.973   4.382 -0.6672 -3.7429  0.3038
   19MOL0     H 2564  10.940   9.893   4.535 -0.0424  0.8738  1.4955
   19MOL0     H 2565  11.025  10.039   4.506  0.8940 -1.1504  0.2356
   20MOL0     O 2566   9.825   2.120   2.610 -0.2538  0.0185  0.7105
   20MOL0     C 2567   9.754   2.018   2.618 -0.3168  0.9090 -0.4807
   20MOL0     O 2568   9.744   1.916   2.528  0.5215 -0.2717  0.9628
   20MOL0     C 2569   9.817   1.931   2.410 -0.1502  0.1897 -0.0070
   20MOL0     C 2570   9.955   1.925   2.402  0.2865  0.0053 -1.3036
   20MOL0     C 2571  10.017   1.946   2.285  0.3529  0.0172 -0.0666
   20MOL0     C 2572   9.941   1.968   2.166 -0.3191 -0.7007 -0.3829
   20MOL0     O 2573   9.995   2.016   2.048  0.1500 -0.0343  1.0955
   20MOL0     C 2574  10.111   2.104   2.055  0.5165  0.1620 -0.3738
   20MOL0     C 2575  10.076   2.225   2.146  0.3310 -0.0921 -0.8576
   20MOL0     C 2576  10.195   2.318   2.156  0.4376 -0.0209  0.5653
   20MOL0     C 2577  10.268   2.290   2.285  0.2102  0.0000 -0.2878
   20MOL0     C 2578  10.406   2.365   2.294  0.3402  1.2563 -0.5515
   20MOL0     C 2579  10.404   2.515   2.274 -0.7851  0.3781  0.2533
   20MOL0     C 2580  10.546   2.577   2.259  0.3105 -0.7140 -0.0109
   20MOL0     C 2581  10.620   2.602   2.388  0.2030 -0.0152 -0.6875
   20MOL0     N 2582  10.742   2.671   2.362  0.4101 -0.3126  0.1294
   20MOL0     C 2583  10.754   2.795   2.320 -0.1007 -0.5399  0.6427
   20MOL0     C 2584  10.887   2.820   2.292  0.1806  0.3176 -0.0485
   20MOL0     C 2585  10.951   2.942   2.233  0.7003  0.3149 -0.2211
   20MOL0     C 2586  10.872   3.066   2.277  0.2278 -0.3643 -0.6795
   20MOL0     C 2587  10.903   3.095   2.424  0.1135 -0.5380  0.3561
   20MOL0     C 2588  10.847   3.223   2.472 -0.1391  0.2322 -0.3492
   20MOL0     O 2589  10.907   3.278   2.588  0.8762 -0.3491 -1.0947
   20MOL0     C 2590  11.024   3.342   2.574 -0.4066 -0.5515  1.0388
   20MOL0     C 2591  11.117   3.360   2.683 -0.3501  0.7969  0.2208
   20MOL0     C 2592  11.237   3.434   2.670 -0.2607  0.1219 -0.3020
   20MOL0     C 2593  11.267   3.508   2.552 -0.1289  0.3481  0.1418
   20MOL0     C 2594  11.393   3.585   2.536 -0.4114  0.2118  1.1465
   20MOL0     O 2595  11.482   3.574   2.639  0.1567  0.3732  0.2984
   20MOL0     C 2596  11.609   3.617   2.642  0.0371  0.8313  1.2579
   20MOL0     C 2597  11.672   3.614   2.761 -0.7165 -1.4146 -0.5565
   20MOL0     C 2598  11.802   3.663   2.771 -0.6100  0.3344  0.0055
   20MOL0     C 2599  11.890   3.689   2.659  0.6706  0.3040 -0.0226
   20MOL0     O 2600  12.021   3.734   2.686  0.5976 -0.1946  0.1292
   20MOL0     C 2601  12.124   3.673   2.614 -0.1789 -0.3305 -0.5220
   20MOL0     C 2602  12.231   3.635   2.704 -0.3436 -0.0074 -0.1674
   20MOL0     C 2603  12.345   3.561   2.636 -0.0475  0.1159  0.0455
   20MOL0     C 2604  12.448   3.657   2.581  0.5980  0.3668 -0.5063
   20MOL0     C 2605  12.557   3.589   2.494  0.1574 -0.0405 -0.3582
   20MOL0     C 2606  12.631   3.692   2.409  0.0248 -0.1208 -0.7674
   20MOL0     C 2607  12.744   3.634   2.340  0.6759 -0.4622 -0.0567
   20MOL0     C 2608  12.842   3.728   2.277  0.2839  0.3082 -0.7798
   20MOL0    Cl 2609  12.911   3.852   2.392 -0.0212 -0.4795  0.0198
   20MOL0     C 2610  11.829   3.667   2.534 -0.3625  0.3322  0.3308
   20MOL0     C 2611  11.691   3.640   2.528 -1.0025 -0.4638 -0.3210
   20MOL0     O 2612  11.409   3.655   2.439 -0.5564  0.0913 -0.6124
   20MOL0     C 2613  11.174   3.495   2.447 -0.4780  0.3846  0.4144
   20MOL0     C 2614  11.056   3.418   2.460 -0.3440 -0.4733  0.3167
   20MOL0     N 2615  10.954   2.701   2.323 -0.6816  0.2326  0.3094
   20MOL0     N 2616  10.864   2.623   2.370  0.6268 -0.6274  0.1437
   20MOL0     C 2617   9.800   1.960   2.171 -0.2394  0.1654  0.2491
   20MOL0     C 2618   9.743   1.938   2.294  0.0650 -0.1338  0.1881
   20MOL0     C 2619   9.663   2.013   2.733 -0.7376 -0.0318  0.9882
   20MOL0     C 2620   9.709   2.003   2.866 -0.2907 -0.7105  0.7060
   20MOL0     C 2621   9.629   1.992   2.973  1.0809  0.5932  0.5845
   20MOL0     C 2622   9.492   1.995   2.956  0.6631 -0.2426  0.8179
   20MOL0     O 2623   9.411   1.971   3.063 -0.8480  0.0183  0.3314
   20MOL0     C 2624   9.280   1.923   3.048 -0.2272 -0.7647 -0.5038
   20MOL0     C 2625   9.208   1.914   3.192 -0.0660  0.6619 -0.4194
   20MOL0     C 2626   9.170   2.050   3.244  0.2341  1.2895 -0.4007
   20MOL0     C 2627   9.171   2.038   3.400  0.1742 -0.3600 -0.1015
   20MOL0     C 2628   9.110   2.159   3.466 -0.9986  0.5650 -0.1809
   20MOL0     C 2629   9.061   2.259   3.516 -0.7937  0.7374  0.4229
   20MOL0     C 2630   9.448   1.994   2.824  0.1404 -0.0364  0.5761
   20MOL0     C 2631   9.528   2.007   2.708  0.8731 -0.4943 -0.1336
   20MOL0     C 2632   9.475   2.014   2.569  0.2411 -0.9757  0.0830
   20MOL0     H 2633  10.017   1.911   2.490 -0.4254  3.2667 -0.1102
   20MOL0     H 2634  10.124   1.958   2.281  0.5707 -1.7523 -0.4773
   20MOL0     H 2635  10.208   2.062   2.085  2.2346  2.8240 -1.8195
   20MOL0     H 2636  10.139   2.135   1.954 -2.0858  2.6801 -0.4140
   20MOL0     H 2637  10.041   2.210   2.248  1.2427  4.0893  0.2760
   20MOL0     H 2638   9.993   2.264   2.086 -0.9800  2.2506  2.1887
   20MOL0     H 2639  10.150   2.417   2.168  1.7688  0.6559  0.1727
   20MOL0     H 2640  10.262   2.326   2.070  0.2693  0.0190  0.4359
   20MOL0     H 2641  10.200   2.318   2.365  1.6349  3.5687 -0.1268
   20MOL0     H 2642  10.287   2.183   2.296  2.5731  0.5237  1.7199
   20MOL0     H 2643  10.441   2.362   2.397  0.1909  4.2877 -0.3046
   20MOL0     H 2644  10.481   2.321   2.227 -0.3528 -0.4114 -0.2786
   20MOL0     H 2645  10.344   2.544   2.187  0.6829  2.2938 -0.2001
   20MOL0     H 2646  10.357   2.574   2.352 -3.0228  0.4919 -1.0718
   20MOL0     H 2647  10.527   2.670   2.206  2.8037  0.5543  1.1442
   20MOL0     H 2648  10.622   2.524   2.200  2.3507  1.7411  0.2073
   20MOL0     H 2649  10.547   2.654   2.450 -0.9422 -1.8766 -0.3948
   20MOL0     H 2650  10.635   2.503   2.433 -0.0629  1.1220  2.0779
   20MOL0     H 2651  10.672   2.861   2.292 -0.4512 -1.6881 -1.2199
   20MOL0     H 2652  11.049   2.932   2.280 -0.1743 -1.2412  1.4424
   20MOL0     H 2653  10.969   2.949   2.125 -0.9812 -0.9064 -0.6452
   20MOL0     H 2654  10.904   3.159   2.229  0.2535 -0.9999 -1.9619
   20MOL0     H 2655  10.768   3.046   2.246  0.7321 -1.3169 -1.8482
   20MOL0     H 2656  11.010   3.111   2.436  0.0736  0.0074 -0.0110
   20MOL0     H 2657  10.872   3.009   2.485 -0.0623 -0.1038  0.8796
   20MOL0     H 2658  10.740   3.201   2.479  0.0793 -0.2508  2.2990
   20MOL0     H 2659  10.842   3.292   2.387 -0.2784 -0.0555 -0.5737
   20MOL0     H 2660  11.099   3.303   2.773  2.3138  2.1792  1.7715
   20MOL0     H 2661  11.310   3.426   2.751  0.3492  0.5312 -0.8049
   20MOL0     H 2662  11.634   3.580   2.857  2.3539  0.8949  1.7026
   20MOL0     H 2663  11.855   3.675   2.866  0.1450 -2.2471 -0.0156
   20MOL0     H 2664  12.075   3.585   2.572 -3.3015  0.5355  0.9498
   20MOL0     H 2665  12.164   3.734   2.532  0.5560 -2.1724 -1.5946
   20MOL0     H 2666  12.272   3.719   2.760  0.8590  0.0871 -1.1454
   20MOL0     H 2667  12.194   3.557   2.772  5.5359 -3.3245 -0.0027
   20MOL0     H 2668  12.390   3.486   2.702 -1.4543  0.6276  1.6670
   20MOL0     H 2669  12.305   3.499   2.556 -1.1507  2.3078 -1.1901
   20MOL0     H 2670  12.490   3.716   2.663  0.3434 -0.4341  0.2137
   20MOL0     H 2671  12.397   3.732   2.522 -1.7853  0.2004  1.2101
   20MOL0     H 2672  12.499   3.525   2.427 -0.4263 -0.5525  0.6138
   20MOL0     H 2673  12.624   3.547   2.570 -0.1503  1.9786  1.1280
   20MOL0     H 2674  12.560   3.737   2.338 -0.7884 -0.3952 -0.1451
   20MOL0     H 2675  12.672   3.773   2.471  1.1205 -1.9507  1.0181
   20MOL0     H 2676  12.696   3.577   2.260  2.5999 -1.6016 -0.4798
   20MOL0     H 2677  12.801   3.571   2.409  0.7708 -0.0924  0.2082
   20MOL0     H 2678  12.929   3.671   2.242  0.2047  1.8349 -3.7927
   20MOL0     H 2679  12.801   3.772   2.185 -0.1637 -1.5147 -1.4826
   20MOL0     H 2680  11.880   3.681   2.439 -1.2636  0.2577 -0.1712
   20MOL0     H 2681  11.656   3.631   2.425  2.0571  1.1306 -1.6382
   20MOL0     H 2682  11.200   3.561   2.365 -0.4338  0.2051  0.2844
   20MOL0     H 2683  10.990   3.430   2.375  0.5948 -0.9787 -0.5038
   20MOL0     H 2684   9.732   1.963   2.086 -0.8417  0.1516  0.7246
   20MOL0     H 2685   9.635   1.938   2.299  0.0736  1.1945  0.7596
   20MOL0     H 2686   9.817   2.013   2.876 -0.0601  1.0746 -2.4129
   20MOL0     H 2687   9.669   2.000   3.074 -1.1350 -1.4593  1.7402
   20MOL0     H 2688   9.271   1.820   3.009 -2.3971 -1.4242  1.5180
   20MOL0     H 2689   9.221   1.995   2.990 -0.4903 -1.6101 -1.3274
   20MOL0     H 2690   9.269   1.858   3.263 -2.1571 -0.0074  0.9292
   20MOL0     H 2691   9.117   1.854   3.178  1.4490 -2.1868  0.9314
   20MOL0     H 2692   9.069   2.082   3.215 -1.3865 -2.3991  0.5060
   20MOL0     H 2693   9.239   2.124   3.204 -0.2951  1.4202 -1.0889
   20MOL0     H 2694   9.112   1.947   3.418  1.5954 -1.3679 -0.3396
   20MOL0     H 2695   9.272   2.038   3.443 -0.1500  2.7839  0.9104
   20MOL0     H 2696   8.996   2.339   3.548 -1.3094 -0.2921  2.1193
   20MOL0     H 2697   9.344   1.982   2.796  0.1825  2.8086 -1.2036
   20MOL0     H 2698   9.504   2.103   2.511 -0.6368  0.7543  2.1464
   20MOL0     H 2699   9.502   1.923   2.515 -0.3201 -1.6550  0.9245
   20MOL0     H 2700   9.366   2.012   2.572  0.2403 -0.0733  1.9454
   21MOL0     O 2701   2.188   1.640   3.872  0.0189  0.0285  0.1231
   21MOL0     C 2702   2.112   1.552   3.834 -0.2444 -0.4391 -0.9360
   21MOL0     O 2703   2.089   1.516   3.705  0.4510 -0.0080  0.6591
   21MOL0     C 2704   2.123   1.598   3.605 -0.3511 -0.3494 -0.0563
   21MOL0     C 2705   2.042   1.691   3.550 -0.4498  1.0000  0.4705
   21MOL0     C 2706   2.087   1.793   3.467  0.1171  1.2020  0.2506
   21MOL0     C 2707   2.216   1.806   3.433 -0.5880  0.0261 -0.6971
   21MOL0     O 2708   2.252   1.917   3.367 -0.5580 -0.2909  0.0803
   21MOL0     C 2709   2.390   1.927   3.321  0.6046 -1.1906 -0.4299
   21MOL0     C 2710   2.400   2.057   3.243 -0.4407 -0.7476  0.1021
   21MOL0     C 2711   2.374   2.173   3.345  0.5009 -0.3324 -0.2535
   21MOL0     C 2712   2.401   2.306   3.277  0.0484  0.0113  0.7723
   21MOL0     C 2713   2.351   2.429   3.355 -0.3217 -0.2897 -0.1067
   21MOL0     C 2714   2.328   2.551   3.254 -0.7055  0.2792  0.0073
   21MOL0     C 2715   2.264   2.675   3.327 -0.4541 -0.0793 -0.2404
   21MOL0     C 2716   2.164   2.742   3.234 -0.8936  0.1444 -0.1754
   21MOL0     N 2717   2.217   2.797   3.109  0.4780 -0.5121 -0.7268
   21MOL0     C 2718   2.295   2.909   3.087 -0.6354  0.1477  0.2570
   21MOL0     C 2719   2.317   2.925   2.958  0.1821 -0.4436  1.0454
   21MOL0     C 2720   2.393   3.039   2.888  0.2714  0.8460 -0.4808
   21MOL0     C 2721   2.302   3.161   2.857 -0.1193  0.5868 -0.7030
   21MOL0     C 2722   2.223   3.146   2.724 -0.1177 -0.5579  0.1285
   21MOL0     C 2723   2.081   3.082   2.742 -0.8166  0.8944 -0.9027
   21MOL0     O 2724   2.019   3.081   2.610 -0.3985 -0.6366  0.1638
   21MOL0     C 2725   1.904   3.027   2.572  0.2993 -0.0202  0.5045
   21MOL0     C 2726   1.859   3.060   2.443 -0.1112  0.2684  0.8885
   21MOL0     C 2727   1.743   2.988   2.394  0.5108 -0.7849  0.5364
   21MOL0     C 2728   1.665   2.902   2.481  0.6838  0.3822  0.1736
   21MOL0     C 2729   1.539   2.835   2.423  0.6580  0.2546 -0.7340
   21MOL0     O 2730   1.521   2.851   2.291 -0.2772  0.7165  0.8382
   21MOL0     C 2731   1.424   2.795   2.213  0.5771 -0.7056  0.1777
   21MOL0     C 2732   1.294   2.766   2.243  0.7028  0.1378 -0.2559
   21MOL0     C 2733   1.196   2.766   2.143  0.2034 -0.9683  0.2017
   21MOL0     C 2734   1.228   2.769   2.008 -0.4630 -0.7827  0.0345
   21MOL0     O 2735   1.125   2.758   1.914  0.0124  0.0409  0.2388
   21MOL0     C 2736   1.154   2.702   1.787  0.7989  0.3390 -0.0452
   21MOL0     C 2737   1.031   2.658   1.710 -0.4296 -0.0135  0.3460
   21MOL0     C 2738   0.910   2.747   1.730  0.9505 -0.5781  0.0412
   21MOL0     C 2739   0.793   2.697   1.637 -0.3063  0.1973  0.3433
   21MOL0     C 2740   0.660   2.769   1.671  0.5636  0.7547  0.1885
   21MOL0     C 2741   0.612   2.764   1.816  0.3418  0.3536 -0.7026
   21MOL0     C 2742   0.486   2.847   1.825 -0.8128 -0.5517 -0.4242
   21MOL0     C 2743   0.468   2.911   1.964  0.2708 -0.4816  0.4314
   21MOL0    Cl 2744   0.370   3.051   1.972  0.0825 -0.0491  0.2889
   21MOL0     C 2745   1.365   2.779   1.977  0.0362 -0.4960 -1.0617
   21MOL0     C 2746   1.460   2.793   2.076  0.0288 -0.0694  0.3032
   21MOL0     O 2747   1.472   2.759   2.494 -0.3852 -0.8165 -0.0743
   21MOL0     C 2748   1.698   2.896   2.615 -0.6129 -0.3236  0.0280
   21MOL0     C 2749   1.816   2.949   2.661 -0.3679 -0.7811  0.2847
   21MOL0     N 2750   2.250   2.814   2.899  0.2539  0.9922 -0.6873
   21MOL0     N 2751   2.207   2.729   2.988 -0.2607 -0.3710  0.2746
   21MOL0     C 2752   2.318   1.715   3.492 -0.1018  0.0563  0.2458
   21MOL0     C 2753   2.265   1.605   3.564 -0.5211 -0.1192 -0.7894
   21MOL0     C 2754   2.069   1.457   3.933  0.3767  0.6959  0.1056
   21MOL0     C 2755   2.094   1.313   3.911  0.1613  0.7214 -0.6260
   21MOL0     C 2756   2.082   1.229   4.029  0.2721  0.0837 -0.0227
   21MOL0     C 2757   2.044   1.267   4.154 -0.3105 -0.8169  1.1272
   21MOL0     O 2758   2.016   1.185   4.253 -0.7185 -0.2816  0.7072
   21MOL0     C 2759   1.946   1.231   4.370  0.6415  0.3825 -0.4170
   21MOL0     C 2760   1.932   1.123   4.483  0.0180 -0.2143  0.2626
   21MOL0     C 2761   1.858   0.993   4.444 -0.0636 -0.4278  0.2184
   21MOL0     C 2762   1.854   0.905   4.574 -0.4833 -0.4379 -0.0067
   21MOL0     C 2763   1.755   0.800   4.571  0.9855 -0.8110 -0.2492
   21MOL0     C 2764   1.685   0.698   4.556 -0.5411 -0.0308 -0.0812
   21MOL0     C 2765   2.006   1.406   4.165 -0.2666  0.1291  0.3992
   21MOL0     C 2766   2.026   1.498   4.060  0.0163  0.8553 -0.6343
   21MOL0     C 2767   1.982   1.644   4.081 -0.5229 -0.8168 -0.2617
   21MOL0     H 2768   1.935   1.685   3.569 -1.2331 -1.5599 -3.6029
   21MOL0     H 2769   2.016   1.871   3.443 -0.6743  0.5651  0.4800
   21MOL0     H 2770   2.455   1.933   3.408 -1.5474  2.1536  1.1793
   21MOL0     H 2771   2.406   1.850   3.245 -0.5297 -2.9059  0.9841
   21MOL0     H 2772   2.334   2.053   3.156  0.5632 -1.9263 -0.6504
   21MOL0     H 2773   2.507   2.052   3.219  0.4002  1.4558  2.9646
   21MOL0     H 2774   2.437   2.148   3.431  0.7411  0.1774 -0.2773
   21MOL0     H 2775   2.268   2.181   3.369  0.4443 -0.1299 -0.5621
   21MOL0     H 2776   2.506   2.315   3.247  0.4003  0.1199  2.0025
   21MOL0     H 2777   2.332   2.307   3.192 -2.2347 -0.1487  2.5234
   21MOL0     H 2778   2.255   2.408   3.402  0.5700 -0.4092  1.7721
   21MOL0     H 2779   2.424   2.453   3.433 -1.7630 -3.2801  2.3668
   21MOL0     H 2780   2.423   2.585   3.212  1.0792  1.1784  4.2701
   21MOL0     H 2781   2.262   2.519   3.172  0.6487 -1.7937 -0.3586
   21MOL0     H 2782   2.340   2.748   3.356  4.3975 -4.0887 -1.4060
   21MOL0     H 2783   2.209   2.646   3.417 -0.1181  2.0865  0.7234
   21MOL0     H 2784   2.077   2.679   3.213 -4.7040  5.2403 -1.6792
   21MOL0     H 2785   2.125   2.829   3.288  1.8732  2.7142 -2.0170
   21MOL0     H 2786   2.328   2.983   3.158  3.4664 -3.4156  2.5342
   21MOL0     H 2787   2.477   3.070   2.952  1.0135 -1.6602 -0.1153
   21MOL0     H 2788   2.442   2.989   2.804  0.4125  2.1850 -1.2249
   21MOL0     H 2789   2.231   3.168   2.941  1.2140 -0.2164  0.5275
   21MOL0     H 2790   2.371   3.246   2.863  0.0521  0.3592  1.5277
   21MOL0     H 2791   2.277   3.090   2.647 -1.4441  1.8284 -2.7694
   21MOL0     H 2792   2.224   3.246   2.680  2.7118  0.4040  2.0812
   21MOL0     H 2793   2.017   3.144   2.806 -1.8944  0.3520 -1.4289
   21MOL0     H 2794   2.077   2.983   2.787  1.1994  1.3358  0.3533
   21MOL0     H 2795   1.931   3.113   2.381  1.7554  0.9647  3.5164
   21MOL0     H 2796   1.714   2.998   2.290 -2.5559  0.6488  1.4095
   21MOL0     H 2797   1.260   2.753   2.345 -1.7514  1.1034 -0.8675
   21MOL0     H 2798   1.090   2.747   2.163 -0.6605  1.1864 -1.8845
   21MOL0     H 2799   1.209   2.776   1.729  0.9122  2.8804  3.0583
   21MOL0     H 2800   1.224   2.620   1.804 -0.3172 -0.4279  1.0376
   21MOL0     H 2801   1.049   2.641   1.604 -2.3431 -0.8751  0.1016
   21MOL0     H 2802   0.998   2.562   1.751 -0.7226 -0.0988 -0.0784
   21MOL0     H 2803   0.883   2.752   1.836  0.0657 -2.9389 -0.0249
   21MOL0     H 2804   0.938   2.849   1.703 -1.7461  0.0979 -0.5630
   21MOL0     H 2805   0.766   2.591   1.650 -2.4131  0.6825  0.3643
   21MOL0     H 2806   0.834   2.720   1.539 -0.0204  1.1310  0.6710
   21MOL0     H 2807   0.591   2.709   1.611  1.2534  1.6483 -1.5885
   21MOL0     H 2808   0.670   2.872   1.633 -1.1032  1.0002  0.3523
   21MOL0     H 2809   0.606   2.656   1.832 -0.1463  0.7673  2.6340
   21MOL0     H 2810   0.683   2.815   1.882  1.1713 -0.2310 -1.1200
   21MOL0     H 2811   0.402   2.789   1.785 -0.8137 -0.0155 -1.2390
   21MOL0     H 2812   0.488   2.929   1.753 -1.5545  1.9205  2.2116
   21MOL0     H 2813   0.426   2.838   2.035  1.5491  0.3423  2.1062
   21MOL0     H 2814   0.566   2.939   2.002 -0.3314 -1.5803  3.0180
   21MOL0     H 2815   1.400   2.776   1.874  0.5214 -0.6850 -0.8975
   21MOL0     H 2816   1.559   2.828   2.047  0.0398  1.6599  2.2237
   21MOL0     H 2817   1.645   2.850   2.698  2.2589 -1.6416  1.2812
   21MOL0     H 2818   1.838   2.939   2.766 -1.6510  1.0033  0.7760
   21MOL0     H 2819   2.424   1.727   3.476 -0.2419 -0.0350 -0.7724
   21MOL0     H 2820   2.336   1.543   3.617 -0.7489 -0.4982 -0.9265
   21MOL0     H 2821   2.141   1.269   3.824 -1.0172 -0.5278 -0.6511
   21MOL0     H 2822   2.101   1.125   4.008 -3.5138 -1.2831  2.2698
   21MOL0     H 2823   1.854   1.278   4.335 -0.1358 -1.2430 -0.6910
   21MOL0     H 2824   2.000   1.309   4.423  3.1568 -1.9027  0.6615
   21MOL0     H 2825   1.881   1.170   4.567 -1.0286  1.8135 -1.4039
   21MOL0     H 2826   2.029   1.083   4.514 -0.3757 -2.1381 -0.7965
   21MOL0     H 2827   1.908   0.939   4.363 -3.1648 -0.7053 -1.6702
   21MOL0     H 2828   1.758   1.029   4.418  0.4766  0.5868 -0.5283
   21MOL0     H 2829   1.955   0.865   4.584 -0.5252 -0.3984  0.6059
   21MOL0     H 2830   1.818   0.965   4.658 -0.2498 -0.0138 -0.2094
   21MOL0     H 2831   1.618   0.616   4.539 -0.2495 -0.2547 -0.1481
   21MOL0     H 2832   1.970   1.455   4.255 -1.2343  3.2586 -1.5251
   21MOL0     H 2833   2.068   1.711   4.094 -0.7190 -1.0465  3.3365
   21MOL0     H 2834   1.916   1.678   4.000  0.8185  2.3721 -0.1562
   21MOL0     H 2835   1.912   1.646   4.165  1.8115 -0.4217  1.8075
   22MOL0     O 2836   9.967   0.653   5.538 -0.3725  0.0724 -0.1418
   22MOL0     C 2837  10.040   0.750   5.523 -0.8352  0.2593 -0.0033
   22MOL0     O 2838  10.016   0.865   5.469 -0.7150 -0.4410  0.2243
   22MOL0     C 2839   9.894   0.880   5.416  0.7273 -1.2566 -1.0507
   22MOL0     C 2840   9.802   0.927   5.502 -0.7830  0.3308 -0.2579
   22MOL0     C 2841   9.668   0.940   5.456  0.7559  0.2669 -1.1330
   22MOL0     C 2842   9.632   0.884   5.337 -0.0706  0.2926 -0.1102
   22MOL0     O 2843   9.505   0.883   5.298  0.2562 -0.2754  0.0798
   22MOL0     C 2844   9.454   1.012   5.262  0.0255 -0.1788 -0.3713
   22MOL0     C 2845   9.313   0.988   5.208 -0.2519  0.2893  0.0927
   22MOL0     C 2846   9.226   0.952   5.329  1.5575 -0.2676 -0.9775
   22MOL0     C 2847   9.168   0.810   5.329 -1.1929  0.1601 -0.0596
   22MOL0     C 2848   9.049   0.799   5.419  0.0406 -0.2726  0.2851
   22MOL0     C 2849   9.008   0.652   5.447  1.0364 -0.1601  0.3499
   22MOL0     C 2850   8.910   0.664   5.569  0.0692  0.3005 -0.0496
   22MOL0     C 2851   8.878   0.525   5.625  0.1013  0.5191 -0.8688
   22MOL0     N 2852   8.987   0.472   5.700  0.1301 -0.5124 -0.2480
   22MOL0     C 2853   8.977   0.439   5.835 -0.6004 -0.2676 -0.5785
   22MOL0     C 2854   9.084   0.360   5.861 -0.8384 -1.2807 -0.4146
   22MOL0     C 2855   9.117   0.281   5.990  0.5540  0.5071 -0.3511
   22MOL0     C 2856   9.236   0.201   5.991  1.0306 -0.3504  0.0716
   22MOL0     C 2857   9.358   0.281   6.047 -1.3021 -1.0112 -0.2369
   22MOL0     C 2858   9.484   0.199   6.066 -0.2468  0.3279  0.3867
   22MOL0     O 2859   9.605   0.258   6.036 -0.5163 -0.2463  0.1539
   22MOL0     C 2860   9.635   0.277   5.903 -0.7046  0.2861  1.0189
   22MOL0     C 2861   9.740   0.357   5.863 -0.3657 -0.4779 -0.5529
   22MOL0     C 2862   9.795   0.375   5.742 -0.5188  1.0467 -0.7770
   22MOL0     C 2863   9.732   0.309   5.636 -0.6032  0.5268  0.1040
   22MOL0     C 2864   9.801   0.309   5.509 -1.0536  0.9599  0.2453
   22MOL0     O 2865   9.936   0.281   5.518  0.4393 -0.6192 -0.9809
   22MOL0     C 2866  10.017   0.267   5.406  0.0700 -0.6171  0.0993
   22MOL0     C 2867  10.017   0.369   5.299  0.2670  0.0674  0.0938
   22MOL0     C 2868  10.111   0.348   5.196 -0.5549 -0.5206  0.0778
   22MOL0     C 2869  10.196   0.241   5.193 -0.5739  0.3656 -0.0460
   22MOL0     O 2870  10.284   0.220   5.097  0.0410  0.1750 -0.1914
   22MOL0     C 2871  10.230   0.229   4.967  0.6592  0.7240  0.4199
   22MOL0     C 2872  10.348   0.269   4.872  0.8144 -0.0121 -0.8198
   22MOL0     C 2873  10.407   0.141   4.822  1.4304  1.0222  0.3404
   22MOL0     C 2874  10.540   0.173   4.766 -0.3578  0.4312 -0.3120
   22MOL0     C 2875  10.628   0.051   4.738  1.1797  0.1301  1.0815
   22MOL0     C 2876  10.698  -0.003   4.862  0.4266 -0.0123 -0.1148
   22MOL0     C 2877  10.812  -0.097   4.836  0.6621  0.0476  0.8807
   22MOL0     C 2878  10.876  -0.137   4.970  0.7142  0.6908 -0.1014
   22MOL0    Cl 2879  10.969  -0.002   5.011 -0.3786 -0.2190  0.0990
   22MOL0     C 2880  10.201   0.159   5.302 -0.1601 -0.2088 -0.7220
   22MOL0     C 2881  10.106   0.165   5.415  0.6131  0.6870  0.2153
   22MOL0     O 2882   9.741   0.296   5.406  0.2302  0.3749  0.5306
   22MOL0     C 2883   9.619   0.226   5.662 -0.6778  1.0539  0.5122
   22MOL0     C 2884   9.566   0.211   5.784  0.6252 -0.7144 -0.2348
   22MOL0     N 2885   9.164   0.365   5.744 -0.0458 -0.3372 -1.4599
   22MOL0     N 2886   9.097   0.418   5.650 -1.0022  0.4750 -0.0669
   22MOL0     C 2887   9.729   0.838   5.249 -0.0321  0.1509 -0.4298
   22MOL0     C 2888   9.867   0.846   5.291  0.0952 -0.7291 -0.2238
   22MOL0     C 2889  10.172   0.737   5.597  1.5592 -0.1866  0.6397
   22MOL0     C 2890  10.210   0.848   5.664 -0.0599  0.5612 -0.8658
   22MOL0     C 2891  10.333   0.849   5.737 -0.0196 -0.3669  0.1308
   22MOL0     C 2892  10.410   0.739   5.745 -0.4245  0.7578  0.0761
   22MOL0     O 2893  10.533   0.719   5.811  0.2450 -0.4593 -0.5374
   22MOL0     C 2894  10.607   0.825   5.870  0.3144 -0.0306  0.2113
   22MOL0     C 2895  10.673   0.771   6.003 -0.0758 -0.1604  0.3194
   22MOL0     C 2896  10.795   0.698   5.962 -0.6327  0.7110 -0.3148
   22MOL0     C 2897  10.879   0.641   6.083 -0.1248 -0.0301 -0.0856
   22MOL0     C 2898  10.964   0.729   6.161  0.5120 -1.4118 -1.5617
   22MOL0     C 2899  11.028   0.807   6.230 -0.0012  0.6237  0.0628
   22MOL0     C 2900  10.369   0.622   5.676  0.2276 -1.6714 -0.0180
   22MOL0     C 2901  10.254   0.622   5.595  0.1934  0.4980  1.4156
   22MOL0     C 2902  10.224   0.503   5.511  0.6306  1.1009 -0.0478
   22MOL0     H 2903   9.819   0.940   5.608 -0.3991 -1.4271 -0.0733
   22MOL0     H 2904   9.583   0.961   5.520 -1.2324 -0.2211 -3.4656
   22MOL0     H 2905   9.449   1.059   5.360  0.1141 -2.1194  0.6075
   22MOL0     H 2906   9.525   1.067   5.199  2.4431 -0.2747  2.1302
   22MOL0     H 2907   9.310   0.911   5.131  3.2260  2.2697 -2.2809
   22MOL0     H 2908   9.274   1.087   5.186 -0.5309  0.6573  2.0455
   22MOL0     H 2909   9.134   1.011   5.321 -0.6555 -3.4326 -0.9959
   22MOL0     H 2910   9.275   0.958   5.426  2.9927 -4.0383 -1.2974
   22MOL0     H 2911   9.131   0.796   5.227 -1.1356  1.4730 -0.2835
   22MOL0     H 2912   9.248   0.740   5.354  1.1438  1.9187 -2.0616
   22MOL0     H 2913   9.084   0.839   5.514 -0.5577  1.2045 -0.0905
   22MOL0     H 2914   8.967   0.867   5.393  1.1786  1.1860  0.3916
   22MOL0     H 2915   8.943   0.628   5.363 -0.5315  2.9091  0.5317
   22MOL0     H 2916   9.092   0.585   5.467  1.3610  0.0763 -0.2051
   22MOL0     H 2917   8.824   0.725   5.545  1.2188  1.3585 -1.7050
   22MOL0     H 2918   8.958   0.715   5.653 -2.1581  0.0820  1.4361
   22MOL0     H 2919   8.793   0.532   5.694 -1.7933 -3.4686 -2.4736
   22MOL0     H 2920   8.844   0.449   5.554 -1.7026  0.8557 -0.4230
   22MOL0     H 2921   8.904   0.471   5.908 -0.1843  0.3841 -0.4395
   22MOL0     H 2922   9.114   0.342   6.081  0.0339 -3.1252  2.2834
   22MOL0     H 2923   9.035   0.213   6.016  0.9660 -0.1410 -0.7474
   22MOL0     H 2924   9.221   0.114   6.056  0.5930 -2.1261 -2.2528
   22MOL0     H 2925   9.263   0.157   5.894 -0.0729 -0.6081 -0.1271
   22MOL0     H 2926   9.337   0.327   6.144  1.7493 -0.0022  0.0535
   22MOL0     H 2927   9.378   0.363   5.978  3.7179  0.3325  2.3611
   22MOL0     H 2928   9.474   0.104   6.013  0.1590  0.3852  0.1980
   22MOL0     H 2929   9.495   0.182   6.173  3.6354  0.4492  0.1630
   22MOL0     H 2930   9.789   0.389   5.954  4.3977 -5.3254 -0.8900
   22MOL0     H 2931   9.881   0.440   5.728 -0.3762  0.9774 -0.2484
   22MOL0     H 2932   9.964   0.462   5.312 -4.0016 -2.2888  1.5722
   22MOL0     H 2933  10.122   0.431   5.127 -0.2454 -0.9839 -0.4461
   22MOL0     H 2934  10.190   0.132   4.937  2.5401 -0.5378  1.7443
   22MOL0     H 2935  10.140   0.292   4.968  0.6410  0.6985  0.7056
   22MOL0     H 2936  10.314   0.328   4.787  0.5667  2.0359  0.6333
   22MOL0     H 2937  10.426   0.329   4.920 -1.6765  1.7591  1.3159
   22MOL0     H 2938  10.407   0.076   4.909  0.9294  0.8130  0.1903
   22MOL0     H 2939  10.345   0.093   4.745  2.4710 -1.4158  0.9237
   22MOL0     H 2940  10.603   0.229   4.836 -0.5143 -1.9962  1.9318
   22MOL0     H 2941  10.519   0.233   4.677 -0.0309  0.7434 -0.1811
   22MOL0     H 2942  10.702   0.078   4.663 -1.3307  0.1942 -1.5584
   22MOL0     H 2943  10.569  -0.028   4.689  1.5814 -0.1261  1.0075
   22MOL0     H 2944  10.742   0.081   4.916 -0.2015  0.8034 -0.8370
   22MOL0     H 2945  10.621  -0.052   4.923  0.0128  0.3976 -0.2977
   22MOL0     H 2946  10.887  -0.047   4.774  0.2867 -1.0804 -0.5524
   22MOL0     H 2947  10.772  -0.186   4.786  0.6506  0.2628  0.5062
   22MOL0     H 2948  10.805  -0.169   5.047 -1.8860  2.2258 -1.7282
   22MOL0     H 2949  10.950  -0.217   4.962 -2.2672 -2.1475 -1.5824
   22MOL0     H 2950  10.273   0.078   5.295  0.9186  0.7889 -1.6287
   22MOL0     H 2951  10.114   0.101   5.502  0.5955 -1.7686 -1.4859
   22MOL0     H 2952   9.582   0.189   5.567  1.5943  2.6041 -1.0705
   22MOL0     H 2953   9.473   0.160   5.809  0.3441 -0.7536 -1.3401
   22MOL0     H 2954   9.710   0.822   5.143  1.4077 -0.3734 -0.6438
   22MOL0     H 2955   9.938   0.822   5.213  2.4700  3.3296  0.3816
   22MOL0     H 2956  10.148   0.936   5.664 -3.5581 -1.7069 -0.6557
   22MOL0     H 2957  10.375   0.931   5.795  2.0083 -0.7534 -0.6810
   22MOL0     H 2958  10.534   0.903   5.896 -0.6202  0.0539 -2.3988
   22MOL0     H 2959  10.686   0.867   5.806  0.4822 -0.9150 -0.1733
   22MOL0     H 2960  10.605   0.705   6.058  0.9754 -1.5640 -0.0169
   22MOL0     H 2961  10.696   0.861   6.061 -1.5156 -0.2540  1.0958
   22MOL0     H 2962  10.862   0.756   5.896 -0.7818 -1.7393 -2.8234
   22MOL0     H 2963  10.752   0.617   5.902 -0.0246 -0.1078  0.3307
   22MOL0     H 2964  10.806   0.590   6.146 -1.6680 -0.0632 -1.7987
   22MOL0     H 2965  10.944   0.564   6.042 -0.7163  0.2779 -1.6982
   22MOL0     H 2966  11.100   0.858   6.292  1.9142 -1.7852 -0.0621
   22MOL0     H 2967  10.436   0.537   5.680  2.4352 -0.2658 -3.1613
   22MOL0     H 2968  10.175   0.534   5.418 -0.3972 -0.7063 -0.1681
   22MOL0     H 2969  10.311   0.441   5.485  2.4061  2.8421  1.4352
   22MOL0     H 2970  10.157   0.440   5.571  0.3001  0.1595 -1.3631
   23MOL0     O 2971  10.096   8.510   7.595  0.1247  0.2555  0.3374
   23MOL0     C 2972  10.014   8.558   7.516  0.2136  0.0925  1.4112
   23MOL0     O 2973  10.056   8.616   7.400 -0.1496 -0.3232  1.1938
   23MOL0     C 2974  10.187   8.641   7.373  0.2158 -0.1378 -0.2896
   23MOL0     C 2975  10.278   8.536   7.364  0.0660 -0.3991 -0.4506
   23MOL0     C 2976  10.420   8.566   7.344 -0.1716  0.7647 -0.8095
   23MOL0     C 2977  10.476   8.690   7.334 -0.8436 -0.5853  0.8802
   23MOL0     O 2978  10.597   8.729   7.298 -0.8605  0.2920  0.2209
   23MOL0     C 2979  10.686   8.623   7.294 -0.1894  0.2220  0.1968
   23MOL0     C 2980  10.827   8.686   7.284  0.0188 -0.5303  0.6101
   23MOL0     C 2981  10.931   8.576   7.268 -0.7044 -0.4907  0.3061
   23MOL0     C 2982  11.062   8.635   7.224  0.5459  0.1658 -0.0667
   23MOL0     C 2983  11.148   8.715   7.320  0.5321  0.4578  0.8441
   23MOL0     C 2984  11.263   8.778   7.246  0.4464 -0.3338 -0.8721
   23MOL0     C 2985  11.372   8.839   7.337 -1.1182 -0.6029 -0.1808
   23MOL0     C 2986  11.499   8.858   7.260  0.1648 -0.0775 -0.5986
   23MOL0     N 2987  11.480   8.940   7.138 -0.5821  0.2339  0.4846
   23MOL0     C 2988  11.458   8.882   7.017  0.1143 -0.8413  1.1097
   23MOL0     C 2989  11.437   8.992   6.932  0.0436 -0.1401 -0.5979
   23MOL0     C 2990  11.405   8.978   6.789 -0.3714  0.7775 -0.3241
   23MOL0     C 2991  11.253   9.018   6.789  1.3139 -0.1992 -0.7246
   23MOL0     C 2992  11.157   8.918   6.859  0.1321 -0.7288  0.5424
   23MOL0     C 2993  11.022   8.926   6.810 -0.1039  0.1616  0.1356
   23MOL0     O 2994  10.957   8.821   6.871  0.1947 -0.3208 -0.4470
   23MOL0     C 2995  10.820   8.813   6.859 -0.4761 -0.1555  0.3199
   23MOL0     C 2996  10.753   8.732   6.948  0.0024  0.5060 -0.7152
   23MOL0     C 2997  10.617   8.715   6.931  0.4407  0.2764 -0.1191
   23MOL0     C 2998  10.542   8.773   6.833  0.8422  0.4683  0.0744
   23MOL0     C 2999  10.393   8.753   6.821  0.3445  0.3026  0.3159
   23MOL0     O 3000  10.340   8.671   6.918  0.3799 -0.2865  0.3579
   23MOL0     C 3001  10.204   8.640   6.932 -0.3424  0.1483 -0.9753
   23MOL0     C 3002  10.107   8.719   6.902 -0.2914 -0.2895  1.3977
   23MOL0     C 3003   9.976   8.686   6.910  0.8764  0.0753  0.2449
   23MOL0     C 3004   9.934   8.558   6.953 -0.0071  1.4247 -0.3857
   23MOL0     O 3005   9.810   8.500   6.958  0.2882  0.6336 -0.8878
   23MOL0     C 3006   9.688   8.546   6.899  0.3007 -0.5568 -0.0727
   23MOL0     C 3007   9.604   8.622   7.005  0.2985  1.1882  0.8917
   23MOL0     C 3008   9.454   8.639   6.961 -0.0742 -0.8370 -0.2720
   23MOL0     C 3009   9.376   8.711   7.079  0.5806  0.5710  0.0728
   23MOL0     C 3010   9.250   8.792   7.026 -0.0049  0.1365 -0.7065
   23MOL0     C 3011   9.273   8.915   6.935 -0.2669 -0.8918 -0.1884
   23MOL0     C 3012   9.152   9.014   6.934  0.2072 -0.4752  0.6374
   23MOL0     C 3013   9.043   8.969   6.833 -0.6360 -1.0981 -0.3785
   23MOL0    Cl 3014   8.895   9.057   6.865  0.1617  0.0059 -0.2817
   23MOL0     C 3015  10.047   8.482   6.990  0.4133 -0.1951 -0.3005
   23MOL0     C 3016  10.175   8.521   6.978  0.1010 -0.1168 -0.1458
   23MOL0     O 3017  10.328   8.803   6.724 -0.1170 -0.3092  0.4648
   23MOL0     C 3018  10.610   8.856   6.740  0.9715  0.1748 -0.5496
   23MOL0     C 3019  10.749   8.873   6.745 -0.8424  0.7153 -0.2792
   23MOL0     N 3020  11.446   9.104   7.015 -0.7998  0.7056 -0.0719
   23MOL0     N 3021  11.486   9.082   7.134 -0.1506  0.3680 -0.0222
   23MOL0     C 3022  10.376   8.794   7.336 -0.6583 -0.5631  0.1288
   23MOL0     C 3023  10.236   8.773   7.355 -0.4931 -0.7406  0.0026
   23MOL0     C 3024   9.867   8.546   7.549 -1.4831  0.5878 -0.2667
   23MOL0     C 3025   9.774   8.568   7.450  0.2873 -1.4586 -0.7189
   23MOL0     C 3026   9.646   8.525   7.469  0.2754  0.0565  0.3487
   23MOL0     C 3027   9.594   8.478   7.591 -0.0090  0.0125  0.1639
   23MOL0     O 3028   9.463   8.446   7.574  0.7087  0.5695 -0.5877
   23MOL0     C 3029   9.403   8.399   7.696  0.1565  0.5536  0.2291
   23MOL0     C 3030   9.392   8.500   7.804 -0.4118  0.2953 -1.1810
   23MOL0     C 3031   9.338   8.640   7.763  0.8583 -0.1667 -0.0906
   23MOL0     C 3032   9.395   8.739   7.865  0.4819  0.2767 -0.0360
   23MOL0     C 3033   9.541   8.756   7.837  0.1917 -0.2620  0.7062
   23MOL0     C 3034   9.665   8.762   7.810  0.7489 -0.8633 -0.1612
   23MOL0     C 3035   9.696   8.452   7.688 -0.1611 -0.2296 -0.1065
   23MOL0     C 3036   9.832   8.495   7.674  0.5555 -0.2399  0.1871
   23MOL0     C 3037   9.919   8.465   7.798 -1.0803  0.7431  0.1183
   23MOL0     H 3038  10.225   8.441   7.371 -1.9839  0.6508 -1.0499
   23MOL0     H 3039  10.482   8.478   7.331  0.1316  0.7233  0.7708
   23MOL0     H 3040  10.683   8.575   7.392 -0.4104  2.5142  1.3814
   23MOL0     H 3041  10.661   8.552   7.214 -0.1225  1.0717 -0.6004
   23MOL0     H 3042  10.831   8.744   7.377 -1.1897 -3.3248  2.5416
   23MOL0     H 3043  10.820   8.759   7.203  1.1687  1.5754  2.3132
   23MOL0     H 3044  10.899   8.502   7.195  0.6815 -2.3793  1.5257
   23MOL0     H 3045  10.940   8.519   7.361  1.2978  1.8950  1.7093
   23MOL0     H 3046  11.127   8.559   7.180  1.3818  0.4811  0.6003
   23MOL0     H 3047  11.035   8.697   7.137 -1.5680  1.8384  1.6585
   23MOL0     H 3048  11.102   8.804   7.364  2.1555  1.9613 -0.3109
   23MOL0     H 3049  11.196   8.659   7.400  1.5129 -0.7974 -0.5724
   23MOL0     H 3050  11.300   8.697   7.181  0.7627 -2.4473  1.7460
   23MOL0     H 3051  11.231   8.860   7.182 -0.0680  0.6853  0.6420
   23MOL0     H 3052  11.385   8.777   7.426  1.5813  2.7024  1.9607
   23MOL0     H 3053  11.339   8.939   7.364 -1.0240 -0.4250 -0.7267
   23MOL0     H 3054  11.567   8.914   7.325  2.6146 -5.0665  1.6955
   23MOL0     H 3055  11.543   8.765   7.222  2.8893  1.3491 -1.1676
   23MOL0     H 3056  11.445   8.780   6.981 -1.0668  0.1994 -1.7883
   23MOL0     H 3057  11.459   9.049   6.725  0.7399  0.2792  0.0425
   23MOL0     H 3058  11.420   8.880   6.742 -0.6599  0.9463 -0.7822
   23MOL0     H 3059  11.239   9.114   6.840 -3.1683 -0.8763 -0.2260
   23MOL0     H 3060  11.214   9.033   6.688  0.5204 -2.8738 -0.8942
   23MOL0     H 3061  11.156   8.942   6.965 -1.7375  2.3824 -0.0674
   23MOL0     H 3062  11.197   8.818   6.840  2.1844  0.5051 -2.3767
   23MOL0     H 3063  11.021   8.900   6.703 -0.4213  1.0195 -0.0743
   23MOL0     H 3064  10.984   9.026   6.830  0.5931  0.3506  0.5020
   23MOL0     H 3065  10.810   8.675   7.021  2.7743  1.1493 -2.2371
   23MOL0     H 3066  10.554   8.660   6.999 -2.2617 -0.7904 -3.2628
   23MOL0     H 3067  10.139   8.818   6.872  3.2334 -2.0260 -1.3547
   23MOL0     H 3068   9.911   8.764   6.872 -2.0681 -3.0012 -1.6809
   23MOL0     H 3069   9.723   8.616   6.822  1.2074  1.6958  2.2289
   23MOL0     H 3070   9.626   8.472   6.848 -0.1444  0.4074 -0.9864
   23MOL0     H 3071   9.595   8.553   7.089 -4.9778  1.8276  1.2135
   23MOL0     H 3072   9.658   8.710   7.042  0.5334  1.3194  0.2491
   23MOL0     H 3073   9.431   8.694   6.870 -0.4260 -0.4228  0.0648
   23MOL0     H 3074   9.406   8.543   6.937 -3.5295  0.3332  1.2908
   23MOL0     H 3075   9.443   8.782   7.129  4.4417 -2.9512  0.3316
   23MOL0     H 3076   9.358   8.629   7.150 -0.6315  2.0666  1.5984
   23MOL0     H 3077   9.203   8.825   7.119  1.6772  1.1258 -0.1488
   23MOL0     H 3078   9.183   8.730   6.966  0.0946 -2.1566  1.4124
   23MOL0     H 3079   9.356   8.975   6.975 -0.5935 -0.1097 -0.6662
   23MOL0     H 3080   9.307   8.887   6.835 -0.1612  0.5501 -0.5774
   23MOL0     H 3081   9.180   9.112   6.894  0.4538 -0.9948 -0.4842
   23MOL0     H 3082   9.109   9.023   7.035  1.6786 -0.9810  1.3339
   23MOL0     H 3083   9.076   9.003   6.735  1.3572 -2.1959 -0.1391
   23MOL0     H 3084   9.026   8.861   6.834 -1.2980 -1.0094  1.2673
   23MOL0     H 3085  10.033   8.381   7.029  1.8550  0.1171  1.1080
   23MOL0     H 3086  10.254   8.456   7.014 -0.7811  0.4677  3.1881
   23MOL0     H 3087  10.539   8.898   6.670 -0.1762  0.9850  1.0277
   23MOL0     H 3088  10.808   8.918   6.667  1.7272 -2.0202 -0.0867
   23MOL0     H 3089  10.422   8.891   7.352  2.6700 -2.5795  5.6174
   23MOL0     H 3090  10.172   8.861   7.362  1.0989  0.6534 -1.9199
   23MOL0     H 3091   9.805   8.614   7.357 -1.4090 -2.5397 -1.8907
   23MOL0     H 3092   9.574   8.542   7.389 -0.5452  0.1190  1.0848
   23MOL0     H 3093   9.449   8.304   7.724 -0.0593  0.6339  0.8771
   23MOL0     H 3094   9.302   8.369   7.665  0.9131  2.1123 -4.6980
   23MOL0     H 3095   9.494   8.492   7.844 -1.2365  0.2547  1.0831
   23MOL0     H 3096   9.322   8.471   7.883  3.1118  0.5076  2.3624
   23MOL0     H 3097   9.229   8.626   7.766  0.9039 -0.5334 -0.0955
   23MOL0     H 3098   9.376   8.672   7.665  2.7769 -2.0042 -0.0116
   23MOL0     H 3099   9.348   8.835   7.844  1.1554  0.9780  1.4721
   23MOL0     H 3100   9.371   8.708   7.967 -1.2884  1.5366 -0.0333
   23MOL0     H 3101   9.767   8.761   7.777  1.5034 -0.4295  2.0186
   23MOL0     H 3102   9.671   8.415   7.787 -0.0467 -2.3356 -0.8100
   23MOL0     H 3103  10.005   8.530   7.820  0.4615 -0.8847 -0.8539
   23MOL0     H 3104   9.859   8.460   7.890 -0.5135 -2.3430  0.4032
   23MOL0     H 3105   9.973   8.372   7.780 -0.4767  0.9074  1.0215
   24MOL0     O 3106  10.530   3.564   1.358  0.0436 -0.1634 -0.8931
   24MOL0     C 3107  10.650   3.535   1.380  0.3422  0.3011 -0.8751
   24MOL0     O 3108  10.753   3.583   1.308 -0.8698 -0.3439  0.9038
   24MOL0     C 3109  10.736   3.667   1.198  0.2124 -0.2514 -0.5403
   24MOL0     C 3110  10.796   3.621   1.081 -0.0609 -0.3664 -0.2736
   24MOL0     C 3111  10.769   3.689   0.959 -0.0022 -1.0642  0.0576
   24MOL0     C 3112  10.701   3.813   0.972 -0.0710  0.8946  0.7608
   24MOL0     O 3113  10.677   3.864   0.850 -0.2529  0.2979  0.1563
   24MOL0     C 3114  10.570   3.960   0.848  0.9285 -0.9547  0.3234
   24MOL0     C 3115  10.533   3.987   0.700 -0.2789 -0.2088  0.8313
   24MOL0     C 3116  10.596   4.103   0.629  0.5331 -0.0345 -0.7162
   24MOL0     C 3117  10.555   4.121   0.482 -0.4875 -0.1010 -0.5240
   24MOL0     C 3118  10.584   3.999   0.399  0.2231 -0.3488  0.6429
   24MOL0     C 3119  10.730   3.998   0.371  0.8580 -0.2318  0.6414
   24MOL0     C 3120  10.768   3.890   0.268  0.4674  0.3572 -0.1494
   24MOL0     C 3121  10.787   3.933   0.122  0.9793 -0.0208 -0.0806
   24MOL0     N 3122  10.873   4.050   0.095  0.0716 -0.6187 -0.3110
   24MOL0     C 3123  11.006   4.047   0.099  0.6310 -0.8823  0.4195
   24MOL0     C 3124  11.038   4.177   0.087  0.3517  0.6238 -0.0706
   24MOL0     C 3125  11.173   4.235   0.071 -0.2058  0.0830  0.1184
   24MOL0     C 3126  11.194   4.367   0.157 -0.3044  0.2455  0.2000
   24MOL0     C 3127  11.303   4.467   0.104 -0.5344  0.4411  0.1869
   24MOL0     C 3128  11.447   4.414   0.099  0.4488 -0.1691 -0.3213
   24MOL0     O 3129  11.529   4.509   0.034 -0.0202 -0.0387  1.8036
   24MOL0     C 3130  11.665   4.503   0.027 -0.1981 -1.0205  0.9815
   24MOL0     C 3131  11.738   4.612  -0.021 -0.4217 -0.9121  0.3362
   24MOL0     C 3132  11.881   4.615  -0.024  0.8142  0.1404  0.2441
   24MOL0     C 3133  11.950   4.499   0.016 -0.5043  0.7156 -0.3733
   24MOL0     C 3134  12.094   4.489   0.001  0.6365 -0.8210 -0.0127
   24MOL0     O 3135  12.164   4.418   0.092  0.2383 -0.2271  0.2919
   24MOL0     C 3136  12.298   4.395   0.069  0.0911  0.0593  1.4073
   24MOL0     C 3137  12.399   4.410   0.164 -0.6355  0.1474 -0.2507
   24MOL0     C 3138  12.527   4.373   0.144 -0.7655  0.5690  0.3880
   24MOL0     C 3139  12.572   4.321   0.013 -0.6825 -0.2619 -0.9352
   24MOL0     O 3140  12.707   4.307  -0.031  0.1298 -0.6762  0.0679
   24MOL0     C 3141  12.798   4.310   0.075 -0.7834 -0.6986  0.0969
   24MOL0     C 3142  12.943   4.324   0.023 -0.8903  1.3100  0.1763
   24MOL0     C 3143  12.998   4.207  -0.063 -0.6871 -0.0772  0.0302
   24MOL0     C 3144  13.138   4.239  -0.089 -0.7538  0.5234  0.5340
   24MOL0     C 3145  13.232   4.120  -0.069  0.1783  0.0070 -0.2722
   24MOL0     C 3146  13.359   4.159  -0.129  0.2681  0.3025  0.1360
   24MOL0     C 3147  13.462   4.049  -0.108 -0.4485 -0.1308 -0.5752
   24MOL0     C 3148  13.525   4.039   0.032  0.6253  1.1959  0.0282
   24MOL0    Cl 3149  13.655   3.920   0.006  0.2459  0.4990  0.2607
   24MOL0     C 3150  12.470   4.305  -0.082 -0.0901  0.0337 -0.5603
   24MOL0     C 3151  12.337   4.346  -0.056 -0.1559  0.4536  0.0660
   24MOL0     O 3152  12.141   4.568  -0.084  0.2379  0.1765  0.0339
   24MOL0     C 3153  11.880   4.389   0.057 -0.4301  0.7928  0.3909
   24MOL0     C 3154  11.740   4.391   0.071  1.0828  0.0940  0.3617
   24MOL0     N 3155  10.927   4.251   0.066  0.0935  0.3167  0.2782
   24MOL0     N 3156  10.820   4.175   0.072  0.1790  0.3822  0.1421
   24MOL0     C 3157  10.656   3.859   1.096  1.3528 -0.2541  1.1843
   24MOL0     C 3158  10.673   3.789   1.208 -0.3598 -0.9871  0.0055
   24MOL0     C 3159  10.679   3.438   1.499 -0.0170  0.2323  0.1732
   24MOL0     C 3160  10.582   3.362   1.568  0.8693  0.0823  0.2216
   24MOL0     C 3161  10.611   3.270   1.664 -1.0229  0.4287 -0.9952
   24MOL0     C 3162  10.739   3.249   1.709  0.0237  0.2401  0.4106
   24MOL0     O 3163  10.767   3.145   1.797 -0.2432 -0.0338 -0.1105
   24MOL0     C 3164  10.721   3.181   1.932  0.2383  0.0277  0.7667
   24MOL0     C 3165  10.580   3.119   1.966  0.0231 -0.0695 -0.1424
   24MOL0     C 3166  10.580   2.981   1.912 -0.0650  0.4298  0.0049
   24MOL0     C 3167  10.442   2.903   1.934 -0.2850 -0.5993  0.6599
   24MOL0     C 3168  10.344   2.953   1.853 -0.4238 -0.1515 -0.4483
   24MOL0     C 3169  10.260   2.981   1.773 -0.0145  0.0144  0.3154
   24MOL0     C 3170  10.846   3.312   1.642 -1.4898  0.3222 -0.6801
   24MOL0     C 3171  10.813   3.403   1.536  0.2300  0.1819 -1.1408
   24MOL0     C 3172  10.936   3.443   1.467  0.0793 -0.3267  0.3426
   24MOL0     H 3173  10.838   3.521   1.074 -3.5016 -1.8515 -2.1172
   24MOL0     H 3174  10.802   3.651   0.863  0.2149  0.5228 -0.5201
   24MOL0     H 3175  10.484   3.913   0.897  0.8693 -1.3523 -0.1454
   24MOL0     H 3176  10.608   4.054   0.887 -0.9827  0.3214 -0.7551
   24MOL0     H 3177  10.427   4.016   0.694  0.0761  1.0655  0.6009
   24MOL0     H 3178  10.564   3.897   0.646  1.9812  2.8241 -3.5988
   24MOL0     H 3179  10.705   4.108   0.637  0.5322  1.5822 -1.4497
   24MOL0     H 3180  10.564   4.188   0.690 -1.4492  0.6703 -2.6234
   24MOL0     H 3181  10.450   4.151   0.474  0.1601  1.8460 -3.7222
   24MOL0     H 3182  10.618   4.204   0.448  1.7448  0.2114  3.6853
   24MOL0     H 3183  10.547   3.903   0.435  2.0005 -0.8625  1.2055
   24MOL0     H 3184  10.535   4.028   0.305  2.3730  3.8710  0.5842
   24MOL0     H 3185  10.759   4.096   0.331 -1.0662 -0.5180 -1.6687
   24MOL0     H 3186  10.795   3.986   0.458  1.6243  4.0449  0.8827
   24MOL0     H 3187  10.698   3.808   0.286  1.5772 -0.1899  1.9754
   24MOL0     H 3188  10.868   3.853   0.293  0.7309  0.4233 -1.0484
   24MOL0     H 3189  10.828   3.851   0.062 -0.1924  0.9053 -2.2745
   24MOL0     H 3190  10.683   3.951   0.094  1.2094  0.2868 -0.7497
   24MOL0     H 3191  11.078   3.966   0.108  0.2430 -2.1512 -4.5475
   24MOL0     H 3192  11.249   4.159   0.093 -1.0326 -0.5473  0.8454
   24MOL0     H 3193  11.193   4.266  -0.032 -1.2633  2.4854  0.5774
   24MOL0     H 3194  11.097   4.416   0.146 -0.3600 -0.4285 -3.9645
   24MOL0     H 3195  11.219   4.345   0.261  0.8283  2.3908  0.4404
   24MOL0     H 3196  11.305   4.556   0.168 -0.4177 -0.2766  1.2050
   24MOL0     H 3197  11.270   4.497   0.004 -2.1150  0.4909  0.6840
   24MOL0     H 3198  11.446   4.321   0.042 -0.9216 -0.0229 -0.5652
   24MOL0     H 3199  11.481   4.406   0.203 -2.7294  4.5710  1.4514
   24MOL0     H 3200  11.682   4.699  -0.054 -0.0853 -0.2761  1.3830
   24MOL0     H 3201  11.929   4.708  -0.055 -0.6595 -0.3626 -4.2602
   24MOL0     H 3202  12.370   4.441   0.265 -2.8219 -2.4631  0.0439
   24MOL0     H 3203  12.605   4.387   0.217 -0.7436  1.5217  0.1977
   24MOL0     H 3204  12.784   4.394   0.144  1.1253  1.7231 -2.2651
   24MOL0     H 3205  12.809   4.222   0.139 -2.2060  1.3833  3.4608
   24MOL0     H 3206  12.945   4.421  -0.026 -2.2529  1.1251 -0.2929
   24MOL0     H 3207  13.004   4.342   0.112 -1.6329  0.7566  0.8104
   24MOL0     H 3208  12.987   4.114  -0.006 -0.6235  0.2752  0.6297
   24MOL0     H 3209  12.950   4.201  -0.161  2.5626  0.6776 -1.7503
   24MOL0     H 3210  13.179   4.308  -0.014  2.4540 -3.0478  2.4043
   24MOL0     H 3211  13.144   4.303  -0.177  0.5667 -0.1631  0.0940
   24MOL0     H 3212  13.198   4.025  -0.111  0.2595  0.2622 -0.9207
   24MOL0     H 3213  13.250   4.111   0.039  0.6449  1.6266 -0.1915
   24MOL0     H 3214  13.349   4.177  -0.237  0.0017 -1.2678 -0.1136
   24MOL0     H 3215  13.401   4.245  -0.076  2.9832 -1.4952  1.1132
   24MOL0     H 3216  13.543   4.072  -0.177  1.5145 -1.9108  1.0062
   24MOL0     H 3217  13.417   3.954  -0.139 -0.7719  0.3037 -1.4585
   24MOL0     H 3218  13.567   4.134   0.067 -0.0533  1.1922  0.8838
   24MOL0     H 3219  13.450   3.995   0.097 -0.1933  1.6598 -0.5870
   24MOL0     H 3220  12.504   4.259  -0.174  2.0979  0.3942 -0.0086
   24MOL0     H 3221  12.262   4.317  -0.129 -0.7467 -1.3571  1.3268
   24MOL0     H 3222  11.935   4.297   0.075  0.5762 -0.3165 -6.0202
   24MOL0     H 3223  11.685   4.305   0.107  2.6866 -1.5326 -0.8806
   24MOL0     H 3224  10.583   3.939   1.098 -1.3347 -2.5231  3.0157
   24MOL0     H 3225  10.624   3.830   1.296 -2.1196 -0.6017 -1.1040
   24MOL0     H 3226  10.478   3.388   1.552  0.2947 -3.0760 -2.2214
   24MOL0     H 3227  10.535   3.204   1.705  0.7824 -0.9783  0.2706
   24MOL0     H 3228  10.723   3.290   1.943 -1.5517  0.2661 -0.7535
   24MOL0     H 3229  10.783   3.141   2.013  1.1573 -0.4871 -0.1634
   24MOL0     H 3230  10.496   3.177   1.926  0.2578  0.2425 -0.1846
   24MOL0     H 3231  10.574   3.121   2.075  0.7860  3.5616 -0.0491
   24MOL0     H 3232  10.669   2.941   1.961  0.5543  1.6043 -0.1471
   24MOL0     H 3233  10.608   2.969   1.807  2.1100  0.0854  0.5850
   24MOL0     H 3234  10.463   2.798   1.911 -1.8180 -0.8147  0.1043
   24MOL0     H 3235  10.411   2.909   2.039  3.4878 -0.3509  1.8893
   24MOL0     H 3236  10.186   2.998   1.698 -0.0011 -1.3265 -0.0304
   24MOL0     H 3237  10.943   3.283   1.679 -1.8532  0.1034  0.1133
   24MOL0     H 3238  10.939   3.390   1.372  1.8257  0.0959  0.1274
   24MOL0     H 3239  10.930   3.551   1.452  2.4459  0.2373  2.5748
   24MOL0     H 3240  11.024   3.418   1.528 -0.6463 -3.2170  0.3536
   25MOL0     O 3241   3.380   2.189   1.942  0.6026 -0.6082 -0.1142
   25MOL0     C 3242   3.303   2.143   2.028 -0.5275  0.2727 -0.1306
   25MOL0     O 3243   3.343   2.082   2.146  0.4239  0.1755  0.0447
   25MOL0     C 3244   3.475   2.038   2.155 -0.1829  0.2332  0.3535
   25MOL0     C 3245   3.513   1.935   2.068 -0.3128  0.2441 -0.1798
   25MOL0     C 3246   3.648   1.886   2.071 -0.1087 -0.4994 -0.5544
   25MOL0     C 3247   3.738   1.929   2.171 -0.3178  0.0886 -0.6567
   25MOL0     O 3248   3.859   1.853   2.170  0.1999 -0.8818  0.2738
   25MOL0     C 3249   3.914   1.813   2.298  0.1797 -0.6722  0.6211
   25MOL0     C 3250   3.994   1.684   2.307  0.1506 -0.2050 -0.2123
   25MOL0     C 3251   3.915   1.555   2.316 -0.1871  0.2987  0.6641
   25MOL0     C 3252   3.995   1.438   2.378 -0.5309  0.0002  0.3618
   25MOL0     C 3253   4.113   1.395   2.289 -0.0065 -0.3066  0.1608
   25MOL0     C 3254   4.187   1.275   2.364 -0.6183 -0.4361  0.2080
   25MOL0     C 3255   4.297   1.211   2.268  0.2712 -0.2028 -0.2644
   25MOL0     C 3256   4.369   1.106   2.342 -0.3056  0.0379 -0.0003
   25MOL0     N 3257   4.394   0.984   2.260 -0.5425 -0.5056  0.5988
   25MOL0     C 3258   4.494   0.983   2.166  0.7026  0.7349  0.0278
   25MOL0     C 3259   4.481   0.858   2.118  0.0269 -0.7819 -0.0748
   25MOL0     C 3260   4.559   0.788   2.018 -0.7813  0.4722  1.1708
   25MOL0     C 3261   4.612   0.883   1.910  0.1922  0.3778 -0.2173
   25MOL0     C 3262   4.659   0.796   1.796 -0.8039 -0.5980 -0.0926
   25MOL0     C 3263   4.788   0.712   1.833  0.2565 -0.9126  1.0621
   25MOL0     O 3264   4.844   0.634   1.720  0.0982  0.0160  0.4404
   25MOL0     C 3265   4.948   0.550   1.749 -0.9432  0.2593 -0.2448
   25MOL0     C 3266   5.013   0.469   1.655 -0.3829 -0.5237 -0.1511
   25MOL0     C 3267   5.117   0.372   1.674  0.2385  0.0708  0.1289
   25MOL0     C 3268   5.180   0.364   1.801  0.4961 -0.0277 -0.3965
   25MOL0     C 3269   5.294   0.269   1.823 -0.5333  0.3468 -0.5658
   25MOL0     O 3270   5.377   0.296   1.923  0.1943 -0.0337  0.0952
   25MOL0     C 3271   5.502   0.244   1.911 -0.1117 -0.1361  0.3668
   25MOL0     C 3272   5.589   0.295   1.812  0.1301 -0.5788 -0.4913
   25MOL0     C 3273   5.724   0.260   1.808  0.4364 -0.6197  0.2120
   25MOL0     C 3274   5.770   0.171   1.891  0.1681  0.1126 -0.2934
   25MOL0     O 3275   5.907   0.131   1.882 -1.0191 -0.4088 -0.5587
   25MOL0     C 3276   5.966   0.041   1.982  0.6369 -0.8879  0.5573
   25MOL0     C 3277   6.109   0.004   1.949 -0.8666 -0.6416  0.0808
   25MOL0     C 3278   6.136  -0.143   2.013  0.8979  0.0344 -0.0458
   25MOL0     C 3279   6.270  -0.141   2.097 -0.0321 -0.4871  0.8373
   25MOL0     C 3280   6.299  -0.290   2.139 -0.5929 -0.1627  0.1643
   25MOL0     C 3281   6.437  -0.321   2.220 -0.0219  0.0850 -0.3056
   25MOL0     C 3282   6.455  -0.471   2.243 -0.3112  0.0351 -0.3253
   25MOL0     C 3283   6.587  -0.499   2.321  0.7415  0.0256 -0.5368
   25MOL0    Cl 3284   6.551  -0.455   2.492  0.1059 -0.5984  0.1677
   25MOL0     C 3285   5.684   0.114   1.990 -0.2762  0.0819  0.0575
   25MOL0     C 3286   5.553   0.145   1.991  0.8898 -0.0996 -0.8041
   25MOL0     O 3287   5.313   0.185   1.741 -0.5028  1.0819 -0.3120
   25MOL0     C 3288   5.124   0.440   1.909  0.3250 -0.8315  0.7457
   25MOL0     C 3289   5.010   0.530   1.875 -0.6739 -0.2880 -1.0137
   25MOL0     N 3290   4.392   0.781   2.191  0.3478 -0.1445  0.2195
   25MOL0     N 3291   4.335   0.860   2.280  0.5058 -0.4544 -0.4963
   25MOL0     C 3292   3.699   2.040   2.255  0.4889  0.2954  0.4812
   25MOL0     C 3293   3.565   2.092   2.246  0.4477  0.1909 -0.1984
   25MOL0     C 3294   3.156   2.147   1.997 -0.2740  0.2226  0.3886
   25MOL0     C 3295   3.075   2.109   2.101 -1.0007 -0.3185 -0.0620
   25MOL0     C 3296   2.936   2.101   2.093 -0.4644 -1.1750  1.0388
   25MOL0     C 3297   2.882   2.129   1.967  0.5838 -0.2322 -0.8775
   25MOL0     O 3298   2.747   2.134   1.959 -0.2107  0.4870  0.2101
   25MOL0     C 3299   2.675   2.245   2.009  1.0322 -0.4440  0.5815
   25MOL0     C 3300   2.620   2.332   1.897 -0.1530 -0.1788 -0.2767
   25MOL0     C 3301   2.526   2.439   1.948  0.2492 -0.6279  0.0951
   25MOL0     C 3302   2.503   2.552   1.848 -0.0254 -0.8978 -0.3131
   25MOL0     C 3303   2.400   2.649   1.893  0.1367  0.6709 -0.2078
   25MOL0     C 3304   2.308   2.713   1.940  0.2115  0.4459  0.4013
   25MOL0     C 3305   2.962   2.160   1.854  0.5861  0.3375 -0.1194
   25MOL0     C 3306   3.103   2.169   1.865 -0.0896  0.8554 -0.1394
   25MOL0     C 3307   3.184   2.196   1.738 -0.2456  0.3145  0.6910
   25MOL0     H 3308   3.426   1.895   2.017 -2.7778  2.9908  1.5391
   25MOL0     H 3309   3.676   1.814   1.995 -0.2720  0.3485 -1.4476
   25MOL0     H 3310   3.985   1.886   2.338  2.2626 -1.6934 -0.9841
   25MOL0     H 3311   3.825   1.814   2.361  0.1062  2.6495  0.6425
   25MOL0     H 3312   4.050   1.688   2.401 -2.4886  0.6214  1.4254
   25MOL0     H 3313   4.063   1.679   2.222  1.8323 -0.4064  1.1017
   25MOL0     H 3314   3.880   1.524   2.217  1.1128  0.8842 -0.0026
   25MOL0     H 3315   3.823   1.569   2.373 -0.6787  2.2092 -0.5049
   25MOL0     H 3316   4.041   1.468   2.472 -1.0507 -0.7873  0.8774
   25MOL0     H 3317   3.928   1.352   2.388 -0.1474 -0.0464  3.7245
   25MOL0     H 3318   4.082   1.376   2.185 -0.0901 -2.9678  0.6000
   25MOL0     H 3319   4.190   1.472   2.276 -0.6248 -0.1448 -3.7892
   25MOL0     H 3320   4.232   1.317   2.454  2.1179 -1.0559 -0.7698
   25MOL0     H 3321   4.112   1.199   2.389 -0.4552 -1.3564 -1.9091
   25MOL0     H 3322   4.366   1.290   2.237  0.5606  0.8337  2.7216
   25MOL0     H 3323   4.253   1.175   2.174 -2.2162 -0.1055  0.7912
   25MOL0     H 3324   4.462   1.145   2.383  0.0326 -0.0681 -0.6521
   25MOL0     H 3325   4.304   1.065   2.420  0.5982 -0.0985  0.6956
   25MOL0     H 3326   4.568   1.056   2.134  2.3140 -2.2279 -3.8249
   25MOL0     H 3327   4.646   0.753   2.073 -0.7746  2.5647  2.6220
   25MOL0     H 3328   4.517   0.697   1.973 -0.2113  0.1800  1.2178
   25MOL0     H 3329   4.539   0.953   1.868  0.8885  1.3165  0.0913
   25MOL0     H 3330   4.690   0.945   1.956  0.0870  0.3026  0.0649
   25MOL0     H 3331   4.684   0.872   1.722  0.9420  3.3424  4.0721
   25MOL0     H 3332   4.578   0.737   1.752 -4.0042  3.6174 -0.4856
   25MOL0     H 3333   4.762   0.654   1.922 -2.3983  0.3289  1.1836
   25MOL0     H 3334   4.854   0.796   1.856  0.2991  0.6675 -3.7649
   25MOL0     H 3335   4.965   0.473   1.558 -0.4196 -0.8238 -0.1477
   25MOL0     H 3336   5.166   0.319   1.593  1.6685  0.7577  0.4923
   25MOL0     H 3337   5.556   0.375   1.746 -3.4110  0.3756  2.1508
   25MOL0     H 3338   5.801   0.307   1.747 -0.1256 -1.1102 -0.9182
   25MOL0     H 3339   5.965   0.088   2.081 -0.2698  1.2692 -0.4095
   25MOL0     H 3340   5.913  -0.054   1.976  2.8028 -2.0882 -0.8600
   25MOL0     H 3341   6.126   0.012   1.841 -0.5694  1.1139  0.2414
   25MOL0     H 3342   6.173   0.081   1.992 -0.6291  0.3677 -1.9533
   25MOL0     H 3343   6.058  -0.176   2.083 -0.0137  1.2245 -0.4504
   25MOL0     H 3344   6.135  -0.217   1.932 -0.6200 -1.4629  1.2788
   25MOL0     H 3345   6.263  -0.073   2.182 -0.5351  0.4779  0.0417
   25MOL0     H 3346   6.353  -0.102   2.037  0.3873 -2.3490  0.1270
   25MOL0     H 3347   6.299  -0.345   2.044 -2.5506  0.1232 -0.0385
   25MOL0     H 3348   6.218  -0.322   2.206 -0.2483  1.1936  1.2743
   25MOL0     H 3349   6.523  -0.274   2.172  0.9841 -1.2302  0.1887
   25MOL0     H 3350   6.416  -0.276   2.318 -0.3453 -0.9988  0.1375
   25MOL0     H 3351   6.472  -0.512   2.143  3.1584  0.1945  0.0769
   25MOL0     H 3352   6.375  -0.518   2.301 -1.7308 -0.3169 -2.4476
   25MOL0     H 3353   6.601  -0.607   2.314 -1.0315 -0.3310  0.7886
   25MOL0     H 3354   6.680  -0.449   2.291  3.1308 -3.1120  1.0963
   25MOL0     H 3355   5.723   0.038   2.056  0.1156 -0.1635 -0.4516
   25MOL0     H 3356   5.479   0.103   2.059  1.3362 -3.5346 -2.2067
   25MOL0     H 3357   5.166   0.440   2.009  1.0087  0.6224  0.4856
   25MOL0     H 3358   4.965   0.576   1.962  1.8778 -0.9859  0.7821
   25MOL0     H 3359   3.777   2.079   2.320  1.2603  0.0239 -0.2671
   25MOL0     H 3360   3.528   2.175   2.306  0.9023 -1.2202  2.1938
   25MOL0     H 3361   3.106   2.077   2.200  2.0473  1.3909 -0.3662
   25MOL0     H 3362   2.873   2.070   2.175 -0.3675 -2.0607  0.7845
   25MOL0     H 3363   2.733   2.288   2.091  3.1917 -2.3335  0.1429
   25MOL0     H 3364   2.583   2.208   2.054 -0.1251  1.0517 -0.4774
   25MOL0     H 3365   2.582   2.270   1.815 -1.0917  0.9369 -0.7093
   25MOL0     H 3366   2.705   2.394   1.869 -0.4253  1.6303  2.5319
   25MOL0     H 3367   2.563   2.488   2.038 -0.6945 -1.8378  1.1878
   25MOL0     H 3368   2.438   2.390   1.990  2.1504 -2.3561  2.3041
   25MOL0     H 3369   2.596   2.609   1.854 -0.3531 -0.5064  1.2096
   25MOL0     H 3370   2.498   2.529   1.741  0.4305  3.8311 -1.5463
   25MOL0     H 3371   2.226   2.765   1.986  0.4389 -0.2346  1.6059
   25MOL0     H 3372   2.908   2.162   1.759 -0.2114  1.6321  0.3403
   25MOL0     H 3373   3.220   2.299   1.742 -2.2461  1.1656 -1.0749
   25MOL0     H 3374   3.266   2.124   1.731 -1.7736 -1.3564 -2.0393
   25MOL0     H 3375   3.116   2.179   1.654  2.6977  0.8346 -1.9734
   26MOL0     O 3376   7.234   0.110   4.196  0.0956 -0.5092 -0.4238
   26MOL0     C 3377   7.136   0.174   4.175 -1.1198 -0.0527  0.0208
   26MOL0     O 3378   7.136   0.312   4.183 -0.4200  0.1342  0.0467
   26MOL0     C 3379   7.259   0.381   4.191  0.5872 -0.5825 -0.2797
   26MOL0     C 3380   7.299   0.436   4.313 -0.5991  0.4293  0.1283
   26MOL0     C 3381   7.419   0.504   4.322  1.5901 -0.4887  0.6335
   26MOL0     C 3382   7.499   0.526   4.219  0.2015  0.6079  0.9696
   26MOL0     O 3383   7.622   0.590   4.230 -0.3212  0.4299  0.2306
   26MOL0     C 3384   7.697   0.529   4.338  0.9163 -0.0235 -0.5770
   26MOL0     C 3385   7.848   0.542   4.289 -0.3740 -0.5587  0.7690
   26MOL0     C 3386   7.874   0.470   4.150 -0.1712 -0.4947  0.1110
   26MOL0     C 3387   7.824   0.320   4.155  0.7956 -0.3009 -0.4149
   26MOL0     C 3388   7.862   0.241   4.025 -0.0241 -0.1474 -0.1883
   26MOL0     C 3389   7.744   0.155   3.988 -0.2155  0.2476 -1.0130
   26MOL0     C 3390   7.789   0.049   3.881 -0.2220  0.9384 -0.7888
   26MOL0     C 3391   7.712  -0.084   3.900  0.5114 -1.1292 -0.2767
   26MOL0     N 3392   7.763  -0.178   3.800 -0.5889 -0.5751  0.0815
   26MOL0     C 3393   7.685  -0.242   3.709  0.3939 -0.0708  1.1439
   26MOL0     C 3394   7.767  -0.319   3.634  0.5086 -0.5098  0.1722
   26MOL0     C 3395   7.730  -0.413   3.517  0.3861  0.3644  0.6013
   26MOL0     C 3396   7.614  -0.513   3.552 -0.0679 -0.2015 -0.4287
   26MOL0     C 3397   7.581  -0.590   3.427  1.4089  0.0776 -0.3837
   26MOL0     C 3398   7.495  -0.523   3.317 -0.0335 -0.1725 -0.3615
   26MOL0     O 3399   7.574  -0.419   3.247 -0.0010  0.3344 -0.5266
   26MOL0     C 3400   7.644  -0.440   3.139  0.7761  0.6950 -0.0966
   26MOL0     C 3401   7.701  -0.332   3.076  0.6992  0.7457  0.8243
   26MOL0     C 3402   7.771  -0.347   2.962 -0.3815  0.7140 -0.2530
   26MOL0     C 3403   7.795  -0.471   2.905  0.4823  0.2782  0.7317
   26MOL0     C 3404   7.872  -0.494   2.788  0.0086 -0.5715  0.2364
   26MOL0     O 3405   7.912  -0.625   2.764  0.1809  0.4193 -0.8664
   26MOL0     C 3406   8.032  -0.658   2.721 -0.8070 -0.4030 -0.4432
   26MOL0     C 3407   8.136  -0.574   2.666  0.7263 -0.0500  0.4528
   26MOL0     C 3408   8.262  -0.628   2.634  0.3640  0.4159 -0.1119
   26MOL0     C 3409   8.292  -0.755   2.675 -0.6397 -0.0595  0.2931
   26MOL0     O 3410   8.406  -0.820   2.655 -0.5222 -1.1474  0.3031
   26MOL0     C 3411   8.521  -0.748   2.627  0.3542  0.0759  0.0791
   26MOL0     C 3412   8.641  -0.840   2.644 -0.0720  0.0262  0.4931
   26MOL0     C 3413   8.755  -0.759   2.599 -0.1211 -0.6263  0.6017
   26MOL0     C 3414   8.895  -0.827   2.641 -0.6906 -0.7290 -0.7735
   26MOL0     C 3415   9.005  -0.722   2.605  0.8241  0.2183  0.1410
   26MOL0     C 3416   9.149  -0.761   2.637 -0.2955  0.8982 -0.9205
   26MOL0     C 3417   9.168  -0.753   2.793  0.6497  0.4374 -0.1384
   26MOL0     C 3418   9.318  -0.760   2.827  0.6899  0.1519  0.1323
   26MOL0    Cl 3419   9.393  -0.910   2.788  0.0196 -0.1020 -0.1999
   26MOL0     C 3420   8.183  -0.842   2.717  0.7528  0.0645 -0.9512
   26MOL0     C 3421   8.059  -0.791   2.738  0.2239  0.2159  0.4596
   26MOL0     O 3422   7.888  -0.408   2.704 -0.1304  0.2693  0.1255
   26MOL0     C 3423   7.751  -0.593   2.970  0.2184  0.1525  0.5204
   26MOL0     C 3424   7.683  -0.571   3.093 -0.5600 -0.3596 -0.2508
   26MOL0     N 3425   7.891  -0.307   3.687 -0.3179  0.5124  0.1581
   26MOL0     N 3426   7.892  -0.221   3.792  0.6854 -0.3649  0.1805
   26MOL0     C 3427   7.464   0.467   4.097  0.1912 -0.6690 -0.3988
   26MOL0     C 3428   7.341   0.399   4.085 -0.2030  0.4854  0.0645
   26MOL0     C 3429   7.009   0.103   4.136 -0.2772  0.6897 -0.4613
   26MOL0     C 3430   7.002  -0.043   4.164 -0.1442 -0.0612  0.9770
   26MOL0     C 3431   6.898  -0.115   4.103 -0.7199 -0.5819  0.0009
   26MOL0     C 3432   6.795  -0.062   4.037 -0.6236 -0.2292  1.0275
   26MOL0     O 3433   6.705  -0.142   3.974  0.1229 -0.5880 -0.8111
   26MOL0     C 3434   6.639  -0.227   4.073  0.5376  0.1168  0.1765
   26MOL0     C 3435   6.499  -0.187   4.109  0.0908  0.3302 -0.2665
   26MOL0     C 3436   6.495  -0.038   4.177 -0.2251 -0.1021  0.9428
   26MOL0     C 3437   6.357  -0.017   4.252  0.3324 -0.0060 -0.0694
   26MOL0     C 3438   6.238  -0.030   4.165  0.4307  0.4671 -0.0742
   26MOL0     C 3439   6.143  -0.032   4.088  0.2539 -0.1865 -0.3312
   26MOL0     C 3440   6.795   0.076   4.014  0.1969 -0.3730  0.3111
   26MOL0     C 3441   6.891   0.160   4.071 -0.2629  0.4071 -0.2375
   26MOL0     C 3442   6.890   0.309   4.067 -0.3622 -0.1291  0.3023
   26MOL0     H 3443   7.248   0.414   4.406  0.5214  0.4941  0.7734
   26MOL0     H 3444   7.447   0.555   4.414  1.8594  0.2884  0.1376
   26MOL0     H 3445   7.695   0.586   4.431  3.6013  0.1649 -0.5405
   26MOL0     H 3446   7.674   0.425   4.363  0.7253 -0.1577 -1.2838
   26MOL0     H 3447   7.909   0.498   4.368  2.2771  0.5586 -0.5264
   26MOL0     H 3448   7.879   0.645   4.269 -0.8478 -1.1398 -4.6881
   26MOL0     H 3449   7.978   0.456   4.116  0.0443  4.7939 -2.3962
   26MOL0     H 3450   7.814   0.515   4.071 -0.6535 -2.3114 -0.6115
   26MOL0     H 3451   7.868   0.270   4.242 -1.1140 -3.5115 -1.1128
   26MOL0     H 3452   7.717   0.321   4.175  1.0983  0.8862  1.4139
   26MOL0     H 3453   7.885   0.304   3.939  1.7183 -2.1018 -1.2526
   26MOL0     H 3454   7.946   0.172   4.038 -0.3317 -1.4858 -4.0063
   26MOL0     H 3455   7.704   0.107   4.079  0.2593  0.6926 -0.5619
   26MOL0     H 3456   7.675   0.213   3.927  0.4165  0.5514 -1.4527
   26MOL0     H 3457   7.896   0.029   3.878 -0.1266  1.5403 -2.2838
   26MOL0     H 3458   7.767   0.090   3.782  0.2852 -0.9566 -1.7236
   26MOL0     H 3459   7.725  -0.116   4.004  0.7679  4.2426  1.6602
   26MOL0     H 3460   7.608  -0.054   3.888  0.8690  0.1852 -0.1958
   26MOL0     H 3461   7.583  -0.221   3.680  0.4447  0.9205  1.6482
   26MOL0     H 3462   7.715  -0.346   3.432  2.0333 -2.0268 -1.7126
   26MOL0     H 3463   7.814  -0.478   3.491 -0.6832 -1.9219  2.4155
   26MOL0     H 3464   7.656  -0.570   3.635  0.5218  2.3705  1.1408
   26MOL0     H 3465   7.520  -0.476   3.594 -0.9849 -4.7599  2.2093
   26MOL0     H 3466   7.525  -0.677   3.462 -4.5195  3.8354  0.8970
   26MOL0     H 3467   7.660  -0.631   3.364  0.2506  0.5120 -2.1958
   26MOL0     H 3468   7.409  -0.477   3.366  0.9061  0.8615  0.3885
   26MOL0     H 3469   7.456  -0.607   3.260  2.5664 -2.4142  0.9358
   26MOL0     H 3470   7.690  -0.229   3.108  0.6909  1.5208 -1.4762
   26MOL0     H 3471   7.823  -0.259   2.923  1.3560  1.0612  2.5027
   26MOL0     H 3472   8.115  -0.475   2.628 -0.0618 -0.7728 -1.0713
   26MOL0     H 3473   8.331  -0.563   2.582  0.4491  3.3039  3.2343
   26MOL0     H 3474   8.521  -0.691   2.534 -0.0181 -0.0884 -0.0250
   26MOL0     H 3475   8.540  -0.677   2.708  0.2807  2.8871 -2.2130
   26MOL0     H 3476   8.661  -0.856   2.751  1.1231 -0.2608  0.2413
   26MOL0     H 3477   8.623  -0.929   2.583 -3.8416 -0.1141  1.5869
   26MOL0     H 3478   8.755  -0.763   2.490  0.2613 -0.9764  0.6105
   26MOL0     H 3479   8.750  -0.654   2.628  2.0539 -0.8651  2.1423
   26MOL0     H 3480   8.914  -0.921   2.589 -0.1980 -1.1862  0.2128
   26MOL0     H 3481   8.905  -0.852   2.747 -3.4344 -0.5254 -0.3969
   26MOL0     H 3482   8.988  -0.627   2.655 -1.1332 -0.0255  0.0355
   26MOL0     H 3483   8.993  -0.712   2.497  0.4047 -3.3666 -0.2812
   26MOL0     H 3484   9.170  -0.864   2.608  1.5143  0.5608  1.2595
   26MOL0     H 3485   9.215  -0.691   2.585  1.2037  0.1813 -0.0723
   26MOL0     H 3486   9.116  -0.825   2.857  5.2274 -2.1466  1.1382
   26MOL0     H 3487   9.139  -0.651   2.821  0.6034 -0.1042  1.9196
   26MOL0     H 3488   9.351  -0.678   2.761  0.4615 -0.2506 -0.4941
   26MOL0     H 3489   9.339  -0.737   2.932  0.1527  2.5951 -0.2268
   26MOL0     H 3490   8.207  -0.942   2.754 -0.0153  0.6689  1.3452
   26MOL0     H 3491   7.983  -0.865   2.761 -0.8514  0.6627 -1.4532
   26MOL0     H 3492   7.757  -0.697   2.940 -0.1873 -0.0318  1.0512
   26MOL0     H 3493   7.657  -0.660   3.151  0.2896 -0.4092  0.0748
   26MOL0     H 3494   7.523   0.481   4.007 -0.2776  0.9940 -0.4895
   26MOL0     H 3495   7.315   0.346   3.994 -2.0868 -0.5245  1.1244
   26MOL0     H 3496   7.086  -0.090   4.215  0.2760  0.7215  1.0147
   26MOL0     H 3497   6.903  -0.222   4.119 -2.2015 -0.6506  0.1180
   26MOL0     H 3498   6.696  -0.225   4.166 -2.6420  0.4409  2.2861
   26MOL0     H 3499   6.641  -0.329   4.031 -0.5580 -0.7861  2.2100
   26MOL0     H 3500   6.460  -0.269   4.171 -2.5454  2.3424  0.9736
   26MOL0     H 3501   6.446  -0.183   4.013 -1.6406  0.8526  0.6533
   26MOL0     H 3502   6.488   0.029   4.091  0.8357 -1.7460 -0.4936
   26MOL0     H 3503   6.575  -0.008   4.245  1.0446  1.4628 -1.1298
   26MOL0     H 3504   6.353  -0.097   4.326 -1.5408 -1.1122 -1.2917
   26MOL0     H 3505   6.344   0.083   4.295 -0.2797 -0.0299 -0.1841
   26MOL0     H 3506   6.077  -0.045   4.005  2.4554 -1.9764 -1.9499
   26MOL0     H 3507   6.712   0.117   3.956 -0.5421  0.3469  1.8311
   26MOL0     H 3508   6.892   0.356   4.166  2.1496  0.4693  0.0239
   26MOL0     H 3509   6.962   0.338   3.990  0.9859 -3.2420  0.2680
   26MOL0     H 3510   6.791   0.332   4.025  0.2171 -0.8491 -1.5471
   27MOL0     O 3511  10.274   2.788   2.908 -0.0617  0.2811 -0.1199
   27MOL0     C 3512  10.241   2.686   2.851 -0.6745 -0.6533 -0.1382
   27MOL0     O 3513  10.119   2.671   2.792 -0.0291  0.4404 -0.1454
   27MOL0     C 3514  10.009   2.746   2.834  0.4225 -0.1961  0.2114
   27MOL0     C 3515   9.970   2.757   2.971 -0.0209  0.5448 -0.5137
   27MOL0     C 3516   9.859   2.826   3.000  0.6864  0.2298 -1.0222
   27MOL0     C 3517   9.782   2.891   2.905  0.6579 -0.1998  0.0441
   27MOL0     O 3518   9.671   2.956   2.953 -0.2913  1.0913 -0.2679
   27MOL0     C 3519   9.592   3.038   2.872 -0.6363  0.2008  0.0280
   27MOL0     C 3520   9.471   3.069   2.945  0.5765 -0.3799  0.7066
   27MOL0     C 3521   9.380   2.952   2.993 -0.8371  0.0104 -0.3141
   27MOL0     C 3522   9.236   3.012   3.008 -0.0014 -0.2871 -0.1157
   27MOL0     C 3523   9.132   2.899   3.045  0.3476  0.6666 -0.0953
   27MOL0     C 3524   9.015   2.936   3.138 -0.3866  0.1938 -0.4002
   27MOL0     C 3525   8.889   2.977   3.062  0.2459  0.3195  0.0603
   27MOL0     C 3526   8.892   3.104   2.988 -0.9613 -0.6438 -0.7780
   27MOL0     N 3527   8.909   3.217   3.080 -0.8121 -0.1145 -0.3691
   27MOL0     C 3528   9.007   3.305   3.079  0.1398 -0.2831 -0.6037
   27MOL0     C 3529   8.995   3.378   3.193  0.4687  0.2595  0.0242
   27MOL0     C 3530   9.079   3.495   3.250  0.2014 -0.1627  0.1113
   27MOL0     C 3531   9.201   3.435   3.284 -0.6280 -0.4049 -0.1193
   27MOL0     C 3532   9.213   3.362   3.418 -0.4155  0.4088  0.2539
   27MOL0     C 3533   9.178   3.219   3.419  0.2210 -0.2868  0.0666
   27MOL0     O 3534   9.251   3.144   3.518 -0.6373 -0.4047 -0.1154
   27MOL0     C 3535   9.391   3.145   3.502  0.7353  0.5765  0.0364
   27MOL0     C 3536   9.451   3.123   3.382 -0.2401 -0.0203  0.2941
   27MOL0     C 3537   9.593   3.119   3.388 -0.4131 -0.3838 -0.4321
   27MOL0     C 3538   9.665   3.137   3.511  0.7122 -0.5463  0.1218
   27MOL0     C 3539   9.815   3.129   3.515 -0.9630  0.4979  0.1763
   27MOL0     O 3540   9.872   3.123   3.636  0.0739  0.0141  0.3070
   27MOL0     C 3541  10.010   3.134   3.646 -0.4067 -0.2962 -0.6581
   27MOL0     C 3542  10.078   3.250   3.703  0.4450  0.5755 -0.2312
   27MOL0     C 3543  10.218   3.244   3.710 -0.5554 -0.3383  1.0180
   27MOL0     C 3544  10.297   3.134   3.672 -0.0289 -0.7085 -0.5166
   27MOL0     O 3545  10.435   3.140   3.700 -0.0264  0.1589  0.5887
   27MOL0     C 3546  10.501   3.021   3.728  0.8395 -0.2797 -0.2918
   27MOL0     C 3547  10.655   3.022   3.764 -0.1356  0.2980  1.1792
   27MOL0     C 3548  10.699   3.116   3.877 -1.0140 -0.0588 -0.5826
   27MOL0     C 3549  10.643   3.087   4.012  0.9074 -1.0128 -0.2412
   27MOL0     C 3550  10.710   2.967   4.080 -0.2786  0.0660  0.1168
   27MOL0     C 3551  10.622   2.911   4.194  0.4442  0.1509  0.1042
   27MOL0     C 3552  10.705   2.815   4.287 -0.5682  0.1127  0.2302
   27MOL0     C 3553  10.617   2.724   4.377  0.7151  0.2339 -0.0751
   27MOL0    Cl 3554  10.516   2.621   4.266 -0.0947  0.5523 -0.2516
   27MOL0     C 3555  10.234   3.026   3.612 -0.0615  0.5779 -0.1168
   27MOL0     C 3556  10.092   3.023   3.603 -1.1635 -0.0296  0.2587
   27MOL0     O 3557   9.872   3.122   3.408  0.5188 -0.1383 -0.2375
   27MOL0     C 3558   9.590   3.147   3.637 -0.0763  0.6723  0.9247
   27MOL0     C 3559   9.450   3.153   3.629  0.5974  0.8395  0.5086
   27MOL0     N 3560   8.876   3.335   3.262  0.0585  0.1181  0.7285
   27MOL0     N 3561   8.829   3.242   3.191 -0.8482  0.3394  1.0201
   27MOL0     C 3562   9.816   2.872   2.770  0.3660 -0.0756 -0.4132
   27MOL0     C 3563   9.927   2.799   2.737  0.4188  0.0238 -0.1301
   27MOL0     C 3564  10.342   2.585   2.819 -0.3231 -0.2667  0.1562
   27MOL0     C 3565  10.468   2.601   2.879 -0.0344  1.1855 -0.0137
   27MOL0     C 3566  10.564   2.510   2.852  0.5412  0.1135 -1.2159
   27MOL0     C 3567  10.541   2.407   2.769  0.0721  0.5159  0.0696
   27MOL0     O 3568  10.648   2.325   2.722  0.7316 -0.1437 -0.2458
   27MOL0     C 3569  10.768   2.303   2.790 -0.3814  0.2322 -0.3916
   27MOL0     C 3570  10.867   2.219   2.701 -0.0622 -1.4234 -0.0260
   27MOL0     C 3571  10.931   2.310   2.590  0.0471  0.0180 -0.2951
   27MOL0     C 3572  11.069   2.260   2.547  0.3323 -0.0135  0.1301
   27MOL0     C 3573  11.111   2.333   2.422 -0.8529 -0.5327 -0.6085
   27MOL0     C 3574  11.152   2.401   2.331  0.8812  0.5810  0.0270
   27MOL0     C 3575  10.426   2.393   2.696  0.1834  0.8016  0.3858
   27MOL0     C 3576  10.317   2.485   2.721 -0.4343  0.8415  0.9372
   27MOL0     C 3577  10.187   2.453   2.659  0.2324 -0.0824 -0.4628
   27MOL0     H 3578  10.028   2.696   3.039 -0.9188  1.4537  1.1269
   27MOL0     H 3579   9.812   2.823   3.098  1.5702  0.2853 -0.5843
   27MOL0     H 3580   9.643   3.129   2.839 -0.8171  1.1356  2.1419
   27MOL0     H 3581   9.568   2.980   2.782 -0.1427 -2.3715  1.4347
   27MOL0     H 3582   9.417   3.125   2.867  0.2250 -0.3512  0.9654
   27MOL0     H 3583   9.494   3.135   3.029  0.4957  1.2728 -0.5263
   27MOL0     H 3584   9.423   2.908   3.083 -0.8292 -4.0646 -2.0948
   27MOL0     H 3585   9.383   2.865   2.927  0.3412 -1.3516  1.4348
   27MOL0     H 3586   9.228   3.090   3.084  0.8408 -0.4781  0.1806
   27MOL0     H 3587   9.202   3.063   2.918  0.1788  0.8381  0.4452
   27MOL0     H 3588   9.104   2.848   2.952 -0.0679 -3.5372  2.0608
   27MOL0     H 3589   9.183   2.825   3.108 -1.8552 -2.2989 -1.5253
   27MOL0     H 3590   8.997   2.842   3.190  0.3903 -0.3980 -1.1542
   27MOL0     H 3591   9.042   3.013   3.210  0.2448 -0.2887 -0.1078
   27MOL0     H 3592   8.813   2.996   3.139  0.1750  0.6028 -0.0806
   27MOL0     H 3593   8.875   2.893   2.993  0.7496  0.2726  0.0157
   27MOL0     H 3594   8.970   3.096   2.912 -1.9592  0.8623 -2.0273
   27MOL0     H 3595   8.790   3.113   2.951 -1.3312 -1.4933 -0.0072
   27MOL0     H 3596   9.087   3.322   3.009  2.2318  0.1182  1.7511
   27MOL0     H 3597   9.088   3.572   3.173 -3.6053 -0.0999 -0.4427
   27MOL0     H 3598   9.028   3.543   3.334 -0.2603  0.2327 -0.3949
   27MOL0     H 3599   9.244   3.373   3.205  1.2447 -4.3964  3.5922
   27MOL0     H 3600   9.275   3.516   3.284  0.3897 -1.2629 -2.0793
   27MOL0     H 3601   9.155   3.421   3.490 -0.8662  1.4953 -0.9515
   27MOL0     H 3602   9.315   3.378   3.453 -0.7386 -0.0234  1.4436
   27MOL0     H 3603   9.185   3.163   3.325 -0.2258  1.2136 -0.8809
   27MOL0     H 3604   9.072   3.218   3.448 -0.0876  1.8746 -0.8237
   27MOL0     H 3605   9.395   3.107   3.290  1.9934 -4.1251 -0.5346
   27MOL0     H 3606   9.661   3.104   3.304  0.9887  2.3960  0.0725
   27MOL0     H 3607  10.027   3.337   3.745  1.3640 -0.2106  2.7293
   27MOL0     H 3608  10.263   3.334   3.750  0.6822  1.2248 -3.3407
   27MOL0     H 3609  10.446   2.984   3.815 -0.4204 -0.9867 -1.3594
   27MOL0     H 3610  10.490   2.942   3.653  1.2619  1.0755 -1.8360
   27MOL0     H 3611  10.682   2.921   3.795  0.1800  0.2809  0.8589
   27MOL0     H 3612  10.713   3.041   3.673  0.8805 -5.2633  0.3351
   27MOL0     H 3613  10.808   3.121   3.876 -1.0287  0.2654 -0.7240
   27MOL0     H 3614  10.682   3.221   3.851 -0.3460  0.0037 -0.7908
   27MOL0     H 3615  10.533   3.086   4.019  0.9191 -1.1533 -0.0643
   27MOL0     H 3616  10.666   3.170   4.080 -1.3867  0.8916 -1.6178
   27MOL0     H 3617  10.808   3.000   4.116  0.4891 -2.6182  0.7303
   27MOL0     H 3618  10.723   2.893   4.001  1.1939  1.4778 -1.0322
   27MOL0     H 3619  10.593   3.002   4.247  1.5049 -0.2029  1.3389
   27MOL0     H 3620  10.528   2.870   4.155  0.0931  2.4836 -1.7099
   27MOL0     H 3621  10.767   2.875   4.354  1.2059 -2.2525  0.8398
   27MOL0     H 3622  10.775   2.763   4.221 -0.5251  1.2766 -0.6667
   27MOL0     H 3623  10.678   2.666   4.446  1.2021 -1.3906 -1.8016
   27MOL0     H 3624  10.545   2.785   4.433  0.4170  0.8341 -1.0751
   27MOL0     H 3625  10.293   2.946   3.568 -1.0880  0.3765 -1.1781
   27MOL0     H 3626  10.049   2.928   3.571  0.1024 -0.3436 -0.6251
   27MOL0     H 3627   9.628   3.148   3.738  0.8906  2.9392  0.5860
   27MOL0     H 3628   9.380   3.174   3.708 -1.4715 -1.6043 -0.5175
   27MOL0     H 3629   9.770   2.936   2.695  0.5682  1.5720  0.8068
   27MOL0     H 3630   9.958   2.805   2.633  0.1921 -1.3128 -0.2944
   27MOL0     H 3631  10.487   2.687   2.942  3.7974  0.8117 -0.4043
   27MOL0     H 3632  10.662   2.540   2.886  0.1882  2.7490 -2.2983
   27MOL0     H 3633  10.762   2.258   2.890  3.6373 -0.8645 -0.4889
   27MOL0     H 3634  10.826   2.389   2.824  0.5534 -0.5360  0.0077
   27MOL0     H 3635  10.813   2.129   2.670 -3.2284 -0.0915  1.2729
   27MOL0     H 3636  10.941   2.189   2.776 -1.1314  1.3953  2.3189
   27MOL0     H 3637  10.937   2.417   2.613 -0.5981 -0.1647  0.7591
   27MOL0     H 3638  10.865   2.304   2.502  1.7411  0.7571 -1.6837
   27MOL0     H 3639  11.133   2.281   2.633  1.3602  2.8004 -1.2084
   27MOL0     H 3640  11.072   2.151   2.538 -1.1791  0.0527 -2.2824
   27MOL0     H 3641  11.163   2.476   2.255 -1.5596  1.1250  0.1282
   27MOL0     H 3642  10.423   2.313   2.622  1.1842  2.6577 -1.8035
   27MOL0     H 3643  10.120   2.421   2.739  2.4462  1.7271  2.3191
   27MOL0     H 3644  10.139   2.537   2.608 -2.9781  0.5656  3.2088
   27MOL0     H 3645  10.197   2.371   2.587 -2.7088 -0.4714 -0.5634
   28MOL0     O 3646   5.793   6.155   8.642  0.2063 -0.0582 -0.2792
   28MOL0     C 3647   5.716   6.249   8.668 -0.1707  0.5043  0.1502
   28MOL0     O 3648   5.762   6.373   8.698  0.2910 -0.0417 -0.1895
   28MOL0     C 3649   5.900   6.394   8.717  0.1714  0.6121 -0.1275
   28MOL0     C 3650   5.979   6.493   8.647  0.7261  0.5535 -0.7988
   28MOL0     C 3651   6.101   6.538   8.685 -0.3342  0.1637  0.7620
   28MOL0     C 3652   6.158   6.480   8.802 -0.4518 -0.3692  0.1215
   28MOL0     O 3653   6.280   6.518   8.822 -0.6479 -0.0649 -0.0739
   28MOL0     C 3654   6.348   6.490   8.954  0.7510 -0.6430  0.4981
   28MOL0     C 3655   6.477   6.555   8.950 -1.0142 -0.5391  0.2898
   28MOL0     C 3656   6.546   6.532   9.087 -0.1203  1.5415  0.6650
   28MOL0     C 3657   6.687   6.600   9.108 -0.0645 -0.3309  0.0069
   28MOL0     C 3658   6.739   6.584   9.252  0.0076  0.3372  0.1128
   28MOL0     C 3659   6.851   6.684   9.303  0.3377  0.3412  0.2564
   28MOL0     C 3660   6.862   6.674   9.457  0.8132  0.0910 -0.3317
   28MOL0     C 3661   6.760   6.765   9.542  0.6645  0.1260  0.0155
   28MOL0     N 3662   6.741   6.726   9.686 -0.6498 -0.1230  0.2590
   28MOL0     C 3663   6.822   6.650   9.753  0.5551  0.5865 -0.1720
   28MOL0     C 3664   6.751   6.616   9.863 -0.5493 -0.1661  0.0307
   28MOL0     C 3665   6.799   6.528   9.972  0.4330  0.4446 -0.2871
   28MOL0     C 3666   6.685   6.515  10.075 -0.5695  0.2466  0.3573
   28MOL0     C 3667   6.723   6.417  10.186  0.6846 -1.0551 -0.2174
   28MOL0     C 3668   6.788   6.481  10.312  0.1451 -0.2762  0.0989
   28MOL0     O 3669   6.687   6.570  10.371  0.2886 -0.7965  0.8444
   28MOL0     C 3670   6.743   6.688  10.415  0.9301 -0.0305 -0.1296
   28MOL0     C 3671   6.677   6.806  10.375 -0.4173  0.4134  0.2591
   28MOL0     C 3672   6.723   6.927  10.420 -0.4349 -0.0115 -0.9440
   28MOL0     C 3673   6.830   6.940  10.511  0.3417 -0.1587 -0.6723
   28MOL0     C 3674   6.890   7.074  10.530  0.7403 -0.2172 -0.2752
   28MOL0     O 3675   6.812   7.184  10.499  0.5716 -0.0232  0.6206
   28MOL0     C 3676   6.861   7.314  10.498  0.6001 -0.1394 -0.5811
   28MOL0     C 3677   6.759   7.405  10.529 -0.3721 -1.2478 -0.0077
   28MOL0     C 3678   6.777   7.546  10.494  0.2220  0.6214 -0.4388
   28MOL0     C 3679   6.906   7.590  10.463  0.6827  0.3140 -0.5219
   28MOL0     O 3680   6.915   7.728  10.462 -0.8187 -0.1543  0.7126
   28MOL0     C 3681   7.009   7.791  10.378 -0.3474 -0.3092 -0.8070
   28MOL0     C 3682   7.000   7.937  10.419 -0.0177  0.5651 -0.3276
   28MOL0     C 3683   7.074   7.958  10.555  0.0419 -0.5014 -0.2821
   28MOL0     C 3684   7.103   8.107  10.585  0.5145  0.2913  0.9156
   28MOL0     C 3685   7.159   8.129  10.720  0.0394  0.1583 -0.8626
   28MOL0     C 3686   7.193   8.273  10.745 -1.4709  0.3335 -0.4098
   28MOL0     C 3687   7.311   8.327  10.660 -0.2080 -0.0954 -0.5858
   28MOL0     C 3688   7.442   8.339  10.744 -0.5675 -0.5515 -0.0869
   28MOL0    Cl 3689   7.535   8.179  10.749 -0.2739 -0.4456  0.2606
   28MOL0     C 3690   7.008   7.496  10.451  0.2032 -0.5016  0.2680
   28MOL0     C 3691   6.985   7.360  10.455  0.5532  0.1262  0.2350
   28MOL0     O 3692   7.005   7.077  10.580  0.7764  0.5488 -0.1559
   28MOL0     C 3693   6.896   6.819  10.549 -0.5586 -0.3272  0.8480
   28MOL0     C 3694   6.857   6.697  10.496  0.4888 -0.3653  0.6992
   28MOL0     N 3695   6.634   6.698   9.867  0.2872 -0.3371  0.1684
   28MOL0     N 3696   6.632   6.770   9.761  1.6035  0.7823 -0.2811
   28MOL0     C 3697   6.094   6.380   8.875 -0.1950  0.7135  0.1775
   28MOL0     C 3698   5.966   6.340   8.832 -0.3742  1.0362  0.4815
   28MOL0     C 3699   5.575   6.225   8.679  0.4166  0.6254  0.0729
   28MOL0     C 3700   5.506   6.323   8.754  0.1399  0.4529  0.0204
   28MOL0     C 3701   5.372   6.324   8.770 -1.6543  0.6774 -1.2593
   28MOL0     C 3702   5.303   6.222   8.715  0.4282 -0.0837  0.1822
   28MOL0     O 3703   5.167   6.202   8.713  0.5568 -0.4143 -0.5691
   28MOL0     C 3704   5.084   6.317   8.759  0.0423  0.1873 -0.1386
   28MOL0     C 3705   5.090   6.444   8.670 -0.2864  0.6478  0.7502
   28MOL0     C 3706   4.952   6.487   8.616  0.6146  0.5704  0.4818
   28MOL0     C 3707   4.903   6.390   8.505 -0.5660  0.2640  0.5342
   28MOL0     C 3708   4.854   6.466   8.389 -0.0004 -0.6678 -0.5341
   28MOL0     C 3709   4.824   6.512   8.283 -0.2279  0.2583  0.1071
   28MOL0     C 3710   5.370   6.122   8.652 -0.5772  0.5465 -0.9720
   28MOL0     C 3711   5.507   6.119   8.628 -0.4872  0.1149  0.1637
   28MOL0     C 3712   5.579   5.999   8.563 -0.1511 -0.4560  0.1611
   28MOL0     H 3713   5.941   6.549   8.562 -1.3578  0.9032  0.3075
   28MOL0     H 3714   6.145   6.610   8.616 -2.6555  0.0523 -0.9556
   28MOL0     H 3715   6.292   6.529   9.039  2.8264  1.4728  1.0002
   28MOL0     H 3716   6.379   6.385   8.966  0.4432 -0.7764  0.1721
   28MOL0     H 3717   6.467   6.662   8.929 -2.0489 -0.7993 -0.6248
   28MOL0     H 3718   6.532   6.502   8.872  1.0698 -0.0677  1.3459
   28MOL0     H 3719   6.549   6.426   9.110 -1.7591  1.7371  1.9527
   28MOL0     H 3720   6.484   6.588   9.158  0.6709  3.4792 -0.1032
   28MOL0     H 3721   6.761   6.563   9.036 -0.8957 -1.0655 -0.5072
   28MOL0     H 3722   6.679   6.708   9.093  0.6518 -0.1986  0.5723
   28MOL0     H 3723   6.647   6.575   9.310 -0.3372  1.9206 -0.1470
   28MOL0     H 3724   6.784   6.484   9.259  1.3270  0.9916  1.5720
   28MOL0     H 3725   6.941   6.641   9.257 -1.0549 -1.8800 -0.5869
   28MOL0     H 3726   6.836   6.786   9.268 -2.3777 -0.8455 -2.6199
   28MOL0     H 3727   6.963   6.694   9.494  1.2080  0.0655 -1.3662
   28MOL0     H 3728   6.842   6.568   9.472  3.8698 -0.6421 -0.6759
   28MOL0     H 3729   6.794   6.869   9.546 -0.8796  0.7080 -0.8651
   28MOL0     H 3730   6.661   6.770   9.496 -1.1853  1.4739  3.7948
   28MOL0     H 3731   6.916   6.617   9.710  0.3168  1.5171 -1.4752
   28MOL0     H 3732   6.819   6.424   9.944 -2.7190 -1.8551  4.6526
   28MOL0     H 3733   6.883   6.576  10.022 -1.2385  3.4111 -0.0904
   28MOL0     H 3734   6.679   6.610  10.129 -0.6738  0.0019  0.7731
   28MOL0     H 3735   6.588   6.494  10.028 -0.2782 -1.9412  0.6278
   28MOL0     H 3736   6.790   6.339  10.148  3.9697  0.9462  0.9800
   28MOL0     H 3737   6.626   6.389  10.228 -0.0089  1.2957 -0.1633
   28MOL0     H 3738   6.878   6.536  10.282  0.1521 -1.4139 -2.1819
   28MOL0     H 3739   6.815   6.414  10.394  2.8566 -0.1176 -0.5781
   28MOL0     H 3740   6.606   6.794  10.293  2.9862 -2.5493 -2.6134
   28MOL0     H 3741   6.657   7.003  10.381 -0.4318 -0.4745 -1.8720
   28MOL0     H 3742   6.667   7.384  10.582 -0.3019  1.1747  1.2471
   28MOL0     H 3743   6.693   7.614  10.507 -1.9799 -1.4326 -2.6643
   28MOL0     H 3744   7.109   7.756  10.405 -0.2525  1.4328  1.4191
   28MOL0     H 3745   6.993   7.773  10.271 -1.3786 -0.1324 -0.6936
   28MOL0     H 3746   7.051   7.991  10.339  1.3576  0.0037  0.1552
   28MOL0     H 3747   6.892   7.955  10.424 -0.5964 -0.7564 -4.2853
   28MOL0     H 3748   7.029   7.905  10.640  0.0221 -1.5080 -0.9033
   28MOL0     H 3749   7.173   7.914  10.538  0.0097 -0.6375 -0.1271
   28MOL0     H 3750   7.005   8.154  10.573 -0.2128 -1.3640  0.1585
   28MOL0     H 3751   7.156   8.153  10.501 -1.9135 -1.9897 -2.0753
   28MOL0     H 3752   7.255   8.076  10.730  0.5520  0.6926 -2.5982
   28MOL0     H 3753   7.088   8.089  10.793  0.9051 -5.6575 -2.6950
   28MOL0     H 3754   7.102   8.328  10.716 -1.5954  1.5813  2.0689
   28MOL0     H 3755   7.203   8.284  10.853  1.3891  1.4552 -0.7160
   28MOL0     H 3756   7.282   8.421  10.612  2.2795  0.8489 -0.3891
   28MOL0     H 3757   7.334   8.259  10.577 -1.9011 -0.0252 -1.1528
   28MOL0     H 3758   7.511   8.410  10.698  0.4849  0.7488  3.2317
   28MOL0     H 3759   7.429   8.387  10.841  2.5843 -0.4714  0.4265
   28MOL0     H 3760   7.107   7.535  10.429 -1.0693  2.8474 -0.1246
   28MOL0     H 3761   7.061   7.288  10.425  0.1038 -0.0020 -0.6234
   28MOL0     H 3762   6.983   6.823  10.612 -0.2187 -2.4615  0.6050
   28MOL0     H 3763   6.903   6.608  10.537  1.4473  0.4677  1.5120
   28MOL0     H 3764   6.145   6.338   8.961  0.3067  3.0704  1.1151
   28MOL0     H 3765   5.923   6.260   8.891 -0.7105  0.5490 -0.4011
   28MOL0     H 3766   5.566   6.397   8.807  2.7500 -0.7383 -1.0755
   28MOL0     H 3767   5.324   6.411   8.814  1.1166  1.3832  0.6380
   28MOL0     H 3768   5.106   6.337   8.864 -4.0256 -1.9666  1.3579
   28MOL0     H 3769   4.985   6.272   8.759 -0.4829  1.2869 -1.3607
   28MOL0     H 3770   5.151   6.419   8.583 -0.5087  0.5298  0.6279
   28MOL0     H 3771   5.133   6.529   8.723 -0.1914  0.7683  0.4838
   28MOL0     H 3772   4.956   6.593   8.592  0.8960  0.1578 -1.3920
   28MOL0     H 3773   4.873   6.494   8.691  0.7498 -0.0770  0.6958
   28MOL0     H 3774   4.987   6.340   8.457  0.1360  3.1242 -1.4969
   28MOL0     H 3775   4.832   6.314   8.539  0.6190 -0.1382  2.2247
   28MOL0     H 3776   4.796   6.558   8.191 -6.9602 -3.1067 -0.1623
   28MOL0     H 3777   5.313   6.034   8.622 -0.9105 -1.2687  4.0281
   28MOL0     H 3778   5.658   6.031   8.495  0.1252 -1.3653  0.0421
   28MOL0     H 3779   5.624   5.936   8.641  2.1214  2.0717  1.0354
   28MOL0     H 3780   5.506   5.942   8.505 -1.4170 -0.4263  1.6438
   29MOL0     O 3781   5.915  10.034   1.861  0.7479 -0.3991  0.2009
   29MOL0     C 3782   5.852   9.975   1.774 -0.3999  0.0714  0.0897
   29MOL0     O 3783   5.905   9.953   1.639  1.2756 -0.1249 -1.1761
   29MOL0     C 3784   6.014  10.027   1.598 -0.5260 -0.8877  0.0439
   29MOL0     C 3785   6.044  10.160   1.634  0.2332  0.0003  1.2253
   29MOL0     C 3786   6.140  10.233   1.566 -1.0220  0.7107 -0.2495
   29MOL0     C 3787   6.206  10.173   1.453  0.0097 -0.2919  1.0229
   29MOL0     O 3788   6.283  10.256   1.374 -0.5523  0.1634  1.1960
   29MOL0     C 3789   6.368  10.201   1.271 -0.8607  0.6807 -0.2224
   29MOL0     C 3790   6.480  10.314   1.262  0.2638  0.5096 -0.7345
   29MOL0     C 3791   6.571  10.308   1.383 -0.0561  0.1224 -0.1349
   29MOL0     C 3792   6.649  10.438   1.383 -0.4745  0.7200 -0.0107
   29MOL0     C 3793   6.749  10.466   1.274  0.0964  0.5174 -0.7993
   29MOL0     C 3794   6.842  10.346   1.254  0.6393  0.2759  0.4886
   29MOL0     C 3795   6.962  10.381   1.156  0.3316  0.6201  0.4490
   29MOL0     C 3796   7.074  10.458   1.211 -0.1904 -0.2727 -1.0645
   29MOL0     N 3797   7.163  10.381   1.301 -0.2802  0.0573  0.0733
   29MOL0     C 3798   7.293  10.434   1.311  0.4576 -0.3870  0.4369
   29MOL0     C 3799   7.355  10.328   1.370 -0.9750  0.2483 -0.0242
   29MOL0     C 3800   7.501  10.338   1.412  1.4868 -0.4092 -0.5719
   29MOL0     C 3801   7.499  10.359   1.569  0.5866  0.0260 -0.1622
   29MOL0     C 3802   7.394  10.455   1.630  0.0334  0.4788  0.0914
   29MOL0     C 3803   7.423  10.452   1.784 -0.2554  0.0007  0.8822
   29MOL0     O 3804   7.545  10.504   1.834  0.0519 -0.1922 -0.3440
   29MOL0     C 3805   7.575  10.640   1.828 -0.6370  0.0046 -0.7220
   29MOL0     C 3806   7.701  10.683   1.875 -0.3541 -0.0929 -0.6659
   29MOL0     C 3807   7.741  10.817   1.859  0.1921  0.1396 -0.0362
   29MOL0     C 3808   7.657  10.911   1.796  0.3820 -0.2996 -0.3547
   29MOL0     C 3809   7.703  11.050   1.757  0.9813 -0.3784  0.5224
   29MOL0     O 3810   7.812  11.098   1.813  0.1727 -0.4549  0.4917
   29MOL0     C 3811   7.850  11.227   1.773  0.3667  0.1035 -0.8174
   29MOL0     C 3812   7.799  11.346   1.826  0.9667 -0.4264 -0.9485
   29MOL0     C 3813   7.830  11.468   1.783 -0.0591  0.2127 -1.0123
   29MOL0     C 3814   7.940  11.487   1.690  0.6759  0.5291  0.5496
   29MOL0     O 3815   7.957  11.619   1.645  0.5912  0.0148 -0.1410
   29MOL0     C 3816   8.061  11.629   1.549  0.6972  0.8624  0.2374
   29MOL0     C 3817   8.065  11.770   1.506  0.6885  0.5878  0.7943
   29MOL0     C 3818   7.935  11.813   1.435 -0.3809 -0.2570  0.1682
   29MOL0     C 3819   7.945  11.895   1.308  0.3609 -0.5598  0.8081
   29MOL0     C 3820   7.998  12.033   1.348 -0.4932 -0.2459 -0.0035
   29MOL0     C 3821   8.054  12.104   1.224 -0.0257 -0.9445  0.1394
   29MOL0     C 3822   7.945  12.103   1.116 -1.4249  0.0480  0.6327
   29MOL0     C 3823   7.989  12.209   1.013  0.9157  0.6221 -0.9946
   29MOL0    Cl 3824   8.150  12.173   0.949 -0.3286 -0.3190 -0.3131
   29MOL0     C 3825   7.992  11.363   1.637 -0.7378 -0.3757 -0.9165
   29MOL0     C 3826   7.953  11.238   1.675  0.5120 -0.3026 -0.0980
   29MOL0     O 3827   7.642  11.106   1.664  0.5104  0.3745  0.2723
   29MOL0     C 3828   7.520  10.868   1.769 -1.3575 -0.3694 -0.3541
   29MOL0     C 3829   7.486  10.739   1.772  0.5846  0.5241 -1.1867
   29MOL0     N 3830   7.275  10.215   1.391  0.6432 -0.7798  0.7653
   29MOL0     N 3831   7.167  10.253   1.330  0.0039  0.1654  0.3634
   29MOL0     C 3832   6.171  10.046   1.412 -0.4379  0.1945 -0.4887
   29MOL0     C 3833   6.080   9.969   1.486  0.3012 -0.1451 -0.4635
   29MOL0     C 3834   5.723   9.906   1.800 -0.0806  0.1313  0.3992
   29MOL0     C 3835   5.615   9.983   1.844  0.4468 -0.6057  0.3682
   29MOL0     C 3836   5.498   9.917   1.879  0.9327 -0.0294  0.3548
   29MOL0     C 3837   5.485   9.783   1.874  0.9152 -0.5771 -0.2770
   29MOL0     O 3838   5.355   9.744   1.916 -0.1669 -0.1113 -0.5137
   29MOL0     C 3839   5.302   9.615   1.882 -0.0834  0.8219 -0.5381
   29MOL0     C 3840   5.323   9.523   2.006  0.1507 -1.6806  0.7385
   29MOL0     C 3841   5.251   9.602   2.126 -0.1065 -0.1826 -0.3769
   29MOL0     C 3842   5.226   9.505   2.253 -0.3695  0.3021  0.8632
   29MOL0     C 3843   5.347   9.477   2.318 -0.2812  0.4024  0.2597
   29MOL0     C 3844   5.435   9.442   2.393  0.0680 -1.1309 -0.5314
   29MOL0     C 3845   5.595   9.705   1.826 -0.1175  0.4509 -0.8974
   29MOL0     C 3846   5.713   9.771   1.794 -0.5811 -0.0032  0.0978
   29MOL0     C 3847   5.838   9.687   1.776  0.1462  0.2386 -0.7198
   29MOL0     H 3848   5.994  10.213   1.714 -2.1022  0.9699 -0.7649
   29MOL0     H 3849   6.150  10.339   1.587 -4.4222  0.9728  0.5497
   29MOL0     H 3850   6.408  10.102   1.292  0.3161  0.6267 -2.3915
   29MOL0     H 3851   6.308  10.192   1.180 -0.4453 -1.9284 -0.2941
   29MOL0     H 3852   6.448  10.417   1.243 -1.6243 -0.0253 -0.7252
   29MOL0     H 3853   6.535  10.270   1.179  1.5766  0.2844  0.2309
   29MOL0     H 3854   6.633  10.219   1.378  1.4307  1.0421  1.0161
   29MOL0     H 3855   6.505  10.298   1.469 -0.9742 -0.9405 -0.9416
   29MOL0     H 3856   6.574  10.517   1.377 -0.1161  1.1148  0.5975
   29MOL0     H 3857   6.697  10.449   1.481  1.3669  1.2552 -0.9275
   29MOL0     H 3858   6.698  10.485   1.179  0.0614 -1.6982 -1.2619
   29MOL0     H 3859   6.801  10.559   1.301  1.8720 -0.1459 -1.7914
   29MOL0     H 3860   6.884  10.305   1.346  3.5260 -3.6753 -2.2365
   29MOL0     H 3861   6.780  10.271   1.203 -0.1476  1.8634 -0.9845
   29MOL0     H 3862   6.922  10.432   1.069 -3.3328 -0.6906  1.1762
   29MOL0     H 3863   7.007  10.283   1.138  1.5137  1.3149 -0.4127
   29MOL0     H 3864   7.128  10.488   1.121  2.0949  4.8816  1.6096
   29MOL0     H 3865   7.067  10.552   1.266  0.9472 -1.5096  1.3304
   29MOL0     H 3866   7.328  10.536   1.298  3.6637 -1.4257  0.1248
   29MOL0     H 3867   7.554  10.252   1.369  3.5814  2.2438 -3.8416
   29MOL0     H 3868   7.553  10.425   1.370  1.9580  0.9776  2.6378
   29MOL0     H 3869   7.480  10.260   1.611 -4.8977 -0.3336 -2.6997
   29MOL0     H 3870   7.596  10.397   1.605  1.8017 -5.9692  4.5406
   29MOL0     H 3871   7.291  10.419   1.619 -0.2027  0.6796  1.4652
   29MOL0     H 3872   7.408  10.547   1.573  1.3418  0.7238  0.7841
   29MOL0     H 3873   7.404  10.349   1.815 -0.4251 -0.4562 -0.6377
   29MOL0     H 3874   7.356  10.516   1.842  1.8430  1.2988  1.9771
   29MOL0     H 3875   7.777  10.612   1.906  1.5602  1.6188 -1.2351
   29MOL0     H 3876   7.838  10.857   1.887 -0.5280  0.9788  1.3677
   29MOL0     H 3877   7.728  11.342   1.908 -1.7705  2.6970 -2.9316
   29MOL0     H 3878   7.775  11.555   1.817  1.2534 -0.6567  4.0608
   29MOL0     H 3879   8.156  11.596   1.592  1.8749  2.5515 -0.9592
   29MOL0     H 3880   8.045  11.572   1.457 -2.0950  1.1889  0.4286
   29MOL0     H 3881   8.095  11.837   1.588  3.8564  0.3415 -0.0331
   29MOL0     H 3882   8.143  11.779   1.430 -0.4885  1.5257 -0.3488
   29MOL0     H 3883   7.889  11.717   1.410 -0.5793 -0.5980  1.7104
   29MOL0     H 3884   7.870  11.872   1.500  1.2659  0.4730  1.2307
   29MOL0     H 3885   7.847  11.892   1.261  0.3123 -1.8465  0.9746
   29MOL0     H 3886   8.005  11.850   1.228 -1.1191  0.2504 -0.8087
   29MOL0     H 3887   8.085  12.020   1.413 -0.0561  1.0322 -0.2921
   29MOL0     H 3888   7.932  12.089   1.414 -0.6588 -1.2179  0.6777
   29MOL0     H 3889   8.093  12.201   1.257 -2.4028 -0.6042  2.2724
   29MOL0     H 3890   8.137  12.042   1.189 -2.2993 -1.7907 -4.5586
   29MOL0     H 3891   7.844  12.120   1.155 -1.3548 -0.9385  1.2891
   29MOL0     H 3892   7.948  12.002   1.075  2.1328 -0.0992  1.0171
   29MOL0     H 3893   7.914  12.221   0.934 -0.4862  1.6756  0.4453
   29MOL0     H 3894   7.997  12.306   1.063 -2.3751  1.0215 -1.0581
   29MOL0     H 3895   8.064  11.353   1.556  1.5091  2.5398  0.5260
   29MOL0     H 3896   7.981  11.148   1.621 -2.8249 -0.6530 -1.5218
   29MOL0     H 3897   7.454  10.942   1.724 -1.8067 -0.4660  0.1268
   29MOL0     H 3898   7.386  10.720   1.735  0.0003  1.2813 -0.0435
   29MOL0     H 3899   6.198   9.995   1.320  1.5132 -1.8513  1.0893
   29MOL0     H 3900   6.056   9.868   1.456  0.6424 -1.0478  2.1371
   29MOL0     H 3901   5.610  10.091   1.846  1.6419 -0.5551  1.5321
   29MOL0     H 3902   5.407   9.970   1.903  1.6745  1.0144  0.9394
   29MOL0     H 3903   5.352   9.583   1.790  0.8945 -4.1798  1.4036
   29MOL0     H 3904   5.196   9.631   1.862 -0.2530 -0.6044 -0.8739
   29MOL0     H 3905   5.432   9.519   2.017  0.5403  1.3313 -0.8653
   29MOL0     H 3906   5.276   9.425   1.993 -0.2254 -1.7452  2.3769
   29MOL0     H 3907   5.151   9.640   2.105  0.8820  1.7990 -1.7570
   29MOL0     H 3908   5.294   9.700   2.148  0.9601 -0.8677  0.7477
   29MOL0     H 3909   5.158   9.552   2.324  0.2547 -0.9954  2.3646
   29MOL0     H 3910   5.173   9.414   2.221 -0.4266  1.1104 -1.5613
   29MOL0     H 3911   5.518   9.409   2.452  1.1991 -1.2974 -2.1350
   29MOL0     H 3912   5.572   9.599   1.826 -0.5867  0.5124  0.9155
   29MOL0     H 3913   5.821   9.583   1.804  3.2605  0.2498  1.7684
   29MOL0     H 3914   5.867   9.671   1.671 -0.7961 -1.8628 -0.7103
   29MOL0     H 3915   5.927   9.722   1.830  1.0010 -1.8989 -0.6704
   30MOL0     O 3916   4.847   9.605   5.311 -0.7970  0.4287  0.1206
   30MOL0     C 3917   4.944   9.579   5.382  0.6928 -0.3796 -0.1673
   30MOL0     O 3918   5.059   9.657   5.376 -0.3579 -0.2013  0.1290
   30MOL0     C 3919   5.072   9.783   5.317  0.0228  0.5002  0.2598
   30MOL0     C 3920   4.965   9.859   5.252  0.3078  0.1793 -0.6612
   30MOL0     C 3921   4.995   9.989   5.209  1.1483  0.3420 -0.5747
   30MOL0     C 3922   5.122  10.042   5.216 -0.3057 -0.1697  0.7106
   30MOL0     O 3923   5.144  10.165   5.162  0.2133  1.2015 -0.2478
   30MOL0     C 3924   5.261  10.247   5.196 -0.1567  0.2830  0.2649
   30MOL0     C 3925   5.369  10.230   5.085 -0.7101  0.1127 -0.0598
   30MOL0     C 3926   5.498  10.273   5.139 -0.3348 -0.8688  0.1329
   30MOL0     C 3927   5.613  10.262   5.037 -0.5536 -0.4835 -0.8719
   30MOL0     C 3928   5.755  10.293   5.111  0.8705 -0.5078  0.4162
   30MOL0     C 3929   5.874  10.320   5.019  0.9785 -0.0571  1.1698
   30MOL0     C 3930   5.875  10.443   4.924  0.5843  0.0224 -0.4863
   30MOL0     C 3931   5.879  10.569   5.012  0.4528 -0.3656  0.0998
   30MOL0     N 3932   5.901  10.688   4.927  0.1665 -0.2023 -0.1348
   30MOL0     C 3933   6.031  10.722   4.871  0.8731  1.0100 -0.6539
   30MOL0     C 3934   6.006  10.846   4.805  0.4356 -0.3274 -1.4459
   30MOL0     C 3935   6.120  10.927   4.734 -0.4253 -0.3717  0.1133
   30MOL0     C 3936   6.224  10.994   4.829 -0.5814 -0.1519  0.4199
   30MOL0     C 3937   6.283  11.132   4.769 -0.7151  1.1325  0.6704
   30MOL0     C 3938   6.358  11.109   4.628  1.0419 -0.4604  0.1321
   30MOL0     O 3939   6.396  11.231   4.569  0.7938  1.0780  0.4777
   30MOL0     C 3940   6.521  11.273   4.588 -1.1170  0.6158  0.4098
   30MOL0     C 3941   6.597  11.295   4.468  0.1820 -0.1944 -0.4596
   30MOL0     C 3942   6.729  11.338   4.481 -0.3815 -0.5132  1.0106
   30MOL0     C 3943   6.798  11.352   4.602  0.7221  0.0353 -0.2353
   30MOL0     C 3944   6.936  11.391   4.612 -0.1153 -0.2617  0.2239
   30MOL0     O 3945   6.972  11.439   4.738  0.5265  0.1049  1.0537
   30MOL0     C 3946   7.107  11.436   4.758 -0.8554  1.3877 -1.0226
   30MOL0     C 3947   7.170  11.319   4.805 -0.0647 -0.4366 -0.4444
   30MOL0     C 3948   7.305  11.313   4.835  0.3614  0.0753  0.0694
   30MOL0     C 3949   7.383  11.428   4.822 -0.2438 -0.5685  0.0991
   30MOL0     O 3950   7.515  11.445   4.853  0.4866  0.2097  0.1436
   30MOL0     C 3951   7.603  11.332   4.841  0.1403  0.1519  0.1928
   30MOL0     C 3952   7.731  11.395   4.855  0.2784  0.3437  0.8203
   30MOL0     C 3953   7.845  11.295   4.854 -0.2703  0.4778  0.9337
   30MOL0     C 3954   7.874  11.229   4.717 -0.3977 -0.5036  0.6512
   30MOL0     C 3955   8.020  11.180   4.713 -0.2352 -0.2105  0.5609
   30MOL0     C 3956   8.058  11.111   4.839 -0.3687 -0.0159 -0.2714
   30MOL0     C 3957   8.190  11.045   4.827  0.7024 -0.2199  0.0100
   30MOL0     C 3958   8.233  10.989   4.962  0.2204  0.2083 -0.1635
   30MOL0    Cl 3959   8.257  11.118   5.080 -0.2924 -0.2482  0.3119
   30MOL0     C 3960   7.321  11.542   4.779 -0.6984 -0.9058  0.3667
   30MOL0     C 3961   7.185  11.550   4.741 -0.7266 -0.3631 -0.7248
   30MOL0     O 3962   7.016  11.371   4.518  0.3631  0.2646 -0.2282
   30MOL0     C 3963   6.723  11.330   4.723 -0.7594  0.5252  0.5638
   30MOL0     C 3964   6.591  11.297   4.707  0.0223  0.5772  0.6881
   30MOL0     N 3965   5.872  10.890   4.834  0.8923  0.8880 -0.0631
   30MOL0     N 3966   5.816  10.786   4.901  0.2205  0.2861 -0.4678
   30MOL0     C 3967   5.234   9.969   5.265 -0.4382  0.3081  0.4331
   30MOL0     C 3968   5.213   9.841   5.314  0.0123 -0.6107  0.9831
   30MOL0     C 3969   4.931   9.456   5.462  0.3240  0.0643  0.1495
   30MOL0     C 3970   4.799   9.401   5.490  0.3087 -0.0415  0.3225
   30MOL0     C 3971   4.781   9.285   5.570 -0.3398 -0.5594 -0.4378
   30MOL0     C 3972   4.888   9.218   5.634  1.1098 -0.6914 -0.4415
   30MOL0     O 3973   4.870   9.112   5.728  0.6812  0.3711  0.2457
   30MOL0     C 3974   4.740   9.085   5.786 -0.3691 -1.3237 -0.2346
   30MOL0     C 3975   4.719   9.194   5.902  0.2534  0.3139 -0.3044
   30MOL0     C 3976   4.593   9.164   5.991 -0.6234 -0.2731 -0.2570
   30MOL0     C 3977   4.554   9.285   6.075 -0.2135  0.0501  0.1079
   30MOL0     C 3978   4.467   9.381   6.003 -0.2548  0.1186  0.3007
   30MOL0     C 3979   4.399   9.458   5.944 -1.2761  0.4234  0.7866
   30MOL0     C 3980   5.012   9.273   5.606 -0.0589  0.2031 -1.2700
   30MOL0     C 3981   5.035   9.385   5.522  0.5619  0.0792 -0.4525
   30MOL0     C 3982   5.175   9.421   5.498 -0.4797 -0.6853  0.8818
   30MOL0     H 3983   4.863   9.823   5.243  0.9528 -1.3090 -2.9118
   30MOL0     H 3984   4.916  10.054   5.173  2.4926  1.8947 -0.8690
   30MOL0     H 3985   5.243  10.354   5.194  2.3401  0.7726 -1.7422
   30MOL0     H 3986   5.303  10.225   5.294 -1.1109  0.7949  0.8001
   30MOL0     H 3987   5.354  10.306   5.008 -1.0716  0.1963  0.0915
   30MOL0     H 3988   5.384  10.131   5.040 -4.1321 -0.1117 -0.9596
   30MOL0     H 3989   5.510  10.199   5.218 -3.2512 -0.0687  1.4509
   30MOL0     H 3990   5.495  10.377   5.173 -0.0435 -0.5026 -0.9034
   30MOL0     H 3991   5.617  10.165   4.987  2.2472  0.1088 -2.0104
   30MOL0     H 3992   5.581  10.322   4.952 -0.9791 -2.3030 -2.0675
   30MOL0     H 3993   5.738  10.384   5.170 -2.2197 -1.0072  0.4658
   30MOL0     H 3994   5.782  10.211   5.179  2.8912  0.7701  1.2675
   30MOL0     H 3995   5.967  10.308   5.076  1.2527  0.4111  0.8430
   30MOL0     H 3996   5.882  10.242   4.943  0.6153  4.0303 -3.6582
   30MOL0     H 3997   5.784  10.451   4.865 -0.1333 -1.1052  0.4159
   30MOL0     H 3998   5.961  10.424   4.859  1.0847 -1.5064  0.5427
   30MOL0     H 3999   5.785  10.571   5.068  0.8151 -0.6625  0.7314
   30MOL0     H 4000   5.964  10.567   5.080 -0.0289 -1.7697  0.7140
   30MOL0     H 4001   6.121  10.663   4.857 -1.2107 -2.2634 -1.1305
   30MOL0     H 4002   6.164  10.865   4.656 -1.0214 -0.0713 -0.4721
   30MOL0     H 4003   6.065  11.002   4.677  0.0654  0.1635  0.3387
   30MOL0     H 4004   6.175  11.007   4.925 -0.8080 -0.6675  0.3762
   30MOL0     H 4005   6.314  10.933   4.838 -0.3136 -0.1105 -1.4409
   30MOL0     H 4006   6.369  11.160   4.831  1.9900  0.7461 -2.6373
   30MOL0     H 4007   6.205  11.208   4.762 -0.5890  1.1203 -1.4697
   30MOL0     H 4008   6.282  11.059   4.569 -1.5382  1.6210  1.5026
   30MOL0     H 4009   6.442  11.041   4.646 -0.0800 -1.3197  2.5210
   30MOL0     H 4010   6.553  11.286   4.370  1.1207 -1.2663 -0.8045
   30MOL0     H 4011   6.787  11.353   4.391 -0.0310 -1.1854  1.1160
   30MOL0     H 4012   7.105  11.231   4.805  0.4346 -0.8321 -2.2616
   30MOL0     H 4013   7.350  11.221   4.869  0.5170 -0.2803 -1.0594
   30MOL0     H 4014   7.597  11.254   4.917 -2.2669 -0.1677 -0.2484
   30MOL0     H 4015   7.590  11.279   4.746 -2.0564 -0.0465  0.5619
   30MOL0     H 4016   7.754  11.471   4.780  0.9754  0.7462  1.4257
   30MOL0     H 4017   7.729  11.445   4.952  1.6901 -2.5231  2.4787
   30MOL0     H 4018   7.930  11.358   4.881 -1.4826  2.7971 -0.2834
   30MOL0     H 4019   7.840  11.225   4.938 -1.9659 -0.5575  0.0284
   30MOL0     H 4020   7.864  11.307   4.640 -1.5714 -0.1426  1.1369
   30MOL0     H 4021   7.803  11.147   4.701  3.6989 -3.8572 -2.3037
   30MOL0     H 4022   8.077  11.272   4.695 -1.8528  0.7041 -0.0917
   30MOL0     H 4023   8.044  11.118   4.627 -2.5238  3.0816 -2.7448
   30MOL0     H 4024   8.062  11.184   4.921 -3.0198  0.4410 -0.4604
   30MOL0     H 4025   7.977  11.037   4.850  0.7882 -2.0047 -3.5808
   30MOL0     H 4026   8.275  11.110   4.803  1.0161 -0.0755  1.4279
   30MOL0     H 4027   8.182  10.975   4.743 -0.3761  2.0165 -1.8543
   30MOL0     H 4028   8.169  10.914   5.010  0.3148  0.2543  0.0345
   30MOL0     H 4029   8.334  10.950   4.948 -0.2530 -0.9972 -0.2890
   30MOL0     H 4030   7.376  11.631   4.753 -3.2749  0.1233 -2.0346
   30MOL0     H 4031   7.119  11.633   4.716 -2.6948 -1.8472 -0.6531
   30MOL0     H 4032   6.758  11.354   4.823 -3.0487  2.8240  0.9256
   30MOL0     H 4033   6.525  11.298   4.793  1.3063  0.3626  1.7068
   30MOL0     H 4034   5.332  10.010   5.284  0.8661 -3.4594  3.0211
   30MOL0     H 4035   5.280   9.779   5.373 -0.0919 -1.8572 -0.1799
   30MOL0     H 4036   4.717   9.446   5.435 -1.3429 -1.5484  1.4284
   30MOL0     H 4037   4.679   9.256   5.588 -0.1493 -0.7268  0.4044
   30MOL0     H 4038   4.741   8.985   5.831 -4.4594 -1.6055 -0.3687
   30MOL0     H 4039   4.664   9.084   5.708 -0.3637  2.0094 -0.4227
   30MOL0     H 4040   4.691   9.291   5.861 -3.9929 -0.3019  0.6640
   30MOL0     H 4041   4.809   9.215   5.960  0.5998 -1.3923 -0.1771
   30MOL0     H 4042   4.622   9.077   6.051 -0.9043 -0.8998 -1.0136
   30MOL0     H 4043   4.509   9.133   5.930  0.5524 -0.9430 -1.5750
   30MOL0     H 4044   4.493   9.248   6.158 -1.2250  1.3220 -0.0330
   30MOL0     H 4045   4.646   9.325   6.118  0.9033 -1.7625 -0.4725
   30MOL0     H 4046   4.334   9.536   5.908  1.5365  1.7924 -1.7035
   30MOL0     H 4047   5.109   9.240   5.642 -0.2377 -0.4886 -1.4156
   30MOL0     H 4048   5.244   9.343   5.532  0.7294  0.5266  1.2467
   30MOL0     H 4049   5.189   9.438   5.391  0.0075 -0.9068  0.9089
   30MOL0     H 4050   5.197   9.510   5.556 -1.9732 -0.5996  1.3707
   31MOL0     O 4051  10.432   4.165   8.599  0.2256 -0.6712 -0.1203
   31MOL0     C 4052  10.519   4.246   8.584  0.4693 -0.2145 -0.4583
   31MOL0     O 4053  10.500   4.360   8.515 -0.0647 -0.4650 -0.1489
   31MOL0     C 4054  10.372   4.388   8.469 -0.5265  0.3255 -0.6137
   31MOL0     C 4055  10.294   4.482   8.539 -0.5492 -0.2250 -1.2705
   31MOL0     C 4056  10.163   4.505   8.511  0.0152  0.4684  0.6476
   31MOL0     C 4057  10.093   4.430   8.408  0.6047 -0.7115  0.1832
   31MOL0     O 4058   9.964   4.453   8.371  0.1190  0.0522 -0.5200
   31MOL0     C 4059   9.869   4.479   8.484 -0.1533  0.7627  0.5124
   31MOL0     C 4060   9.724   4.445   8.434  0.8879  0.3125  0.3525
   31MOL0     C 4061   9.622   4.534   8.501  0.8745  0.5895  0.4127
   31MOL0     C 4062   9.481   4.486   8.472 -0.5123 -0.7188  0.5035
   31MOL0     C 4063   9.382   4.553   8.555 -0.6307  1.4002 -0.5202
   31MOL0     C 4064   9.241   4.526   8.528  0.0683  0.6842 -1.1735
   31MOL0     C 4065   9.149   4.571   8.642 -0.4468 -0.0370  0.0041
   31MOL0     C 4066   9.141   4.719   8.658 -0.2729  0.5729 -0.0034
   31MOL0     N 4067   9.086   4.793   8.551 -0.1010 -0.0071  0.1409
   31MOL0     C 4068   9.011   4.767   8.438  0.5205 -0.3901  0.5003
   31MOL0     C 4069   8.977   4.883   8.378 -0.2373  0.0886  0.0713
   31MOL0     C 4070   8.899   4.910   8.248 -0.6652  0.7604 -0.1060
   31MOL0     C 4071   8.770   4.831   8.246  0.6105  0.5444 -0.8099
   31MOL0     C 4072   8.668   4.879   8.144  0.0801  0.7490 -0.5903
   31MOL0     C 4073   8.530   4.813   8.164 -0.4570 -0.1375  1.0235
   31MOL0     O 4074   8.453   4.824   8.039 -0.1338 -0.0329 -0.4720
   31MOL0     C 4075   8.393   4.942   8.001  0.0798  0.1670 -0.0999
   31MOL0     C 4076   8.345   4.933   7.878  0.4080 -0.4736  0.5049
   31MOL0     C 4077   8.280   5.044   7.813 -0.3783  0.1439 -0.2786
   31MOL0     C 4078   8.271   5.164   7.881 -1.1828 -0.3484  0.1152
   31MOL0     C 4079   8.204   5.278   7.814  0.2269 -0.6530  0.1316
   31MOL0     O 4080   8.206   5.285   7.677  0.5579 -0.5448  0.2846
   31MOL0     C 4081   8.170   5.394   7.613  0.7906 -0.1394  0.5861
   31MOL0     C 4082   8.250   5.509   7.611 -0.1537 -0.6566 -0.0760
   31MOL0     C 4083   8.215   5.614   7.525  0.5658  0.8363 -0.5253
   31MOL0     C 4084   8.092   5.618   7.454  0.0710 -0.1525  0.3989
   31MOL0     O 4085   8.070   5.726   7.379 -0.1043 -0.1402  0.7410
   31MOL0     C 4086   7.933   5.757   7.332  0.1026  0.0151 -0.4358
   31MOL0     C 4087   7.941   5.824   7.201 -0.1601  0.2247 -0.2426
   31MOL0     C 4088   7.803   5.858   7.155  0.5846 -0.8890 -0.1163
   31MOL0     C 4089   7.763   6.001   7.189  0.4578 -0.3909 -0.5135
   31MOL0     C 4090   7.622   6.032   7.135 -0.4758  1.2131 -1.2402
   31MOL0     C 4091   7.569   6.173   7.168 -0.2694  0.0427  0.9678
   31MOL0     C 4092   7.470   6.219   7.063 -0.1910  0.4675 -0.5431
   31MOL0     C 4093   7.324   6.215   7.121  0.1267  0.1432 -0.0815
   31MOL0    Cl 4094   7.266   6.055   7.151 -0.0338  0.0561  0.5782
   31MOL0     C 4095   8.010   5.503   7.463  0.0243 -0.2008  0.1114
   31MOL0     C 4096   8.049   5.397   7.545 -0.0929 -0.2218  0.0553
   31MOL0     O 4097   8.158   5.364   7.894  0.8302 -1.3370  0.0966
   31MOL0     C 4098   8.310   5.174   8.019  0.1255 -0.0847  0.4296
   31MOL0     C 4099   8.372   5.061   8.081  0.4030 -0.2114 -0.6137
   31MOL0     N 4100   9.028   4.986   8.458  0.0958 -0.1267 -0.6676
   31MOL0     N 4101   9.074   4.927   8.570  0.1582 -0.4732  0.9634
   31MOL0     C 4102  10.167   4.338   8.331  0.1798  0.9141 -0.5765
   31MOL0     C 4103  10.304   4.314   8.366 -0.1483 -0.3327 -0.4585
   31MOL0     C 4104  10.650   4.222   8.646  0.8089 -0.0464 -0.6001
   31MOL0     C 4105  10.730   4.335   8.658 -0.6085 -0.2912 -0.0858
   31MOL0     C 4106  10.857   4.325   8.706  0.1863  0.2080 -0.3066
   31MOL0     C 4107  10.908   4.198   8.758  0.0949 -0.5735  0.0044
   31MOL0     O 4108  11.030   4.184   8.820 -0.5792 -0.8147 -0.1192
   31MOL0     C 4109  11.121   4.300   8.809 -0.4299  0.6647 -0.6444
   31MOL0     C 4110  11.252   4.278   8.879 -0.2434 -0.6071 -0.5150
   31MOL0     C 4111  11.341   4.189   8.779 -0.1364 -0.3228 -0.2934
   31MOL0     C 4112  11.481   4.154   8.829  0.0955 -0.0290  1.3819
   31MOL0     C 4113  11.475   4.052   8.938  0.3826 -0.5534  0.0231
   31MOL0     C 4114  11.456   3.973   9.027  0.0071  0.0551 -0.0096
   31MOL0     C 4115  10.828   4.091   8.741  0.4114  0.3909 -0.8655
   31MOL0     C 4116  10.695   4.098   8.697 -0.2018 -0.4778 -0.9732
   31MOL0     C 4117  10.623   3.975   8.708 -0.2594  0.6692 -0.2654
   31MOL0     H 4118  10.329   4.534   8.628  1.4480 -0.8145 -1.6666
   31MOL0     H 4119  10.110   4.575   8.575 -1.7423  0.1009 -0.3391
   31MOL0     H 4120   9.908   4.430   8.574  1.9516 -0.2008 -0.8530
   31MOL0     H 4121   9.881   4.586   8.503  3.4870  0.5580  0.1416
   31MOL0     H 4122   9.701   4.338   8.434  0.4326  0.4056  1.2638
   31MOL0     H 4123   9.723   4.481   8.331 -0.0502 -4.4077 -1.5398
   31MOL0     H 4124   9.634   4.638   8.469 -2.8819  1.2964  0.7816
   31MOL0     H 4125   9.642   4.529   8.609  3.2569  2.0497  0.1188
   31MOL0     H 4126   9.468   4.502   8.365  0.3460 -0.7982  0.3818
   31MOL0     H 4127   9.469   4.377   8.476 -2.1106 -0.9907 -4.5844
   31MOL0     H 4128   9.399   4.512   8.655 -0.8836 -3.6670 -2.3122
   31MOL0     H 4129   9.402   4.661   8.547 -1.4556  1.7721  1.6754
   31MOL0     H 4130   9.217   4.568   8.430 -2.5519 -1.1920 -1.4417
   31MOL0     H 4131   9.234   4.418   8.513  0.5704  0.2613  1.2853
   31MOL0     H 4132   9.197   4.538   8.735 -0.8706  0.1192  0.2780
   31MOL0     H 4133   9.050   4.528   8.625 -0.0167 -1.7628  1.5342
   31MOL0     H 4134   9.062   4.731   8.733 -0.7274  0.0809 -0.3857
   31MOL0     H 4135   9.237   4.767   8.679  0.1420  0.2547 -1.1112
   31MOL0     H 4136   8.990   4.668   8.399 -2.0856 -0.5353  2.0230
   31MOL0     H 4137   8.887   5.018   8.239 -1.8557  0.5251 -1.6265
   31MOL0     H 4138   8.969   4.884   8.168 -0.7823  2.1286 -0.6781
   31MOL0     H 4139   8.781   4.724   8.225  1.0504 -0.0859  2.2287
   31MOL0     H 4140   8.715   4.843   8.340  1.6610  1.6878 -0.3169
   31MOL0     H 4141   8.709   4.863   8.044 -0.5789  0.3425 -0.8016
   31MOL0     H 4142   8.658   4.986   8.167 -0.3650 -0.0235  3.7252
   31MOL0     H 4143   8.478   4.862   8.247 -0.7423  3.7377 -1.1893
   31MOL0     H 4144   8.547   4.706   8.179 -0.7711 -0.5029 -0.9176
   31MOL0     H 4145   8.342   4.837   7.827  3.3805  0.4839 -1.7749
   31MOL0     H 4146   8.254   5.036   7.708 -0.6639  2.4332 -0.4330
   31MOL0     H 4147   8.341   5.508   7.670 -1.6561 -0.6934  2.3542
   31MOL0     H 4148   8.275   5.704   7.512  1.9249 -0.1341 -1.3592
   31MOL0     H 4149   7.865   5.672   7.319  0.4488 -0.2051 -0.8750
   31MOL0     H 4150   7.891   5.825   7.405  0.3665 -0.3626  0.0737
   31MOL0     H 4151   7.991   5.921   7.199  1.2020 -0.4466 -2.5253
   31MOL0     H 4152   7.993   5.762   7.128  0.4291  2.9597 -2.2773
   31MOL0     H 4153   7.792   5.824   7.052 -1.5260  1.3791 -0.7365
   31MOL0     H 4154   7.725   5.802   7.207 -0.6118  2.4092  1.9601
   31MOL0     H 4155   7.830   6.076   7.145 -0.2049  0.9507  0.6784
   31MOL0     H 4156   7.768   6.016   7.297  0.4455  0.5346 -0.6341
   31MOL0     H 4157   7.540   5.966   7.168 -2.6417  3.8264 -1.0418
   31MOL0     H 4158   7.637   6.024   7.027  1.4309  0.5389 -0.9485
   31MOL0     H 4159   7.534   6.168   7.272  2.6152 -0.7272  1.9999
   31MOL0     H 4160   7.661   6.232   7.167  0.4214 -0.9583 -1.3105
   31MOL0     H 4161   7.491   6.175   6.965  0.5773 -0.7136  0.1239
   31MOL0     H 4162   7.487   6.326   7.049 -1.6986  0.7867 -0.0395
   31MOL0     H 4163   7.321   6.257   7.222 -1.7362  0.8886 -0.4040
   31MOL0     H 4164   7.259   6.282   7.063  0.7400  2.2918  1.5755
   31MOL0     H 4165   7.918   5.495   7.406  1.3913  1.3032 -2.4529
   31MOL0     H 4166   7.985   5.310   7.561 -0.1331 -0.1111  0.5084
   31MOL0     H 4167   8.297   5.262   8.080 -0.2384  0.0672  0.1409
   31MOL0     H 4168   8.388   5.064   8.188 -5.5450  0.6563  0.5914
   31MOL0     H 4169  10.119   4.275   8.258  2.1575 -0.8612 -0.4579
   31MOL0     H 4170  10.357   4.230   8.322 -0.4045 -2.0485  2.2887
   31MOL0     H 4171  10.698   4.437   8.640 -0.7303 -0.3637 -0.2842
   31MOL0     H 4172  10.920   4.411   8.721  0.9419 -0.8135  3.4755
   31MOL0     H 4173  11.073   4.385   8.857 -1.5592  0.2271 -0.9699
   31MOL0     H 4174  11.127   4.323   8.703 -4.5568 -2.6449 -1.8991
   31MOL0     H 4175  11.230   4.244   8.981  3.0335  4.5836  2.4135
   31MOL0     H 4176  11.300   4.376   8.890  2.8507 -2.1300  0.5643
   31MOL0     H 4177  11.351   4.245   8.686 -0.2517 -1.1012 -0.7873
   31MOL0     H 4178  11.301   4.088   8.763  2.8040 -1.8535  1.1010
   31MOL0     H 4179  11.536   4.122   8.739 -0.3698 -0.1298  1.1282
   31MOL0     H 4180  11.529   4.247   8.858  1.2458 -0.8404  2.1736
   31MOL0     H 4181  11.455   3.913   9.116 -0.1161  1.3408  0.8735
   31MOL0     H 4182  10.869   4.002   8.788 -2.7509 -0.0975  1.2789
   31MOL0     H 4183  10.565   3.954   8.618 -0.0699  3.4229 -1.1154
   31MOL0     H 4184  10.689   3.888   8.722  0.9895  1.7907  1.2508
   31MOL0     H 4185  10.557   3.975   8.796  0.8613 -1.1696  0.6465
   32MOL0     O 4186   3.782   4.828   3.421  0.2688 -0.5919  0.3507
   32MOL0     C 4187   3.673   4.837   3.477 -0.1918  1.4369  0.5522
   32MOL0     O 4188   3.573   4.732   3.479 -0.6179 -0.3983  0.3985
   32MOL0     C 4189   3.596   4.610   3.425  0.2510  0.3147  0.4814
   32MOL0     C 4190   3.724   4.541   3.411  0.2589  0.4155 -0.1283
   32MOL0     C 4191   3.739   4.415   3.358 -0.3127  0.5213  0.2753
   32MOL0     C 4192   3.634   4.350   3.288  0.8904 -0.0301 -1.0744
   32MOL0     O 4193   3.646   4.249   3.196  0.3543 -0.2899  0.0673
   32MOL0     C 4194   3.773   4.200   3.158  0.3518  0.1063  0.2384
   32MOL0     C 4195   3.867   4.299   3.079 -0.3400 -0.2230  0.7751
   32MOL0     C 4196   3.978   4.209   3.024  0.3721 -0.1113 -0.0243
   32MOL0     C 4197   4.089   4.284   2.942  0.1722 -0.4649 -1.3273
   32MOL0     C 4198   4.166   4.393   3.027  0.0447  0.1339  0.8505
   32MOL0     C 4199   4.228   4.343   3.163  0.0567  0.7228 -0.0803
   32MOL0     C 4200   4.266   4.457   3.266 -0.2629  0.6242  0.1036
   32MOL0     C 4201   4.331   4.395   3.393  0.3165  0.6697 -0.9227
   32MOL0     N 4202   4.221   4.329   3.472 -0.0582 -0.2392  1.2699
   32MOL0     C 4203   4.220   4.205   3.533 -0.6513 -1.4268 -0.2252
   32MOL0     C 4204   4.091   4.194   3.581 -0.2470  0.3729  0.4090
   32MOL0     C 4205   4.029   4.066   3.640 -0.0964 -0.1685  0.0756
   32MOL0     C 4206   3.877   4.039   3.606 -0.7575  0.8487 -0.4733
   32MOL0     C 4207   3.782   4.141   3.679  0.5250  0.3395 -0.0193
   32MOL0     C 4208   3.636   4.101   3.666 -0.6823  0.0196  0.2921
   32MOL0     O 4209   3.598   3.983   3.741 -0.0281 -0.0995 -0.4330
   32MOL0     C 4210   3.531   4.009   3.857  0.4169  0.3742  0.0242
   32MOL0     C 4211   3.402   3.961   3.875 -0.0192  0.6623 -0.0511
   32MOL0     C 4212   3.336   3.994   3.998  0.3805  0.2521 -0.6052
   32MOL0     C 4213   3.394   4.063   4.101 -0.0376 -0.4751 -0.2455
   32MOL0     C 4214   3.319   4.101   4.221 -0.0660  0.2976 -0.8199
   32MOL0     O 4215   3.196   4.050   4.251  1.0174  0.1237 -0.0161
   32MOL0     C 4216   3.111   4.100   4.350 -0.8703 -0.1941  0.1277
   32MOL0     C 4217   3.008   4.190   4.324 -0.1724  0.1008 -0.9315
   32MOL0     C 4218   2.919   4.230   4.423  0.0676  0.2660  0.2759
   32MOL0     C 4219   2.937   4.184   4.547  1.1741 -0.2922  0.2112
   32MOL0     O 4220   2.858   4.236   4.646  0.9458 -0.1874  0.3107
   32MOL0     C 4221   2.724   4.198   4.652  0.1047  0.1488 -0.4911
   32MOL0     C 4222   2.683   4.225   4.800  0.1069  0.4496  0.3591
   32MOL0     C 4223   2.784   4.170   4.900 -0.1216  0.9350  0.3586
   32MOL0     C 4224   2.714   4.142   5.033 -0.4262  0.6618  0.7345
   32MOL0     C 4225   2.824   4.125   5.141  0.6856 -0.3908  0.8752
   32MOL0     C 4226   2.763   4.106   5.278 -0.6729 -0.8681 -0.3550
   32MOL0     C 4227   2.833   4.000   5.360  0.1043 -0.1632 -0.0683
   32MOL0     C 4228   2.776   3.988   5.503  0.0889 -0.9521  0.5025
   32MOL0    Cl 4229   2.597   4.030   5.536  0.1167  0.3358 -0.2135
   32MOL0     C 4230   3.046   4.107   4.581 -0.2181  0.9459  0.0063
   32MOL0     C 4231   3.136   4.068   4.485  0.2634  0.1606  0.3035
   32MOL0     O 4232   3.384   4.171   4.299  0.8402  0.4941  0.4250
   32MOL0     C 4233   3.525   4.115   4.076 -0.0777 -0.7675  0.6450
   32MOL0     C 4234   3.596   4.090   3.959  0.3068  0.1281  0.4738
   32MOL0     N 4235   4.019   4.307   3.553 -0.5596 -0.3573  0.0548
   32MOL0     N 4236   4.108   4.389   3.500  0.3306 -0.0898  0.1135
   32MOL0     C 4237   3.508   4.411   3.305  0.9823 -0.9342 -0.1050
   32MOL0     C 4238   3.490   4.532   3.376 -0.1382 -0.3253  0.4392
   32MOL0     C 4239   3.633   4.972   3.530  0.5219 -0.9683 -0.2567
   32MOL0     C 4240   3.543   4.982   3.638 -0.4448  1.1794  0.3280
   32MOL0     C 4241   3.495   5.103   3.682 -0.3975  0.2123  0.0666
   32MOL0     C 4242   3.528   5.217   3.626 -0.6144  0.0254  0.3382
   32MOL0     O 4243   3.448   5.328   3.665 -0.1945 -0.0085  0.1080
   32MOL0     C 4244   3.466   5.448   3.586 -0.3506  0.0058 -0.6273
   32MOL0     C 4245   3.353   5.550   3.618 -0.3190 -0.1104  0.0087
   32MOL0     C 4246   3.211   5.512   3.562  0.9897 -0.4381  0.0587
   32MOL0     C 4247   3.111   5.625   3.555  0.0836 -0.5936 -0.3775
   32MOL0     C 4248   3.093   5.708   3.677  0.3274 -0.3451  0.2465
   32MOL0     C 4249   3.094   5.776   3.770  0.6691 -0.5699 -0.6876
   32MOL0     C 4250   3.608   5.217   3.516 -0.3622 -0.1345  0.2624
   32MOL0     C 4251   3.663   5.099   3.462  0.3658 -0.4195 -0.5600
   32MOL0     C 4252   3.712   5.111   3.316 -0.0066 -0.7840 -0.0731
   32MOL0     H 4253   3.810   4.585   3.459 -0.0207 -0.9037  1.6905
   32MOL0     H 4254   3.841   4.378   3.347  0.6376  1.5630  4.1346
   32MOL0     H 4255   3.831   4.154   3.239  4.2915 -1.5161 -3.1182
   32MOL0     H 4256   3.739   4.122   3.089 -1.6673  1.3788 -0.2911
   32MOL0     H 4257   3.912   4.364   3.156  1.2603 -0.0636 -0.2381
   32MOL0     H 4258   3.820   4.367   3.008  1.0059 -2.1672 -2.1526
   32MOL0     H 4259   3.939   4.146   2.943  2.9047 -1.1105 -0.5646
   32MOL0     H 4260   4.010   4.138   3.100 -0.2494 -0.8288 -0.4128
   32MOL0     H 4261   4.163   4.211   2.908 -1.0185 -1.6590 -1.4490
   32MOL0     H 4262   4.040   4.326   2.853  2.1697  1.7599 -1.4752
   32MOL0     H 4263   4.247   4.441   2.972  1.3894 -0.7925  1.9338
   32MOL0     H 4264   4.085   4.466   3.040  1.9100  2.7421 -1.1386
   32MOL0     H 4265   4.149   4.283   3.208  0.2821  0.8317  0.4734
   32MOL0     H 4266   4.312   4.274   3.156 -0.4198  0.1842 -0.5488
   32MOL0     H 4267   4.174   4.511   3.286 -0.0726  1.1353 -0.3600
   32MOL0     H 4268   4.336   4.529   3.224 -2.0743  1.3555 -1.8374
   32MOL0     H 4269   4.402   4.316   3.368  1.3772  1.9552 -2.1887
   32MOL0     H 4270   4.376   4.468   3.462  1.9319  1.0764 -2.3142
   32MOL0     H 4271   4.304   4.136   3.531 -0.2980 -1.0005 -0.3737
   32MOL0     H 4272   4.084   3.983   3.596 -0.1808  0.5671 -1.5006
   32MOL0     H 4273   4.025   4.059   3.749 -3.1133 -2.2417 -0.0271
   32MOL0     H 4274   3.851   4.055   3.501 -1.0331  1.7990 -0.2666
   32MOL0     H 4275   3.857   3.932   3.621  0.6824  0.8981  2.7166
   32MOL0     H 4276   3.778   4.243   3.639 -0.6373 -0.4986 -2.1858
   32MOL0     H 4277   3.815   4.145   3.783  1.1393 -1.8036 -0.0933
   32MOL0     H 4278   3.616   4.088   3.559  1.2238  0.9504 -0.2243
   32MOL0     H 4279   3.581   4.191   3.694 -0.6785 -0.7071  2.9347
   32MOL0     H 4280   3.364   3.911   3.787 -0.0304  1.1180 -0.3023
   32MOL0     H 4281   3.234   3.958   4.006  0.1777  0.7261 -0.9817
   32MOL0     H 4282   3.002   4.232   4.224  2.5950  1.4836 -0.6241
   32MOL0     H 4283   2.823   4.278   4.408 -1.5925 -2.4641  1.5047
   32MOL0     H 4284   2.667   4.254   4.577  1.4692 -1.1788 -2.6462
   32MOL0     H 4285   2.719   4.091   4.626  1.1549  0.4056 -1.9081
   32MOL0     H 4286   2.654   4.330   4.816  0.5472  0.4700  1.0542
   32MOL0     H 4287   2.593   4.164   4.816 -0.5105  1.4677  0.8805
   32MOL0     H 4288   2.832   4.080   4.861 -1.2679 -0.3720  1.8382
   32MOL0     H 4289   2.859   4.247   4.920  0.6107 -0.0885  1.7419
   32MOL0     H 4290   2.649   4.056   5.019  1.1370 -0.4365 -0.1729
   32MOL0     H 4291   2.655   4.231   5.057  1.0146  1.4961  1.3711
   32MOL0     H 4292   2.878   4.220   5.143  2.1095 -1.1764  1.5345
   32MOL0     H 4293   2.900   4.054   5.107  0.6792  0.0945 -0.2078
   32MOL0     H 4294   2.766   4.206   5.323  0.4118 -0.0819 -2.0469
   32MOL0     H 4295   2.661   4.067   5.281 -0.5569 -1.3381  4.4370
   32MOL0     H 4296   2.939   4.017   5.377 -0.3300  1.5837  1.2049
   32MOL0     H 4297   2.807   3.904   5.316 -2.7913  2.2206 -4.2572
   32MOL0     H 4298   2.795   3.890   5.549 -1.0159 -0.8719  1.1897
   32MOL0     H 4299   2.841   4.056   5.559  1.2124 -0.4129 -1.3837
   32MOL0     H 4300   3.053   4.080   4.686 -0.8693  0.4963 -0.0569
   32MOL0     H 4301   3.220   4.004   4.508  0.3014  0.1636  0.1783
   32MOL0     H 4302   3.568   4.172   4.157  0.4648 -1.2160  0.6762
   32MOL0     H 4303   3.689   4.146   3.948 -0.9412  2.4140  0.8597
   32MOL0     H 4304   3.421   4.365   3.260  1.5834 -3.8357  1.4435
   32MOL0     H 4305   3.389   4.572   3.380  0.1157  0.3776 -0.0509
   32MOL0     H 4306   3.493   4.891   3.669 -2.1129  1.0732 -2.3945
   32MOL0     H 4307   3.428   5.102   3.767 -0.5658 -1.3751 -0.0433
   32MOL0     H 4308   3.456   5.424   3.479  0.0189 -1.5306 -0.3401
   32MOL0     H 4309   3.561   5.498   3.603 -0.5105 -0.4585  2.0245
   32MOL0     H 4310   3.376   5.644   3.568 -2.0745  0.4660  0.2164
   32MOL0     H 4311   3.348   5.582   3.723 -0.0372  3.2983 -0.8833
   32MOL0     H 4312   3.166   5.446   3.636 -0.0123  0.5118  0.3242
   32MOL0     H 4313   3.215   5.467   3.462 -1.9925  1.0226 -0.8321
   32MOL0     H 4314   3.151   5.697   3.482  1.8935 -0.1971  0.9320
   32MOL0     H 4315   3.015   5.591   3.514 -1.0154  0.9599  0.8085
   32MOL0     H 4316   3.075   5.849   3.846  1.1183 -1.3797  0.2229
   32MOL0     H 4317   3.640   5.311   3.472  3.2453 -1.8687 -1.2568
   32MOL0     H 4318   3.817   5.085   3.299 -0.1633 -2.7521  1.5546
   32MOL0     H 4319   3.662   5.041   3.248  2.0348  0.5235 -3.1426
   32MOL0     H 4320   3.705   5.211   3.272 -2.2424 -0.3984  1.0103
   33MOL0     O 4321   7.952   1.660   4.849  0.4501  0.4961 -0.7075
   33MOL0     C 4322   7.849   1.619   4.901 -0.8113 -0.2773  0.8044
   33MOL0     O 4323   7.845   1.495   4.969  0.1678 -0.1261  0.4025
   33MOL0     C 4324   7.963   1.450   5.020 -0.4018  1.0742  0.0503
   33MOL0     C 4325   8.013   1.316   5.010 -0.6292  0.2752 -0.0175
   33MOL0     C 4326   8.126   1.276   5.076 -0.0336 -0.4865  0.0648
   33MOL0     C 4327   8.210   1.367   5.137 -0.7960 -0.1178 -0.6549
   33MOL0     O 4328   8.327   1.333   5.204 -0.5709  0.6844  0.0415
   33MOL0     C 4329   8.378   1.201   5.190  0.4176 -0.1440 -0.7052
   33MOL0     C 4330   8.489   1.188   5.288 -0.0695  1.0443 -0.2584
   33MOL0     C 4331   8.548   1.045   5.270  0.2164  0.0276 -0.1471
   33MOL0     C 4332   8.650   1.038   5.155 -0.0279 -0.1353 -0.3135
   33MOL0     C 4333   8.694   0.901   5.123  0.5703 -0.1962 -0.2584
   33MOL0     C 4334   8.785   0.879   5.001  0.8145 -0.2329  0.6291
   33MOL0     C 4335   8.926   0.951   5.020 -0.3845  0.6959  0.4936
   33MOL0     C 4336   9.003   0.991   4.891  0.3902  0.3972 -0.4457
   33MOL0     N 4337   8.999   0.872   4.806 -0.4819 -0.4562  0.3292
   33MOL0     C 4338   9.096   0.769   4.814 -0.5788  0.3139 -0.0925
   33MOL0     C 4339   9.043   0.673   4.729  0.8222  0.3892 -0.9909
   33MOL0     C 4340   9.110   0.540   4.704  0.0045 -1.0727 -0.1195
   33MOL0     C 4341   9.023   0.431   4.638 -0.0714 -0.3511  1.4291
   33MOL0     C 4342   8.886   0.409   4.703 -0.0008 -0.2111 -0.8929
   33MOL0     C 4343   8.840   0.267   4.686 -0.4905  0.6193 -1.1863
   33MOL0     O 4344   8.823   0.245   4.550 -1.4671 -1.0720  0.7362
   33MOL0     C 4345   8.784   0.126   4.501  1.2095  0.7680  0.7900
   33MOL0     C 4346   8.772   0.109   4.363 -0.8007 -0.4806  0.1805
   33MOL0     C 4347   8.718  -0.005   4.312 -0.0080 -0.7372  0.5787
   33MOL0     C 4348   8.661  -0.102   4.387  0.2056  0.0134 -0.1131
   33MOL0     C 4349   8.599  -0.219   4.323  0.0630  0.5251  0.5881
   33MOL0     O 4350   8.500  -0.289   4.392  0.0983 -0.9314  0.3940
   33MOL0     C 4351   8.426  -0.386   4.338 -0.2410  0.2166  0.7296
   33MOL0     C 4352   8.282  -0.385   4.363  0.6289  1.0241 -0.3117
   33MOL0     C 4353   8.210  -0.496   4.313  0.3894  0.2132 -1.0617
   33MOL0     C 4354   8.269  -0.610   4.254 -0.2439 -0.9112  0.5220
   33MOL0     O 4355   8.199  -0.718   4.216  0.9900  0.6367 -0.2083
   33MOL0     C 4356   8.180  -0.823   4.306  0.1533 -0.3503 -0.2132
   33MOL0     C 4357   8.044  -0.893   4.284  0.3727 -0.1013  0.5887
   33MOL0     C 4358   8.040  -0.990   4.162 -0.2130  0.7056 -1.2827
   33MOL0     C 4359   7.896  -0.996   4.095 -0.2540  0.2840 -0.6170
   33MOL0     C 4360   7.889  -1.048   3.943 -0.3359 -0.5729 -0.5516
   33MOL0     C 4361   7.908  -1.200   3.940 -0.4851 -0.3658  0.4897
   33MOL0     C 4362   7.837  -1.256   3.810  0.1542  0.9493 -0.6375
   33MOL0     C 4363   7.847  -1.410   3.807 -0.1620 -0.5582  0.0196
   33MOL0    Cl 4364   7.973  -1.461   3.712 -0.0354  0.1526 -0.4421
   33MOL0     C 4365   8.409  -0.608   4.231 -0.6244 -0.1031  0.0785
   33MOL0     C 4366   8.489  -0.499   4.275  0.1058  1.1074 -0.2597
   33MOL0     O 4367   8.619  -0.233   4.203 -0.8484  0.4137  0.0465
   33MOL0     C 4368   8.670  -0.086   4.531  0.1360 -0.4028 -0.4830
   33MOL0     C 4369   8.742   0.023   4.580  0.3222  1.1435 -0.3863
   33MOL0     N 4370   8.925   0.722   4.671  0.2586 -0.2712  0.1502
   33MOL0     N 4371   8.907   0.839   4.717  0.0179 -0.2713  0.0568
   33MOL0     C 4372   8.167   1.498   5.151  0.4967  0.4332 -0.0477
   33MOL0     C 4373   8.043   1.534   5.102  1.2044  0.1734 -0.9114
   33MOL0     C 4374   7.736   1.696   4.874 -0.3866 -0.3290  0.1050
   33MOL0     C 4375   7.634   1.709   4.973 -0.1330 -0.8547 -0.4160
   33MOL0     C 4376   7.527   1.790   4.966  0.7025  0.3424  0.4450
   33MOL0     C 4377   7.516   1.873   4.850  0.2695  0.2489  0.4342
   33MOL0     O 4378   7.411   1.963   4.855  0.9395  0.8045 -0.3442
   33MOL0     C 4379   7.356   2.007   4.726 -0.5357 -0.1210 -0.3182
   33MOL0     C 4380   7.238   2.103   4.750 -0.8753 -0.0195  0.4175
   33MOL0     C 4381   7.159   2.137   4.628 -0.1258  0.2787  0.2953
   33MOL0     C 4382   7.044   2.241   4.648  0.0498 -0.5613 -0.6882
   33MOL0     C 4383   6.941   2.199   4.740 -0.4593  0.1337 -0.6302
   33MOL0     C 4384   6.846   2.179   4.811 -0.4418  1.1628  1.4188
   33MOL0     C 4385   7.614   1.861   4.751  0.5261  0.1686  0.4826
   33MOL0     C 4386   7.716   1.768   4.754  0.0822  0.2882 -1.1480
   33MOL0     C 4387   7.804   1.778   4.634  0.0437  0.2245  0.6728
   33MOL0     H 4388   7.970   1.230   4.958  1.6289 -0.9708  0.0357
   33MOL0     H 4389   8.143   1.169   5.074  1.5072 -0.3074 -3.4557
   33MOL0     H 4390   8.299   1.133   5.224 -1.4332  2.5871  0.8277
   33MOL0     H 4391   8.408   1.182   5.086  0.0242  1.1236 -1.0679
   33MOL0     H 4392   8.456   1.189   5.392  1.6740 -2.5649  0.4963
   33MOL0     H 4393   8.563   1.265   5.266 -0.2831  1.3386  0.0477
   33MOL0     H 4394   8.467   0.974   5.248  2.1760 -2.5503  0.3856
   33MOL0     H 4395   8.602   1.017   5.362  0.0930  0.8569  0.1814
   33MOL0     H 4396   8.611   1.086   5.065  3.2968 -0.3592 -2.0216
   33MOL0     H 4397   8.735   1.100   5.185 -0.3558  1.3211 -2.2329
   33MOL0     H 4398   8.752   0.851   5.201  1.6721 -0.7731 -1.4070
   33MOL0     H 4399   8.611   0.833   5.099 -2.1107  2.7361  0.1073
   33MOL0     H 4400   8.795   0.775   4.970 -1.8683 -0.7991  1.3683
   33MOL0     H 4401   8.727   0.917   4.916  2.3585 -0.2146 -0.4548
   33MOL0     H 4402   8.987   0.891   5.089  0.2465  3.1356  2.2018
   33MOL0     H 4403   8.898   1.046   5.065 -1.0175  1.7326 -1.9382
   33MOL0     H 4404   8.973   1.082   4.838 -3.0158  0.4471  1.2594
   33MOL0     H 4405   9.107   1.014   4.918 -0.2110  2.3662  0.4034
   33MOL0     H 4406   9.184   0.765   4.876  0.3214 -1.2499 -1.3998
   33MOL0     H 4407   9.183   0.560   4.625 -0.1051 -2.0015 -0.4730
   33MOL0     H 4408   9.155   0.513   4.800 -0.6871  2.2691  1.2482
   33MOL0     H 4409   8.997   0.450   4.533  2.4838  1.0783  0.9704
   33MOL0     H 4410   9.089   0.344   4.637 -0.7120 -0.8537  1.6741
   33MOL0     H 4411   8.806   0.468   4.656 -0.5227  0.4465  0.7377
   33MOL0     H 4412   8.893   0.427   4.811  0.1464  0.4690 -1.0070
   33MOL0     H 4413   8.740   0.265   4.730 -0.1049 -2.0016 -0.2361
   33MOL0     H 4414   8.910   0.196   4.731 -1.9884 -0.0704  0.1645
   33MOL0     H 4415   8.807   0.192   4.303  1.0325 -0.6449  0.9589
   33MOL0     H 4416   8.719   0.005   4.204  0.0919  0.0458  0.6488
   33MOL0     H 4417   8.237  -0.304   4.421  0.2808 -0.1073  1.0452
   33MOL0     H 4418   8.107  -0.491   4.346 -0.2862  1.8012 -3.1971
   33MOL0     H 4419   8.258  -0.897   4.285 -1.5370 -1.2669 -4.1690
   33MOL0     H 4420   8.179  -0.780   4.406 -0.2372  1.2632 -0.8777
   33MOL0     H 4421   8.026  -0.942   4.380  1.1119  2.0867  1.9303
   33MOL0     H 4422   7.961  -0.821   4.281 -1.9754 -2.6896 -1.6552
   33MOL0     H 4423   8.115  -0.953   4.093  0.4640 -1.6872 -1.9143
   33MOL0     H 4424   8.082  -1.088   4.190  0.4065  0.7675 -1.9733
   33MOL0     H 4425   7.846  -0.899   4.097 -3.9386 -1.4506 -0.1215
   33MOL0     H 4426   7.833  -1.053   4.164  0.7504 -1.3024 -0.9554
   33MOL0     H 4427   7.960  -0.995   3.879 -0.3391  0.3219  0.1682
   33MOL0     H 4428   7.795  -1.009   3.903  0.0052 -0.0940 -0.8972
   33MOL0     H 4429   8.015  -1.220   3.944 -0.4832 -1.1430 -1.7987
   33MOL0     H 4430   7.872  -1.243   4.034 -1.1320  2.9041  1.8753
   33MOL0     H 4431   7.890  -1.224   3.720  0.5419 -0.7495 -1.0451
   33MOL0     H 4432   7.730  -1.231   3.809 -0.6883 -2.2422 -2.0631
   33MOL0     H 4433   7.861  -1.446   3.909 -1.4761 -0.3627  0.2913
   33MOL0     H 4434   7.753  -1.456   3.776  0.8867 -0.5711 -3.7232
   33MOL0     H 4435   8.457  -0.698   4.192 -1.6116  0.1930 -1.9406
   33MOL0     H 4436   8.597  -0.504   4.266  0.3510  0.3037  2.3453
   33MOL0     H 4437   8.621  -0.159   4.593 -0.6892 -1.3937 -2.2361
   33MOL0     H 4438   8.731   0.019   4.688 -2.7719 -3.3008 -0.6009
   33MOL0     H 4439   8.244   1.547   5.209  2.4010  0.0526 -2.1166
   33MOL0     H 4440   8.005   1.634   5.119 -1.3580 -0.6396 -1.4734
   33MOL0     H 4441   7.645   1.645   5.061  2.3825  0.4815  0.3377
   33MOL0     H 4442   7.453   1.800   5.045 -0.2191  1.2607 -0.5029
   33MOL0     H 4443   7.325   1.913   4.679  1.9022 -0.8214 -0.6862
   33MOL0     H 4444   7.424   2.045   4.649 -1.4773  1.0255 -0.6016
   33MOL0     H 4445   7.280   2.195   4.790 -2.7499  0.4081  1.5614
   33MOL0     H 4446   7.167   2.071   4.827 -1.1527  2.2210  1.1570
   33MOL0     H 4447   7.116   2.044   4.590  1.2297  0.1521 -1.0293
   33MOL0     H 4448   7.230   2.165   4.549  0.7293 -5.3540 -1.3642
   33MOL0     H 4449   7.095   2.326   4.694 -3.4449 -0.0058  2.7112
   33MOL0     H 4450   7.001   2.272   4.552  1.9560  1.7040 -0.8919
   33MOL0     H 4451   6.759   2.160   4.870  0.5449  0.9138  2.8503
   33MOL0     H 4452   7.585   1.912   4.659  0.4481  0.7959  0.8512
   33MOL0     H 4453   7.751   1.817   4.547 -0.9135 -2.8942 -0.2770
   33MOL0     H 4454   7.888   1.845   4.656  0.2881 -0.8253  3.2344
   33MOL0     H 4455   7.846   1.681   4.609 -0.6234  0.6775 -2.6852
   34MOL0     O 4456  10.293   2.719  10.625 -0.0664  0.4462  0.4335
   34MOL0     C 4457  10.303   2.597  10.591 -0.1110 -0.6743 -0.5449
   34MOL0     O 4458  10.313   2.487  10.677 -0.5883 -0.2489  0.4795
   34MOL0     C 4459  10.342   2.510  10.813  0.6528 -0.3555  0.8423
   34MOL0     C 4460  10.472   2.523  10.863 -0.3839 -1.0224 -1.2055
   34MOL0     C 4461  10.494   2.562  10.999  0.6708 -1.0040  0.1306
   34MOL0     C 4462  10.389   2.578  11.089 -0.0090  0.3142  0.6355
   34MOL0     O 4463  10.393   2.617  11.224 -0.4480 -0.1375  0.3189
   34MOL0     C 4464  10.521   2.617  11.298  0.5854 -0.8364 -0.1794
   34MOL0     C 4465  10.491   2.591  11.445  0.1183 -0.2688  0.3860
   34MOL0     C 4466  10.413   2.464  11.475 -0.2877 -0.7413  1.0451
   34MOL0     C 4467  10.390   2.417  11.610  0.5897  0.4961  0.6485
   34MOL0     C 4468  10.360   2.262  11.611 -0.4628 -0.5732  0.4361
   34MOL0     C 4469  10.314   2.233  11.757  0.2217  0.4574 -0.2884
   34MOL0     C 4470  10.234   2.116  11.770 -0.5028 -0.5117 -0.4721
   34MOL0     C 4471  10.172   2.132  11.912  0.2522  0.2238 -0.3844
   34MOL0     N 4472  10.092   2.014  11.943  0.1193 -0.2807 -0.1530
   34MOL0     C 4473  10.116   1.912  12.030 -0.5760  0.6059 -0.4397
   34MOL0     C 4474  10.011   1.828  12.025 -0.2286 -1.1483 -0.6507
   34MOL0     C 4475   9.978   1.708  12.108  1.0194 -0.4736  0.4975
   34MOL0     C 4476   9.972   1.724  12.262  0.7411  0.0457  0.4636
   34MOL0     C 4477  10.104   1.731  12.332  0.0874 -0.4677 -0.0351
   34MOL0     C 4478  10.139   1.874  12.366  0.9231 -0.0244  0.0935
   34MOL0     O 4479  10.124   1.906  12.505  0.0783 -0.2027  0.2359
   34MOL0     C 4480  10.001   1.921  12.562 -0.2908 -0.0490 -0.2095
   34MOL0     C 4481   9.976   1.847  12.678  0.2676 -0.4026  0.4840
   34MOL0     C 4482   9.856   1.855  12.748  0.4628 -0.6361 -0.6072
   34MOL0     C 4483   9.748   1.927  12.692  0.2920 -0.2472  0.5178
   34MOL0     C 4484   9.625   1.938  12.775 -1.0003  0.4867  0.1020
   34MOL0     O 4485   9.519   2.004  12.713 -0.4557 -0.4013 -0.4984
   34MOL0     C 4486   9.394   2.014  12.771 -0.0845 -0.1316  0.3699
   34MOL0     C 4487   9.370   2.062  12.900 -0.3109 -0.3209  0.2006
   34MOL0     C 4488   9.249   2.067  12.967  0.2053  0.5188  0.6629
   34MOL0     C 4489   9.142   2.020  12.899  0.5706  0.7775  0.3955
   34MOL0     O 4490   9.029   2.022  12.972 -0.1787 -0.1753 -0.1039
   34MOL0     C 4491   8.908   2.058  12.894 -0.2171  1.2560 -0.5714
   34MOL0     C 4492   8.834   2.189  12.929  0.4537  0.1036 -0.5553
   34MOL0     C 4493   8.943   2.289  12.962 -0.5501  0.6898  0.9014
   34MOL0     C 4494   8.888   2.437  12.975 -0.0786  0.1207 -0.2785
   34MOL0     C 4495   8.988   2.530  12.917 -0.2837 -0.9765  0.1643
   34MOL0     C 4496   9.136   2.515  12.958  0.7050  0.1882  0.6525
   34MOL0     C 4497   9.153   2.505  13.114 -0.4258  0.0838  0.2333
   34MOL0     C 4498   9.257   2.614  13.174 -0.3045  0.1928 -0.0367
   34MOL0    Cl 4499   9.425   2.614  13.119 -0.0257 -0.2307 -0.5416
   34MOL0     C 4500   9.153   1.952  12.774  0.5379  0.5897 -0.0637
   34MOL0     C 4501   9.275   1.959  12.704 -0.0803  1.7499 -0.4047
   34MOL0     O 4502   9.621   1.890  12.890 -0.5798 -0.6564  0.5743
   34MOL0     C 4503   9.777   1.998  12.575 -0.1554 -0.6932 -0.6015
   34MOL0     C 4504   9.904   2.000  12.508 -0.3081  0.4067 -1.0039
   34MOL0     N 4505   9.929   1.869  11.932 -0.4666 -0.2359  0.4848
   34MOL0     N 4506   9.982   1.971  11.880 -0.2213 -0.5591 -0.3936
   34MOL0     C 4507  10.261   2.553  11.039  0.5533 -0.6682  0.4584
   34MOL0     C 4508  10.236   2.527  10.909 -0.5667 -0.5140  0.9420
   34MOL0     C 4509  10.323   2.581  10.441 -0.3689 -0.8585  0.0956
   34MOL0     C 4510  10.263   2.466  10.385 -0.4724 -0.3970  0.8282
   34MOL0     C 4511  10.254   2.448  10.248  0.2962 -1.1417 -0.1089
   34MOL0     C 4512  10.294   2.544  10.151 -0.7025  0.0118 -0.6601
   34MOL0     O 4513  10.270   2.531  10.019  0.2769 -0.5371 -0.0239
   34MOL0     C 4514  10.145   2.463   9.983  0.5579  0.1109 -0.2529
   34MOL0     C 4515  10.110   2.477   9.834 -0.8558 -0.9525 -1.1141
   34MOL0     C 4516  10.023   2.362   9.790 -0.1076  1.1412  1.2515
   34MOL0     C 4517   9.992   2.360   9.637 -0.3456 -0.1119  0.3108
   34MOL0     C 4518  10.102   2.301   9.557  0.6103 -0.1086 -0.6866
   34MOL0     C 4519  10.179   2.248   9.486 -0.4304 -0.6031  0.0774
   34MOL0     C 4520  10.370   2.647  10.207 -0.2437 -0.4963 -0.1559
   34MOL0     C 4521  10.393   2.662  10.347  0.9978 -0.1758  0.1936
   34MOL0     C 4522  10.503   2.745  10.405  0.3166  0.1820 -0.6500
   34MOL0     H 4523  10.566   2.500  10.814  1.9053  1.2173  1.7219
   34MOL0     H 4524  10.593   2.597  11.025  0.2020 -1.4956  2.8931
   34MOL0     H 4525  10.589   2.539  11.264  1.2841  0.4511 -1.9373
   34MOL0     H 4526  10.574   2.711  11.279 -1.0906 -0.2640 -2.4771
   34MOL0     H 4527  10.427   2.670  11.485 -2.4149 -0.5243 -2.7179
   34MOL0     H 4528  10.585   2.591  11.500  0.7991  0.2219 -0.7340
   34MOL0     H 4529  10.476   2.395  11.418  0.9661  1.0374  0.1916
   34MOL0     H 4530  10.327   2.461  11.407  1.2914 -1.9206 -1.0314
   34MOL0     H 4531  10.483   2.436  11.664  2.4886  2.0940 -2.8042
   34MOL0     H 4532  10.303   2.471  11.648  1.3052  0.6615  2.0923
   34MOL0     H 4533  10.282   2.233  11.541  0.8698  1.8949 -2.3086
   34MOL0     H 4534  10.452   2.211  11.585 -0.1901  1.0418 -2.1442
   34MOL0     H 4535  10.405   2.215  11.816 -0.2102  0.3537  0.3476
   34MOL0     H 4536  10.269   2.320  11.807 -0.8259 -2.0242  3.5195
   34MOL0     H 4537  10.310   2.041  11.750 -0.3344 -0.0255 -1.7365
   34MOL0     H 4538  10.166   2.105  11.685 -1.5659 -0.6040  0.3652
   34MOL0     H 4539  10.250   2.150  11.986  1.3315  2.3431 -1.9164
   34MOL0     H 4540  10.110   2.223  11.910  1.9755  1.4505 -0.4765
   34MOL0     H 4541  10.184   1.884  12.109 -1.7265 -4.1985 -0.8593
   34MOL0     H 4542   9.885   1.671  12.064  1.0567 -1.4335  1.1877
   34MOL0     H 4543  10.060   1.638  12.090  0.4619 -0.5711 -2.0214
   34MOL0     H 4544   9.904   1.807  12.284 -1.5609 -1.2113 -1.4594
   34MOL0     H 4545   9.938   1.632  12.310  0.3814  0.7465  1.5857
   34MOL0     H 4546  10.188   1.698  12.271 -0.8531 -0.6204 -1.2846
   34MOL0     H 4547  10.107   1.658  12.413  1.7930 -0.3987 -0.0024
   34MOL0     H 4548  10.071   1.933  12.304  1.1103  1.2587  1.0641
   34MOL0     H 4549  10.240   1.898  12.333  0.4242  0.5490 -1.0620
   34MOL0     H 4550  10.054   1.794  12.732  0.2265 -2.1988 -1.1105
   34MOL0     H 4551   9.842   1.809  12.845  0.0383  0.3394 -0.1846
   34MOL0     H 4552   9.457   2.087  12.960 -2.1980  0.0917  2.9600
   34MOL0     H 4553   9.245   2.104  13.069  0.1790 -1.1485  1.3013
   34MOL0     H 4554   8.940   2.059  12.789 -3.5186 -1.2816 -1.7893
   34MOL0     H 4555   8.839   1.978  12.921  0.2139  2.1075  3.8419
   34MOL0     H 4556   8.778   2.217  12.839  2.3249  0.4657 -1.6490
   34MOL0     H 4557   8.773   2.179  13.020 -0.2399  4.8482 -0.2748
   34MOL0     H 4558   8.985   2.261  13.059 -0.5439  0.1159  0.7360
   34MOL0     H 4559   9.019   2.284  12.884 -0.4051 -0.1096  1.0920
   34MOL0     H 4560   8.869   2.484  13.073  0.1489  2.2501 -1.2006
   34MOL0     H 4561   8.790   2.444  12.926 -0.7228  2.0083  1.1257
   34MOL0     H 4562   8.949   2.632  12.931  0.9519 -0.6015  1.0880
   34MOL0     H 4563   8.972   2.519  12.809 -2.6265 -2.3984  0.5942
   34MOL0     H 4564   9.171   2.433  12.894 -0.0390  0.8393 -0.6250
   34MOL0     H 4565   9.175   2.610  12.921  1.8016  0.0301  1.3359
   34MOL0     H 4566   9.191   2.406  13.139  0.3640  0.5706  1.0493
   34MOL0     H 4567   9.055   2.520  13.159  0.0391  2.6386  0.5905
   34MOL0     H 4568   9.223   2.718  13.174  0.4413  0.4452  0.0764
   34MOL0     H 4569   9.271   2.595  13.281  2.3892  2.9292  0.2373
   34MOL0     H 4570   9.069   1.888  12.749 -0.7746  0.4610  3.9202
   34MOL0     H 4571   9.270   1.909  12.608 -1.1045  1.0907 -0.0297
   34MOL0     H 4572   9.706   2.078  12.555 -0.8675 -1.4360 -1.1291
   34MOL0     H 4573   9.915   2.054  12.415 -0.1079  2.6920  0.2759
   34MOL0     H 4574  10.169   2.556  11.097 -0.1305 -1.1509 -0.5610
   34MOL0     H 4575  10.137   2.503  10.871 -0.4113 -1.5665  1.1787
   34MOL0     H 4576  10.211   2.390  10.443 -1.5902  0.5104  1.0352
   34MOL0     H 4577  10.189   2.364  10.225 -0.1560 -1.3204  1.6830
   34MOL0     H 4578  10.065   2.490  10.051 -0.1983  0.1855 -1.1540
   34MOL0     H 4579  10.170   2.357   9.992  0.6794  0.2736  1.7921
   34MOL0     H 4580  10.202   2.490   9.775  2.3633  1.3175  3.7000
   34MOL0     H 4581  10.078   2.580   9.814  4.7909  0.8861 -2.8011
   34MOL0     H 4582   9.927   2.379   9.838  0.1161  0.6613  1.8728
   34MOL0     H 4583  10.066   2.269   9.828  3.5233  1.7343 -0.8980
   34MOL0     H 4584   9.898   2.311   9.610 -1.9676  2.3310  1.1598
   34MOL0     H 4585   9.976   2.462   9.601  0.8581 -0.7973 -2.4645
   34MOL0     H 4586  10.252   2.211   9.416 -0.5572 -0.3785 -0.1789
   34MOL0     H 4587  10.402   2.721  10.135 -1.1314  0.2730  0.2280
   34MOL0     H 4588  10.543   2.698  10.495  0.4110  0.3997 -0.5782
   34MOL0     H 4589  10.588   2.736  10.337  0.5725  0.3362 -0.3508
   34MOL0     H 4590  10.473   2.849  10.416  2.3290  0.7404 -0.1037
   35MOL0     O 4591   7.842   3.055   3.462 -0.5188 -0.8249 -0.7870
   35MOL0     C 4592   7.924   2.967   3.449 -0.0556  0.5264 -0.4769
   35MOL0     O 4593   7.940   2.906   3.335 -0.2435  0.2747  0.4168
   35MOL0     C 4594   7.952   2.976   3.218  0.0133  0.3398 -0.5589
   35MOL0     C 4595   7.862   2.944   3.118 -0.4669  0.3332  0.1129
   35MOL0     C 4596   7.854   3.026   3.002 -0.6687 -0.2953  0.0218
   35MOL0     C 4597   7.945   3.141   2.995 -0.0962 -0.0436  0.1065
   35MOL0     O 4598   7.943   3.227   2.893  0.0572 -1.0691 -0.5088
   35MOL0     C 4599   7.876   3.350   2.923  0.9715 -0.2865  0.3503
   35MOL0     C 4600   7.958   3.464   2.843  0.6415 -0.7948 -1.7203
   35MOL0     C 4601   8.102   3.485   2.898  0.3703  0.6603  0.3231
   35MOL0     C 4602   8.158   3.630   2.891  0.1991  0.5478  0.5090
   35MOL0     C 4603   8.227   3.683   3.018  0.5709  0.1257 -0.0729
   35MOL0     C 4604   8.279   3.832   2.991 -0.0161  0.1824 -0.3570
   35MOL0     C 4605   8.370   3.894   3.095 -0.2693 -0.4621  1.2340
   35MOL0     C 4606   8.311   3.901   3.231  0.5466  0.2204  0.0242
   35MOL0     N 4607   8.206   4.005   3.259  1.1731 -0.2355  0.3976
   35MOL0     C 4608   8.078   4.013   3.209  0.0152  0.4285  0.2424
   35MOL0     C 4609   8.019   4.112   3.269 -1.2433 -0.6119 -0.2963
   35MOL0     C 4610   7.867   4.142   3.266  0.9010  0.1950  0.3027
   35MOL0     C 4611   7.809   4.076   3.392 -0.6425  0.2024 -0.1444
   35MOL0     C 4612   7.659   4.104   3.398  0.9746 -0.8544  0.0931
   35MOL0     C 4613   7.630   4.229   3.490 -0.6409  0.0855 -0.0065
   35MOL0     O 4614   7.489   4.258   3.497  0.1195  0.6034 -0.2759
   35MOL0     C 4615   7.463   4.376   3.559  0.0881 -0.7697  0.6428
   35MOL0     C 4616   7.518   4.407   3.684  1.0017 -0.4625  0.1604
   35MOL0     C 4617   7.484   4.520   3.761  0.1798 -0.2952  0.1817
   35MOL0     C 4618   7.385   4.607   3.711 -0.5327 -0.6135  0.1462
   35MOL0     C 4619   7.331   4.737   3.766 -0.0810 -0.1711  0.9866
   35MOL0     O 4620   7.375   4.762   3.893  0.2555  0.3715  0.3000
   35MOL0     C 4621   7.310   4.855   3.965 -0.1160 -0.4744  0.9960
   35MOL0     C 4622   7.195   4.824   4.047 -0.7039 -0.6427 -0.9955
   35MOL0     C 4623   7.131   4.923   4.122 -0.1986 -0.2665 -0.7483
   35MOL0     C 4624   7.161   5.052   4.107 -0.0742 -0.4936 -0.0762
   35MOL0     O 4625   7.108   5.157   4.179  0.0286  1.1523  0.0466
   35MOL0     C 4626   6.979   5.144   4.252  0.2743 -0.3576  1.4966
   35MOL0     C 4627   6.951   5.289   4.286  0.0792  0.5400 -0.8157
   35MOL0     C 4628   7.004   5.318   4.431 -0.8677  0.4867  0.4669
   35MOL0     C 4629   7.155   5.292   4.439 -0.0558 -0.8656 -0.9488
   35MOL0     C 4630   7.228   5.361   4.552 -0.3122 -0.2147  0.6250
   35MOL0     C 4631   7.387   5.362   4.525 -0.1769  0.6205 -0.3604
   35MOL0     C 4632   7.443   5.471   4.433  0.0323  0.4695  0.3628
   35MOL0     C 4633   7.590   5.446   4.391  0.4278  0.2812 -0.1853
   35MOL0    Cl 4634   7.622   5.575   4.275  0.3094  0.3443  0.1008
   35MOL0     C 4635   7.280   5.078   4.036  0.0455 -0.7183 -0.0608
   35MOL0     C 4636   7.347   4.988   3.960  0.0140  0.5307 -0.2588
   35MOL0     O 4637   7.236   4.800   3.714  0.3062 -0.0203 -0.1787
   35MOL0     C 4638   7.324   4.579   3.588  0.1720  1.1827  0.2088
   35MOL0     C 4639   7.362   4.472   3.510  0.7072 -0.4212 -0.1673
   35MOL0     N 4640   8.115   4.177   3.347  1.0456  0.0225 -0.1902
   35MOL0     N 4641   8.228   4.119   3.335  0.1195 -0.2903 -0.4828
   35MOL0     C 4642   8.034   3.173   3.100  0.8030 -0.3465 -0.1965
   35MOL0     C 4643   8.043   3.086   3.205  0.4366  0.5346 -0.8266
   35MOL0     C 4644   7.973   2.906   3.571  0.1765 -0.1402 -0.3125
   35MOL0     C 4645   7.964   2.762   3.578 -0.1604  1.1405 -0.5752
   35MOL0     C 4646   7.979   2.696   3.702 -0.6938  0.5800  0.2716
   35MOL0     C 4647   8.015   2.761   3.811 -0.8122 -0.4993 -0.0648
   35MOL0     O 4648   8.034   2.686   3.925 -0.5437  0.0290 -0.0551
   35MOL0     C 4649   8.138   2.725   4.017  0.9275 -0.1991  0.0991
   35MOL0     C 4650   8.175   2.612   4.123 -0.4689  0.7168  0.3629
   35MOL0     C 4651   8.285   2.668   4.212  1.7316  0.2505 -0.0194
   35MOL0     C 4652   8.334   2.569   4.306 -0.9854 -0.1002 -0.3362
   35MOL0     C 4653   8.234   2.532   4.408  0.5570  0.4751 -0.7433
   35MOL0     C 4654   8.164   2.529   4.503 -0.5847 -0.6954  0.3307
   35MOL0     C 4655   8.026   2.899   3.802  0.0308  0.6991  0.2482
   35MOL0     C 4656   8.003   2.980   3.695 -1.1309  0.6943  0.0561
   35MOL0     C 4657   8.019   3.131   3.700  0.2683  0.7399  0.5959
   35MOL0     H 4658   7.799   2.857   3.134 -0.3000 -0.0804 -1.3012
   35MOL0     H 4659   7.782   3.012   2.922  0.4978 -2.3417 -0.7326
   35MOL0     H 4660   7.780   3.345   2.869  1.7093  1.6579 -1.2919
   35MOL0     H 4661   7.865   3.376   3.029  0.9047  1.4077 -0.0293
   35MOL0     H 4662   7.909   3.557   2.871 -3.2765 -2.8097 -1.1626
   35MOL0     H 4663   7.952   3.461   2.734  2.7099  5.1221 -2.3570
   35MOL0     H 4664   8.165   3.419   2.837  0.1822  0.3400  0.4722
   35MOL0     H 4665   8.106   3.461   3.005  2.7054  1.9777  0.5985
   35MOL0     H 4666   8.227   3.636   2.807 -0.4040  0.5801  0.0028
   35MOL0     H 4667   8.083   3.707   2.870  2.3704  3.1097  1.5811
   35MOL0     H 4668   8.170   3.685   3.111  1.1282 -1.7571  0.3471
   35MOL0     H 4669   8.317   3.624   3.042 -0.4417 -1.3112  0.3085
   35MOL0     H 4670   8.333   3.823   2.896 -2.6369  1.1380 -2.0552
   35MOL0     H 4671   8.192   3.894   2.968 -0.6838 -0.4163  0.5135
   35MOL0     H 4672   8.401   3.991   3.054 -4.0759 -0.2185 -1.6896
   35MOL0     H 4673   8.459   3.834   3.114 -1.2089 -2.1722  0.4603
   35MOL0     H 4674   8.271   3.806   3.267 -0.0673  0.4752  0.0272
   35MOL0     H 4675   8.391   3.923   3.302 -0.5781  1.2100  1.0417
   35MOL0     H 4676   8.033   3.948   3.135  0.6536  1.1975 -0.8590
   35MOL0     H 4677   7.857   4.250   3.276  1.8255  0.1928  1.5582
   35MOL0     H 4678   7.815   4.101   3.179 -1.8957 -0.6772  2.2446
   35MOL0     H 4679   7.819   3.967   3.389  3.0470  0.3597  1.6652
   35MOL0     H 4680   7.861   4.109   3.481  2.4510 -2.9085 -0.5841
   35MOL0     H 4681   7.607   4.013   3.431  0.1629  0.3678  2.5045
   35MOL0     H 4682   7.618   4.135   3.302  1.8815  2.1142  0.5768
   35MOL0     H 4683   7.689   4.318   3.462 -1.1855  0.0733 -1.2543
   35MOL0     H 4684   7.670   4.212   3.590 -2.4042 -3.2532  0.2686
   35MOL0     H 4685   7.576   4.331   3.736 -0.2215 -0.2265  1.9432
   35MOL0     H 4686   7.544   4.541   3.848  0.8171  2.9668 -0.8874
   35MOL0     H 4687   7.144   4.729   4.050 -3.8693  0.9079  1.9003
   35MOL0     H 4688   7.066   4.882   4.199 -2.7191  1.2626 -1.8975
   35MOL0     H 4689   6.902   5.108   4.183  1.1913  0.6134 -0.1074
   35MOL0     H 4690   6.984   5.080   4.341  2.2898 -1.5838  0.5649
   35MOL0     H 4691   6.990   5.369   4.223  0.4074  0.1554 -1.1011
   35MOL0     H 4692   6.842   5.305   4.290 -0.8572 -3.9078 -2.7747
   35MOL0     H 4693   6.990   5.420   4.466 -1.8767 -0.3550  2.7109
   35MOL0     H 4694   6.944   5.251   4.493 -1.8183  0.5267 -0.3758
   35MOL0     H 4695   7.193   5.332   4.344 -1.4275 -0.2615 -1.2632
   35MOL0     H 4696   7.175   5.185   4.447 -1.7035 -1.0529  1.6041
   35MOL0     H 4697   7.208   5.299   4.640 -0.4364 -2.6592 -1.0188
   35MOL0     H 4698   7.182   5.460   4.558  1.4808  1.4178 -5.4983
   35MOL0     H 4699   7.435   5.377   4.622 -0.6224  2.1315 -0.3550
   35MOL0     H 4700   7.412   5.265   4.481  0.1504  1.2206 -1.5213
   35MOL0     H 4701   7.439   5.566   4.488 -2.1248 -0.6279  2.2665
   35MOL0     H 4702   7.389   5.470   4.339  0.9280 -2.7920 -0.2275
   35MOL0     H 4703   7.660   5.446   4.475  0.2682  2.1889 -0.0167
   35MOL0     H 4704   7.605   5.348   4.344  0.1600  0.5486 -0.8421
   35MOL0     H 4705   7.316   5.180   4.031  0.5666 -0.7473  2.1203
   35MOL0     H 4706   7.426   5.027   3.897 -0.8120  2.4595 -0.1820
   35MOL0     H 4707   7.247   4.642   3.545 -1.1341  0.0070  0.7460
   35MOL0     H 4708   7.315   4.446   3.415 -1.1159  2.3611 -0.1354
   35MOL0     H 4709   8.096   3.262   3.105 -1.1698  1.0248  2.4825
   35MOL0     H 4710   8.118   3.108   3.281 -0.9289  0.7374  0.4916
   35MOL0     H 4711   7.939   2.701   3.492  1.2046  3.1679 -2.5134
   35MOL0     H 4712   7.964   2.588   3.700 -0.2812  0.5194  0.4332
   35MOL0     H 4713   8.107   2.820   4.062  0.0099  1.0139 -2.8717
   35MOL0     H 4714   8.216   2.756   3.948 -1.6989  0.4049 -2.8002
   35MOL0     H 4715   8.201   2.521   4.069 -2.2806  0.7427 -0.6375
   35MOL0     H 4716   8.086   2.589   4.183 -0.7935 -0.8078 -0.6586
   35MOL0     H 4717   8.252   2.753   4.271  1.6945  1.1334 -1.2683
   35MOL0     H 4718   8.370   2.705   4.154  1.6882 -1.0363 -0.9445
   35MOL0     H 4719   8.356   2.473   4.258 -2.6078 -0.6646 -0.0192
   35MOL0     H 4720   8.431   2.604   4.342 -1.8681  1.1837  0.8928
   35MOL0     H 4721   8.111   2.543   4.595 -0.1997  0.4644  0.3986
   35MOL0     H 4722   8.073   2.944   3.888  1.5686  0.3651 -0.3830
   35MOL0     H 4723   8.044   3.166   3.599 -2.1743 -2.6695 -1.4167
   35MOL0     H 4724   7.930   3.185   3.734  0.6694  0.7419  1.6900
   35MOL0     H 4725   8.100   3.168   3.763  1.2028  0.4805 -0.4186
   36MOL0     O 4726   0.062   1.496   8.191 -0.6585  0.8608 -0.4955
   36MOL0     C 4727  -0.009   1.449   8.278  0.5113  0.2008  0.0190
   36MOL0     O 4728  -0.098   1.520   8.353 -0.4050 -0.2486 -0.3133
   36MOL0     C 4729  -0.087   1.659   8.346  1.7342 -0.7228  0.9268
   36MOL0     C 4730  -0.133   1.725   8.234  0.7069 -0.1979 -0.3677
   36MOL0     C 4731  -0.117   1.863   8.232  0.1678 -0.1259 -0.4974
   36MOL0     C 4732  -0.060   1.933   8.341  0.3739 -0.8933 -0.3105
   36MOL0     O 4733  -0.075   2.072   8.340 -0.2902  0.0385 -0.0250
   36MOL0     C 4734   0.015   2.157   8.405  0.0502 -0.1602 -0.1754
   36MOL0     C 4735   0.129   2.173   8.310  0.1614 -0.0977  0.7322
   36MOL0     C 4736   0.091   2.240   8.169  0.4033 -0.0036  0.9378
   36MOL0     C 4737   0.204   2.197   8.066 -0.0644  0.9880  0.9943
   36MOL0     C 4738   0.208   2.285   7.938  0.7628 -0.2740 -0.0962
   36MOL0     C 4739   0.070   2.283   7.886 -0.1952 -0.2782 -0.3630
   36MOL0     C 4740   0.079   2.375   7.758  0.5131 -0.0970  0.0111
   36MOL0     C 4741   0.114   2.296   7.624 -0.6468 -0.6659 -0.4269
   36MOL0     N 4742   0.015   2.174   7.604  0.1813 -0.4895 -0.9097
   36MOL0     C 4743   0.037   2.042   7.642 -0.2453  0.2909  0.4827
   36MOL0     C 4744  -0.072   1.975   7.589  0.1122 -0.2738 -0.0973
   36MOL0     C 4745  -0.102   1.829   7.613 -0.0850  0.4269 -0.8327
   36MOL0     C 4746  -0.012   1.768   7.710  0.0629 -0.2673  0.5142
   36MOL0     C 4747  -0.035   1.610   7.703 -0.0560  0.3895  0.2520
   36MOL0     C 4748   0.027   1.545   7.833  0.0035  0.8190  1.1951
   36MOL0     O 4749   0.168   1.543   7.818 -0.0547 -0.0068 -0.4711
   36MOL0     C 4750   0.238   1.655   7.851 -0.2787  1.3577  0.2110
   36MOL0     C 4751   0.348   1.673   7.767 -0.4097 -0.4022 -0.3053
   36MOL0     C 4752   0.441   1.773   7.803  0.1292  1.4987 -0.3724
   36MOL0     C 4753   0.424   1.845   7.923  0.1540  0.5643 -0.5990
   36MOL0     C 4754   0.524   1.944   7.972 -0.5308 -0.5118  0.2453
   36MOL0     O 4755   0.489   2.045   8.048  0.4151 -0.3354 -0.1884
   36MOL0     C 4756   0.588   2.119   8.100  0.1293 -0.5515 -0.2665
   36MOL0     C 4757   0.687   2.072   8.183  0.4463  0.0814 -0.3087
   36MOL0     C 4758   0.792   2.164   8.227 -0.5685 -0.9542 -0.7940
   36MOL0     C 4759   0.794   2.300   8.179 -0.0193 -0.4094  0.6739
   36MOL0     O 4760   0.882   2.390   8.235 -0.2059 -0.9320  0.3292
   36MOL0     C 4761   0.913   2.375   8.373 -0.3011  0.4678 -0.3949
   36MOL0     C 4762   1.002   2.487   8.428  0.4403  0.2268  1.0216
   36MOL0     C 4763   1.001   2.488   8.583 -0.3860  0.0438 -0.8119
   36MOL0     C 4764   0.935   2.617   8.636 -0.5629 -0.7444 -0.3810
   36MOL0     C 4765   0.956   2.624   8.796 -0.6652 -0.9434 -0.7886
   36MOL0     C 4766   0.891   2.749   8.857 -0.3402 -0.6119 -0.1531
   36MOL0     C 4767   0.868   2.755   9.014 -0.2935  0.3128  0.5073
   36MOL0     C 4768   0.993   2.713   9.086 -0.4169 -0.5055 -0.2551
   36MOL0    Cl 4769   0.953   2.709   9.263 -0.6250  0.2437 -0.4991
   36MOL0     C 4770   0.702   2.337   8.086  0.2534 -0.3725  0.4345
   36MOL0     C 4771   0.592   2.256   8.056 -1.3037 -0.9370  0.3944
   36MOL0     O 4772   0.641   1.931   7.924 -0.1792  0.1413 -0.6269
   36MOL0     C 4773   0.302   1.828   7.999  0.4313 -0.6989  0.3077
   36MOL0     C 4774   0.213   1.732   7.972 -0.1408  0.0235  0.7980
   36MOL0     N 4775  -0.156   2.072   7.529  0.3715  0.0074  0.2294
   36MOL0     N 4776  -0.097   2.187   7.531 -0.5688 -0.2623 -0.1472
   36MOL0     C 4777  -0.031   1.868   8.459  0.8053  0.5061  0.4129
   36MOL0     C 4778  -0.043   1.726   8.457 -0.0039 -0.0339  0.4771
   36MOL0     C 4779   0.000   1.301   8.310  0.1464 -0.3866 -0.1928
   36MOL0     C 4780  -0.075   1.255   8.416 -1.1284  0.0727  0.0764
   36MOL0     C 4781  -0.076   1.113   8.441 -0.9007  0.0544 -0.3492
   36MOL0     C 4782   0.008   1.021   8.365 -0.2131  0.0371 -0.9392
   36MOL0     O 4783  -0.002   0.890   8.391  0.5684  0.4397  0.7579
   36MOL0     C 4784   0.010   0.798   8.284  0.2120  0.5767  0.1164
   36MOL0     C 4785  -0.090   0.680   8.308  0.8691  0.6714  1.0562
   36MOL0     C 4786  -0.236   0.727   8.286  0.3363 -0.1889  0.0226
   36MOL0     C 4787  -0.303   0.784   8.417 -0.0858 -0.2723  0.3044
   36MOL0     C 4788  -0.446   0.742   8.406 -0.4876 -0.0157 -0.4824
   36MOL0     C 4789  -0.562   0.706   8.394 -0.6966  0.2670 -0.2463
   36MOL0     C 4790   0.090   1.080   8.267  0.2705 -1.0115 -1.3643
   36MOL0     C 4791   0.080   1.217   8.231 -1.3864  0.3170 -0.3034
   36MOL0     C 4792   0.162   1.251   8.110  0.5737  0.6024 -0.9881
   36MOL0     H 4793  -0.181   1.682   8.147  2.6704  0.1507 -1.6946
   36MOL0     H 4794  -0.151   1.919   8.146 -1.6098 -2.6595 -1.5927
   36MOL0     H 4795  -0.043   2.245   8.435  0.1439 -0.8723  2.3161
   36MOL0     H 4796   0.045   2.112   8.500  0.9767 -0.4238 -0.5912
   36MOL0     H 4797   0.188   2.082   8.296  0.3441  0.2752 -1.2652
   36MOL0     H 4798   0.189   2.239   8.372 -0.8820  0.1635  1.4912
   36MOL0     H 4799   0.093   2.348   8.182 -0.2598  0.2315 -0.7328
   36MOL0     H 4800  -0.000   2.193   8.131 -0.9125  2.3745  1.0065
   36MOL0     H 4801   0.299   2.203   8.121 -0.3385 -1.4261  1.8476
   36MOL0     H 4802   0.186   2.093   8.039  1.7986  0.6567  0.8871
   36MOL0     H 4803   0.234   2.387   7.969  2.9632 -0.9185  0.3825
   36MOL0     H 4804   0.275   2.247   7.861  1.6374  3.9958 -1.7563
   36MOL0     H 4805   0.021   2.187   7.870 -2.9795  0.9614  0.1558
   36MOL0     H 4806   0.006   2.337   7.956 -2.0108 -1.8310 -0.7315
   36MOL0     H 4807   0.153   2.454   7.769 -0.0201  0.7996 -2.2370
   36MOL0     H 4808  -0.022   2.414   7.745 -0.1349 -2.1193 -1.6695
   36MOL0     H 4809   0.122   2.360   7.536  1.4590 -1.5867 -0.9867
   36MOL0     H 4810   0.213   2.255   7.646 -0.7684  0.4104  2.5632
   36MOL0     H 4811   0.124   2.010   7.697 -1.7304 -0.1674  2.7077
   36MOL0     H 4812  -0.204   1.820   7.651  0.1840 -1.3781 -0.4570
   36MOL0     H 4813  -0.089   1.769   7.523  3.8282 -1.0474  0.4847
   36MOL0     H 4814   0.093   1.787   7.685  0.6905 -1.4291  2.0777
   36MOL0     H 4815  -0.034   1.807   7.809 -1.9334 -0.8214  0.3231
   36MOL0     H 4816   0.026   1.574   7.620  0.0857  2.1760 -0.4538
   36MOL0     H 4817  -0.137   1.576   7.682  0.5465 -3.5689  2.6276
   36MOL0     H 4818  -0.002   1.440   7.823  0.1895  0.9840 -2.4376
   36MOL0     H 4819  -0.023   1.582   7.923 -3.7735  1.3892 -0.9721
   36MOL0     H 4820   0.355   1.635   7.666 -1.4554 -1.6236  0.0600
   36MOL0     H 4821   0.526   1.796   7.739 -0.3388 -3.1883 -3.1493
   36MOL0     H 4822   0.690   1.972   8.226  3.4725 -0.8724 -2.3916
   36MOL0     H 4823   0.874   2.136   8.292 -0.1246  1.2781 -0.3208
   36MOL0     H 4824   0.830   2.364   8.443  1.6606  0.1688  2.0056
   36MOL0     H 4825   0.967   2.281   8.387 -1.2743 -0.2813 -1.4112
   36MOL0     H 4826   1.100   2.473   8.382 -0.2747  1.7041 -1.1172
   36MOL0     H 4827   0.959   2.583   8.399  0.7013  0.4695  1.4439
   36MOL0     H 4828   0.949   2.394   8.601 -1.0914  0.6716  0.5480
   36MOL0     H 4829   1.107   2.490   8.609  0.1261  1.5991 -2.7587
   36MOL0     H 4830   0.831   2.640   8.610  0.1196  0.1756 -2.4879
   36MOL0     H 4831   0.996   2.695   8.590 -2.3486  2.4772  2.2658
   36MOL0     H 4832   1.061   2.630   8.825 -1.6558 -0.1645  3.4334
   36MOL0     H 4833   0.917   2.539   8.852  0.3444 -0.9674 -0.0973
   36MOL0     H 4834   0.956   2.835   8.840 -1.1451 -0.1107 -0.7660
   36MOL0     H 4835   0.792   2.768   8.814 -1.7412 -3.7199  1.3530
   36MOL0     H 4836   0.788   2.685   9.040  2.2588 -2.7477  0.6506
   36MOL0     H 4837   0.830   2.854   9.041 -1.4644  0.6960 -2.1280
   36MOL0     H 4838   1.030   2.614   9.057 -0.2002 -1.6086  3.2967
   36MOL0     H 4839   1.072   2.782   9.056 -1.3196 -0.6897 -3.3029
   36MOL0     H 4840   0.701   2.437   8.043 -2.8341 -0.7132 -0.5199
   36MOL0     H 4841   0.516   2.301   7.993 -0.6270  0.6201  0.6715
   36MOL0     H 4842   0.272   1.899   8.076 -0.8162  0.9882 -1.6309
   36MOL0     H 4843   0.128   1.706   8.035 -0.2328 -1.5270  0.0863
   36MOL0     H 4844  -0.008   1.920   8.552 -1.2443  2.4613 -0.0897
   36MOL0     H 4845  -0.004   1.672   8.542  2.4050  1.3531  0.3483
   36MOL0     H 4846  -0.124   1.318   8.488 -0.2459  0.7571  0.0946
   36MOL0     H 4847  -0.127   1.076   8.529 -4.3339  1.7609 -1.4421
   36MOL0     H 4848   0.115   0.770   8.282 -0.1037 -0.8041  1.2869
   36MOL0     H 4849  -0.024   0.843   8.190 -2.9168 -0.5816  0.5498
   36MOL0     H 4850  -0.075   0.644   8.410  2.8063  1.3112  1.0264
   36MOL0     H 4851  -0.064   0.594   8.245  2.1982 -1.1659  3.9348
   36MOL0     H 4852  -0.274   0.628   8.260 -3.2835  1.2472 -0.7091
   36MOL0     H 4853  -0.241   0.789   8.197  0.6054  3.3996  2.3081
   36MOL0     H 4854  -0.254   0.749   8.509  0.0465 -2.5765 -0.5837
   36MOL0     H 4855  -0.309   0.892   8.400 -1.5725 -0.7862 -3.2348
   36MOL0     H 4856  -0.664   0.674   8.401 -0.6123 -0.0169 -0.3022
   36MOL0     H 4857   0.163   1.013   8.222  2.2828 -0.7551  1.2755
   36MOL0     H 4858   0.110   1.320   8.043 -0.2192  0.8532 -0.1263
   36MOL0     H 4859   0.256   1.299   8.140 -1.8162  2.7584  4.2576
   36MOL0     H 4860   0.187   1.160   8.054  6.3076  1.5217 -0.5083
   37MOL0     O 4861   1.819   4.306   7.832  0.7249 -0.0381 -0.2878
   37MOL0     C 4862   1.723   4.235   7.803  0.4488 -0.0153  0.0651
   37MOL0     O 4863   1.736   4.103   7.775 -0.6351 -0.3836 -0.3857
   37MOL0     C 4864   1.867   4.066   7.756 -0.5178  0.9575  0.4240
   37MOL0     C 4865   1.942   4.038   7.868  0.2929 -0.1387 -0.1698
   37MOL0     C 4866   2.079   3.998   7.841 -0.5066  0.6924  0.0683
   37MOL0     C 4867   2.138   3.976   7.711  0.5285  0.6155  0.1754
   37MOL0     O 4868   2.272   3.947   7.714 -0.0618 -0.2517  0.3969
   37MOL0     C 4869   2.347   4.019   7.615  0.3458  0.6804 -0.4511
   37MOL0     C 4870   2.491   4.049   7.664  0.6343  0.5055  0.2768
   37MOL0     C 4871   2.564   3.936   7.738  0.7956  0.1333 -0.7124
   37MOL0     C 4872   2.519   3.910   7.882  0.9833 -0.1678  0.2773
   37MOL0     C 4873   2.590   3.793   7.950  0.1293 -0.2941  0.4619
   37MOL0     C 4874   2.543   3.737   8.084 -0.4051 -0.5435  0.0032
   37MOL0     C 4875   2.530   3.835   8.201 -0.3774 -0.2809 -0.7782
   37MOL0     C 4876   2.523   3.756   8.333  0.5446 -0.0580  1.0631
   37MOL0     N 4877   2.523   3.853   8.440  0.1012  0.8604  0.9585
   37MOL0     C 4878   2.631   3.917   8.491  0.5345  0.4147  0.0085
   37MOL0     C 4879   2.580   3.991   8.600  1.5454 -0.2193  0.1821
   37MOL0     C 4880   2.644   4.097   8.686  0.6522 -0.0686 -0.5878
   37MOL0     C 4881   2.668   4.233   8.635 -1.6724 -0.6279  0.1097
   37MOL0     C 4882   2.723   4.329   8.742 -0.9724 -0.1384  0.0267
   37MOL0     C 4883   2.812   4.287   8.849 -0.1745  0.3097  0.0845
   37MOL0     O 4884   2.915   4.190   8.819 -0.3880  0.2124 -0.1914
   37MOL0     C 4885   3.036   4.219   8.759  0.0236 -0.0777  0.1867
   37MOL0     C 4886   3.125   4.119   8.738  1.0737 -0.2136  0.0363
   37MOL0     C 4887   3.249   4.140   8.685  0.8060 -0.6170  0.3257
   37MOL0     C 4888   3.284   4.275   8.654 -0.3998 -0.3445 -0.7877
   37MOL0     C 4889   3.414   4.317   8.605 -0.7176  1.0290  0.0903
   37MOL0     O 4890   3.465   4.438   8.639  0.3503 -0.9825  0.1882
   37MOL0     C 4891   3.592   4.457   8.592  0.3724  0.8223  0.1687
   37MOL0     C 4892   3.695   4.383   8.651  0.8308  0.6236 -0.1787
   37MOL0     C 4893   3.823   4.393   8.604 -0.2477 -0.5491 -0.1912
   37MOL0     C 4894   3.859   4.468   8.491 -0.1101  0.4702  0.5793
   37MOL0     O 4895   3.994   4.469   8.461 -0.5033 -0.5281  0.4992
   37MOL0     C 4896   4.031   4.540   8.333 -0.5102 -0.2368 -0.9589
   37MOL0     C 4897   4.178   4.565   8.329 -0.2808  0.6681  0.1774
   37MOL0     C 4898   4.232   4.673   8.425  0.3982  0.2979 -0.0604
   37MOL0     C 4899   4.348   4.756   8.363  0.1381 -0.3300  0.1780
   37MOL0     C 4900   4.424   4.832   8.469  0.1651  0.0052  1.2411
   37MOL0     C 4901   4.511   4.951   8.419 -0.0849  0.5505 -0.2764
   37MOL0     C 4902   4.615   4.904   8.313  1.0221  0.1228  0.4564
   37MOL0     C 4903   4.722   4.805   8.355  0.4038 -0.8511 -0.1126
   37MOL0    Cl 4904   4.833   4.892   8.465 -0.2428 -0.0308  0.0584
   37MOL0     C 4905   3.751   4.527   8.424 -0.3257  0.0791  0.0777
   37MOL0     C 4906   3.617   4.518   8.470 -0.4457 -0.0307  0.2173
   37MOL0     O 4907   3.472   4.233   8.528 -0.0332  0.7802 -0.4886
   37MOL0     C 4908   3.199   4.378   8.677 -0.5077 -0.8199  0.5861
   37MOL0     C 4909   3.072   4.345   8.723  0.2685  0.4217 -0.8435
   37MOL0     N 4910   2.447   3.948   8.621  0.0426 -0.1647  0.4387
   37MOL0     N 4911   2.412   3.869   8.522 -0.0980 -1.1480 -0.1739
   37MOL0     C 4912   2.052   3.998   7.604  0.2674 -0.7307 -0.2456
   37MOL0     C 4913   1.919   4.042   7.624 -0.4554  0.2562 -0.6793
   37MOL0     C 4914   1.581   4.301   7.811  0.0330  0.0230  0.5216
   37MOL0     C 4915   1.590   4.437   7.840  0.8347 -0.1319 -0.0309
   37MOL0     C 4916   1.471   4.504   7.844 -0.2079 -0.5639  0.2748
   37MOL0     C 4917   1.346   4.441   7.818  0.4580 -0.2969 -0.2578
   37MOL0     O 4918   1.231   4.513   7.816 -0.0812  0.0148  0.1155
   37MOL0     C 4919   1.184   4.559   7.696 -0.3909 -0.5420 -0.4407
   37MOL0     C 4920   1.052   4.629   7.717  0.4200 -0.3826  0.0197
   37MOL0     C 4921   0.954   4.645   7.602 -0.1022  0.1177  0.5182
   37MOL0     C 4922   1.026   4.717   7.481 -0.1774  0.7015  0.5271
   37MOL0     C 4923   0.918   4.766   7.401  0.1319 -0.0164  0.1790
   37MOL0     C 4924   0.831   4.798   7.328 -0.1854 -0.1755 -0.1151
   37MOL0     C 4925   1.339   4.310   7.800  0.0830  0.8181 -0.4097
   37MOL0     C 4926   1.457   4.232   7.805 -0.1351  0.0582 -0.0410
   37MOL0     C 4927   1.452   4.077   7.811 -0.5141  0.4079  0.0615
   37MOL0     H 4928   1.904   4.035   7.970 -1.8338 -1.3613 -0.9388
   37MOL0     H 4929   2.129   3.980   7.935 -2.6065  1.8095  1.4923
   37MOL0     H 4930   2.340   3.953   7.528 -0.2980 -0.0172  0.1151
   37MOL0     H 4931   2.293   4.108   7.583 -2.3459 -1.6838 -3.0879
   37MOL0     H 4932   2.481   4.134   7.731 -0.2085  0.6274  0.0046
   37MOL0     H 4933   2.551   4.078   7.578  0.6331 -0.7385 -0.1722
   37MOL0     H 4934   2.667   3.970   7.754  1.0565 -0.5749 -0.8512
   37MOL0     H 4935   2.574   3.842   7.684 -2.6947 -0.7447 -0.0123
   37MOL0     H 4936   2.519   4.007   7.933 -2.4627  0.0984 -0.0032
   37MOL0     H 4937   2.416   3.873   7.884  0.7886  0.2679 -0.7006
   37MOL0     H 4938   2.605   3.719   7.870  0.2373 -0.1689  0.3659
   37MOL0     H 4939   2.693   3.827   7.967  0.4973 -1.3913  0.5291
   37MOL0     H 4940   2.451   3.681   8.063  0.3940 -0.6612 -3.7945
   37MOL0     H 4941   2.615   3.662   8.117  2.0070  1.7013  0.1525
   37MOL0     H 4942   2.441   3.897   8.194 -1.4788 -1.4158  1.7777
   37MOL0     H 4943   2.625   3.889   8.196  2.0645 -4.1483 -0.7329
   37MOL0     H 4944   2.424   3.709   8.325 -0.5433  2.1295  0.7298
   37MOL0     H 4945   2.603   3.683   8.349 -0.9832 -2.2098 -0.4917
   37MOL0     H 4946   2.728   3.923   8.442  0.6103  1.9153  0.3066
   37MOL0     H 4947   2.569   4.110   8.764 -1.0997 -0.5010 -2.1434
   37MOL0     H 4948   2.733   4.041   8.716  0.0334 -0.7254  0.0476
   37MOL0     H 4949   2.736   4.225   8.549 -3.8274 -1.1772 -1.6594
   37MOL0     H 4950   2.574   4.275   8.597 -0.5532  2.8371  0.8279
   37MOL0     H 4951   2.642   4.389   8.784  0.7291  1.8801  0.5869
   37MOL0     H 4952   2.774   4.398   8.674 -2.2312  1.8962  1.0374
   37MOL0     H 4953   2.744   4.243   8.922 -1.4132 -0.4544 -1.4591
   37MOL0     H 4954   2.855   4.362   8.915  4.0873 -1.2387 -0.6295
   37MOL0     H 4955   3.098   4.020   8.774 -0.5031  0.4994  0.9007
   37MOL0     H 4956   3.312   4.058   8.651 -1.3101 -0.9805 -3.2622
   37MOL0     H 4957   3.664   4.322   8.735 -3.5294  0.5663 -1.6049
   37MOL0     H 4958   3.900   4.339   8.657 -1.1891 -2.3072 -0.5253
   37MOL0     H 4959   4.011   4.472   8.250  1.8252  0.7635 -2.4237
   37MOL0     H 4960   3.974   4.633   8.328 -2.2044 -1.2532 -1.7288
   37MOL0     H 4961   4.228   4.469   8.347  0.6456  0.6541 -2.1683
   37MOL0     H 4962   4.197   4.600   8.228  1.2689  0.6262  0.4232
   37MOL0     H 4963   4.150   4.743   8.439 -1.1339 -1.3658 -0.3486
   37MOL0     H 4964   4.272   4.623   8.514 -0.3056 -1.5744 -0.7498
   37MOL0     H 4965   4.307   4.832   8.296 -1.0475  1.7326  3.0339
   37MOL0     H 4966   4.418   4.692   8.308 -1.7491 -0.7462 -1.8871
   37MOL0     H 4967   4.480   4.762   8.532 -1.5786 -0.6394  2.1476
   37MOL0     H 4968   4.360   4.888   8.537  1.0067  1.4246  0.9051
   37MOL0     H 4969   4.441   5.016   8.367 -1.4369 -0.0902  0.6941
   37MOL0     H 4970   4.563   5.005   8.499  2.7743 -1.1260 -0.8523
   37MOL0     H 4971   4.670   4.988   8.270 -1.0709  0.1605 -2.3840
   37MOL0     H 4972   4.554   4.848   8.242 -0.0652  0.4224  1.1257
   37MOL0     H 4973   4.673   4.726   8.414 -0.7046  0.3502  0.6273
   37MOL0     H 4974   4.771   4.761   8.268  0.9576 -1.3247  0.4243
   37MOL0     H 4975   3.765   4.566   8.323 -2.3672 -1.5919 -0.9348
   37MOL0     H 4976   3.528   4.552   8.417  1.0649 -0.7278 -3.0657
   37MOL0     H 4977   3.243   4.476   8.663 -2.1919 -0.4884 -4.0123
   37MOL0     H 4978   3.003   4.428   8.736 -0.1702 -0.2574  1.7342
   37MOL0     H 4979   2.091   3.988   7.503  0.0032  3.0067 -0.8453
   37MOL0     H 4980   1.847   4.063   7.545 -2.2764  0.5754  0.9833
   37MOL0     H 4981   1.681   4.495   7.847  1.2906 -1.0058  2.6363
   37MOL0     H 4982   1.465   4.606   7.879 -0.4631 -0.7109  0.6659
   37MOL0     H 4983   1.164   4.478   7.625 -0.4414 -0.3820 -0.6129
   37MOL0     H 4984   1.249   4.639   7.658 -0.3131 -0.4321 -0.0739
   37MOL0     H 4985   1.087   4.730   7.743  0.7270  0.2829 -2.6953
   37MOL0     H 4986   1.004   4.581   7.803 -0.2391 -1.5861 -0.9870
   37MOL0     H 4987   0.864   4.702   7.628  0.3873  1.5451 -0.7609
   37MOL0     H 4988   0.908   4.549   7.578 -3.9663  2.2335 -1.6040
   37MOL0     H 4989   1.102   4.791   7.509  0.9088 -0.1579 -0.0686
   37MOL0     H 4990   1.089   4.649   7.423  3.3021  0.5911  4.0238
   37MOL0     H 4991   0.737   4.834   7.292 -0.5825 -0.7796  0.3088
   37MOL0     H 4992   1.236   4.278   7.810  0.3466  0.4846  1.7272
   37MOL0     H 4993   1.494   4.034   7.719  0.4754 -1.2669  1.2472
   37MOL0     H 4994   1.508   4.037   7.895  0.6419 -1.1800 -1.4055
   37MOL0     H 4995   1.348   4.043   7.809 -1.2388  2.4245  0.4057
   38MOL0     O 4996   1.878   5.744   2.893  0.1242  0.2390  0.3574
   38MOL0     C 4997   1.767   5.718   2.847  1.2518 -0.3360 -0.7018
   38MOL0     O 4998   1.679   5.637   2.911  0.3655  0.3101  0.0873
   38MOL0     C 4999   1.715   5.584   3.035 -0.3100 -0.2274 -0.0788
   38MOL0     C 5000   1.800   5.488   3.047 -0.7703  0.3588 -0.4759
   38MOL0     C 5001   1.818   5.417   3.175 -0.5549 -0.5735 -0.1990
   38MOL0     C 5002   1.756   5.455   3.285  0.1883  0.5881  0.2761
   38MOL0     O 5003   1.783   5.388   3.401  0.0254 -0.1822 -0.4093
   38MOL0     C 5004   1.671   5.325   3.464  0.5650  0.4822  0.4362
   38MOL0     C 5005   1.703   5.185   3.490  0.4166 -0.1774  0.3556
   38MOL0     C 5006   1.846   5.152   3.518 -0.4950  0.5466 -0.1145
   38MOL0     C 5007   1.861   5.011   3.563 -0.3842  0.4169 -0.3746
   38MOL0     C 5008   2.007   4.962   3.551  0.4238 -0.2068  0.9227
   38MOL0     C 5009   2.114   5.039   3.628  0.1851  0.4145 -0.4258
   38MOL0     C 5010   2.254   4.992   3.594  0.0709  0.5687 -0.8669
   38MOL0     C 5011   2.274   4.843   3.618  0.2518  0.5320  0.1477
   38MOL0     N 5012   2.254   4.756   3.497  0.0572  0.0541  0.0352
   38MOL0     C 5013   2.338   4.752   3.397 -0.3502  0.5107  0.8163
   38MOL0     C 5014   2.299   4.652   3.309  0.5736  0.1358  0.0009
   38MOL0     C 5015   2.369   4.621   3.178  0.8667 -1.0284 -0.1909
   38MOL0     C 5016   2.496   4.545   3.189  0.2768 -0.7359  0.5353
   38MOL0     C 5017   2.464   4.395   3.175  0.3992 -0.5439 -0.5448
   38MOL0     C 5018   2.602   4.319   3.158 -0.5849  0.8710 -0.0825
   38MOL0     O 5019   2.575   4.184   3.122  0.1158  0.2633 -0.4608
   38MOL0     C 5020   2.665   4.092   3.076 -0.7125  0.1386  0.6371
   38MOL0     C 5021   2.801   4.116   3.048  0.8703 -0.0230  0.8720
   38MOL0     C 5022   2.887   4.011   3.004 -0.0344 -0.7412 -0.1998
   38MOL0     C 5023   2.831   3.885   2.972  0.0039  0.3314 -0.1616
   38MOL0     C 5024   2.923   3.783   2.926 -0.8409  0.1084  0.1549
   38MOL0     O 5025   3.051   3.798   2.954 -0.0290 -0.5656  0.1763
   38MOL0     C 5026   3.161   3.722   2.930  0.5260 -0.7467 -0.7867
   38MOL0     C 5027   3.167   3.598   2.862 -0.4293  0.1670  0.0317
   38MOL0     C 5028   3.288   3.534   2.842 -0.9167 -0.7444 -0.2798
   38MOL0     C 5029   3.412   3.580   2.889  0.0671 -0.5597  0.4699
   38MOL0     O 5030   3.524   3.510   2.873  0.0181  0.1979  0.0945
   38MOL0     C 5031   3.632   3.522   2.976 -1.1253 -0.3396  0.5057
   38MOL0     C 5032   3.743   3.435   2.913 -0.1091 -0.3617  0.6447
   38MOL0     C 5033   3.868   3.446   2.996  0.5463  0.1778 -0.0346
   38MOL0     C 5034   4.003   3.447   2.926 -0.2523  0.5226 -0.2679
   38MOL0     C 5035   4.123   3.489   3.010  0.4972  0.4603  0.0422
   38MOL0     C 5036   4.254   3.511   2.932  0.5719  0.2222 -0.2408
   38MOL0     C 5037   4.378   3.554   3.021  0.0449  0.4739  0.2838
   38MOL0     C 5038   4.496   3.529   2.946 -0.4425 -0.0957 -0.3106
   38MOL0    Cl 5039   4.520   3.345   2.899  0.3448  0.5826 -0.0210
   38MOL0     C 5040   3.409   3.707   2.946  0.1035 -0.2824 -0.9324
   38MOL0     C 5041   3.283   3.771   2.966 -0.3770  0.2962 -1.1536
   38MOL0     O 5042   2.880   3.688   2.864  0.2369 -0.6082 -0.2783
   38MOL0     C 5043   2.695   3.868   2.978 -0.1409  0.7041 -0.7282
   38MOL0     C 5044   2.615   3.971   3.032 -0.2475 -0.3663 -0.2266
   38MOL0     N 5045   2.190   4.598   3.369  0.7676 -0.4280 -0.1439
   38MOL0     N 5046   2.161   4.655   3.479  0.5199 -0.4724  0.3919
   38MOL0     C 5047   1.661   5.555   3.276  0.2777  0.1486  1.2784
   38MOL0     C 5048   1.644   5.618   3.146  0.2118  0.2861  0.2024
   38MOL0     C 5049   1.716   5.792   2.721 -0.6790  0.1073 -0.3812
   38MOL0     C 5050   1.582   5.793   2.692 -0.7884  0.7218  0.4010
   38MOL0     C 5051   1.521   5.852   2.582  0.0238  0.6354  0.5848
   38MOL0     C 5052   1.600   5.927   2.495 -0.8589  0.1709  0.0402
   38MOL0     O 5053   1.552   5.990   2.380 -0.0778 -0.1562 -0.2543
   38MOL0     C 5054   1.467   5.915   2.291  0.0076  0.2594  0.6337
   38MOL0     C 5055   1.465   5.983   2.147  0.3184  0.0698  0.6623
   38MOL0     C 5056   1.395   5.892   2.046 -0.3742 -0.2988  0.0184
   38MOL0     C 5057   1.359   5.953   1.902  0.5966 -0.2717  0.0872
   38MOL0     C 5058   1.307   6.088   1.909 -1.3120 -0.5058 -0.6027
   38MOL0     C 5059   1.253   6.196   1.927  0.5013  0.6070  0.3372
   38MOL0     C 5060   1.737   5.931   2.524  0.1547  0.0727  1.3512
   38MOL0     C 5061   1.801   5.862   2.635 -0.7482 -0.3072  0.4586
   38MOL0     C 5062   1.955   5.874   2.634  0.0958 -0.1799  0.4381
   38MOL0     H 5063   1.854   5.447   2.962 -0.4086 -1.1342  0.4297
   38MOL0     H 5064   1.889   5.335   3.183 -1.4773 -1.3604  0.1883
   38MOL0     H 5065   1.668   5.361   3.567  1.4052 -0.2190  0.7172
   38MOL0     H 5066   1.574   5.341   3.415  0.8754 -1.1548 -0.8062
   38MOL0     H 5067   1.667   5.131   3.402  1.1255  2.3644 -1.6032
   38MOL0     H 5068   1.631   5.148   3.564  0.6291  2.2164  1.8557
   38MOL0     H 5069   1.886   5.211   3.601  0.0688  2.6717 -1.7805
   38MOL0     H 5070   1.908   5.177   3.431 -1.7586 -0.9189 -1.4951
   38MOL0     H 5071   1.826   5.000   3.666  2.4408 -1.7339  0.4661
   38MOL0     H 5072   1.798   4.950   3.499  0.3245  0.5038 -1.1805
   38MOL0     H 5073   2.007   4.858   3.584  2.3931 -1.8986 -3.5473
   38MOL0     H 5074   2.037   4.966   3.445  0.5927 -1.0060  0.9324
   38MOL0     H 5075   2.105   5.144   3.597 -0.1049  0.5990  0.2551
   38MOL0     H 5076   2.094   5.028   3.735  0.1850  1.6709 -0.2778
   38MOL0     H 5077   2.332   5.028   3.661 -0.2594  0.4307 -0.3987
   38MOL0     H 5078   2.277   5.027   3.493 -3.6847 -0.0215 -2.1010
   38MOL0     H 5079   2.369   4.816   3.667  0.7662 -0.9977 -1.5573
   38MOL0     H 5080   2.207   4.820   3.701 -2.5273  0.7565 -1.9058
   38MOL0     H 5081   2.423   4.816   3.376 -1.6518  2.1261  0.2415
   38MOL0     H 5082   2.292   4.573   3.117  0.2826 -1.7770  1.1050
   38MOL0     H 5083   2.409   4.717   3.146  4.3288 -0.6423  4.2593
   38MOL0     H 5084   2.561   4.581   3.109 -0.2122 -2.4046 -0.6663
   38MOL0     H 5085   2.543   4.550   3.288  0.6238  1.6184  0.2927
   38MOL0     H 5086   2.392   4.375   3.095  2.6267 -1.3651 -2.4701
   38MOL0     H 5087   2.433   4.366   3.276  0.7681 -3.7781 -1.2314
   38MOL0     H 5088   2.666   4.321   3.246 -2.5118  0.8771  1.3859
   38MOL0     H 5089   2.655   4.375   3.080  1.2352  0.6485  0.9557
   38MOL0     H 5090   2.845   4.211   3.076  2.6345  0.2531 -2.4304
   38MOL0     H 5091   2.987   4.042   2.976  0.0617 -1.9687 -1.2895
   38MOL0     H 5092   3.082   3.547   2.817 -0.0532 -0.7479  0.3358
   38MOL0     H 5093   3.301   3.450   2.774  2.3654  0.1099 -0.8407
   38MOL0     H 5094   3.671   3.619   3.011 -0.0459 -1.3421  2.1989
   38MOL0     H 5095   3.599   3.478   3.070  2.9221  1.2647  2.9897
   38MOL0     H 5096   3.715   3.330   2.913 -0.4465 -0.2819  1.2596
   38MOL0     H 5097   3.758   3.472   2.811 -2.6885 -0.5759  0.1160
   38MOL0     H 5098   3.860   3.531   3.065 -2.5813  0.1455 -0.2161
   38MOL0     H 5099   3.874   3.356   3.059  0.4844  1.3985  1.7937
   38MOL0     H 5100   3.984   3.522   2.849 -0.1862  0.3345 -0.4663
   38MOL0     H 5101   4.019   3.355   2.870  1.3263 -0.4160  1.6372
   38MOL0     H 5102   4.144   3.417   3.090  0.6623 -1.2967 -1.4958
   38MOL0     H 5103   4.090   3.583   3.055 -3.3102  0.4694 -2.2882
   38MOL0     H 5104   4.271   3.418   2.876 -0.8361 -1.5400  2.0953
   38MOL0     H 5105   4.241   3.587   2.854 -0.8668  0.3108  0.0712
   38MOL0     H 5106   4.388   3.519   3.124 -2.8446 -1.7974 -0.0780
   38MOL0     H 5107   4.365   3.663   3.020  0.8853  0.5869  0.9398
   38MOL0     H 5108   4.502   3.575   2.847  4.8715  0.3517 -0.0717
   38MOL0     H 5109   4.581   3.556   3.008 -1.5827  2.7186  0.1682
   38MOL0     H 5110   3.501   3.757   2.978 -1.2819  0.8456  1.5797
   38MOL0     H 5111   3.302   3.872   3.003  0.2275 -0.3490  0.4132
   38MOL0     H 5112   2.659   3.777   2.932 -0.9760  1.8468 -2.4716
   38MOL0     H 5113   2.507   3.968   3.036 -0.3761  0.5268 -1.8261
   38MOL0     H 5114   1.604   5.578   3.366 -0.9670  2.4732 -0.0144
   38MOL0     H 5115   1.562   5.688   3.138  1.0824  1.5013  1.4477
   38MOL0     H 5116   1.525   5.739   2.767 -0.1237 -0.0047  0.3821
   38MOL0     H 5117   1.417   5.837   2.554 -0.0484  0.1930  1.0808
   38MOL0     H 5118   1.372   5.886   2.336 -0.0127 -0.8383 -0.0844
   38MOL0     H 5119   1.522   5.822   2.275  1.0948  0.5630  2.3915
   38MOL0     H 5120   1.570   5.986   2.118 -0.0668  0.0856 -0.7895
   38MOL0     H 5121   1.430   6.087   2.153 -0.8839 -0.3935  2.8504
   38MOL0     H 5122   1.304   5.857   2.095 -1.4738  1.8164 -0.4135
   38MOL0     H 5123   1.460   5.806   2.025  0.8086  0.0163  2.1290
   38MOL0     H 5124   1.448   5.950   1.839 -0.1379  3.2957 -1.3734
   38MOL0     H 5125   1.281   5.889   1.859 -0.7135  2.6937 -2.3266
   38MOL0     H 5126   1.206   6.291   1.944 -0.0967  0.4363 -0.3141
   38MOL0     H 5127   1.798   5.986   2.453  0.3832 -1.7149  0.0576
   38MOL0     H 5128   1.987   5.946   2.710  2.2591 -1.3989  0.7632
   38MOL0     H 5129   1.998   5.779   2.666 -2.7375 -1.4406  0.8215
   38MOL0     H 5130   1.986   5.899   2.532 -2.2520 -2.1596 -0.8800
   39MOL0     O 5131   5.610   0.856  10.298 -0.3928  0.5439 -0.2926
   39MOL0     C 5132   5.711   0.855  10.230 -0.2121 -0.8718  0.0889
   39MOL0     O 5133   5.754   0.750  10.162 -0.2459 -0.4888  0.1033
   39MOL0     C 5134   5.685   0.633  10.185  0.4207 -0.0914  0.2192
   39MOL0     C 5135   5.589   0.595  10.100  0.4263  1.2352 -0.6575
   39MOL0     C 5136   5.519   0.468  10.127 -0.1400 -0.4238  0.1108
   39MOL0     C 5137   5.561   0.388  10.236  0.5827  0.3437  0.3091
   39MOL0     O 5138   5.509   0.262  10.252 -0.2953  0.3806  0.3140
   39MOL0     C 5139   5.454   0.246  10.385  0.5291 -0.2966  0.0944
   39MOL0     C 5140   5.347   0.144  10.389  0.6020 -0.7797 -0.2213
   39MOL0     C 5141   5.283   0.142  10.535 -0.4395  0.2902 -0.4801
   39MOL0     C 5142   5.257  -0.007  10.572  0.6459  0.7482  0.1692
   39MOL0     C 5143   5.381  -0.099  10.601  0.4910 -0.3112 -0.0798
   39MOL0     C 5144   5.458  -0.047  10.726 -0.4816 -0.1396  0.4755
   39MOL0     C 5145   5.541  -0.156  10.801  0.4088 -0.1328  0.1495
   39MOL0     C 5146   5.663  -0.210  10.724  0.1529  0.5999  0.1574
   39MOL0     N 5147   5.766  -0.100  10.724  0.2497  0.7665 -0.1011
   39MOL0     C 5148   5.781  -0.025  10.609 -0.2414 -0.1616 -0.3840
   39MOL0     C 5149   5.855   0.080  10.639 -0.0051 -0.9701  0.4766
   39MOL0     C 5150   5.882   0.190  10.535 -0.5240  0.0563  0.5768
   39MOL0     C 5151   6.042   0.214  10.531 -0.5943 -0.8471  0.1503
   39MOL0     C 5152   6.092   0.319  10.633 -0.8033 -0.0573 -0.1097
   39MOL0     C 5153   6.023   0.451  10.608 -0.0133  1.0001 -0.4222
   39MOL0     O 5154   6.101   0.560  10.646 -0.0577 -0.5488  0.2677
   39MOL0     C 5155   6.212   0.607  10.588  0.7273  0.2008 -0.2910
   39MOL0     C 5156   6.287   0.700  10.658  0.2610  0.3869 -0.6059
   39MOL0     C 5157   6.397   0.746  10.607  1.1329 -0.4857 -0.5273
   39MOL0     C 5158   6.443   0.704  10.481  0.2448 -0.3399  0.1773
   39MOL0     C 5159   6.553   0.763  10.412 -0.1673 -0.2957 -0.9505
   39MOL0     O 5160   6.582   0.893  10.446  0.2731  0.0178 -0.2059
   39MOL0     C 5161   6.699   0.959  10.413 -0.5861  1.0587  0.2540
   39MOL0     C 5162   6.689   1.097  10.398  0.0328  0.4163 -0.6914
   39MOL0     C 5163   6.800   1.181  10.355  0.3198 -0.2892  0.1820
   39MOL0     C 5164   6.913   1.115  10.301 -0.1780 -1.3240 -0.1016
   39MOL0     O 5165   6.996   1.193  10.238 -0.2939  0.1158 -0.8212
   39MOL0     C 5166   7.120   1.132  10.186  0.1608 -0.2255  0.5074
   39MOL0     C 5167   7.208   1.233  10.108 -0.5496  0.0153  0.4449
   39MOL0     C 5168   7.224   1.363  10.178 -0.8777  0.4483 -0.3208
   39MOL0     C 5169   7.312   1.467  10.097  0.7247  0.9231 -0.3727
   39MOL0     C 5170   7.258   1.493   9.957 -0.5499  0.0308  1.0290
   39MOL0     C 5171   7.128   1.573   9.966  0.5543  0.1457 -0.4931
   39MOL0     C 5172   7.082   1.649   9.851  0.3486  0.2925  1.1322
   39MOL0     C 5173   7.046   1.568   9.715 -0.4551  0.0942  1.5140
   39MOL0    Cl 5174   6.935   1.442   9.752  0.3884 -0.4964 -0.1456
   39MOL0     C 5175   6.926   0.979  10.306  0.2673 -0.1054 -0.6881
   39MOL0     C 5176   6.818   0.901  10.363 -0.7003 -0.1475 -0.5168
   39MOL0     O 5177   6.618   0.692  10.340 -0.4058  0.0452  0.5659
   39MOL0     C 5178   6.366   0.607  10.407  0.2317  0.1121  0.2153
   39MOL0     C 5179   6.245   0.558  10.463 -0.4437 -0.1784 -0.4298
   39MOL0     N 5180   5.901   0.061  10.767 -0.2959 -0.2264 -0.6526
   39MOL0     N 5181   5.853  -0.054  10.819  0.1638 -0.5816  0.0481
   39MOL0     C 5182   5.662   0.440  10.324  0.2185  0.0868  0.4994
   39MOL0     C 5183   5.720   0.561  10.296 -0.3315  0.4636 -0.4442
   39MOL0     C 5184   5.777   1.000  10.197 -0.7042 -0.1577  0.5968
   39MOL0     C 5185   5.900   1.007  10.136 -0.0854 -0.1892  0.5156
   39MOL0     C 5186   5.951   1.123  10.074 -0.0630 -0.1431 -0.8436
   39MOL0     C 5187   5.885   1.243  10.080  1.2560  0.5485  0.7428
   39MOL0     O 5188   5.934   1.348  10.009  0.2822  0.7528 -0.0642
   39MOL0     C 5189   5.948   1.472  10.080  0.4714  0.0256 -0.2126
   39MOL0     C 5190   6.028   1.464  10.203 -0.3172  0.6528  1.2880
   39MOL0     C 5191   6.166   1.390  10.195  0.6602 -0.4195 -0.0321
   39MOL0     C 5192   6.238   1.387  10.341 -0.3022  0.9452  0.0174
   39MOL0     C 5193   6.188   1.258  10.400  0.0923 -0.5570  0.4541
   39MOL0     C 5194   6.171   1.157  10.459  0.7947  0.8308 -0.4231
   39MOL0     C 5195   5.761   1.244  10.147 -0.2655 -0.5450 -0.5164
   39MOL0     C 5196   5.712   1.127  10.217  0.2092 -0.2595  0.0085
   39MOL0     C 5197   5.589   1.154  10.299  0.3708 -0.5276  0.2735
   39MOL0     H 5198   5.559   0.650  10.012 -2.6037 -0.8457 -1.0891
   39MOL0     H 5199   5.448   0.426  10.056  0.3539 -2.3858  0.7292
   39MOL0     H 5200   5.533   0.214  10.454 -0.2745 -2.9487 -0.1173
   39MOL0     H 5201   5.409   0.337  10.425  0.3596  0.4537 -1.7248
   39MOL0     H 5202   5.383   0.044  10.361 -1.5444 -2.0695  1.2702
   39MOL0     H 5203   5.267   0.174  10.321 -0.2899 -3.5816 -0.5320
   39MOL0     H 5204   5.195   0.208  10.539 -0.9578 -0.4375  0.3489
   39MOL0     H 5205   5.350   0.181  10.611 -2.2616  2.5098  0.1199
   39MOL0     H 5206   5.194  -0.006  10.661  3.5783 -1.1368  2.4563
   39MOL0     H 5207   5.209  -0.065  10.493  0.0561 -0.6148  1.4841
   39MOL0     H 5208   5.334  -0.196  10.616  1.5031 -1.5377 -3.9051
   39MOL0     H 5209   5.447  -0.112  10.515  1.1650 -1.3656  0.5796
   39MOL0     H 5210   5.525   0.027  10.682  1.9714 -2.8277 -0.7116
   39MOL0     H 5211   5.388  -0.001  10.796  0.2962  3.4921 -0.9364
   39MOL0     H 5212   5.478  -0.241  10.827  2.8253 -1.9199  0.5395
   39MOL0     H 5213   5.575  -0.111  10.895  1.1950 -1.3480  0.4700
   39MOL0     H 5214   5.698  -0.306  10.764 -0.0828  1.3735  2.3411
   39MOL0     H 5215   5.625  -0.235  10.625 -0.5424 -0.0865  0.5909
   39MOL0     H 5216   5.741  -0.041  10.509 -1.2173  2.7505 -0.5730
   39MOL0     H 5217   5.846   0.158  10.437  3.7839 -1.3696 -0.7576
   39MOL0     H 5218   5.825   0.277  10.569 -1.2838 -0.6447  1.1126
   39MOL0     H 5219   6.079   0.116  10.564 -2.1780 -1.3442  0.4971
   39MOL0     H 5220   6.068   0.240  10.428 -1.0506 -0.8637  0.0309
   39MOL0     H 5221   6.198   0.328  10.604 -1.7078  3.3720 -3.1594
   39MOL0     H 5222   6.080   0.281  10.734 -0.4573  0.3909  0.1041
   39MOL0     H 5223   5.923   0.456  10.652 -1.3117 -1.3056 -2.8160
   39MOL0     H 5224   5.997   0.463  10.503  0.2874  3.7375 -0.2430
   39MOL0     H 5225   6.258   0.732  10.757  1.0293  1.2518 -0.6459
   39MOL0     H 5226   6.445   0.837  10.640  3.1883 -0.7677 -2.4564
   39MOL0     H 5227   6.595   1.143  10.427 -1.0378 -0.6275 -2.3686
   39MOL0     H 5228   6.788   1.287  10.335 -0.1155 -0.7341 -2.2059
   39MOL0     H 5229   7.180   1.090  10.267  2.1363  0.7295 -0.3933
   39MOL0     H 5230   7.102   1.053  10.111  1.1766  0.2594 -0.2670
   39MOL0     H 5231   7.305   1.185  10.091  0.5363  1.6277  1.8077
   39MOL0     H 5232   7.157   1.250  10.013  1.3415 -1.0323 -0.8448
   39MOL0     H 5233   7.123   1.397  10.201 -1.4727 -1.5585  0.2276
   39MOL0     H 5234   7.266   1.340  10.277  0.6981 -0.1463 -1.0923
   39MOL0     H 5235   7.413   1.426  10.094  0.7048  0.9267 -1.4033
   39MOL0     H 5236   7.306   1.554  10.163 -2.3434 -1.2725  2.6195
   39MOL0     H 5237   7.254   1.400   9.899  0.2771 -0.9377  2.4624
   39MOL0     H 5238   7.336   1.556   9.914 -1.4033  1.0720  0.9539
   39MOL0     H 5239   7.052   1.510  10.014 -0.0187  0.6653 -0.7079
   39MOL0     H 5240   7.149   1.651  10.040 -0.1857 -0.7622  0.7211
   39MOL0     H 5241   7.146   1.733   9.822 -5.4588  4.7954 -0.6064
   39MOL0     H 5242   6.986   1.697   9.872  0.1613  1.0327 -1.1149
   39MOL0     H 5243   6.987   1.616   9.636 -1.3193 -1.5057  1.1293
   39MOL0     H 5244   7.130   1.509   9.676 -2.0344 -0.3234 -1.6298
   39MOL0     H 5245   7.007   0.923  10.261  0.6210 -0.2329  0.0880
   39MOL0     H 5246   6.828   0.794  10.379 -0.7306 -0.0838 -0.0672
   39MOL0     H 5247   6.412   0.565  10.319  1.3345 -3.0179  2.1235
   39MOL0     H 5248   6.201   0.469  10.419  0.2023 -0.7428  0.0362
   39MOL0     H 5249   5.703   0.386  10.409 -1.6393 -0.1355  1.3045
   39MOL0     H 5250   5.797   0.591  10.366 -0.5393 -1.8977  0.9048
   39MOL0     H 5251   5.980   0.935  10.146  1.2536  1.4458  2.7304
   39MOL0     H 5252   6.047   1.138  10.026 -0.2157  2.7733 -0.3914
   39MOL0     H 5253   5.846   1.493  10.113 -0.9936 -3.7666 -1.7096
   39MOL0     H 5254   5.989   1.552  10.018 -0.9332  0.2794 -0.8626
   39MOL0     H 5255   5.972   1.416  10.283 -0.7833  0.6505  0.9611
   39MOL0     H 5256   6.039   1.570  10.229  1.1105  0.5834  1.0749
   39MOL0     H 5257   6.229   1.446  10.125  0.1230  0.7329  0.3830
   39MOL0     H 5258   6.150   1.286  10.164 -1.5951 -0.2750  0.4488
   39MOL0     H 5259   6.342   1.364  10.319 -0.7660 -2.3162  0.7555
   39MOL0     H 5260   6.234   1.476  10.404  0.1370  0.2430  1.0547
   39MOL0     H 5261   6.181   1.068  10.518 -1.3923  0.1847 -0.9250
   39MOL0     H 5262   5.717   1.344  10.145  1.3780  0.2804  1.4300
   39MOL0     H 5263   5.576   1.101  10.393 -0.6200  2.4200  1.9466
   39MOL0     H 5264   5.595   1.257  10.335  1.7776 -0.5457  0.1337
   39MOL0     H 5265   5.498   1.150  10.237  0.7347 -0.3592 -0.2783
   40MOL0     O 5266   2.023   3.620   0.419 -0.2196 -0.2363 -0.2642
   40MOL0     C 5267   1.990   3.721   0.361  0.2080  0.2959  0.2889
   40MOL0     O 5268   1.911   3.727   0.252 -0.1637  0.6265  0.5593
   40MOL0     C 5269   1.877   3.617   0.190 -0.3194  0.1143  0.4613
   40MOL0     C 5270   1.816   3.504   0.239 -1.0181 -0.2627 -0.1186
   40MOL0     C 5271   1.786   3.398   0.159 -0.0272 -0.0443 -0.9414
   40MOL0     C 5272   1.826   3.388   0.028 -0.8426 -0.1877  0.3733
   40MOL0     O 5273   1.799   3.270  -0.041 -0.4042  0.0073 -0.4527
   40MOL0     C 5274   1.780   3.294  -0.182 -0.3428 -1.0194  0.3176
   40MOL0     C 5275   1.655   3.217  -0.225  1.1613 -0.0140 -0.2157
   40MOL0     C 5276   1.567   3.284  -0.332  0.0005  0.4498  0.0535
   40MOL0     C 5277   1.597   3.245  -0.474 -0.0517  0.3322  0.6043
   40MOL0     C 5278   1.520   3.319  -0.580 -0.5965 -0.0840  0.1921
   40MOL0     C 5279   1.538   3.259  -0.722 -0.5143 -0.2394  0.4231
   40MOL0     C 5280   1.446   3.324  -0.816  0.3866 -1.1021  0.3875
   40MOL0     C 5281   1.468   3.251  -0.953  0.5839 -0.2185  0.5501
   40MOL0     N 5282   1.375   3.297  -1.053 -0.7729 -0.2568 -0.2909
   40MOL0     C 5283   1.407   3.350  -1.173  0.2139  0.0816  0.4399
   40MOL0     C 5284   1.297   3.385  -1.236 -0.3578  0.0525  0.1329
   40MOL0     C 5285   1.300   3.428  -1.383 -0.1723 -0.7250  0.0188
   40MOL0     C 5286   1.168   3.500  -1.416  0.8763  0.2239  1.2112
   40MOL0     C 5287   1.171   3.552  -1.564  0.0612  1.0458  0.1118
   40MOL0     C 5288   1.052   3.639  -1.598 -0.7140 -0.1073  0.0210
   40MOL0     O 5289   0.930   3.576  -1.565  0.4115  0.6245 -0.0522
   40MOL0     C 5290   0.820   3.661  -1.542 -0.6830 -0.6100 -0.3082
   40MOL0     C 5291   0.755   3.714  -1.650  0.1059 -0.0557 -0.7214
   40MOL0     C 5292   0.665   3.822  -1.636 -1.3383 -0.9943 -0.7472
   40MOL0     C 5293   0.637   3.870  -1.507 -0.5957  0.6851  0.3781
   40MOL0     C 5294   0.548   3.987  -1.495  0.3981 -0.0884  0.8983
   40MOL0     O 5295   0.520   4.017  -1.370 -0.0911 -0.3846  0.4637
   40MOL0     C 5296   0.426   4.112  -1.351  0.7227 -0.0251 -0.0268
   40MOL0     C 5297   0.461   4.236  -1.292  0.9566 -0.8855  0.4161
   40MOL0     C 5298   0.362   4.332  -1.263 -0.6551  0.5543  0.7194
   40MOL0     C 5299   0.226   4.308  -1.294 -0.2266  1.1786 -0.7077
   40MOL0     O 5300   0.125   4.397  -1.271  0.3836 -0.4514 -0.6871
   40MOL0     C 5301   0.156   4.539  -1.262  0.1438  0.2500 -0.2089
   40MOL0     C 5302   0.018   4.606  -1.253 -1.2211 -0.8881 -0.5138
   40MOL0     C 5303  -0.049   4.568  -1.128 -0.2084  0.0517  0.1933
   40MOL0     C 5304  -0.152   4.666  -1.082  0.5500 -0.4097  0.6219
   40MOL0     C 5305  -0.231   4.626  -0.954 -0.0149 -0.2575  0.2377
   40MOL0     C 5306  -0.341   4.729  -0.907 -0.2327 -0.3263 -0.4667
   40MOL0     C 5307  -0.438   4.774  -1.014 -0.3985  0.8351  0.1123
   40MOL0     C 5308  -0.552   4.852  -0.943  0.1953 -1.3350 -0.9122
   40MOL0    Cl 5309  -0.678   4.742  -0.878  0.3758  0.6976  0.6320
   40MOL0     C 5310   0.190   4.182  -1.342 -0.1085 -0.8993  0.4248
   40MOL0     C 5311   0.290   4.091  -1.375 -0.1017 -0.4284 -0.5517
   40MOL0     O 5312   0.505   4.049  -1.594 -0.2171 -0.7737 -0.6404
   40MOL0     C 5313   0.701   3.802  -1.398 -0.7639  0.2944  0.0045
   40MOL0     C 5314   0.799   3.703  -1.418  0.6896 -0.7017  0.4789
   40MOL0     N 5315   1.193   3.362  -1.150 -0.0556 -0.6025 -0.5354
   40MOL0     N 5316   1.238   3.322  -1.038 -0.2986 -0.0255 -0.3161
   40MOL0     C 5317   1.891   3.503  -0.025 -1.5034 -0.9280 -0.4205
   40MOL0     C 5318   1.897   3.619   0.053  0.0653  0.1654  1.0895
   40MOL0     C 5319   2.023   3.846   0.427  0.0357 -0.3265 -0.5265
   40MOL0     C 5320   2.113   3.931   0.360  0.2850 -0.2520  0.1986
   40MOL0     C 5321   2.142   4.052   0.415 -0.2953 -0.4265 -0.5667
   40MOL0     C 5322   2.107   4.095   0.543 -0.1543  0.3883  0.2510
   40MOL0     O 5323   2.158   4.211   0.583 -0.4250 -0.0442  0.6547
   40MOL0     C 5324   2.110   4.266   0.714 -0.1951 -0.5190 -0.6663
   40MOL0     C 5325   2.199   4.384   0.766 -0.4223  0.5362  0.7316
   40MOL0     C 5326   2.169   4.508   0.681  0.0990  0.5942 -0.4685
   40MOL0     C 5327   2.260   4.624   0.740  0.3487 -0.2135  0.2297
   40MOL0     C 5328   2.224   4.746   0.674 -0.0144 -1.1030  0.3465
   40MOL0     C 5329   2.176   4.846   0.617 -0.1123  0.5276 -0.1844
   40MOL0     C 5330   2.020   4.007   0.606  0.1544 -0.2254  0.6359
   40MOL0     C 5331   1.970   3.885   0.554 -0.4415 -0.7259  0.4630
   40MOL0     C 5332   1.880   3.797   0.647  0.0374  0.1759  0.2052
   40MOL0     H 5333   1.803   3.490   0.346  2.2992 -1.9486  0.1934
   40MOL0     H 5334   1.742   3.315   0.212 -0.8123 -1.0549 -3.0767
   40MOL0     H 5335   1.763   3.398  -0.212  0.9616 -0.9324 -0.1713
   40MOL0     H 5336   1.868   3.261  -0.238 -0.7670 -0.9759 -0.3868
   40MOL0     H 5337   1.598   3.194  -0.135 -1.3782  1.4509 -1.3446
   40MOL0     H 5338   1.669   3.115  -0.262  1.7187 -0.5725  1.4398
   40MOL0     H 5339   1.577   3.392  -0.318  2.8796  0.3275 -0.4753
   40MOL0     H 5340   1.465   3.254  -0.306 -0.7309  2.5057 -0.2758
   40MOL0     H 5341   1.701   3.267  -0.501 -0.1533  1.2801  0.9731
   40MOL0     H 5342   1.585   3.136  -0.482  0.2909  0.3804 -0.8151
   40MOL0     H 5343   1.417   3.324  -0.543 -1.3659  0.8538 -1.8981
   40MOL0     H 5344   1.545   3.425  -0.587 -0.2108 -0.2533 -1.2471
   40MOL0     H 5345   1.642   3.269  -0.756 -1.5361  3.2742 -2.2533
   40MOL0     H 5346   1.518   3.151  -0.723  0.5005 -0.4815 -2.2291
   40MOL0     H 5347   1.472   3.427  -0.840 -1.6413 -0.5643  0.2882
   40MOL0     H 5348   1.344   3.325  -0.776  0.4792  1.0072  0.6583
   40MOL0     H 5349   1.576   3.257  -0.974  0.4340  2.8116  0.1505
   40MOL0     H 5350   1.425   3.153  -0.934  0.3261 -0.5138 -1.3134
   40MOL0     H 5351   1.503   3.347  -1.223  1.4363  3.4289  2.2886
   40MOL0     H 5352   1.380   3.502  -1.390 -0.0332 -1.0192 -2.3658
   40MOL0     H 5353   1.330   3.351  -1.455  1.4265 -0.2911  0.1877
   40MOL0     H 5354   1.081   3.442  -1.387  0.3736 -0.1233 -0.8030
   40MOL0     H 5355   1.174   3.593  -1.358 -2.2021  1.5352 -0.3475
   40MOL0     H 5356   1.164   3.467  -1.632 -0.4810  1.4759 -0.3843
   40MOL0     H 5357   1.265   3.597  -1.597 -0.0677  0.6311 -0.8386
   40MOL0     H 5358   1.061   3.643  -1.707  0.0764  2.4275  0.1039
   40MOL0     H 5359   1.069   3.733  -1.544 -1.2504  0.0094 -0.0046
   40MOL0     H 5360   0.775   3.682  -1.752  0.6751 -0.0178 -0.6256
   40MOL0     H 5361   0.611   3.866  -1.720 -1.2514  1.7216  0.5120
   40MOL0     H 5362   0.562   4.275  -1.304  0.8280  0.1260  2.1964
   40MOL0     H 5363   0.381   4.435  -1.233 -0.2347  1.2940 -1.8423
   40MOL0     H 5364   0.218   4.554  -1.173  0.8832 -2.3408 -0.2033
   40MOL0     H 5365   0.209   4.581  -1.348 -0.6213  0.9345 -0.3566
   40MOL0     H 5366   0.048   4.711  -1.254  0.7654 -1.4064 -0.2210
   40MOL0     H 5367  -0.049   4.583  -1.336 -1.8895 -3.5482  0.6705
   40MOL0     H 5368  -0.098   4.475  -1.157 -2.5422  1.7520 -1.7348
   40MOL0     H 5369   0.026   4.536  -1.056  1.9600 -2.2720 -2.8340
   40MOL0     H 5370  -0.235   4.685  -1.150 -0.5303  0.3422  2.1006
   40MOL0     H 5371  -0.101   4.762  -1.069 -0.6380  0.0678  2.0244
   40MOL0     H 5372  -0.158   4.608  -0.875 -1.3289  0.8251  1.7809
   40MOL0     H 5373  -0.284   4.534  -0.980  0.9098 -0.6946 -0.1345
   40MOL0     H 5374  -0.396   4.675  -0.829  2.0937  0.4237  1.8195
   40MOL0     H 5375  -0.307   4.820  -0.856 -1.4711 -0.1369  0.0564
   40MOL0     H 5376  -0.475   4.688  -1.070  1.6839 -0.1947  0.2373
   40MOL0     H 5377  -0.389   4.834  -1.091  0.7166  0.4682  0.5097
   40MOL0     H 5378  -0.520   4.931  -0.874  1.1858 -1.5997 -1.0537
   40MOL0     H 5379  -0.596   4.903  -1.030 -0.9267 -2.0321 -0.7658
   40MOL0     H 5380   0.083   4.163  -1.343  0.3193 -3.7759  0.0317
   40MOL0     H 5381   0.259   3.997  -1.420  3.2230 -1.7445 -0.4039
   40MOL0     H 5382   0.693   3.810  -1.290  0.8281 -0.5408  0.2086
   40MOL0     H 5383   0.858   3.673  -1.332  1.4597  0.3493  0.3284
   40MOL0     H 5384   1.917   3.520  -0.129  0.4752  0.3693  0.2201
   40MOL0     H 5385   1.940   3.707   0.006  0.1854 -0.3582  0.1952
   40MOL0     H 5386   2.133   3.903   0.257 -1.9642  0.3595 -0.4789
   40MOL0     H 5387   2.203   4.119   0.356 -0.4374 -0.7089 -1.0436
   40MOL0     H 5388   2.113   4.189   0.792 -0.3798 -0.3739 -0.5156
   40MOL0     H 5389   2.006   4.299   0.703  0.2991  0.6467 -2.0513
   40MOL0     H 5390   2.301   4.345   0.756 -0.3785 -0.1602  3.2242
   40MOL0     H 5391   2.188   4.407   0.873  2.0181  2.8535  0.5844
   40MOL0     H 5392   2.066   4.540   0.701  0.1771  0.2344  0.5590
   40MOL0     H 5393   2.195   4.490   0.576  0.1340  1.0025 -0.5315
   40MOL0     H 5394   2.240   4.629   0.847 -1.8458  2.5105 -0.1893
   40MOL0     H 5395   2.365   4.599   0.724  0.0158 -2.1220  0.7945
   40MOL0     H 5396   2.136   4.928   0.562  2.0242  0.0262 -2.7050
   40MOL0     H 5397   1.975   4.033   0.701  0.4612  0.4093  0.6174
   40MOL0     H 5398   1.805   3.753   0.580  1.1232  1.2250 -1.7904
   40MOL0     H 5399   1.942   3.729   0.707 -0.9184 -0.1479  0.8596
   40MOL0     H 5400   1.836   3.868   0.718  2.1509 -0.8455  2.7036
   41MOL0     O 5401   5.299  11.016   4.198 -0.3478 -0.4146  0.2774
   41MOL0     C 5402   5.291  10.900   4.174  0.3780 -0.1379  0.7685
   41MOL0     O 5403   5.181  10.849   4.112 -0.0729  0.0344 -0.5915
   41MOL0     C 5404   5.081  10.932   4.075 -0.8310 -0.1536 -0.1527
   41MOL0     C 5405   5.036  10.921   3.940 -0.4008  0.2541  0.4478
   41MOL0     C 5406   4.911  10.982   3.906 -0.6939 -0.1134 -0.7039
   41MOL0     C 5407   4.836  11.070   4.003  0.4613 -0.4875 -0.3637
   41MOL0     O 5408   4.720  11.129   3.960 -0.2211  0.2211 -0.7851
   41MOL0     C 5409   4.650  11.227   4.038 -0.7392 -0.9039 -1.0370
   41MOL0     C 5410   4.708  11.370   4.031  0.1664  0.3177  0.0453
   41MOL0     C 5411   4.726  11.414   3.887 -0.9142  1.0249  0.2084
   41MOL0     C 5412   4.807  11.542   3.878  0.7720  0.6351  0.2422
   41MOL0     C 5413   4.811  11.625   3.749 -0.0557  0.0768 -0.0397
   41MOL0     C 5414   4.900  11.557   3.638  0.0981 -1.3013 -0.5066
   41MOL0     C 5415   4.962  11.668   3.546 -0.8033 -0.6345  0.2968
   41MOL0     C 5416   5.055  11.607   3.442  0.3704 -1.2618 -0.6528
   41MOL0     N 5417   4.994  11.533   3.333  0.5492  0.1336 -0.1873
   41MOL0     C 5418   4.943  11.585   3.217  0.1172 -0.6388  0.3406
   41MOL0     C 5419   4.916  11.482   3.136  0.1739  0.9057 -0.1360
   41MOL0     C 5420   4.846  11.490   3.003 -0.2879  0.5690 -0.1629
   41MOL0     C 5421   4.740  11.599   2.983 -0.0265  0.1474  0.1300
   41MOL0     C 5422   4.656  11.564   2.864 -0.4936  0.0632  0.2779
   41MOL0     C 5423   4.537  11.652   2.859  1.2179 -0.5556  0.2320
   41MOL0     O 5424   4.437  11.621   2.764 -0.1020  0.2462  0.5471
   41MOL0     C 5425   4.337  11.527   2.796 -0.5047 -0.2435 -0.1002
   41MOL0     C 5426   4.250  11.496   2.688 -0.0481 -0.2025  0.7349
   41MOL0     C 5427   4.152  11.399   2.683 -0.0860  0.4016  1.0015
   41MOL0     C 5428   4.129  11.335   2.812  0.0321 -0.9879 -0.7815
   41MOL0     C 5429   4.015  11.243   2.824  0.2866 -0.4653  0.7666
   41MOL0     O 5430   3.971  11.216   2.951  0.6217  0.1307  0.1268
   41MOL0     C 5431   3.874  11.119   2.966  1.0643  0.4115 -0.3884
   41MOL0     C 5432   3.762  11.145   3.048 -0.0881 -0.1662  0.0306
   41MOL0     C 5433   3.659  11.044   3.058  0.1714 -0.5935 -0.6998
   41MOL0     C 5434   3.681  10.918   3.009  0.0980 -0.1863  0.0079
   41MOL0     O 5435   3.573  10.836   3.014  1.0502 -0.4876 -0.4950
   41MOL0     C 5436   3.553  10.736   2.913 -0.5103  0.5905 -0.5803
   41MOL0     C 5437   3.414  10.679   2.936  0.4221  0.2281 -0.1354
   41MOL0     C 5438   3.294  10.781   2.904 -0.3434  0.8125  1.1296
   41MOL0     C 5439   3.160  10.707   2.885  0.6854 -0.0983 -0.8726
   41MOL0     C 5440   3.038  10.804   2.863  0.1747  0.6668 -0.3900
   41MOL0     C 5441   2.918  10.732   2.805 -0.1784 -0.3373  0.9730
   41MOL0     C 5442   2.868  10.626   2.898 -0.5897  0.3413 -0.3648
   41MOL0     C 5443   2.749  10.562   2.828  0.1722  0.8042 -0.4394
   41MOL0    Cl 5444   2.664  10.441   2.928  0.2579  0.3051  0.2699
   41MOL0     C 5445   3.799  10.890   2.939 -0.3046 -0.2267 -0.2012
   41MOL0     C 5446   3.900  10.990   2.917 -0.6034 -0.0863 -0.0167
   41MOL0     O 5447   3.969  11.194   2.725 -0.5388  0.0306  0.9345
   41MOL0     C 5448   4.202  11.382   2.924 -0.4154  0.2322  0.6267
   41MOL0     C 5449   4.323  11.460   2.917  0.3107 -0.1030  0.9429
   41MOL0     N 5450   4.939  11.362   3.204 -0.4595 -1.1029 -0.5383
   41MOL0     N 5451   4.978  11.399   3.320  0.6629 -0.1811  0.0063
   41MOL0     C 5452   4.893  11.088   4.126 -0.3489 -0.4367 -0.0604
   41MOL0     C 5453   5.015  11.014   4.165  0.2275  0.1676 -0.7901
   41MOL0     C 5454   5.401  10.805   4.196  0.7460  0.9913 -0.4533
   41MOL0     C 5455   5.524  10.859   4.254 -0.4910  0.2411  0.8457
   41MOL0     C 5456   5.642  10.785   4.245  0.0016  0.5277 -1.2890
   41MOL0     C 5457   5.643  10.657   4.199  1.5829  0.6880 -0.3188
   41MOL0     O 5458   5.766  10.600   4.203 -0.3680  1.0246  0.2276
   41MOL0     C 5459   5.789  10.476   4.133 -0.4616  0.1977 -0.5424
   41MOL0     C 5460   5.939  10.445   4.120  0.1679 -0.0521 -0.1380
   41MOL0     C 5461   6.018  10.553   4.053  1.2305  0.0290  0.0502
   41MOL0     C 5462   6.166  10.527   4.054 -0.3025  0.2210 -0.9594
   41MOL0     C 5463   6.250  10.642   4.009 -0.3265  0.2091 -0.2348
   41MOL0     C 5464   6.321  10.732   3.975 -0.5246  0.5977 -0.0392
   41MOL0     C 5465   5.527  10.595   4.157  0.1662  0.2488  0.4428
   41MOL0     C 5466   5.407  10.665   4.156  0.2727  0.4604  0.2651
   41MOL0     C 5467   5.294  10.585   4.109  0.2782 -0.3665  0.2456
   41MOL0     H 5468   5.076  10.851   3.868 -3.3207 -1.5711  0.4349
   41MOL0     H 5469   4.864  10.969   3.809 -2.1468  1.0940 -0.1988
   41MOL0     H 5470   4.549  11.230   3.996 -0.6001 -2.4396 -1.5316
   41MOL0     H 5471   4.643  11.191   4.141  0.1736  1.7950  0.0627
   41MOL0     H 5472   4.804  11.370   4.082 -0.7847  0.1818  1.9241
   41MOL0     H 5473   4.660  11.444   4.096  3.3198  2.3052  0.2944
   41MOL0     H 5474   4.630  11.422   3.835  0.4470  3.4633 -2.1780
   41MOL0     H 5475   4.788  11.341   3.833 -0.7863  2.8618 -2.2896
   41MOL0     H 5476   4.774  11.616   3.952 -0.6385 -0.5527  0.8410
   41MOL0     H 5477   4.909  11.517   3.908  0.0838 -0.3780  1.8909
   41MOL0     H 5478   4.706  11.630   3.718  0.3558  1.0011 -1.3907
   41MOL0     H 5479   4.835  11.730   3.767  0.5050 -0.1773  0.7280
   41MOL0     H 5480   4.973  11.490   3.684  2.3551  2.0856  1.1991
   41MOL0     H 5481   4.837  11.488   3.580  2.7296 -3.1912 -1.2788
   41MOL0     H 5482   5.017  11.751   3.592 -3.5128  0.3098  2.0331
   41MOL0     H 5483   4.882  11.720   3.492 -1.1996 -0.7717  0.7494
   41MOL0     H 5484   5.089  11.700   3.395 -1.4933  0.2093  0.7290
   41MOL0     H 5485   5.140  11.550   3.480  0.4546 -1.8180 -1.6523
   41MOL0     H 5486   4.923  11.689   3.193  0.6703 -1.0429 -2.1415
   41MOL0     H 5487   4.919  11.500   2.922  1.6077 -1.5793  1.1473
   41MOL0     H 5488   4.810  11.388   2.984  2.4107 -1.2289  3.0950
   41MOL0     H 5489   4.680  11.607   3.074  0.0398  0.7752  0.1190
   41MOL0     H 5490   4.783  11.698   2.967 -1.8502  1.4630  2.6649
   41MOL0     H 5491   4.621  11.465   2.897  1.8856 -0.5783  1.0333
   41MOL0     H 5492   4.710  11.569   2.769  1.4106  0.8837  1.3518
   41MOL0     H 5493   4.575  11.751   2.832  2.7496 -0.5916  2.0224
   41MOL0     H 5494   4.487  11.647   2.956 -1.6071 -0.3760 -1.1313
   41MOL0     H 5495   4.277  11.545   2.595  0.0616 -0.9543  0.3719
   41MOL0     H 5496   4.097  11.382   2.592  0.6772 -0.0087  0.5984
   41MOL0     H 5497   3.749  11.228   3.116  1.9749  0.0307  0.2480
   41MOL0     H 5498   3.570  11.060   3.118  0.4040 -1.3423 -0.1388
   41MOL0     H 5499   3.560  10.770   2.809  1.3872 -3.5439 -2.0373
   41MOL0     H 5500   3.622  10.652   2.920 -1.9687 -0.6973 -1.1393
   41MOL0     H 5501   3.401  10.589   2.875 -1.0569 -0.1534  0.7039
   41MOL0     H 5502   3.409  10.654   3.042  1.3465 -1.6957 -0.4884
   41MOL0     H 5503   3.292  10.857   2.982  1.2331  1.2982  0.7312
   41MOL0     H 5504   3.306  10.820   2.803  0.7929 -2.0292  0.0565
   41MOL0     H 5505   3.169  10.635   2.967  0.4892  0.3969 -0.4048
   41MOL0     H 5506   3.167  10.650   2.792 -0.6010 -0.0812 -1.0013
   41MOL0     H 5507   3.062  10.878   2.787 -1.9580  1.1254 -0.6831
   41MOL0     H 5508   3.003  10.855   2.953 -1.9094  0.1341 -0.8365
   41MOL0     H 5509   2.835  10.804   2.801 -0.0835 -0.2357  0.8097
   41MOL0     H 5510   2.947  10.704   2.704  1.7825  0.3882  1.2964
   41MOL0     H 5511   2.842  10.668   2.995  0.6204  0.8224 -0.2261
   41MOL0     H 5512   2.950  10.555   2.914  1.9357  3.3708  1.2896
   41MOL0     H 5513   2.676  10.642   2.819 -0.2539  0.3417 -1.1279
   41MOL0     H 5514   2.780  10.518   2.733  1.7343 -1.0431  0.8325
   41MOL0     H 5515   3.816  10.791   2.898 -4.1143 -1.3381  0.5571
   41MOL0     H 5516   3.990  10.961   2.864 -0.9435 -1.9060  0.3468
   41MOL0     H 5517   4.183  11.358   3.028 -0.0330 -1.2954  0.3678
   41MOL0     H 5518   4.366  11.499   3.008  0.3276  0.4768  0.6952
   41MOL0     H 5519   4.855  11.163   4.195  3.7025 -0.7650  2.9148
   41MOL0     H 5520   5.043  11.017   4.270 -3.0517  0.7868  0.1703
   41MOL0     H 5521   5.541  10.967   4.254 -1.6903  0.4453  0.3337
   41MOL0     H 5522   5.729  10.832   4.288 -0.4402 -0.8448  1.3604
   41MOL0     H 5523   5.748  10.475   4.032  1.4665 -4.2679 -1.5135
   41MOL0     H 5524   5.739  10.386   4.171  1.0854 -0.8069 -0.7872
   41MOL0     H 5525   5.922  10.357   4.056 -1.3724  0.0159  0.1269
   41MOL0     H 5526   5.975  10.423   4.221 -0.5976  2.1963  0.6889
   41MOL0     H 5527   6.006  10.641   4.116 -0.7279 -2.1503  3.0180
   41MOL0     H 5528   5.976  10.580   3.956  1.0404 -0.7921 -0.1036
   41MOL0     H 5529   6.195  10.498   4.155  0.6231 -3.3854 -2.1139
   41MOL0     H 5530   6.190  10.440   3.993 -1.0081 -2.3223  2.1084
   41MOL0     H 5531   6.377  10.817   3.942  0.2921 -0.2492 -0.9135
   41MOL0     H 5532   5.526  10.490   4.128  3.3377  0.5003 -0.9396
   41MOL0     H 5533   5.307  10.481   4.140  2.4926 -0.0786  0.4108
   41MOL0     H 5534   5.194  10.611   4.146 -0.6038  0.0533 -2.2238
   41MOL0     H 5535   5.284  10.581   4.000 -0.1592 -0.1453  0.2709
   42MOL0     O 5536   6.026   7.701   2.799  0.1453  0.1461  0.4559
   42MOL0     C 5537   6.071   7.794   2.865  0.0594  0.2932 -0.5449
   42MOL0     O 5538   6.200   7.823   2.888  0.6536 -0.1974  0.0887
   42MOL0     C 5539   6.312   7.747   2.857 -0.0784 -1.2548 -0.2932
   42MOL0     C 5540   6.327   7.661   2.746 -0.6960 -0.6378 -0.9212
   42MOL0     C 5541   6.440   7.581   2.735  0.7510 -0.5227 -0.2568
   42MOL0     C 5542   6.546   7.581   2.831 -0.6495  0.1361 -0.7224
   42MOL0     O 5543   6.668   7.510   2.831  0.5281 -1.0078 -0.2547
   42MOL0     C 5544   6.688   7.413   2.732 -0.4973  0.5308  0.3950
   42MOL0     C 5545   6.808   7.323   2.767  0.2572  0.6141  0.1910
   42MOL0     C 5546   6.936   7.398   2.751  0.3181 -0.4450  0.4213
   42MOL0     C 5547   6.982   7.423   2.612  0.3886 -0.0713  0.1716
   42MOL0     C 5548   7.130   7.452   2.606 -0.2332  0.9145  0.3350
   42MOL0     C 5549   7.167   7.591   2.662 -0.2393  0.2061  0.0351
   42MOL0     C 5550   7.223   7.673   2.554  0.3686 -0.1706  0.0844
   42MOL0     C 5551   7.129   7.717   2.443 -0.3741  0.3778 -0.2326
   42MOL0     N 5552   7.205   7.807   2.355  0.7787 -0.5387 -0.0173
   42MOL0     C 5553   7.332   7.788   2.293 -0.2375 -0.1737  0.4846
   42MOL0     C 5554   7.342   7.902   2.211 -0.7869 -0.1824  0.8739
   42MOL0     C 5555   7.464   7.921   2.126 -0.0553 -0.0434  0.6531
   42MOL0     C 5556   7.518   8.062   2.109  0.5539 -1.1183 -0.1233
   42MOL0     C 5557   7.549   8.114   2.251  0.0294 -0.1439 -0.0853
   42MOL0     C 5558   7.636   8.239   2.246  0.1911 -0.2567  0.4859
   42MOL0     O 5559   7.783   8.221   2.219  0.5654  0.3346  0.2034
   42MOL0     C 5560   7.857   8.219   2.336 -0.0413 -1.0894 -0.3067
   42MOL0     C 5561   7.896   8.100   2.398 -0.5862  0.3092  0.1333
   42MOL0     C 5562   7.995   8.102   2.499  0.1823 -0.1101  0.7639
   42MOL0     C 5563   8.055   8.225   2.535  0.1606  0.0729  0.2749
   42MOL0     C 5564   8.170   8.235   2.618 -1.0811  0.7824  1.3853
   42MOL0     O 5565   8.250   8.344   2.604  0.5544 -0.3965  0.0194
   42MOL0     C 5566   8.379   8.332   2.651 -0.4949 -0.0000  0.0470
   42MOL0     C 5567   8.402   8.335   2.789 -0.2845  0.8928 -0.0374
   42MOL0     C 5568   8.538   8.320   2.834  0.1198 -0.5122 -0.3708
   42MOL0     C 5569   8.650   8.310   2.745  0.1050  0.4803 -0.2664
   42MOL0     O 5570   8.780   8.294   2.802  0.8413  0.4675  0.0504
   42MOL0     C 5571   8.859   8.210   2.726 -0.3255  0.5110 -0.8112
   42MOL0     C 5572   8.991   8.194   2.806  0.3674 -0.0498  1.2076
   42MOL0     C 5573   9.070   8.068   2.750 -0.4968 -0.0681 -0.6064
   42MOL0     C 5574   9.216   8.055   2.809  0.0805 -0.3863  0.1940
   42MOL0     C 5575   9.301   7.970   2.715  0.3634  0.8836  0.5472
   42MOL0     C 5576   9.449   8.005   2.725  0.2124  0.0937 -0.6278
   42MOL0     C 5577   9.502   8.075   2.600 -0.0659 -0.4061 -0.3286
   42MOL0     C 5578   9.464   8.226   2.580 -0.5828 -0.4006 -0.1039
   42MOL0    Cl 5579   9.547   8.319   2.444 -0.2568  0.1733 -0.1835
   42MOL0     C 5580   8.617   8.309   2.611 -0.4204 -0.1513  0.4110
   42MOL0     C 5581   8.490   8.319   2.563  0.4718  0.0657 -0.2715
   42MOL0     O 5582   8.195   8.140   2.691  0.0830  0.2530  0.5320
   42MOL0     C 5583   8.009   8.342   2.470 -0.2968 -0.2976 -0.8785
   42MOL0     C 5584   7.911   8.336   2.377 -0.3853 -0.4108  0.7257
   42MOL0     N 5585   7.245   7.991   2.251 -0.6382  0.8111  0.2893
   42MOL0     N 5586   7.157   7.933   2.324  0.6117 -0.6024  0.4902
   42MOL0     C 5587   6.534   7.671   2.946 -0.3188 -0.2510 -0.4190
   42MOL0     C 5588   6.423   7.748   2.946  0.0560 -0.1213  0.0356
   42MOL0     C 5589   5.972   7.888   2.919 -1.3247 -0.0545 -0.6539
   42MOL0     C 5590   5.844   7.835   2.938 -1.1387  0.7575  0.3082
   42MOL0     C 5591   5.740   7.901   3.005  0.1349 -0.2714  0.3885
   42MOL0     C 5592   5.768   8.030   3.057  0.1727  0.5369 -0.4991
   42MOL0     O 5593   5.666   8.083   3.132  0.0362 -0.2061  0.9633
   42MOL0     C 5594   5.695   8.205   3.201 -0.3098 -0.0834 -0.5668
   42MOL0     C 5595   5.562   8.257   3.257  0.2742  0.3506  0.0097
   42MOL0     C 5596   5.463   8.302   3.150 -0.7091 -0.2190 -0.8413
   42MOL0     C 5597   5.470   8.450   3.132 -0.6180 -0.2751 -0.5090
   42MOL0     C 5598   5.374   8.514   3.043 -0.4358 -0.7716 -0.3473
   42MOL0     C 5599   5.282   8.573   2.991  0.2817 -0.0635  0.0402
   42MOL0     C 5600   5.890   8.081   3.038 -0.6713  0.4657 -0.6775
   42MOL0     C 5601   5.997   8.019   2.970 -0.6572 -0.5078 -0.0458
   42MOL0     C 5602   6.137   8.098   2.967 -0.3810  0.3140 -0.5192
   42MOL0     H 5603   6.251   7.655   2.668 -2.0689 -2.8935  0.4656
   42MOL0     H 5604   6.452   7.509   2.655 -1.6767 -1.9020  0.5185
   42MOL0     H 5605   6.600   7.349   2.717  0.3900 -0.6181 -0.0417
   42MOL0     H 5606   6.712   7.471   2.643 -0.5319 -0.8696 -0.5647
   42MOL0     H 5607   6.796   7.239   2.698  0.1062  0.3341  0.5585
   42MOL0     H 5608   6.784   7.285   2.866 -3.1382 -1.7762 -1.3694
   42MOL0     H 5609   7.013   7.351   2.813 -0.6181  1.2897  3.0785
   42MOL0     H 5610   6.916   7.493   2.802  0.4233 -1.0077  1.5530
   42MOL0     H 5611   6.949   7.339   2.551  0.7448  1.1531 -1.8097
   42MOL0     H 5612   6.928   7.513   2.581 -0.0833 -0.1527  0.7370
   42MOL0     H 5613   7.177   7.364   2.650 -1.5230 -0.2417 -0.5243
   42MOL0     H 5614   7.166   7.453   2.503 -0.8816  1.2680  0.1033
   42MOL0     H 5615   7.075   7.630   2.706  0.3878 -0.6747  2.2640
   42MOL0     H 5616   7.234   7.579   2.748  0.3702 -1.1199 -0.6083
   42MOL0     H 5617   7.307   7.612   2.520  2.0979  0.7095  2.4958
   42MOL0     H 5618   7.273   7.765   2.586 -0.6561  1.5495 -2.8629
   42MOL0     H 5619   7.083   7.636   2.385  2.7299 -1.3847 -0.4678
   42MOL0     H 5620   7.048   7.778   2.485  0.2314  1.7658 -1.0261
   42MOL0     H 5621   7.403   7.707   2.286  2.6961  2.3354 -1.2011
   42MOL0     H 5622   7.548   7.862   2.162 -0.2863 -1.2902 -0.7267
   42MOL0     H 5623   7.437   7.891   2.024 -2.9304 -3.2918  2.1599
   42MOL0     H 5624   7.606   8.057   2.045  1.9849 -1.8125  1.7945
   42MOL0     H 5625   7.441   8.129   2.070 -0.0403  0.5372  3.4316
   42MOL0     H 5626   7.590   8.041   2.322  1.4957  0.0310 -0.7252
   42MOL0     H 5627   7.460   8.147   2.305  1.9741  2.1935  1.9566
   42MOL0     H 5628   7.624   8.293   2.340  1.2820  1.6086 -0.3885
   42MOL0     H 5629   7.596   8.310   2.173 -1.4640 -0.2316  1.3551
   42MOL0     H 5630   7.861   8.002   2.368  0.3173 -0.8406  2.5703
   42MOL0     H 5631   8.048   8.020   2.547 -0.3401 -1.8205 -1.4176
   42MOL0     H 5632   8.314   8.364   2.846 -3.2100 -1.4775 -2.9394
   42MOL0     H 5633   8.558   8.339   2.939  1.8376  0.9775 -0.9256
   42MOL0     H 5634   8.819   8.108   2.731 -1.1161  0.8411 -0.1635
   42MOL0     H 5635   8.885   8.255   2.630 -1.6441  2.5656 -0.2690
   42MOL0     H 5636   9.045   8.288   2.789 -0.7507  0.5714  0.9784
   42MOL0     H 5637   8.976   8.180   2.914 -1.9396  2.0595  1.2448
   42MOL0     H 5638   9.012   7.979   2.777  3.0396 -2.2362  0.4640
   42MOL0     H 5639   9.066   8.071   2.641 -0.2891  3.3432 -0.6293
   42MOL0     H 5640   9.216   8.002   2.905  1.7385 -2.2503 -0.7641
   42MOL0     H 5641   9.260   8.154   2.817  1.4641 -0.5427 -3.4702
   42MOL0     H 5642   9.266   7.972   2.611 -1.5868 -0.1540  1.1282
   42MOL0     H 5643   9.296   7.866   2.749  2.1111  0.6052  0.0256
   42MOL0     H 5644   9.463   8.074   2.808  3.1793 -0.8959 -0.1780
   42MOL0     H 5645   9.506   7.913   2.740 -1.7240 -1.0214  0.3073
   42MOL0     H 5646   9.479   8.014   2.512 -3.1835  0.7580 -0.4467
   42MOL0     H 5647   9.611   8.080   2.609 -0.2508 -0.0565  2.6663
   42MOL0     H 5648   9.356   8.246   2.579 -0.6910 -0.9947 -0.5803
   42MOL0     H 5649   9.489   8.273   2.676 -2.1372  0.4117 -0.0595
   42MOL0     H 5650   8.705   8.308   2.547 -0.6501  0.6071  0.0727
   42MOL0     H 5651   8.460   8.313   2.458  2.8209  1.3107 -1.0707
   42MOL0     H 5652   8.044   8.437   2.509 -1.3298 -0.0360 -0.5390
   42MOL0     H 5653   7.884   8.430   2.329  2.5300  2.4512  4.1202
   42MOL0     H 5654   6.614   7.682   3.019  0.8908 -0.7232 -1.6473
   42MOL0     H 5655   6.406   7.798   3.041  0.7190  1.3623 -0.5864
   42MOL0     H 5656   5.830   7.729   2.917  0.5405 -0.4745  4.2601
   42MOL0     H 5657   5.647   7.847   3.019 -0.7461  1.5162  1.7956
   42MOL0     H 5658   5.737   8.286   3.141 -3.2866  1.0835 -1.2563
   42MOL0     H 5659   5.756   8.172   3.286  0.7778 -0.5324 -1.4935
   42MOL0     H 5660   5.586   8.325   3.339 -1.4971  2.8060 -1.3764
   42MOL0     H 5661   5.514   8.173   3.309 -0.9234  0.4038 -0.9616
   42MOL0     H 5662   5.367   8.270   3.191  2.6576 -6.2294  3.9911
   42MOL0     H 5663   5.486   8.251   3.056 -0.0762  1.2360 -1.5092
   42MOL0     H 5664   5.466   8.493   3.233  0.4095 -1.6839  0.1775
   42MOL0     H 5665   5.568   8.472   3.088 -0.9086  2.5531  0.0590
   42MOL0     H 5666   5.197   8.618   2.944 -0.3702 -1.6858 -0.4040
   42MOL0     H 5667   5.909   8.173   3.091 -0.1594 -0.8701  1.5911
   42MOL0     H 5668   6.131   8.178   3.042  0.9865 -2.1511  2.4074
   42MOL0     H 5669   6.216   8.037   3.012 -2.1444 -0.3555  1.8693
   42MOL0     H 5670   6.157   8.124   2.862 -1.8888 -0.2236 -0.9758
   43MOL0     O 5671   7.411   7.269   4.082  0.0198 -0.6178  0.4133
   43MOL0     C 5672   7.402   7.203   4.182 -0.1466 -0.0736  0.4727
   43MOL0     O 5673   7.441   7.064   4.200  0.6050  0.3704  0.3285
   43MOL0     C 5674   7.478   6.993   4.084  0.3297  0.5577  0.6079
   43MOL0     C 5675   7.590   6.908   4.097  0.4709  0.3364 -0.3377
   43MOL0     C 5676   7.639   6.829   3.996 -0.1889 -1.1064  0.2242
   43MOL0     C 5677   7.587   6.843   3.868 -0.6385 -0.0809  0.6192
   43MOL0     O 5678   7.643   6.768   3.765 -0.1583 -0.1728  0.0554
   43MOL0     C 5679   7.546   6.670   3.708 -0.4646 -1.1932 -0.2740
   43MOL0     C 5680   7.612   6.561   3.613 -0.1387 -0.0217  0.3539
   43MOL0     C 5681   7.650   6.434   3.694  0.2444  0.1758 -0.6789
   43MOL0     C 5682   7.738   6.328   3.617  0.7640 -0.2082 -0.3280
   43MOL0     C 5683   7.649   6.247   3.525 -0.5410 -0.5752  0.1896
   43MOL0     C 5684   7.753   6.162   3.450  0.0312 -0.2080  0.4386
   43MOL0     C 5685   7.682   6.062   3.349  0.0258 -0.8093 -0.8189
   43MOL0     C 5686   7.784   5.972   3.270  0.0398 -0.9874  0.0959
   43MOL0     N 5687   7.880   5.897   3.354  0.2995 -0.1351 -0.2873
   43MOL0     C 5688   7.994   5.951   3.391  0.8596 -0.7527  0.3359
   43MOL0     C 5689   8.051   5.855   3.463  0.8081 -0.0673 -0.2829
   43MOL0     C 5690   8.187   5.862   3.532  0.1288  0.2148  0.0928
   43MOL0     C 5691   8.192   5.804   3.674  0.1817 -0.9034  0.3414
   43MOL0     C 5692   8.086   5.866   3.760  0.7820 -0.2939 -0.4844
   43MOL0     C 5693   8.052   5.777   3.882 -0.2571  0.6864  0.9102
   43MOL0     O 5694   7.948   5.677   3.856 -0.5024 -1.1856  0.0244
   43MOL0     C 5695   7.970   5.558   3.927 -0.0882  0.2691 -0.0399
   43MOL0     C 5696   8.070   5.471   3.877  1.6623  0.5458 -0.2608
   43MOL0     C 5697   8.097   5.353   3.952  0.9974 -0.1594 -0.5636
   43MOL0     C 5698   8.025   5.325   4.075 -0.8048 -0.0240 -0.6880
   43MOL0     C 5699   8.069   5.212   4.160 -0.1377  0.8073 -0.1006
   43MOL0     O 5700   8.167   5.137   4.101  0.1124 -1.1482 -0.7376
   43MOL0     C 5701   8.193   4.999   4.132  1.2433 -0.3064 -0.4190
   43MOL0     C 5702   8.096   4.918   4.193  1.0472  0.1638  0.2496
   43MOL0     C 5703   8.144   4.791   4.232  0.0067 -0.3474 -0.5205
   43MOL0     C 5704   8.273   4.748   4.207  0.6896  0.6929  0.2703
   43MOL0     O 5705   8.326   4.622   4.256  0.5612 -0.2629  0.6081
   43MOL0     C 5706   8.231   4.524   4.298 -0.0188 -0.6574  0.5463
   43MOL0     C 5707   8.295   4.389   4.297 -0.3701 -0.2618  1.2055
   43MOL0     C 5708   8.183   4.281   4.323 -0.3618  0.4869  0.1075
   43MOL0     C 5709   8.230   4.135   4.320 -1.1027 -0.1988 -0.8114
   43MOL0     C 5710   8.125   4.027   4.328  0.0143  0.1037  0.1020
   43MOL0     C 5711   8.067   4.023   4.475 -0.2885  0.0380 -0.4246
   43MOL0     C 5712   7.949   3.925   4.476 -0.1770 -0.2074 -0.2789
   43MOL0     C 5713   7.853   3.943   4.600 -0.3648  0.1112  0.3984
   43MOL0    Cl 5714   7.926   3.893   4.752 -0.4200  0.3400  0.4014
   43MOL0     C 5715   8.365   4.832   4.140  0.4767 -0.4750 -0.2676
   43MOL0     C 5716   8.326   4.955   4.097  0.7332  0.0088  0.2979
   43MOL0     O 5717   8.021   5.185   4.272  0.0471  0.3355 -0.0051
   43MOL0     C 5718   7.924   5.410   4.116  1.0943  0.1062  0.3618
   43MOL0     C 5719   7.899   5.520   4.041 -0.1629 -0.5117  0.1949
   43MOL0     N 5720   7.964   5.740   3.472  0.5555  0.1557 -0.4933
   43MOL0     N 5721   7.860   5.770   3.399 -0.4234  0.0593 -0.3499
   43MOL0     C 5722   7.483   6.940   3.843  0.5597  1.2138 -0.4431
   43MOL0     C 5723   7.420   7.006   3.951  0.5062 -0.2525 -0.4459
   43MOL0     C 5724   7.386   7.269   4.316 -0.0728 -0.2825  0.7247
   43MOL0     C 5725   7.378   7.194   4.437 -0.4154 -0.8923 -0.4131
   43MOL0     C 5726   7.372   7.249   4.560  0.2162  0.2875  0.1969
   43MOL0     C 5727   7.354   7.376   4.574 -0.2155 -0.6364  0.4787
   43MOL0     O 5728   7.343   7.442   4.690  0.0050  0.1219 -0.1144
   43MOL0     C 5729   7.398   7.402   4.811 -1.3878  0.8355  0.0272
   43MOL0     C 5730   7.456   7.516   4.886 -0.0505 -0.5437  0.2100
   43MOL0     C 5731   7.527   7.452   5.010 -1.1517 -1.0452  0.7329
   43MOL0     C 5732   7.662   7.522   5.020 -0.0738  0.2146  0.2968
   43MOL0     C 5733   7.715   7.477   5.146 -0.4152  0.5160  0.1130
   43MOL0     C 5734   7.771   7.438   5.246 -0.2572 -0.1315  0.1735
   43MOL0     C 5735   7.338   7.458   4.464 -0.3163 -0.1429  0.7110
   43MOL0     C 5736   7.362   7.410   4.335 -1.1091 -0.8582 -0.1349
   43MOL0     C 5737   7.344   7.520   4.223  0.4607 -0.4862 -1.4648
   43MOL0     H 5738   7.624   6.900   4.199 -2.1763  2.1999  0.7746
   43MOL0     H 5739   7.709   6.747   4.010  0.1789 -0.7053  0.7910
   43MOL0     H 5740   7.487   6.611   3.780 -0.1044  2.2110  3.1288
   43MOL0     H 5741   7.476   6.736   3.657  2.0121  1.4700 -0.4943
   43MOL0     H 5742   7.695   6.599   3.554  1.1749 -1.2345  1.3538
   43MOL0     H 5743   7.546   6.529   3.532 -0.9519  1.7513  0.2874
   43MOL0     H 5744   7.562   6.390   3.743 -0.1067  1.9322  0.3380
   43MOL0     H 5745   7.701   6.468   3.784 -2.9063  0.8909  1.0026
   43MOL0     H 5746   7.812   6.380   3.556  0.4484 -0.6289 -1.0863
   43MOL0     H 5747   7.784   6.262   3.690 -1.6417 -1.6737 -0.0267
   43MOL0     H 5748   7.572   6.185   3.572  2.2140 -1.6791  3.7198
   43MOL0     H 5749   7.601   6.311   3.450  1.2014 -1.7752 -2.0794
   43MOL0     H 5750   7.815   6.225   3.385  2.2513 -3.5131 -0.9064
   43MOL0     H 5751   7.811   6.103   3.521 -0.7459 -1.7443 -0.1382
   43MOL0     H 5752   7.617   6.118   3.281  2.0647  3.5603  0.4631
   43MOL0     H 5753   7.620   5.996   3.410 -0.7294  1.6284  1.2279
   43MOL0     H 5754   7.724   5.910   3.202  0.3431 -0.6939 -0.4455
   43MOL0     H 5755   7.831   6.054   3.214 -2.6799  0.8543  0.2802
   43MOL0     H 5756   8.018   6.054   3.369 -0.3723 -0.1590  1.6401
   43MOL0     H 5757   8.271   5.825   3.472  0.9491  1.1453  0.6278
   43MOL0     H 5758   8.205   5.970   3.538  0.6834  0.0956  0.6436
   43MOL0     H 5759   8.160   5.700   3.665  3.8531 -2.1933  0.3709
   43MOL0     H 5760   8.287   5.803   3.728 -0.6360  2.2926  2.0921
   43MOL0     H 5761   7.993   5.872   3.702  0.3682 -0.3433  0.1524
   43MOL0     H 5762   8.115   5.967   3.790  1.2722 -0.8522  1.0162
   43MOL0     H 5763   8.013   5.843   3.959 -2.5379  1.0988 -0.5221
   43MOL0     H 5764   8.147   5.740   3.922 -0.7480 -0.3461  1.1734
   43MOL0     H 5765   8.109   5.488   3.777 -2.8425  0.2900 -2.2871
   43MOL0     H 5766   8.173   5.292   3.904 -0.1607  0.4799 -3.4188
   43MOL0     H 5767   7.997   4.952   4.220  1.6274  1.5224  0.8157
   43MOL0     H 5768   8.078   4.733   4.296 -1.9968  0.5921 -1.6228
   43MOL0     H 5769   8.184   4.555   4.392 -0.6981 -0.1595  0.0473
   43MOL0     H 5770   8.156   4.522   4.219  1.0712 -0.2716 -0.5261
   43MOL0     H 5771   8.338   4.384   4.196 -0.0229 -0.4914  1.3648
   43MOL0     H 5772   8.373   4.372   4.371  2.0024  0.0466 -1.0744
   43MOL0     H 5773   8.140   4.303   4.421 -3.6225 -0.9370 -0.8727
   43MOL0     H 5774   8.100   4.292   4.253 -0.3036  0.9388  0.1046
   43MOL0     H 5775   8.292   4.114   4.407 -0.8053  3.3189 -0.0208
   43MOL0     H 5776   8.290   4.130   4.229 -1.0193  2.3955 -0.9513
   43MOL0     H 5777   8.166   3.932   4.291  2.3515  0.8880  0.5638
   43MOL0     H 5778   8.042   4.046   4.259 -1.0916 -1.7817  0.8108
   43MOL0     H 5779   8.140   3.987   4.548  0.6978  2.4832 -0.1293
   43MOL0     H 5780   8.033   4.112   4.528 -2.3197 -0.2277 -1.2013
   43MOL0     H 5781   7.983   3.821   4.477  1.1056  0.1815  1.2798
   43MOL0     H 5782   7.899   3.931   4.379 -0.5600 -1.6889 -0.2104
   43MOL0     H 5783   7.829   4.049   4.594  0.0031  0.1785  0.0885
   43MOL0     H 5784   7.765   3.880   4.584 -0.4984  0.1997  0.7613
   43MOL0     H 5785   8.461   4.790   4.115  0.2783 -0.2119 -1.5330
   43MOL0     H 5786   8.394   5.027   4.051 -1.8440  3.0279  0.8539
   43MOL0     H 5787   7.859   5.383   4.199 -0.5123 -1.5982 -1.3617
   43MOL0     H 5788   7.810   5.581   4.058 -0.3716 -1.0279  1.0019
   43MOL0     H 5789   7.442   6.964   3.745 -0.1408  2.1447  0.0593
   43MOL0     H 5790   7.351   7.087   3.932  1.3843  0.5831 -0.1889
   43MOL0     H 5791   7.385   7.086   4.440  1.0372 -0.9926 -3.5506
   43MOL0     H 5792   7.365   7.178   4.642 -0.1269 -0.7826 -0.7267
   43MOL0     H 5793   7.482   7.334   4.797 -1.8961 -0.2292  1.7684
   43MOL0     H 5794   7.325   7.347   4.871 -0.3309  3.4062  4.1186
   43MOL0     H 5795   7.377   7.583   4.920  0.9002  1.0250 -0.5548
   43MOL0     H 5796   7.519   7.581   4.824 -0.6455  2.6725  2.7027
   43MOL0     H 5797   7.535   7.343   5.010 -0.4040 -1.0147 -1.0516
   43MOL0     H 5798   7.464   7.479   5.096 -0.8200 -1.7482  1.2064
   43MOL0     H 5799   7.732   7.485   4.944  1.2265 -1.4455  2.1786
   43MOL0     H 5800   7.663   7.631   5.015 -1.7905  0.2062 -1.1186
   43MOL0     H 5801   7.816   7.419   5.341 -0.4693 -2.3822 -0.1091
   43MOL0     H 5802   7.329   7.566   4.470 -2.1717 -0.0511 -1.7137
   43MOL0     H 5803   7.410   7.497   4.140  3.8675 -1.3712  1.2519
   43MOL0     H 5804   7.237   7.523   4.201  0.1979  1.3500 -0.1839
   43MOL0     H 5805   7.362   7.623   4.255 -0.7996  0.8890 -4.7462
   44MOL0     O 5806   1.213  11.099   5.392 -0.7719  0.1446  0.0355
   44MOL0     C 5807   1.092  11.131   5.400  0.3073  0.6725 -0.7954
   44MOL0     O 5808   1.015  11.143   5.287 -0.4625 -0.6704 -0.1691
   44MOL0     C 5809   1.061  11.123   5.166  0.5897  0.9048  0.1787
   44MOL0     C 5810   1.184  11.171   5.129  0.9655  0.1514 -0.1256
   44MOL0     C 5811   1.222  11.143   4.995 -0.6289 -0.5769  0.7080
   44MOL0     C 5812   1.139  11.078   4.906  0.1510  0.2678 -0.3435
   44MOL0     O 5813   1.176  11.070   4.773  0.3256 -0.0703 -0.2641
   44MOL0     C 5814   1.189  10.938   4.718  0.5143 -0.3875 -0.6939
   44MOL0     C 5815   1.235  10.946   4.570  0.1555 -0.0694 -0.0510
   44MOL0     C 5816   1.187  11.067   4.488  0.0019  0.4260  0.4079
   44MOL0     C 5817   1.038  11.048   4.459 -0.4250 -0.6617  0.7671
   44MOL0     C 5818   0.981  11.128   4.334 -0.2587  0.3208  0.6054
   44MOL0     C 5819   0.840  11.064   4.304  0.5184 -0.4403  0.0774
   44MOL0     C 5820   0.767  11.156   4.200 -0.4884 -0.5622 -0.4782
   44MOL0     C 5821   0.632  11.095   4.151 -0.6729  0.2833  0.9110
   44MOL0     N 5822   0.572  11.163   4.036 -0.4473 -0.3344  0.9268
   44MOL0     C 5823   0.474  11.256   4.059  0.7104 -0.4146  0.2062
   44MOL0     C 5824   0.456  11.308   3.935 -0.1067  0.7950  0.4041
   44MOL0     C 5825   0.363  11.420   3.888 -0.3452 -0.1019  0.3407
   44MOL0     C 5826   0.271  11.384   3.767 -0.3445 -0.0401  0.3165
   44MOL0     C 5827   0.168  11.495   3.727  0.8501  0.1862  0.7327
   44MOL0     C 5828   0.149  11.501   3.573 -1.3446 -0.3523 -0.1948
   44MOL0     O 5829   0.015  11.511   3.526  0.4127  0.4921  0.1541
   44MOL0     C 5830  -0.010  11.517   3.390  0.6196  0.1977  0.0212
   44MOL0     C 5831  -0.137  11.565   3.358  0.6481  0.4898  0.1097
   44MOL0     C 5832  -0.175  11.569   3.221 -0.8256 -0.1741 -0.2118
   44MOL0     C 5833  -0.089  11.528   3.116 -0.1525  0.4572 -0.4886
   44MOL0     C 5834  -0.099  11.573   2.980  0.7114 -1.1818 -0.2829
   44MOL0     O 5835   0.021  11.581   2.907  0.1751  0.0052  0.4437
   44MOL0     C 5836   0.027  11.597   2.772 -0.6542  0.4002  0.1924
   44MOL0     C 5837   0.112  11.687   2.710  0.2364  0.4596 -0.9917
   44MOL0     C 5838   0.138  11.675   2.573  0.4906 -0.0771 -0.0530
   44MOL0     C 5839   0.085  11.569   2.498 -1.3194  0.4153  0.0013
   44MOL0     O 5840   0.111  11.576   2.363 -0.1486  0.1427 -0.3606
   44MOL0     C 5841   0.103  11.451   2.294  0.0320 -0.8530 -0.1563
   44MOL0     C 5842   0.110  11.464   2.144 -0.7984 -0.1645 -0.0228
   44MOL0     C 5843   0.161  11.335   2.077  0.2879  1.1685  0.4181
   44MOL0     C 5844   0.298  11.293   2.119 -1.2205  0.6345 -0.1348
   44MOL0     C 5845   0.368  11.198   2.017 -0.6939  0.6975  0.2857
   44MOL0     C 5846   0.525  11.148   2.032  0.0054  0.5390  0.6691
   44MOL0     C 5847   0.565  11.062   1.918 -0.2189  0.5872  0.7422
   44MOL0     C 5848   0.683  10.974   1.957 -0.2467  0.6373  0.3846
   44MOL0    Cl 5849   0.754  10.904   1.804  0.1286  0.2392  0.4032
   44MOL0     C 5850  -0.012  11.488   2.559 -0.5432  0.7756 -0.5617
   44MOL0     C 5851  -0.035  11.498   2.701  0.1018  0.4499  1.4356
   44MOL0     O 5852  -0.208  11.608   2.934  0.3263  0.2489  0.3478
   44MOL0     C 5853   0.038  11.483   3.162  0.0272 -0.7704  0.3228
   44MOL0     C 5854   0.076  11.484   3.295  0.4716 -0.2861 -0.2436
   44MOL0     N 5855   0.538  11.249   3.850  0.0396 -0.0790  0.2251
   44MOL0     N 5856   0.610  11.169   3.907  0.1444  0.1484 -0.0435
   44MOL0     C 5857   1.015  11.034   4.953  0.4090 -1.3432 -1.0687
   44MOL0     C 5858   0.974  11.059   5.082 -0.5214  0.9101  0.0255
   44MOL0     C 5859   1.031  11.140   5.542 -0.0422  1.2700  0.3002
   44MOL0     C 5860   0.891  11.156   5.547  0.4603  0.4143  0.6711
   44MOL0     C 5861   0.830  11.147   5.669  0.4966  0.0752  0.2441
   44MOL0     C 5862   0.901  11.140   5.790 -0.3791 -1.0606 -0.0085
   44MOL0     O 5863   0.835  11.130   5.912  0.7571  0.3157 -0.1263
   44MOL0     C 5864   0.753  11.243   5.951  0.7906 -0.4108 -0.8410
   44MOL0     C 5865   0.825  11.352   6.044  0.6759  0.4428  0.0198
   44MOL0     C 5866   0.816  11.309   6.187  1.1527 -0.1485 -0.0461
   44MOL0     C 5867   0.893  11.191   6.242  0.2779 -0.1608  0.4739
   44MOL0     C 5868   1.039  11.200   6.222  0.0685 -0.3621  0.7051
   44MOL0     C 5869   1.155  11.221   6.224 -0.3365 -0.0381  0.9406
   44MOL0     C 5870   1.038  11.141   5.793  0.7102  0.0956  0.1864
   44MOL0     C 5871   1.100  11.134   5.667  0.3910  0.2772  0.0480
   44MOL0     C 5872   1.249  11.126   5.674 -0.2006 -0.1456  0.1251
   44MOL0     H 5873   1.244  11.239   5.189 -1.4856  1.1056  1.3927
   44MOL0     H 5874   1.318  11.186   4.966 -1.5580  1.1630  0.0774
   44MOL0     H 5875   1.252  10.876   4.782  1.2787 -0.9808 -1.9986
   44MOL0     H 5876   1.093  10.887   4.736  0.9616 -0.1675  3.4750
   44MOL0     H 5877   1.211  10.855   4.515 -0.7931  0.5993 -0.7990
   44MOL0     H 5878   1.343  10.948   4.582  0.1581  1.2214 -0.1237
   44MOL0     H 5879   1.247  11.080   4.397  1.5935  0.3330  1.3883
   44MOL0     H 5880   1.190  11.155   4.553 -1.4273  1.8729 -1.3735
   44MOL0     H 5881   1.029  10.942   4.431  1.3263 -1.3215  2.4846
   44MOL0     H 5882   0.978  11.061   4.550  1.8113 -1.9215  2.5104
   44MOL0     H 5883   0.977  11.235   4.357  0.3488  0.4983 -0.0720
   44MOL0     H 5884   1.050  11.130   4.250  1.2548  0.6252  1.8062
   44MOL0     H 5885   0.852  10.965   4.261 -3.2055 -0.1475 -2.0596
   44MOL0     H 5886   0.785  11.065   4.398 -3.2827 -1.1500 -1.9561
   44MOL0     H 5887   0.837  11.176   4.119  0.2821  0.9008  0.4962
   44MOL0     H 5888   0.758  11.253   4.251  4.6459 -0.2561  0.3548
   44MOL0     H 5889   0.651  10.993   4.117  2.0761  0.6656  1.0447
   44MOL0     H 5890   0.571  11.092   4.241 -0.9390 -3.3331  0.7637
   44MOL0     H 5891   0.429  11.296   4.150 -0.9465  1.2095 -1.2504
   44MOL0     H 5892   0.293  11.441   3.970  0.7569  1.5153  0.9081
   44MOL0     H 5893   0.426  11.502   3.852  0.8712 -1.8046 -1.6262
   44MOL0     H 5894   0.341  11.373   3.684  2.0764  1.1268  2.0562
   44MOL0     H 5895   0.220  11.289   3.783  0.4141 -0.4520  0.3355
   44MOL0     H 5896   0.199  11.595   3.761 -0.9408  1.7844 -1.9070
   44MOL0     H 5897   0.074  11.473   3.779  1.4017 -0.2047  1.5820
   44MOL0     H 5898   0.173  11.400   3.539  0.1946 -0.2396  0.4896
   44MOL0     H 5899   0.218  11.580   3.543  0.2773 -1.0546  1.5040
   44MOL0     H 5900  -0.214  11.590   3.430 -1.2538  0.8843 -1.9575
   44MOL0     H 5901  -0.270  11.604   3.180 -0.8112 -0.3455 -0.3899
   44MOL0     H 5902   0.154  11.767   2.770 -1.9507  1.8928 -1.2904
   44MOL0     H 5903   0.208  11.741   2.523  0.9300  1.7782  2.8214
   44MOL0     H 5904   0.179  11.383   2.335  1.1888 -0.7323 -1.9761
   44MOL0     H 5905   0.006  11.408   2.319 -1.9149  2.3885 -1.4108
   44MOL0     H 5906   0.014  11.482   2.095  0.1113 -0.1097 -1.8414
   44MOL0     H 5907   0.170  11.554   2.127 -1.5444  0.4639  0.6067
   44MOL0     H 5908   0.090  11.252   2.088  0.1560  1.4069  1.5002
   44MOL0     H 5909   0.167  11.364   1.972  4.5199 -0.9548 -0.1453
   44MOL0     H 5910   0.304  11.239   2.214  0.7226  0.4461 -0.3181
   44MOL0     H 5911   0.354  11.386   2.105 -1.1808  0.5171 -0.7629
   44MOL0     H 5912   0.358  11.256   1.925  0.7087 -0.2328 -0.4939
   44MOL0     H 5913   0.298  11.117   1.997 -1.2336  0.3741  3.0253
   44MOL0     H 5914   0.599  11.228   2.025  2.4907 -1.6637  0.2473
   44MOL0     H 5915   0.537  11.103   2.131 -1.1508 -0.2754  0.4656
   44MOL0     H 5916   0.595  11.133   1.839 -2.1029  0.5572 -0.0602
   44MOL0     H 5917   0.478  11.007   1.882  0.5483 -0.2793  0.1595
   44MOL0     H 5918   0.751  11.042   2.009  1.2580 -0.7037  0.2619
   44MOL0     H 5919   0.664  10.895   2.031 -1.6794  0.0989 -0.5165
   44MOL0     H 5920  -0.079  11.416   2.513 -0.9307 -0.5551  1.9067
   44MOL0     H 5921  -0.101  11.424   2.744  0.8862 -1.3609 -0.3241
   44MOL0     H 5922   0.108  11.457   3.082  0.0927  0.5994 -0.0861
   44MOL0     H 5923   0.177  11.455   3.322  0.3945 -0.0461  0.3170
   44MOL0     H 5924   0.944  10.978   4.892 -2.5833  1.6805 -0.6613
   44MOL0     H 5925   0.871  11.038   5.107 -0.8076  0.4890 -1.3878
   44MOL0     H 5926   0.826  11.160   5.460 -1.1926 -0.1107  1.8292
   44MOL0     H 5927   0.723  11.135   5.686  0.6862 -0.4557  1.1743
   44MOL0     H 5928   0.659  11.209   5.997 -0.0451  0.9137 -1.5429
   44MOL0     H 5929   0.709  11.301   5.870 -0.0266  3.1052  1.8479
   44MOL0     H 5930   0.770  11.444   6.023 -1.5024 -0.2107  2.4050
   44MOL0     H 5931   0.933  11.357   6.025  1.8398 -6.2876  1.9109
   44MOL0     H 5932   0.712  11.293   6.214  0.2194  4.0294 -0.5986
   44MOL0     H 5933   0.854  11.391   6.248  0.9567 -1.6153  2.1792
   44MOL0     H 5934   0.893  11.184   6.351  3.2535 -0.2455  0.5483
   44MOL0     H 5935   0.844  11.100   6.207  1.5311 -0.1978 -1.2965
   44MOL0     H 5936   1.261  11.230   6.212 -0.7205  2.2653 -1.9552
   44MOL0     H 5937   1.083  11.132   5.891  0.9013  1.7903  0.2800
   44MOL0     H 5938   1.292  11.053   5.604 -0.1827  2.9043 -3.3900
   44MOL0     H 5939   1.286  11.227   5.654 -3.9674  1.2961 -0.5373
   44MOL0     H 5940   1.287  11.106   5.774  0.7267  2.4540  0.3582
   45MOL0     O 5941   8.318   8.838   2.222  0.5358  0.6588  0.0508
   45MOL0     C 5942   8.382   8.764   2.146 -0.1612  0.3604 -0.5519
   45MOL0     O 5943   8.508   8.765   2.137 -1.2426  0.4432 -0.4804
   45MOL0     C 5944   8.565   8.890   2.158 -0.2820 -0.1174  0.1062
   45MOL0     C 5945   8.526   9.003   2.079 -0.0829 -0.3158  0.2114
   45MOL0     C 5946   8.579   9.130   2.097  0.6938  0.8220 -0.9207
   45MOL0     C 5947   8.670   9.154   2.195 -0.5749 -0.8701  0.5114
   45MOL0     O 5948   8.719   9.279   2.231 -0.9130  0.8519  0.4868
   45MOL0     C 5949   8.731   9.380   2.134 -0.6023 -0.3971  0.4109
   45MOL0     C 5950   8.776   9.512   2.200  0.1521  0.9041  0.1424
   45MOL0     C 5951   8.648   9.573   2.261  0.2913  0.2886  0.0346
   45MOL0     C 5952   8.690   9.707   2.335  0.7589  0.0343  0.1656
   45MOL0     C 5953   8.582   9.813   2.362  1.0500  1.0814 -0.6122
   45MOL0     C 5954   8.479   9.770   2.458 -0.7675  0.3977 -0.4714
   45MOL0     C 5955   8.537   9.775   2.589 -0.3975 -0.9546 -1.0954
   45MOL0     C 5956   8.522   9.899   2.678  0.4334  0.4139 -0.0015
   45MOL0     N 5957   8.636   9.899   2.770  0.3723 -0.5247 -0.4603
   45MOL0     C 5958   8.673   9.801   2.858  0.1328  0.0508 -0.0163
   45MOL0     C 5959   8.762   9.857   2.939  0.2425  0.5085 -0.3472
   45MOL0     C 5960   8.829   9.789   3.046  0.4309 -0.3578  0.9118
   45MOL0     C 5961   8.753   9.781   3.180  0.7315  0.0703  0.6881
   45MOL0     C 5962   8.841   9.855   3.281  0.2164 -0.9700  0.1948
   45MOL0     C 5963   8.874  10.006   3.253  1.1261 -0.2968 -0.1362
   45MOL0     O 5964   8.764  10.076   3.310  0.1306  0.0769 -0.5359
   45MOL0     C 5965   8.780  10.208   3.285  0.6397 -0.1307  0.7489
   45MOL0     C 5966   8.731  10.249   3.155  0.4096  0.2788  0.2538
   45MOL0     C 5967   8.764  10.384   3.108 -0.5222  1.0432 -0.3731
   45MOL0     C 5968   8.850  10.468   3.181  0.5305 -0.5225 -0.7683
   45MOL0     C 5969   8.903  10.593   3.120 -0.3512 -0.7078  0.1228
   45MOL0     O 5970   8.816  10.683   3.057  0.1183 -0.1257 -0.1278
   45MOL0     C 5971   8.860  10.816   3.038 -0.6893 -0.3082  0.3323
   45MOL0     C 5972   8.921  10.892   3.144  0.0831  0.1403  0.5379
   45MOL0     C 5973   8.953  11.027   3.121 -0.2665 -0.3247 -0.7292
   45MOL0     C 5974   8.930  11.092   2.998 -0.3048  0.0034 -0.1421
   45MOL0     O 5975   8.940  11.222   2.971 -0.5331 -0.4790  0.0118
   45MOL0     C 5976   8.932  11.310   3.079  0.4293 -0.1340  0.2751
   45MOL0     C 5977   8.952  11.456   3.036  0.7786  0.7795 -0.8925
   45MOL0     C 5978   8.823  11.533   2.998  0.4963 -0.1425  0.1914
   45MOL0     C 5979   8.710  11.520   3.102 -0.1220  0.5571 -0.2785
   45MOL0     C 5980   8.620  11.644   3.111 -0.0235  0.1028 -0.3965
   45MOL0     C 5981   8.550  11.691   2.978  0.4513 -1.0690 -0.9842
   45MOL0     C 5982   8.481  11.575   2.895  0.2040  0.4898  0.1303
   45MOL0     C 5983   8.373  11.653   2.821 -0.8925 -0.2590 -0.4722
   45MOL0    Cl 5984   8.235  11.711   2.928 -0.1094  0.0565 -0.2445
   45MOL0     C 5985   8.889  11.003   2.891 -0.0546  0.0873 -0.2723
   45MOL0     C 5986   8.846  10.872   2.916  0.7215 -0.7195  0.2258
   45MOL0     O 5987   9.023  10.617   3.140  0.2463 -0.8198  0.0854
   45MOL0     C 5988   8.894  10.422   3.309  0.2963  0.3128  0.5789
   45MOL0     C 5989   8.860  10.297   3.366 -0.1578 -0.3920  0.0411
   45MOL0     N 5990   8.789   9.983   2.892  0.1922 -0.6500  0.1845
   45MOL0     N 5991   8.709  10.009   2.788 -0.8882 -0.2272 -0.0443
   45MOL0     C 5992   8.713   9.046   2.270 -0.2000 -0.3468  0.2836
   45MOL0     C 5993   8.661   8.916   2.247  0.5372 -0.3967  0.8330
   45MOL0     C 5994   8.311   8.649   2.092  0.6739  0.4123  0.9241
   45MOL0     C 5995   8.244   8.568   2.184 -0.4346 -0.0423  0.5443
   45MOL0     C 5996   8.174   8.453   2.142 -0.7738  0.6078  0.1304
   45MOL0     C 5997   8.161   8.419   2.003 -0.3548  0.7697 -0.8089
   45MOL0     O 5998   8.109   8.297   1.965  0.1029 -0.0670 -0.4482
   45MOL0     C 5999   7.982   8.321   1.899  0.2526  1.3198  0.5216
   45MOL0     C 6000   7.888   8.198   1.889  0.1352 -0.3764  0.4254
   45MOL0     C 6001   7.775   8.228   1.796  0.9584  0.2113 -0.3345
   45MOL0     C 6002   7.789   8.285   1.661 -0.7604  0.1242  0.3701
   45MOL0     C 6003   7.874   8.191   1.582  0.6602 -0.5533  0.3552
   45MOL0     C 6004   7.949   8.116   1.529  0.6376 -0.7302  1.1480
   45MOL0     C 6005   8.222   8.505   1.910  0.2780  0.2087 -0.6223
   45MOL0     C 6006   8.300   8.613   1.952 -0.5220 -0.3635  0.2101
   45MOL0     C 6007   8.379   8.691   1.848 -0.5918  0.1962  0.3126
   45MOL0     H 6008   8.459   8.985   1.996 -0.9262 -0.7681  0.9781
   45MOL0     H 6009   8.543   9.208   2.030 -1.3007 -0.0171 -0.8979
   45MOL0     H 6010   8.822   9.354   2.080 -0.6246 -0.2080  0.2828
   45MOL0     H 6011   8.651   9.392   2.061  1.7979 -2.5560 -2.8538
   45MOL0     H 6012   8.816   9.577   2.122 -0.4192 -1.0587 -1.8716
   45MOL0     H 6013   8.845   9.490   2.282  0.1098  0.8604  0.1661
   45MOL0     H 6014   8.602   9.502   2.329  2.3989 -0.9012  0.2777
   45MOL0     H 6015   8.575   9.596   2.182 -0.1351 -1.0922  0.0047
   45MOL0     H 6016   8.748   9.677   2.423 -1.2032 -0.5946  1.2934
   45MOL0     H 6017   8.755   9.753   2.259  2.3674 -2.2162  0.0755
   45MOL0     H 6018   8.627   9.910   2.387  1.5327  0.8787 -0.6811
   45MOL0     H 6019   8.528   9.821   2.267  0.9151 -0.0353 -0.6431
   45MOL0     H 6020   8.395   9.840   2.443 -0.5681  0.3332 -2.1586
   45MOL0     H 6021   8.458   9.668   2.424  0.9313  0.2398 -1.1503
   45MOL0     H 6022   8.639   9.738   2.601 -0.6268 -1.1461  0.5832
   45MOL0     H 6023   8.485   9.697   2.646  0.5873 -1.9575 -1.5250
   45MOL0     H 6024   8.518   9.988   2.615  0.0870  3.7762  4.2924
   45MOL0     H 6025   8.432   9.894   2.740  1.5675  0.4118  1.6895
   45MOL0     H 6026   8.638   9.700   2.841  2.9529 -0.5277 -3.5269
   45MOL0     H 6027   8.851   9.690   3.004 -1.5339 -0.4022 -0.1224
   45MOL0     H 6028   8.921   9.847   3.050 -1.0663  2.0978  2.0079
   45MOL0     H 6029   8.653   9.823   3.170 -0.6836 -3.4813 -4.0129
   45MOL0     H 6030   8.740   9.677   3.209 -0.4913  0.6349  2.2789
   45MOL0     H 6031   8.939   9.811   3.303  1.0255  0.9974  0.7609
   45MOL0     H 6032   8.786   9.839   3.374  0.3580  0.6623  0.5795
   45MOL0     H 6033   8.897  10.023   3.148 -1.6133 -1.8396 -1.0902
   45MOL0     H 6034   8.964  10.028   3.311  0.2251  1.1760  0.7861
   45MOL0     H 6035   8.682  10.177   3.091 -1.0216  1.1022  0.3890
   45MOL0     H 6036   8.728  10.422   3.013 -0.5032 -1.0109 -1.2591
   45MOL0     H 6037   8.949  10.845   3.238  0.8277 -1.0230 -0.2285
   45MOL0     H 6038   9.006  11.077   3.202 -0.8700  0.4745 -0.8129
   45MOL0     H 6039   8.843  11.302   3.142 -0.0888  1.6806 -0.1619
   45MOL0     H 6040   9.022  11.287   3.137  0.9893  2.1861  0.4390
   45MOL0     H 6041   8.989  11.509   3.124 -1.8525 -0.5120  1.1461
   45MOL0     H 6042   9.025  11.462   2.955  2.3179  1.8067  0.5063
   45MOL0     H 6043   8.857  11.636   2.984 -0.8562  0.2582 -0.3563
   45MOL0     H 6044   8.772  11.496   2.908  0.3071  1.0473 -0.2091
   45MOL0     H 6045   8.754  11.516   3.202 -2.3200  1.1527  0.7678
   45MOL0     H 6046   8.649  11.431   3.084 -2.0449  1.8084 -0.2322
   45MOL0     H 6047   8.684  11.722   3.152  0.5047 -0.8838  0.7430
   45MOL0     H 6048   8.552  11.615   3.192  1.0341 -1.6305 -0.0753
   45MOL0     H 6049   8.483  11.771   3.010  0.6288 -0.9167 -0.9905
   45MOL0     H 6050   8.617  11.744   2.910  1.4697 -2.1705 -0.8865
   45MOL0     H 6051   8.440  11.499   2.962 -1.0279 -0.5532 -1.7417
   45MOL0     H 6052   8.541  11.524   2.820  1.2213 -1.1497  1.9803
   45MOL0     H 6053   8.410  11.745   2.773  1.5799 -0.0281  1.6897
   45MOL0     H 6054   8.320  11.587   2.752  2.6306 -3.2652 -0.5849
   45MOL0     H 6055   8.866  11.033   2.789 -3.7701 -0.0525  0.3860
   45MOL0     H 6056   8.806  10.820   2.831 -1.5970  0.8336  0.2932
   45MOL0     H 6057   8.953  10.493   3.368 -0.0843  1.0139  0.1299
   45MOL0     H 6058   8.910  10.273   3.459 -0.1392 -0.1667  0.0905
   45MOL0     H 6059   8.761   9.053   2.367 -0.1408  0.1433  0.2194
   45MOL0     H 6060   8.687   8.834   2.312  0.1328 -3.4640 -2.5296
   45MOL0     H 6061   8.251   8.577   2.292 -1.2089  2.6085  0.4623
   45MOL0     H 6062   8.125   8.378   2.203 -1.9426  1.9213  0.8658
   45MOL0     H 6063   8.000   8.364   1.800  0.5243 -2.4658 -1.2649
   45MOL0     H 6064   7.916   8.383   1.960  0.5527  0.6248  1.5843
   45MOL0     H 6065   7.853   8.172   1.990 -0.7712 -2.3762 -0.3603
   45MOL0     H 6066   7.950   8.111   1.864  2.3270  0.2249  3.2192
   45MOL0     H 6067   7.701   8.285   1.854  1.5063 -0.1557  0.7495
   45MOL0     H 6068   7.717   8.136   1.782  1.6829 -0.5871  1.4930
   45MOL0     H 6069   7.689   8.297   1.618 -0.6148 -2.5782 -0.9293
   45MOL0     H 6070   7.841   8.381   1.658  2.2473 -1.3681 -0.4056
   45MOL0     H 6071   8.010   8.044   1.477  1.8733  0.7003  0.5478
   45MOL0     H 6072   8.229   8.468   1.809  4.1394 -2.6326  0.4688
   45MOL0     H 6073   8.484   8.703   1.878 -0.5071  0.1992  0.0110
   45MOL0     H 6074   8.375   8.630   1.758  0.3331  2.4864 -1.3736
   45MOL0     H 6075   8.316   8.771   1.808 -0.4957 -0.8339 -2.0624
   46MOL0     O 6076   1.795   7.171   2.060  0.1810  0.7016  0.1005
   46MOL0     C 6077   1.890   7.209   2.129  0.1396  0.0753 -0.6360
   46MOL0     O 6078   2.000   7.288   2.079  0.9348 -0.2348 -1.3006
   46MOL0     C 6079   2.011   7.305   1.945 -0.0278  0.3989 -1.0453
   46MOL0     C 6080   2.128   7.264   1.885 -0.5437  0.4336  0.2364
   46MOL0     C 6081   2.149   7.268   1.748 -0.0816  0.7307 -0.6077
   46MOL0     C 6082   2.067   7.339   1.676 -0.5403 -0.0611  0.2709
   46MOL0     O 6083   2.076   7.368   1.546  0.3303 -0.2470  0.2418
   46MOL0     C 6084   2.184   7.456   1.519 -0.4237  0.4521  0.3338
   46MOL0     C 6085   2.142   7.601   1.543 -0.2851 -0.8488  0.2191
   46MOL0     C 6086   2.040   7.669   1.450  0.2835 -0.9282  1.2805
   46MOL0     C 6087   2.048   7.633   1.302 -0.2592 -0.0172 -0.1730
   46MOL0     C 6088   1.974   7.745   1.228  1.6461  0.6931 -0.0044
   46MOL0     C 6089   1.988   7.722   1.080 -0.4217  0.7837  0.6789
   46MOL0     C 6090   1.905   7.818   0.997 -0.1690 -0.8433  0.0456
   46MOL0     C 6091   1.942   7.809   0.846 -0.3586 -0.1565 -0.1040
   46MOL0     N 6092   1.946   7.675   0.788  1.1345  0.5165  0.5427
   46MOL0     C 6093   1.855   7.571   0.801 -0.3971  1.2985 -1.0476
   46MOL0     C 6094   1.918   7.448   0.775 -0.1191 -0.1886 -0.6089
   46MOL0     C 6095   1.854   7.308   0.749  0.6855 -0.7106  0.7288
   46MOL0     C 6096   1.933   7.185   0.782 -0.6437  0.5327 -0.5460
   46MOL0     C 6097   1.971   7.182   0.931 -0.6679  0.5318 -0.6488
   46MOL0     C 6098   2.050   7.053   0.964  0.2470  0.4400  0.2643
   46MOL0     O 6099   2.169   7.069   0.886  0.0791  0.4210  1.1211
   46MOL0     C 6100   2.248   6.953   0.873  0.4537  0.0364 -0.3724
   46MOL0     C 6101   2.335   6.920   0.978  1.5371  0.3613 -0.1775
   46MOL0     C 6102   2.390   6.792   0.972 -0.5354  0.2057 -0.2307
   46MOL0     C 6103   2.369   6.707   0.863 -0.3820 -0.2470  0.0548
   46MOL0     C 6104   2.418   6.567   0.863 -0.1014 -0.8012 -1.0979
   46MOL0     O 6105   2.462   6.514   0.984  0.6464 -0.2475  0.1430
   46MOL0     C 6106   2.543   6.401   0.979  0.4420 -0.3933 -0.3071
   46MOL0     C 6107   2.672   6.417   0.940 -0.7665 -0.0062 -0.4881
   46MOL0     C 6108   2.756   6.311   0.922 -0.6462 -0.4886 -0.2445
   46MOL0     C 6109   2.722   6.188   0.952  0.7213 -0.5169  0.3133
   46MOL0     O 6110   2.825   6.093   0.944 -0.5129  0.0755 -0.1327
   46MOL0     C 6111   2.781   5.957   0.952 -0.4667  1.2166 -0.4572
   46MOL0     C 6112   2.912   5.867   0.945 -0.4289 -0.3299  0.4296
   46MOL0     C 6113   2.884   5.728   0.993 -0.6067 -0.0219 -0.4626
   46MOL0     C 6114   3.024   5.656   0.994 -0.9246 -1.2940 -0.7874
   46MOL0     C 6115   3.010   5.520   1.072  0.4220 -0.7488 -0.7874
   46MOL0     C 6116   3.029   5.527   1.223 -0.2518 -0.1869 -0.4066
   46MOL0     C 6117   3.026   5.376   1.272  0.2896 -0.3218 -1.1333
   46MOL0     C 6118   3.078   5.352   1.412 -0.9555  0.3825 -0.0365
   46MOL0    Cl 6119   3.069   5.170   1.423  0.1082 -0.0832  0.0953
   46MOL0     C 6120   2.586   6.163   0.986  0.6919 -0.3415 -0.3007
   46MOL0     C 6121   2.501   6.276   1.010 -0.0667  0.3651 -0.4087
   46MOL0     O 6122   2.414   6.507   0.753 -0.3706 -0.9157  0.0012
   46MOL0     C 6123   2.288   6.753   0.767  0.5523 -0.2248 -0.5991
   46MOL0     C 6124   2.221   6.875   0.766 -0.0577  0.3098 -0.0699
   46MOL0     N 6125   2.048   7.473   0.748 -0.5420 -0.1075 -0.8118
   46MOL0     N 6126   2.059   7.601   0.757 -1.1812  0.2432 -0.0809
   46MOL0     C 6127   1.949   7.389   1.730 -0.5033  0.4800  0.2293
   46MOL0     C 6128   1.921   7.371   1.866  0.1565 -0.6190  0.7428
   46MOL0     C 6129   1.901   7.183   2.284 -0.6497 -0.5481 -0.0128
   46MOL0     C 6130   2.040   7.160   2.322  0.1334 -0.2446  0.3313
   46MOL0     C 6131   2.068   7.142   2.463 -0.1286 -0.1813  0.0628
   46MOL0     C 6132   1.965   7.159   2.556 -0.1701 -0.5092 -0.5607
   46MOL0     O 6133   1.989   7.166   2.689 -0.2955 -0.2235 -0.1262
   46MOL0     C 6134   2.116   7.150   2.754  0.0586 -0.0194  0.9235
   46MOL0     C 6135   2.094   7.118   2.904  0.5162 -0.2480  0.3338
   46MOL0     C 6136   2.152   7.229   2.991  0.4427  0.1449 -0.6190
   46MOL0     C 6137   2.311   7.222   2.996 -0.1424 -0.0450 -0.0046
   46MOL0     C 6138   2.370   7.307   3.101  0.2840  0.6981 -1.0084
   46MOL0     C 6139   2.418   7.368   3.201 -0.0468  0.3493  0.4383
   46MOL0     C 6140   1.834   7.174   2.510  0.5850  0.3996  0.3445
   46MOL0     C 6141   1.800   7.177   2.374  0.0992 -1.2414 -0.3348
   46MOL0     C 6142   1.656   7.197   2.334  0.5749 -0.4684 -0.5793
   46MOL0     H 6143   2.213   7.219   1.936  1.8053  2.2542 -1.7949
   46MOL0     H 6144   2.247   7.230   1.721  0.1978 -0.7436  2.0670
   46MOL0     H 6145   2.275   7.428   1.574 -1.8345  0.3328  2.7123
   46MOL0     H 6146   2.215   7.444   1.414  0.8922  1.1658  0.6172
   46MOL0     H 6147   2.235   7.656   1.530 -1.2353  1.2094  1.5049
   46MOL0     H 6148   2.113   7.604   1.648  2.8417 -1.3213  1.1752
   46MOL0     H 6149   2.061   7.776   1.461 -0.7206  0.4845 -5.7432
   46MOL0     H 6150   1.943   7.635   1.486 -0.5693  1.8383  1.8283
   46MOL0     H 6151   2.153   7.621   1.275  0.5740  0.8395  2.3528
   46MOL0     H 6152   1.995   7.538   1.291 -3.3542  1.3080  1.8302
   46MOL0     H 6153   1.870   7.749   1.260  1.3797  0.7949 -0.8635
   46MOL0     H 6154   2.015   7.844   1.251 -0.1627  1.5420 -0.2908
   46MOL0     H 6155   2.092   7.749   1.058 -0.1959 -1.2644 -1.1880
   46MOL0     H 6156   1.960   7.621   1.048 -0.9704  0.7446  1.2660
   46MOL0     H 6157   1.928   7.921   1.026 -2.1031  0.5106 -2.7392
   46MOL0     H 6158   1.797   7.798   1.002 -0.6084 -0.6537 -4.3041
   46MOL0     H 6159   1.879   7.880   0.791 -0.6722 -0.4688 -0.1488
   46MOL0     H 6160   2.045   7.842   0.828  0.6467 -0.8239  3.6378
   46MOL0     H 6161   1.748   7.586   0.816 -0.6320 -0.3179 -0.8740
   46MOL0     H 6162   1.755   7.292   0.792  1.5367 -5.1249  1.5145
   46MOL0     H 6163   1.834   7.304   0.641  3.1374 -0.2594  0.2097
   46MOL0     H 6164   1.868   7.101   0.759 -0.9333 -0.3497  2.8520
   46MOL0     H 6165   2.021   7.185   0.717 -2.2121  0.9692 -2.7804
   46MOL0     H 6166   1.882   7.201   0.992 -0.8300 -0.4865 -0.5439
   46MOL0     H 6167   2.036   7.266   0.956  1.9826 -1.3223 -0.8901
   46MOL0     H 6168   1.998   6.965   0.926 -1.1744  1.6971 -0.8137
   46MOL0     H 6169   2.066   7.058   1.072  4.2685 -0.0642 -0.1345
   46MOL0     H 6170   2.370   6.988   1.055 -0.4740  2.0088 -0.6130
   46MOL0     H 6171   2.456   6.764   1.054 -1.7297 -0.2477  0.5947
   46MOL0     H 6172   2.700   6.519   0.915 -2.6336 -0.0856 -3.4010
   46MOL0     H 6173   2.856   6.350   0.904 -1.2690  0.9315 -0.8135
   46MOL0     H 6174   2.730   5.941   1.047  0.7996 -0.2576  0.0245
   46MOL0     H 6175   2.714   5.936   0.868  1.5639 -1.9928 -1.4542
   46MOL0     H 6176   2.941   5.867   0.839  1.2454  1.8003  0.8096
   46MOL0     H 6177   2.991   5.924   0.995  0.5299  0.7196 -2.1141
   46MOL0     H 6178   2.840   5.721   1.093 -3.0580  1.8751 -1.3171
   46MOL0     H 6179   2.827   5.679   0.914  1.3490 -0.4997 -1.6392
   46MOL0     H 6180   3.094   5.720   1.048 -1.9881  1.4007 -2.4125
   46MOL0     H 6181   3.055   5.642   0.891 -2.1792  0.2250 -1.4156
   46MOL0     H 6182   3.089   5.458   1.028  1.0009 -0.5208 -0.0947
   46MOL0     H 6183   2.916   5.468   1.052  1.0153 -2.0956 -0.2441
   46MOL0     H 6184   3.122   5.576   1.254 -1.7783  2.3751  0.4424
   46MOL0     H 6185   2.946   5.585   1.264 -0.7026  0.6503 -2.3842
   46MOL0     H 6186   3.080   5.304   1.209  2.2339 -0.1229  0.2015
   46MOL0     H 6187   2.919   5.356   1.274  0.3035 -0.4905  1.1909
   46MOL0     H 6188   3.182   5.388   1.408 -1.1184  0.8441 -4.0483
   46MOL0     H 6189   3.015   5.397   1.489 -1.2440  1.1889 -0.7334
   46MOL0     H 6190   2.543   6.066   1.009 -3.2490  0.7113 -2.2879
   46MOL0     H 6191   2.403   6.257   1.055  1.4909 -4.2028  1.7152
   46MOL0     H 6192   2.268   6.687   0.683 -3.0806 -0.9323  0.6205
   46MOL0     H 6193   2.155   6.901   0.684 -0.3101 -3.0054 -1.0675
   46MOL0     H 6194   1.883   7.446   1.665  1.7904  2.5424 -0.4190
   46MOL0     H 6195   1.825   7.407   1.902 -1.9796 -1.6696 -3.2806
   46MOL0     H 6196   2.126   7.151   2.256 -1.7651  3.5095 -3.1025
   46MOL0     H 6197   2.167   7.119   2.502  0.7112  0.5520 -1.5270
   46MOL0     H 6198   2.174   7.241   2.735  0.1180 -0.2611 -0.0858
   46MOL0     H 6199   2.172   7.068   2.709  0.9059  0.6813  0.6771
   46MOL0     H 6200   2.141   7.021   2.922  2.2186  0.1813 -1.5396
   46MOL0     H 6201   1.986   7.115   2.926  0.3151  0.0855 -0.5630
   46MOL0     H 6202   2.102   7.231   3.088  0.0658 -0.6855 -0.7875
   46MOL0     H 6203   2.103   7.315   2.944  0.1741 -2.4815 -5.8772
   46MOL0     H 6204   2.354   7.123   3.012  1.5215 -0.0916 -3.7755
   46MOL0     H 6205   2.354   7.267   2.906 -2.9115  2.1848 -0.3735
   46MOL0     H 6206   2.467   7.421   3.280  2.8289 -1.3215 -0.0750
   46MOL0     H 6207   1.745   7.186   2.572 -0.4185  0.1293 -1.0004
   46MOL0     H 6208   1.627   7.118   2.264  1.1582 -0.2268 -1.1104
   46MOL0     H 6209   1.586   7.227   2.411  3.6758  1.4424  1.7463
   46MOL0     H 6210   1.647   7.286   2.271 -5.7452 -0.6135 -0.5050
   47MOL0     O 6211   7.226   8.060   6.279 -0.2687  0.3091  0.3637
   47MOL0     C 6212   7.337   8.029   6.325 -0.5212  0.3691  0.6919
   47MOL0     O 6213   7.397   8.077   6.439  0.1231 -0.0318  0.3371
   47MOL0     C 6214   7.342   8.174   6.524  0.3466 -0.6161  0.5437
   47MOL0     C 6215   7.326   8.308   6.496 -1.2051  0.9886 -0.6122
   47MOL0     C 6216   7.258   8.388   6.593  0.2505  0.2533 -0.6663
   47MOL0     C 6217   7.221   8.346   6.721  0.0163  0.4308 -0.4336
   47MOL0     O 6218   7.158   8.423   6.815 -0.2717 -0.2427  0.7375
   47MOL0     C 6219   7.182   8.561   6.831  0.3806 -0.8199 -0.1301
   47MOL0     C 6220   7.144   8.600   6.971  0.1270 -0.0916  0.6147
   47MOL0     C 6221   7.056   8.729   6.970  0.4257  0.2294 -0.9600
   47MOL0     C 6222   6.998   8.752   7.111  0.4289 -0.3367 -0.5505
   47MOL0     C 6223   6.924   8.890   7.123 -0.9245  0.4374  0.8823
   47MOL0     C 6224   6.816   8.898   7.011  0.2256 -0.4671 -0.3487
   47MOL0     C 6225   6.700   8.794   7.024 -0.2548 -0.1584 -0.3818
   47MOL0     C 6226   6.566   8.796   6.946 -0.2395 -0.6630  0.9967
   47MOL0     N 6227   6.601   8.784   6.804  0.7532 -0.0249 -0.2392
   47MOL0     C 6228   6.688   8.701   6.734  0.2109 -0.8684 -0.1515
   47MOL0     C 6229   6.697   8.747   6.607  0.3281 -0.8480  0.7029
   47MOL0     C 6230   6.765   8.669   6.491  0.3279  1.0583  0.3564
   47MOL0     C 6231   6.919   8.664   6.502  0.6284  0.1132  0.5105
   47MOL0     C 6232   6.990   8.622   6.371  0.6758 -0.2487  0.2310
   47MOL0     C 6233   6.960   8.474   6.329  0.1974  0.5251  0.1720
   47MOL0     O 6234   6.821   8.451   6.294  0.6907  0.0765 -0.2344
   47MOL0     C 6235   6.788   8.316   6.267 -0.0977  0.4686  0.0457
   47MOL0     C 6236   6.651   8.305   6.232  0.2923 -0.3845 -0.1936
   47MOL0     C 6237   6.606   8.172   6.209  0.4630  0.4863 -0.0504
   47MOL0     C 6238   6.682   8.058   6.220 -0.0737  0.0770  0.0058
   47MOL0     C 6239   6.618   7.932   6.190 -0.9614  0.1639  0.6490
   47MOL0     O 6240   6.563   7.914   6.057 -0.4712 -0.0989 -0.4031
   47MOL0     C 6241   6.524   7.794   6.012 -0.8077  0.3497 -0.2905
   47MOL0     C 6242   6.417   7.720   6.068  0.3085  0.6592 -0.6177
   47MOL0     C 6243   6.368   7.596   6.006 -0.1868 -0.0320 -0.4882
   47MOL0     C 6244   6.436   7.549   5.893  0.1578  0.2101  0.5238
   47MOL0     O 6245   6.400   7.423   5.857 -0.6274 -0.2106  0.6433
   47MOL0     C 6246   6.456   7.364   5.739  0.5113 -0.1485  0.5813
   47MOL0     C 6247   6.400   7.429   5.615 -1.0528  0.3750  0.3454
   47MOL0     C 6248   6.263   7.375   5.561  0.2906 -0.6825  0.8058
   47MOL0     C 6249   6.257   7.224   5.547 -0.6873 -1.7004  0.0644
   47MOL0     C 6250   6.152   7.172   5.456  0.6998 -0.8063  0.7163
   47MOL0     C 6251   6.168   7.207   5.304  0.4718  0.5297  0.9118
   47MOL0     C 6252   6.072   7.123   5.222 -0.7304  0.2358 -0.6171
   47MOL0     C 6253   6.092   7.148   5.075  0.6329 -0.9159  0.0444
   47MOL0    Cl 6254   6.033   7.018   4.982 -0.2245 -0.0179 -0.3414
   47MOL0     C 6255   6.530   7.629   5.828 -0.1071  0.7703 -0.5433
   47MOL0     C 6256   6.573   7.747   5.890 -0.3032  0.1528 -0.0200
   47MOL0     O 6257   6.638   7.837   6.262  0.4207 -0.6775  0.2117
   47MOL0     C 6258   6.813   8.080   6.256  0.1605  0.0018 -0.8449
   47MOL0     C 6259   6.871   8.204   6.273 -0.8889 -0.5158 -0.5637
   47MOL0     N 6260   6.630   8.866   6.603  0.3943 -0.5326  0.6439
   47MOL0     N 6261   6.578   8.888   6.713 -0.1073  0.5933 -0.5399
   47MOL0     C 6262   7.242   8.210   6.760 -0.8236  0.6781  0.8102
   47MOL0     C 6263   7.306   8.125   6.660 -0.1737 -0.0267  0.6877
   47MOL0     C 6264   7.400   7.909   6.250 -0.2412  0.2837  0.5137
   47MOL0     C 6265   7.514   7.850   6.311 -0.4622  0.2942 -0.1271
   47MOL0     C 6266   7.579   7.733   6.259  0.5005  0.1641 -0.3481
   47MOL0     C 6267   7.540   7.677   6.138 -0.0487 -0.1483 -0.2143
   47MOL0     O 6268   7.612   7.582   6.074 -0.8882  0.2704 -0.4243
   47MOL0     C 6269   7.717   7.522   6.147 -1.7514  0.3332  0.1841
   47MOL0     C 6270   7.778   7.413   6.073  0.0680 -0.5925  0.1237
   47MOL0     C 6271   7.682   7.303   6.039 -0.0280  0.1082 -0.1104
   47MOL0     C 6272   7.751   7.185   5.973 -0.4577 -0.1433  0.4077
   47MOL0     C 6273   7.760   7.208   5.831  0.6663  0.1293  0.7227
   47MOL0     C 6274   7.760   7.234   5.710 -0.3582  0.2065  0.0431
   47MOL0     C 6275   7.442   7.745   6.067  0.0273 -0.4765 -0.0208
   47MOL0     C 6276   7.368   7.857   6.123  0.0480 -0.5745  0.9103
   47MOL0     C 6277   7.260   7.910   6.035  0.8652 -0.1164 -0.1187
   47MOL0     H 6278   7.350   8.342   6.395  0.8007 -0.3882 -0.6652
   47MOL0     H 6279   7.256   8.491   6.561 -1.8945 -0.2533 -2.3366
   47MOL0     H 6280   7.289   8.584   6.831  0.5247 -1.3055 -2.2908
   47MOL0     H 6281   7.123   8.616   6.758  0.8083 -1.2441 -0.7994
   47MOL0     H 6282   7.228   8.623   7.037 -1.4926  0.5481  2.5640
   47MOL0     H 6283   7.084   8.519   7.012 -0.8973  0.2428 -0.1675
   47MOL0     H 6284   6.972   8.710   6.903  1.2601 -0.1025 -1.9478
   47MOL0     H 6285   7.121   8.809   6.933 -0.4200  0.3769 -2.1664
   47MOL0     H 6286   6.940   8.664   7.138  0.4214 -0.5438 -1.2233
   47MOL0     H 6287   7.080   8.748   7.183 -0.4741  0.5351  0.5752
   47MOL0     H 6288   6.861   8.902   7.212 -3.8504  0.6639 -1.0913
   47MOL0     H 6289   6.995   8.972   7.113 -0.8087  0.3838  1.2518
   47MOL0     H 6290   6.772   8.996   7.029  0.3424 -0.7811  1.8921
   47MOL0     H 6291   6.854   8.889   6.908  1.2218 -4.5735  0.1918
   47MOL0     H 6292   6.684   8.766   7.129 -4.2368 -4.1555 -1.7444
   47MOL0     H 6293   6.753   8.707   6.983  0.7981  0.5380 -0.5333
   47MOL0     H 6294   6.509   8.711   6.985  1.9515 -1.8345  1.8597
   47MOL0     H 6295   6.503   8.882   6.970  0.4207 -0.5823  2.6141
   47MOL0     H 6296   6.725   8.605   6.768  3.9853  0.4176 -0.1952
   47MOL0     H 6297   6.727   8.567   6.498  2.8866  0.1387  2.4440
   47MOL0     H 6298   6.726   8.712   6.398 -2.7324 -1.3240  0.3891
   47MOL0     H 6299   6.954   8.764   6.530 -0.0268  0.2052  1.0266
   47MOL0     H 6300   6.945   8.591   6.579 -0.7785 -0.7947  0.1493
   47MOL0     H 6301   7.097   8.638   6.388  0.4356  0.7314  0.9031
   47MOL0     H 6302   6.964   8.690   6.290 -1.4009 -3.0747 -1.6663
   47MOL0     H 6303   6.982   8.413   6.417 -3.4744  0.8303  1.4945
   47MOL0     H 6304   7.026   8.446   6.247 -1.9658 -0.5582 -1.2874
   47MOL0     H 6305   6.587   8.393   6.227  1.4546  1.0205  4.4049
   47MOL0     H 6306   6.501   8.166   6.183 -0.2810  0.8694  2.5836
   47MOL0     H 6307   6.375   7.750   6.164 -2.6693 -0.2048 -1.5272
   47MOL0     H 6308   6.281   7.541   6.040  1.4306 -3.7335 -1.8244
   47MOL0     H 6309   6.564   7.369   5.753  0.4978  0.1768  0.5809
   47MOL0     H 6310   6.426   7.259   5.739 -1.9277  0.4681 -0.9645
   47MOL0     H 6311   6.395   7.538   5.623 -2.1367  0.3866 -0.2634
   47MOL0     H 6312   6.471   7.402   5.536 -1.9818 -0.2527 -0.2998
   47MOL0     H 6313   6.177   7.409   5.619  0.4912 -1.3305  1.4941
   47MOL0     H 6314   6.258   7.422   5.463  0.5182  0.8698  1.5031
   47MOL0     H 6315   6.229   7.192   5.648  0.5260 -2.6252  0.1442
   47MOL0     H 6316   6.350   7.177   5.511 -1.1562 -1.1625 -1.9520
   47MOL0     H 6317   6.055   7.204   5.496  1.0185 -0.0731  0.9231
   47MOL0     H 6318   6.150   7.063   5.452 -2.1802 -0.8300 -3.2556
   47MOL0     H 6319   6.126   7.306   5.283 -1.3724 -0.5457 -0.7667
   47MOL0     H 6320   6.272   7.184   5.281 -0.0495 -0.3340 -0.7494
   47MOL0     H 6321   5.970   7.146   5.251 -0.7237  0.6329 -0.8996
   47MOL0     H 6322   6.077   7.018   5.252 -0.9759  1.0937  2.7288
   47MOL0     H 6323   6.037   7.238   5.045  0.0647 -1.5646 -0.9195
   47MOL0     H 6324   6.198   7.165   5.055  1.0691 -2.1397  1.1777
   47MOL0     H 6325   6.575   7.610   5.732 -1.5714  1.2799 -1.3598
   47MOL0     H 6326   6.652   7.804   5.843  1.0820 -1.8112 -0.1831
   47MOL0     H 6327   6.877   7.997   6.287  4.0408  3.1354  0.3448
   47MOL0     H 6328   6.970   8.218   6.316 -1.2582 -2.5364  1.1836
   47MOL0     H 6329   7.227   8.169   6.859  0.8896 -1.5690  0.2367
   47MOL0     H 6330   7.342   8.024   6.674  1.0592 -0.0103 -1.8222
   47MOL0     H 6331   7.541   7.891   6.408  1.9433  1.3301 -1.1409
   47MOL0     H 6332   7.665   7.691   6.310 -0.6413 -2.7036 -0.5703
   47MOL0     H 6333   7.689   7.493   6.249 -2.2020  0.6061  0.1395
   47MOL0     H 6334   7.802   7.590   6.162 -0.8326 -1.0550  1.7186
   47MOL0     H 6335   7.854   7.375   6.143 -0.2156  1.2678  1.5181
   47MOL0     H 6336   7.819   7.445   5.977 -2.6420  0.9151 -0.6404
   47MOL0     H 6337   7.602   7.337   5.972 -0.6331 -1.2859 -0.1407
   47MOL0     H 6338   7.641   7.263   6.132  0.3587  2.6890  1.2337
   47MOL0     H 6339   7.844   7.170   6.029 -1.8543 -0.9301  2.6569
   47MOL0     H 6340   7.687   7.096   5.981 -0.0225 -0.5766 -0.8105
   47MOL0     H 6341   7.764   7.230   5.603  0.1991 -3.2621  0.0639
   47MOL0     H 6342   7.425   7.698   5.971  1.2684 -1.0117  0.0005
   47MOL0     H 6343   7.251   7.872   5.933  0.0178  1.6531 -0.7470
   47MOL0     H 6344   7.170   7.876   6.087  1.1505 -1.6266 -0.5601
   47MOL0     H 6345   7.253   8.019   6.037  1.8678 -0.0439  1.1440
   48MOL0     O 6346  10.927   4.816   9.339 -0.4924 -0.1960 -0.0017
   48MOL0     C 6347  10.895   4.929   9.374 -0.4623  0.2577  0.4006
   48MOL0     O 6348  10.855   4.960   9.499 -0.0587 -0.2344 -0.0269
   48MOL0     C 6349  10.839   5.086   9.546 -0.0058  0.3202 -0.1271
   48MOL0     C 6350  10.911   5.119   9.665  0.2506  0.3332  0.0749
   48MOL0     C 6351  10.879   5.229   9.741 -0.0976  0.1392 -0.6493
   48MOL0     C 6352  10.772   5.313   9.702  0.3317 -0.3406 -0.4712
   48MOL0     O 6353  10.736   5.424   9.769  0.5368  0.3510 -0.3997
   48MOL0     C 6354  10.828   5.497   9.842  0.3695 -0.1883  0.1229
   48MOL0     C 6355  10.777   5.636   9.880 -0.4655  0.2635 -0.1855
   48MOL0     C 6356  10.895   5.714   9.946 -1.2350  0.3186  0.1701
   48MOL0     C 6357  10.870   5.866   9.974 -0.1054 -0.5510  0.2754
   48MOL0     C 6358  10.983   5.963   9.977 -0.0143  0.4164 -0.3311
   48MOL0     C 6359  11.051   5.979   9.838  0.4104 -0.7960  1.4872
   48MOL0     C 6360  11.153   6.088   9.844 -1.1870  0.7474 -0.6556
   48MOL0     C 6361  11.286   6.047   9.912  0.7457 -0.2847 -0.1583
   48MOL0     N 6362  11.380   6.159   9.926 -0.7133  0.2258  0.3190
   48MOL0     C 6363  11.438   6.211   9.812 -1.0187  0.6677 -0.3335
   48MOL0     C 6364  11.530   6.295   9.859 -0.2473  0.4595  0.4832
   48MOL0     C 6365  11.635   6.382   9.786  0.4076 -0.2666 -1.3933
   48MOL0     C 6366  11.584   6.524   9.788  0.0456 -0.8878 -0.1055
   48MOL0     C 6367  11.616   6.596   9.927 -0.3668  0.9992  0.3488
   48MOL0     C 6368  11.636   6.745   9.924  0.6592 -0.4939 -0.0343
   48MOL0     O 6369  11.753   6.795   9.860  0.5903  0.1907  0.0691
   48MOL0     C 6370  11.770   6.932   9.857  0.3885 -0.1909  0.0424
   48MOL0     C 6371  11.893   6.978   9.833  0.0367 -0.3591  0.4460
   48MOL0     C 6372  11.926   7.106   9.846 -0.0037 -0.7664  0.3969
   48MOL0     C 6373  11.829   7.203   9.877  1.2342  0.3865  1.1966
   48MOL0     C 6374  11.864   7.343   9.893  0.2251 -0.0063  0.3078
   48MOL0     O 6375  11.991   7.383   9.867 -0.2538 -0.1048 -0.9081
   48MOL0     C 6376  12.036   7.509   9.910 -0.6583  0.4471  0.1425
   48MOL0     C 6377  12.118   7.580   9.821  0.8921  0.0479 -0.8020
   48MOL0     C 6378  12.168   7.707   9.866  1.1514 -0.4863 -0.7298
   48MOL0     C 6379  12.161   7.751   9.998  0.0188 -0.1036  0.1683
   48MOL0     O 6380  12.197   7.879  10.060 -0.3780 -0.3626 -0.6007
   48MOL0     C 6381  12.315   7.938   9.990  0.6544 -0.6685  0.7968
   48MOL0     C 6382  12.356   8.071  10.055 -0.1448 -0.1603  0.1708
   48MOL0     C 6383  12.273   8.195  10.025  0.0633 -0.0713  0.1818
   48MOL0     C 6384  12.300   8.258   9.888 -0.3119 -0.7077 -0.1240
   48MOL0     C 6385  12.205   8.384   9.878 -0.4113 -0.2326 -0.0051
   48MOL0     C 6386  12.217   8.458   9.750 -0.5910  0.8397 -0.5583
   48MOL0     C 6387  12.139   8.591   9.757  0.2419 -0.4877  0.3979
   48MOL0     C 6388  12.153   8.670   9.623  0.0760  0.5538 -0.4984
   48MOL0    Cl 6389  12.032   8.801   9.623 -0.2467 -0.4927 -0.4899
   48MOL0     C 6390  12.092   7.674  10.085 -0.4649  0.5414  0.8115
   48MOL0     C 6391  12.021   7.557  10.040  1.0270 -0.6327 -0.0822
   48MOL0     O 6392  11.776   7.411   9.943 -0.0553  0.0680  0.6292
   48MOL0     C 6393  11.698   7.162   9.887  0.4460  0.3298  0.3032
   48MOL0     C 6394  11.667   7.027   9.866  0.5836  0.5328 -0.1810
   48MOL0     N 6395  11.531   6.289   9.997 -0.5907 -0.2842  0.4283
   48MOL0     N 6396  11.444   6.202  10.033 -0.1635  0.2219 -0.5646
   48MOL0     C 6397  10.694   5.285   9.586  0.6248  1.1822 -0.3834
   48MOL0     C 6398  10.725   5.161   9.516  0.9075 -0.6400 -0.7211
   48MOL0     C 6399  10.905   5.032   9.269  1.5899 -0.2889 -0.2420
   48MOL0     C 6400  11.008   5.127   9.259  0.9397  0.1971  0.6665
   48MOL0     C 6401  11.006   5.228   9.160 -0.2078 -0.4116  0.3157
   48MOL0     C 6402  10.911   5.243   9.060  0.0281 -0.0499  0.4461
   48MOL0     O 6403  10.902   5.348   8.967  0.1705 -0.5145  0.3421
   48MOL0     C 6404  10.945   5.325   8.829 -0.0050 -0.0381 -0.1636
   48MOL0     C 6405  10.919   5.459   8.755 -0.2010 -0.2929  0.1901
   48MOL0     C 6406  10.761   5.498   8.753 -0.9765  0.2276 -0.8361
   48MOL0     C 6407  10.688   5.440   8.636  0.3488  0.6397 -0.4677
   48MOL0     C 6408  10.643   5.307   8.674 -0.1577 -0.1641  0.9598
   48MOL0     C 6409  10.621   5.187   8.693  0.0748 -0.5180 -0.1281
   48MOL0     C 6410  10.818   5.137   9.062 -0.3701 -0.5079 -0.5726
   48MOL0     C 6411  10.807   5.035   9.162  0.1278  0.6767  0.5589
   48MOL0     C 6412  10.692   4.936   9.152 -0.0584 -0.5858  0.3942
   48MOL0     H 6413  10.986   5.046   9.692  0.8996 -0.6800 -3.8739
   48MOL0     H 6414  10.930   5.229   9.837 -1.1917  1.8767 -0.0161
   48MOL0     H 6415  10.857   5.447   9.935  0.8458  1.8796  1.1367
   48MOL0     H 6416  10.917   5.506   9.780 -0.1566  1.7628 -0.3964
   48MOL0     H 6417  10.694   5.642   9.950 -0.3138  2.2764 -0.1001
   48MOL0     H 6418  10.743   5.692   9.792 -1.2482 -0.6399 -0.4758
   48MOL0     H 6419  10.984   5.706   9.883  0.8673  2.7540  2.5277
   48MOL0     H 6420  10.924   5.671  10.043 -1.5331  0.9402  0.5411
   48MOL0     H 6421  10.815   5.905   9.888  1.4272 -2.3394 -1.6101
   48MOL0     H 6422  10.807   5.884  10.062  0.8949  3.3670  0.3651
   48MOL0     H 6423  10.949   6.060  10.014  1.4902 -0.3100  3.3709
   48MOL0     H 6424  11.063   5.928  10.043 -1.2574 -1.8139  0.1032
   48MOL0     H 6425  11.087   5.891   9.785  0.9145  1.1531 -1.7072
   48MOL0     H 6426  10.985   6.028   9.765  1.8667  1.5090  1.5926
   48MOL0     H 6427  11.111   6.184   9.876  0.7805  1.0171  1.3142
   48MOL0     H 6428  11.182   6.109   9.740 -1.0774 -0.8768 -0.9757
   48MOL0     H 6429  11.258   6.020  10.015 -0.7445 -1.3836 -0.8232
   48MOL0     H 6430  11.353   5.981   9.856 -0.3114  0.6341 -2.6505
   48MOL0     H 6431  11.414   6.196   9.707 -1.9290 -1.7566  0.1600
   48MOL0     H 6432  11.732   6.359   9.832  0.4523 -1.5049 -2.0682
   48MOL0     H 6433  11.647   6.348   9.683 -1.2699 -0.0754 -1.6728
   48MOL0     H 6434  11.635   6.579   9.708 -0.5258 -1.7091 -1.0609
   48MOL0     H 6435  11.475   6.528   9.779 -0.0460 -2.7088 -0.3126
   48MOL0     H 6436  11.707   6.550   9.965  0.7278  1.2643 -1.7796
   48MOL0     H 6437  11.533   6.581   9.996 -0.0624  0.8628  0.6878
   48MOL0     H 6438  11.634   6.775  10.029  2.0887  2.8430 -0.8262
   48MOL0     H 6439  11.551   6.788   9.869  0.4990 -1.1759 -0.3302
   48MOL0     H 6440  11.967   6.902   9.812  0.9704  0.2424  1.4302
   48MOL0     H 6441  12.028   7.143   9.844 -0.8682  1.9383  1.2858
   48MOL0     H 6442  12.142   7.539   9.724  0.7690  0.3243 -0.9501
   48MOL0     H 6443  12.215   7.767   9.788  0.0935  1.2884 -0.0576
   48MOL0     H 6444  12.402   7.871   9.984 -1.7587 -4.0494  0.6261
   48MOL0     H 6445  12.286   7.959   9.887  2.4968 -1.4559  0.0710
   48MOL0     H 6446  12.350   8.053  10.162 -0.5716 -0.5352  0.0857
   48MOL0     H 6447  12.461   8.094  10.034 -0.1321 -0.3819 -0.0034
   48MOL0     H 6448  12.170   8.160  10.026  0.1540 -0.6728 -2.6303
   48MOL0     H 6449  12.295   8.265  10.107  3.7030 -0.9650  0.1731
   48MOL0     H 6450  12.282   8.196   9.800 -1.8020 -0.0317 -0.3275
   48MOL0     H 6451  12.398   8.304   9.876 -1.4695  1.7779 -0.8168
   48MOL0     H 6452  12.216   8.441   9.970 -1.8245 -1.6518  1.1038
   48MOL0     H 6453  12.102   8.347   9.882 -1.6978  2.9845 -0.1869
   48MOL0     H 6454  12.317   8.498   9.733 -0.2983 -0.4284 -2.1122
   48MOL0     H 6455  12.203   8.392   9.664 -1.9157  0.4046 -0.0393
   48MOL0     H 6456  12.183   8.650   9.837  4.1800 -0.0791 -1.8132
   48MOL0     H 6457  12.035   8.563   9.777  0.2460 -1.9218 -1.2793
   48MOL0     H 6458  12.247   8.723   9.610  0.0106  0.2606 -2.4334
   48MOL0     H 6459  12.131   8.595   9.546 -3.6973  1.0978 -0.1730
   48MOL0     H 6460  12.082   7.723  10.181  1.3625 -1.0768  1.8824
   48MOL0     H 6461  11.949   7.512  10.108  0.5089  0.9465  0.4581
   48MOL0     H 6462  11.612   7.229   9.893 -0.2399 -0.2616 -1.9623
   48MOL0     H 6463  11.560   7.013   9.874  0.1091  3.9111  0.7259
   48MOL0     H 6464  10.614   5.345   9.545 -0.3621 -1.8549 -3.3701
   48MOL0     H 6465  10.651   5.122   9.447  0.0053  2.7287 -1.8533
   48MOL0     H 6466  11.094   5.123   9.325  2.7866  1.9760 -1.4610
   48MOL0     H 6467  11.084   5.303   9.166 -1.5777  1.1114 -0.0593
   48MOL0     H 6468  10.890   5.243   8.783  1.8854 -0.3377 -2.0411
   48MOL0     H 6469  11.050   5.295   8.827 -0.1415 -0.5054 -0.2876
   48MOL0     H 6470  10.963   5.445   8.656 -1.6250  0.2230 -0.5275
   48MOL0     H 6471  10.972   5.543   8.802 -0.6230 -0.2341  0.5653
   48MOL0     H 6472  10.763   5.606   8.735  0.8518  0.8354  2.3625
   48MOL0     H 6473  10.721   5.479   8.853  2.6080 -0.8740  0.5595
   48MOL0     H 6474  10.591   5.482   8.607  0.3093  1.6556  1.0331
   48MOL0     H 6475  10.749   5.439   8.545  3.4008  3.0921  1.3688
   48MOL0     H 6476  10.602   5.082   8.704 -0.0874 -0.6507 -1.5163
   48MOL0     H 6477  10.733   5.158   8.997  0.9006  0.4899 -1.9713
   48MOL0     H 6478  10.679   4.895   9.051 -0.9830 -0.3671  0.4112
   48MOL0     H 6479  10.706   4.853   9.222  5.3239 -0.4193 -0.0811
   48MOL0     H 6480  10.602   4.998   9.161  1.7805  2.6362 -1.2650
   49MOL0     O 6481   9.934   9.524  10.355  0.0451  1.0119  0.3932
   49MOL0     C 6482   9.849   9.597  10.407 -0.1349  0.7263  0.0568
   49MOL0     O 6483   9.715   9.561  10.399 -0.3991 -0.0919 -0.1513
   49MOL0     C 6484   9.684   9.432  10.356  0.8376  0.0881  0.7437
   49MOL0     C 6485   9.651   9.399  10.228  0.2322 -0.0872  0.1385
   49MOL0     C 6486   9.619   9.271  10.191  0.0715 -0.3104  0.3219
   49MOL0     C 6487   9.628   9.167  10.275 -0.0566  0.6945  0.4078
   49MOL0     O 6488   9.617   9.049  10.220  0.4771 -0.4973  0.4612
   49MOL0     C 6489   9.542   8.954  10.305 -0.0165 -0.5454  0.8435
   49MOL0     C 6490   9.457   8.862  10.220 -0.0102 -0.3306  0.3569
   49MOL0     C 6491   9.354   8.931  10.126  0.7535 -0.4625  0.6055
   49MOL0     C 6492   9.310   8.835  10.014  0.5725  0.8810 -0.2658
   49MOL0     C 6493   9.239   8.925   9.913 -0.1459  0.0478  0.9200
   49MOL0     C 6494   9.168   8.845   9.794  0.4029  1.3135 -0.2575
   49MOL0     C 6495   9.064   8.913   9.713  0.1174 -0.3878 -0.2083
   49MOL0     C 6496   9.114   9.031   9.631  1.1453  0.2208 -0.9532
   49MOL0     N 6497   9.004   9.094   9.556  0.1157 -1.2428  0.1482
   49MOL0     C 6498   8.888   9.157   9.610  0.8052 -0.4290 -0.0815
   49MOL0     C 6499   8.826   9.217   9.506 -0.6089 -0.3161  0.0682
   49MOL0     C 6500   8.688   9.287   9.497 -0.6747 -0.3258 -0.2768
   49MOL0     C 6501   8.603   9.316   9.629 -0.3741  0.8246 -0.3741
   49MOL0     C 6502   8.661   9.421   9.724  0.4252  0.2481 -0.3492
   49MOL0     C 6503   8.563   9.434   9.840 -0.1646 -0.5630 -0.3619
   49MOL0     O 6504   8.639   9.462   9.960 -0.3142 -0.6920 -0.7133
   49MOL0     C 6505   8.683   9.590   9.981 -0.5451  0.1583 -0.3913
   49MOL0     C 6506   8.693   9.690   9.889 -0.0622 -0.2985  0.6803
   49MOL0     C 6507   8.758   9.804   9.926  0.6199  0.5220 -0.4033
   49MOL0     C 6508   8.806   9.830  10.054 -0.0344  0.1795  0.7326
   49MOL0     C 6509   8.862   9.962  10.092  0.1650 -0.6267 -0.6600
   49MOL0     O 6510   8.894   9.975  10.229  0.0362 -0.0380 -0.5090
   49MOL0     C 6511   8.966  10.082  10.280  0.7454  0.3060 -0.8646
   49MOL0     C 6512   9.087  10.128  10.220  0.3624  0.0472  0.3438
   49MOL0     C 6513   9.163  10.227  10.271 -0.1678  0.5131  0.2671
   49MOL0     C 6514   9.122  10.300  10.384 -0.5009 -0.3467  0.3367
   49MOL0     O 6515   9.179  10.417  10.423 -0.3144  0.1881 -0.3455
   49MOL0     C 6516   9.320  10.412  10.437 -1.0616  0.3364  0.5627
   49MOL0     C 6517   9.385  10.293  10.496 -1.0046  0.2399  0.5546
   49MOL0     C 6518   9.337  10.261  10.639 -0.6146 -1.2459 -0.2069
   49MOL0     C 6519   9.426  10.157  10.705 -0.7580  0.2405  0.0158
   49MOL0     C 6520   9.464  10.163  10.858 -0.1110  0.8844 -0.8468
   49MOL0     C 6521   9.576  10.263  10.885  0.4353  1.2079  0.3872
   49MOL0     C 6522   9.626  10.254  11.032  0.0007  0.2848  0.3957
   49MOL0     C 6523   9.712  10.381  11.063  0.1353 -0.0880  0.3334
   49MOL0    Cl 6524   9.810  10.370  11.211  0.1346 -0.4555 -0.0793
   49MOL0     C 6525   8.998  10.270  10.436  0.4673 -0.7298 -0.1446
   49MOL0     C 6526   8.920  10.161  10.391 -0.5168  0.0281 -0.3164
   49MOL0     O 6527   8.880  10.057  10.007  0.3637  0.2676  0.0110
   49MOL0     C 6528   8.797   9.731  10.143 -0.9438  0.2533  0.6594
   49MOL0     C 6529   8.743   9.611  10.114  0.2105  0.1561 -0.0279
   49MOL0     N 6530   8.911   9.210   9.400 -0.2591  0.9041  0.6338
   49MOL0     N 6531   9.010   9.124   9.422 -0.4079  0.0703  0.5211
   49MOL0     C 6532   9.650   9.196  10.415  0.3694 -0.1507  0.6932
   49MOL0     C 6533   9.678   9.333  10.448  0.6266 -0.6311 -0.7075
   49MOL0     C 6534   9.895   9.717  10.481  0.5477 -0.2740  0.8803
   49MOL0     C 6535   9.792   9.816  10.497  0.2850 -0.4213  0.1296
   49MOL0     C 6536   9.820   9.936  10.562 -1.2500 -0.6138 -0.6773
   49MOL0     C 6537   9.953   9.961  10.607  0.5227 -0.2360 -0.8878
   49MOL0     O 6538   9.975  10.081  10.676  0.9426 -0.6097 -0.1426
   49MOL0     C 6539  10.105  10.131  10.680  0.0427  1.3022  0.8515
   49MOL0     C 6540  10.122  10.269  10.734  0.1145  0.1136  0.2767
   49MOL0     C 6541  10.042  10.386  10.676 -0.2735 -0.0892 -0.2123
   49MOL0     C 6542  10.069  10.517  10.748 -0.9932 -0.0749 -0.1205
   49MOL0     C 6543   9.966  10.621  10.739  0.2510 -0.2493 -0.4831
   49MOL0     C 6544   9.867  10.677  10.714  0.4010  0.0488  0.5510
   49MOL0     C 6545  10.054   9.869  10.596 -0.1472  0.3364 -0.2403
   49MOL0     C 6546  10.028   9.743  10.535 -0.6392  0.8818  0.1643
   49MOL0     C 6547  10.133   9.634  10.519  0.7512 -0.0913 -0.5607
   49MOL0     H 6548   9.667   9.480  10.158  1.8338 -0.1227  0.4280
   49MOL0     H 6549   9.593   9.242  10.089 -2.3220 -1.4999  1.1895
   49MOL0     H 6550   9.613   8.898  10.366  1.2337 -1.1136 -1.0582
   49MOL0     H 6551   9.472   9.005  10.371  0.8170  1.6588  0.1020
   49MOL0     H 6552   9.396   8.799  10.285 -0.0697 -0.3264  0.3065
   49MOL0     H 6553   9.515   8.800  10.151 -1.0352  1.1495 -1.9740
   49MOL0     H 6554   9.383   9.024  10.078 -0.3193 -0.7228 -0.6212
   49MOL0     H 6555   9.263   8.951  10.184 -0.2294  1.2060 -1.3996
   49MOL0     H 6556   9.396   8.785   9.969  1.9282  2.4408  0.4866
   49MOL0     H 6557   9.248   8.753  10.054 -0.3527  1.3548 -0.7083
   49MOL0     H 6558   9.165   8.993   9.955 -3.0958 -1.1654 -1.8486
   49MOL0     H 6559   9.316   8.981   9.860  0.6245 -0.0000  1.9570
   49MOL0     H 6560   9.243   8.802   9.727 -1.1474 -1.3539 -0.4211
   49MOL0     H 6561   9.115   8.767   9.849 -0.5012  2.1031  0.0145
   49MOL0     H 6562   8.987   8.940   9.786  2.3802 -3.4284  3.6924
   49MOL0     H 6563   9.020   8.838   9.646  1.4551 -0.6578 -0.8159
   49MOL0     H 6564   9.147   9.108   9.701 -3.6408 -0.1014  2.1028
   49MOL0     H 6565   9.201   9.015   9.565  1.3225  4.1976 -1.9605
   49MOL0     H 6566   8.837   9.130   9.702  3.8391 -1.7876  1.3381
   49MOL0     H 6567   8.697   9.386   9.451 -2.6884  0.1480  0.2480
   49MOL0     H 6568   8.632   9.229   9.422 -0.1085  1.4737 -2.1908
   49MOL0     H 6569   8.511   9.358   9.587  0.7504  2.1050 -1.6731
   49MOL0     H 6570   8.581   9.224   9.683  0.6498  1.6915  1.6065
   49MOL0     H 6571   8.660   9.519   9.676 -1.1214 -0.3131 -1.5308
   49MOL0     H 6572   8.761   9.389   9.758 -0.1905 -0.2985  1.0501
   49MOL0     H 6573   8.504   9.346   9.866 -1.0004  0.3993  1.1267
   49MOL0     H 6574   8.492   9.517   9.841  1.1212  0.5851  0.9323
   49MOL0     H 6575   8.655   9.683   9.788  3.3228  0.4427 -0.7698
   49MOL0     H 6576   8.764   9.883   9.852 -0.5087  2.3611  1.3539
   49MOL0     H 6577   9.125  10.080  10.130  1.3969 -1.3055  1.4678
   49MOL0     H 6578   9.245  10.274  10.217 -1.2457  0.2743 -1.6477
   49MOL0     H 6579   9.354  10.426  10.334 -0.0069 -1.4939  0.6111
   49MOL0     H 6580   9.365  10.491  10.498  0.7165 -1.4420  1.6768
   49MOL0     H 6581   9.377  10.208  10.427 -0.6718  1.6555 -1.2874
   49MOL0     H 6582   9.493  10.300  10.510 -1.0908 -1.3437  2.4266
   49MOL0     H 6583   9.333  10.348  10.705  1.9178 -0.1339 -1.3772
   49MOL0     H 6584   9.233  10.227  10.640 -1.8251  2.0896  2.0478
   49MOL0     H 6585   9.507  10.123  10.640 -0.7085 -0.7243  0.5673
   49MOL0     H 6586   9.348  10.081  10.702 -2.9857  2.3437  0.9404
   49MOL0     H 6587   9.495  10.059  10.872  0.2582  0.9908 -0.8884
   49MOL0     H 6588   9.379  10.185  10.924 -1.1927 -1.8959 -1.1813
   49MOL0     H 6589   9.663  10.235  10.825  1.9299  1.2369  2.4333
   49MOL0     H 6590   9.546  10.363  10.853 -3.0431  0.4874  0.9593
   49MOL0     H 6591   9.688  10.165  11.050 -0.0030  0.7137  2.8696
   49MOL0     H 6592   9.538  10.269  11.095 -0.5582  2.1650 -0.7697
   49MOL0     H 6593   9.784  10.382  10.980  0.6124 -2.7267  0.6199
   49MOL0     H 6594   9.649  10.469  11.049 -0.1711 -0.3867 -0.2363
   49MOL0     H 6595   8.947  10.333  10.508 -0.2073 -0.0831 -1.1605
   49MOL0     H 6596   8.825  10.154  10.443  0.0497  0.5018  0.8298
   49MOL0     H 6597   8.841   9.737  10.242  1.4181  0.5219 -0.3261
   49MOL0     H 6598   8.733   9.532  10.188 -1.6582  0.0650 -0.3312
   49MOL0     H 6599   9.651   9.127  10.498 -0.8374  2.6439  3.2066
   49MOL0     H 6600   9.669   9.363  10.552  0.4467 -1.0716 -0.5940
   49MOL0     H 6601   9.697   9.798  10.448  1.6286 -2.1135 -2.0162
   49MOL0     H 6602   9.751  10.018  10.575  1.5516  1.7220  0.7156
   49MOL0     H 6603  10.136  10.141  10.575 -0.6187  1.2513  0.6446
   49MOL0     H 6604  10.173  10.057  10.721 -0.8865 -0.4938 -0.7064
   49MOL0     H 6605  10.227  10.295  10.719  0.2064 -1.3252 -2.0929
   49MOL0     H 6606  10.101  10.261  10.841 -0.5223 -3.0331 -0.0055
   49MOL0     H 6607   9.935  10.366  10.674 -0.7937  2.3859  0.0853
   49MOL0     H 6608  10.073  10.402  10.572  0.0156 -0.1825 -0.1416
   49MOL0     H 6609  10.074  10.503  10.856 -0.0079  1.9613  0.1450
   49MOL0     H 6610  10.170  10.547  10.720  0.3791 -1.5412  2.7622
   49MOL0     H 6611   9.776  10.720  10.676  0.4495  1.1802  1.6600
   49MOL0     H 6612  10.156   9.885  10.629 -0.3026  0.8302  0.0022
   49MOL0     H 6613  10.162   9.618  10.414 -2.2727 -2.4743 -1.1628
   49MOL0     H 6614  10.222   9.674  10.569 -0.0561 -1.0076  1.7686
   49MOL0     H 6615  10.104   9.535  10.557  0.2298  0.2079 -0.1772
   50MOL0     O 6616  10.958   2.362  10.637  0.2257 -0.2598  0.1800
   50MOL0     C 6617  10.897   2.266  10.686  0.3729  0.1758  0.5509
   50MOL0     O 6618  10.818   2.277  10.800 -0.5366  0.8716 -0.3540
   50MOL0     C 6619  10.841   2.378  10.895  0.9342  0.3520  0.0266
   50MOL0     C 6620  10.913   2.497  10.887 -0.1311 -0.5075 -0.0299
   50MOL0     C 6621  10.926   2.574  10.995 -0.2229 -0.3465  0.3919
   50MOL0     C 6622  10.857   2.544  11.117 -0.1714  0.6687  0.8885
   50MOL0     O 6623  10.882   2.608  11.230 -1.2283 -0.8922 -0.2513
   50MOL0     C 6624  10.909   2.754  11.233  0.2683 -0.6264  0.2501
   50MOL0     C 6625  10.907   2.780  11.394 -0.2162 -0.3003 -0.4241
   50MOL0     C 6626  10.937   2.928  11.420  1.2489  0.1680 -0.5806
   50MOL0     C 6627  10.920   2.952  11.560  0.8150  0.8620  0.2978
   50MOL0     C 6628  11.000   3.077  11.608 -0.3632 -0.9601 -0.3732
   50MOL0     C 6629  10.973   3.207  11.524  0.2081  1.1923  0.8457
   50MOL0     C 6630  10.826   3.252  11.500 -0.7626 -0.5627  0.3998
   50MOL0     C 6631  10.832   3.399  11.453  0.0250  0.1546  0.3169
   50MOL0     N 6632  10.707   3.469  11.466 -0.1185  0.4550  0.2234
   50MOL0     C 6633  10.582   3.417  11.443 -0.3931  0.1151 -0.0425
   50MOL0     C 6634  10.502   3.524  11.460 -0.7579  0.1963 -0.5083
   50MOL0     C 6635  10.348   3.519  11.450 -0.6977  0.3731 -0.4949
   50MOL0     C 6636  10.312   3.530  11.296 -0.0079  0.3626 -0.0839
   50MOL0     C 6637  10.194   3.634  11.266 -0.6598 -0.3909  0.7624
   50MOL0     C 6638  10.157   3.618  11.120 -0.3642 -0.7951  0.6900
   50MOL0     O 6639  10.042   3.698  11.097 -0.2825  0.3120  0.0910
   50MOL0     C 6640   9.948   3.668  11.001  0.1052 -0.0277 -0.0798
   50MOL0     C 6641   9.826   3.731  10.994  0.8114  0.1788  0.2470
   50MOL0     C 6642   9.726   3.687  10.908  0.8366 -0.4709  0.0628
   50MOL0     C 6643   9.758   3.594  10.811 -0.1220 -0.0753 -0.2397
   50MOL0     C 6644   9.657   3.560  10.706  0.1437  0.7698  1.2769
   50MOL0     O 6645   9.522   3.582  10.735 -0.4984 -0.8695 -0.6255
   50MOL0     C 6646   9.441   3.583  10.628  0.1723 -0.2056 -0.6965
   50MOL0     C 6647   9.403   3.463  10.560  0.4659  0.2201 -0.2890
   50MOL0     C 6648   9.298   3.468  10.463 -0.1736 -0.8688  0.0348
   50MOL0     C 6649   9.239   3.590  10.435  0.3938 -0.5604  0.0155
   50MOL0     O 6650   9.148   3.604  10.337  0.5335  0.2603 -0.6595
   50MOL0     C 6651   9.097   3.489  10.268  0.0783  0.1067 -0.0849
   50MOL0     C 6652   8.981   3.516  10.168 -0.0323  0.5513 -0.5858
   50MOL0     C 6653   8.857   3.560  10.235 -0.0657 -0.2082 -0.3248
   50MOL0     C 6654   8.733   3.570  10.144 -0.0303 -0.3918 -0.7487
   50MOL0     C 6655   8.765   3.609   9.997  0.4069 -0.0754 -1.2182
   50MOL0     C 6656   8.644   3.673   9.938 -0.2675  0.2189  0.3967
   50MOL0     C 6657   8.679   3.729   9.798 -0.5460 -0.9009 -0.1871
   50MOL0     C 6658   8.571   3.803   9.729  0.7210  1.0644  0.2395
   50MOL0    Cl 6659   8.520   3.937   9.835  0.1274  0.3071  0.1350
   50MOL0     C 6660   9.278   3.706  10.499  0.1410  0.0917 -1.0372
   50MOL0     C 6661   9.374   3.704  10.599 -0.0944 -0.7575  0.2745
   50MOL0     O 6662   9.693   3.524  10.592 -0.1948  1.2077 -0.0396
   50MOL0     C 6663   9.886   3.538  10.807  0.5501  0.5440 -0.8347
   50MOL0     C 6664   9.981   3.572  10.906  0.0489 -0.4240 -0.0649
   50MOL0     N 6665  10.580   3.635  11.481 -0.4633 -0.5965  0.1173
   50MOL0     N 6666  10.695   3.603  11.480  0.3242 -0.2204 -0.9627
   50MOL0     C 6667  10.782   2.422  11.132 -0.2291 -0.6166 -0.7961
   50MOL0     C 6668  10.770   2.348  11.015  0.1854 -0.3048 -0.0743
   50MOL0     C 6669  10.888   2.142  10.610  0.6073 -0.3730  0.3380
   50MOL0     C 6670  10.787   2.053  10.650  0.8966  0.2258 -0.0053
   50MOL0     C 6671  10.765   1.934  10.580 -0.7629 -0.0293  0.4772
   50MOL0     C 6672  10.840   1.895  10.473  0.1484 -0.7010  0.3537
   50MOL0     O 6673  10.825   1.766  10.433 -0.4456 -0.0061  0.0413
   50MOL0     C 6674  10.845   1.742  10.284  0.1338 -0.2623  0.4203
   50MOL0     C 6675  10.817   1.598  10.251 -0.4574  0.8515  0.1943
   50MOL0     C 6676  10.674   1.568  10.194  0.2254 -0.6139  0.0382
   50MOL0     C 6677  10.653   1.633  10.058  0.5345 -0.5668 -0.1119
   50MOL0     C 6678  10.515   1.609  10.007 -0.2900  0.2598  0.6490
   50MOL0     C 6679  10.405   1.572   9.965 -0.5771 -0.9245 -0.0476
   50MOL0     C 6680  10.939   1.983  10.429  0.3203  0.5042  0.6848
   50MOL0     C 6681  10.966   2.108  10.495  0.7710 -0.2411  0.2156
   50MOL0     C 6682  11.098   2.164  10.456 -0.0944 -0.2111 -0.7712
   50MOL0     H 6683  10.950   2.537  10.793 -3.3741 -3.1216 -2.6493
   50MOL0     H 6684  10.987   2.664  10.992  0.8445 -0.8462  3.3559
   50MOL0     H 6685  11.005   2.780  11.188 -0.0694  0.9260  0.3916
   50MOL0     H 6686  10.839   2.810  11.172  2.1392  2.0594  0.4174
   50MOL0     H 6687  10.987   2.721  11.440 -0.2002  0.4865  0.5748
   50MOL0     H 6688  10.808   2.750  11.427 -0.3480 -0.3994 -0.9013
   50MOL0     H 6689  10.867   2.986  11.359 -2.1392 -2.4524  0.4808
   50MOL0     H 6690  11.038   2.964  11.398  1.6692 -2.5004 -3.7286
   50MOL0     H 6691  10.818   2.980  11.589  1.3104  0.4141  2.7524
   50MOL0     H 6692  10.956   2.872  11.626  1.2091  0.9094  0.1395
   50MOL0     H 6693  11.005   3.089  11.717  0.7351  0.5225 -0.5505
   50MOL0     H 6694  11.104   3.052  11.584  1.7955  2.7720  3.6325
   50MOL0     H 6695  11.022   3.284  11.584  1.4885  1.4578 -0.4957
   50MOL0     H 6696  11.022   3.188  11.428  1.3979  0.0009  1.6612
   50MOL0     H 6697  10.760   3.243  11.587 -1.2857  1.2982  0.2329
   50MOL0     H 6698  10.782   3.198  11.416  2.5003 -0.3344 -1.6158
   50MOL0     H 6699  10.895   3.454  11.524 -4.6083  2.5257  3.0716
   50MOL0     H 6700  10.875   3.396  11.353 -0.9150 -1.1855 -0.0753
   50MOL0     H 6701  10.554   3.315  11.422  4.0264 -1.0577 -1.0690
   50MOL0     H 6702  10.307   3.429  11.495 -1.3048  1.8114  2.0087
   50MOL0     H 6703  10.328   3.609  11.509  2.1479  1.2603 -0.6892
   50MOL0     H 6704  10.400   3.542  11.233 -0.2940 -1.6831 -0.9503
   50MOL0     H 6705  10.282   3.431  11.259 -1.1117  1.0306 -1.0429
   50MOL0     H 6706  10.223   3.735  11.295 -1.7593 -0.7044  3.1695
   50MOL0     H 6707  10.100   3.621  11.319 -0.8255 -0.9493  0.3445
   50MOL0     H 6708  10.142   3.510  11.109 -4.2972 -0.3741  0.5540
   50MOL0     H 6709  10.250   3.644  11.068  1.1498  1.6841  4.2691
   50MOL0     H 6710   9.805   3.799  11.076 -0.3505 -3.4031  3.2147
   50MOL0     H 6711   9.626   3.726  10.921  2.4137  3.2877  2.2875
   50MOL0     H 6712   9.471   3.379  10.568 -1.5225 -1.3102  1.7917
   50MOL0     H 6713   9.276   3.376  10.410  0.0594 -0.7704 -0.2342
   50MOL0     H 6714   9.173   3.442  10.205 -0.5190 -1.6297  0.4309
   50MOL0     H 6715   9.064   3.407  10.332  1.3040  0.3922  0.9585
   50MOL0     H 6716   9.017   3.602  10.110 -2.2636  1.7422 -0.3088
   50MOL0     H 6717   8.975   3.428  10.103 -0.7010 -0.2027  0.4683
   50MOL0     H 6718   8.814   3.522  10.328 -2.3885  3.1221  0.1587
   50MOL0     H 6719   8.894   3.656  10.273 -0.6015 -0.5031  0.9745
   50MOL0     H 6720   8.660   3.644  10.179 -2.0468 -2.2629 -0.8184
   50MOL0     H 6721   8.672   3.479  10.150 -0.8819  0.1683 -0.6782
   50MOL0     H 6722   8.802   3.527   9.935  0.2613 -0.1156 -1.2537
   50MOL0     H 6723   8.841   3.687  10.006 -0.9916  1.0866  3.5462
   50MOL0     H 6724   8.581   3.585   9.927 -1.9979  1.5692 -1.0600
   50MOL0     H 6725   8.582   3.737  10.002 -5.8195 -3.7434 -0.3254
   50MOL0     H 6726   8.708   3.643   9.737 -0.5182 -2.9529  2.5473
   50MOL0     H 6727   8.765   3.794   9.815  0.0081 -1.7191  0.1839
   50MOL0     H 6728   8.591   3.842   9.628  0.8553  0.9389  0.2173
   50MOL0     H 6729   8.489   3.732   9.720  0.1907  1.5247  1.2045
   50MOL0     H 6730   9.228   3.798  10.471  1.6987  0.6565 -2.1530
   50MOL0     H 6731   9.405   3.794  10.652  1.9102 -0.2563 -1.6099
   50MOL0     H 6732   9.922   3.465  10.736  1.5725  0.3607 -0.1400
   50MOL0     H 6733  10.081   3.532  10.891  2.1549  4.0218  0.3594
   50MOL0     H 6734  10.733   2.387  11.222  2.4237 -0.2369  0.8769
   50MOL0     H 6735  10.693   2.272  11.021 -1.8568  1.5306 -1.5578
   50MOL0     H 6736  10.733   2.066  10.743 -0.9548 -0.8114 -0.8791
   50MOL0     H 6737  10.693   1.862  10.616 -2.0433  0.6435 -0.6674
   50MOL0     H 6738  10.945   1.767  10.246  0.0011 -1.1518 -0.5481
   50MOL0     H 6739  10.777   1.807  10.230 -0.8062 -0.3621  1.4438
   50MOL0     H 6740  10.827   1.540  10.343 -0.8496 -1.8683 -1.3940
   50MOL0     H 6741  10.892   1.560  10.181  0.1783  2.0623  0.1804
   50MOL0     H 6742  10.602   1.601  10.269 -0.3941 -0.0242 -0.7899
   50MOL0     H 6743  10.669   1.459  10.187  2.6564 -0.6774 -3.2483
   50MOL0     H 6744  10.676   1.740  10.067 -1.7523  0.0143 -0.5870
   50MOL0     H 6745  10.724   1.583   9.992  2.0855 -2.7906  3.0057
   50MOL0     H 6746  10.324   1.535   9.906  1.2237 -1.7529 -2.1366
   50MOL0     H 6747  11.012   1.961  10.352  2.2970 -0.5722  2.7306
   50MOL0     H 6748  11.163   2.078  10.437 -2.1120 -1.4188 -2.6387
   50MOL0     H 6749  11.103   2.234  10.372  0.2828 -0.7423 -1.1951
   50MOL0     H 6750  11.145   2.209  10.544 -0.2287  1.4921 -1.5321
   51MOL0     O 6751   9.674   7.266   0.329  0.4981  0.1642 -0.2944
   51MOL0     C 6752   9.554   7.259   0.359 -0.5855  0.1756  0.3823
   51MOL0     O 6753   9.491   7.344   0.445 -0.6968  0.7956  0.1006
   51MOL0     C 6754   9.560   7.412   0.539 -0.1582  0.7404 -0.5268
   51MOL0     C 6755   9.480   7.493   0.619 -0.4000  1.3607 -0.4832
   51MOL0     C 6756   9.542   7.559   0.719  0.6242 -0.2652 -1.0369
   51MOL0     C 6757   9.672   7.548   0.752  0.8899 -0.1218  1.6647
   51MOL0     O 6758   9.710   7.628   0.853  0.0331  0.4018 -0.2199
   51MOL0     C 6759   9.754   7.563   0.969  0.2048  0.5236  0.2383
   51MOL0     C 6760   9.867   7.644   1.036  0.0375 -0.0290  0.3459
   51MOL0     C 6761  10.002   7.623   0.954 -0.5061 -0.1246  0.6956
   51MOL0     C 6762  10.118   7.701   1.012  0.2074  0.1104  0.4791
   51MOL0     C 6763  10.250   7.639   0.960 -0.2749  0.2167 -0.1183
   51MOL0     C 6764  10.378   7.697   1.016 -0.0864  0.4094 -0.7623
   51MOL0     C 6765  10.415   7.838   0.956  0.1595 -0.0958  0.2478
   51MOL0     C 6766  10.544   7.892   1.004  0.5185 -0.6843 -0.3074
   51MOL0     N 6767  10.674   7.831   0.955 -0.1372 -0.3379  0.7720
   51MOL0     C 6768  10.686   7.776   0.830  0.7062  0.1647  0.3267
   51MOL0     C 6769  10.804   7.714   0.842 -0.1949 -0.6203 -0.6595
   51MOL0     C 6770  10.875   7.658   0.728 -0.0142  0.1030 -0.2220
   51MOL0     C 6771  11.020   7.712   0.706 -0.4792 -0.6796 -0.5345
   51MOL0     C 6772  11.132   7.652   0.785 -0.9831  0.1438 -0.2634
   51MOL0     C 6773  11.269   7.716   0.749  0.2612  0.2353  0.1549
   51MOL0     O 6774  11.285   7.737   0.612  0.0137 -0.6291  0.1444
   51MOL0     C 6775  11.321   7.630   0.536  0.1243 -0.0370 -0.1294
   51MOL0     C 6776  11.361   7.508   0.572 -0.5132  0.7784  0.1854
   51MOL0     C 6777  11.420   7.415   0.483 -0.4565  0.7284  0.8872
   51MOL0     C 6778  11.425   7.445   0.343 -0.6998  0.3049 -0.8575
   51MOL0     C 6779  11.502   7.356   0.244  1.2250  0.1095 -0.3205
   51MOL0     O 6780  11.550   7.418   0.136  0.4074  0.1694  0.4009
   51MOL0     C 6781  11.615   7.349   0.036 -0.1936  0.4060 -0.7441
   51MOL0     C 6782  11.630   7.209   0.026  0.4376 -0.8337 -0.1092
   51MOL0     C 6783  11.695   7.155  -0.090  0.3561 -0.1942  0.0395
   51MOL0     C 6784  11.717   7.236  -0.200  0.1906  0.1709 -0.3253
   51MOL0     O 6785  11.741   7.189  -0.322  0.8096  0.2165  0.2734
   51MOL0     C 6786  11.799   7.051  -0.344 -0.0063  0.4636  0.4638
   51MOL0     C 6787  11.820   7.018  -0.500 -1.0072 -0.5495 -0.0360
   51MOL0     C 6788  11.692   7.065  -0.581 -0.1931  0.6759 -0.1510
   51MOL0     C 6789  11.712   7.030  -0.730  0.3333  0.6549  0.4150
   51MOL0     C 6790  11.630   7.114  -0.830  0.6114  0.4726  0.7190
   51MOL0     C 6791  11.677   7.094  -0.975 -0.0291 -0.5512  0.9005
   51MOL0     C 6792  11.613   7.196  -1.068  0.9715 -0.7720 -1.3940
   51MOL0     C 6793  11.635   7.152  -1.216 -0.3435  0.1634 -0.4021
   51MOL0    Cl 6794  11.801   7.156  -1.256  0.1535  0.2125  0.2616
   51MOL0     C 6795  11.685   7.368  -0.199  0.5226 -0.7574 -0.4230
   51MOL0     C 6796  11.653   7.422  -0.076 -0.1879  0.5961 -0.5506
   51MOL0     O 6797  11.506   7.232   0.262  0.5668  0.1806  1.2519
   51MOL0     C 6798  11.377   7.568   0.302 -0.1900 -0.3369  0.8627
   51MOL0     C 6799  11.316   7.657   0.396 -0.8347 -0.1644  0.0800
   51MOL0     N 6800  10.855   7.732   0.972  0.0114 -0.0846 -0.0432
   51MOL0     N 6801  10.768   7.796   1.040 -0.4305 -1.2990  0.0297
   51MOL0     C 6802   9.753   7.469   0.677 -0.5343  0.8163  1.0093
   51MOL0     C 6803   9.698   7.385   0.582 -0.1113 -0.4321 -0.9564
   51MOL0     C 6804   9.473   7.153   0.290  0.4835  0.0219  0.5072
   51MOL0     C 6805   9.331   7.162   0.300  0.5253  0.3735  0.8266
   51MOL0     C 6806   9.235   7.066   0.249  0.0433  0.0704 -0.7402
   51MOL0     C 6807   9.292   6.973   0.165  0.7331 -0.1329  0.4710
   51MOL0     O 6808   9.217   6.886   0.083  0.6805 -0.3573  0.8821
   51MOL0     C 6809   9.112   6.937   0.001  0.7219 -0.1990 -0.7732
   51MOL0     C 6810   9.149   6.942  -0.151 -0.7841  0.2909  0.0324
   51MOL0     C 6811   9.284   7.021  -0.177  0.0520 -0.4793  0.0973
   51MOL0     C 6812   9.251   7.174  -0.172  0.2199 -0.4963  0.0789
   51MOL0     C 6813   9.266   7.236  -0.297  0.6812  0.3216  0.2957
   51MOL0     C 6814   9.288   7.289  -0.404 -0.7121 -0.9605  0.8381
   51MOL0     C 6815   9.429   6.968   0.137  1.6707  0.3937 -0.2998
   51MOL0     C 6816   9.524   7.048   0.199  1.1809  0.7850  0.0864
   51MOL0     C 6817   9.661   7.028   0.167 -0.3381 -0.1476  0.6872
   51MOL0     H 6818   9.376   7.521   0.601 -0.4290  0.0719 -2.5959
   51MOL0     H 6819   9.490   7.636   0.775  0.6067 -1.9175  1.4081
   51MOL0     H 6820   9.664   7.552   1.031  0.1211 -2.7186 -0.3042
   51MOL0     H 6821   9.794   7.465   0.941 -0.1074  1.4103 -3.8476
   51MOL0     H 6822   9.876   7.618   1.142  0.2347  1.1322  0.6328
   51MOL0     H 6823   9.844   7.751   1.039 -2.3270 -0.3715 -2.1068
   51MOL0     H 6824   9.989   7.659   0.851  2.3183 -1.3795 -0.2230
   51MOL0     H 6825  10.040   7.520   0.951  2.1061  0.6785  2.6674
   51MOL0     H 6826  10.111   7.807   0.986  0.1484 -0.1674 -0.6871
   51MOL0     H 6827  10.128   7.696   1.121  0.6168 -0.7122  0.4146
   51MOL0     H 6828  10.265   7.534   0.987  0.7655  0.6581  1.1269
   51MOL0     H 6829  10.241   7.650   0.852 -1.8029  5.0305  0.2874
   51MOL0     H 6830  10.370   7.707   1.125 -2.8868  2.6909 -1.0351
   51MOL0     H 6831  10.466   7.635   0.997 -1.1453 -1.3744 -0.0055
   51MOL0     H 6832  10.328   7.900   0.979 -2.0478 -1.1808 -4.0423
   51MOL0     H 6833  10.417   7.823   0.847  0.9324 -0.4264  0.3069
   51MOL0     H 6834  10.543   8.000   0.987 -1.9084 -0.4739  0.7375
   51MOL0     H 6835  10.541   7.894   1.114  0.8368  0.6925 -0.3057
   51MOL0     H 6836  10.621   7.790   0.744 -3.6870 -0.5839  3.1931
   51MOL0     H 6837  10.882   7.550   0.741 -0.1635  0.1345  0.1407
   51MOL0     H 6838  10.822   7.676   0.634  0.3339 -3.0352 -1.1308
   51MOL0     H 6839  11.039   7.704   0.599 -0.0587 -0.4014 -0.4810
   51MOL0     H 6840  11.023   7.818   0.730 -1.2356 -1.4733  4.1308
   51MOL0     H 6841  11.137   7.543   0.776 -1.9366 -0.1632  2.1800
   51MOL0     H 6842  11.109   7.675   0.889 -0.4293  1.5068 -0.4187
   51MOL0     H 6843  11.347   7.654   0.793 -0.7423 -1.7044 -0.7182
   51MOL0     H 6844  11.282   7.814   0.797  1.0026  0.7224 -1.0113
   51MOL0     H 6845  11.354   7.463   0.670  0.6712 -2.4907 -1.1173
   51MOL0     H 6846  11.478   7.331   0.522 -0.7446 -0.8374 -1.8210
   51MOL0     H 6847  11.607   7.131   0.098  0.3129 -1.6639 -1.0208
   51MOL0     H 6848  11.706   7.048  -0.097  1.3435 -0.1253  0.4401
   51MOL0     H 6849  11.899   7.061  -0.301  0.2392  0.4370 -0.0884
   51MOL0     H 6850  11.737   6.977  -0.295  0.9636 -0.8328 -0.2015
   51MOL0     H 6851  11.910   7.063  -0.543 -0.1018 -0.1370  2.1535
   51MOL0     H 6852  11.833   6.910  -0.513 -0.8674 -0.5483  0.0976
   51MOL0     H 6853  11.602   7.017  -0.542  0.2143 -0.5622 -0.6788
   51MOL0     H 6854  11.686   7.174  -0.579 -0.2602  0.6660  0.2883
   51MOL0     H 6855  11.688   6.923  -0.736 -1.7855  0.9727  2.0549
   51MOL0     H 6856  11.815   7.047  -0.760 -0.1396  1.1330 -1.0418
   51MOL0     H 6857  11.645   7.219  -0.805  0.4471  1.3954 -2.6477
   51MOL0     H 6858  11.522   7.096  -0.823  0.4428  1.6137  1.2717
   51MOL0     H 6859  11.785   7.106  -0.971  0.0006 -0.7951  0.8202
   51MOL0     H 6860  11.658   6.988  -0.992  0.7143 -0.9452  2.3730
   51MOL0     H 6861  11.647   7.297  -1.046 -2.1657  0.3498 -1.1448
   51MOL0     H 6862  11.508   7.216  -1.044  0.6487 -1.1160 -2.4626
   51MOL0     H 6863  11.597   7.049  -1.222 -0.1755  0.0098  0.8382
   51MOL0     H 6864  11.560   7.211  -1.270 -2.2235  1.6730  3.4690
   51MOL0     H 6865  11.706   7.436  -0.281  1.4059  1.4879  1.5435
   51MOL0     H 6866  11.631   7.528  -0.068 -1.5050  0.3378 -0.4992
   51MOL0     H 6867  11.380   7.592   0.196  1.8338 -0.1672  0.9163
   51MOL0     H 6868  11.293   7.756   0.358 -1.0147 -1.0103 -2.1671
   51MOL0     H 6869   9.858   7.454   0.701  0.5569  2.2099 -2.1833
   51MOL0     H 6870   9.765   7.310   0.542 -0.6749 -0.5935 -1.6148
   51MOL0     H 6871   9.279   7.243   0.350 -0.8117 -1.1857  2.0628
   51MOL0     H 6872   9.129   7.085   0.252 -0.0111 -0.3031 -0.2276
   51MOL0     H 6873   9.095   7.037   0.039  0.8095 -0.4113 -0.1708
   51MOL0     H 6874   9.016   6.885   0.011  0.8692 -0.7134 -1.8129
   51MOL0     H 6875   9.072   6.998  -0.207 -0.5338  0.7518  0.1458
   51MOL0     H 6876   9.163   6.837  -0.179  0.7051  0.3484  0.5162
   51MOL0     H 6877   9.310   6.995  -0.280  0.9391  1.5311 -0.2213
   51MOL0     H 6878   9.364   6.987  -0.110 -0.0598  0.8903  0.9677
   51MOL0     H 6879   9.145   7.197  -0.159  0.3642  1.5360 -1.8063
   51MOL0     H 6880   9.302   7.225  -0.089 -1.3133  0.7581  0.2936
   51MOL0     H 6881   9.296   7.364  -0.480 -0.0271  0.1185  1.9372
   51MOL0     H 6882   9.451   6.889   0.066  1.2713  0.6656 -0.7356
   51MOL0     H 6883   9.701   7.109   0.106  3.0657 -0.6896  1.9485
   51MOL0     H 6884   9.730   7.015   0.252  1.3988 -1.8379 -0.8846
   51MOL0     H 6885   9.668   6.948   0.093  0.5745  0.9351 -0.4240
   52MOL0     O 6886   6.122   8.225   3.478 -0.2167 -0.8398  0.2475
   52MOL0     C 6887   6.203   8.201   3.388  0.0435  0.7488 -0.5121
   52MOL0     O 6888   6.262   8.292   3.298 -0.7494 -0.1489 -0.4255
   52MOL0     C 6889   6.228   8.424   3.306 -0.6935  0.2336  0.0968
   52MOL0     C 6890   6.103   8.480   3.316 -0.5440 -0.3224  0.2555
   52MOL0     C 6891   6.084   8.618   3.304  0.6308  0.4993 -0.1551
   52MOL0     C 6892   6.200   8.699   3.275  0.3245 -0.0682  0.2065
   52MOL0     O 6893   6.198   8.836   3.263 -0.6807 -0.1885  0.5421
   52MOL0     C 6894   6.077   8.913   3.268  0.1422 -0.2253  0.8610
   52MOL0     C 6895   6.118   9.059   3.250 -0.2378 -0.5233 -0.7231
   52MOL0     C 6896   6.205   9.108   3.361  0.7104  0.1367 -0.3826
   52MOL0     C 6897   6.162   9.076   3.503 -0.0048 -0.0334 -0.5359
   52MOL0     C 6898   6.223   9.157   3.614 -0.0547  0.5144 -0.3071
   52MOL0     C 6899   6.374   9.140   3.622  0.8023 -0.0548  0.0949
   52MOL0     C 6900   6.434   9.232   3.725 -0.1609  0.5249 -0.0042
   52MOL0     C 6901   6.581   9.181   3.744  0.5823 -0.5488 -0.8340
   52MOL0     N 6902   6.670   9.227   3.632  0.2739  0.5755  0.1788
   52MOL0     C 6903   6.756   9.148   3.557 -0.3955 -0.0266  0.4266
   52MOL0     C 6904   6.818   9.243   3.477  0.9395  0.7970 -0.4581
   52MOL0     C 6905   6.927   9.210   3.382  0.4667 -0.2761 -0.0617
   52MOL0     C 6906   6.870   9.233   3.239 -0.7931 -0.4913  0.4039
   52MOL0     C 6907   6.948   9.158   3.135  0.7134  0.1715  0.5058
   52MOL0     C 6908   6.967   9.010   3.180  0.4689  0.2091  0.5853
   52MOL0     O 6909   6.982   8.937   3.053  0.1758 -0.0687 -0.4133
   52MOL0     C 6910   7.098   8.932   2.985 -0.2955  0.5722 -0.0800
   52MOL0     C 6911   7.079   8.886   2.848  0.1817 -0.0929  0.1357
   52MOL0     C 6912   7.185   8.877   2.762  0.6235  0.0670  0.0824
   52MOL0     C 6913   7.312   8.899   2.812 -0.0397 -0.0582  0.0805
   52MOL0     C 6914   7.423   8.886   2.722 -0.4588  1.1667  0.2022
   52MOL0     O 6915   7.401   8.838   2.595  0.3083 -0.3847  0.1397
   52MOL0     C 6916   7.511   8.816   2.512 -0.1225  0.2009  0.0746
   52MOL0     C 6917   7.620   8.731   2.551  0.5293  0.4570 -0.0233
   52MOL0     C 6918   7.729   8.708   2.459  0.9848  0.5163 -0.7160
   52MOL0     C 6919   7.716   8.763   2.325  0.3739  1.0744 -0.2133
   52MOL0     O 6920   7.824   8.773   2.239 -0.1544 -0.3182 -1.0213
   52MOL0     C 6921   7.916   8.881   2.281  0.8952  0.4551  0.1889
   52MOL0     C 6922   7.895   9.001   2.196  0.3263  0.1389 -0.1524
   52MOL0     C 6923   7.974   9.132   2.241  0.0955 -0.4700 -0.1847
   52MOL0     C 6924   8.120   9.108   2.209 -0.0322  0.2718  0.2558
   52MOL0     C 6925   8.196   9.243   2.223 -0.3156  0.6789  0.1507
   52MOL0     C 6926   8.145   9.331   2.110  0.7053  0.1750  0.2632
   52MOL0     C 6927   8.242   9.442   2.085 -0.1020  0.1660 -0.1307
   52MOL0     C 6928   8.184   9.532   1.974 -0.2359  0.2741  0.4357
   52MOL0    Cl 6929   8.035   9.630   2.026  0.5744  0.3534  0.2027
   52MOL0     C 6930   7.604   8.828   2.284  0.4082 -0.3134  0.6303
   52MOL0     C 6931   7.501   8.851   2.379  0.5643 -0.4965 -1.0221
   52MOL0     O 6932   7.533   8.910   2.768  0.1043  0.3759  0.5740
   52MOL0     C 6933   7.325   8.958   2.941 -0.2837  0.1580 -0.1678
   52MOL0     C 6934   7.226   8.970   3.034  0.2739 -1.2060  0.2277
   52MOL0     N 6935   6.778   9.375   3.505  0.6339  0.5333  0.0694
   52MOL0     N 6936   6.691   9.367   3.608  0.9776  0.2799 -0.3994
   52MOL0     C 6937   6.327   8.642   3.262  0.3681 -0.4161  0.8332
   52MOL0     C 6938   6.340   8.504   3.281 -0.2397  1.0644  0.6494
   52MOL0     C 6939   6.257   8.065   3.384  0.3050  0.0949  0.1075
   52MOL0     C 6940   6.378   8.041   3.316  1.0150 -1.2803  0.6140
   52MOL0     C 6941   6.432   7.912   3.300 -0.9250  0.0024  0.7661
   52MOL0     C 6942   6.371   7.799   3.348 -0.9040 -0.5369  0.1568
   52MOL0     O 6943   6.425   7.675   3.349  0.5258 -0.6640 -0.0854
   52MOL0     C 6944   6.342   7.577   3.278  0.6331  0.0664 -0.7167
   52MOL0     C 6945   6.413   7.437   3.304  0.6018 -0.7049 -0.1539
   52MOL0     C 6946   6.534   7.413   3.208 -0.2415 -0.2013  0.0277
   52MOL0     C 6947   6.624   7.288   3.243 -0.2762 -0.0274  0.2293
   52MOL0     C 6948   6.715   7.314   3.358 -0.2230 -0.0106  0.2919
   52MOL0     C 6949   6.798   7.335   3.447  0.7634  0.8009  0.8431
   52MOL0     C 6950   6.254   7.824   3.420 -0.5594 -1.3025 -0.1619
   52MOL0     C 6951   6.189   7.950   3.433  0.1417 -0.0703  0.5500
   52MOL0     C 6952   6.051   7.962   3.503 -0.7454  1.1488  0.9162
   52MOL0     H 6953   6.032   8.398   3.318 -0.0440 -0.7619  2.9115
   52MOL0     H 6954   5.990   8.673   3.313  0.9958  0.9295  1.2904
   52MOL0     H 6955   6.025   8.886   3.175  2.5672 -0.0584 -0.6303
   52MOL0     H 6956   6.015   8.898   3.356 -1.4338 -0.9033 -0.3053
   52MOL0     H 6957   6.031   9.125   3.253 -0.3137 -0.6166 -0.8855
   52MOL0     H 6958   6.168   9.060   3.153  1.0919 -1.5048 -0.0882
   52MOL0     H 6959   6.205   9.217   3.353 -2.4190  0.3918  1.4157
   52MOL0     H 6960   6.308   9.073   3.350  0.0745 -1.6386 -1.2023
   52MOL0     H 6961   6.055   9.088   3.525 -0.3206 -0.7304 -1.5851
   52MOL0     H 6962   6.163   8.972   3.536 -2.6956  1.0680  3.9611
   52MOL0     H 6963   6.194   9.261   3.599 -1.3332  0.4274  1.2975
   52MOL0     H 6964   6.187   9.131   3.714  1.5181  1.7413  0.6293
   52MOL0     H 6965   6.396   9.036   3.644 -1.3397 -0.6283 -0.1947
   52MOL0     H 6966   6.410   9.152   3.519 -1.6417 -1.2409 -0.9793
   52MOL0     H 6967   6.370   9.216   3.813 -1.1792  0.0788 -0.8061
   52MOL0     H 6968   6.426   9.338   3.699  0.3506  0.2753 -1.2436
   52MOL0     H 6969   6.626   9.228   3.833  2.6298  1.4718 -2.8154
   52MOL0     H 6970   6.587   9.072   3.752  0.1447 -0.5296 -0.1211
   52MOL0     H 6971   6.769   9.040   3.559 -1.8438 -0.2342 -0.2640
   52MOL0     H 6972   7.026   9.255   3.396  0.3215 -0.2327  0.9295
   52MOL0     H 6973   6.945   9.106   3.412 -0.1644 -0.0036  1.3849
   52MOL0     H 6974   6.769   9.191   3.244  0.1323 -2.7711  2.0810
   52MOL0     H 6975   6.869   9.340   3.220  1.6125 -1.0538 -4.3243
   52MOL0     H 6976   7.047   9.205   3.133  0.3284  0.9934  0.4871
   52MOL0     H 6977   6.908   9.169   3.034 -0.7224  1.1033  1.1548
   52MOL0     H 6978   6.879   8.978   3.237  1.4299 -0.3484  1.7944
   52MOL0     H 6979   7.061   8.991   3.231  1.0205  1.8278  0.2118
   52MOL0     H 6980   6.976   8.867   2.822 -0.2229  0.1256  1.4729
   52MOL0     H 6981   7.175   8.829   2.665  0.9667 -1.1293  0.6119
   52MOL0     H 6982   7.625   8.707   2.656 -3.0388  0.9016  0.3618
   52MOL0     H 6983   7.821   8.668   2.501  1.2434 -1.1646 -2.6950
   52MOL0     H 6984   7.910   8.893   2.390  1.6115  1.1453  0.1596
   52MOL0     H 6985   8.019   8.847   2.266  1.2481  2.5092 -3.1131
   52MOL0     H 6986   7.943   8.976   2.101  3.5866  1.1771  1.0948
   52MOL0     H 6987   7.792   9.037   2.197 -0.4584 -1.8584  2.6973
   52MOL0     H 6988   7.931   9.207   2.175 -2.9180 -2.8643 -1.2111
   52MOL0     H 6989   7.956   9.158   2.346  3.2032  1.8278 -0.0681
   52MOL0     H 6990   8.138   9.059   2.113 -1.5343 -0.7824  0.4666
   52MOL0     H 6991   8.152   9.038   2.286  1.9697  0.9162  0.0642
   52MOL0     H 6992   8.300   9.216   2.205 -1.0250 -2.3828  0.0461
   52MOL0     H 6993   8.190   9.287   2.323  1.3758  0.6719  0.2841
   52MOL0     H 6994   8.127   9.276   2.017  2.3017  0.4896 -0.2504
   52MOL0     H 6995   8.051   9.379   2.139 -0.4477 -2.6715  1.7245
   52MOL0     H 6996   8.339   9.399   2.059  0.4534 -0.7895  3.0800
   52MOL0     H 6997   8.253   9.496   2.179 -5.6760 -2.0736  2.2517
   52MOL0     H 6998   8.261   9.606   1.951  1.6469 -1.4401  0.9591
   52MOL0     H 6999   8.159   9.469   1.889 -1.6000  0.7363  0.4752
   52MOL0     H 7000   7.593   8.864   2.182 -1.5567  3.8027  2.0761
   52MOL0     H 7001   7.407   8.892   2.343  0.3692 -1.9818 -2.3237
   52MOL0     H 7002   7.421   9.002   2.965 -0.5879  0.0168  1.4497
   52MOL0     H 7003   7.247   9.017   3.130 -0.7666  0.5158 -0.3444
   52MOL0     H 7004   6.408   8.714   3.249 -0.4775  0.3066 -0.8047
   52MOL0     H 7005   6.438   8.459   3.270 -0.7151 -0.2873  1.6380
   52MOL0     H 7006   6.436   8.123   3.274  1.6780 -3.5071 -3.3408
   52MOL0     H 7007   6.530   7.898   3.256 -2.1043 -2.0659 -1.4530
   52MOL0     H 7008   6.330   7.595   3.171  1.7329 -2.0539 -1.2571
   52MOL0     H 7009   6.241   7.569   3.318  0.0770 -0.3369 -2.1546
   52MOL0     H 7010   6.343   7.353   3.294  0.1908 -0.3426 -0.3255
   52MOL0     H 7011   6.436   7.436   3.411  0.4998  1.6338 -0.0699
   52MOL0     H 7012   6.593   7.502   3.185  1.2142 -1.1042  0.1425
   52MOL0     H 7013   6.501   7.394   3.106 -0.0997 -0.9346  0.1104
   52MOL0     H 7014   6.565   7.199   3.268  2.3237 -1.8707  0.1953
   52MOL0     H 7015   6.695   7.274   3.161  3.1965  0.7569  2.8432
   52MOL0     H 7016   6.869   7.367   3.521  1.4886  1.0418  0.0609
   52MOL0     H 7017   6.219   7.736   3.473 -1.0598  0.0998  1.9518
   52MOL0     H 7018   5.972   7.995   3.435 -0.2250 -2.8668 -2.0155
   52MOL0     H 7019   6.029   7.859   3.534  2.6342 -0.8074 -2.3438
   52MOL0     H 7020   6.059   8.023   3.594  0.6359  0.4624  1.2718
   53MOL0     O 7021   3.820   3.573  10.488  0.7669 -0.8144 -0.4794
   53MOL0     C 7022   3.889   3.524  10.578 -0.6255  0.0493 -1.1578
   53MOL0     O 7023   4.022   3.542  10.599  0.0324  0.3578  0.3485
   53MOL0     C 7024   4.090   3.571  10.491  0.5486 -0.5626  0.5500
   53MOL0     C 7025   4.124   3.704  10.457 -1.6739  0.5146  0.0644
   53MOL0     C 7026   4.179   3.730  10.322 -0.3222  0.3416 -0.0671
   53MOL0     C 7027   4.217   3.625  10.237 -0.8937  0.4797 -0.0538
   53MOL0     O 7028   4.273   3.635  10.111 -0.0832 -0.5296  0.4244
   53MOL0     C 7029   4.380   3.725  10.079 -0.1841  0.9244  0.1314
   53MOL0     C 7030   4.465   3.680   9.972  0.0061 -0.4866 -0.2287
   53MOL0     C 7031   4.398   3.650   9.837 -0.1060  0.1487  0.3684
   53MOL0     C 7032   4.502   3.648   9.732 -0.6565 -0.0559  0.5312
   53MOL0     C 7033   4.445   3.641   9.585 -0.7352  0.6613 -1.0842
   53MOL0     C 7034   4.569   3.627   9.497 -0.8935 -0.5466  0.5874
   53MOL0     C 7035   4.544   3.576   9.354  0.6097  0.5020  0.1284
   53MOL0     C 7036   4.461   3.451   9.341 -0.1719  0.3865 -0.1434
   53MOL0     N 7037   4.511   3.390   9.211  0.8224  0.6577 -0.2951
   53MOL0     C 7038   4.476   3.449   9.093  0.2714  1.0870 -0.8222
   53MOL0     C 7039   4.533   3.370   9.005 -0.2749 -0.2729 -0.0614
   53MOL0     C 7040   4.549   3.390   8.859 -0.2332  0.8146 -0.5279
   53MOL0     C 7041   4.636   3.503   8.821  0.6649 -0.0592 -0.0865
   53MOL0     C 7042   4.777   3.519   8.894  1.1320  1.3421  0.3437
   53MOL0     C 7043   4.872   3.399   8.897 -0.3476  0.4985 -0.9222
   53MOL0     O 7044   4.886   3.348   8.766 -0.1439 -0.0231 -0.4423
   53MOL0     C 7045   4.951   3.419   8.667  0.1188 -0.1263  0.2103
   53MOL0     C 7046   4.913   3.376   8.538 -0.2248  0.8380 -0.8118
   53MOL0     C 7047   4.947   3.448   8.430  0.0556 -0.7653 -0.3003
   53MOL0     C 7048   5.031   3.566   8.449 -0.1050 -0.6211 -0.3209
   53MOL0     C 7049   5.095   3.622   8.332 -0.9654 -0.3632  0.1021
   53MOL0     O 7050   5.163   3.742   8.351  0.0386 -0.6544  0.3460
   53MOL0     C 7051   5.234   3.798   8.252 -0.3422 -0.1072  0.4740
   53MOL0     C 7052   5.314   3.733   8.162 -0.1296  0.0361 -0.5149
   53MOL0     C 7053   5.376   3.790   8.068  0.4362 -0.1438 -0.3381
   53MOL0     C 7054   5.380   3.930   8.050  0.3231  0.2858  0.4602
   53MOL0     O 7055   5.448   3.998   7.945 -0.0656  0.1598  0.0685
   53MOL0     C 7056   5.535   3.921   7.863 -0.2085  0.0257  0.6136
   53MOL0     C 7057   5.679   3.911   7.921 -0.6944 -0.6496 -0.5426
   53MOL0     C 7058   5.781   3.845   7.835  0.6049 -0.3706  0.3387
   53MOL0     C 7059   5.922   3.874   7.875 -0.3769 -0.7650  0.0345
   53MOL0     C 7060   6.013   3.831   7.768  0.6230  0.0269  0.2720
   53MOL0     C 7061   6.159   3.880   7.800 -0.1565 -0.0501 -0.4822
   53MOL0     C 7062   6.209   3.862   7.940  0.3764 -0.6071  0.9323
   53MOL0     C 7063   6.361   3.875   7.952 -1.1600 -0.7692 -0.2952
   53MOL0    Cl 7064   6.467   3.742   7.877  0.7218  0.1808 -0.2171
   53MOL0     C 7065   5.298   4.003   8.134  0.6680  0.1959 -0.9807
   53MOL0     C 7066   5.230   3.940   8.237 -0.1728  0.4230 -0.4631
   53MOL0     O 7067   5.083   3.563   8.223  0.5271  0.8651 -0.2005
   53MOL0     C 7068   5.074   3.612   8.577  0.1093 -0.3535  0.7698
   53MOL0     C 7069   5.034   3.534   8.691  0.3703  0.5874  0.0682
   53MOL0     N 7070   4.595   3.263   9.067  0.1628  0.4505 -0.4167
   53MOL0     N 7071   4.574   3.270   9.191 -0.4742 -0.9486  0.0410
   53MOL0     C 7072   4.192   3.490  10.278  1.1811 -0.6116  0.2364
   53MOL0     C 7073   4.124   3.468  10.398  0.2716 -0.1769  0.1603
   53MOL0     C 7074   3.820   3.469  10.701  0.3103  0.7823  0.3722
   53MOL0     C 7075   3.874   3.499  10.829 -0.0297 -1.2242  0.6030
   53MOL0     C 7076   3.813   3.443  10.937 -0.0691 -0.5366 -0.5736
   53MOL0     C 7077   3.705   3.359  10.930  0.2992  0.3216 -0.2221
   53MOL0     O 7078   3.657   3.302  11.039  0.2990  0.4384 -0.3106
   53MOL0     C 7079   3.568   3.371  11.126  0.0879  0.2084  0.1618
   53MOL0     C 7080   3.571   3.313  11.262  0.6703 -0.5509  0.2529
   53MOL0     C 7081   3.463   3.196  11.280  0.3368 -0.6901  0.5963
   53MOL0     C 7082   3.312   3.239  11.255  0.0006 -0.5570  0.2912
   53MOL0     C 7083   3.259   3.211  11.117 -0.3588 -0.0215 -0.6495
   53MOL0     C 7084   3.221   3.176  11.009 -0.5162  0.3553 -0.0113
   53MOL0     C 7085   3.655   3.322  10.808  0.3572  0.0388  0.5393
   53MOL0     C 7086   3.703   3.384  10.692  0.8775  0.4103 -0.4061
   53MOL0     C 7087   3.638   3.344  10.562 -0.0676  0.7805 -0.1210
   53MOL0     H 7088   4.077   3.778  10.520 -1.0743  0.5834  0.4385
   53MOL0     H 7089   4.183   3.832  10.285  0.3957  1.6092  3.1219
   53MOL0     H 7090   4.333   3.815  10.037 -1.5578  0.0935 -0.1650
   53MOL0     H 7091   4.436   3.746  10.171  0.1328 -0.9733  0.4103
   53MOL0     H 7092   4.522   3.592  10.002 -0.0152 -0.4101  0.0388
   53MOL0     H 7093   4.548   3.751   9.963  0.1623 -0.1203  2.8747
   53MOL0     H 7094   4.329   3.732   9.814  0.0165 -0.0026 -0.5852
   53MOL0     H 7095   4.357   3.548   9.838  0.5870 -0.1312  1.0710
   53MOL0     H 7096   4.553   3.744   9.735 -3.6942  1.6668  0.1846
   53MOL0     H 7097   4.583   3.575   9.749  0.9877  1.1085 -1.7524
   53MOL0     H 7098   4.384   3.550   9.576 -0.4274  0.0895  1.6325
   53MOL0     H 7099   4.376   3.725   9.574 -0.5262  0.9982  0.0215
   53MOL0     H 7100   4.628   3.719   9.497 -0.3934 -0.8622  1.2899
   53MOL0     H 7101   4.631   3.551   9.544 -0.2918 -0.9321 -0.7767
   53MOL0     H 7102   4.639   3.553   9.305 -0.8743 -1.0944 -2.2452
   53MOL0     H 7103   4.505   3.660   9.297  0.7822  0.9471  0.6656
   53MOL0     H 7104   4.487   3.385   9.425  1.2948  1.6966  0.4869
   53MOL0     H 7105   4.353   3.465   9.336  0.2600  4.2957 -1.7294
   53MOL0     H 7106   4.417   3.536   9.067  0.9768  1.6411 -0.5941
   53MOL0     H 7107   4.579   3.295   8.813 -1.1730  0.2000  0.0899
   53MOL0     H 7108   4.451   3.405   8.813 -0.8837 -1.2683  0.0616
   53MOL0     H 7109   4.654   3.491   8.714 -3.5761  0.3740 -1.0224
   53MOL0     H 7110   4.586   3.600   8.822 -0.7311 -0.6848 -2.1703
   53MOL0     H 7111   4.756   3.550   8.997  0.1259 -1.8809  1.1964
   53MOL0     H 7112   4.824   3.610   8.854  1.1711  2.3180  2.4753
   53MOL0     H 7113   4.831   3.319   8.960  2.0987  1.2404  1.8588
   53MOL0     H 7114   4.969   3.437   8.928  0.3920  0.4053 -2.9650
   53MOL0     H 7115   4.865   3.281   8.517 -1.0713  0.5252  2.1326
   53MOL0     H 7116   4.920   3.414   8.330  0.4597 -4.5290  0.7085
   53MOL0     H 7117   5.321   3.625   8.170  0.8014  0.2152  1.9167
   53MOL0     H 7118   5.433   3.720   8.007  3.3150 -0.8779  2.8649
   53MOL0     H 7119   5.489   3.823   7.847 -2.3129  0.5862  2.6652
   53MOL0     H 7120   5.554   3.980   7.773 -0.8824 -0.7776 -0.0767
   53MOL0     H 7121   5.712   4.014   7.939 -1.0911 -0.6184  0.0357
   53MOL0     H 7122   5.676   3.869   8.022  2.2298  1.1560  0.4235
   53MOL0     H 7123   5.763   3.737   7.843 -0.9354 -0.6241 -3.8889
   53MOL0     H 7124   5.764   3.881   7.733 -1.6289 -0.6743  0.5453
   53MOL0     H 7125   5.937   3.819   7.968 -0.6407  1.5423  1.5008
   53MOL0     H 7126   5.944   3.978   7.900 -1.0412  0.0625 -2.4599
   53MOL0     H 7127   5.989   3.871   7.669 -1.2612 -4.3990 -1.3437
   53MOL0     H 7128   6.002   3.723   7.757  0.8789  0.0567 -0.3045
   53MOL0     H 7129   6.230   3.834   7.731 -0.4658 -2.0223  0.4398
   53MOL0     H 7130   6.165   3.987   7.778  1.0331  0.5067  2.2141
   53MOL0     H 7131   6.191   3.756   7.963  3.4694 -1.5060 -0.3699
   53MOL0     H 7132   6.148   3.923   8.008  1.0012 -2.5426  3.3711
   53MOL0     H 7133   6.391   3.969   7.905 -0.0638 -1.2210 -0.5240
   53MOL0     H 7134   6.382   3.879   8.059 -0.2400 -1.2306 -0.4463
   53MOL0     H 7135   5.279   4.109   8.120 -1.9258 -0.3136 -1.9643
   53MOL0     H 7136   5.168   3.995   8.306  0.3940 -0.0015  0.4068
   53MOL0     H 7137   5.145   3.693   8.582  0.0956 -0.0843 -1.9048
   53MOL0     H 7138   5.067   3.555   8.792  2.7641  1.3629 -0.7970
   53MOL0     H 7139   4.205   3.414  10.202 -0.5295 -0.0688 -0.6547
   53MOL0     H 7140   4.095   3.368  10.427 -1.3283  0.4244  0.8048
   53MOL0     H 7141   3.965   3.556  10.838 -1.0529  0.1628  2.9183
   53MOL0     H 7142   3.850   3.453  11.039 -3.7399  1.2040  0.7602
   53MOL0     H 7143   3.467   3.376  11.084  0.0022  3.2321  0.5407
   53MOL0     H 7144   3.594   3.476  11.139  3.6168 -0.4369 -0.6825
   53MOL0     H 7145   3.545   3.391  11.335 -1.7692 -1.9284  0.9463
   53MOL0     H 7146   3.671   3.275  11.285  1.5655  2.1176  1.1276
   53MOL0     H 7147   3.464   3.159  11.383  0.0114  1.0129  1.2469
   53MOL0     H 7148   3.476   3.115  11.207 -0.8141  2.1606 -3.1292
   53MOL0     H 7149   3.250   3.180  11.324 -1.1564  0.6562  0.3399
   53MOL0     H 7150   3.295   3.345  11.277 -1.1507 -0.5269 -0.6123
   53MOL0     H 7151   3.182   3.161  10.910  2.2684  2.1263 -1.5136
   53MOL0     H 7152   3.570   3.255  10.810  0.2618  0.0767 -0.8209
   53MOL0     H 7153   3.710   3.337  10.480  1.4087  1.5910  1.0788
   53MOL0     H 7154   3.585   3.251  10.588  1.6176 -0.1624  0.0676
   53MOL0     H 7155   3.563   3.413  10.524 -1.9504 -0.2304  1.5486
   54MOL0     O 7156   2.783   0.176   1.386 -0.3024  0.3855 -0.4118
   54MOL0     C 7157   2.690   0.194   1.307 -0.6327 -0.7484 -0.4369
   54MOL0     O 7158   2.682   0.313   1.246 -0.3323 -0.0840  0.8427
   54MOL0     C 7159   2.790   0.395   1.228 -0.0226 -0.4026  0.2977
   54MOL0     C 7160   2.761   0.535   1.220 -0.9584 -0.1004  0.0543
   54MOL0     C 7161   2.860   0.630   1.183  0.1070  0.4162 -0.2019
   54MOL0     C 7162   2.994   0.586   1.174 -0.3396  0.5166 -1.0053
   54MOL0     O 7163   3.090   0.679   1.161 -0.3709  0.4930 -0.4360
   54MOL0     C 7164   3.222   0.656   1.219  0.7769  0.1997  0.1054
   54MOL0     C 7165   3.315   0.632   1.111  0.2372  0.8722  0.9944
   54MOL0     C 7166   3.349   0.764   1.031  0.3988  0.6839 -0.5507
   54MOL0     C 7167   3.456   0.735   0.918  0.2928 -0.0390  0.7198
   54MOL0     C 7168   3.388   0.681   0.794  0.3742  1.1855 -0.5624
   54MOL0     C 7169   3.489   0.664   0.683  0.1732  0.2592  0.4593
   54MOL0     C 7170   3.419   0.680   0.543  0.7219 -0.0560 -0.5281
   54MOL0     C 7171   3.401   0.832   0.508  0.4326  0.2544  0.3625
   54MOL0     N 7172   3.438   0.884   0.378  0.1579  0.5448 -0.4089
   54MOL0     C 7173   3.564   0.908   0.335 -0.0405 -0.8624  0.2691
   54MOL0     C 7174   3.549   0.927   0.207 -0.2912  0.4425  0.1799
   54MOL0     C 7175   3.655   0.995   0.116  0.4986  0.0318 -0.6283
   54MOL0     C 7176   3.683   0.902  -0.006 -0.3821 -0.4593  0.2585
   54MOL0     C 7177   3.774   0.959  -0.115 -1.2361 -1.1419 -0.7560
   54MOL0     C 7178   3.747   1.100  -0.175 -0.1803  0.6490 -0.1014
   54MOL0     O 7179   3.844   1.114  -0.282  0.0245 -0.2203 -0.6831
   54MOL0     C 7180   3.856   1.236  -0.341  0.1565  0.9557  0.0821
   54MOL0     C 7181   3.830   1.361  -0.276  0.0432  0.5831 -0.3744
   54MOL0     C 7182   3.838   1.472  -0.351  0.0587  0.6806  0.1269
   54MOL0     C 7183   3.877   1.481  -0.487  0.9818 -0.5975  0.0055
   54MOL0     C 7184   3.902   1.609  -0.552 -0.8880 -0.7169  1.0594
   54MOL0     O 7185   3.868   1.618  -0.689 -0.4181  0.2243  0.7444
   54MOL0     C 7186   3.890   1.732  -0.763 -0.0842 -0.1217 -0.1462
   54MOL0     C 7187   3.815   1.735  -0.872  0.9133 -0.0758  0.3003
   54MOL0     C 7188   3.818   1.848  -0.956  0.9002 -1.0148 -0.3324
   54MOL0     C 7189   3.901   1.960  -0.931 -0.2554  0.1472 -0.3320
   54MOL0     O 7190   3.898   2.073  -1.017  0.2727  0.0087 -0.1111
   54MOL0     C 7191   4.020   2.137  -1.041 -0.4259  0.1798  0.2333
   54MOL0     C 7192   3.999   2.242  -1.146  0.1410 -0.0799  0.9153
   54MOL0     C 7193   4.136   2.310  -1.174 -1.1261  0.4789  0.4977
   54MOL0     C 7194   4.118   2.437  -1.260 -0.6637  0.0126  0.4857
   54MOL0     C 7195   4.221   2.466  -1.374  0.5643  0.3671 -0.3438
   54MOL0     C 7196   4.173   2.579  -1.466  0.2923  0.6352  0.5809
   54MOL0     C 7197   4.217   2.561  -1.612  0.2732  0.2662 -0.1461
   54MOL0     C 7198   4.209   2.697  -1.683 -0.2379 -0.2311 -0.6462
   54MOL0    Cl 7199   4.329   2.682  -1.818 -0.1570  0.0388 -0.2248
   54MOL0     C 7200   3.982   1.952  -0.816  0.6388 -0.0883 -0.4618
   54MOL0     C 7201   3.975   1.841  -0.733 -1.1004 -0.1957  1.0448
   54MOL0     O 7202   3.936   1.704  -0.484 -0.0159  0.8392 -0.4880
   54MOL0     C 7203   3.902   1.354  -0.548 -0.5288  0.0713  0.0332
   54MOL0     C 7204   3.892   1.241  -0.473  0.2264  0.1156 -0.8649
   54MOL0     N 7205   3.423   0.887   0.175  0.6997  0.3496  0.0724
   54MOL0     N 7206   3.349   0.878   0.274 -0.1989  0.4969  0.0484
   54MOL0     C 7207   3.016   0.447   1.171  0.0305  0.6344 -0.5703
   54MOL0     C 7208   2.917   0.352   1.189 -0.2390 -0.1213 -0.5320
   54MOL0     C 7209   2.595   0.084   1.287 -0.3844  0.1064  0.1956
   54MOL0     C 7210   2.637  -0.047   1.322  0.8313  1.6397  0.4494
   54MOL0     C 7211   2.559  -0.156   1.308 -0.1759 -0.5592 -0.7755
   54MOL0     C 7212   2.431  -0.150   1.245  0.1322  0.2797  0.0058
   54MOL0     O 7213   2.362  -0.262   1.224  0.0013  0.0555 -0.0148
   54MOL0     C 7214   2.235  -0.265   1.151  0.0252 -0.7972  0.2409
   54MOL0     C 7215   2.224  -0.403   1.079 -0.0632 -0.8396  0.4217
   54MOL0     C 7216   2.082  -0.413   1.009 -1.5600  0.5429 -0.1023
   54MOL0     C 7217   2.066  -0.543   0.916  0.7853  0.6028 -0.2463
   54MOL0     C 7218   1.947  -0.535   0.835 -0.1470 -0.7652  0.2564
   54MOL0     C 7219   1.871  -0.510   0.745  0.2910  0.2698 -0.6623
   54MOL0     C 7220   2.386  -0.019   1.209  0.3954  0.4113 -0.7961
   54MOL0     C 7221   2.476   0.090   1.207 -0.2078 -0.3371 -0.0775
   54MOL0     C 7222   2.425   0.227   1.151  0.6172  0.7158 -0.4535
   54MOL0     H 7223   2.663   0.578   1.242 -0.0957  1.7452  0.5270
   54MOL0     H 7224   2.841   0.734   1.161 -0.6249  0.1988 -0.6678
   54MOL0     H 7225   3.253   0.737   1.284 -0.0711 -1.3076  2.5267
   54MOL0     H 7226   3.224   0.570   1.287 -0.1228  0.4414  0.4553
   54MOL0     H 7227   3.290   0.558   1.035  0.7896 -0.6398  2.2361
   54MOL0     H 7228   3.409   0.593   1.151  3.0520  0.1134 -5.1919
   54MOL0     H 7229   3.391   0.841   1.097  1.2054  0.2286 -0.5197
   54MOL0     H 7230   3.263   0.815   0.987 -0.7934 -1.6972 -1.1402
   54MOL0     H 7231   3.495   0.834   0.893  0.9444 -0.7819 -1.5236
   54MOL0     H 7232   3.540   0.669   0.945 -0.4328 -0.1197  2.9325
   54MOL0     H 7233   3.325   0.592   0.807  1.8093  0.3211  0.8074
   54MOL0     H 7234   3.318   0.763   0.775 -1.0624 -0.0037 -0.5855
   54MOL0     H 7235   3.579   0.726   0.687  1.7206 -1.6483 -1.6329
   54MOL0     H 7236   3.523   0.561   0.694 -0.0110  0.2667  1.1528
   54MOL0     H 7237   3.326   0.623   0.543  0.7344 -0.1000  0.3169
   54MOL0     H 7238   3.487   0.639   0.468 -0.8343  0.1715 -2.1179
   54MOL0     H 7239   3.300   0.870   0.525  0.3644  2.2596 -3.4266
   54MOL0     H 7240   3.458   0.888   0.583 -2.7421  1.0122  2.3952
   54MOL0     H 7241   3.633   0.932   0.415 -2.7741  1.4975  2.1385
   54MOL0     H 7242   3.622   1.090   0.073  3.5295  2.0965  1.2354
   54MOL0     H 7243   3.748   1.006   0.171 -0.2405 -0.4963  0.7738
   54MOL0     H 7244   3.716   0.802   0.024  0.3552  0.3485  2.4031
   54MOL0     H 7245   3.596   0.881  -0.067  3.0236 -0.6483 -5.1742
   54MOL0     H 7246   3.787   0.902  -0.207 -1.2489 -0.2237 -1.3458
   54MOL0     H 7247   3.877   0.963  -0.077 -1.9192 -0.7688  1.1986
   54MOL0     H 7248   3.774   1.174  -0.099  0.3902 -0.2955  0.6269
   54MOL0     H 7249   3.641   1.105  -0.204 -0.0329 -1.2900 -1.0851
   54MOL0     H 7250   3.808   1.369  -0.170  1.8832  1.9718 -0.0476
   54MOL0     H 7251   3.819   1.565  -0.297 -1.5013  1.4762 -1.6566
   54MOL0     H 7252   3.738   1.661  -0.893  1.2960  0.4193 -3.4100
   54MOL0     H 7253   3.749   1.859  -1.039  1.8840  2.0702 -0.8940
   54MOL0     H 7254   4.045   2.185  -0.946 -1.1907 -5.0899  3.4993
   54MOL0     H 7255   4.091   2.060  -1.072  1.1064  0.0506  3.6072
   54MOL0     H 7256   3.954   2.199  -1.235 -0.1391  2.6714 -0.3863
   54MOL0     H 7257   3.929   2.317  -1.108 -1.3528 -1.7463  1.5958
   54MOL0     H 7258   4.203   2.330  -1.090  2.0417 -0.5259 -1.6128
   54MOL0     H 7259   4.185   2.236  -1.237 -1.5691  1.0227 -0.5292
   54MOL0     H 7260   4.091   2.524  -1.199  0.3242 -0.1783  1.2232
   54MOL0     H 7261   4.027   2.411  -1.314 -0.4530 -1.2886  0.7205
   54MOL0     H 7262   4.229   2.372  -1.429  1.5375  1.1069 -1.5186
   54MOL0     H 7263   4.318   2.491  -1.331 -0.1982 -0.4990  2.0761
   54MOL0     H 7264   4.064   2.591  -1.458  0.0149 -2.0328  1.8713
   54MOL0     H 7265   4.220   2.668  -1.424  1.7147 -0.9466  2.5017
   54MOL0     H 7266   4.155   2.488  -1.664  0.6880  0.1880 -0.5357
   54MOL0     H 7267   4.321   2.529  -1.614  0.4733  0.9456 -1.5927
   54MOL0     H 7268   4.110   2.716  -1.726 -0.3890  0.5599  0.0143
   54MOL0     H 7269   4.229   2.786  -1.622 -1.0441 -0.2891 -0.2824
   54MOL0     H 7270   4.048   2.030  -0.778  0.5318  1.2272 -2.8052
   54MOL0     H 7271   4.046   1.831  -0.651  3.7019 -3.6265 -2.9553
   54MOL0     H 7272   3.926   1.349  -0.653  0.2873 -2.0511  0.2652
   54MOL0     H 7273   3.902   1.145  -0.524  1.7883 -0.0444 -0.3197
   54MOL0     H 7274   3.109   0.399   1.144 -0.5494 -0.5414 -0.5835
   54MOL0     H 7275   2.944   0.247   1.180 -0.7174 -0.2881 -0.0671
   54MOL0     H 7276   2.722  -0.064   1.387  0.5383  2.6880  1.1460
   54MOL0     H 7277   2.587  -0.255   1.341  0.5514 -0.1539 -0.1456
   54MOL0     H 7278   2.229  -0.185   1.078 -0.3202  0.6422  1.7862
   54MOL0     H 7279   2.152  -0.248   1.221 -0.7683  0.3623 -0.9440
   54MOL0     H 7280   2.239  -0.484   1.151 -1.0203 -0.8885  0.5877
   54MOL0     H 7281   2.306  -0.402   1.007  3.0524  2.3784  3.6338
   54MOL0     H 7282   2.061  -0.325   0.946 -1.7381  1.0765  0.6914
   54MOL0     H 7283   2.012  -0.417   1.093  2.2380  0.8936  3.3686
   54MOL0     H 7284   2.151  -0.551   0.847  0.9429  2.9761 -0.4015
   54MOL0     H 7285   2.062  -0.635   0.975  2.0793 -0.6833 -2.0612
   54MOL0     H 7286   1.807  -0.466   0.671  0.8723  2.9565  0.3221
   54MOL0     H 7287   2.304  -0.005   1.139  1.7375  1.2801 -2.2719
   54MOL0     H 7288   2.401   0.290   1.237 -2.8554 -2.0045  0.8018
   54MOL0     H 7289   2.490   0.290   1.090  1.5569  3.0700  2.6983
   54MOL0     H 7290   2.334   0.200   1.096  0.6471  0.6928 -0.4911
   55MOL0     O 7291   7.464   0.850   3.520  0.2728 -0.2727  0.0995
   55MOL0     C 7292   7.385   0.941   3.528 -0.1502 -1.0014 -0.8703
   55MOL0     O 7293   7.410   1.063   3.595  0.0706  0.0893  0.1242
   55MOL0     C 7294   7.548   1.075   3.629  0.2193 -0.2696 -0.2906
   55MOL0     C 7295   7.589   1.011   3.744 -0.1734 -0.4383 -0.5703
   55MOL0     C 7296   7.728   1.006   3.776 -0.1167 -0.0467  0.0722
   55MOL0     C 7297   7.809   1.086   3.694 -0.0872  0.5525  0.4789
   55MOL0     O 7298   7.947   1.079   3.710 -0.6158  0.1113 -0.1870
   55MOL0     C 7299   8.012   1.200   3.756 -0.6098 -0.2877  0.1842
   55MOL0     C 7300   7.995   1.227   3.907 -0.4236  0.0234 -0.4366
   55MOL0     C 7301   8.093   1.147   3.997 -0.5719 -0.2079 -0.1235
   55MOL0     C 7302   8.230   1.218   4.024 -0.0592  0.3376 -0.0511
   55MOL0     C 7303   8.223   1.327   4.140  0.5103  0.3777 -0.3038
   55MOL0     C 7304   8.225   1.472   4.101  0.2954  0.2569  0.9390
   55MOL0     C 7305   8.236   1.575   4.212 -0.4383 -0.4109  0.2024
   55MOL0     C 7306   8.125   1.567   4.317 -0.7748 -1.0229 -0.3640
   55MOL0     N 7307   8.140   1.682   4.401 -0.1605 -0.7218 -0.0190
   55MOL0     C 7308   8.175   1.683   4.533  0.6184  0.0018  0.2066
   55MOL0     C 7309   8.164   1.814   4.564  0.0121  0.4564  0.7456
   55MOL0     C 7310   8.196   1.882   4.696  0.6514  0.0138 -0.5030
   55MOL0     C 7311   8.331   1.949   4.697 -1.2274  0.1336  0.3984
   55MOL0     C 7312   8.450   1.854   4.681 -0.8183  0.2477 -0.2307
   55MOL0     C 7313   8.574   1.914   4.743  0.1646  0.1390 -0.7673
   55MOL0     O 7314   8.679   1.821   4.752 -0.2946  0.5588  0.4016
   55MOL0     C 7315   8.788   1.844   4.834  0.3331 -0.3105  0.8197
   55MOL0     C 7316   8.819   1.976   4.895 -0.4602 -0.5983  0.2377
   55MOL0     C 7317   8.918   1.988   4.990  1.0895  0.2965  0.0578
   55MOL0     C 7318   8.986   1.878   5.033 -0.2050  0.4951  0.5010
   55MOL0     C 7319   9.103   1.886   5.129  0.5387  0.2071  0.3264
   55MOL0     O 7320   9.175   1.770   5.171  0.2098  0.2990  0.6248
   55MOL0     C 7321   9.286   1.793   5.249  0.8157  0.0041  0.1487
   55MOL0     C 7322   9.390   1.887   5.242  0.3027 -0.0764  0.5100
   55MOL0     C 7323   9.503   1.868   5.318  0.0506  0.1100 -0.6767
   55MOL0     C 7324   9.513   1.775   5.422 -0.3977 -0.0444  0.0033
   55MOL0     O 7325   9.627   1.775   5.501 -0.9907 -0.7056 -0.8267
   55MOL0     C 7326   9.660   1.667   5.586 -0.3745 -0.2990 -0.4264
   55MOL0     C 7327   9.786   1.719   5.662  0.1170  0.6638 -0.6387
   55MOL0     C 7328   9.854   1.611   5.742 -0.1727  0.0377  0.1596
   55MOL0     C 7329   9.970   1.671   5.820 -0.7221  0.4863 -1.0094
   55MOL0     C 7330  10.030   1.582   5.926 -1.4461  0.5758 -0.1620
   55MOL0     C 7331  10.147   1.653   6.003 -0.4868 -0.2322  0.4753
   55MOL0     C 7332  10.223   1.560   6.098  0.2442 -0.7272 -0.0419
   55MOL0     C 7333  10.343   1.506   6.019  0.6118 -0.4268  0.0047
   55MOL0    Cl 7334  10.474   1.628   6.036  0.1536  0.1395 -0.1874
   55MOL0     C 7335   9.409   1.682   5.435  0.5153 -0.5825  0.3802
   55MOL0     C 7336   9.295   1.694   5.349 -0.6597  0.6537 -0.0686
   55MOL0     O 7337   9.129   1.999   5.167  0.0530  0.3227 -0.3946
   55MOL0     C 7338   8.955   1.756   4.975 -0.3414  0.6061 -0.7275
   55MOL0     C 7339   8.851   1.737   4.882  0.4242 -1.0605 -0.1369
   55MOL0     N 7340   8.121   1.885   4.454 -0.0042 -0.4784  0.9915
   55MOL0     N 7341   8.094   1.803   4.363 -0.0768  0.4759  0.2501
   55MOL0     C 7342   7.769   1.166   3.587 -0.0072  0.0294  0.4291
   55MOL0     C 7343   7.633   1.156   3.555  0.1201  0.1742 -0.0018
   55MOL0     C 7344   7.269   0.936   3.428 -1.3404 -0.8141 -0.3973
   55MOL0     C 7345   7.202   1.057   3.408  0.8372 -0.1887  0.2585
   55MOL0     C 7346   7.079   1.069   3.340 -0.6044  1.5349  0.8535
   55MOL0     C 7347   7.010   0.959   3.298  0.2993 -0.9818 -0.7033
   55MOL0     O 7348   6.877   0.978   3.256  0.0903  0.0921 -0.4748
   55MOL0     C 7349   6.779   0.878   3.295  1.1047 -0.4613 -0.6535
   55MOL0     C 7350   6.657   0.920   3.220  1.1602 -0.0915 -0.1415
   55MOL0     C 7351   6.595   1.052   3.274  0.6510 -0.3753  0.1643
   55MOL0     C 7352   6.467   1.077   3.196  0.0404 -0.2768 -0.0441
   55MOL0     C 7353   6.396   1.206   3.239  0.2501  0.1571  0.6108
   55MOL0     C 7354   6.344   1.299   3.287  0.7404 -0.4156  0.6393
   55MOL0     C 7355   7.079   0.834   3.316  0.4126 -0.4989 -0.9223
   55MOL0     C 7356   7.207   0.823   3.372  0.0477 -0.0447  0.4051
   55MOL0     C 7357   7.260   0.680   3.390  0.0847  0.4891 -0.0611
   55MOL0     H 7358   7.510   0.952   3.791 -0.9556 -3.0075 -4.5434
   55MOL0     H 7359   7.768   0.949   3.859 -0.0932  0.7146  0.5909
   55MOL0     H 7360   8.118   1.198   3.730 -0.5842 -0.2123  0.2760
   55MOL0     H 7361   7.977   1.283   3.695  0.0190 -1.8125 -2.3726
   55MOL0     H 7362   7.891   1.202   3.934  0.1352 -0.3269  1.5766
   55MOL0     H 7363   8.003   1.334   3.925 -1.0838 -0.3588  2.7674
   55MOL0     H 7364   8.118   1.053   3.946  0.8137 -0.2072  0.5280
   55MOL0     H 7365   8.051   1.119   4.093  0.6459  0.6759  0.6967
   55MOL0     H 7366   8.303   1.138   4.039 -2.9039 -2.2107  1.3081
   55MOL0     H 7367   8.263   1.260   3.929 -0.5286 -0.4076 -0.5539
   55MOL0     H 7368   8.122   1.315   4.181  0.5902 -1.9812 -0.6924
   55MOL0     H 7369   8.296   1.315   4.220  1.6455  2.7501 -0.8777
   55MOL0     H 7370   8.313   1.491   4.039 -0.1533 -1.1011 -0.1852
   55MOL0     H 7371   8.137   1.487   4.037  0.5137 -3.2508 -0.4026
   55MOL0     H 7372   8.231   1.674   4.166  0.1332 -0.8982 -0.9446
   55MOL0     H 7373   8.334   1.556   4.258  0.2130 -0.2130 -1.0381
   55MOL0     H 7374   8.022   1.558   4.283 -0.9180  0.4545 -0.3527
   55MOL0     H 7375   8.154   1.483   4.382 -1.1556  1.1117  2.8076
   55MOL0     H 7376   8.204   1.596   4.591  1.8913  0.9438  1.0414
   55MOL0     H 7377   8.115   1.954   4.708  0.1898 -0.7349  1.0568
   55MOL0     H 7378   8.199   1.815   4.782 -2.8117 -0.3509 -0.5471
   55MOL0     H 7379   8.333   2.034   4.628 -0.1917  1.7590  2.3333
   55MOL0     H 7380   8.342   1.990   4.798 -0.9011  0.6353  0.1658
   55MOL0     H 7381   8.468   1.851   4.573  1.6842  0.5516  0.1219
   55MOL0     H 7382   8.415   1.762   4.729 -1.4269  1.5571  1.9613
   55MOL0     H 7383   8.559   1.940   4.848 -1.6476  0.2421 -1.0084
   55MOL0     H 7384   8.609   1.999   4.684  1.6392 -0.3357 -0.6077
   55MOL0     H 7385   8.754   2.060   4.871  3.2176  2.8105  1.2283
   55MOL0     H 7386   8.945   2.088   5.022 -0.7301  1.0962 -0.7611
   55MOL0     H 7387   9.381   1.961   5.164 -3.3412 -0.1517  0.7068
   55MOL0     H 7388   9.591   1.929   5.303 -1.5527  1.9378 -3.3060
   55MOL0     H 7389   9.573   1.639   5.646 -0.6516 -1.3166 -1.2667
   55MOL0     H 7390   9.699   1.577   5.537  1.6425  0.7091 -0.7527
   55MOL0     H 7391   9.851   1.763   5.586  0.7581 -2.6428 -2.1763
   55MOL0     H 7392   9.750   1.793   5.735  3.3274  0.2150  1.6096
   55MOL0     H 7393   9.791   1.569   5.821 -0.8014  1.4270  0.4194
   55MOL0     H 7394   9.886   1.529   5.676 -1.8442  0.4385 -1.2279
   55MOL0     H 7395   9.944   1.759   5.879  2.2920 -1.2946  3.5345
   55MOL0     H 7396  10.049   1.706   5.753  1.3290  0.1886  1.1191
   55MOL0     H 7397  10.062   1.487   5.883  0.1389  1.2683 -0.5834
   55MOL0     H 7398   9.952   1.553   5.996 -0.1747 -1.2061  0.6153
   55MOL0     H 7399  10.220   1.691   5.932 -0.9420  0.1560  0.2125
   55MOL0     H 7400  10.092   1.730   6.058 -0.4640 -1.1408  1.8465
   55MOL0     H 7401  10.160   1.484   6.144  1.1865 -0.8113  1.1676
   55MOL0     H 7402  10.259   1.616   6.185  0.6186  1.1899 -1.3636
   55MOL0     H 7403  10.384   1.415   6.063  1.0579 -0.2482 -0.0355
   55MOL0     H 7404  10.308   1.493   5.916 -3.8086  0.3284  1.2173
   55MOL0     H 7405   9.415   1.618   5.522 -3.1142 -1.0562  0.4702
   55MOL0     H 7406   9.216   1.619   5.358 -1.3465  1.4906  1.2719
   55MOL0     H 7407   8.996   1.662   5.011 -3.3809 -1.5365 -2.4172
   55MOL0     H 7408   8.824   1.638   4.846 -1.3953 -0.5803 -0.1850
   55MOL0     H 7409   7.844   1.224   3.536  2.1456 -1.5060  1.6748
   55MOL0     H 7410   7.582   1.218   3.482  0.5146  0.6877  0.1519
   55MOL0     H 7411   7.238   1.149   3.453  0.7280 -0.5197  1.0361
   55MOL0     H 7412   7.037   1.169   3.328  0.4886  2.0588  1.2736
   55MOL0     H 7413   6.759   0.871   3.402 -1.6994  0.9153 -0.9913
   55MOL0     H 7414   6.814   0.780   3.262 -1.3131 -1.8270  0.5053
   55MOL0     H 7415   6.580   0.843   3.221  0.6353  0.4245  0.0579
   55MOL0     H 7416   6.684   0.940   3.115 -0.0833  2.8147 -0.0001
   55MOL0     H 7417   6.658   1.140   3.260 -1.1038  0.9649  0.2942
   55MOL0     H 7418   6.567   1.037   3.379 -0.1338 -0.9233 -0.1147
   55MOL0     H 7419   6.489   1.083   3.089 -0.9316 -0.2165 -0.2501
   55MOL0     H 7420   6.400   0.991   3.212  1.2734 -0.8883  2.2224
   55MOL0     H 7421   6.314   1.396   3.320  1.4981 -0.5367  1.7411
   55MOL0     H 7422   7.024   0.745   3.286 -1.9504  1.0100 -1.2488
   55MOL0     H 7423   7.251   0.666   3.498 -1.7610  0.4224 -0.1870
   55MOL0     H 7424   7.190   0.611   3.342 -0.2385  0.4142  0.5078
   55MOL0     H 7425   7.364   0.662   3.362  0.9460 -0.1104  3.1443
   56MOL0     O 7426   5.474   2.943  11.042 -0.1271  0.3082  0.8376
   56MOL0     C 7427   5.518   2.992  11.146  0.8584 -0.6123  0.3942
   56MOL0     O 7428   5.460   2.990  11.268  0.5363  0.1570 -0.1344
   56MOL0     C 7429   5.331   2.948  11.274 -0.3046  0.5247 -0.9346
   56MOL0     C 7430   5.299   2.816  11.272 -0.1125  0.2207  0.0017
   56MOL0     C 7431   5.169   2.771  11.279 -0.2176 -0.2075 -0.3314
   56MOL0     C 7432   5.063   2.856  11.296 -0.6217 -1.5917 -0.2163
   56MOL0     O 7433   4.936   2.807  11.296  0.9096  0.0607 -0.9649
   56MOL0     C 7434   4.844   2.864  11.202 -0.4704 -0.9618  0.2810
   56MOL0     C 7435   4.723   2.933  11.267  0.2020 -0.8600 -0.8808
   56MOL0     C 7436   4.629   2.826  11.312  0.3701 -0.2875 -0.0982
   56MOL0     C 7437   4.511   2.880  11.383 -1.1422 -0.2034 -0.5711
   56MOL0     C 7438   4.405   2.776  11.414 -0.4106  0.2497  0.3703
   56MOL0     C 7439   4.326   2.712  11.296 -0.3890 -0.6562 -0.0435
   56MOL0     C 7440   4.214   2.623  11.343  0.1638  0.7085  0.4629
   56MOL0     C 7441   4.090   2.698  11.394  0.0691 -0.7200  0.8462
   56MOL0     N 7442   4.023   2.764  11.279  0.1903  0.8239  0.0356
   56MOL0     C 7443   4.029   2.891  11.236  0.4633  0.8178  0.2453
   56MOL0     C 7444   3.947   2.907  11.126 -0.1159  0.4688  0.0806
   56MOL0     C 7445   3.922   3.021  11.041  0.4697 -0.1519 -0.4611
   56MOL0     C 7446   4.030   3.034  10.933  0.2723 -0.0066  0.1093
   56MOL0     C 7447   4.012   2.948  10.808 -0.2623  0.4157  0.0703
   56MOL0     C 7448   3.883   2.975  10.720 -0.0911  0.0063  0.0881
   56MOL0     O 7449   3.884   2.896  10.599 -0.1592  1.0081 -0.7728
   56MOL0     C 7450   3.971   2.920  10.495 -0.0683  0.8129 -0.5166
   56MOL0     C 7451   3.958   2.852  10.375 -0.1263 -0.8988  0.4644
   56MOL0     C 7452   4.033   2.880  10.265  0.1466 -0.1945 -1.1879
   56MOL0     C 7453   4.115   2.988  10.243 -1.0428  0.2861 -0.1950
   56MOL0     C 7454   4.198   3.007  10.124 -0.2423 -0.0806 -0.8643
   56MOL0     O 7455   4.232   3.126  10.087 -0.8315 -0.1577 -0.0037
   56MOL0     C 7456   4.333   3.141   9.993  0.4959 -0.0416 -0.1399
   56MOL0     C 7457   4.446   3.062   9.976 -0.8587  1.2961  0.4544
   56MOL0     C 7458   4.553   3.085   9.881 -0.1119 -0.8625 -0.9390
   56MOL0     C 7459   4.534   3.203   9.796 -0.0074  0.2406 -1.7752
   56MOL0     O 7460   4.612   3.236   9.683 -0.3848  0.4652 -0.9918
   56MOL0     C 7461   4.745   3.188   9.678  0.0856 -0.2181  0.1728
   56MOL0     C 7462   4.822   3.267   9.576 -0.0153  0.5044 -0.2821
   56MOL0     C 7463   4.969   3.224   9.572 -0.3215 -0.6502 -0.3750
   56MOL0     C 7464   5.064   3.289   9.675  0.0552 -0.2033  0.4999
   56MOL0     C 7465   5.208   3.254   9.636 -0.6955 -0.4423 -0.7932
   56MOL0     C 7466   5.296   3.343   9.736 -0.5704 -0.7274  1.0312
   56MOL0     C 7467   5.346   3.477   9.669  0.3378  0.6174  0.1600
   56MOL0     C 7468   5.407   3.473   9.530  0.2709  1.0124  0.1021
   56MOL0    Cl 7469   5.517   3.333   9.504 -0.2972  0.2046 -0.0399
   56MOL0     C 7470   4.419   3.284   9.809  0.3117  0.9072  1.2229
   56MOL0     C 7471   4.322   3.253   9.903 -0.2439  0.0421 -0.7037
   56MOL0     O 7472   4.213   2.908  10.066  1.0383 -0.1788  0.0547
   56MOL0     C 7473   4.122   3.067  10.363  0.3325 -0.1004  0.5019
   56MOL0     C 7474   4.053   3.035  10.485 -0.6767  0.1207  0.6873
   56MOL0     N 7475   3.880   2.791  11.114 -0.0224 -0.6402  0.7332
   56MOL0     N 7476   3.934   2.705  11.195 -0.6323 -0.2192  0.5233
   56MOL0     C 7477   5.095   2.994  11.288  0.1315  0.6642  0.3162
   56MOL0     C 7478   5.227   3.039  11.272  0.0844 -0.7839  0.6982
   56MOL0     C 7479   5.639   3.072  11.142 -0.1594  1.0420  0.5597
   56MOL0     C 7480   5.674   3.152  11.252  1.1877  0.0708  1.5484
   56MOL0     C 7481   5.793   3.212  11.259 -0.1146  0.0674 -0.0980
   56MOL0     C 7482   5.890   3.210  11.161  0.3925 -0.0806  0.5889
   56MOL0     O 7483   6.014   3.263  11.182 -0.6337 -0.7387  0.3720
   56MOL0     C 7484   6.031   3.408  11.166  0.2285  0.0458  0.3098
   56MOL0     C 7485   6.126   3.468  11.272  0.0740 -0.0296  0.5958
   56MOL0     C 7486   6.167   3.388  11.398  0.1741  0.0916 -0.0380
   56MOL0     C 7487   6.271   3.272  11.361  1.0060 -0.4622  0.3928
   56MOL0     C 7488   6.399   3.316  11.303  0.1109 -0.5110 -0.4946
   56MOL0     C 7489   6.494   3.350  11.243  0.4793 -1.1781 -0.9105
   56MOL0     C 7490   5.867   3.124  11.058  0.6965  0.9967 -1.3078
   56MOL0     C 7491   5.742   3.050  11.041 -1.4678 -1.0772 -0.4496
   56MOL0     C 7492   5.749   2.935  10.947  0.7546  0.2057 -0.1443
   56MOL0     H 7493   5.377   2.744  11.251  1.3705  1.5590  0.6528
   56MOL0     H 7494   5.149   2.665  11.289 -1.1921 -0.0065 -0.0652
   56MOL0     H 7495   4.893   2.939  11.139  0.0789 -2.3312 -1.0010
   56MOL0     H 7496   4.808   2.793  11.127 -1.2680  0.3898 -0.6536
   56MOL0     H 7497   4.683   2.992  11.184  0.0219  0.9507  0.4292
   56MOL0     H 7498   4.746   3.003  11.349 -2.5136 -0.0730 -0.6930
   56MOL0     H 7499   4.673   2.741  11.365 -5.0605 -3.0269  0.7170
   56MOL0     H 7500   4.596   2.781  11.218  1.6021 -0.2863 -0.5581
   56MOL0     H 7501   4.545   2.931  11.474 -0.5372  0.3564 -1.0967
   56MOL0     H 7502   4.465   2.957  11.320 -0.4565 -0.6640 -1.6677
   56MOL0     H 7503   4.457   2.701  11.475 -1.1806  0.7100  1.6468
   56MOL0     H 7504   4.332   2.825  11.480  0.1815 -2.9499  3.7702
   56MOL0     H 7505   4.288   2.801  11.245  1.1123  1.4290  2.2170
   56MOL0     H 7506   4.397   2.667  11.226  1.8342  3.1378 -0.5017
   56MOL0     H 7507   4.258   2.554  11.416  2.4670  0.0161 -1.4404
   56MOL0     H 7508   4.190   2.570  11.250 -0.4420  2.9328 -0.7108
   56MOL0     H 7509   4.020   2.634  11.447 -0.9173 -0.3669 -0.0107
   56MOL0     H 7510   4.117   2.776  11.466 -0.8184 -0.7144  1.1784
   56MOL0     H 7511   4.088   2.971  11.282  3.0982 -0.9676  0.2045
   56MOL0     H 7512   3.827   3.031  10.987  0.3097  2.1062  0.1298
   56MOL0     H 7513   3.933   3.108  11.106  0.8101  0.3789 -1.2148
   56MOL0     H 7514   4.034   3.140  10.905 -2.3674 -0.1951 -1.3818
   56MOL0     H 7515   4.128   3.013  10.976  0.5073  0.6900 -0.0751
   56MOL0     H 7516   4.013   2.851  10.859  0.5844  1.0644  1.3301
   56MOL0     H 7517   4.100   2.953  10.744 -0.6109 -5.4524 -1.4302
   56MOL0     H 7518   3.863   3.079  10.693 -0.5234  0.7550  2.9086
   56MOL0     H 7519   3.801   2.945  10.786 -1.3908  1.2225 -0.9243
   56MOL0     H 7520   3.895   2.764  10.373  0.6990 -1.5330  1.3737
   56MOL0     H 7521   4.025   2.817  10.177  1.4649  2.2349 -3.1492
   56MOL0     H 7522   4.451   2.974  10.039 -2.0484  2.0861  1.7009
   56MOL0     H 7523   4.639   3.020   9.879  1.8179  1.4538  0.9062
   56MOL0     H 7524   4.792   3.209   9.774  1.5410  0.1723 -0.5960
   56MOL0     H 7525   4.744   3.081   9.657  1.5405 -0.1876 -0.1574
   56MOL0     H 7526   4.784   3.240   9.477 -0.0478  1.3337 -0.5002
   56MOL0     H 7527   4.812   3.374   9.596  0.2278  0.3420  0.7350
   56MOL0     H 7528   4.971   3.115   9.581  0.9373 -0.6272 -0.2085
   56MOL0     H 7529   5.006   3.255   9.474  0.1500  2.1359  0.5984
   56MOL0     H 7530   5.039   3.248   9.773 -0.2002  1.6549  1.2517
   56MOL0     H 7531   5.031   3.393   9.675 -2.3298 -0.9065 -0.0260
   56MOL0     H 7532   5.242   3.270   9.533  1.4125  1.8903  0.1489
   56MOL0     H 7533   5.230   3.149   9.657  0.0439  0.1100  1.4738
   56MOL0     H 7534   5.237   3.367   9.825 -2.1300  3.3842 -0.8644
   56MOL0     H 7535   5.387   3.291   9.767 -0.2030  0.1704  1.5043
   56MOL0     H 7536   5.422   3.516   9.737 -0.8324 -0.1002  1.9623
   56MOL0     H 7537   5.259   3.543   9.669 -0.9820 -1.0418 -0.8595
   56MOL0     H 7538   5.330   3.491   9.454  1.3017 -0.1579 -1.2706
   56MOL0     H 7539   5.478   3.556   9.522 -0.1406  1.6292  2.1776
   56MOL0     H 7540   4.422   3.364   9.735  0.6216  0.1738  0.4322
   56MOL0     H 7541   4.233   3.315   9.915 -0.7439 -0.7504 -0.2172
   56MOL0     H 7542   4.169   3.165  10.368 -0.3088  0.2107  0.4196
   56MOL0     H 7543   4.077   3.093  10.574 -1.4691 -0.2928  1.1861
   56MOL0     H 7544   5.009   3.059  11.304 -1.5826 -0.7558 -2.3463
   56MOL0     H 7545   5.259   3.142  11.264 -2.8611  0.1696 -0.1974
   56MOL0     H 7546   5.595   3.168  11.325  0.2654  0.9113  0.4164
   56MOL0     H 7547   5.818   3.266  11.350 -2.1688  2.1993 -0.6948
   56MOL0     H 7548   5.937   3.463  11.165  1.5201  2.5432 -2.9272
   56MOL0     H 7549   6.066   3.429  11.065 -0.3717  0.8153  0.2527
   56MOL0     H 7550   6.066   3.544  11.323  0.5228 -1.4209  3.4090
   56MOL0     H 7551   6.214   3.501  11.218 -0.0971  0.4563  0.6059
   56MOL0     H 7552   6.074   3.335  11.420 -1.0025  0.9813 -2.4978
   56MOL0     H 7553   6.200   3.464  11.470  0.3642  0.0628 -0.0936
   56MOL0     H 7554   6.288   3.210  11.450  2.5233 -0.1839  0.3266
   56MOL0     H 7555   6.218   3.215  11.285  1.3608  1.8809 -1.7455
   56MOL0     H 7556   6.583   3.361  11.185 -0.1501 -0.2337 -1.7411
   56MOL0     H 7557   5.946   3.096  10.989  1.0041  0.7686 -0.8653
   56MOL0     H 7558   5.689   2.854  10.989  0.3352  1.2780  1.4298
   56MOL0     H 7559   5.725   2.959  10.843 -0.1241 -1.9509 -0.4878
   56MOL0     H 7560   5.854   2.904  10.952  0.0874 -2.0909  0.5840
   57MOL0     O 7561   5.368   9.052   0.771  0.3958 -0.5174 -0.6657
   57MOL0     C 7562   5.317   9.139   0.697 -0.0956  1.0221 -0.3221
   57MOL0     O 7563   5.385   9.209   0.597 -0.4994  0.0414 -0.2050
   57MOL0     C 7564   5.496   9.149   0.550 -0.1537  0.0179  0.0610
   57MOL0     C 7565   5.614   9.196   0.610 -0.7668 -0.1835 -0.4537
   57MOL0     C 7566   5.733   9.164   0.542 -0.3406  0.4077  0.0615
   57MOL0     C 7567   5.730   9.094   0.422  0.1444  1.0887  0.1788
   57MOL0     O 7568   5.851   9.069   0.362  0.1546 -0.0741  0.3950
   57MOL0     C 7569   5.874   9.177   0.265 -0.0298  0.3718  0.0188
   57MOL0     C 7570   6.024   9.199   0.240  0.2119  0.3886 -0.5024
   57MOL0     C 7571   6.101   9.252   0.370 -0.6860 -0.2923  0.0181
   57MOL0     C 7572   6.260   9.247   0.349  0.6388 -0.2860 -1.1790
   57MOL0     C 7573   6.345   9.244   0.481 -0.6949  0.8842  0.0670
   57MOL0     C 7574   6.486   9.301   0.465  0.5954  0.5561  0.3757
   57MOL0     C 7575   6.545   9.343   0.603 -0.1539 -0.0096  0.7021
   57MOL0     C 7576   6.687   9.306   0.633  0.1939  1.2823 -0.0538
   57MOL0     N 7577   6.772   9.337   0.515  0.2950  0.3397  0.1612
   57MOL0     C 7578   6.830   9.448   0.486  0.8786 -0.5043 -0.4274
   57MOL0     C 7579   6.926   9.418   0.398 -0.0081  0.2084 -0.9290
   57MOL0     C 7580   7.014   9.508   0.313 -0.4527  0.2793 -0.7860
   57MOL0     C 7581   7.162   9.499   0.356 -0.5889  0.7277  0.6606
   57MOL0     C 7582   7.241   9.596   0.259 -0.8084  0.0373  0.3004
   57MOL0     C 7583   7.380   9.593   0.317  0.0588  0.7049  0.2798
   57MOL0     O 7584   7.438   9.467   0.284 -0.4002  0.2379 -0.4347
   57MOL0     C 7585   7.576   9.466   0.284 -0.1640 -0.2115 -1.0418
   57MOL0     C 7586   7.648   9.387   0.194  0.6754  0.5346 -0.8889
   57MOL0     C 7587   7.792   9.368   0.213  0.1747  0.4844  0.2144
   57MOL0     C 7588   7.860   9.430   0.316  0.3383  0.9267 -0.7057
   57MOL0     C 7589   8.006   9.431   0.328  1.2008  0.8674  0.6155
   57MOL0     O 7590   8.067   9.493   0.440  0.4329  0.5433 -0.1498
   57MOL0     C 7591   8.199   9.492   0.454 -0.8488  0.3338 -0.1494
   57MOL0     C 7592   8.262   9.407   0.546  0.4165  0.5690  1.0036
   57MOL0     C 7593   8.406   9.393   0.556 -0.4408 -1.0940  1.4962
   57MOL0     C 7594   8.479   9.485   0.482 -0.2203 -0.3650  1.2957
   57MOL0     O 7595   8.616   9.494   0.492  0.8036 -0.4518  0.0164
   57MOL0     C 7596   8.659   9.496   0.630 -0.5501  0.7381  0.0136
   57MOL0     C 7597   8.809   9.521   0.619  0.1525 -0.0571 -0.8896
   57MOL0     C 7598   8.893   9.539   0.751  0.8332  0.6722  0.0974
   57MOL0     C 7599   8.848   9.442   0.864  0.0349 -0.6765  0.2304
   57MOL0     C 7600   8.879   9.497   1.001  0.7715 -0.7685 -0.1273
   57MOL0     C 7601   9.030   9.517   1.039 -1.1672  0.3285  0.0084
   57MOL0     C 7602   9.061   9.521   1.186 -0.0396  0.2099 -0.3237
   57MOL0     C 7603   9.133   9.395   1.236  0.4909  0.0744 -0.3664
   57MOL0    Cl 7604   9.146   9.381   1.413 -0.3630  0.4409  0.7215
   57MOL0     C 7605   8.421   9.570   0.384  0.5566  0.1256  0.1906
   57MOL0     C 7606   8.284   9.571   0.378 -0.0588 -0.8653  0.2665
   57MOL0     O 7607   8.059   9.357   0.241 -0.3360  0.2903  0.4322
   57MOL0     C 7608   7.783   9.507   0.409 -0.0284  0.2067  0.8372
   57MOL0     C 7609   7.647   9.533   0.387  0.2849  0.1711 -0.8484
   57MOL0     N 7610   6.934   9.277   0.389 -0.0518  0.7630  0.1334
   57MOL0     N 7611   6.833   9.228   0.449  0.4715  0.0699  0.2290
   57MOL0     C 7612   5.612   9.038   0.377  0.1172 -0.9803  0.3246
   57MOL0     C 7613   5.489   9.077   0.439  0.2480  0.7601  0.1442
   57MOL0     C 7614   5.180   9.181   0.728  0.3444 -0.7879  0.1905
   57MOL0     C 7615   5.126   9.282   0.636 -0.2323  0.0236 -0.4558
   57MOL0     C 7616   4.998   9.337   0.655  0.2759 -0.2394  0.0887
   57MOL0     C 7617   4.918   9.287   0.764  0.2506 -0.9191  0.1630
   57MOL0     O 7618   4.794   9.356   0.787  0.0568 -1.1716  0.1217
   57MOL0     C 7619   4.712   9.317   0.896  0.0619 -0.2616  0.2701
   57MOL0     C 7620   4.570   9.383   0.897 -0.0481 -0.0935 -0.8153
   57MOL0     C 7621   4.475   9.317   0.994  0.5425 -0.4717 -0.4603
   57MOL0     C 7622   4.331   9.349   0.949  0.9461 -0.0944 -0.6304
   57MOL0     C 7623   4.249   9.329   1.075  0.3192 -0.2503 -0.4397
   57MOL0     C 7624   4.196   9.319   1.184 -0.1231 -0.3710  0.0326
   57MOL0     C 7625   4.967   9.186   0.853  1.2707 -0.0127 -0.1623
   57MOL0     C 7626   5.093   9.137   0.838 -0.7593  1.3515 -0.0945
   57MOL0     C 7627   5.135   9.038   0.939 -0.1824  0.8191  0.1020
   57MOL0     H 7628   5.617   9.274   0.685  4.8521  0.5476 -1.0686
   57MOL0     H 7629   5.831   9.194   0.579 -1.0757  1.9748  0.7978
   57MOL0     H 7630   5.824   9.155   0.170 -0.0909  0.6694 -0.0173
   57MOL0     H 7631   5.839   9.271   0.307  0.8095  1.3911 -1.4551
   57MOL0     H 7632   6.032   9.258   0.149 -2.0416  0.7205 -0.5295
   57MOL0     H 7633   6.070   9.102   0.215 -0.1857 -0.1418  0.7418
   57MOL0     H 7634   6.087   9.178   0.448  1.8520  2.8723  3.8557
   57MOL0     H 7635   6.070   9.350   0.408 -0.1804 -1.3673  3.5742
   57MOL0     H 7636   6.292   9.157   0.297 -1.8284 -1.6952 -0.4298
   57MOL0     H 7637   6.276   9.331   0.282 -0.5901  0.3074 -0.7604
   57MOL0     H 7638   6.303   9.295   0.568  1.0996  2.5719  0.0229
   57MOL0     H 7639   6.364   9.138   0.503 -0.9540  0.7802 -0.1944
   57MOL0     H 7640   6.550   9.227   0.418 -2.1018  0.2406 -3.2755
   57MOL0     H 7641   6.480   9.391   0.403 -1.8190  1.6418  2.0239
   57MOL0     H 7642   6.485   9.294   0.681 -0.4072  1.3906  1.4131
   57MOL0     H 7643   6.525   9.450   0.613 -0.5123  0.2896 -2.4539
   57MOL0     H 7644   6.733   9.369   0.710 -0.2444  1.5834 -0.0326
   57MOL0     H 7645   6.695   9.198   0.649 -2.1016  0.8750 -1.1564
   57MOL0     H 7646   6.800   9.551   0.503  1.2143 -0.7181  1.6719
   57MOL0     H 7647   6.997   9.467   0.214 -3.9685 -1.5101  0.3920
   57MOL0     H 7648   6.985   9.612   0.334  0.0193  0.2504  0.0669
   57MOL0     H 7649   7.171   9.519   0.463  0.6503 -5.2170  1.9981
   57MOL0     H 7650   7.198   9.397   0.343  1.6322  1.4443  0.6530
   57MOL0     H 7651   7.193   9.693   0.275 -1.7518 -0.6348  1.6982
   57MOL0     H 7652   7.227   9.566   0.155 -0.6393 -2.1256  0.8532
   57MOL0     H 7653   7.388   9.619   0.423  1.8474  0.5859  0.2007
   57MOL0     H 7654   7.441   9.667   0.265  1.4096 -0.6335 -0.1258
   57MOL0     H 7655   7.592   9.334   0.117 -3.6905  2.6759  0.4655
   57MOL0     H 7656   7.840   9.304   0.139  1.8696  2.7153 -0.7502
   57MOL0     H 7657   8.205   9.347   0.616  1.2360 -0.1527  1.0794
   57MOL0     H 7658   8.453   9.320   0.622 -0.9035 -3.0185 -0.1982
   57MOL0     H 7659   8.601   9.576   0.676  0.9478  1.1416  1.2882
   57MOL0     H 7660   8.641   9.402   0.682 -2.4247  1.7433  1.2629
   57MOL0     H 7661   8.856   9.433   0.576 -0.1255 -0.4917 -0.3178
   57MOL0     H 7662   8.841   9.606   0.557  0.5602 -1.3035 -2.4415
   57MOL0     H 7663   8.999   9.520   0.731  0.6154  0.8625 -1.3485
   57MOL0     H 7664   8.878   9.638   0.796  2.3124 -0.4135  3.2906
   57MOL0     H 7665   8.894   9.346   0.838  2.3652  0.2339  0.7542
   57MOL0     H 7666   8.739   9.439   0.870  0.0809  0.0234  1.8751
   57MOL0     H 7667   8.822   9.430   1.066 -2.1533 -0.3570 -2.0818
   57MOL0     H 7668   8.832   9.595   1.006 -0.0032 -1.1842  1.0202
   57MOL0     H 7669   9.081   9.432   0.993  0.1967  0.6187  0.9163
   57MOL0     H 7670   9.071   9.608   0.993  0.3953  2.1728  4.4756
   57MOL0     H 7671   8.970   9.542   1.242  0.7885  1.2351  0.7006
   57MOL0     H 7672   9.132   9.601   1.209  3.5485 -3.1032  1.5285
   57MOL0     H 7673   9.078   9.305   1.207  2.8647 -2.7109  2.7805
   57MOL0     H 7674   9.230   9.376   1.188  1.1872 -1.6080  1.5130
   57MOL0     H 7675   8.466   9.637   0.311 -1.9696  1.0741 -0.6301
   57MOL0     H 7676   8.231   9.642   0.315  3.0806  1.9016  0.4346
   57MOL0     H 7677   7.826   9.557   0.495  0.1978  2.0849 -0.3156
   57MOL0     H 7678   7.602   9.603   0.456 -1.4156 -0.8195 -0.8854
   57MOL0     H 7679   5.619   8.966   0.296  1.4231  0.3631 -0.8257
   57MOL0     H 7680   5.394   9.052   0.394 -0.8088 -0.2159  2.7249
   57MOL0     H 7681   5.184   9.308   0.547  2.1707 -1.8664  0.4293
   57MOL0     H 7682   4.944   9.413   0.599 -2.3501 -1.0969  1.3310
   57MOL0     H 7683   4.762   9.340   0.990  2.5220 -0.5782 -0.8797
   57MOL0     H 7684   4.699   9.208   0.893 -0.8440 -0.2306  1.9953
   57MOL0     H 7685   4.525   9.387   0.797 -0.5858  1.0592 -0.5427
   57MOL0     H 7686   4.586   9.482   0.941 -1.8237 -0.9830  2.0980
   57MOL0     H 7687   4.498   9.352   1.095 -1.9250  2.9605 -0.9004
   57MOL0     H 7688   4.479   9.207   0.992 -1.0613 -0.5595 -2.5869
   57MOL0     H 7689   4.328   9.455   0.920  4.2795  0.0182 -0.9542
   57MOL0     H 7690   4.306   9.285   0.864 -0.2297 -1.0657  0.4175
   57MOL0     H 7691   4.158   9.301   1.283  0.0494 -0.3894  0.0951
   57MOL0     H 7692   4.928   9.164   0.952  0.5481  1.3800 -0.1068
   57MOL0     H 7693   5.222   9.077   0.993  0.8126  1.5343 -1.9297
   57MOL0     H 7694   5.061   9.016   1.016  0.7966 -0.9939  0.5691
   57MOL0     H 7695   5.161   8.949   0.881 -2.4503 -0.5445  1.0682
   58MOL0     O 7696   4.388   6.848  10.202 -0.1760 -0.2961  0.5796
   58MOL0     C 7697   4.499   6.808  10.161  0.7632 -0.0217  0.3511
   58MOL0     O 7698   4.620   6.866  10.181 -0.1332  0.0254 -0.9594
   58MOL0     C 7699   4.622   6.976  10.264  0.2361  0.7957  0.0997
   58MOL0     C 7700   4.682   7.093  10.224 -0.4542  0.0393 -0.3801
   58MOL0     C 7701   4.689   7.198  10.316 -0.8450 -0.2577  0.2998
   58MOL0     C 7702   4.629   7.195  10.445  0.6309  0.3697 -0.0150
   58MOL0     O 7703   4.627   7.296  10.541  0.0735  0.3004 -0.4459
   58MOL0     C 7704   4.660   7.423  10.494 -0.1083  0.1737 -0.4845
   58MOL0     C 7705   4.603   7.528  10.605 -0.1515 -0.6069  0.4312
   58MOL0     C 7706   4.442   7.506  10.606 -0.8716 -0.6741  0.5671
   58MOL0     C 7707   4.373   7.613  10.703  0.2085  0.2078 -0.5092
   58MOL0     C 7708   4.256   7.552  10.789 -0.9291 -0.6473  0.9020
   58MOL0     C 7709   4.311   7.456  10.893  0.1036 -0.5936 -0.3100
   58MOL0     C 7710   4.216   7.429  11.008  0.2586 -0.2863 -0.3555
   58MOL0     C 7711   4.265   7.327  11.116 -0.6064 -0.1243  1.5062
   58MOL0     N 7712   4.264   7.183  11.064  0.3011 -0.7197  0.4363
   58MOL0     C 7713   4.204   7.133  10.952 -0.4251 -0.6263  0.5389
   58MOL0     C 7714   4.250   7.007  10.934  0.6538 -0.2293 -0.2705
   58MOL0     C 7715   4.214   6.926  10.830  0.2974  0.1585  0.5176
   58MOL0     C 7716   4.299   6.973  10.700 -0.1192 -0.0064 -0.0964
   58MOL0     C 7717   4.235   6.925  10.573  0.3168 -0.1371  0.6995
   58MOL0     C 7718   4.204   6.776  10.580  0.9222  0.0880 -0.2659
   58MOL0     O 7719   4.153   6.734  10.447  0.2958 -0.5875 -0.1273
   58MOL0     C 7720   4.055   6.644  10.468 -0.4693 -0.9623  0.0082
   58MOL0     C 7721   3.927   6.684  10.431 -0.2374  0.0022  0.8643
   58MOL0     C 7722   3.814   6.597  10.441  0.1040  0.7445 -0.4010
   58MOL0     C 7723   3.833   6.468  10.491 -0.3777 -0.2868 -0.1179
   58MOL0     C 7724   3.730   6.368  10.516  0.2586  0.6534 -0.5101
   58MOL0     O 7725   3.606   6.395  10.461 -0.6689  0.5044 -0.7914
   58MOL0     C 7726   3.501   6.303  10.456 -0.2250  0.1548 -0.4143
   58MOL0     C 7727   3.422   6.296  10.343  0.6632 -0.8022  0.3161
   58MOL0     C 7728   3.297   6.233  10.336 -0.9656  0.5089  0.1091
   58MOL0     C 7729   3.267   6.158  10.452  0.2500 -0.4829  1.2154
   58MOL0     O 7730   3.156   6.081  10.454 -0.4259  0.1991 -0.3043
   58MOL0     C 7731   3.036   6.115  10.390  1.1030 -0.1457 -0.5839
   58MOL0     C 7732   2.927   6.008  10.405 -0.1859  0.1729  0.0285
   58MOL0     C 7733   2.794   6.061  10.347  0.2905 -0.2727 -0.2143
   58MOL0     C 7734   2.676   5.967  10.391  0.2768 -0.1964 -0.1180
   58MOL0     C 7735   2.539   6.005  10.332 -0.5548  0.1012 -0.2572
   58MOL0     C 7736   2.498   6.148  10.342 -0.3271  0.9598 -0.0780
   58MOL0     C 7737   2.357   6.177  10.289  0.9491 -0.0970  1.1768
   58MOL0     C 7738   2.361   6.168  10.129  0.8072  0.5349 -0.3727
   58MOL0    Cl 7739   2.469   6.299  10.055 -0.0758 -0.3955 -0.1149
   58MOL0     C 7740   3.351   6.141  10.556  0.4547 -0.1412  0.3613
   58MOL0     C 7741   3.465   6.219  10.562 -0.2519  0.0209 -0.9374
   58MOL0     O 7742   3.750   6.277  10.596 -0.3008 -0.1876  0.2393
   58MOL0     C 7743   3.963   6.430  10.521  0.3403  0.3355  0.5013
   58MOL0     C 7744   4.078   6.510  10.510 -0.0337 -0.6140  0.8360
   58MOL0     N 7745   4.345   6.992  11.038  0.0957  0.5776  0.2993
   58MOL0     N 7746   4.351   7.095  11.109 -0.0588 -1.0554 -0.6583
   58MOL0     C 7747   4.564   7.076  10.484  0.2302  0.7779  0.5272
   58MOL0     C 7748   4.576   6.966  10.397  0.2549  0.7276  0.5898
   58MOL0     C 7749   4.487   6.676  10.091  0.7601  0.4490 -0.1045
   58MOL0     C 7750   4.426   6.570  10.152 -0.3858  0.8539  0.8764
   58MOL0     C 7751   4.448   6.437  10.090  0.0444  0.3320 -0.0325
   58MOL0     C 7752   4.505   6.416   9.960  0.9359  0.0348 -0.1866
   58MOL0     O 7753   4.528   6.285   9.925  0.2052 -0.1358 -0.0384
   58MOL0     C 7754   4.612   6.276   9.807  0.3081 -0.2598  0.2171
   58MOL0     C 7755   4.652   6.132   9.783 -0.2813  0.0157 -0.2184
   58MOL0     C 7756   4.539   6.031   9.754  0.5293  0.3229 -0.3447
   58MOL0     C 7757   4.485   5.961   9.879  0.0888  0.3124 -0.0469
   58MOL0     C 7758   4.373   5.875   9.840 -0.4028 -0.0246 -0.0620
   58MOL0     C 7759   4.284   5.800   9.809 -0.5049 -0.4573 -0.0023
   58MOL0     C 7760   4.533   6.533   9.895  1.0009 -0.0039 -0.2594
   58MOL0     C 7761   4.538   6.661   9.962 -0.3181  0.3861  0.0935
   58MOL0     C 7762   4.589   6.780   9.874 -0.5367 -0.1036  0.3143
   58MOL0     H 7763   4.741   7.094  10.133  0.0637 -3.4976 -0.2067
   58MOL0     H 7764   4.754   7.279  10.285 -3.3428  1.3906 -1.0118
   58MOL0     H 7765   4.766   7.442  10.475 -0.0174 -1.4954 -1.9500
   58MOL0     H 7766   4.606   7.462  10.407  1.8139  7.4456  0.8824
   58MOL0     H 7767   4.627   7.632  10.579  0.9737 -0.5750  1.4651
   58MOL0     H 7768   4.639   7.506  10.706  1.7404 -2.1931 -0.5203
   58MOL0     H 7769   4.429   7.400  10.631 -0.8294 -0.6127  0.8540
   58MOL0     H 7770   4.395   7.516  10.508 -0.2584 -0.3269  0.3035
   58MOL0     H 7771   4.443   7.669  10.766  2.5239 -2.5706 -0.4044
   58MOL0     H 7772   4.317   7.680  10.637 -3.8394 -1.4708  0.8771
   58MOL0     H 7773   4.206   7.633  10.843 -2.2145 -1.0241  0.3188
   58MOL0     H 7774   4.181   7.508  10.722  1.6466  0.1043 -2.7718
   58MOL0     H 7775   4.348   7.370  10.837 -0.4524 -1.6461  0.8834
   58MOL0     H 7776   4.400   7.495  10.944 -0.2464 -0.9724  0.6099
   58MOL0     H 7777   4.126   7.396  10.955  0.8162  0.2967 -1.7095
   58MOL0     H 7778   4.190   7.519  11.065 -1.3055 -0.8336 -0.1553
   58MOL0     H 7779   4.369   7.347  11.143 -0.0324  1.8766 -1.6857
   58MOL0     H 7780   4.197   7.318  11.202  1.5822 -0.2899  3.3169
   58MOL0     H 7781   4.137   7.184  10.883  3.4992  1.1840 -2.3165
   58MOL0     H 7782   4.239   6.822  10.853 -1.8131 -0.7687 -0.9859
   58MOL0     H 7783   4.105   6.927  10.825 -0.0825  0.0406  5.0629
   58MOL0     H 7784   4.288   7.081  10.686  0.4908  0.7623  4.1347
   58MOL0     H 7785   4.403   6.951  10.725 -0.9611 -2.3896  1.6481
   58MOL0     H 7786   4.296   6.946  10.484  0.8128 -1.1444  0.7755
   58MOL0     H 7787   4.140   6.978  10.562  1.5328  2.2301  0.9835
   58MOL0     H 7788   4.130   6.765  10.659  1.8035  1.8283  0.8712
   58MOL0     H 7789   4.286   6.710  10.610  0.5650 -0.5367 -0.6454
   58MOL0     H 7790   3.903   6.778  10.381 -2.5498 -2.5959 -3.5667
   58MOL0     H 7791   3.723   6.627  10.390 -0.4177 -0.1190  0.0181
   58MOL0     H 7792   3.456   6.339  10.249  1.5679 -1.1437  0.4802
   58MOL0     H 7793   3.236   6.220  10.247  2.4472 -3.5162 -1.9480
   58MOL0     H 7794   2.997   6.210  10.427 -1.6638 -1.3648 -0.1319
   58MOL0     H 7795   3.060   6.125  10.283 -0.4191 -1.3238 -1.0644
   58MOL0     H 7796   2.964   5.917  10.355  4.4097  0.8280  1.7264
   58MOL0     H 7797   2.910   5.986  10.510  0.1496  3.6492  0.9088
   58MOL0     H 7798   2.786   6.163  10.387 -1.6887 -0.7256  0.6634
   58MOL0     H 7799   2.786   6.081  10.240 -0.5299 -1.4171 -0.3830
   58MOL0     H 7800   2.674   5.968  10.500 -3.1874 -0.1139 -0.0723
   58MOL0     H 7801   2.704   5.870  10.349  3.8586  1.3585 -1.6963
   58MOL0     H 7802   2.458   5.936  10.357 -0.8378 -0.3222 -2.1486
   58MOL0     H 7803   2.549   5.991  10.223  0.5818  3.1625 -0.6529
   58MOL0     H 7804   2.483   6.157  10.450  1.3924 -1.3008  0.4288
   58MOL0     H 7805   2.574   6.220  10.311  1.8274  0.7909  4.0895
   58MOL0     H 7806   2.321   6.265  10.344  2.6488 -0.3049  2.7259
   58MOL0     H 7807   2.298   6.093  10.328  2.7387 -1.0158  1.9931
   58MOL0     H 7808   2.396   6.070  10.094  0.5238  0.5954 -0.8360
   58MOL0     H 7809   2.256   6.181  10.102  0.2314 -3.5679 -0.7059
   58MOL0     H 7810   3.324   6.070  10.634  1.6174 -1.2667 -0.2309
   58MOL0     H 7811   3.528   6.196  10.647 -0.8378 -1.8454 -0.9663
   58MOL0     H 7812   3.984   6.334  10.568  1.9312  0.7238  0.6419
   58MOL0     H 7813   4.176   6.470  10.536  0.5506 -0.8724 -1.5211
   58MOL0     H 7814   4.532   7.056  10.586 -2.8813 -2.5521 -0.9113
   58MOL0     H 7815   4.542   6.867  10.426 -2.0862  1.4508  0.5097
   58MOL0     H 7816   4.373   6.587  10.246 -0.7297  2.6797  0.3764
   58MOL0     H 7817   4.431   6.358  10.163  6.4353  0.3467  2.0637
   58MOL0     H 7818   4.701   6.331   9.836  0.2524 -0.9934  1.8864
   58MOL0     H 7819   4.559   6.327   9.726 -0.0378  2.2371  1.9261
   58MOL0     H 7820   4.709   6.105   9.872 -1.0737  3.6351  1.5990
   58MOL0     H 7821   4.719   6.124   9.697  1.1146 -2.9996  1.0142
   58MOL0     H 7822   4.586   5.951   9.696 -1.9149 -2.4642  1.2968
   58MOL0     H 7823   4.457   6.078   9.699 -0.7935 -0.3820  0.9836
   58MOL0     H 7824   4.558   5.888   9.915 -0.5338 -0.7830 -0.9406
   58MOL0     H 7825   4.452   6.022   9.964 -1.0261 -1.1362  0.5998
   58MOL0     H 7826   4.207   5.730   9.782 -2.2366  1.5294 -0.3906
   58MOL0     H 7827   4.566   6.525   9.792  1.0397 -1.4227 -0.1559
   58MOL0     H 7828   4.699   6.783   9.871 -0.5445  2.4358  0.7955
   58MOL0     H 7829   4.545   6.764   9.775  2.2077  0.6212 -1.1366
   58MOL0     H 7830   4.554   6.879   9.903 -1.8807 -0.0631 -1.2666
   59MOL0     O 7831   8.987   5.211   8.122  0.6549  0.6836  0.3600
   59MOL0     C 7832   8.958   5.330   8.137  0.0868 -0.7168  0.5557
   59MOL0     O 7833   8.900   5.409   8.044  0.0690  0.5567 -0.1338
   59MOL0     C 7834   8.860   5.346   7.924 -0.4724 -0.0966  0.3101
   59MOL0     C 7835   8.945   5.364   7.810 -0.3381 -0.5765 -0.1597
   59MOL0     C 7836   8.902   5.330   7.690  0.8358  0.8688  0.4446
   59MOL0     C 7837   8.782   5.269   7.669  0.1800  0.7574 -0.0781
   59MOL0     O 7838   8.712   5.217   7.556  0.3791  0.9643  0.1109
   59MOL0     C 7839   8.783   5.235   7.432  0.3228 -0.6419 -0.4576
   59MOL0     C 7840   8.697   5.176   7.314 -0.1886 -0.1023  0.0865
   59MOL0     C 7841   8.558   5.240   7.322  0.9944 -1.1601  0.3066
   59MOL0     C 7842   8.470   5.172   7.211  1.1104  0.6615 -0.0314
   59MOL0     C 7843   8.334   5.235   7.207 -1.4265  0.7351  0.3080
   59MOL0     C 7844   8.333   5.362   7.127  0.4235  0.0582 -0.2286
   59MOL0     C 7845   8.335   5.336   6.973  0.2452  0.0717 -0.4258
   59MOL0     C 7846   8.271   5.457   6.896 -1.2524  0.0526 -0.0529
   59MOL0     N 7847   8.235   5.418   6.754  0.7438  0.1977 -0.6166
   59MOL0     C 7848   8.311   5.453   6.647  0.8054  0.9916  0.0377
   59MOL0     C 7849   8.239   5.399   6.540 -1.1365 -0.0642  0.0413
   59MOL0     C 7850   8.266   5.414   6.395  0.7634  0.2952  0.7070
   59MOL0     C 7851   8.381   5.333   6.335  0.2638 -0.6424  0.1292
   59MOL0     C 7852   8.375   5.325   6.181 -0.3212 -0.4723  0.0030
   59MOL0     C 7853   8.485   5.231   6.127  0.2682 -0.7338 -0.8168
   59MOL0     O 7854   8.542   5.145   6.223 -0.1117  0.6768 -0.8830
   59MOL0     C 7855   8.673   5.173   6.272  0.3490  0.2212  0.4815
   59MOL0     C 7856   8.708   5.169   6.410 -0.4393  0.1494  0.2095
   59MOL0     C 7857   8.830   5.207   6.464  0.5490  0.1189  0.7609
   59MOL0     C 7858   8.931   5.261   6.371 -0.5859 -0.7698 -0.5793
   59MOL0     C 7859   9.058   5.317   6.429 -0.4936 -0.1184  0.3430
   59MOL0     O 7860   9.136   5.381   6.334 -0.6443  0.1329  0.8396
   59MOL0     C 7861   9.246   5.461   6.368 -0.2666 -0.5915 -0.4807
   59MOL0     C 7862   9.273   5.577   6.292 -0.0879  0.2508 -0.1041
   59MOL0     C 7863   9.388   5.660   6.319  0.2125  0.5686 -0.1943
   59MOL0     C 7864   9.458   5.648   6.433 -0.4946 -0.0344 -0.0237
   59MOL0     O 7865   9.548   5.749   6.461  0.1900 -0.4528 -0.2742
   59MOL0     C 7866   9.626   5.726   6.575  0.2307  0.0535  0.0498
   59MOL0     C 7867   9.726   5.833   6.602 -0.2166 -0.8828 -0.6863
   59MOL0     C 7868   9.799   5.874   6.473 -0.4981  0.2886  0.3975
   59MOL0     C 7869   9.882   5.769   6.397  0.1701  0.4670  0.3339
   59MOL0     C 7870   9.956   5.836   6.276  0.2866 -0.3749  0.1093
   59MOL0     C 7871  10.046   5.740   6.210  0.7612 -0.2688  0.7250
   59MOL0     C 7872  10.066   5.787   6.075  1.1583  0.0852  0.1334
   59MOL0     C 7873  10.098   5.671   5.973 -0.3118  0.1052 -1.1456
   59MOL0    Cl 7874   9.948   5.575   5.941 -0.1855  0.4079  0.5126
   59MOL0     C 7875   9.430   5.525   6.510 -0.5203 -0.0329  0.8483
   59MOL0     C 7876   9.337   5.437   6.473 -0.1138  0.4493 -0.1844
   59MOL0     O 7877   9.077   5.313   6.551 -0.9693  0.1989  0.1437
   59MOL0     C 7878   8.897   5.264   6.237 -0.3750  0.0025  0.1554
   59MOL0     C 7879   8.778   5.209   6.191 -0.9257  0.3491  0.2823
   59MOL0     N 7880   8.130   5.329   6.587 -0.1565 -0.6284 -0.3934
   59MOL0     N 7881   8.135   5.339   6.718 -0.0069  0.3844  0.3556
   59MOL0     C 7882   8.702   5.243   7.782 -0.5666 -0.6039  0.5627
   59MOL0     C 7883   8.735   5.297   7.913 -0.4677  0.0067  0.1088
   59MOL0     C 7884   8.989   5.386   8.268  0.1593  0.6186  0.4206
   59MOL0     C 7885   9.065   5.310   8.359  0.0771  0.2926  0.2384
   59MOL0     C 7886   9.112   5.351   8.486  1.2107  0.0646  0.4135
   59MOL0     C 7887   9.074   5.475   8.525 -1.0870  0.0821 -0.6468
   59MOL0     O 7888   9.109   5.534   8.641  0.8204 -0.1727 -0.3883
   59MOL0     C 7889   9.149   5.452   8.757 -0.3572 -0.6329 -0.1994
   59MOL0     C 7890   9.205   5.529   8.872  0.1990  1.0416  0.3191
   59MOL0     C 7891   9.257   5.434   8.980 -0.3253 -0.4575 -0.1770
   59MOL0     C 7892   9.325   5.522   9.092 -0.5273  0.4576  0.0224
   59MOL0     C 7893   9.328   5.444   9.208  0.3046 -0.1720 -0.7514
   59MOL0     C 7894   9.322   5.383   9.310  0.6611  0.1812 -0.4996
   59MOL0     C 7895   8.997   5.555   8.445 -0.1482  0.4300 -1.1130
   59MOL0     C 7896   8.955   5.514   8.314  0.1934  0.2300 -0.1469
   59MOL0     C 7897   8.876   5.618   8.239  0.5741  0.0953  0.3921
   59MOL0     H 7898   9.041   5.414   7.817 -1.7525  2.3271  0.1374
   59MOL0     H 7899   8.967   5.338   7.604  1.9655 -4.8605  0.4244
   59MOL0     H 7900   8.809   5.338   7.408 -0.3140 -0.6438 -1.1753
   59MOL0     H 7901   8.867   5.166   7.444  0.5288 -0.5693 -1.4157
   59MOL0     H 7902   8.684   5.069   7.328  2.0704 -0.6064 -1.1169
   59MOL0     H 7903   8.755   5.190   7.222 -0.4934  2.1096  0.1602
   59MOL0     H 7904   8.563   5.347   7.301 -3.1545 -1.1046 -1.3699
   59MOL0     H 7905   8.504   5.218   7.415  1.0508  0.6964  0.8095
   59MOL0     H 7906   8.527   5.167   7.118  0.4629 -0.5758 -0.3825
   59MOL0     H 7907   8.450   5.067   7.233 -0.7518  0.7119 -1.3145
   59MOL0     H 7908   8.258   5.161   7.179 -2.1122  1.2129  0.8571
   59MOL0     H 7909   8.305   5.261   7.309 -2.0992 -2.9844  1.2326
   59MOL0     H 7910   8.248   5.421   7.161 -0.7606 -2.5386  1.6173
   59MOL0     H 7911   8.418   5.424   7.156  2.1064 -1.9529 -0.6351
   59MOL0     H 7912   8.278   5.243   6.965 -2.7267  0.9460  5.2120
   59MOL0     H 7913   8.437   5.311   6.944 -0.1407  0.1723 -1.9213
   59MOL0     H 7914   8.179   5.477   6.952 -0.9830 -3.6618  2.0955
   59MOL0     H 7915   8.345   5.537   6.897  0.8734 -1.7971  1.8518
   59MOL0     H 7916   8.401   5.512   6.636  3.4638 -2.8086 -0.5848
   59MOL0     H 7917   8.179   5.385   6.336  1.7595 -0.7793 -0.2820
   59MOL0     H 7918   8.299   5.515   6.367  0.9274 -0.5251 -2.4931
   59MOL0     H 7919   8.479   5.366   6.371  0.2346  1.4702 -1.5461
   59MOL0     H 7920   8.346   5.238   6.378 -2.1301 -0.2866 -0.8280
   59MOL0     H 7921   8.368   5.420   6.127 -2.0843  0.7307  2.1685
   59MOL0     H 7922   8.278   5.284   6.154 -0.5958 -0.0138  0.2787
   59MOL0     H 7923   8.561   5.296   6.082 -0.2828  1.6853  1.4430
   59MOL0     H 7924   8.451   5.165   6.048  0.1780 -2.1403  0.3565
   59MOL0     H 7925   8.630   5.129   6.474 -0.0440  2.0652  1.9935
   59MOL0     H 7926   8.852   5.200   6.570  1.0036  1.0647  0.7461
   59MOL0     H 7927   9.214   5.598   6.203  1.7638 -2.2124 -2.0573
   59MOL0     H 7928   9.402   5.749   6.260 -1.2353 -0.9642 -3.0456
   59MOL0     H 7929   9.565   5.721   6.666  0.5332 -0.6885  0.2205
   59MOL0     H 7930   9.671   5.627   6.568 -1.5278 -0.8910  1.3568
   59MOL0     H 7931   9.665   5.914   6.643  0.2539 -0.9780  0.2200
   59MOL0     H 7932   9.793   5.796   6.680  0.3007  0.0318 -0.6846
   59MOL0     H 7933   9.725   5.916   6.404  0.0194  0.8539  0.1755
   59MOL0     H 7934   9.865   5.956   6.502  0.2553 -0.2557  0.2283
   59MOL0     H 7935   9.823   5.685   6.361  0.8200  0.7410 -1.5258
   59MOL0     H 7936   9.952   5.727   6.470  0.2659  0.6390  0.3438
   59MOL0     H 7937  10.017   5.921   6.307  2.8506 -2.4035  0.9939
   59MOL0     H 7938   9.866   5.872   6.224  0.2821  2.5660  1.9257
   59MOL0     H 7939  10.140   5.729   6.263  0.1599 -0.8137  1.6979
   59MOL0     H 7940  10.002   5.639   6.206  0.1631 -0.0095  0.6769
   59MOL0     H 7941  10.154   5.852   6.077 -0.1441  1.9609 -0.6516
   59MOL0     H 7942   9.984   5.844   6.030  1.9012 -0.2488 -1.7594
   59MOL0     H 7943  10.124   5.726   5.882  0.6013  0.8785 -0.4360
   59MOL0     H 7944  10.174   5.602   6.009 -2.8353 -1.9487  0.6841
   59MOL0     H 7945   9.475   5.496   6.604 -0.7072  0.3010  1.0426
   59MOL0     H 7946   9.308   5.357   6.540  2.4597 -0.0784  0.3769
   59MOL0     H 7947   8.963   5.304   6.160  0.9858  0.6442  1.6159
   59MOL0     H 7948   8.768   5.211   6.083 -0.3737 -0.5458  0.2069
   59MOL0     H 7949   8.600   5.205   7.784 -1.3343  1.3654  0.8229
   59MOL0     H 7950   8.676   5.277   8.002  1.5093 -1.5192  1.1474
   59MOL0     H 7951   9.080   5.205   8.337  1.9870  0.2884  1.3260
   59MOL0     H 7952   9.171   5.275   8.536 -2.2966 -3.7030 -0.5966
   59MOL0     H 7953   9.218   5.369   8.741 -0.0448 -0.2093 -1.1499
   59MOL0     H 7954   9.054   5.405   8.784 -0.0965 -0.7080  0.5862
   59MOL0     H 7955   9.116   5.581   8.909  0.1749 -0.2763  2.2465
   59MOL0     H 7956   9.267   5.613   8.840 -0.8525  1.5538 -0.4717
   59MOL0     H 7957   9.340   5.374   8.940 -0.8293  0.0453 -2.0497
   59MOL0     H 7958   9.176   5.371   9.018 -4.5180  2.7936 -2.8442
   59MOL0     H 7959   9.424   5.545   9.053 -1.5667  2.8827 -1.3904
   59MOL0     H 7960   9.264   5.606   9.125  1.8318  2.2266  0.1502
   59MOL0     H 7961   9.310   5.326   9.399 -2.0022 -1.7941 -1.9674
   59MOL0     H 7962   8.976   5.653   8.487  1.3289  1.3987 -2.5003
   59MOL0     H 7963   8.767   5.611   8.245  0.2655  2.4822 -1.2144
   59MOL0     H 7964   8.902   5.715   8.283  4.0400 -0.0192 -1.0692
   59MOL0     H 7965   8.890   5.634   8.132  0.5717  1.4422  0.5695
   60MOL0     O 7966   3.957  10.986   1.599 -0.5904  0.0627  0.3385
   60MOL0     C 7967   3.905  11.092   1.637 -1.4780  0.4770  0.4598
   60MOL0     O 7968   3.779  11.107   1.680  0.0878 -0.4184 -0.4558
   60MOL0     C 7969   3.692  11.028   1.603 -0.3071  0.4363  0.2103
   60MOL0     C 7970   3.678  10.892   1.631 -0.5504  0.3703  0.7957
   60MOL0     C 7971   3.580  10.814   1.557 -0.7825  0.2268 -0.1927
   60MOL0     C 7972   3.515  10.867   1.454 -0.4244  0.0911 -1.0262
   60MOL0     O 7973   3.429  10.779   1.383 -1.2016 -1.1089 -0.2299
   60MOL0     C 7974   3.347  10.839   1.275 -0.2463  0.5954  0.2642
   60MOL0     C 7975   3.285  10.717   1.201  0.8548 -0.8685 -0.6750
   60MOL0     C 7976   3.191  10.775   1.091 -0.0906 -0.0604 -0.6045
   60MOL0     C 7977   3.268  10.782   0.959  0.4939  0.6322  0.3716
   60MOL0     C 7978   3.200  10.871   0.857  0.1541  0.0900 -0.2772
   60MOL0     C 7979   3.286  10.894   0.735 -0.5021 -0.0940 -0.1505
   60MOL0     C 7980   3.213  10.971   0.624 -0.0586  0.2314 -0.0859
   60MOL0     C 7981   3.307  10.986   0.507 -0.6173  0.4165 -0.5777
   60MOL0     N 7982   3.372  10.852   0.469  0.2201 -0.1676  0.3374
   60MOL0     C 7983   3.301  10.733   0.434  0.3159  0.9315  0.1115
   60MOL0     C 7984   3.403  10.640   0.432  0.1190 -0.3589  0.7150
   60MOL0     C 7985   3.380  10.487   0.427  0.1047 -0.8812  0.2047
   60MOL0     C 7986   3.297  10.422   0.537  0.7412  0.1339  0.2975
   60MOL0     C 7987   3.345  10.450   0.683  1.2838  0.1796 -1.1879
   60MOL0     C 7988   3.304  10.343   0.784  0.7579 -0.5456 -0.6529
   60MOL0     O 7989   3.166  10.357   0.799  0.0932 -0.4634 -0.1197
   60MOL0     C 7990   3.112  10.264   0.887  0.4329 -0.3175 -1.2864
   60MOL0     C 7991   3.002  10.203   0.842  0.0166 -0.1039  0.5011
   60MOL0     C 7992   2.933  10.100   0.911 -0.5879 -0.0689 -1.0222
   60MOL0     C 7993   2.996  10.044   1.031  0.0389 -0.8866 -0.3035
   60MOL0     C 7994   2.920   9.933   1.103  0.7372  0.5245 -0.8703
   60MOL0     O 7995   2.958   9.895   1.232 -0.4785  0.4897 -0.5198
   60MOL0     C 7996   2.867   9.819   1.303 -0.3016  0.8109  0.5222
   60MOL0     C 7997   2.909   9.735   1.410 -0.3068 -0.1083 -0.4782
   60MOL0     C 7998   2.824   9.683   1.505 -0.5484 -0.1729 -0.1327
   60MOL0     C 7999   2.692   9.723   1.508 -0.2187 -0.1611 -0.1710
   60MOL0     O 8000   2.630   9.683   1.626  0.0428 -0.0518  0.3627
   60MOL0     C 8001   2.496   9.727   1.656 -0.0926 -0.2314 -0.5795
   60MOL0     C 8002   2.453   9.689   1.801 -0.2412 -0.3327 -0.4770
   60MOL0     C 8003   2.410   9.542   1.809  0.3189 -0.4289  0.4390
   60MOL0     C 8004   2.292   9.512   1.904  0.7954 -0.1620 -0.2227
   60MOL0     C 8005   2.263   9.373   1.917 -0.5344  0.1941 -0.3404
   60MOL0     C 8006   2.176   9.351   2.045  0.1811 -0.6137 -0.1995
   60MOL0     C 8007   2.092   9.225   2.030  0.1036  0.8633  1.2401
   60MOL0     C 8008   2.173   9.099   2.028  0.3159  0.1875  0.0777
   60MOL0    Cl 8009   2.312   9.094   2.140 -0.0902 -0.2866  0.6048
   60MOL0     C 8010   2.644   9.801   1.405  0.3945  0.4988 -0.5804
   60MOL0     C 8011   2.728   9.855   1.308 -0.1015  0.1119  0.6030
   60MOL0     O 8012   2.819   9.884   1.043  0.4005 -0.3160  0.2165
   60MOL0     C 8013   3.097  10.128   1.091 -0.1574  0.2640  0.0334
   60MOL0     C 8014   3.154  10.240   1.022  0.3105 -0.8111  0.1293
   60MOL0     N 8015   3.512  10.697   0.451 -1.0330 -0.8767 -0.8051
   60MOL0     N 8016   3.498  10.824   0.473 -0.0525 -0.1067  0.2976
   60MOL0     C 8017   3.534  11.001   1.431 -0.3116 -0.6888  0.6881
   60MOL0     C 8018   3.624  11.080   1.500  0.2573 -0.1512 -0.4719
   60MOL0     C 8019   3.990  11.205   1.675 -0.6163  0.0769 -1.0221
   60MOL0     C 8020   4.016  11.305   1.584  0.0897  0.1389 -1.0861
   60MOL0     C 8021   4.088  11.423   1.628 -0.0889  0.6691  0.2008
   60MOL0     C 8022   4.124  11.437   1.762 -1.2630 -0.0981  0.1238
   60MOL0     O 8023   4.204  11.545   1.790  0.2658  0.2323  0.1816
   60MOL0     C 8024   4.179  11.611   1.908 -0.6881 -0.4225 -1.3535
   60MOL0     C 8025   4.226  11.756   1.889 -0.2983  0.8804  0.7995
   60MOL0     C 8026   4.375  11.757   1.842 -0.3482 -1.1315 -0.0116
   60MOL0     C 8027   4.434  11.895   1.860  0.4666 -0.7797  0.1945
   60MOL0     C 8028   4.573  11.875   1.878 -0.5005  1.1756  0.2492
   60MOL0     C 8029   4.696  11.846   1.889  0.1889  0.3255 -0.8500
   60MOL0     C 8030   4.090  11.340   1.856 -0.3227 -1.1063  0.2263
   60MOL0     C 8031   4.016  11.230   1.810  0.7272  0.6880 -0.1091
   60MOL0     C 8032   3.961  11.133   1.916 -1.3068  0.3191  0.2297
   60MOL0     H 8033   3.743  10.844   1.703  0.9392 -1.5669 -1.6794
   60MOL0     H 8034   3.549  10.711   1.570 -2.2208  0.5277 -0.9517
   60MOL0     H 8035   3.259  10.897   1.305 -1.1199 -0.5789  0.0290
   60MOL0     H 8036   3.411  10.887   1.200 -1.2128 -0.8413 -1.5260
   60MOL0     H 8037   3.221  10.673   1.278 -0.7419  0.2903 -1.2920
   60MOL0     H 8038   3.362  10.646   1.168  0.3937 -2.7640  1.9239
   60MOL0     H 8039   3.154  10.870   1.129  1.2020 -0.1534  0.9729
   60MOL0     H 8040   3.101  10.713   1.081 -3.1045  3.5138  1.8405
   60MOL0     H 8041   3.363  10.830   0.986 -0.6062  3.1216  0.0699
   60MOL0     H 8042   3.277  10.681   0.919 -1.8846  0.6160 -0.2385
   60MOL0     H 8043   3.113  10.820   0.814  0.1278  1.2934 -1.7457
   60MOL0     H 8044   3.169  10.961   0.912 -2.5683  0.0141 -1.5130
   60MOL0     H 8045   3.375  10.952   0.759 -0.3768 -0.4388  0.2255
   60MOL0     H 8046   3.323  10.798   0.698 -1.1166 -1.1431  1.8327
   60MOL0     H 8047   3.175  11.064   0.667  1.2924 -0.1998  2.2559
   60MOL0     H 8048   3.130  10.911   0.586  1.2541 -0.7743 -1.4707
   60MOL0     H 8049   3.260  11.039   0.424  1.3189  1.2752 -1.1583
   60MOL0     H 8050   3.390  11.051   0.534 -1.8166  1.5355  0.5755
   60MOL0     H 8051   3.194  10.717   0.432  0.7038 -2.1470 -0.9129
   60MOL0     H 8052   3.337  10.469   0.328 -2.3735  0.7653  0.8854
   60MOL0     H 8053   3.479  10.441   0.436  0.5958  0.2638  0.8691
   60MOL0     H 8054   3.194  10.458   0.523  1.4272  1.7138 -1.0165
   60MOL0     H 8055   3.302  10.313   0.535  2.5365  0.1731  1.3161
   60MOL0     H 8056   3.305  10.549   0.709  0.3491 -0.3417 -0.6248
   60MOL0     H 8057   3.454  10.456   0.679  1.3529 -0.4994 -0.4461
   60MOL0     H 8058   3.354  10.368   0.878  0.7484 -0.5475 -0.6474
   60MOL0     H 8059   3.344  10.245   0.756  1.8276 -0.4764  0.4982
   60MOL0     H 8060   2.957  10.219   0.745  0.5704 -2.8758 -0.3106
   60MOL0     H 8061   2.844  10.050   0.873 -0.6335  0.4019 -1.5562
   60MOL0     H 8062   3.016   9.722   1.423  0.2387  3.2914 -0.7664
   60MOL0     H 8063   2.865   9.613   1.577 -2.2801  0.4489  1.5320
   60MOL0     H 8064   2.471   9.832   1.639 -0.3374  0.1358  1.6687
   60MOL0     H 8065   2.435   9.674   1.582  0.3598 -1.6148  0.0075
   60MOL0     H 8066   2.532   9.712   1.873  0.4327 -0.4007 -1.1800
   60MOL0     H 8067   2.368   9.750   1.831  1.6118  1.2033  2.1097
   60MOL0     H 8068   2.397   9.488   1.714 -0.0920 -2.9326  1.8359
   60MOL0     H 8069   2.503   9.496   1.844  1.4435  1.2963 -0.1359
   60MOL0     H 8070   2.208   9.575   1.876 -0.9316 -2.7757 -1.2455
   60MOL0     H 8071   2.320   9.545   2.005  1.6168 -1.3104 -0.0615
   60MOL0     H 8072   2.359   9.322   1.925 -1.7372 -2.1671 -0.0577
   60MOL0     H 8073   2.226   9.333   1.822  0.7898  0.8065 -1.1422
   60MOL0     H 8074   2.237   9.357   2.135 -1.7710  0.4265  1.1489
   60MOL0     H 8075   2.113   9.440   2.055  0.8606 -0.0065 -1.1154
   60MOL0     H 8076   2.031   9.239   1.940 -1.3179  0.0789  2.0365
   60MOL0     H 8077   2.028   9.226   2.119  0.4557 -1.2867  1.5707
   60MOL0     H 8078   2.103   9.018   2.051  1.6558 -1.1174 -0.2517
   60MOL0     H 8079   2.216   9.075   1.930  0.0203 -1.4642  0.3216
   60MOL0     H 8080   2.536   9.817   1.403  0.2405 -0.5936 -2.2814
   60MOL0     H 8081   2.689   9.935   1.246 -0.6432  0.6253  1.5706
   60MOL0     H 8082   3.138  10.106   1.189  4.7095  0.7496 -1.5741
   60MOL0     H 8083   3.230  10.307   1.060 -0.3705  0.5732 -0.8768
   60MOL0     H 8084   3.494  11.052   1.344 -2.1114 -1.4141  1.0357
   60MOL0     H 8085   3.633  11.181   1.463  1.6987 -0.5417 -1.2523
   60MOL0     H 8086   3.981  11.294   1.482 -1.1524  2.7631 -1.0174
   60MOL0     H 8087   4.109  11.514   1.572 -0.0904 -1.6575 -4.0786
   60MOL0     H 8088   4.228  11.559   1.991 -0.8064 -0.7288 -1.4716
   60MOL0     H 8089   4.073  11.606   1.933  0.4616 -2.6908  4.9434
   60MOL0     H 8090   4.221  11.817   1.979 -0.5429 -1.7122  2.6452
   60MOL0     H 8091   4.161  11.791   1.808  0.9961 -1.6989 -1.5147
   60MOL0     H 8092   4.371  11.731   1.736 -1.2632  0.6976 -0.4546
   60MOL0     H 8093   4.420  11.686   1.912  2.6964 -1.8522 -2.4979
   60MOL0     H 8094   4.413  11.953   1.770  1.4776 -2.7057 -1.3622
   60MOL0     H 8095   4.394  11.939   1.952  2.1936  0.7771  0.2588
   60MOL0     H 8096   4.798  11.816   1.897  0.5920  0.8111 -3.2122
   60MOL0     H 8097   4.110  11.353   1.962 -2.6755  0.4191  0.5771
   60MOL0     H 8098   4.050  11.091   1.965 -0.0135  4.3378  1.7533
   60MOL0     H 8099   3.908  11.182   1.998 -1.1917 -1.5437  1.4910
   60MOL0     H 8100   3.886  11.062   1.880  0.2853  0.2905 -3.5088
   61MOL0     O 8101   8.610   3.580   1.058  0.2233 -0.3822  0.5777
   61MOL0     C 8102   8.642   3.591   0.940  1.8013  0.3113  0.0023
   61MOL0     O 8103   8.602   3.692   0.848  0.9545  0.5558 -0.4800
   61MOL0     C 8104   8.538   3.813   0.886 -0.6735  0.2723 -0.1538
   61MOL0     C 8105   8.599   3.882   0.992  0.2685 -0.4137 -0.8198
   61MOL0     C 8106   8.565   4.018   1.020 -0.3976  0.8433 -0.5830
   61MOL0     C 8107   8.468   4.088   0.950  0.3192  0.3328  0.3766
   61MOL0     O 8108   8.439   4.215   0.978  0.7123 -0.7450  0.0753
   61MOL0     C 8109   8.320   4.277   0.936 -0.1815 -0.6557  0.7787
   61MOL0     C 8110   8.316   4.417   0.998 -0.2057 -0.2315 -0.8710
   61MOL0     C 8111   8.181   4.489   0.976  0.1188  0.0286 -0.0073
   61MOL0     C 8112   8.166   4.611   1.079 -0.3481 -0.6852  0.4363
   61MOL0     C 8113   8.042   4.687   1.045  0.6821  0.3390  0.4437
   61MOL0     C 8114   8.017   4.814   1.130 -0.8050  0.5844 -0.7300
   61MOL0     C 8115   7.868   4.832   1.163 -0.0161 -1.1211  1.1465
   61MOL0     C 8116   7.771   4.851   1.040 -0.6738  0.3850 -0.7224
   61MOL0     N 8117   7.815   4.958   0.944 -0.4799  0.6821  1.1992
   61MOL0     C 8118   7.823   5.088   0.962 -0.3108 -0.1926 -0.6539
   61MOL0     C 8119   7.839   5.128   0.833 -0.3734 -0.8345  0.1876
   61MOL0     C 8120   7.823   5.267   0.789 -0.1689 -0.3227  0.5789
   61MOL0     C 8121   7.678   5.314   0.784  0.8142  0.0840 -0.0371
   61MOL0     C 8122   7.586   5.216   0.698  0.4922 -0.8433 -0.0807
   61MOL0     C 8123   7.442   5.277   0.667 -0.5371 -0.2874  0.5472
   61MOL0     O 8124   7.379   5.312   0.795  0.1124  0.9077  0.5044
   61MOL0     C 8125   7.249   5.369   0.787  0.5499  0.1300  0.6641
   61MOL0     C 8126   7.176   5.398   0.907  0.0828 -0.1810  1.0776
   61MOL0     C 8127   7.033   5.437   0.899  0.2312 -0.1351  1.0555
   61MOL0     C 8128   6.970   5.438   0.773 -0.2799  0.2321  0.4935
   61MOL0     C 8129   6.832   5.477   0.782 -0.3039 -0.2265 -0.3969
   61MOL0     O 8130   6.761   5.448   0.669  0.6160 -0.1760  0.1328
   61MOL0     C 8131   6.628   5.495   0.648  0.5703  0.5715  0.9609
   61MOL0     C 8132   6.591   5.625   0.635 -0.1007 -0.3084  0.5424
   61MOL0     C 8133   6.460   5.652   0.611 -0.0079 -0.4102 -0.3737
   61MOL0     C 8134   6.361   5.554   0.617 -1.2906  0.7567  0.8100
   61MOL0     O 8135   6.238   5.602   0.617 -0.2169 -0.1520 -0.0052
   61MOL0     C 8136   6.138   5.521   0.567  0.0312  0.2681  0.7756
   61MOL0     C 8137   6.006   5.599   0.545 -0.5167  0.7959  0.0368
   61MOL0     C 8138   5.883   5.504   0.514 -0.1999  0.8848 -0.4787
   61MOL0     C 8139   5.752   5.581   0.489 -0.2323 -0.0374  0.2014
   61MOL0     C 8140   5.651   5.486   0.423  0.2157 -0.6474 -0.0541
   61MOL0     C 8141   5.514   5.542   0.396 -0.4978 -0.1502 -0.2087
   61MOL0     C 8142   5.430   5.450   0.314 -0.4288 -0.1551 -0.8277
   61MOL0     C 8143   5.272   5.481   0.323 -0.4791 -0.5185 -1.0849
   61MOL0    Cl 8144   5.184   5.375   0.200 -0.4790  0.6548 -0.1634
   61MOL0     C 8145   6.402   5.420   0.635  0.4537 -0.6815 -0.4452
   61MOL0     C 8146   6.535   5.392   0.642 -0.1799  0.5259 -0.2867
   61MOL0     O 8147   6.780   5.519   0.885  0.3980  0.3380  0.6085
   61MOL0     C 8148   7.036   5.409   0.661 -0.2129  1.0238  0.3071
   61MOL0     C 8149   7.175   5.369   0.674  1.6756 -0.6798  0.1634
   61MOL0     N 8150   7.853   5.025   0.744 -0.3911  0.3299 -0.9641
   61MOL0     N 8151   7.849   4.917   0.823  0.0555 -0.7290  0.3430
   61MOL0     C 8152   8.412   4.018   0.842 -0.4004  0.6401  0.4101
   61MOL0     C 8153   8.451   3.884   0.809 -0.0093 -0.3314  0.5139
   61MOL0     C 8154   8.691   3.470   0.871  1.0626 -0.5579 -0.7203
   61MOL0     C 8155   8.754   3.495   0.749  0.7574  0.5584 -0.7980
   61MOL0     C 8156   8.812   3.391   0.681  0.4471  0.3141  0.5532
   61MOL0     C 8157   8.849   3.268   0.739 -0.2274 -0.0600 -0.3073
   61MOL0     O 8158   8.932   3.177   0.690  0.5838 -0.3768  0.7757
   61MOL0     C 8159   8.970   3.058   0.748  0.9690  0.4715 -0.1946
   61MOL0     C 8160   9.056   2.984   0.647  0.4110  0.2827  0.1302
   61MOL0     C 8161   9.200   3.018   0.634  0.7453 -0.2864 -0.1726
   61MOL0     C 8162   9.276   3.011   0.768  0.1100  0.4533 -0.5565
   61MOL0     C 8163   9.280   2.878   0.822 -1.0184  0.9441  0.2270
   61MOL0     C 8164   9.297   2.761   0.854  0.1372 -0.4762  1.1018
   61MOL0     C 8165   8.771   3.244   0.851  0.3261  0.5980 -0.0951
   61MOL0     C 8166   8.689   3.333   0.914  0.1385 -1.0694  0.5274
   61MOL0     C 8167   8.600   3.287   1.025 -0.0002  0.3556 -0.3946
   61MOL0     H 8168   8.688   3.831   1.030  1.1047  0.8591 -1.0065
   61MOL0     H 8169   8.635   4.073   1.083  2.0386 -0.3157 -2.1450
   61MOL0     H 8170   8.321   4.292   0.828 -1.6164 -3.5995  0.2445
   61MOL0     H 8171   8.230   4.216   0.951 -0.1781 -1.4240 -1.8776
   61MOL0     H 8172   8.393   4.472   0.943  0.9251 -1.9312 -1.0927
   61MOL0     H 8173   8.345   4.406   1.103 -0.0096 -0.6593 -0.9654
   61MOL0     H 8174   8.103   4.416   0.997  0.3114  0.1019  1.0388
   61MOL0     H 8175   8.171   4.527   0.874  2.5585 -0.8861 -0.6650
   61MOL0     H 8176   8.160   4.576   1.182 -0.5667 -3.5163 -0.4633
   61MOL0     H 8177   8.260   4.669   1.081 -0.0858 -0.9111 -1.9171
   61MOL0     H 8178   8.040   4.706   0.937 -1.4479  0.3098  0.4373
   61MOL0     H 8179   7.958   4.620   1.066  0.5059  1.0096  1.9974
   61MOL0     H 8180   8.076   4.798   1.220  1.2628  1.5359 -1.8492
   61MOL0     H 8181   8.068   4.901   1.087  1.2390 -0.3684 -0.3390
   61MOL0     H 8182   7.856   4.910   1.238  1.3996 -2.6123  3.0270
   61MOL0     H 8183   7.843   4.738   1.213 -3.6689 -1.2083 -0.5146
   61MOL0     H 8184   7.754   4.752   0.997  0.0267 -1.8142  3.5563
   61MOL0     H 8185   7.675   4.893   1.073 -0.6360 -0.9405  1.2585
   61MOL0     H 8186   7.793   5.129   1.058 -0.2158 -0.3558 -0.5552
   61MOL0     H 8187   7.863   5.341   0.859  1.3329 -0.7654  0.2405
   61MOL0     H 8188   7.881   5.280   0.697 -1.5674  0.6287 -0.2116
   61MOL0     H 8189   7.636   5.326   0.883 -0.3520 -2.4911 -0.1315
   61MOL0     H 8190   7.676   5.412   0.736 -2.7053  0.4455  0.6084
   61MOL0     H 8191   7.578   5.119   0.747 -0.5509 -0.4105  0.6345
   61MOL0     H 8192   7.645   5.200   0.606 -0.1589  3.2287 -1.4211
   61MOL0     H 8193   7.393   5.205   0.602 -0.8836 -2.2282  2.8191
   61MOL0     H 8194   7.454   5.373   0.616  2.3785 -1.0974 -0.5036
   61MOL0     H 8195   7.236   5.405   0.997  3.0006 -0.3113 -0.7353
   61MOL0     H 8196   6.981   5.466   0.990 -0.2258  0.0914  0.7212
   61MOL0     H 8197   6.660   5.706   0.657 -0.6459 -0.2526  2.1680
   61MOL0     H 8198   6.419   5.753   0.608 -2.0602 -1.2106 -2.4625
   61MOL0     H 8199   6.170   5.478   0.472 -1.4791 -0.1307  0.4179
   61MOL0     H 8200   6.130   5.443   0.643  0.5260  1.6265  2.2978
   61MOL0     H 8201   5.981   5.666   0.627  2.0726 -0.2701  1.8228
   61MOL0     H 8202   6.026   5.664   0.459  0.4091 -0.0325 -0.3961
   61MOL0     H 8203   5.907   5.443   0.426  2.8882 -0.7974  1.3249
   61MOL0     H 8204   5.880   5.436   0.599  0.7078 -1.9459 -2.5454
   61MOL0     H 8205   5.777   5.664   0.423  0.2652  0.3611  0.8716
   61MOL0     H 8206   5.712   5.618   0.584 -0.1692 -0.1945  0.2893
   61MOL0     H 8207   5.652   5.391   0.477  1.1665 -0.7198 -0.1788
   61MOL0     H 8208   5.697   5.462   0.326 -0.2352 -3.7464  0.4175
   61MOL0     H 8209   5.471   5.576   0.490  1.1595  1.8449 -0.1193
   61MOL0     H 8210   5.520   5.635   0.339  2.0612  0.2821  0.6562
   61MOL0     H 8211   5.441   5.346   0.346 -2.4730  0.0618  0.8017
   61MOL0     H 8212   5.456   5.462   0.208 -1.5943 -0.9003 -1.2145
   61MOL0     H 8213   5.230   5.446   0.418 -1.1302 -0.1251 -1.2176
   61MOL0     H 8214   5.250   5.589   0.322  1.0246 -0.1159  1.3382
   61MOL0     H 8215   6.326   5.342   0.637 -0.2516 -0.0442 -1.2536
   61MOL0     H 8216   6.577   5.293   0.655 -2.7750 -0.4405  1.7067
   61MOL0     H 8217   6.990   5.423   0.564  2.4251  0.7357 -1.0962
   61MOL0     H 8218   7.218   5.330   0.582 -0.7595  2.2792 -2.4661
   61MOL0     H 8219   8.337   4.066   0.780 -1.0372 -0.7689  0.0562
   61MOL0     H 8220   8.399   3.829   0.731  0.2514  1.3885 -0.9394
   61MOL0     H 8221   8.758   3.592   0.701 -2.6502  0.7981 -0.7919
   61MOL0     H 8222   8.867   3.415   0.591  0.0174  3.0139  0.9051
   61MOL0     H 8223   8.881   3.001   0.775  1.4020  0.8414  2.2010
   61MOL0     H 8224   9.022   3.067   0.843  0.4290 -1.2861  0.3122
   61MOL0     H 8225   9.009   2.989   0.548 -1.2788 -2.2047  0.7059
   61MOL0     H 8226   9.058   2.879   0.681  0.8425  0.7453  1.6287
   61MOL0     H 8227   9.212   3.124   0.614 -2.1718  0.3746  1.0579
   61MOL0     H 8228   9.245   2.967   0.549  0.2380  0.8180 -1.1205
   61MOL0     H 8229   9.380   3.038   0.749  0.9714  0.4363  3.3446
   61MOL0     H 8230   9.228   3.084   0.833 -1.8011  0.7906 -2.2628
   61MOL0     H 8231   9.327   2.673   0.907  0.8769 -1.2269 -0.5018
   61MOL0     H 8232   8.772   3.149   0.905 -3.2226  0.8622  0.6704
   61MOL0     H 8233   8.544   3.367   1.073  2.0789  1.1246  0.8770
   61MOL0     H 8234   8.529   3.217   0.981  0.1507 -0.0753  0.0365
   61MOL0     H 8235   8.657   3.241   1.106 -0.3516  5.3817  3.1609
   62MOL0     O 8236  10.602   9.441   1.400  0.4046 -0.3806  0.3925
   62MOL0     C 8237  10.663   9.549   1.403 -0.8732 -0.1260  0.0111
   62MOL0     O 8238  10.606   9.674   1.440 -0.0861  0.4658  0.4022
   62MOL0     C 8239  10.472   9.686   1.473  0.0026 -0.0684  1.0902
   62MOL0     C 8240  10.361   9.600   1.465  0.7351  0.1012  0.1228
   62MOL0     C 8241  10.232   9.638   1.503  0.6701  0.1333  1.4424
   62MOL0     C 8242  10.217   9.771   1.549  1.2420 -0.3985 -0.7871
   62MOL0     O 8243  10.093   9.811   1.604  0.5332 -0.2266 -0.6099
   62MOL0     C 8244  10.053   9.730   1.721  0.1361 -0.0380  0.7046
   62MOL0     C 8245   9.948   9.782   1.825  1.0744  0.0497  0.2077
   62MOL0     C 8246   9.803   9.795   1.765 -0.4432  0.4852 -0.5575
   62MOL0     C 8247   9.721   9.667   1.725 -0.1437 -0.8919 -0.2822
   62MOL0     C 8248   9.684   9.567   1.833 -0.6721  0.3884 -0.4177
   62MOL0     C 8249   9.643   9.432   1.772 -0.3107  1.1440 -0.0856
   62MOL0     C 8250   9.543   9.444   1.657 -0.6685  0.3255  0.1832
   62MOL0     C 8251   9.495   9.308   1.610 -0.8295  0.3275  0.5335
   62MOL0     N 8252   9.589   9.227   1.531  0.1842  0.8197 -0.0361
   62MOL0     C 8253   9.626   9.240   1.402 -0.0966 -0.3338 -0.0761
   62MOL0     C 8254   9.738   9.174   1.378 -0.5896  0.6128 -0.5231
   62MOL0     C 8255   9.835   9.156   1.262 -0.1893 -0.3621  0.9956
   62MOL0     C 8256   9.738   9.127   1.137  0.1207 -0.2567  0.1496
   62MOL0     C 8257   9.666   8.993   1.154 -0.4821  1.1527  0.4607
   62MOL0     C 8258   9.578   8.942   1.042  1.0435 -0.2388  0.1745
   62MOL0     O 8259   9.482   9.046   0.996  0.0550 -0.1753  0.2294
   62MOL0     C 8260   9.407   9.008   0.895  0.3728  0.7132  0.0477
   62MOL0     C 8261   9.388   8.886   0.839  0.0654  1.2489  0.4352
   62MOL0     C 8262   9.290   8.877   0.740 -0.1384  0.6161 -0.4122
   62MOL0     C 8263   9.204   8.974   0.693  1.0579 -0.2338 -0.4455
   62MOL0     C 8264   9.121   8.957   0.574 -0.4508  0.0310  0.3022
   62MOL0     O 8265   9.125   8.829   0.514 -0.8412  0.6583 -0.2793
   62MOL0     C 8266   9.076   8.789   0.398 -0.4628 -0.4195  0.0020
   62MOL0     C 8267   9.082   8.650   0.378  0.2404 -0.4098  0.0950
   62MOL0     C 8268   9.052   8.588   0.257 -0.2221  0.7213 -0.6463
   62MOL0     C 8269   9.008   8.658   0.141 -0.3566 -0.5780  0.0281
   62MOL0     O 8270   8.980   8.620   0.017  0.1546 -0.3525 -0.3442
   62MOL0     C 8271   8.966   8.474   0.001  0.5882 -0.5222  0.3429
   62MOL0     C 8272   8.890   8.440  -0.124  0.2769  0.0919  1.0613
   62MOL0     C 8273   8.850   8.292  -0.146  0.0879  0.1659 -0.3565
   62MOL0     C 8274   8.751   8.298  -0.268 -0.0108 -0.0909  0.3542
   62MOL0     C 8275   8.746   8.165  -0.342  0.0907 -1.0890 -0.3010
   62MOL0     C 8276   8.639   8.161  -0.455  0.4600 -0.9140  0.5401
   62MOL0     C 8277   8.628   8.016  -0.518 -0.1048 -0.7167  0.0979
   62MOL0     C 8278   8.755   7.967  -0.584  0.0876  0.1209 -0.6862
   62MOL0    Cl 8279   8.742   7.792  -0.615 -0.1400  0.3361  0.3779
   62MOL0     C 8280   8.993   8.805   0.165 -0.3029  0.7658 -0.5007
   62MOL0     C 8281   9.025   8.867   0.288 -0.4683 -0.7400 -0.4188
   62MOL0     O 8282   9.053   9.054   0.534 -0.8990 -0.1787  0.2795
   62MOL0     C 8283   9.220   9.092   0.753  0.0030 -0.2085  0.4682
   62MOL0     C 8284   9.322   9.112   0.846  0.1023  0.2007  0.1933
   62MOL0     N 8285   9.775   9.122   1.504  0.3831 -1.2327 -0.7987
   62MOL0     N 8286   9.682   9.150   1.593  0.2670 -1.0333 -0.6212
   62MOL0     C 8287  10.326   9.851   1.569  1.2166  1.1415 -0.1623
   62MOL0     C 8288  10.451   9.813   1.536 -0.5391  0.9301  0.9064
   62MOL0     C 8289  10.808   9.542   1.375  0.6673 -0.5501  0.5414
   62MOL0     C 8290  10.868   9.665   1.356 -0.0945 -0.6288  0.7330
   62MOL0     C 8291  11.002   9.675   1.311 -0.1061  0.1547  0.2645
   62MOL0     C 8292  11.079   9.565   1.312 -0.1061  0.3145  0.2273
   62MOL0     O 8293  11.209   9.564   1.284  0.8051  0.2572 -0.4643
   62MOL0     C 8294  11.254   9.536   1.154 -0.7340 -1.1636  0.5902
   62MOL0     C 8295  11.301   9.669   1.092 -0.6911 -0.7662  0.7221
   62MOL0     C 8296  11.372   9.641   0.952  0.2988  0.0593  0.7192
   62MOL0     C 8297  11.474   9.525   0.937  0.1581  0.0005 -0.3333
   62MOL0     C 8298  11.604   9.557   1.003 -0.0779 -0.7271 -0.0243
   62MOL0     C 8299  11.720   9.561   1.033  0.2806 -0.6568 -0.2278
   62MOL0     C 8300  11.027   9.443   1.349  0.7630 -0.0434 -0.5946
   62MOL0     C 8301  10.892   9.424   1.365  0.0677 -0.0959 -0.0897
   62MOL0     C 8302  10.846   9.279   1.379 -0.2951  0.1624  0.4333
   62MOL0     H 8303  10.378   9.505   1.415 -1.5278  0.3140 -1.1741
   62MOL0     H 8304  10.142   9.581   1.485  1.5571 -1.5191  2.0265
   62MOL0     H 8305  10.018   9.634   1.683  0.8457 -0.2719  0.6374
   62MOL0     H 8306  10.146   9.702   1.770  0.0589 -0.6115  0.5358
   62MOL0     H 8307   9.984   9.878   1.863 -1.6670  1.3350 -0.2462
   62MOL0     H 8308   9.947   9.704   1.901 -0.9692  1.7065  1.9871
   62MOL0     H 8309   9.799   9.871   1.687 -0.7563  0.5658 -0.4621
   62MOL0     H 8310   9.741   9.831   1.848  1.0457 -0.0099  0.8184
   62MOL0     H 8311   9.628   9.710   1.685  0.5017  3.9005  2.5533
   62MOL0     H 8312   9.779   9.622   1.644  0.6284  0.0042 -0.2510
   62MOL0     H 8313   9.761   9.556   1.910 -1.4210 -0.9199  0.1842
   62MOL0     H 8314   9.597   9.594   1.894  0.3206  0.0060  1.2468
   62MOL0     H 8315   9.726   9.370   1.736 -2.8613 -2.1279 -0.8326
   62MOL0     H 8316   9.595   9.377   1.853 -0.1098  1.0561 -0.0243
   62MOL0     H 8317   9.583   9.501   1.573 -2.5582  0.5784 -0.5880
   62MOL0     H 8318   9.460   9.504   1.697  2.3389  2.3934  4.0190
   62MOL0     H 8319   9.461   9.251   1.697  1.4986  1.6521  2.4293
   62MOL0     H 8320   9.399   9.327   1.560 -0.1513 -1.5069 -1.6486
   62MOL0     H 8321   9.578   9.289   1.318 -1.7575 -0.4769  0.7525
   62MOL0     H 8322   9.886   9.252   1.250  0.2587 -0.6529  0.5212
   62MOL0     H 8323   9.905   9.072   1.264 -0.3277 -0.6665 -2.1579
   62MOL0     H 8324   9.663   9.205   1.122 -2.4500 -3.1000 -3.3829
   62MOL0     H 8325   9.797   9.116   1.045  0.3190 -3.3727  0.5344
   62MOL0     H 8326   9.601   9.005   1.241  1.1376  6.0755  1.3224
   62MOL0     H 8327   9.741   8.915   1.172 -1.2511 -1.6517 -5.7582
   62MOL0     H 8328   9.529   8.850   1.076  0.2278 -2.4906 -5.8823
   62MOL0     H 8329   9.643   8.915   0.959 -0.6748  0.1916 -1.3673
   62MOL0     H 8330   9.418   8.791   0.882 -1.6978  0.1562 -0.6385
   62MOL0     H 8331   9.271   8.775   0.708 -4.1801  0.6611  1.2359
   62MOL0     H 8332   9.103   8.589   0.465 -2.3759 -3.1043 -0.9739
   62MOL0     H 8333   9.068   8.481   0.256 -0.9739  0.6093 -1.0684
   62MOL0     H 8334   9.060   8.418  -0.004  0.6420 -0.4875  0.8732
   62MOL0     H 8335   8.911   8.440   0.090 -0.5019  0.3025  0.0152
   62MOL0     H 8336   8.806   8.509  -0.124 -2.8599 -3.2304 -2.8842
   62MOL0     H 8337   8.959   8.472  -0.203 -2.9518  1.5939 -1.3278
   62MOL0     H 8338   8.942   8.239  -0.175  2.1159  4.0961 -1.9456
   62MOL0     H 8339   8.809   8.246  -0.056 -2.7858  3.3417  0.1524
   62MOL0     H 8340   8.771   8.372  -0.347 -1.5107  0.8902  0.8394
   62MOL0     H 8341   8.650   8.312  -0.227  0.2391 -0.6969  1.1906
   62MOL0     H 8342   8.721   8.098  -0.259  0.6416  1.5623  2.1627
   62MOL0     H 8343   8.846   8.141  -0.378 -0.1541 -1.8286 -0.4962
   62MOL0     H 8344   8.546   8.206  -0.418 -0.4158 -1.2762 -1.1364
   62MOL0     H 8345   8.662   8.227  -0.539  0.6654 -2.3563 -0.5831
   62MOL0     H 8346   8.533   8.027  -0.571 -1.7346  1.2798  3.1269
   62MOL0     H 8347   8.613   7.958  -0.427  2.3279  1.5471  2.0885
   62MOL0     H 8348   8.776   8.019  -0.678 -0.6577  1.4893 -0.1156
   62MOL0     H 8349   8.841   7.993  -0.521 -0.3225 -1.5074  0.6118
   62MOL0     H 8350   8.962   8.868   0.082  2.1314 -0.2752 -2.3403
   62MOL0     H 8351   9.019   8.975   0.289 -1.3348 -0.7827 -0.7026
   62MOL0     H 8352   9.157   9.178   0.737  2.1083  1.6018  1.3592
   62MOL0     H 8353   9.319   9.213   0.887 -1.2279  0.3575 -0.2329
   62MOL0     H 8354  10.314   9.954   1.603 -0.4292  1.5179 -1.6736
   62MOL0     H 8355  10.541   9.874   1.540 -0.6149  1.0116  1.4320
   62MOL0     H 8356  10.816   9.760   1.353  0.1884 -0.5011 -0.4845
   62MOL0     H 8357  11.053   9.765   1.279 -0.4900  0.4401  0.4469
   62MOL0     H 8358  11.167   9.505   1.094 -0.7499  2.2027 -1.3800
   62MOL0     H 8359  11.326   9.455   1.152 -0.9708 -1.4105 -1.9819
   62MOL0     H 8360  11.376   9.727   1.146  2.7886 -1.6368 -2.6935
   62MOL0     H 8361  11.222   9.738   1.061  0.5620 -0.2403 -1.5482
   62MOL0     H 8362  11.419   9.729   0.907 -1.8582  1.1872  0.5498
   62MOL0     H 8363  11.297   9.596   0.886  0.5249 -2.5865  2.1119
   62MOL0     H 8364  11.430   9.432   0.973 -0.3743  1.1338  2.1680
   62MOL0     H 8365  11.483   9.506   0.829 -2.6336 -1.7982 -0.3363
   62MOL0     H 8366  11.823   9.568   1.062 -0.0236  1.8627  0.4502
   62MOL0     H 8367  11.099   9.362   1.360  0.4300 -0.4043 -1.0379
   62MOL0     H 8368  10.806   9.279   1.481 -1.0812  3.4279  0.2188
   62MOL0     H 8369  10.771   9.254   1.303  3.5435 -1.2290 -3.2985
   62MOL0     H 8370  10.928   9.206   1.379  0.8207  1.2327 -2.9966
   63MOL0     O 8371   5.542   5.801   4.753  0.5181  0.0434 -0.0235
   63MOL0     C 8372   5.627   5.784   4.668  0.1633  0.4191  0.8753
   63MOL0     O 8373   5.602   5.795   4.526 -0.6785  0.3108 -1.2439
   63MOL0     C 8374   5.481   5.841   4.480  1.1124  0.5864 -0.0238
   63MOL0     C 8375   5.454   5.977   4.463 -1.1518 -0.2205  0.8251
   63MOL0     C 8376   5.325   6.018   4.427  0.6568 -0.1268 -0.9901
   63MOL0     C 8377   5.226   5.923   4.402 -0.2896 -0.5674  0.2503
   63MOL0     O 8378   5.105   5.984   4.379 -0.7793 -0.9412 -0.2700
   63MOL0     C 8379   4.989   5.899   4.352 -0.5414  0.1718  0.3442
   63MOL0     C 8380   4.865   5.972   4.392 -0.6895  0.1629  0.1703
   63MOL0     C 8381   4.735   5.898   4.349 -0.1761 -0.7790 -0.0730
   63MOL0     C 8382   4.616   5.997   4.361  0.3394  1.0657  0.2032
   63MOL0     C 8383   4.481   5.937   4.316  0.2360  0.1957 -0.2492
   63MOL0     C 8384   4.454   5.794   4.375 -0.4931 -0.3007 -1.4346
   63MOL0     C 8385   4.443   5.771   4.529 -0.4407  0.6532 -0.2391
   63MOL0     C 8386   4.327   5.840   4.601  1.0763 -0.2419  0.6176
   63MOL0     N 8387   4.370   5.876   4.733 -0.6239 -1.0178 -0.1540
   63MOL0     C 8388   4.340   5.994   4.785  0.0378  0.3073 -1.3069
   63MOL0     C 8389   4.367   6.001   4.911  0.5779  0.6218 -1.1638
   63MOL0     C 8390   4.324   6.111   5.006 -0.9437 -0.4320 -0.8003
   63MOL0     C 8391   4.176   6.094   5.047  0.0894 -0.0255 -0.4415
   63MOL0     C 8392   4.136   6.205   5.148  0.3659 -0.6442 -0.6372
   63MOL0     C 8393   4.165   6.349   5.105  0.6131 -0.1114 -0.3937
   63MOL0     O 8394   4.077   6.392   5.008 -0.0548 -0.2554  0.1373
   63MOL0     C 8395   4.009   6.513   5.030 -0.2867 -0.3495 -0.0684
   63MOL0     C 8396   4.043   6.620   4.949 -0.8436  0.9860  0.0755
   63MOL0     C 8397   3.986   6.742   4.950 -0.3939 -0.3875  0.2015
   63MOL0     C 8398   3.868   6.763   5.026 -0.4986  0.7728 -0.6295
   63MOL0     C 8399   3.803   6.893   5.023  0.6118  0.9062  0.7926
   63MOL0     O 8400   3.718   6.920   5.122  0.0945 -0.6064 -0.3427
   63MOL0     C 8401   3.707   7.051   5.157 -0.4132  0.0524 -0.1047
   63MOL0     C 8402   3.821   7.126   5.171 -0.1070  0.7265  0.4212
   63MOL0     C 8403   3.809   7.259   5.215  0.7756  0.4399  0.8757
   63MOL0     C 8404   3.692   7.313   5.243  0.3498  0.0773  0.3431
   63MOL0     O 8405   3.680   7.446   5.279  0.3666  0.2259  0.7065
   63MOL0     C 8406   3.646   7.478   5.412  0.0922 -0.8798 -0.1338
   63MOL0     C 8407   3.662   7.630   5.445 -1.1154 -0.0350  0.2644
   63MOL0     C 8408   3.667   7.663   5.592 -1.7883  0.4870 -0.2864
   63MOL0     C 8409   3.799   7.627   5.656  0.0824 -0.4283  0.8835
   63MOL0     C 8410   3.787   7.533   5.786 -0.4799 -0.3169  0.3899
   63MOL0     C 8411   3.918   7.498   5.850 -0.3834 -0.7547  0.5067
   63MOL0     C 8412   3.903   7.394   5.958 -0.2779 -0.2099  0.5866
   63MOL0     C 8413   3.997   7.415   6.076 -0.2994  0.1674  0.2089
   63MOL0    Cl 8414   4.167   7.464   6.036 -0.1873 -0.3716  0.2160
   63MOL0     C 8415   3.572   7.236   5.246 -0.2286  0.0258  0.4870
   63MOL0     C 8416   3.578   7.104   5.192  0.2982 -0.5116  0.2814
   63MOL0     O 8417   3.823   6.957   4.921  0.3194  0.2686  0.0323
   63MOL0     C 8418   3.820   6.647   5.105 -0.8188 -0.1727 -0.3627
   63MOL0     C 8419   3.896   6.531   5.121 -0.8340  0.3030 -0.4068
   63MOL0     N 8420   4.424   5.874   4.939  0.0832  0.5111 -0.1062
   63MOL0     N 8421   4.427   5.806   4.834 -0.9383  0.4930  0.4202
   63MOL0     C 8422   5.256   5.788   4.411  0.1969  0.1522  0.5945
   63MOL0     C 8423   5.386   5.744   4.445  0.5984 -0.0244  0.0595
   63MOL0     C 8424   5.767   5.781   4.723 -0.4315 -0.2500 -0.0630
   63MOL0     C 8425   5.867   5.851   4.653 -0.3536 -0.7956  0.3022
   63MOL0     C 8426   5.996   5.845   4.686  0.8846  0.1812 -0.1405
   63MOL0     C 8427   6.034   5.795   4.821  0.2253 -0.7192  0.9214
   63MOL0     O 8428   6.158   5.803   4.875 -0.0073 -0.1704  0.0660
   63MOL0     C 8429   6.266   5.869   4.812  0.4614  0.3681 -0.1184
   63MOL0     C 8430   6.351   5.908   4.942  0.2638  0.7973  0.4574
   63MOL0     C 8431   6.488   5.958   4.903 -0.1224 -0.2625  0.3108
   63MOL0     C 8432   6.493   6.111   4.847  0.2455  0.6757 -0.9389
   63MOL0     C 8433   6.482   6.210   4.954  1.1446  0.1938 -0.1087
   63MOL0     C 8434   6.485   6.293   5.042 -0.1340  0.3443 -1.2063
   63MOL0     C 8435   5.937   5.723   4.887 -0.2813  0.4203  0.1510
   63MOL0     C 8436   5.807   5.704   4.831 -0.5427 -0.4101 -0.7711
   63MOL0     C 8437   5.714   5.605   4.910  0.3517 -1.1162 -0.1965
   63MOL0     H 8438   5.527   6.054   4.486 -2.9463  1.7246  0.3448
   63MOL0     H 8439   5.292   6.121   4.425 -0.6274 -0.2988  2.7534
   63MOL0     H 8440   4.969   5.869   4.249 -2.5414 -3.4604  1.6243
   63MOL0     H 8441   5.006   5.804   4.404  2.4638  0.3264 -0.1469
   63MOL0     H 8442   4.888   6.068   4.345 -0.9422  1.6539  2.9016
   63MOL0     H 8443   4.869   5.974   4.501  2.4944 -0.2774  0.1616
   63MOL0     H 8444   4.732   5.805   4.407  0.7318  0.6006  2.3134
   63MOL0     H 8445   4.757   5.858   4.249 -0.0648 -1.2507  0.1328
   63MOL0     H 8446   4.612   6.012   4.469  0.7851  0.5066  0.2977
   63MOL0     H 8447   4.631   6.096   4.317  2.4446  0.6033 -0.2077
   63MOL0     H 8448   4.404   6.011   4.342  0.5139 -0.6542  3.5781
   63MOL0     H 8449   4.491   5.933   4.208  1.2104  0.4415 -0.1779
   63MOL0     H 8450   4.364   5.759   4.324 -1.4976  1.4237 -0.9304
   63MOL0     H 8451   4.533   5.724   4.344 -1.3124 -1.8387 -0.1612
   63MOL0     H 8452   4.533   5.799   4.584 -1.9469  4.9308  0.4191
   63MOL0     H 8453   4.439   5.662   4.541  2.2411  0.3294 -1.4614
   63MOL0     H 8454   4.283   5.921   4.543  1.5418  1.1600  2.1343
   63MOL0     H 8455   4.250   5.763   4.616 -0.0713 -0.2911 -4.0021
   63MOL0     H 8456   4.280   6.072   4.740 -1.6259 -0.5939 -0.7163
   63MOL0     H 8457   4.383   6.125   5.097 -3.3785  0.4391  0.7510
   63MOL0     H 8458   4.339   6.200   4.945  0.1493 -0.4737 -0.6209
   63MOL0     H 8459   4.117   6.103   4.955 -2.4809  2.7208  1.2918
   63MOL0     H 8460   4.167   5.998   5.099  1.8377  1.2847  2.5172
   63MOL0     H 8461   4.175   6.191   5.249 -1.5537  0.4238  0.3021
   63MOL0     H 8462   4.031   6.192   5.175 -0.1886 -0.3357 -2.5118
   63MOL0     H 8463   4.265   6.365   5.064  0.3641 -2.2605 -1.9937
   63MOL0     H 8464   4.142   6.403   5.198  0.1709  0.3111 -0.7434
   63MOL0     H 8465   4.137   6.609   4.894 -1.2476  1.2999 -0.6984
   63MOL0     H 8466   4.038   6.822   4.899  1.0864  0.2997  2.6543
   63MOL0     H 8467   3.922   7.086   5.164 -1.6877 -3.6815  0.0403
   63MOL0     H 8468   3.892   7.330   5.217 -0.8323  2.5526 -1.5569
   63MOL0     H 8469   3.541   7.462   5.439 -0.5271  2.8153  0.2229
   63MOL0     H 8470   3.710   7.419   5.478  1.4508  0.3647 -0.2637
   63MOL0     H 8471   3.745   7.667   5.383  1.9048 -2.9871  2.1937
   63MOL0     H 8472   3.582   7.688   5.398 -0.0060 -0.6212 -2.5736
   63MOL0     H 8473   3.653   7.770   5.609 -2.8503 -0.0230  2.4740
   63MOL0     H 8474   3.585   7.614   5.644 -1.3387 -0.2157 -0.2140
   63MOL0     H 8475   3.859   7.711   5.692  0.6750 -1.0133  1.2994
   63MOL0     H 8476   3.860   7.583   5.577 -0.0373  1.4291 -0.2982
   63MOL0     H 8477   3.745   7.438   5.752  2.7386 -0.7857 -2.8728
   63MOL0     H 8478   3.721   7.580   5.860 -1.6705  0.1831 -0.9288
   63MOL0     H 8479   3.996   7.469   5.779 -3.1087 -2.7164 -1.9127
   63MOL0     H 8480   3.958   7.589   5.896  1.2041 -1.0300 -0.2653
   63MOL0     H 8481   3.920   7.300   5.905  1.0740  0.6477 -0.5735
   63MOL0     H 8482   3.800   7.395   5.995 -0.6176 -3.0654 -0.0624
   63MOL0     H 8483   3.956   7.492   6.143  1.2987  1.8349 -0.6490
   63MOL0     H 8484   3.984   7.322   6.131 -0.9394 -0.3173 -0.7375
   63MOL0     H 8485   3.470   7.269   5.261 -0.6628 -0.2512 -1.4920
   63MOL0     H 8486   3.485   7.049   5.189  0.0984 -0.1286 -1.5526
   63MOL0     H 8487   3.728   6.662   5.161 -0.6219 -2.5779  0.7335
   63MOL0     H 8488   3.861   6.453   5.187  2.0593  0.7589  1.8705
   63MOL0     H 8489   5.179   5.712   4.408 -0.4407  0.8129 -0.6862
   63MOL0     H 8490   5.405   5.638   4.462  1.2675  0.0244 -0.3315
   63MOL0     H 8491   5.841   5.908   4.564 -1.7063 -0.4203  0.9052
   63MOL0     H 8492   6.069   5.898   4.625  2.6677 -1.1353  0.7730
   63MOL0     H 8493   6.247   5.965   4.762  1.7365  0.1744 -1.0330
   63MOL0     H 8494   6.306   5.800   4.737  0.9791  1.2764 -0.6983
   63MOL0     H 8495   6.366   5.820   5.004 -3.1205  0.1940  0.6246
   63MOL0     H 8496   6.300   5.976   5.011 -1.0510 -0.7666  1.0876
   63MOL0     H 8497   6.529   5.898   4.821 -0.1707  1.8264 -1.3089
   63MOL0     H 8498   6.556   5.951   4.989  1.7708  1.1316 -0.9754
   63MOL0     H 8499   6.594   6.129   4.809  0.2035 -0.2975 -1.5702
   63MOL0     H 8500   6.413   6.125   4.773 -1.4040  1.3732  0.8898
   63MOL0     H 8501   6.467   6.361   5.124 -0.5760 -2.3179  1.0489
   63MOL0     H 8502   5.960   5.679   4.983  2.0683  0.6335 -0.2754
   63MOL0     H 8503   5.774   5.521   4.946  0.8251 -1.1569 -1.0637
   63MOL0     H 8504   5.676   5.665   4.993  0.3284  0.3358 -1.2121
   63MOL0     H 8505   5.630   5.565   4.853  0.0549 -0.7692 -0.0082
   64MOL0     O 8506   6.117   1.135  11.038 -0.0027 -0.9011 -0.8374
   64MOL0     C 8507   6.136   1.252  11.062  0.7611 -0.1348 -0.2810
   64MOL0     O 8508   6.117   1.312  11.184  0.2577 -0.1669 -0.2445
   64MOL0     C 8509   6.051   1.235  11.277  0.4680  1.0079  0.2645
   64MOL0     C 8510   5.916   1.246  11.298 -1.2163 -0.4670 -0.0496
   64MOL0     C 8511   5.859   1.170  11.395 -0.0419  0.2699 -0.8853
   64MOL0     C 8512   5.922   1.065  11.466 -0.6468 -0.6162  0.3367
   64MOL0     O 8513   5.842   0.986  11.539 -0.1197 -0.2756 -0.8272
   64MOL0     C 8514   5.890   0.877  11.618 -0.5763 -0.1903  0.1324
   64MOL0     C 8515   5.871   0.753  11.537  0.1272 -0.1656  0.2118
   64MOL0     C 8516   5.933   0.642  11.609 -0.0471  1.1020 -0.1791
   64MOL0     C 8517   5.880   0.619  11.759  0.6153 -0.5091  0.7483
   64MOL0     C 8518   5.919   0.489  11.824  0.3045  0.2210  0.1993
   64MOL0     C 8519   5.873   0.453  11.969  0.2241  0.4545  0.3271
   64MOL0     C 8520   5.922   0.308  12.001 -0.8677  0.2846 -0.3499
   64MOL0     C 8521   5.818   0.211  12.060  0.3580  0.4639  0.0891
   64MOL0     N 8522   5.713   0.180  11.969  0.4395  0.4911 -0.0663
   64MOL0     C 8523   5.738   0.121  11.846  1.2396 -0.3259 -0.1762
   64MOL0     C 8524   5.618   0.134  11.779 -0.3370  0.3407  0.5387
   64MOL0     C 8525   5.605   0.075  11.643  0.4546  0.7389 -1.0712
   64MOL0     C 8526   5.573   0.166  11.538 -0.2942  0.8724  1.3779
   64MOL0     C 8527   5.685   0.278  11.529  0.2250 -0.2153 -0.5042
   64MOL0     C 8528   5.671   0.380  11.415 -0.2969  0.3045  0.4345
   64MOL0     O 8529   5.676   0.305  11.293 -0.4485 -0.4096 -0.5495
   64MOL0     C 8530   5.611   0.340  11.180 -0.1803  0.6327  0.0123
   64MOL0     C 8531   5.546   0.458  11.140  0.2283  0.3189 -0.5120
   64MOL0     C 8532   5.493   0.479  11.012 -0.8615 -0.2298 -0.2292
   64MOL0     C 8533   5.497   0.372  10.922 -0.9589 -0.0190  0.0471
   64MOL0     C 8534   5.444   0.392  10.790  0.6856  0.6613 -0.3831
   64MOL0     O 8535   5.325   0.459  10.773 -0.1724 -0.1278  0.3840
   64MOL0     C 8536   5.304   0.520  10.654 -0.5018 -0.1765  0.4509
   64MOL0     C 8537   5.395   0.610  10.588  0.5536  0.2120 -0.3935
   64MOL0     C 8538   5.359   0.666  10.467 -0.1156  0.4575  0.0323
   64MOL0     C 8539   5.236   0.635  10.408 -0.4663 -0.0414 -0.0685
   64MOL0     O 8540   5.188   0.662  10.277 -0.0557 -0.0923  0.3720
   64MOL0     C 8541   5.270   0.725  10.184 -0.0102 -0.2402 -1.1391
   64MOL0     C 8542   5.184   0.750  10.058 -0.1802  0.3243 -0.8932
   64MOL0     C 8543   5.265   0.797   9.939 -0.7749  0.3858 -0.8833
   64MOL0     C 8544   5.363   0.914   9.975  0.0620 -0.4305 -0.1955
   64MOL0     C 8545   5.420   0.964   9.843  0.4006 -1.0072  0.8460
   64MOL0     C 8546   5.555   1.029   9.871  0.4900  0.5866  0.6423
   64MOL0     C 8547   5.630   1.083   9.739  0.0707 -0.3114  0.3855
   64MOL0     C 8548   5.762   1.146   9.790  0.9951 -0.4471  0.8005
   64MOL0    Cl 8549   5.858   1.172   9.633  0.2156 -0.0042  0.2415
   64MOL0     C 8550   5.153   0.555  10.476  0.0267 -0.7647  0.3945
   64MOL0     C 8551   5.178   0.502  10.598 -0.4965  1.1511 -0.1231
   64MOL0     O 8552   5.524   0.356  10.698  0.8770  0.4352  0.3339
   64MOL0     C 8553   5.581   0.264  10.950  0.2332  0.5361  0.0776
   64MOL0     C 8554   5.630   0.245  11.079  0.2307 -0.1192 -0.0078
   64MOL0     N 8555   5.525   0.197  11.869  0.1691 -0.7321  0.3244
   64MOL0     N 8556   5.590   0.229  11.971  0.2614 -0.7431  0.6210
   64MOL0     C 8557   6.060   1.047  11.438  0.1694 -0.5317 -0.8403
   64MOL0     C 8558   6.123   1.135  11.345 -0.1999  0.1250 -0.4597
   64MOL0     C 8559   6.187   1.333  10.951 -0.0234  0.5796  0.5175
   64MOL0     C 8560   6.181   1.477  10.964 -0.1115  1.8774 -0.5947
   64MOL0     C 8561   6.221   1.555  10.857 -0.4126  0.4065 -0.9765
   64MOL0     C 8562   6.300   1.510  10.752 -0.0348  0.4222  0.3629
   64MOL0     O 8563   6.344   1.588  10.650  0.2856 -0.1305 -0.1069
   64MOL0     C 8564   6.404   1.708  10.700  0.5886  0.4593  0.3237
   64MOL0     C 8565   6.530   1.735  10.618  0.4314  1.0151 -0.5984
   64MOL0     C 8566   6.670   1.665  10.647 -0.0350 -0.4143  0.2258
   64MOL0     C 8567   6.749   1.732  10.754  0.1675  0.0911  1.1328
   64MOL0     C 8568   6.685   1.764  10.884 -0.3015 -0.0074 -0.8117
   64MOL0     C 8569   6.648   1.797  10.994 -0.0161  0.1097  0.5078
   64MOL0     C 8570   6.317   1.378  10.744 -0.8156 -0.4439 -0.3789
   64MOL0     C 8571   6.259   1.283  10.833 -0.6324  0.4235 -0.0022
   64MOL0     C 8572   6.290   1.138  10.807 -0.1108  0.9496 -0.1346
   64MOL0     H 8573   5.875   1.329  11.242 -1.8300 -0.5962  0.1988
   64MOL0     H 8574   5.751   1.174  11.404 -0.0771 -2.3459  0.9016
   64MOL0     H 8575   5.996   0.881  11.642 -0.6115  0.6996  0.2002
   64MOL0     H 8576   5.833   0.885  11.711 -1.4481 -1.1877 -0.2892
   64MOL0     H 8577   5.930   0.761  11.446 -2.6601 -2.2914 -1.9758
   64MOL0     H 8578   5.765   0.731  11.520 -1.2445  1.0466  5.3567
   64MOL0     H 8579   6.036   0.674  11.629  0.0531  1.8164 -1.6765
   64MOL0     H 8580   5.935   0.545  11.557  3.7131  1.3099 -0.6776
   64MOL0     H 8581   5.915   0.690  11.834  1.0531  0.4487 -0.3389
   64MOL0     H 8582   5.770   0.621  11.759  0.3170 -2.3864 -4.3290
   64MOL0     H 8583   5.883   0.411  11.756 -0.1899 -0.2832  1.0186
   64MOL0     H 8584   6.028   0.494  11.834  0.3259  0.3903 -0.1013
   64MOL0     H 8585   5.923   0.519  12.040  1.0786 -0.5149  0.6592
   64MOL0     H 8586   5.766   0.461  11.990 -0.5317 -3.2650 -1.2927
   64MOL0     H 8587   6.006   0.319  12.070 -0.5435  3.2902 -1.0801
   64MOL0     H 8588   5.953   0.261  11.907  1.8982 -1.4801  1.2935
   64MOL0     H 8589   5.874   0.121  12.089 -2.7773 -2.1656 -1.3921
   64MOL0     H 8590   5.779   0.259  12.150 -0.9955 -0.3118 -0.0622
   64MOL0     H 8591   5.824   0.064  11.813  1.2729  0.2418 -1.0875
   64MOL0     H 8592   5.702   0.031  11.617 -0.7744 -1.1855 -2.6130
   64MOL0     H 8593   5.531  -0.005  11.641 -1.4797  2.1975  2.6185
   64MOL0     H 8594   5.583   0.110  11.444  3.5724  2.7870  0.4501
   64MOL0     H 8595   5.471   0.206  11.546  0.1147  3.0570 -2.1502
   64MOL0     H 8596   5.785   0.235  11.528 -0.3103 -1.5644  0.4958
   64MOL0     H 8597   5.668   0.332  11.623  0.5424 -1.2783  0.1908
   64MOL0     H 8598   5.749   0.457  11.415 -0.5602  0.5815 -0.1870
   64MOL0     H 8599   5.573   0.427  11.431  0.0801  0.4840  2.3907
   64MOL0     H 8600   5.510   0.531  11.212  1.8989  1.0822 -0.4090
   64MOL0     H 8601   5.421   0.560  11.011  2.0309  2.5679  1.0366
   64MOL0     H 8602   5.493   0.622  10.633 -0.3722  0.7962  1.6153
   64MOL0     H 8603   5.437   0.728  10.424  0.9000  0.4932  1.8322
   64MOL0     H 8604   5.310   0.817  10.227  0.0368 -1.9470  2.8861
   64MOL0     H 8605   5.353   0.658  10.162  0.0260 -0.1391 -1.3061
   64MOL0     H 8606   5.149   0.649  10.036  0.8991 -0.3859  0.4573
   64MOL0     H 8607   5.109   0.825  10.083 -1.9100 -1.6281  0.0964
   64MOL0     H 8608   5.334   0.715   9.917 -1.2831 -0.4019  0.3617
   64MOL0     H 8609   5.200   0.813   9.853  0.5329 -1.9833 -2.4214
   64MOL0     H 8610   5.448   0.897  10.042 -0.6189  1.8549  1.4077
   64MOL0     H 8611   5.310   0.993  10.030  0.3829 -0.3724  0.0344
   64MOL0     H 8612   5.356   1.045   9.808 -1.4154 -0.5470  4.7156
   64MOL0     H 8613   5.436   0.889   9.765  1.2935  0.1559 -0.1320
   64MOL0     H 8614   5.542   1.113   9.940  0.8634  1.0982  0.1059
   64MOL0     H 8615   5.612   0.952   9.923 -0.8601 -1.9068 -1.3634
   64MOL0     H 8616   5.573   1.154   9.680  2.1226  2.3939  1.4383
   64MOL0     H 8617   5.657   0.996   9.678  1.1180  0.3964 -0.2041
   64MOL0     H 8618   5.735   1.239   9.840  1.3834  0.4401 -0.5813
   64MOL0     H 8619   5.814   1.079   9.859 -1.8283 -0.8812  2.6583
   64MOL0     H 8620   5.056   0.530  10.433  0.0128 -1.6181  0.9153
   64MOL0     H 8621   5.104   0.441  10.648  1.2601  0.6669  2.0235
   64MOL0     H 8622   5.607   0.180  10.886  1.1200 -1.4091  2.8005
   64MOL0     H 8623   5.687   0.155  11.101 -1.4382 -0.9778  0.9622
   64MOL0     H 8624   6.118   0.971  11.491 -1.8749  0.2696  2.9121
   64MOL0     H 8625   6.231   1.134  11.328  0.1788  3.8187  0.8552
   64MOL0     H 8626   6.120   1.505  11.049  0.1932 -0.3451  0.4304
   64MOL0     H 8627   6.204   1.662  10.863  0.3796  0.4530  1.6771
   64MOL0     H 8628   6.441   1.695  10.803 -1.7410 -3.1933  0.8823
   64MOL0     H 8629   6.334   1.792  10.695 -1.3829 -1.0829  0.8748
   64MOL0     H 8630   6.556   1.841  10.607 -0.6044  1.8434  3.3420
   64MOL0     H 8631   6.511   1.707  10.514  3.2506  1.0138 -1.1871
   64MOL0     H 8632   6.721   1.655  10.550 -1.4677 -3.9178 -0.3014
   64MOL0     H 8633   6.660   1.561  10.679  1.7713 -0.0583  2.1434
   64MOL0     H 8634   6.839   1.669  10.754  0.7471  0.6464 -2.9924
   64MOL0     H 8635   6.789   1.827  10.718 -0.3080  0.7162  2.2053
   64MOL0     H 8636   6.621   1.828  11.093  0.3496 -3.7087  1.9917
   64MOL0     H 8637   6.384   1.343  10.666  1.3729  2.6777 -0.1014
   64MOL0     H 8638   6.195   1.084  10.803 -0.4374  1.3632  1.6415
   64MOL0     H 8639   6.341   1.122  10.711 -0.9689  2.5583 -0.8967
   64MOL0     H 8640   6.327   1.087  10.896 -3.4404 -2.2176 -0.3151
   65MOL0     O 8641   1.124   3.968   4.705  0.6515 -0.2763 -0.7144
   65MOL0     C 8642   1.149   4.056   4.788  0.3237  0.6735  0.1513
   65MOL0     O 8643   1.260   4.062   4.866 -0.5074  0.0508 -0.3965
   65MOL0     C 8644   1.362   3.998   4.791  0.2436  0.1344  0.0395
   65MOL0     C 8645   1.385   3.867   4.810  0.3022  0.3472 -0.4427
   65MOL0     C 8646   1.501   3.806   4.752 -0.0218 -0.8642 -0.0076
   65MOL0     C 8647   1.587   3.878   4.674  0.1497  0.2844 -0.0735
   65MOL0     O 8648   1.704   3.827   4.624 -0.5100 -0.3592 -0.1005
   65MOL0     C 8649   1.681   3.734   4.527 -0.8078  0.1806 -0.1910
   65MOL0     C 8650   1.763   3.777   4.405  0.3082 -0.0288 -0.4016
   65MOL0     C 8651   1.906   3.727   4.427 -0.0571 -0.2732  0.4693
   65MOL0     C 8652   2.015   3.785   4.328  0.7799 -0.2659  0.2749
   65MOL0     C 8653   2.133   3.692   4.321  0.3289  0.9947  0.0143
   65MOL0     C 8654   2.108   3.556   4.242 -0.2767  0.3486 -0.4001
   65MOL0     C 8655   2.245   3.498   4.220 -0.0231  0.0232 -0.2210
   65MOL0     C 8656   2.231   3.369   4.148 -0.6368  0.5258  0.1644
   65MOL0     N 8657   2.363   3.305   4.133  0.0925  0.9616 -0.3144
   65MOL0     C 8658   2.436   3.261   4.237  0.3586  0.3189  0.3503
   65MOL0     C 8659   2.544   3.211   4.175 -0.0203  0.3223  0.6109
   65MOL0     C 8660   2.660   3.143   4.242  0.5625 -0.8515  0.2480
   65MOL0     C 8661   2.614   3.014   4.299 -0.4844 -0.1002 -0.3215
   65MOL0     C 8662   2.728   2.925   4.363  0.0097  0.1537  0.1854
   65MOL0     C 8663   2.664   2.788   4.397 -0.0429 -0.6620  0.5400
   65MOL0     O 8664   2.756   2.706   4.471 -0.0509 -0.8632 -0.2036
   65MOL0     C 8665   2.737   2.576   4.474  0.1704 -0.3473 -1.2956
   65MOL0     C 8666   2.612   2.523   4.499 -0.3144 -0.7757 -0.9284
   65MOL0     C 8667   2.578   2.388   4.491 -0.1182 -0.3339 -0.8966
   65MOL0     C 8668   2.684   2.298   4.451  0.1793  0.1364 -0.9799
   65MOL0     C 8669   2.653   2.155   4.419  0.0673  0.2869  0.8763
   65MOL0     O 8670   2.525   2.109   4.437  0.4027  1.1480 -0.6831
   65MOL0     C 8671   2.494   1.976   4.400  0.6928 -0.5247  0.6376
   65MOL0     C 8672   2.427   1.887   4.482  0.1744  0.0404  0.4381
   65MOL0     C 8673   2.386   1.756   4.439  0.2083 -0.0975 -1.0069
   65MOL0     C 8674   2.413   1.712   4.306 -0.2593  0.7520  0.5747
   65MOL0     O 8675   2.383   1.575   4.275 -0.3381  0.0416  0.7264
   65MOL0     C 8676   2.432   1.509   4.154  0.6559 -1.4880 -0.4454
   65MOL0     C 8677   2.421   1.356   4.148 -0.0448 -0.5210 -0.3452
   65MOL0     C 8678   2.455   1.295   4.281  0.1210  0.1729 -0.0329
   65MOL0     C 8679   2.409   1.155   4.286  0.5882  0.8824 -0.6096
   65MOL0     C 8680   2.449   1.075   4.413  0.1187 -1.8245 -0.0715
   65MOL0     C 8681   2.408   0.922   4.396 -0.8642 -0.3097 -0.3434
   65MOL0     C 8682   2.417   0.856   4.539 -0.2522  0.0176  0.1130
   65MOL0     C 8683   2.464   0.715   4.518  0.4419 -0.5309  0.0757
   65MOL0    Cl 8684   2.473   0.616   4.667  0.7327 -0.1284  0.0036
   65MOL0     C 8685   2.484   1.798   4.220 -0.0707  0.2849 -0.3019
   65MOL0     C 8686   2.514   1.933   4.259 -0.5957  0.3549 -1.2875
   65MOL0     O 8687   2.753   2.086   4.387 -0.0232 -0.0002  0.5549
   65MOL0     C 8688   2.817   2.347   4.441  0.6559  0.1863 -0.0989
   65MOL0     C 8689   2.845   2.486   4.469  0.8850  0.4857 -0.0768
   65MOL0     N 8690   2.535   3.221   4.040 -0.1687  0.0927  0.3393
   65MOL0     N 8691   2.429   3.283   4.015  0.0706 -0.1401  0.1556
   65MOL0     C 8692   1.558   4.014   4.646  0.0869  0.1920  0.3312
   65MOL0     C 8693   1.447   4.070   4.709  0.4154 -0.5730 -0.2080
   65MOL0     C 8694   1.046   4.155   4.831  0.9235 -0.6913  0.8725
   65MOL0     C 8695   0.925   4.114   4.886  0.3201  0.1947  0.6438
   65MOL0     C 8696   0.819   4.194   4.927 -0.2218  0.0959  0.2462
   65MOL0     C 8697   0.837   4.333   4.916  0.7412 -0.4640 -0.9581
   65MOL0     O 8698   0.738   4.429   4.944  0.5227  0.7163  0.0500
   65MOL0     C 8699   0.651   4.451   4.839 -0.9763 -0.6321 -0.6629
   65MOL0     C 8700   0.528   4.527   4.895  1.1985 -0.1377 -0.0300
   65MOL0     C 8701   0.447   4.442   4.998 -0.5002  0.6024  0.7099
   65MOL0     C 8702   0.350   4.524   5.083 -0.5956 -0.0081 -0.0362
   65MOL0     C 8703   0.424   4.610   5.178  0.1419 -0.1000  0.0187
   65MOL0     C 8704   0.464   4.662   5.283  0.6826 -0.3615  0.2634
   65MOL0     C 8705   0.955   4.378   4.863  1.5447  0.3151 -0.0070
   65MOL0     C 8706   1.058   4.294   4.821 -0.3619 -0.0214 -1.2849
   65MOL0     C 8707   1.187   4.363   4.776 -0.5195  0.3087  0.7185
   65MOL0     H 8708   1.303   3.813   4.857 -1.6692  1.8472 -1.9872
   65MOL0     H 8709   1.527   3.701   4.758  0.6616 -0.9831 -3.3255
   65MOL0     H 8710   1.704   3.637   4.571  0.4366  2.0119  3.6904
   65MOL0     H 8711   1.578   3.735   4.491 -0.0540  0.4609 -2.5206
   65MOL0     H 8712   1.753   3.885   4.398  1.0116  0.3264  2.5374
   65MOL0     H 8713   1.728   3.716   4.321 -2.4946  0.8298  0.0334
   65MOL0     H 8714   1.906   3.617   4.422  2.5533 -0.2607 -1.0322
   65MOL0     H 8715   1.942   3.749   4.528  4.6018 -0.8270 -0.8812
   65MOL0     H 8716   1.971   3.780   4.228 -0.4113  2.3375  0.5893
   65MOL0     H 8717   2.044   3.888   4.352 -1.0551  0.3431  0.0446
   65MOL0     H 8718   2.215   3.740   4.268  0.2065  0.3435 -0.7924
   65MOL0     H 8719   2.160   3.674   4.426  0.0331  2.3300  0.3467
   65MOL0     H 8720   2.043   3.489   4.300 -0.9949  3.3944  2.6065
   65MOL0     H 8721   2.053   3.564   4.148 -2.3353 -2.8633  0.3473
   65MOL0     H 8722   2.272   3.470   4.322 -0.6796 -2.5302 -0.6815
   65MOL0     H 8723   2.317   3.568   4.177  0.8575 -2.4795 -3.1758
   65MOL0     H 8724   2.162   3.303   4.200 -1.7699 -0.1507 -2.0826
   65MOL0     H 8725   2.191   3.403   4.052  2.8075  2.0552 -0.8873
   65MOL0     H 8726   2.407   3.275   4.340 -0.4151 -2.6339  0.6224
   65MOL0     H 8727   2.744   3.125   4.174 -0.4615 -2.2282 -0.7065
   65MOL0     H 8728   2.708   3.203   4.320 -0.8694 -0.7769  1.1154
   65MOL0     H 8729   2.541   3.029   4.379  1.5416 -0.7111  1.7649
   65MOL0     H 8730   2.563   2.966   4.216 -2.0843  2.9105 -1.2224
   65MOL0     H 8731   2.758   2.974   4.456  1.1900 -1.6820  0.8224
   65MOL0     H 8732   2.816   2.917   4.298  0.5162 -1.6094  1.0166
   65MOL0     H 8733   2.638   2.745   4.300  2.8487  0.6343 -0.9239
   65MOL0     H 8734   2.570   2.818   4.445 -0.0172  1.4515 -0.6455
   65MOL0     H 8735   2.537   2.596   4.526 -1.0031 -1.5048 -0.8292
   65MOL0     H 8736   2.473   2.372   4.512  0.4201 -1.8380  0.9514
   65MOL0     H 8737   2.407   1.922   4.583 -1.2752 -2.7762  1.2174
   65MOL0     H 8738   2.326   1.688   4.497  3.6565 -1.5961  1.1116
   65MOL0     H 8739   2.380   1.541   4.064 -0.7524  0.1238  0.8672
   65MOL0     H 8740   2.536   1.543   4.150  0.2618 -0.2103 -0.2253
   65MOL0     H 8741   2.312   1.343   4.144  0.0592 -3.4001  2.3952
   65MOL0     H 8742   2.470   1.312   4.061  2.3680  3.4283 -1.2272
   65MOL0     H 8743   2.563   1.296   4.301  0.7387  1.4076 -2.9663
   65MOL0     H 8744   2.402   1.343   4.364  2.9531 -0.3071  2.2351
   65MOL0     H 8745   2.436   1.103   4.194 -0.5989  1.7949 -1.5121
   65MOL0     H 8746   2.299   1.152   4.289  0.5803 -2.0106  0.1561
   65MOL0     H 8747   2.417   1.130   4.502 -1.6907  3.2299 -3.3764
   65MOL0     H 8748   2.558   1.080   4.406  0.0828  2.3772 -0.1524
   65MOL0     H 8749   2.303   0.918   4.366 -1.9864  0.4264  3.0567
   65MOL0     H 8750   2.454   0.865   4.315  1.2658  1.1039 -0.2093
   65MOL0     H 8751   2.322   0.863   4.593 -0.0625  0.4687  0.3974
   65MOL0     H 8752   2.485   0.913   4.603 -0.8766  2.3376 -1.1654
   65MOL0     H 8753   2.390   0.665   4.454 -0.5586  0.2160  0.6152
   65MOL0     H 8754   2.560   0.716   4.465  0.4372 -0.8882  0.0625
   65MOL0     H 8755   2.516   1.760   4.123 -1.9408 -1.1979 -0.4018
   65MOL0     H 8756   2.574   1.993   4.191  0.5863 -0.3555 -0.9093
   65MOL0     H 8757   2.893   2.276   4.410 -0.8074 -3.0646  2.9911
   65MOL0     H 8758   2.947   2.521   4.453  0.8802 -0.1308 -1.6131
   65MOL0     H 8759   1.613   4.083   4.582 -2.1431  2.5479  0.7780
   65MOL0     H 8760   1.432   4.175   4.689  2.8177  0.1130  1.1739
   65MOL0     H 8761   0.905   4.010   4.909 -0.1906  0.0636 -0.3793
   65MOL0     H 8762   0.728   4.154   4.972 -0.2893 -2.9919 -2.3204
   65MOL0     H 8763   0.622   4.352   4.802  2.1966 -0.9252 -2.7331
   65MOL0     H 8764   0.679   4.516   4.756 -4.0648  1.1372 -0.5020
   65MOL0     H 8765   0.463   4.542   4.808 -0.4295 -0.6061  1.0636
   65MOL0     H 8766   0.550   4.626   4.937 -0.1093 -0.5356  1.7386
   65MOL0     H 8767   0.517   4.396   5.068  0.2296  2.4305  1.2266
   65MOL0     H 8768   0.401   4.358   4.945  1.6124 -1.0447  1.3105
   65MOL0     H 8769   0.300   4.590   5.012  0.5976  0.8388 -0.1281
   65MOL0     H 8770   0.278   4.461   5.135 -1.0489  2.5796  2.7380
   65MOL0     H 8771   0.505   4.707   5.371 -1.7805 -0.3728  1.4887
   65MOL0     H 8772   0.961   4.486   4.853 -2.6423  0.7028 -0.4784
   65MOL0     H 8773   1.178   4.470   4.798 -2.6965  0.6040 -1.1637
   65MOL0     H 8774   1.285   4.328   4.809 -1.0558 -1.9785  0.0240
   65MOL0     H 8775   1.197   4.369   4.667 -0.5080  1.0098  0.7503
   66MOL0     O 8776   3.828   5.033   0.002  0.9462 -0.2357 -0.2266
   66MOL0     C 8777   3.796   5.028   0.126 -0.0265 -1.2198  0.8016
   66MOL0     O 8778   3.699   5.098   0.192 -0.7519  0.2014  0.8000
   66MOL0     C 8779   3.620   5.187   0.125 -0.7617  0.3528 -0.2025
   66MOL0     C 8780   3.490   5.195   0.166  0.0652  0.4568 -0.4542
   66MOL0     C 8781   3.394   5.279   0.115  0.3486 -0.3004 -0.8760
   66MOL0     C 8782   3.429   5.360   0.010 -0.6091  0.2667 -0.0983
   66MOL0     O 8783   3.335   5.444  -0.041 -0.7331 -0.3392  0.8804
   66MOL0     C 8784   3.304   5.407  -0.178 -0.2282 -0.9319 -0.2129
   66MOL0     C 8785   3.189   5.480  -0.242  0.1468  0.6540 -1.0979
   66MOL0     C 8786   3.062   5.472  -0.147  0.2342  0.7111  0.1558
   66MOL0     C 8787   2.929   5.514  -0.215 -0.4945 -0.3235  0.0342
   66MOL0     C 8788   2.814   5.475  -0.129 -0.5181 -0.2567  0.2105
   66MOL0     C 8789   2.802   5.567  -0.010 -0.5773  0.3306 -0.0532
   66MOL0     C 8790   2.669   5.533   0.060 -0.7735 -0.3439 -0.1220
   66MOL0     C 8791   2.647   5.641   0.160  0.5439  0.0238 -0.1532
   66MOL0     N 8792   2.500   5.687   0.171 -1.0016  0.4750  1.0215
   66MOL0     C 8793   2.452   5.748   0.279  0.7927 -0.0160 -0.3124
   66MOL0     C 8794   2.326   5.791   0.248 -0.5047  0.3391  0.8106
   66MOL0     C 8795   2.227   5.859   0.332  0.2940 -0.1768  0.1313
   66MOL0     C 8796   2.143   5.752   0.398 -0.0762  0.1540 -0.8845
   66MOL0     C 8797   2.009   5.806   0.461 -0.8023 -0.4257  0.1032
   66MOL0     C 8798   1.931   5.692   0.525  0.5274 -0.3718 -0.8042
   66MOL0     O 8799   1.802   5.741   0.559  0.4117  0.4142  0.0994
   66MOL0     C 8800   1.707   5.776   0.463 -0.4219  0.0437  0.6022
   66MOL0     C 8801   1.700   5.717   0.334 -0.9372 -0.9180 -0.3564
   66MOL0     C 8802   1.610   5.767   0.236 -0.0713  0.1591 -0.7541
   66MOL0     C 8803   1.513   5.867   0.269 -0.5770  0.2899  0.1911
   66MOL0     C 8804   1.427   5.916   0.166  0.2992 -0.5716 -0.6704
   66MOL0     O 8805   1.441   5.874   0.033 -0.0924  0.8313 -0.8354
   66MOL0     C 8806   1.338   5.905  -0.059  0.3353 -1.2538 -0.3269
   66MOL0     C 8807   1.291   6.034  -0.066 -0.3628 -0.2660  0.6477
   66MOL0     C 8808   1.193   6.084  -0.149  0.1369  0.7232 -0.3974
   66MOL0     C 8809   1.133   5.991  -0.240  0.3014  0.5013  0.0114
   66MOL0     O 8810   1.026   6.018  -0.327  0.7614  0.1166  0.2242
   66MOL0     C 8811   0.996   6.161  -0.351  1.7288 -1.8899 -0.5172
   66MOL0     C 8812   0.872   6.187  -0.434 -0.2905 -0.5546 -0.4939
   66MOL0     C 8813   0.884   6.128  -0.576 -0.4924  0.5482  0.2241
   66MOL0     C 8814   0.826   5.987  -0.590 -0.6192 -0.0805 -0.9034
   66MOL0     C 8815   0.795   5.936  -0.737  0.1483 -0.5080 -0.5019
   66MOL0     C 8816   0.909   5.933  -0.839 -0.6906 -1.0999 -0.3582
   66MOL0     C 8817   1.024   5.828  -0.803  0.9423 -0.3669 -0.4639
   66MOL0     C 8818   0.991   5.680  -0.837  0.0253 -0.8387 -0.3345
   66MOL0    Cl 8819   1.111   5.561  -0.822  0.1772 -0.0764 -0.2952
   66MOL0     C 8820   1.185   5.859  -0.245  0.5782 -0.7536 -0.0398
   66MOL0     C 8821   1.287   5.822  -0.157 -0.0531  0.0670 -0.8984
   66MOL0     O 8822   1.340   5.999   0.207  0.5491  0.3462 -0.7594
   66MOL0     C 8823   1.512   5.922   0.403  1.0776  0.6564  0.0228
   66MOL0     C 8824   1.610   5.872   0.493  0.7135 -0.0374 -0.0069
   66MOL0     N 8825   2.304   5.755   0.118 -0.5516 -0.4906  0.0902
   66MOL0     N 8826   2.407   5.688   0.076 -0.2445 -0.3711  0.6182
   66MOL0     C 8827   3.550   5.358  -0.044 -0.2000  0.3018 -0.6504
   66MOL0     C 8828   3.645   5.266   0.009  0.8778  0.4826  0.1284
   66MOL0     C 8829   3.880   4.944   0.209  0.0037 -0.1003 -0.0576
   66MOL0     C 8830   4.014   4.937   0.171 -0.4739  0.5012 -0.1210
   66MOL0     C 8831   4.103   4.873   0.246 -0.7172 -0.9119 -0.8324
   66MOL0     C 8832   4.069   4.817   0.371  0.2257 -0.1716  0.1906
   66MOL0     O 8833   4.154   4.751   0.456 -0.2215  0.5224 -0.3258
   66MOL0     C 8834   4.294   4.763   0.445 -0.1190 -0.4551  0.6962
   66MOL0     C 8835   4.350   4.734   0.582 -0.9400  0.6541  0.0867
   66MOL0     C 8836   4.359   4.855   0.665  0.1947 -0.4671  0.2220
   66MOL0     C 8837   4.504   4.915   0.684  0.7717  1.2583 -0.2435
   66MOL0     C 8838   4.498   5.014   0.792  0.1112 -0.1098  0.0197
   66MOL0     C 8839   4.495   5.110   0.874  0.3528 -0.2946 -0.1145
   66MOL0     C 8840   3.934   4.832   0.414 -0.2961  1.2090  0.6277
   66MOL0     C 8841   3.835   4.884   0.334 -0.3455  0.0361 -0.3757
   66MOL0     C 8842   3.691   4.880   0.383  0.2130  0.2131 -0.2789
   66MOL0     H 8843   3.449   5.136   0.247 -0.0971 -1.0084 -1.5512
   66MOL0     H 8844   3.295   5.274   0.159 -0.1100  3.3100 -1.1762
   66MOL0     H 8845   3.391   5.434  -0.238 -0.0963  1.4896  0.9331
   66MOL0     H 8846   3.280   5.300  -0.174  0.2045 -1.0054  0.8031
   66MOL0     H 8847   3.169   5.422  -0.333  0.4941 -0.8801 -0.2349
   66MOL0     H 8848   3.202   5.588  -0.255 -4.5011  1.7006  0.9407
   66MOL0     H 8849   3.074   5.519  -0.049  0.6519 -0.2657  0.5919
   66MOL0     H 8850   3.047   5.365  -0.128  1.7605  0.4594  0.0494
   66MOL0     H 8851   2.938   5.622  -0.224  3.2861 -0.4211  0.8949
   66MOL0     H 8852   2.912   5.475  -0.316  0.4309  0.8409 -0.5977
   66MOL0     H 8853   2.728   5.493  -0.193 -2.5592 -2.6150  2.0531
   66MOL0     H 8854   2.819   5.373  -0.087  0.3613  0.3905  1.7732
   66MOL0     H 8855   2.885   5.575   0.061  0.8429 -2.5725 -1.1970
   66MOL0     H 8856   2.799   5.668  -0.052  2.0053  0.1952 -0.7562
   66MOL0     H 8857   2.677   5.444   0.123  1.2100  0.0617  0.2917
   66MOL0     H 8858   2.588   5.514  -0.010  0.6869 -0.3759 -1.8873
   66MOL0     H 8859   2.674   5.607   0.261  0.5662  0.5171  0.0118
   66MOL0     H 8860   2.705   5.729   0.133  1.5746 -0.6581 -0.2200
   66MOL0     H 8861   2.503   5.753   0.375  0.2446 -5.8393  0.6528
   66MOL0     H 8862   2.274   5.922   0.408 -0.3929 -0.4994  0.8286
   66MOL0     H 8863   2.158   5.925   0.278 -0.4413 -0.0695  1.1733
   66MOL0     H 8864   2.115   5.680   0.320  0.3666 -1.7346  0.6270
   66MOL0     H 8865   2.203   5.709   0.478  1.3448 -0.5796 -2.3006
   66MOL0     H 8866   1.947   5.846   0.380 -2.3576 -1.0262  0.9526
   66MOL0     H 8867   2.027   5.881   0.539  0.7674  1.6234 -2.0846
   66MOL0     H 8868   1.973   5.657   0.620  1.4597  0.4067 -0.9202
   66MOL0     H 8869   1.939   5.605   0.459  2.6236 -0.9068  0.0791
   66MOL0     H 8870   1.772   5.640   0.311 -0.5020 -0.3754 -0.8381
   66MOL0     H 8871   1.613   5.741   0.131  1.5168  0.8388 -0.9172
   66MOL0     H 8872   1.327   6.109   0.003  1.0196 -0.4720  0.1837
   66MOL0     H 8873   1.158   6.187  -0.154 -2.6419 -0.1345 -0.5629
   66MOL0     H 8874   0.969   6.220  -0.264 -0.4762 -0.3910 -2.1018
   66MOL0     H 8875   1.083   6.204  -0.402  2.0104 -1.4862  0.2856
   66MOL0     H 8876   0.782   6.149  -0.387  1.0625  0.3229  3.1168
   66MOL0     H 8877   0.868   6.296  -0.437 -3.8376 -0.6062 -1.9640
   66MOL0     H 8878   0.842   6.197  -0.650  4.4499  1.3399 -2.2440
   66MOL0     H 8879   0.984   6.112  -0.616 -0.5635  1.2018 -0.2368
   66MOL0     H 8880   0.738   5.978  -0.526  0.5498 -2.3178  0.5559
   66MOL0     H 8881   0.896   5.918  -0.541 -2.8845 -1.1453  1.0184
   66MOL0     H 8882   0.723   6.011  -0.774  2.5197  1.9797 -0.3919
   66MOL0     H 8883   0.750   5.837  -0.737  2.6312 -1.7074 -0.4909
   66MOL0     H 8884   0.856   5.913  -0.932 -2.9589 -1.3679  0.9324
   66MOL0     H 8885   0.952   6.029  -0.870  0.1994 -0.6242  2.0849
   66MOL0     H 8886   1.046   5.827  -0.696 -0.0547  0.8672 -0.2143
   66MOL0     H 8887   1.118   5.860  -0.847  1.5565 -0.0641  1.0111
   66MOL0     H 8888   0.903   5.646  -0.783 -0.9885  0.8149 -0.8560
   66MOL0     H 8889   0.959   5.674  -0.941  3.3639 -3.1408 -1.4117
   66MOL0     H 8890   1.130   5.789  -0.307  0.4743 -2.0416  1.4625
   66MOL0     H 8891   1.327   5.721  -0.163 -0.4788 -0.0928 -1.1306
   66MOL0     H 8892   1.450   6.009   0.419 -0.8811 -0.2184 -2.1666
   66MOL0     H 8893   1.602   5.922   0.589 -1.6179  1.7177 -1.0207
   66MOL0     H 8894   3.578   5.425  -0.125  2.3076 -0.2440 -0.3201
   66MOL0     H 8895   3.745   5.263  -0.035  0.1368  0.6814 -1.6695
   66MOL0     H 8896   4.045   4.987   0.080  2.4895  2.2467  1.6865
   66MOL0     H 8897   4.208   4.854   0.222 -0.2003  0.8290 -0.0693
   66MOL0     H 8898   4.329   4.862   0.413  1.4622 -1.6260 -1.4343
   66MOL0     H 8899   4.334   4.709   0.359 -1.7394 -0.5496 -0.0405
   66MOL0     H 8900   4.445   4.681   0.577  0.0844  2.4839 -3.7867
   66MOL0     H 8901   4.279   4.663   0.626 -2.1936  1.1969 -0.9614
   66MOL0     H 8902   4.325   4.833   0.767  2.6859  2.8832  2.0115
   66MOL0     H 8903   4.289   4.932   0.632  0.2257  0.6999  2.6258
   66MOL0     H 8904   4.573   4.834   0.709 -2.1331 -0.7258  2.0651
   66MOL0     H 8905   4.544   4.963   0.594  4.2938  2.6187  1.8471
   66MOL0     H 8906   4.498   5.193   0.942  2.0136 -1.9071  1.9465
   66MOL0     H 8907   3.903   4.779   0.503 -0.9254  1.3603  0.4999
   66MOL0     H 8908   3.661   4.788   0.435  0.2380  1.2851  1.7378
   66MOL0     H 8909   3.677   4.966   0.449 -0.9067  1.5808 -2.2089
   66MOL0     H 8910   3.627   4.892   0.295  0.3865 -0.7674 -0.5506
   67MOL0     O 8911  10.847   0.856   1.791  0.0802 -0.1535 -0.1796
   67MOL0     C 8912  10.749   0.906   1.735  0.6560 -0.2349 -0.5906
   67MOL0     O 8913  10.751   1.011   1.647  0.1847  0.2259 -0.5796
   67MOL0     C 8914  10.871   1.025   1.588  0.2846 -0.2081 -0.4410
   67MOL0     C 8915  10.967   1.107   1.649 -0.6955 -0.4621 -0.1499
   67MOL0     C 8916  11.085   1.138   1.583  0.9318 -0.5433 -0.8695
   67MOL0     C 8917  11.111   1.083   1.457 -1.0677 -0.0123 -0.1102
   67MOL0     O 8918  11.238   1.103   1.400  0.3801 -0.2330 -0.1440
   67MOL0     C 8919  11.279   1.237   1.383  0.5035  0.2317  1.0306
   67MOL0     C 8920  11.422   1.249   1.358 -0.3293 -0.4036 -0.3598
   67MOL0     C 8921  11.495   1.191   1.480  0.3464  0.0764 -0.4970
   67MOL0     C 8922  11.646   1.211   1.477  0.6210 -1.1908 -0.1092
   67MOL0     C 8923  11.721   1.122   1.574  0.0796 -0.7110 -0.2304
   67MOL0     C 8924  11.868   1.144   1.570 -0.2555  0.3146 -0.6922
   67MOL0     C 8925  11.949   1.058   1.673 -0.4398 -0.0776  0.4633
   67MOL0     C 8926  12.099   1.104   1.687 -0.2860  0.3154 -0.1959
   67MOL0     N 8927  12.159   1.017   1.792  0.0984  0.0365 -0.1502
   67MOL0     C 8928  12.259   0.925   1.776  0.4549 -0.2899 -0.1915
   67MOL0     C 8929  12.266   0.873   1.898 -0.2525  0.2365 -0.2460
   67MOL0     C 8930  12.378   0.773   1.925  0.1864  0.0432 -0.1769
   67MOL0     C 8931  12.359   0.713   2.063  0.8248  0.3432  0.2358
   67MOL0     C 8932  12.221   0.628   2.068  0.5719  0.6678  0.5574
   67MOL0     C 8933  12.208   0.533   2.184 -1.0821 -0.3361  0.1575
   67MOL0     O 8934  12.113   0.435   2.160 -0.5840  0.0581  0.0757
   67MOL0     C 8935  12.074   0.351   2.263  0.7906  0.3058  0.7005
   67MOL0     C 8936  11.998   0.240   2.225 -0.4951 -1.0564  0.5354
   67MOL0     C 8937  11.948   0.150   2.317  0.0325  0.3511 -0.7088
   67MOL0     C 8938  11.978   0.164   2.459  0.3403  0.0536  1.3132
   67MOL0     C 8939  11.939   0.047   2.549 -0.4032 -1.0184  0.8098
   67MOL0     O 8940  12.016   0.033   2.662 -0.2998 -0.5280  0.2316
   67MOL0     C 8941  11.973  -0.045   2.766  1.0656 -0.8445  0.6139
   67MOL0     C 8942  11.834  -0.058   2.798  0.1374  0.1325 -0.4792
   67MOL0     C 8943  11.798  -0.146   2.897 -0.0928 -0.1849 -0.3207
   67MOL0     C 8944  11.890  -0.208   2.988  0.1163  0.4568 -0.6102
   67MOL0     O 8945  11.848  -0.298   3.083 -0.6727  0.5142  0.4928
   67MOL0     C 8946  11.924  -0.424   3.087  0.7624 -0.1157  0.4084
   67MOL0     C 8947  11.842  -0.523   3.167 -0.5999 -0.3666 -0.4514
   67MOL0     C 8948  11.892  -0.664   3.179 -0.7820  0.1515 -0.1712
   67MOL0     C 8949  11.780  -0.770   3.180  0.0507  1.1924 -1.2014
   67MOL0     C 8950  11.836  -0.913   3.215 -0.5421 -0.0656 -0.0994
   67MOL0     C 8951  11.732  -1.022   3.234 -0.1274  0.1800  0.0587
   67MOL0     C 8952  11.779  -1.157   3.280 -0.4083 -0.5043  0.3485
   67MOL0     C 8953  11.814  -1.260   3.167  0.0349  0.4296 -0.6265
   67MOL0    Cl 8954  11.660  -1.276   3.068 -0.6747  0.3582 -0.2343
   67MOL0     C 8955  12.026  -0.169   2.968 -0.2368 -0.8438 -0.4707
   67MOL0     C 8956  12.068  -0.093   2.857 -0.8799  0.2983 -0.4536
   67MOL0     O 8957  11.868  -0.044   2.499  0.1022  0.1420  0.1937
   67MOL0     C 8958  12.055   0.271   2.496  0.8168 -0.2006  0.5716
   67MOL0     C 8959  12.100   0.362   2.395 -0.1837 -0.1868 -0.4514
   67MOL0     N 8960  12.183   0.929   1.981  0.3258  0.0600 -0.1195
   67MOL0     N 8961  12.110   1.006   1.917 -0.2921 -0.4568 -0.2318
   67MOL0     C 8962  11.018   1.004   1.393  0.6232 -1.1750 -0.6292
   67MOL0     C 8963  10.897   0.980   1.458  0.1208  0.0364  0.3081
   67MOL0     C 8964  10.603   0.857   1.765  0.5624  1.0706 -0.3218
   67MOL0     C 8965  10.498   0.942   1.727 -0.2724 -0.1806  0.2090
   67MOL0     C 8966  10.363   0.908   1.735 -0.3927 -0.0663 -0.3797
   67MOL0     C 8967  10.327   0.779   1.766 -0.3184  0.4086 -0.8342
   67MOL0     O 8968  10.208   0.711   1.762  0.5008  0.2811 -0.1528
   67MOL0     C 8969  10.100   0.781   1.702  0.9917  0.1409 -0.3108
   67MOL0     C 8970  10.028   0.868   1.810  0.1531  0.3239 -0.0533
   67MOL0     C 8971   9.931   0.947   1.727 -0.4431  0.2068  0.5213
   67MOL0     C 8972   9.879   1.066   1.791  0.6087  0.0869 -0.4684
   67MOL0     C 8973   9.790   1.142   1.710 -0.2315 -0.0113 -0.2667
   67MOL0     C 8974   9.717   1.210   1.634 -0.4002 -0.3446 -0.9716
   67MOL0     C 8975  10.436   0.699   1.809 -0.1838  0.4162  0.8998
   67MOL0     C 8976  10.569   0.733   1.815 -0.5707 -0.6436  0.3025
   67MOL0     C 8977  10.668   0.631   1.872 -0.8711  0.1481  0.5226
   67MOL0     H 8978  10.963   1.140   1.753 -1.1815  0.3800 -0.4284
   67MOL0     H 8979  11.159   1.202   1.628  0.2219  1.8307 -2.8296
   67MOL0     H 8980  11.222   1.269   1.296  0.3600  0.5238  1.2306
   67MOL0     H 8981  11.253   1.303   1.467 -2.1240  0.7181 -0.0693
   67MOL0     H 8982  11.438   1.357   1.349 -2.3995 -0.0124  0.0673
   67MOL0     H 8983  11.433   1.200   1.261  1.0522  0.7932 -0.8509
   67MOL0     H 8984  11.482   1.083   1.485  1.2156  0.0117  0.9165
   67MOL0     H 8985  11.453   1.231   1.572 -0.1261 -0.7643 -0.3419
   67MOL0     H 8986  11.684   1.195   1.375  2.5147 -1.6961  0.6325
   67MOL0     H 8987  11.669   1.314   1.505  0.3058 -1.2630  0.4159
   67MOL0     H 8988  11.678   1.129   1.674 -0.3595 -2.5754 -0.2382
   67MOL0     H 8989  11.701   1.017   1.550  0.4711 -1.0374  0.8388
   67MOL0     H 8990  11.905   1.117   1.471  1.1927  3.6354 -1.1805
   67MOL0     H 8991  11.897   1.247   1.593  0.0431 -0.2646  1.7524
   67MOL0     H 8992  11.964   0.960   1.626  1.0278  1.1277 -1.7723
   67MOL0     H 8993  11.898   1.040   1.768  0.5958 -2.9511  0.5776
   67MOL0     H 8994  12.150   1.104   1.590  0.1310  0.3434  0.0215
   67MOL0     H 8995  12.066   1.202   1.723 -6.5393 -0.5801 -2.2627
   67MOL0     H 8996  12.329   0.906   1.695 -0.2670 -3.1841 -0.2659
   67MOL0     H 8997  12.373   0.692   1.852  1.8106  1.7477 -2.3502
   67MOL0     H 8998  12.479   0.817   1.922  0.8380 -1.4003 -0.2539
   67MOL0     H 8999  12.448   0.653   2.082  1.7360  1.8069  0.7018
   67MOL0     H 9000  12.367   0.795   2.134  0.2111  2.0594 -1.5816
   67MOL0     H 9001  12.234   0.568   1.978 -1.4597 -1.2131  1.4424
   67MOL0     H 9002  12.132   0.689   2.085  0.4269 -0.2635  3.9600
   67MOL0     H 9003  12.191   0.599   2.269  0.3353 -0.0857  0.2618
   67MOL0     H 9004  12.306   0.488   2.201 -1.2698 -2.7909 -3.8297
   67MOL0     H 9005  11.979   0.241   2.118  1.4973  1.7616  0.1032
   67MOL0     H 9006  11.887   0.072   2.270  2.2101 -1.8227 -0.1341
   67MOL0     H 9007  11.751  -0.014   2.744  0.1937  0.8940  0.0292
   67MOL0     H 9008  11.692  -0.172   2.902 -1.0340  3.3446  1.9174
   67MOL0     H 9009  11.923  -0.458   2.983  2.1316  3.9488 -1.1131
   67MOL0     H 9010  12.018  -0.418   3.143 -0.5310 -1.7284  2.9677
   67MOL0     H 9011  11.835  -0.484   3.269 -2.4600  1.2874 -1.1469
   67MOL0     H 9012  11.741  -0.505   3.130 -0.4559  2.0124  0.1180
   67MOL0     H 9013  11.959  -0.701   3.101 -1.9676  0.0697 -1.1798
   67MOL0     H 9014  11.958  -0.670   3.266  1.3677 -1.6255 -1.7917
   67MOL0     H 9015  11.739  -0.771   3.078  1.6168  4.0516 -1.9526
   67MOL0     H 9016  11.708  -0.750   3.260 -0.1989  0.1844 -1.1613
   67MOL0     H 9017  11.885  -0.913   3.313 -0.6660 -0.5478 -0.0376
   67MOL0     H 9018  11.916  -0.933   3.142  0.9375  0.4428  1.3182
   67MOL0     H 9019  11.656  -0.979   3.300 -0.5052  0.0409 -0.2819
   67MOL0     H 9020  11.708  -1.026   3.127  1.1944  1.3007 -0.3086
   67MOL0     H 9021  11.706  -1.206   3.345 -0.4670  2.8449  3.0794
   67MOL0     H 9022  11.870  -1.129   3.333  0.0518  1.9404 -1.5625
   67MOL0     H 9023  11.892  -1.220   3.102 -0.6923 -1.1419 -2.5664
   67MOL0     H 9024  11.861  -1.352   3.205 -1.6102 -0.0340  0.3855
   67MOL0     H 9025  12.095  -0.225   3.031 -2.2599 -3.5103 -0.4417
   67MOL0     H 9026  12.175  -0.081   2.843 -0.7839 -0.1346 -0.1258
   67MOL0     H 9027  12.097   0.277   2.596 -0.5789 -0.5661  1.2081
   67MOL0     H 9028  12.170   0.441   2.422 -0.3616 -0.0277 -0.4569
   67MOL0     H 9029  11.042   0.967   1.294  2.2037  0.3512 -0.8698
   67MOL0     H 9030  10.827   0.912   1.411  2.3905 -2.8899  0.8956
   67MOL0     H 9031  10.516   1.046   1.701 -1.2804  0.2843  1.2560
   67MOL0     H 9032  10.295   0.988   1.705  0.5662 -0.0449 -2.6924
   67MOL0     H 9033  10.030   0.709   1.657  1.4793  0.2175 -1.2277
   67MOL0     H 9034  10.128   0.850   1.622 -1.0776 -0.5063 -1.6988
   67MOL0     H 9035  10.097   0.932   1.867 -1.2618  1.7235  0.1648
   67MOL0     H 9036   9.987   0.798   1.884  0.9442  0.4312  0.5074
   67MOL0     H 9037   9.849   0.883   1.696 -1.3529  0.6558  1.9411
   67MOL0     H 9038   9.980   0.993   1.640  2.2561 -2.0524  0.7103
   67MOL0     H 9039   9.825   1.030   1.879  2.0501  2.4303  1.5049
   67MOL0     H 9040   9.951   1.137   1.834  1.3403 -0.1472 -1.2843
   67MOL0     H 9041   9.649   1.276   1.585 -0.0560  2.7910  2.3321
   67MOL0     H 9042  10.401   0.602   1.842  0.5153  0.0285  0.5327
   67MOL0     H 9043  10.748   0.660   1.941 -0.5016  1.0526 -0.2500
   67MOL0     H 9044  10.610   0.550   1.916  0.3903 -1.8009 -1.2418
   67MOL0     H 9045  10.718   0.591   1.783 -3.9246 -0.3909 -1.1192
   68MOL0     O 9046   9.407   5.148   1.984  0.1570 -0.2072  0.0353
   68MOL0     C 9047   9.408   5.025   1.966  0.8471  0.1117  0.4343
   68MOL0     O 9048   9.442   4.958   1.857  0.1215  0.1599  0.0271
   68MOL0     C 9049   9.455   5.027   1.739 -0.3271  0.3340 -0.1228
   68MOL0     C 9050   9.528   4.957   1.650 -0.4347 -0.2304  0.5987
   68MOL0     C 9051   9.567   5.018   1.531 -1.3249 -0.2256 -0.5400
   68MOL0     C 9052   9.525   5.145   1.494 -1.1167  0.1350  0.3800
   68MOL0     O 9053   9.586   5.193   1.382 -0.2272 -0.4537  0.3186
   68MOL0     C 9054   9.716   5.247   1.398  0.0684 -0.5159  0.1799
   68MOL0     C 9055   9.808   5.181   1.297 -0.0319 -0.2825 -0.1220
   68MOL0     C 9056   9.759   5.184   1.148  0.5962  0.0540  0.4446
   68MOL0     C 9057   9.857   5.100   1.065  0.6681 -0.1639  0.3066
   68MOL0     C 9058   9.815   5.083   0.919 -0.0453 -0.7034  0.1950
   68MOL0     C 9059   9.862   5.191   0.827 -1.0425 -0.2261  0.8621
   68MOL0     C 9060   9.864   5.153   0.674  0.7342 -0.4270 -0.5280
   68MOL0     C 9061   9.883   5.279   0.590 -0.3505  0.4222 -0.4632
   68MOL0     N 9062   9.916   5.236   0.455 -0.2828  0.0764 -0.0893
   68MOL0     C 9063   9.817   5.228   0.360 -0.2589  0.4869  0.8652
   68MOL0     C 9064   9.887   5.204   0.243 -0.0716 -0.5579 -0.3285
   68MOL0     C 9065   9.824   5.175   0.111 -0.1180 -1.2393  0.4372
   68MOL0     C 9066   9.890   5.243  -0.016  0.3680 -0.6417 -1.2838
   68MOL0     C 9067   9.851   5.391   0.010  0.2173  0.0811  0.6169
   68MOL0     C 9068   9.928   5.486  -0.076  0.1610 -0.0350 -0.2589
   68MOL0     O 9069   9.893   5.472  -0.213 -0.4322 -0.7018  0.1433
   68MOL0     C 9070   9.978   5.534  -0.297 -0.2873 -1.0564  0.0623
   68MOL0     C 9071  10.028   5.660  -0.274  0.6583 -0.1053 -0.3102
   68MOL0     C 9072  10.121   5.717  -0.356 -0.5519 -0.2757  0.0980
   68MOL0     C 9073  10.167   5.650  -0.470  0.3857  1.0723 -0.8809
   68MOL0     C 9074  10.262   5.708  -0.568  0.1860 -0.3202 -0.9201
   68MOL0     O 9075  10.317   5.834  -0.523  0.1973  0.5737 -0.2751
   68MOL0     C 9076  10.391   5.913  -0.608 -0.3712 -0.5117  0.0108
   68MOL0     C 9077  10.390   5.898  -0.746  1.1935  0.2281  0.0231
   68MOL0     C 9078  10.478   5.959  -0.826  0.0462  0.3669  0.0240
   68MOL0     C 9079  10.575   6.037  -0.767  0.0746 -1.7078 -0.5827
   68MOL0     O 9080  10.678   6.104  -0.845  0.6492 -0.5298 -0.3635
   68MOL0     C 9081  10.624   6.177  -0.962  0.1157 -0.4833 -0.5768
   68MOL0     C 9082  10.733   6.267  -1.004 -0.4164 -0.4421  0.6349
   68MOL0     C 9083  10.843   6.189  -1.075  0.5826  0.2313  0.7030
   68MOL0     C 9084  10.940   6.289  -1.152  0.3016  0.4713 -0.1146
   68MOL0     C 9085  11.069   6.224  -1.216 -0.2300 -1.5360 -0.3374
   68MOL0     C 9086  11.113   6.314  -1.334 -0.7966 -0.2314 -0.0496
   68MOL0     C 9087  11.194   6.433  -1.285 -0.5403 -1.1464  0.2563
   68MOL0     C 9088  11.201   6.552  -1.384 -0.6664  0.5801  0.7626
   68MOL0    Cl 9089  11.051   6.649  -1.400  0.0916  0.5065 -0.5086
   68MOL0     C 9090  10.578   6.069  -0.632 -0.5679 -0.0486  0.2044
   68MOL0     C 9091  10.480   6.006  -0.552  0.0575 -1.1966  0.2299
   68MOL0     O 9092  10.292   5.641  -0.666 -0.4654 -0.1319  0.0036
   68MOL0     C 9093  10.106   5.520  -0.495  0.0585 -0.2935  0.5488
   68MOL0     C 9094  10.014   5.466  -0.409 -0.2375 -0.2097 -0.1619
   68MOL0     N 9095  10.016   5.207   0.269 -0.6713 -0.3571 -0.8836
   68MOL0     N 9096  10.039   5.235   0.392  0.3741  0.3019  0.1045
   68MOL0     C 9097   9.445   5.213   1.580  0.1434  0.0131 -0.2329
   68MOL0     C 9098   9.398   5.153   1.698  0.5282  0.8774 -0.3646
   68MOL0     C 9099   9.336   4.967   2.075 -0.1049  0.1369  0.6219
   68MOL0     C 9100   9.203   5.001   2.094  0.2185  0.9616 -1.1396
   68MOL0     C 9101   9.140   4.958   2.215 -0.4951  0.5468  0.4979
   68MOL0     C 9102   9.219   4.884   2.305  0.8849  0.3075  0.5552
   68MOL0     O 9103   9.170   4.846   2.430  0.6593 -0.4743  0.5534
   68MOL0     C 9104   9.041   4.903   2.464  0.4151 -0.0806  0.2464
   68MOL0     C 9105   9.006   4.859   2.612 -0.8013  0.9574  0.2207
   68MOL0     C 9106   8.987   4.705   2.621  0.8426  0.4903  0.6115
   68MOL0     C 9107   9.125   4.635   2.642 -0.3293  0.1171  0.4942
   68MOL0     C 9108   9.097   4.494   2.620 -0.3910 -0.0741 -0.1300
   68MOL0     C 9109   9.065   4.382   2.605  0.5981 -0.7387  0.0961
   68MOL0     C 9110   9.352   4.855   2.287  0.1787 -0.0736  0.7729
   68MOL0     C 9111   9.410   4.888   2.167  0.3090 -0.5086  0.9283
   68MOL0     C 9112   9.559   4.855   2.142 -0.4306  0.5348 -0.0506
   68MOL0     H 9113   9.573   4.865   1.686 -0.9431 -1.5997 -2.0096
   68MOL0     H 9114   9.646   4.975   1.470 -1.1992 -2.0973  0.8635
   68MOL0     H 9115   9.717   5.355   1.382  1.7439 -0.2883  1.6132
   68MOL0     H 9116   9.744   5.225   1.501  0.0857 -2.4330 -0.1949
   68MOL0     H 9117   9.818   5.083   1.344 -0.7814  0.0164  0.6902
   68MOL0     H 9118   9.905   5.231   1.309 -1.0885  1.2409  3.7242
   68MOL0     H 9119   9.750   5.290   1.126 -1.5875  0.2025  1.7260
   68MOL0     H 9120   9.663   5.132   1.135  1.2185 -0.7285 -1.1498
   68MOL0     H 9121   9.955   5.148   1.066 -0.1982  1.7147  2.1428
   68MOL0     H 9122   9.857   5.000   1.112 -2.9677 -0.2565  0.4140
   68MOL0     H 9123   9.866   4.993   0.883  1.6424 -1.0013  3.0294
   68MOL0     H 9124   9.706   5.071   0.923  0.1229 -1.8957  2.0052
   68MOL0     H 9125   9.795   5.276   0.846 -1.0774 -0.6868  3.1036
   68MOL0     H 9126   9.963   5.206   0.866 -2.2181 -3.2143  6.0618
   68MOL0     H 9127   9.772   5.105   0.640  1.6153 -3.0445  0.4807
   68MOL0     H 9128   9.951   5.090   0.651 -0.3353 -2.5597  0.9763
   68MOL0     H 9129   9.798   5.348   0.581 -0.8111 -0.3659 -2.4591
   68MOL0     H 9130   9.963   5.336   0.638 -0.7151 -0.5554  1.4035
   68MOL0     H 9131   9.709   5.243   0.364 -0.0752  2.8999 -0.9339
   68MOL0     H 9132   9.834   5.067   0.094 -1.4053 -1.5345  1.3650
   68MOL0     H 9133   9.716   5.192   0.109  0.2510  1.5099 -1.6909
   68MOL0     H 9134   9.997   5.226  -0.002  0.3264 -0.1894 -0.3234
   68MOL0     H 9135   9.858   5.206  -0.114  2.0230 -1.5353 -1.5223
   68MOL0     H 9136   9.877   5.417   0.113  0.5524 -1.0916  0.8424
   68MOL0     H 9137   9.744   5.408  -0.005 -0.1303 -0.9790  1.7368
   68MOL0     H 9138  10.036   5.479  -0.058 -0.0429 -1.9783  0.3663
   68MOL0     H 9139   9.898   5.585  -0.039 -2.3650 -0.2864 -1.4048
   68MOL0     H 9140  10.012   5.721  -0.186  0.9291  0.9347 -0.9605
   68MOL0     H 9141  10.148   5.821  -0.343  0.2654 -0.5733  0.9246
   68MOL0     H 9142  10.320   5.833  -0.797  1.6485 -0.7504  0.6342
   68MOL0     H 9143  10.483   5.941  -0.933 -2.4203 -0.2338 -0.0530
   68MOL0     H 9144  10.599   6.092  -1.026 -1.1123 -0.8209  0.3172
   68MOL0     H 9145  10.532   6.231  -0.938 -0.0874  0.4134 -3.0949
   68MOL0     H 9146  10.683   6.332  -1.077  1.0943  0.6658  0.5475
   68MOL0     H 9147  10.775   6.312  -0.914  2.0327 -1.9237  0.3335
   68MOL0     H 9148  10.899   6.135  -0.998  5.7652  2.9829 -0.6702
   68MOL0     H 9149  10.795   6.130  -1.153 -2.5047 -0.0386  2.6197
   68MOL0     H 9150  10.978   6.368  -1.086  2.7571 -0.5751 -0.1734
   68MOL0     H 9151  10.881   6.318  -1.240  1.0760 -1.5215 -1.3617
   68MOL0     H 9152  11.055   6.124  -1.258  0.2902 -3.0671  2.8213
   68MOL0     H 9153  11.161   6.229  -1.158  0.0378  0.3516 -0.8678
   68MOL0     H 9154  11.182   6.248  -1.387  0.8996  0.1688  1.5455
   68MOL0     H 9155  11.030   6.353  -1.394  0.5002  1.2188 -0.9769
   68MOL0     H 9156  11.297   6.397  -1.278 -0.0449 -0.9763 -3.7548
   68MOL0     H 9157  11.179   6.467  -1.182  0.5716 -1.8106  0.6492
   68MOL0     H 9158  11.283   6.615  -1.348 -3.4138  3.3714  2.7122
   68MOL0     H 9159  11.227   6.516  -1.484 -0.0731  2.0724  0.3592
   68MOL0     H 9160  10.654   6.136  -0.593 -0.0851 -0.5525  0.1412
   68MOL0     H 9161  10.474   6.037  -0.448  0.1753 -0.2470 -0.0365
   68MOL0     H 9162  10.126   5.466  -0.587  1.0457 -1.5400  1.4659
   68MOL0     H 9163   9.961   5.373  -0.427 -0.8944  0.6589 -3.1310
   68MOL0     H 9164   9.402   5.309   1.554  1.7565  0.8608  0.1227
   68MOL0     H 9165   9.326   5.203   1.762  0.3713 -0.8697  0.9191
   68MOL0     H 9166   9.144   5.066   2.030 -2.9416  2.0956  2.5676
   68MOL0     H 9167   9.038   4.994   2.221 -1.9670 -2.4020 -3.1131
   68MOL0     H 9168   8.968   4.860   2.395  2.1580 -1.3878 -0.8881
   68MOL0     H 9169   9.041   5.013   2.468 -0.7722 -0.0712  3.9453
   68MOL0     H 9170   8.916   4.907   2.651 -2.1561 -1.0012 -0.3321
   68MOL0     H 9171   9.090   4.898   2.669 -0.2964  1.0836 -0.5967
   68MOL0     H 9172   8.940   4.669   2.529 -1.7555 -2.8011  2.9971
   68MOL0     H 9173   8.926   4.681   2.708  0.7692  1.4683  0.8429
   68MOL0     H 9174   9.201   4.670   2.571 -0.5066 -2.9662 -1.3969
   68MOL0     H 9175   9.162   4.663   2.741  0.7068 -0.6122  0.3319
   68MOL0     H 9176   9.032   4.283   2.582 -0.2127 -0.8526  1.6044
   68MOL0     H 9177   9.401   4.798   2.365  0.8979  0.0468  0.4120
   68MOL0     H 9178   9.622   4.942   2.122  3.1105 -1.9303 -0.5413
   68MOL0     H 9179   9.609   4.796   2.219 -0.3033 -2.0552 -1.9876
   68MOL0     H 9180   9.582   4.787   2.060  3.0663 -0.3291  1.4802
   69MOL0     O 9181   2.909  11.157   6.447  0.1809 -0.7404  0.2200
   69MOL0     C 9182   3.026  11.128   6.460  0.6846 -0.5821 -0.0150
   69MOL0     O 9183   3.078  11.001   6.496  0.3871 -0.5254  0.2720
   69MOL0     C 9184   2.984  10.905   6.508 -0.5398  0.7372 -0.7249
   69MOL0     C 9185   3.013  10.788   6.435  0.0069  0.2803 -0.5865
   69MOL0     C 9186   2.927  10.679   6.452 -0.0304  1.2631  0.1880
   69MOL0     C 9187   2.819  10.673   6.542 -0.5820 -0.2712  0.5858
   69MOL0     O 9188   2.732  10.570   6.532 -0.6576  0.2721 -0.5139
   69MOL0     C 9189   2.640  10.569   6.644 -0.7502 -0.3059  0.3028
   69MOL0     C 9190   2.584  10.428   6.645 -0.7099  0.0804 -0.1826
   69MOL0     C 9191   2.488  10.413   6.766 -0.6132 -0.3292 -0.3668
   69MOL0     C 9192   2.388  10.303   6.738  0.9041  0.1042  1.1471
   69MOL0     C 9193   2.262  10.327   6.829 -0.7519 -0.3611 -0.3690
   69MOL0     C 9194   2.171  10.448   6.798 -0.1152  0.2892 -0.0582
   69MOL0     C 9195   2.124  10.470   6.652  0.1746 -0.0212  0.9361
   69MOL0     C 9196   2.042  10.601   6.624  0.6840  0.7991 -0.6377
   69MOL0     N 9197   1.951  10.591   6.515  0.0539 -0.1537  0.1073
   69MOL0     C 9198   1.816  10.612   6.508  0.4478  0.2085 -0.5106
   69MOL0     C 9199   1.788  10.596   6.376 -0.2757  0.2126 -0.4575
   69MOL0     C 9200   1.655  10.620   6.311  0.8842 -0.1366 -0.3841
   69MOL0     C 9201   1.631  10.767   6.289 -0.0016  0.1632 -0.5225
   69MOL0     C 9202   1.501  10.796   6.216 -0.4342 -0.3380 -0.8327
   69MOL0     C 9203   1.520  10.756   6.070  0.4347  0.8242  0.5436
   69MOL0     O 9204   1.404  10.803   6.000 -0.2797 -0.4028  0.6029
   69MOL0     C 9205   1.359  10.763   5.878  0.0096  0.3835  0.4831
   69MOL0     C 9206   1.431  10.668   5.806 -0.3918  0.0873 -0.5442
   69MOL0     C 9207   1.385  10.640   5.677  0.6519  0.3283  0.3386
   69MOL0     C 9208   1.259  10.693   5.633  0.3471  0.5293 -0.2653
   69MOL0     C 9209   1.208  10.667   5.496  0.0008  0.2642 -0.2323
   69MOL0     O 9210   1.091  10.733   5.466  0.3285 -0.5184  0.3096
   69MOL0     C 9211   1.038  10.698   5.345  0.4748  0.3799 -0.6306
   69MOL0     C 9212   0.953  10.591   5.344  0.6715  0.2688  0.4946
   69MOL0     C 9213   0.897  10.551   5.233 -0.4942  0.4730  0.0066
   69MOL0     C 9214   0.903  10.620   5.119 -0.1239  0.0554  0.9034
   69MOL0     O 9215   0.842  10.577   5.005 -0.3080  0.4711  0.2636
   69MOL0     C 9216   0.702  10.552   5.011  0.2328  0.0977  1.0896
   69MOL0     C 9217   0.651  10.605   4.869  0.0015 -1.0298 -0.5489
   69MOL0     C 9218   0.558  10.719   4.883  0.6637  0.0983  0.9358
   69MOL0     C 9219   0.408  10.678   4.930 -0.8866 -0.6180 -0.4632
   69MOL0     C 9220   0.323  10.793   4.896  0.5267  0.3407  0.0508
   69MOL0     C 9221   0.199  10.798   4.983 -0.0729 -0.8565 -0.6597
   69MOL0     C 9222   0.105  10.687   4.987  0.9701  0.1665 -0.1204
   69MOL0     C 9223  -0.039  10.736   4.996  0.3135 -0.1490  0.2488
   69MOL0    Cl 9224  -0.120  10.602   4.912 -0.2406  0.0269  0.0243
   69MOL0     C 9225   0.997  10.729   5.116  0.2827 -0.7513  0.2764
   69MOL0     C 9226   1.061  10.773   5.231  0.0474 -0.6129  0.0380
   69MOL0     O 9227   1.259  10.572   5.442 -0.6154 -0.1253  0.9092
   69MOL0     C 9228   1.185  10.784   5.710  0.8195 -0.3116 -0.5069
   69MOL0     C 9229   1.248  10.823   5.829  0.0212 -0.6828 -0.1821
   69MOL0     N 9230   1.899  10.535   6.314 -0.2667  1.3528  0.2308
   69MOL0     N 9231   1.989  10.533   6.397 -0.3061  0.8547 -0.2028
   69MOL0     C 9232   2.795  10.795   6.611 -0.5361  0.8123  0.4762
   69MOL0     C 9233   2.871  10.913   6.593 -0.2923 -0.1477 -0.2595
   69MOL0     C 9234   3.114  11.243   6.425 -0.3279 -0.5168 -0.2367
   69MOL0     C 9235   3.074  11.372   6.461 -0.2644  0.1895 -0.9306
   69MOL0     C 9236   3.148  11.485   6.437  0.5618 -0.3713 -0.1941
   69MOL0     C 9237   3.275  11.479   6.391  0.4788 -0.2809 -0.3219
   69MOL0     O 9238   3.335  11.603   6.372 -0.4720  0.5630 -0.1149
   69MOL0     C 9239   3.466  11.604   6.307  0.3834  0.5382 -0.7621
   69MOL0     C 9240   3.523  11.743   6.332  0.4009  0.5311 -0.8743
   69MOL0     C 9241   3.531  11.821   6.206 -0.7796  0.0262  0.3214
   69MOL0     C 9242   3.633  11.929   6.198  0.3848  0.0848 -0.5665
   69MOL0     C 9243   3.593  12.038   6.297 -0.2221  0.1741  1.2101
   69MOL0     C 9244   3.557  12.112   6.384 -0.2613 -0.6286 -0.0988
   69MOL0     C 9245   3.333  11.354   6.375  1.0883 -0.2748  0.7423
   69MOL0     C 9246   3.253  11.237   6.381 -0.5124 -0.5981 -0.5680
   69MOL0     C 9247   3.331  11.118   6.365  0.1962  0.5670 -0.1498
   69MOL0     H 9248   3.099  10.785   6.369 -0.0800  2.0717 -0.8039
   69MOL0     H 9249   2.944  10.596   6.384  4.1620  2.3008 -0.3409
   69MOL0     H 9250   2.681  10.589   6.744  0.4570 -2.7584  0.3761
   69MOL0     H 9251   2.561  10.641   6.622 -3.4834 -4.0823 -4.1054
   69MOL0     H 9252   2.675  10.367   6.650  0.5911  1.8606 -1.0829
   69MOL0     H 9253   2.529  10.401   6.554 -1.6177  2.4321 -0.4093
   69MOL0     H 9254   2.438  10.511   6.768 -0.7097 -0.3375 -1.3851
   69MOL0     H 9255   2.533  10.412   6.865  1.5207  2.4162 -1.1781
   69MOL0     H 9256   2.345  10.301   6.638 -2.3390 -1.6151  2.3956
   69MOL0     H 9257   2.429  10.204   6.762  0.7510 -0.0050  0.9665
   69MOL0     H 9258   2.199  10.240   6.813 -1.5905  0.2349 -0.3692
   69MOL0     H 9259   2.305  10.339   6.929 -2.2363  2.0070  0.0813
   69MOL0     H 9260   2.074  10.441   6.847 -0.6178 -2.7505 -1.2678
   69MOL0     H 9261   2.215  10.545   6.826  0.3673  0.8081 -2.3658
   69MOL0     H 9262   2.058  10.389   6.618  1.3122 -0.5280 -0.1472
   69MOL0     H 9263   2.209  10.467   6.584  0.5952 -1.5244  1.4840
   69MOL0     H 9264   1.982  10.629   6.711  0.3865  2.3495 -1.3051
   69MOL0     H 9265   2.113  10.680   6.599  0.5672 -0.0847 -4.3260
   69MOL0     H 9266   1.745  10.648   6.582 -0.1881  0.8477 -1.4079
   69MOL0     H 9267   1.653  10.565   6.216 -0.9376 -0.9673  0.1110
   69MOL0     H 9268   1.576  10.573   6.369  1.3779 -2.4735 -1.4810
   69MOL0     H 9269   1.640  10.814   6.387 -2.8883 -1.4900  0.6606
   69MOL0     H 9270   1.715  10.808   6.233  1.0828  1.0182  1.6185
   69MOL0     H 9271   1.475  10.902   6.219 -0.2501 -0.2410 -2.0036
   69MOL0     H 9272   1.415  10.749   6.266 -2.6616  2.5273 -1.7009
   69MOL0     H 9273   1.520  10.647   6.061 -0.4744  0.9015 -0.7112
   69MOL0     H 9274   1.615  10.791   6.029 -0.7597  1.0781 -2.2695
   69MOL0     H 9275   1.519  10.629   5.857  0.4606  3.6978  1.0559
   69MOL0     H 9276   1.427  10.566   5.609  1.6880  0.0767  1.2151
   69MOL0     H 9277   0.938  10.547   5.442 -1.4737  3.8080  1.9469
   69MOL0     H 9278   0.828  10.469   5.249  1.6847 -0.9767  3.2079
   69MOL0     H 9279   0.676  10.447   5.027 -2.3062  0.4070 -0.4959
   69MOL0     H 9280   0.661  10.612   5.093  0.0504  0.0189  1.0573
   69MOL0     H 9281   0.741  10.639   4.818  1.0885  0.7153  2.2869
   69MOL0     H 9282   0.600  10.529   4.809 -1.2579  0.1468 -1.0352
   69MOL0     H 9283   0.607  10.794   4.946  0.9852  0.1612  0.6146
   69MOL0     H 9284   0.547  10.755   4.781 -0.3876 -2.5375  0.0282
   69MOL0     H 9285   0.418  10.662   5.038 -0.0962 -1.8341 -0.7067
   69MOL0     H 9286   0.372  10.580   4.899 -0.3407 -1.1473  0.5394
   69MOL0     H 9287   0.300  10.767   4.792  3.5349 -1.5482 -0.2550
   69MOL0     H 9288   0.385  10.882   4.906  0.4185  0.2610  1.5643
   69MOL0     H 9289   0.224  10.820   5.087  0.6491  0.9486 -1.1692
   69MOL0     H 9290   0.148  10.888   4.947  0.3306 -1.4125 -2.7635
   69MOL0     H 9291   0.129  10.621   5.071 -0.8652 -1.9598 -1.1573
   69MOL0     H 9292   0.122  10.627   4.897  0.7359  0.4191 -0.3347
   69MOL0     H 9293  -0.084  10.732   5.096 -2.3001 -0.2815 -0.8600
   69MOL0     H 9294  -0.056  10.836   4.956 -0.8805 -0.7821 -0.8957
   69MOL0     H 9295   1.008  10.771   5.016  1.5232  0.5045  0.9017
   69MOL0     H 9296   1.129  10.857   5.242 -2.9791  2.0171  0.1789
   69MOL0     H 9297   1.103  10.841   5.668 -1.0105 -3.1291 -1.0296
   69MOL0     H 9298   1.192  10.879   5.902 -1.4077 -3.2472  0.8166
   69MOL0     H 9299   2.711  10.800   6.680 -1.0886 -1.1309 -0.0009
   69MOL0     H 9300   2.851  11.007   6.644 -0.7545  0.2537 -1.1650
   69MOL0     H 9301   2.982  11.365   6.519  0.9695 -2.4698  0.9116
   69MOL0     H 9302   3.109  11.584   6.459 -1.0383 -1.0327  0.1146
   69MOL0     H 9303   3.461  11.587   6.199  2.9127  3.5517 -1.5234
   69MOL0     H 9304   3.532  11.526   6.347  3.9643  2.6536 -2.0939
   69MOL0     H 9305   3.620  11.730   6.380  1.5408 -3.4372 -3.7387
   69MOL0     H 9306   3.457  11.791   6.405 -1.8259 -0.4359 -2.1501
   69MOL0     H 9307   3.435  11.868   6.184 -1.2784 -1.6981 -1.4487
   69MOL0     H 9308   3.564  11.751   6.129  0.7624  1.9472 -0.8583
   69MOL0     H 9309   3.733  11.884   6.200  0.3003 -0.0855  0.0129
   69MOL0     H 9310   3.635  11.973   6.099 -0.1542  0.8766 -0.2348
   69MOL0     H 9311   3.517  12.175   6.462 -1.5367  0.0933 -1.2900
   69MOL0     H 9312   3.440  11.344   6.359  1.0253  1.0106 -0.7749
   69MOL0     H 9313   3.260  11.035   6.367 -0.1660  0.7981 -1.8921
   69MOL0     H 9314   3.375  11.108   6.266  0.9068  1.1594  0.0963
   69MOL0     H 9315   3.416  11.107   6.433  0.3759  1.1487 -0.2786
   70MOL0     O 9316   6.089   0.887   9.425 -0.0548  0.0492  0.2009
   70MOL0     C 9317   6.072   0.861   9.547 -0.2393 -0.7322  0.9232
   70MOL0     O 9318   6.161   0.903   9.646  0.4893  0.5048  0.3524
   70MOL0     C 9319   6.253   0.994   9.605  0.4180  0.9810 -0.0938
   70MOL0     C 9320   6.213   1.116   9.561  1.2004  0.9201 -0.2427
   70MOL0     C 9321   6.307   1.212   9.518 -0.1514  0.6010  0.2272
   70MOL0     C 9322   6.447   1.182   9.531 -0.2653 -0.2601 -0.1810
   70MOL0     O 9323   6.547   1.259   9.479  0.0559 -0.3605 -0.0751
   70MOL0     C 9324   6.512   1.387   9.441 -0.6715 -0.4949 -0.6417
   70MOL0     C 9325   6.645   1.464   9.449 -0.2575  0.0901  0.0567
   70MOL0     C 9326   6.639   1.593   9.363  0.2519  0.3047 -0.5707
   70MOL0     C 9327   6.727   1.704   9.424  0.3652 -0.0006  0.4613
   70MOL0     C 9328   6.704   1.749   9.568  0.4350  0.4297  0.2921
   70MOL0     C 9329   6.810   1.858   9.595  0.5470  0.1663 -0.4160
   70MOL0     C 9330   6.787   1.913   9.734  0.2485  0.5918 -1.2369
   70MOL0     C 9331   6.929   1.979   9.772  1.7199 -0.3978 -0.3031
   70MOL0     N 9332   6.946   2.113   9.709  1.2623 -0.1321 -0.3058
   70MOL0     C 9333   7.055   2.133   9.620  0.3947 -0.5690 -0.5973
   70MOL0     C 9334   7.021   2.250   9.557 -0.6769  0.5650 -0.5725
   70MOL0     C 9335   7.100   2.307   9.441 -0.7920 -0.0705  0.7349
   70MOL0     C 9336   7.000   2.330   9.329 -0.5274  0.2565  0.1193
   70MOL0     C 9337   7.076   2.378   9.213 -0.6273 -0.1178  0.4493
   70MOL0     C 9338   6.991   2.384   9.084 -0.5834  0.2276  0.5887
   70MOL0     O 9339   6.869   2.455   9.107  0.7750  0.5061  0.1186
   70MOL0     C 9340   6.778   2.487   9.002  0.5893  0.4360 -0.3143
   70MOL0     C 9341   6.822   2.465   8.872  0.2002  0.1815  0.5635
   70MOL0     C 9342   6.745   2.513   8.762  0.8182  0.4588  0.5742
   70MOL0     C 9343   6.632   2.599   8.790  0.8484  0.2913  0.2117
   70MOL0     C 9344   6.554   2.666   8.688  0.1926  0.1547 -0.8465
   70MOL0     O 9345   6.603   2.663   8.561  0.0148 -0.2084  0.4837
   70MOL0     C 9346   6.519   2.700   8.461 -0.0236  1.0595  0.6438
   70MOL0     C 9347   6.548   2.810   8.385  0.2464  0.0336 -0.1000
   70MOL0     C 9348   6.478   2.834   8.272  0.1310 -0.7827  0.5763
   70MOL0     C 9349   6.378   2.745   8.222  0.6535 -0.7134 -0.5792
   70MOL0     O 9350   6.311   2.779   8.108  0.4496 -0.5274  0.3673
   70MOL0     C 9351   6.289   2.675   8.006  0.0948 -1.1067 -0.0430
   70MOL0     C 9352   6.304   2.738   7.874 -0.1420 -0.5313  0.1962
   70MOL0     C 9353   6.447   2.790   7.856 -0.5633  0.0887 -0.1900
   70MOL0     C 9354   6.557   2.680   7.833  0.2508  1.1128  0.3087
   70MOL0     C 9355   6.687   2.701   7.909 -1.1813 -0.9639  0.7039
   70MOL0     C 9356   6.767   2.822   7.852 -0.1630  0.0436  0.0899
   70MOL0     C 9357   6.803   2.808   7.705 -0.2749 -0.1253 -0.0657
   70MOL0     C 9358   6.927   2.894   7.687  0.3278  0.4304  0.1267
   70MOL0    Cl 9359   7.088   2.821   7.738  0.2656 -0.0065  0.3632
   70MOL0     C 9360   6.343   2.633   8.298 -0.7258  0.2028  0.9186
   70MOL0     C 9361   6.414   2.606   8.413 -0.5906 -0.3270 -0.3157
   70MOL0     O 9362   6.441   2.715   8.724 -0.2830  0.7138  0.9959
   70MOL0     C 9363   6.594   2.614   8.928 -0.6931  0.4924  0.3530
   70MOL0     C 9364   6.656   2.547   9.034 -0.1482 -0.1671 -0.4568
   70MOL0     N 9365   6.903   2.298   9.617  0.3168  0.0615 -0.0996
   70MOL0     N 9366   6.851   2.208   9.698  0.3193  0.0535  0.1198
   70MOL0     C 9367   6.482   1.062   9.584 -0.1210  0.4642  0.7600
   70MOL0     C 9368   6.387   0.964   9.623 -0.3625 -0.0811  0.6498
   70MOL0     C 9369   5.955   0.789   9.584  0.4455  0.7468 -0.5186
   70MOL0     C 9370   5.901   0.808   9.712 -0.3783 -0.3583  1.2293
   70MOL0     C 9371   5.787   0.742   9.763 -0.7072 -1.0453 -0.5844
   70MOL0     C 9372   5.721   0.658   9.682  0.5955  0.1234 -0.4152
   70MOL0     O 9373   5.615   0.593   9.747  0.4479 -0.8012  0.6081
   70MOL0     C 9374   5.524   0.529   9.652 -0.3853 -1.1315  0.2045
   70MOL0     C 9375   5.429   0.434   9.730 -0.0947  0.1222 -0.1583
   70MOL0     C 9376   5.300   0.412   9.645 -0.5892 -0.4183 -0.7430
   70MOL0     C 9377   5.213   0.305   9.716 -0.1917 -0.8347 -0.4872
   70MOL0     C 9378   5.172   0.347   9.854 -0.1183  0.2187  0.3176
   70MOL0     C 9379   5.129   0.386   9.963 -0.0187 -0.8151 -0.6458
   70MOL0     C 9380   5.769   0.629   9.555 -0.6340  0.2254  0.0936
   70MOL0     C 9381   5.894   0.686   9.505 -0.1590  0.0948 -0.2022
   70MOL0     C 9382   5.942   0.652   9.363  0.5456 -0.0152  0.6097
   70MOL0     H 9383   6.110   1.133   9.530  1.2295  0.1276 -0.8106
   70MOL0     H 9384   6.262   1.290   9.456 -0.2927  1.3016  1.1958
   70MOL0     H 9385   6.478   1.402   9.338  2.0919 -1.6495 -1.8241
   70MOL0     H 9386   6.451   1.431   9.520  0.0565  0.0864 -0.4022
   70MOL0     H 9387   6.727   1.395   9.431 -3.1017 -2.7802 -3.2535
   70MOL0     H 9388   6.645   1.488   9.556 -3.7320 -1.5520  0.5596
   70MOL0     H 9389   6.537   1.634   9.362 -0.6028 -1.7135 -0.8473
   70MOL0     H 9390   6.675   1.571   9.262 -1.2254 -1.3008 -0.7889
   70MOL0     H 9391   6.826   1.659   9.432 -0.6210 -2.0761  1.4221
   70MOL0     H 9392   6.738   1.789   9.355  0.0675  0.1563  0.6037
   70MOL0     H 9393   6.604   1.792   9.578  0.3514 -0.2005  2.8707
   70MOL0     H 9394   6.712   1.664   9.636  0.6487 -0.1776 -0.4800
   70MOL0     H 9395   6.905   1.803   9.603  0.0044 -0.7496 -0.1079
   70MOL0     H 9396   6.801   1.940   9.523 -3.8615  1.8150  1.6479
   70MOL0     H 9397   6.773   1.834   9.809  1.3274  1.2604 -0.3046
   70MOL0     H 9398   6.707   1.987   9.731  0.1664  0.4742 -1.9755
   70MOL0     H 9399   6.925   2.003   9.879  0.0205 -0.0847 -0.4071
   70MOL0     H 9400   7.015   1.917   9.745  1.9234  1.0797 -3.5238
   70MOL0     H 9401   7.147   2.077   9.602  1.6989  1.3059 -0.1529
   70MOL0     H 9402   7.125   2.407   9.481 -0.7761  0.9144 -1.6031
   70MOL0     H 9403   7.189   2.252   9.411 -0.1745  1.2600  0.0026
   70MOL0     H 9404   6.954   2.232   9.312  1.3045 -1.1693  2.6361
   70MOL0     H 9405   6.914   2.391   9.356 -0.3878  0.3293  0.4060
   70MOL0     H 9406   7.162   2.312   9.198  0.7461  1.0794  2.5675
   70MOL0     H 9407   7.115   2.477   9.239 -2.7144  1.0292 -0.4833
   70MOL0     H 9408   6.968   2.282   9.052 -1.4737  0.1771  1.3585
   70MOL0     H 9409   7.055   2.435   9.010 -0.9311 -0.7202 -0.3949
   70MOL0     H 9410   6.917   2.418   8.849 -0.5970 -1.1070 -0.2127
   70MOL0     H 9411   6.762   2.488   8.658 -1.8935  0.1943  0.1004
   70MOL0     H 9412   6.624   2.878   8.422 -0.2837  0.4247  0.2995
   70MOL0     H 9413   6.501   2.929   8.226  4.1573 -1.9985 -0.2660
   70MOL0     H 9414   6.370   2.602   8.017 -0.0192 -1.0844  1.0730
   70MOL0     H 9415   6.200   2.615   8.025 -0.4598  0.1084  1.3250
   70MOL0     H 9416   6.268   2.667   7.799 -2.3525  0.3521  0.3416
   70MOL0     H 9417   6.238   2.825   7.877  1.6820  0.9175  2.3495
   70MOL0     H 9418   6.453   2.854   7.768 -2.4534 -0.7582 -0.9813
   70MOL0     H 9419   6.475   2.842   7.948 -2.1224  0.3157  0.1898
   70MOL0     H 9420   6.583   2.679   7.726  0.4031  2.7647  0.2965
   70MOL0     H 9421   6.527   2.580   7.865  0.5347  0.8853 -0.1318
   70MOL0     H 9422   6.745   2.608   7.913 -1.9282 -1.5363 -1.0246
   70MOL0     H 9423   6.672   2.711   8.017  3.9246  1.2102  1.5171
   70MOL0     H 9424   6.709   2.911   7.880 -1.0020 -0.6464  0.5952
   70MOL0     H 9425   6.856   2.829   7.915  1.0541  1.1153 -1.6308
   70MOL0     H 9426   6.718   2.861   7.661 -2.2727 -1.8699  1.4954
   70MOL0     H 9427   6.790   2.705   7.670 -2.9880  0.7072 -1.9175
   70MOL0     H 9428   6.941   2.913   7.580 -1.1190  0.4945 -0.0802
   70MOL0     H 9429   6.916   2.989   7.740  1.4349 -0.1360  1.4193
   70MOL0     H 9430   6.275   2.562   8.253 -0.7706  0.4232  0.6349
   70MOL0     H 9431   6.384   2.518   8.469  3.0286 -1.3483  0.2587
   70MOL0     H 9432   6.517   2.683   8.961 -1.6730 -1.0093  1.3580
   70MOL0     H 9433   6.626   2.563   9.137  0.2570  4.0741 -0.8142
   70MOL0     H 9434   6.584   1.034   9.603 -0.0508  1.6287  2.3261
   70MOL0     H 9435   6.411   0.869   9.669  0.5935 -0.7027 -1.0669
   70MOL0     H 9436   5.952   0.876   9.780  1.9705  3.1801 -3.4759
   70MOL0     H 9437   5.745   0.764   9.860 -0.4699  1.6328 -1.0174
   70MOL0     H 9438   5.591   0.466   9.593 -0.6374 -1.2364  0.0280
   70MOL0     H 9439   5.467   0.608   9.601 -1.2530 -0.9769  1.3794
   70MOL0     H 9440   5.401   0.473   9.829  1.9772  2.1108 -0.2696
   70MOL0     H 9441   5.474   0.337   9.753  0.0687  0.1367 -0.4191
   70MOL0     H 9442   5.339   0.380   9.549 -0.2115 -1.4665 -0.2542
   70MOL0     H 9443   5.241   0.504   9.644 -2.6194 -1.6734 -1.4030
   70MOL0     H 9444   5.121   0.274   9.665 -1.3358 -1.2835  1.7065
   70MOL0     H 9445   5.269   0.212   9.728  1.6956  0.4190  1.1867
   70MOL0     H 9446   5.086   0.433  10.050  2.0558  3.9068 -1.8434
   70MOL0     H 9447   5.712   0.564   9.490 -0.1304  1.3643 -1.5407
   70MOL0     H 9448   5.903   0.724   9.291  0.9290 -1.9083 -1.6211
   70MOL0     H 9449   6.051   0.662   9.360  0.3611  2.5624  0.9470
   70MOL0     H 9450   5.916   0.549   9.335  2.9801 -1.1087  1.9827
   71MOL0     O 9451  10.867   1.584   0.054  0.6394 -0.0609 -0.0265
   71MOL0     C 9452  10.748   1.606   0.053  0.1605  0.6221  1.1622
   71MOL0     O 9453  10.676   1.682   0.146 -0.2958 -0.0050 -0.5730
   71MOL0     C 9454  10.746   1.764   0.236 -0.9710  0.5378 -0.7808
   71MOL0     C 9455  10.821   1.873   0.189  0.8749 -0.4058  0.9076
   71MOL0     C 9456  10.900   1.943   0.267 -1.2073  0.8329 -1.3107
   71MOL0     C 9457  10.926   1.910   0.402 -0.9721  0.5127  0.1457
   71MOL0     O 9458  11.014   1.963   0.487 -0.3987  0.7146 -0.1415
   71MOL0     C 9459  10.953   2.058   0.568 -0.2302 -0.0477  0.1138
   71MOL0     C 9460  11.029   2.081   0.699 -0.2827 -0.1230  0.8825
   71MOL0     C 9461  10.988   1.974   0.798 -0.3555  0.9296  0.2889
   71MOL0     C 9462  10.858   2.000   0.874 -0.2997 -0.7030 -0.8464
   71MOL0     C 9463  10.873   2.109   0.980  0.4447 -0.0387 -0.6941
   71MOL0     C 9464  10.971   2.086   1.089 -1.7054 -0.4040  0.2061
   71MOL0     C 9465  10.969   1.945   1.150 -0.2594 -0.9646 -0.2674
   71MOL0     C 9466  11.049   1.949   1.283 -0.1798  0.2498  0.9809
   71MOL0     N 9467  11.069   1.820   1.342  1.2676 -0.1041  0.3378
   71MOL0     C 9468  10.971   1.749   1.413 -0.6690  0.4689 -0.0047
   71MOL0     C 9469  11.026   1.630   1.438  0.3412  0.6949 -0.6419
   71MOL0     C 9470  10.979   1.530   1.545 -0.5615 -1.1837  0.6560
   71MOL0     C 9471  10.846   1.450   1.495 -0.2259  0.6265  0.2632
   71MOL0     C 9472  10.717   1.534   1.508 -0.2620  0.9540  0.1813
   71MOL0     C 9473  10.603   1.462   1.581  0.3290 -0.4405 -1.3550
   71MOL0     O 9474  10.663   1.405   1.698  0.1640  0.2689  0.6034
   71MOL0     C 9475  10.587   1.327   1.779  0.3581  0.2436  0.0900
   71MOL0     C 9476  10.651   1.249   1.866  0.3830  0.5174  0.9236
   71MOL0     C 9477  10.579   1.169   1.953 -0.5240 -0.7335 -0.4568
   71MOL0     C 9478  10.440   1.169   1.960  0.7516  0.2651  0.0761
   71MOL0     C 9479  10.372   1.072   2.047 -0.1502  0.7781 -0.8150
   71MOL0     O 9480  10.452   0.969   2.093  0.3104 -0.4058  0.4252
   71MOL0     C 9481  10.398   0.856   2.151 -0.2193  0.4210  0.7168
   71MOL0     C 9482  10.473   0.743   2.148 -0.5992 -0.5475  0.4987
   71MOL0     C 9483  10.437   0.616   2.195 -0.0573  0.1380  0.1509
   71MOL0     C 9484  10.303   0.611   2.251 -0.2216 -0.4150  0.4876
   71MOL0     O 9485  10.252   0.500   2.303 -0.2905 -0.2933 -0.3599
   71MOL0     C 9486  10.181   0.512   2.419  0.2877  0.5803 -0.2265
   71MOL0     C 9487  10.200   0.395   2.514 -0.1028 -0.3550 -0.2350
   71MOL0     C 9488  10.088   0.398   2.627  0.0301 -1.2400 -0.1763
   71MOL0     C 9489  10.119   0.486   2.751  0.1303 -0.1130  0.8127
   71MOL0     C 9490  10.017   0.462   2.853 -0.5179 -0.3439 -0.1527
   71MOL0     C 9491  10.056   0.546   2.982 -0.6271  0.0385  0.5071
   71MOL0     C 9492  10.033   0.698   2.982 -0.3421 -0.3476 -0.4815
   71MOL0     C 9493   9.883   0.729   2.972 -0.4083  0.7127 -0.6489
   71MOL0    Cl 9494   9.855   0.888   3.034  0.1302  0.1958  0.2810
   71MOL0     C 9495  10.224   0.725   2.253 -0.4622 -1.0562  0.6364
   71MOL0     C 9496  10.272   0.844   2.201 -0.1272  0.5949 -0.1102
   71MOL0     O 9497  10.249   1.086   2.047  0.1227 -0.3111 -0.0896
   71MOL0     C 9498  10.365   1.254   1.866 -0.3865 -0.3763  0.7570
   71MOL0     C 9499  10.439   1.330   1.773  0.9628  0.3149 -0.3056
   71MOL0     N 9500  11.151   1.627   1.380  0.5990 -0.8276 -0.2402
   71MOL0     N 9501  11.169   1.738   1.315 -0.5143  0.5010  0.3906
   71MOL0     C 9502  10.872   1.787   0.443  0.3067  0.1014  0.2806
   71MOL0     C 9503  10.771   1.722   0.364  0.5564 -0.6877 -0.0696
   71MOL0     C 9504  10.676   1.533  -0.060  0.1490  0.1797 -1.0366
   71MOL0     C 9505  10.744   1.529  -0.182  1.1859  0.0153  0.3462
   71MOL0     C 9506  10.682   1.458  -0.287  0.4270  1.6436  0.1955
   71MOL0     C 9507  10.557   1.392  -0.282  0.2787 -0.5189 -1.2651
   71MOL0     O 9508  10.496   1.324  -0.378  0.0812 -0.1453  0.3185
   71MOL0     C 9509  10.560   1.329  -0.503 -0.5970  0.6678  0.7830
   71MOL0     C 9510  10.669   1.217  -0.510  0.5886 -0.0267  0.4957
   71MOL0     C 9511  10.772   1.222  -0.619 -0.4949 -0.3802 -0.3290
   71MOL0     C 9512  10.712   1.220  -0.758  0.0585 -0.0926 -0.2981
   71MOL0     C 9513  10.639   1.098  -0.798  0.5568  1.5572  0.4659
   71MOL0     C 9514  10.571   0.994  -0.820 -0.1694  0.2926  0.3808
   71MOL0     C 9515  10.491   1.406  -0.169 -1.2499  0.0254 -1.3463
   71MOL0     C 9516  10.545   1.479  -0.055 -0.0727 -0.2972  0.2628
   71MOL0     C 9517  10.463   1.487   0.061  0.2187 -0.4085 -0.0331
   71MOL0     H 9518  10.832   1.895   0.083 -0.1684  1.6899  1.1839
   71MOL0     H 9519  10.957   2.029   0.232  1.0913  0.3019  0.7925
   71MOL0     H 9520  10.948   2.151   0.510 -0.6351  0.0286  0.2628
   71MOL0     H 9521  10.848   2.033   0.587  0.1667 -0.9395  1.2026
   71MOL0     H 9522  11.005   2.182   0.733  1.6685  1.2077 -1.3704
   71MOL0     H 9523  11.136   2.081   0.676 -1.0815 -0.6151 -4.0489
   71MOL0     H 9524  11.072   1.966   0.867 -0.2965  2.0098  0.3660
   71MOL0     H 9525  10.975   1.879   0.746 -2.2562  1.5761 -0.4981
   71MOL0     H 9526  10.778   2.038   0.810  1.6346  2.1179 -1.7621
   71MOL0     H 9527  10.824   1.913   0.932  2.0255  0.2626  2.2600
   71MOL0     H 9528  10.887   2.203   0.925 -1.3772  1.3686  1.1284
   71MOL0     H 9529  10.780   2.142   1.026  2.2280  1.2525  2.3237
   71MOL0     H 9530  11.070   2.122   1.060 -1.2639 -0.5438  1.4528
   71MOL0     H 9531  10.943   2.161   1.164  2.7099 -1.3801  3.2856
   71MOL0     H 9532  11.011   1.870   1.084  1.1187  0.8556 -1.5655
   71MOL0     H 9533  10.868   1.909   1.171 -0.6701 -2.0578 -3.5953
   71MOL0     H 9534  11.140   2.008   1.265 -0.0571 -0.2923 -0.3095
   71MOL0     H 9535  10.989   2.007   1.353 -0.4218 -0.5922  1.4852
   71MOL0     H 9536  10.884   1.793   1.460  0.0501  0.3076  1.5749
   71MOL0     H 9537  11.059   1.459   1.568  1.2580  0.1115 -1.3109
   71MOL0     H 9538  10.951   1.593   1.631 -2.3214  0.7231 -1.1771
   71MOL0     H 9539  10.856   1.409   1.394 -3.6047 -1.0370  0.4768
   71MOL0     H 9540  10.842   1.366   1.565  1.2279  0.4010  0.1280
   71MOL0     H 9541  10.686   1.559   1.407 -0.4873 -1.5145 -0.4143
   71MOL0     H 9542  10.740   1.625   1.564  1.7116 -1.6706  4.2097
   71MOL0     H 9543  10.558   1.391   1.511  1.9042  0.7264 -3.6976
   71MOL0     H 9544  10.526   1.536   1.604  1.4694  0.6229 -0.8685
   71MOL0     H 9545  10.759   1.250   1.852 -0.0202  1.2002 -3.7586
   71MOL0     H 9546  10.633   1.111   2.027 -0.8016 -0.1453  0.2228
   71MOL0     H 9547  10.570   0.753   2.100 -0.2281 -3.3259  0.5058
   71MOL0     H 9548  10.506   0.532   2.200  1.0543  0.6022 -4.0027
   71MOL0     H 9549  10.212   0.598   2.480 -2.0587  1.9976 -0.8885
   71MOL0     H 9550  10.076   0.517   2.388  0.1357 -2.4523 -0.4790
   71MOL0     H 9551  10.198   0.301   2.458  2.1556  0.1517 -1.2676
   71MOL0     H 9552  10.303   0.390   2.551 -1.8133 -1.3616  5.4622
   71MOL0     H 9553   9.996   0.444   2.590 -1.6672 -4.8724 -0.9541
   71MOL0     H 9554  10.062   0.296   2.654  1.2120 -1.9415 -1.5294
   71MOL0     H 9555  10.127   0.590   2.721  4.8223 -0.7233 -0.9080
   71MOL0     H 9556  10.216   0.465   2.797  0.7607 -1.0246 -0.8465
   71MOL0     H 9557  10.012   0.354   2.868 -1.0678 -0.0616  2.0350
   71MOL0     H 9558   9.913   0.480   2.823 -0.8710 -1.2709  0.4777
   71MOL0     H 9559   9.996   0.503   3.063  1.8469 -0.8903  1.9679
   71MOL0     H 9560  10.160   0.525   3.006  0.1253  0.1898 -2.3473
   71MOL0     H 9561  10.091   0.733   2.896 -0.7147  0.8295 -0.2693
   71MOL0     H 9562  10.091   0.737   3.066  1.3622 -1.8100 -0.9185
   71MOL0     H 9563   9.840   0.729   2.871  1.6016  0.5022 -1.5521
   71MOL0     H 9564   9.830   0.656   3.035  0.5411  0.7344  0.1854
   71MOL0     H 9565  10.118   0.722   2.280 -0.6666 -1.1425 -0.1509
   71MOL0     H 9566  10.205   0.929   2.195 -1.2826 -0.3089 -0.3647
   71MOL0     H 9567  10.256   1.249   1.861 -0.6730  2.8505  1.9005
   71MOL0     H 9568  10.393   1.405   1.709  1.1321  1.2575  0.6439
   71MOL0     H 9569  10.909   1.769   0.544  0.4511 -0.5040  0.1242
   71MOL0     H 9570  10.721   1.634   0.402  0.6929 -1.6321 -1.9649
   71MOL0     H 9571  10.848   1.560  -0.186  1.5651 -0.9979  1.7730
   71MOL0     H 9572  10.752   1.454  -0.370 -1.1716  0.8871 -1.1803
   71MOL0     H 9573  10.608   1.423  -0.532  2.9204 -0.4229  2.5384
   71MOL0     H 9574  10.487   1.301  -0.580  1.9824 -1.9524 -0.9035
   71MOL0     H 9575  10.611   1.125  -0.521  2.5729 -1.0436 -2.5527
   71MOL0     H 9576  10.731   1.213  -0.420 -0.1261 -2.2628  0.9376
   71MOL0     H 9577  10.837   1.136  -0.603  1.9731  1.4077 -0.1479
   71MOL0     H 9578  10.829   1.313  -0.598 -2.7670  0.9207  0.5390
   71MOL0     H 9579  10.647   1.308  -0.761  0.4980  0.6519  4.5394
   71MOL0     H 9580  10.786   1.242  -0.836 -0.7134 -0.8281 -1.2741
   71MOL0     H 9581  10.510   0.907  -0.818  0.6285 -0.2671  1.3115
   71MOL0     H 9582  10.392   1.361  -0.163 -0.8641 -0.8643 -1.6100
   71MOL0     H 9583  10.361   1.461   0.030 -0.3002  1.2816  0.1471
   71MOL0     H 9584  10.500   1.420   0.140  2.7745  0.7159 -0.1856
   71MOL0     H 9585  10.462   1.587   0.107 -1.1151 -1.1772  1.7656
   72MOL0     O 9586  10.592   2.674   0.671  0.6894  0.0454  0.1519
   72MOL0     C 9587  10.509   2.581   0.654  0.4649 -0.1262  0.9197
   72MOL0     O 9588  10.430   2.560   0.541 -0.1150 -0.2887 -0.4008
   72MOL0     C 9589  10.431   2.653   0.437  0.4792 -0.0047  0.5263
   72MOL0     C 9590  10.544   2.685   0.358  1.0990  0.1329 -0.0681
   72MOL0     C 9591  10.545   2.790   0.261 -0.4474 -0.6929 -0.3990
   72MOL0     C 9592  10.424   2.867   0.248  0.3460 -0.0049  0.0126
   72MOL0     O 9593  10.424   2.971   0.160 -0.0340 -0.1358 -0.2170
   72MOL0     C 9594  10.294   3.019   0.111 -0.5103 -0.9335 -0.3793
   72MOL0     C 9595  10.219   2.925   0.012 -0.8101 -0.0825 -0.8779
   72MOL0     C 9596  10.071   2.960  -0.031 -0.3714  0.5739 -0.2357
   72MOL0     C 9597  10.081   3.079  -0.126  1.0692 -0.2178  0.1302
   72MOL0     C 9598   9.937   3.108  -0.168 -0.3476 -0.4333  0.2143
   72MOL0     C 9599   9.932   3.248  -0.231  0.4700  0.1296  0.2308
   72MOL0     C 9600   9.788   3.283  -0.259  0.0405  0.0743  0.4364
   72MOL0     C 9601   9.770   3.429  -0.327 -0.6817  0.8084 -0.2767
   72MOL0     N 9602   9.629   3.455  -0.318 -0.0685  0.8070  0.4076
   72MOL0     C 9603   9.545   3.421  -0.416  0.7668  0.3445 -0.2980
   72MOL0     C 9604   9.417   3.434  -0.366 -1.0228 -0.2065  1.0598
   72MOL0     C 9605   9.292   3.418  -0.446 -0.8428  1.2301 -0.5317
   72MOL0     C 9606   9.245   3.557  -0.488  0.2402 -0.6701  0.0542
   72MOL0     C 9607   9.173   3.538  -0.615  0.0819 -0.3063 -0.7682
   72MOL0     C 9608   9.113   3.665  -0.666  0.4957 -0.7336 -0.3857
   72MOL0     O 9609   9.022   3.666  -0.775 -0.1525 -0.3721  0.7217
   72MOL0     C 9610   8.907   3.589  -0.751  0.0288  0.3217 -0.1798
   72MOL0     C 9611   8.832   3.571  -0.636 -1.0281  0.9887  0.7725
   72MOL0     C 9612   8.722   3.481  -0.626  0.1206  0.4639 -1.5334
   72MOL0     C 9613   8.683   3.418  -0.733 -0.1668  0.2448 -0.3964
   72MOL0     C 9614   8.557   3.344  -0.736 -0.4027 -0.1839  0.8286
   72MOL0     O 9615   8.518   3.303  -0.857  0.4041  0.1930 -0.5672
   72MOL0     C 9616   8.393   3.239  -0.880  0.0741 -0.8134  0.0538
   72MOL0     C 9617   8.282   3.275  -0.805  0.5271  0.4619 -0.4761
   72MOL0     C 9618   8.166   3.206  -0.816  0.4572 -0.0646  0.3056
   72MOL0     C 9619   8.142   3.106  -0.911 -0.7804 -0.6493  0.4489
   72MOL0     O 9620   8.025   3.033  -0.894 -0.0066 -0.3117  0.6300
   72MOL0     C 9621   7.992   2.944  -0.998 -0.3603  0.0377 -0.2529
   72MOL0     C 9622   7.859   2.882  -0.946  0.2826 -0.0792 -0.8663
   72MOL0     C 9623   7.815   2.781  -1.050 -0.1338  0.4349 -0.4260
   72MOL0     C 9624   7.703   2.682  -1.010 -1.0729 -1.0329  0.6395
   72MOL0     C 9625   7.629   2.599  -1.117  0.4749 -0.4369 -0.7725
   72MOL0     C 9626   7.704   2.528  -1.232 -0.0857 -0.6249 -0.1405
   72MOL0     C 9627   7.773   2.400  -1.178  0.4120 -0.3441  0.1673
   72MOL0     C 9628   7.813   2.309  -1.291 -0.6408 -0.7710  0.6287
   72MOL0    Cl 9629   7.651   2.236  -1.362 -0.1118  0.3030  0.2357
   72MOL0     C 9630   8.248   3.072  -0.997  0.8326 -0.0895  0.1873
   72MOL0     C 9631   8.371   3.142  -0.982  0.2900 -0.1821 -0.2092
   72MOL0     O 9632   8.504   3.308  -0.626  0.4353  0.2543 -0.7698
   72MOL0     C 9633   8.758   3.441  -0.858  0.3893 -0.8340 -0.3687
   72MOL0     C 9634   8.871   3.520  -0.857 -0.2792  0.1509 -0.3811
   72MOL0     N 9635   9.430   3.496  -0.237  1.2121 -0.5549 -0.5653
   72MOL0     N 9636   9.558   3.513  -0.220 -0.0863 -0.4833  0.2330
   72MOL0     C 9637  10.315   2.841   0.335 -0.1607  0.4238  0.0668
   72MOL0     C 9638  10.317   2.731   0.429 -0.3220 -0.4968  0.4920
   72MOL0     C 9639  10.501   2.480   0.763  0.7206  0.1799  1.0549
   72MOL0     C 9640  10.599   2.490   0.863  0.0333  0.5912  0.7087
   72MOL0     C 9641  10.597   2.404   0.969  0.9345  0.8995  0.1361
   72MOL0     C 9642  10.491   2.311   0.991  0.2718 -0.1807  0.5984
   72MOL0     O 9643  10.485   2.223   1.095 -0.9256  0.7294 -0.2030
   72MOL0     C 9644  10.466   2.091   1.066 -0.7410 -0.4899 -0.0843
   72MOL0     C 9645  10.478   2.013   1.200  0.7216  0.3196 -0.0223
   72MOL0     C 9646  10.471   1.860   1.162  0.5445  0.2216 -0.6463
   72MOL0     C 9647  10.477   1.774   1.287  0.4844  1.3066  0.3342
   72MOL0     C 9648  10.415   1.642   1.253 -0.1692 -0.6552  0.9030
   72MOL0     C 9649  10.372   1.535   1.221  0.4734 -0.1937 -0.2684
   72MOL0     C 9650  10.402   2.301   0.883 -0.0584  0.6079 -0.7380
   72MOL0     C 9651  10.408   2.375   0.769 -0.4698  0.2564  0.6252
   72MOL0     C 9652  10.297   2.348   0.674  0.1951 -0.4727  0.6458
   72MOL0     H 9653  10.633   2.623   0.367  0.0575 -1.4302 -0.3351
   72MOL0     H 9654  10.630   2.800   0.194  0.4489  0.7648  0.8616
   72MOL0     H 9655  10.228   3.049   0.193  0.4246  4.0468 -1.1901
   72MOL0     H 9656  10.307   3.117   0.065  0.8550 -1.8548 -2.0904
   72MOL0     H 9657  10.220   2.828   0.063 -1.4650  0.5293  0.3453
   72MOL0     H 9658  10.274   2.901  -0.080  0.5322 -2.5142  0.4553
   72MOL0     H 9659  10.009   2.988   0.055  0.1152  2.7719 -0.5401
   72MOL0     H 9660  10.042   2.865  -0.077  1.9365 -1.6731  2.5508
   72MOL0     H 9661  10.121   3.162  -0.067  0.6541 -0.2573  0.4703
   72MOL0     H 9662  10.146   3.058  -0.212 -0.9768  3.1666 -2.4483
   72MOL0     H 9663   9.899   3.029  -0.234  1.0921 -0.9774 -0.0139
   72MOL0     H 9664   9.880   3.105  -0.075 -0.2461 -3.6412  0.2770
   72MOL0     H 9665   9.964   3.318  -0.153 -3.1872  1.3350  0.8550
   72MOL0     H 9666   9.994   3.264  -0.319  0.1427  0.0150 -0.0216
   72MOL0     H 9667   9.727   3.268  -0.170  1.4007  1.0664  1.5628
   72MOL0     H 9668   9.762   3.206  -0.333 -0.8190  1.3073 -0.5844
   72MOL0     H 9669   9.826   3.490  -0.256  0.8280 -2.8190  1.9801
   72MOL0     H 9670   9.812   3.436  -0.428  1.3279 -0.5386  0.4054
   72MOL0     H 9671   9.560   3.398  -0.521  0.0908  1.4793 -0.6676
   72MOL0     H 9672   9.298   3.342  -0.525  1.0825 -1.6670  2.1997
   72MOL0     H 9673   9.212   3.372  -0.388 -2.1148  2.9593 -0.8142
   72MOL0     H 9674   9.179   3.597  -0.410  1.0060 -0.9161  0.8410
   72MOL0     H 9675   9.323   3.628  -0.516  2.1372 -2.5294  0.3925
   72MOL0     H 9676   9.091   3.467  -0.596 -0.4241  0.2949 -0.6851
   72MOL0     H 9677   9.238   3.490  -0.689 -1.0116 -0.3935 -1.6883
   72MOL0     H 9678   9.198   3.729  -0.691  0.9056 -1.1294 -0.0332
   72MOL0     H 9679   9.057   3.725  -0.594  0.3564 -0.1569 -0.9707
   72MOL0     H 9680   8.858   3.634  -0.551 -3.2156  1.8760  0.8499
   72MOL0     H 9681   8.669   3.475  -0.531  0.8560  0.5386 -1.1149
   72MOL0     H 9682   8.284   3.347  -0.724  3.6774  0.0840 -0.1251
   72MOL0     H 9683   8.085   3.243  -0.754  1.1549  1.2259  0.4724
   72MOL0     H 9684   7.980   3.003  -1.088 -0.5689  0.0814 -0.1965
   72MOL0     H 9685   8.066   2.863  -0.996  0.2355  0.4691  3.4427
   72MOL0     H 9686   7.862   2.833  -0.848  0.8987  2.2162  0.3509
   72MOL0     H 9687   7.785   2.961  -0.929 -1.5977 -1.8479 -0.5249
   72MOL0     H 9688   7.767   2.840  -1.128 -2.0626 -0.3527  0.1000
   72MOL0     H 9689   7.895   2.720  -1.093 -1.0104 -1.0092 -0.0985
   72MOL0     H 9690   7.623   2.726  -0.950 -0.0748  0.8225  0.6908
   72MOL0     H 9691   7.757   2.614  -0.944 -1.3037 -1.1407  0.7179
   72MOL0     H 9692   7.566   2.672  -1.168 -0.7966  0.2152  1.5962
   72MOL0     H 9693   7.568   2.520  -1.071 -0.5612  0.4634 -0.5741
   72MOL0     H 9694   7.638   2.500  -1.314  0.0151 -2.4867  0.3674
   72MOL0     H 9695   7.778   2.600  -1.269  1.2485 -1.1800  1.3372
   72MOL0     H 9696   7.708   2.346  -1.109  1.8946  0.5956  2.4317
   72MOL0     H 9697   7.861   2.430  -1.120 -0.2259 -2.4635  2.3653
   72MOL0     H 9698   7.856   2.381  -1.361 -2.4616  1.3692  1.5631
   72MOL0     H 9699   7.882   2.228  -1.265 -0.7182 -0.7399  0.9392
   72MOL0     H 9700   8.222   3.001  -1.075 -1.4537 -1.7032  2.2451
   72MOL0     H 9701   8.449   3.126  -1.056  0.5881  2.6737 -0.6273
   72MOL0     H 9702   8.735   3.396  -0.955 -1.7105 -0.9615  0.1609
   72MOL0     H 9703   8.921   3.547  -0.949  0.3830  1.8546  0.4432
   72MOL0     H 9704  10.222   2.896   0.332  1.1091  2.7136  0.4602
   72MOL0     H 9705  10.228   2.715   0.488 -0.0918  1.7034  1.5421
   72MOL0     H 9706  10.676   2.566   0.856 -1.2668  1.7893 -2.9539
   72MOL0     H 9707  10.655   2.412   1.061 -0.1989  0.6850  0.8882
   72MOL0     H 9708  10.548   2.067   0.999 -1.2323  0.5377 -1.0992
   72MOL0     H 9709  10.369   2.067   1.022 -1.1794  0.4197  0.3575
   72MOL0     H 9710  10.387   2.043   1.253  0.3766 -0.3898 -0.1971
   72MOL0     H 9711  10.563   2.044   1.261  0.0492  0.1542  1.0240
   72MOL0     H 9712  10.551   1.843   1.089  0.9974 -2.9749  0.4323
   72MOL0     H 9713  10.374   1.837   1.117  1.5032 -0.3761 -2.5164
   72MOL0     H 9714  10.580   1.749   1.316 -0.1987 -1.3822  0.7754
   72MOL0     H 9715  10.414   1.804   1.371  1.5296 -0.7352  1.9696
   72MOL0     H 9716  10.340   1.437   1.193  1.4116 -0.2516 -1.1779
   72MOL0     H 9717  10.321   2.229   0.890  2.3746 -2.2015  2.0717
   72MOL0     H 9718  10.240   2.264   0.714 -0.2870  0.4011  1.8552
   72MOL0     H 9719  10.231   2.434   0.657  2.4444  1.1368 -0.4569
   72MOL0     H 9720  10.342   2.324   0.577  0.6243 -1.1943  1.0194
   73MOL0     O 9721   5.254  10.803   3.128  0.4281 -0.3135  1.0016
   73MOL0     C 9722   5.202  10.901   3.178  0.3232 -0.4286 -0.4333
   73MOL0     O 9723   5.067  10.921   3.184 -0.0768  0.4754  0.4838
   73MOL0     C 9724   4.975  10.829   3.134 -0.3473 -0.1746 -0.3767
   73MOL0     C 9725   4.960  10.821   2.998  0.6841  0.1081 -0.2278
   73MOL0     C 9726   4.861  10.749   2.933  0.5182 -0.5277  0.4451
   73MOL0     C 9727   4.759  10.687   3.010 -1.1222  0.0095  1.3594
   73MOL0     O 9728   4.667  10.608   2.960  0.3908  0.2865 -0.3360
   73MOL0     C 9729   4.720  10.517   2.863  0.8851  0.3437  1.0708
   73MOL0     C 9730   4.639  10.385   2.880  0.4242  0.3788 -0.1867
   73MOL0     C 9731   4.694  10.311   3.004 -0.8752  0.9436 -0.1309
   73MOL0     C 9732   4.635  10.165   3.009  0.0084  0.0261 -0.1445
   73MOL0     C 9733   4.677  10.091   3.143  0.8524 -0.1717  0.2873
   73MOL0     C 9734   4.801  10.135   3.222 -0.1423 -0.1689  0.9071
   73MOL0     C 9735   4.830  10.052   3.350  0.9983 -0.0584  0.7677
   73MOL0     C 9736   4.965  10.079   3.421 -0.3689 -0.0448  0.3444
   73MOL0     N 9737   4.991   9.968   3.520 -0.3036 -0.0376  0.8490
   73MOL0     C 9738   4.972   9.965   3.660 -0.2923 -0.0448  0.2605
   73MOL0     C 9739   5.038   9.851   3.700 -0.4813  0.1267 -0.7099
   73MOL0     C 9740   5.042   9.804   3.848  0.3711  0.7405  0.3041
   73MOL0     C 9741   4.929   9.698   3.892 -1.0554 -0.4581 -0.7449
   73MOL0     C 9742   4.965   9.549   3.876 -0.0171  0.6984 -0.7878
   73MOL0     C 9743   5.027   9.493   3.743  0.4623  0.2889 -0.4041
   73MOL0     O 9744   4.998   9.355   3.735  0.1760  0.2023  0.0685
   73MOL0     C 9745   4.997   9.301   3.603  0.2936  0.8899 -0.0942
   73MOL0     C 9746   4.964   9.166   3.606  0.4752 -0.3875 -0.0624
   73MOL0     C 9747   4.945   9.088   3.478  0.5715 -0.3744 -0.1091
   73MOL0     C 9748   4.975   9.148   3.357  0.4227  1.0070  0.0762
   73MOL0     C 9749   4.953   9.072   3.227 -0.4412 -0.3654 -0.2084
   73MOL0     O 9750   4.944   9.148   3.114  0.4448  0.3417  0.2075
   73MOL0     C 9751   4.901   9.084   3.000  0.2730 -0.6144  0.1513
   73MOL0     C 9752   4.785   9.134   2.927  0.6675  0.7129  0.0132
   73MOL0     C 9753   4.739   9.069   2.809 -0.6063 -0.7974  0.8564
   73MOL0     C 9754   4.802   8.953   2.774  0.8189 -0.1675 -0.0677
   73MOL0     O 9755   4.759   8.879   2.668  0.0956 -0.4559  1.2923
   73MOL0     C 9756   4.647   8.929   2.591 -0.0373  0.3179 -1.2282
   73MOL0     C 9757   4.629   8.859   2.460  0.8579 -0.2865 -1.0309
   73MOL0     C 9758   4.744   8.873   2.358  0.6789  0.4113  0.6403
   73MOL0     C 9759   4.803   8.748   2.307 -0.2969  0.8420  0.5319
   73MOL0     C 9760   4.880   8.767   2.173  1.2449 -0.1664 -0.3229
   73MOL0     C 9761   4.788   8.794   2.049 -0.7761  0.3005 -0.6421
   73MOL0     C 9762   4.890   8.829   1.938  0.1071  0.1351 -0.6534
   73MOL0     C 9763   4.810   8.896   1.826  0.2746 -0.3452  0.5888
   73MOL0    Cl 9764   4.694   8.786   1.762  0.1848 -0.3016 -0.1382
   73MOL0     C 9765   4.909   8.896   2.841  0.1415 -0.3884 -0.0564
   73MOL0     C 9766   4.966   8.965   2.948  0.4105 -0.2306 -1.4228
   73MOL0     O 9767   4.952   8.954   3.235  0.5306  0.8038  0.0109
   73MOL0     C 9768   5.020   9.284   3.367 -0.1085 -0.0778 -0.4308
   73MOL0     C 9769   5.030   9.361   3.480  0.3685  0.2859 -0.0162
   73MOL0     N 9770   5.079   9.787   3.584  0.5059  0.1404 -0.3724
   73MOL0     N 9771   5.054   9.859   3.481  0.4624 -0.5851 -0.4684
   73MOL0     C 9772   4.768  10.709   3.146 -0.6667  0.7829 -0.1337
   73MOL0     C 9773   4.872  10.776   3.210 -0.1311  0.3071  0.1503
   73MOL0     C 9774   5.282  11.014   3.222 -0.4630 -0.6315  0.0365
   73MOL0     C 9775   5.220  11.133   3.264  0.4320  0.6876  0.1990
   73MOL0     C 9776   5.288  11.233   3.321 -0.9121 -0.8084 -0.0422
   73MOL0     C 9777   5.428  11.233   3.330  0.5960 -0.0736  0.4158
   73MOL0     O 9778   5.507  11.336   3.370  1.2581  0.4827  0.7048
   73MOL0     C 9779   5.448  11.463   3.420  0.7535 -0.2342  0.7543
   73MOL0     C 9780   5.408  11.439   3.564 -0.3266  0.5886 -0.1634
   73MOL0     C 9781   5.532  11.384   3.636 -0.0356 -0.1273 -0.3001
   73MOL0     C 9782   5.528  11.238   3.659  0.0397  0.6708 -0.6699
   73MOL0     C 9783   5.433  11.195   3.757 -0.0801  0.7093 -0.5586
   73MOL0     C 9784   5.350  11.152   3.835  0.2845  1.2869 -1.1176
   73MOL0     C 9785   5.493  11.118   3.286  0.3294 -0.4182 -0.5654
   73MOL0     C 9786   5.421  11.010   3.235 -0.1079  0.5856 -0.2999
   73MOL0     C 9787   5.512  10.892   3.209  0.1542 -0.2253 -0.3457
   73MOL0     H 9788   5.042  10.865   2.943  0.5562  1.8752  0.9192
   73MOL0     H 9789   4.850  10.751   2.825  0.3577  0.2052  0.4672
   73MOL0     H 9790   4.706  10.548   2.759 -1.4355  1.6740  1.7078
   73MOL0     H 9791   4.826  10.495   2.879  1.0095  1.5288  2.0023
   73MOL0     H 9792   4.649  10.342   2.780 -3.3155 -0.5517 -0.3029
   73MOL0     H 9793   4.531  10.404   2.888 -0.0773 -2.3494  0.7008
   73MOL0     H 9794   4.673  10.371   3.093 -0.5023  0.3402  0.3782
   73MOL0     H 9795   4.802  10.292   2.997 -1.0475 -0.2672  0.2163
   73MOL0     H 9796   4.527  10.156   2.996 -0.1714 -0.5716  1.4484
   73MOL0     H 9797   4.675  10.108   2.925  0.2679 -0.8161  0.5347
   73MOL0     H 9798   4.595  10.102   3.213 -1.2942 -2.2065 -1.7124
   73MOL0     H 9799   4.686   9.983   3.122 -1.9832 -0.3845 -0.2222
   73MOL0     H 9800   4.880  10.124   3.148 -2.0912  1.8042 -1.6639
   73MOL0     H 9801   4.812  10.242   3.239 -1.9394 -0.0311  1.4529
   73MOL0     H 9802   4.819   9.948   3.317 -0.3487  0.4854 -0.6349
   73MOL0     H 9803   4.748  10.054   3.423 -0.6286 -1.4030 -0.9477
   73MOL0     H 9804   5.050  10.083   3.352  0.0662  0.8854  0.9102
   73MOL0     H 9805   4.963  10.171   3.481 -3.2309  0.6055 -0.6111
   73MOL0     H 9806   4.917  10.033   3.725 -1.2406  0.0662 -0.6397
   73MOL0     H 9807   5.140   9.758   3.866  0.3130  1.1075  1.7393
   73MOL0     H 9808   5.038   9.895   3.910  1.4580  1.7938 -1.1042
   73MOL0     H 9809   4.895   9.723   3.993  1.2330  1.8261 -0.4532
   73MOL0     H 9810   4.843   9.712   3.826 -0.0554  2.2526 -1.6263
   73MOL0     H 9811   4.879   9.486   3.899  1.1100 -1.8568 -3.1560
   73MOL0     H 9812   5.035   9.526   3.957  0.3162  1.7286 -0.7621
   73MOL0     H 9813   5.135   9.506   3.752  0.4039 -0.6165  3.5513
   73MOL0     H 9814   4.990   9.552   3.658  0.9486 -1.0725 -1.6010
   73MOL0     H 9815   4.947   9.118   3.702 -1.1774 -1.9497 -1.0679
   73MOL0     H 9816   4.917   8.983   3.478  1.2681 -0.5671  0.1599
   73MOL0     H 9817   4.748   9.233   2.950 -1.2948  0.9262 -3.3336
   73MOL0     H 9818   4.657   9.119   2.758 -0.9713 -0.8511  1.3866
   73MOL0     H 9819   4.560   8.923   2.657  1.0140 -0.2518  0.1573
   73MOL0     H 9820   4.664   9.033   2.563 -1.8123  0.5130 -1.6762
   73MOL0     H 9821   4.637   8.756   2.494  3.9985  0.3179  0.4841
   73MOL0     H 9822   4.531   8.885   2.420  0.0223 -0.5944  0.7496
   73MOL0     H 9823   4.704   8.930   2.275 -2.2014 -1.9771  0.1880
   73MOL0     H 9824   4.823   8.931   2.407 -2.4019  3.0017  3.0167
   73MOL0     H 9825   4.728   8.671   2.289  0.0765  0.1188  1.9191
   73MOL0     H 9826   4.864   8.715   2.392 -2.7301 -1.1090  1.6248
   73MOL0     H 9827   4.939   8.676   2.153  0.7041 -0.3529 -1.1331
   73MOL0     H 9828   4.948   8.852   2.186 -0.7370  1.2998  0.9966
   73MOL0     H 9829   4.736   8.701   2.023  0.9520 -1.2743  1.2183
   73MOL0     H 9830   4.714   8.874   2.064  0.2469  1.2023 -0.2304
   73MOL0     H 9831   4.943   8.742   1.898  2.7985  0.8913  0.9945
   73MOL0     H 9832   4.959   8.900   1.983  2.6192 -0.2590 -3.5897
   73MOL0     H 9833   4.762   8.986   1.866  1.1938  0.6482 -0.4646
   73MOL0     H 9834   4.881   8.935   1.752  1.0926 -0.0361  1.5214
   73MOL0     H 9835   4.951   8.804   2.803 -1.6936 -1.1685 -0.2891
   73MOL0     H 9836   5.056   8.919   2.988  0.7464  0.4777 -1.3462
   73MOL0     H 9837   5.055   9.332   3.276  2.1136  1.3991  1.0761
   73MOL0     H 9838   5.042   9.468   3.473 -1.6485  0.4492 -2.0200
   73MOL0     H 9839   4.688  10.661   3.203 -0.9896 -1.0710 -2.0236
   73MOL0     H 9840   4.888  10.783   3.317 -3.3182  0.3465  0.7280
   73MOL0     H 9841   5.111  11.133   3.262  0.4080 -0.5189  0.3879
   73MOL0     H 9842   5.236  11.315   3.371 -3.1496 -0.2321 -3.0403
   73MOL0     H 9843   5.369  11.484   3.347  2.4360 -0.4649 -1.2035
   73MOL0     H 9844   5.517  11.548   3.415  3.4191 -2.2696  0.6947
   73MOL0     H 9845   5.324  11.370   3.576  0.7247 -1.0630 -1.7022
   73MOL0     H 9846   5.382  11.533   3.613  1.0179  1.2200 -0.6128
   73MOL0     H 9847   5.553  11.438   3.728 -0.9320 -0.2725  0.0002
   73MOL0     H 9848   5.619  11.398   3.570 -2.3642  1.1118 -3.3634
   73MOL0     H 9849   5.506  11.177   3.571 -1.1850 -1.6947  1.1519
   73MOL0     H 9850   5.625  11.193   3.683 -0.6231 -1.0599 -1.0750
   73MOL0     H 9851   5.287  11.134   3.920 -0.1886  3.1629 -1.0422
   73MOL0     H 9852   5.601  11.122   3.294  0.2263  0.7743  0.5255
   73MOL0     H 9853   5.480  10.838   3.120  0.5067  1.4634 -1.5612
   73MOL0     H 9854   5.617  10.918   3.192 -0.3824  1.1172 -1.8696
   73MOL0     H 9855   5.512  10.822   3.293  2.2722  1.6902  1.4070
   74MOL0     O 9856   2.701   8.511  10.801  0.1822  0.5286 -0.8734
   74MOL0     C 9857   2.810   8.548  10.778 -0.1349 -0.4828 -0.0393
   74MOL0     O 9858   2.896   8.596  10.872 -0.8795  0.8081 -0.5795
   74MOL0     C 9859   2.871   8.558  11.004 -0.7235 -0.1228 -0.3298
   74MOL0     C 9860   2.891   8.421  11.031 -0.2612  0.9876 -0.1787
   74MOL0     C 9861   2.895   8.381  11.161 -0.4077 -0.6741  0.6895
   74MOL0     C 9862   2.884   8.479  11.267 -0.8584  0.3008  0.2765
   74MOL0     O 9863   2.892   8.432  11.397  0.1157 -0.6378  0.0069
   74MOL0     C 9864   2.911   8.538  11.497 -0.3713  0.6788  0.0447
   74MOL0     C 9865   2.955   8.470  11.623 -1.2169 -0.1515 -0.0137
   74MOL0     C 9866   2.957   8.574  11.742 -0.1058 -0.5197  0.3930
   74MOL0     C 9867   3.044   8.509  11.851  0.2790 -0.1481 -0.3108
   74MOL0     C 9868   3.023   8.568  11.990 -0.1458  0.9360 -0.2200
   74MOL0     C 9869   3.101   8.516  12.109 -0.8748  0.0184  0.9147
   74MOL0     C 9870   3.068   8.589  12.241 -0.0047  0.3835  0.9610
   74MOL0     C 9871   3.100   8.502  12.357 -0.0791  0.5362 -0.5969
   74MOL0     N 9872   3.036   8.551  12.484  1.0426  1.2707  0.2362
   74MOL0     C 9873   3.095   8.636  12.570  0.1801 -0.6911 -0.4722
   74MOL0     C 9874   2.999   8.636  12.672 -0.5521 -0.8859 -0.2638
   74MOL0     C 9875   3.025   8.725  12.789  0.0469 -0.1450 -0.1077
   74MOL0     C 9876   3.068   8.645  12.904 -0.0306 -0.0519 -0.4791
   74MOL0     C 9877   3.121   8.730  13.020 -0.2431 -0.2484  0.7069
   74MOL0     C 9878   3.115   8.665  13.151  0.7521 -0.2537  0.4397
   74MOL0     O 9879   3.124   8.744  13.264 -0.5555 -0.0299 -0.5591
   74MOL0     C 9880   3.133   8.682  13.388  0.9498 -0.7179 -0.3350
   74MOL0     C 9881   3.129   8.760  13.501  0.1625 -0.6370  0.0698
   74MOL0     C 9882   3.149   8.703  13.634 -0.0967  0.6374  0.8977
   74MOL0     C 9883   3.175   8.566  13.643  0.3672  1.0147 -0.7293
   74MOL0     C 9884   3.196   8.516  13.791  0.1182 -0.1779  0.4001
   74MOL0     O 9885   3.208   8.615  13.895 -0.3779 -0.1382  0.3072
   74MOL0     C 9886   3.234   8.571  14.024  0.6187 -0.1377 -0.2229
   74MOL0     C 9887   3.356   8.516  14.052  0.7390  0.4492 -0.3767
   74MOL0     C 9888   3.379   8.465  14.179 -0.4613 -0.5090  0.0189
   74MOL0     C 9889   3.277   8.457  14.275 -0.4910 -0.9657 -0.4031
   74MOL0     O 9890   3.295   8.400  14.400 -0.3494 -0.6062 -0.2830
   74MOL0     C 9891   3.191   8.347  14.477  0.3670 -0.5851  0.9926
   74MOL0     C 9892   3.181   8.453  14.591  0.2429 -1.1619 -0.6585
   74MOL0     C 9893   3.079   8.397  14.689 -0.7841  0.2042  0.8338
   74MOL0     C 9894   3.034   8.516  14.786 -0.6337  0.5131 -0.4380
   74MOL0     C 9895   3.147   8.592  14.858 -0.3931  0.0123 -0.7482
   74MOL0     C 9896   3.218   8.496  14.954 -0.9251 -0.0308 -0.3909
   74MOL0     C 9897   3.341   8.551  15.025  0.2948  0.0607 -0.3313
   74MOL0     C 9898   3.387   8.463  15.135 -0.0668 -0.2333 -1.3447
   74MOL0    Cl 9899   3.479   8.338  15.051 -0.2511  0.3908  0.0677
   74MOL0     C 9900   3.157   8.525  14.250  0.2333  0.1364  0.5257
   74MOL0     C 9901   3.136   8.580  14.124  0.5557  0.1677  0.0853
   74MOL0     O 9902   3.210   8.395  13.805  0.3397 -0.8328  0.6195
   74MOL0     C 9903   3.180   8.492  13.533 -0.1077  0.3310  0.0311
   74MOL0     C 9904   3.162   8.553  13.408  0.6346 -0.0337  0.2812
   74MOL0     N 9905   2.895   8.559  12.637  0.0482 -0.6597  0.3331
   74MOL0     N 9906   2.905   8.513  12.519  0.7530 -0.0991  1.1038
   74MOL0     C 9907   2.866   8.612  11.235  0.6118  0.0792  0.0349
   74MOL0     C 9908   2.862   8.656  11.105  1.1620 -0.0456 -0.9197
   74MOL0     C 9909   2.855   8.568  10.641 -0.1637  0.7081  0.5786
   74MOL0     C 9910   2.986   8.634  10.624 -0.3224  1.0313  0.6679
   74MOL0     C 9911   3.027   8.654  10.489  0.4630  0.9258 -0.3103
   74MOL0     C 9912   2.941   8.637  10.383  0.4445  0.2034  0.9161
   74MOL0     O 9913   2.970   8.661  10.248  0.4123  0.5036  0.4945
   74MOL0     C 9914   3.090   8.719  10.210  0.1581 -0.0241  0.0595
   74MOL0     C 9915   3.073   8.870  10.211  0.2802  0.7942 -0.3906
   74MOL0     C 9916   3.203   8.944  10.193 -0.3185  0.1809  0.0608
   74MOL0     C 9917   3.340   8.898  10.262  0.5243  0.0096 -0.2106
   74MOL0     C 9918   3.454   8.992  10.244  0.6321 -0.0975 -0.0859
   74MOL0     C 9919   3.540   9.070  10.219  0.0378 -0.2667 -0.9009
   74MOL0     C 9920   2.809   8.592  10.402  0.3259  0.5676  0.4045
   74MOL0     C 9921   2.771   8.555  10.530  0.5968  0.6418 -0.4425
   74MOL0     C 9922   2.625   8.498  10.542 -0.6467 -0.4427 -0.2338
   74MOL0     H 9923   2.888   8.347  10.951 -0.9435  0.9407 -0.1179
   74MOL0     H 9924   2.917   8.278  11.187  0.1527 -0.2698  1.8615
   74MOL0     H 9925   2.980   8.616  11.464 -3.2448  3.3149 -0.1370
   74MOL0     H 9926   2.815   8.585  11.520 -0.0114  0.5242  2.0136
   74MOL0     H 9927   3.050   8.422  11.598 -1.0503  2.1726 -5.0553
   74MOL0     H 9928   2.881   8.393  11.646 -0.9913 -0.1766  0.6343
   74MOL0     H 9929   2.857   8.588  11.784  0.3837  0.4630  1.2741
   74MOL0     H 9930   3.001   8.672  11.718  0.6723 -1.2169 -1.1592
   74MOL0     H 9931   3.016   8.404  11.846  2.3116 -0.7000 -2.0961
   74MOL0     H 9932   3.152   8.507  11.833  0.0509 -2.8693 -1.8240
   74MOL0     H 9933   3.041   8.676  11.988  0.1513  0.9131  0.7187
   74MOL0     H 9934   2.916   8.554  12.006 -0.1007  0.0143 -0.6278
   74MOL0     H 9935   3.101   8.407  12.116 -1.1009 -0.0423  0.0655
   74MOL0     H 9936   3.206   8.538  12.086 -0.6819  0.7124  2.3202
   74MOL0     H 9937   2.961   8.611  12.228  0.8075  2.9121 -3.4831
   74MOL0     H 9938   3.126   8.681  12.252 -0.6065  1.0545 -1.0930
   74MOL0     H 9939   3.083   8.397  12.334 -0.4953  0.9305 -2.2768
   74MOL0     H 9940   3.207   8.518  12.373  0.1201  2.7213 -3.3263
   74MOL0     H 9941   3.190   8.689  12.563  0.2730 -0.9433 -1.2645
   74MOL0     H 9942   3.093   8.808  12.768 -1.6331  1.4042  0.3425
   74MOL0     H 9943   2.927   8.762  12.820  1.2800  0.4355  3.4355
   74MOL0     H 9944   2.998   8.569  12.941  1.2513 -1.1375 -0.2230
   74MOL0     H 9945   3.156   8.589  12.871  0.4778 -0.3705  1.2972
   74MOL0     H 9946   3.062   8.822  13.021 -0.8035 -0.6040  2.1330
   74MOL0     H 9947   3.220   8.770  12.996 -0.6638  0.6321  0.3799
   74MOL0     H 9948   3.204   8.602  13.159  1.7895  1.2514  1.1670
   74MOL0     H 9949   3.027   8.601  13.164  0.1927  1.0891  5.2190
   74MOL0     H 9950   3.120   8.868  13.493  3.0117 -0.3441 -0.3829
   74MOL0     H 9951   3.150   8.767  13.722  0.1953 -1.4575  2.4946
   74MOL0     H 9952   3.431   8.499  13.975  2.3727  0.1498  1.2086
   74MOL0     H 9953   3.479   8.433  14.205  0.2846  0.4668 -1.5286
   74MOL0     H 9954   3.094   8.327  14.430  0.1980  0.6262  0.7897
   74MOL0     H 9955   3.221   8.248  14.513  0.1943 -0.6314  1.0104
   74MOL0     H 9956   3.280   8.474  14.633 -0.4611  0.6452  0.2184
   74MOL0     H 9957   3.139   8.546  14.552 -0.6595 -1.3286 -0.1134
   74MOL0     H 9958   2.993   8.344  14.646 -1.1414  0.4759  1.1923
   74MOL0     H 9959   3.134   8.323  14.749 -0.3465 -0.1315  0.0241
   74MOL0     H 9960   2.970   8.477  14.865 -0.1294 -0.8577 -0.6862
   74MOL0     H 9961   2.981   8.594  14.729  1.2136  1.8582 -0.3897
   74MOL0     H 9962   3.097   8.657  14.931  1.1252  1.6178 -1.0568
   74MOL0     H 9963   3.203   8.646  14.781 -1.3070  0.3293 -1.1962
   74MOL0     H 9964   3.147   8.457  15.028 -2.3873 -1.5171 -2.4592
   74MOL0     H 9965   3.256   8.415  14.891 -1.8754  1.3927 -2.9448
   74MOL0     H 9966   3.305   8.649  15.056  0.6021 -0.5555  2.1714
   74MOL0     H 9967   3.426   8.558  14.956  0.2211 -0.3896 -0.4694
   74MOL0     H 9968   3.462   8.515  15.196 -0.7895 -0.3472 -0.3385
   74MOL0     H 9969   3.305   8.429  15.199 -0.1298 -2.4984 -2.5475
   74MOL0     H 9970   3.078   8.532  14.325 -2.0104 -3.1212 -1.2766
   74MOL0     H 9971   3.047   8.638  14.100  1.4535  1.3605 -0.4958
   74MOL0     H 9972   3.189   8.385  13.546 -2.2933 -0.0932 -1.4999
   74MOL0     H 9973   3.172   8.480  13.328 -1.2896 -1.5405  1.3269
   74MOL0     H 9974   2.840   8.686  11.310  3.4003 -1.2939  2.5557
   74MOL0     H 9975   2.838   8.758  11.076 -0.8813 -0.0289  0.6476
   74MOL0     H 9976   3.056   8.672  10.698  1.8729  2.4810 -1.9696
   74MOL0     H 9977   3.128   8.689  10.473 -0.1020  3.3722  0.9224
   74MOL0     H 9978   3.110   8.682  10.109  0.0595 -1.7352  0.6353
   74MOL0     H 9979   3.175   8.697  10.275  0.1756  0.5444  0.2384
   74MOL0     H 9980   3.039   8.891  10.313  0.4119  0.3543 -0.2546
   74MOL0     H 9981   3.001   8.907  10.137 -0.4233 -1.6020 -1.0075
   74MOL0     H 9982   3.191   9.052  10.209  1.5690  0.6634 -1.3906
   74MOL0     H 9983   3.211   8.930  10.085 -0.3655  1.1277 -0.0813
   74MOL0     H 9984   3.330   8.897  10.371  0.2552  0.8237 -0.2227
   74MOL0     H 9985   3.365   8.798  10.226  1.8396  0.0139  0.6252
   74MOL0     H 9986   3.616   9.144  10.204  1.3071 -1.7755 -2.3538
   74MOL0     H 9987   2.749   8.594  10.311  0.5675  0.8048  0.2500
   74MOL0     H 9988   2.615   8.396  10.581 -0.9315 -0.8767 -1.4082
   74MOL0     H 9989   2.569   8.570  10.603 -0.8341 -1.2487  0.5733
   74MOL0     H 9990   2.580   8.493  10.443 -0.9741 -0.4221 -0.0872
   75MOL0     O 9991   0.788   6.243   9.876  0.3727  0.4061  0.0990
   75MOL0     C 9992   0.783   6.126   9.837  1.0142 -0.5805  0.7351
   75MOL0     O 9993   0.889   6.060   9.792 -1.0206 -0.7822  0.3622
   75MOL0     C 9994   0.981   6.142   9.733 -0.2932 -0.1129  0.5487
   75MOL0     C 9995   0.956   6.203   9.608  0.8632 -0.0491 -0.8619
   75MOL0     C 9996   1.056   6.269   9.549 -0.8324  0.2854  1.0379
   75MOL0     C 9997   1.187   6.293   9.601 -0.2176  0.4491 -0.1972
   75MOL0     O 9998   1.290   6.362   9.527  0.8038  0.2856 -0.1500
   75MOL0     C 9999   1.361   6.463   9.605 -0.2620  0.0207 -0.2101
   75MOL0     C10000   1.498   6.425   9.626  0.2752  0.0340 -0.4067
   75MOL0     C10001   1.569   6.519   9.729 -0.2036  0.5121  0.3440
   75MOL0     C10002   1.609   6.656   9.668 -0.2282  0.1738  0.7511
   75MOL0     C10003   1.658   6.742   9.787  0.2824 -0.8258  0.4169
   75MOL0     C10004   1.720   6.866   9.727 -0.4177  0.4671 -0.0276
   75MOL0     C10005   1.753   6.964   9.839 -0.2744  0.0103  0.4353
   75MOL0     C10006   1.800   7.101   9.801 -0.7735 -0.8093  0.5766
   75MOL0     N10007   1.918   7.146   9.867  0.3181  0.7796 -0.7632
   75MOL0     C10008   1.914   7.231   9.982  0.0428 -0.1622 -0.5410
   75MOL0     C10009   2.044   7.227  10.026 -0.1897 -0.5416  0.2373
   75MOL0     C10010   2.101   7.299  10.146  0.0531 -0.2772 -0.4350
   75MOL0     C10011   2.148   7.431  10.099 -0.9319 -0.3861 -0.1302
   75MOL0     C10012   2.049   7.537  10.122 -0.2853 -1.4366  0.0130
   75MOL0     C10013   2.107   7.681  10.107  0.2631  0.0909  0.3446
   75MOL0     O10014   2.017   7.791  10.083  0.0075  0.0215  0.2256
   75MOL0     C10015   1.956   7.841  10.194 -0.4127 -0.0068  0.7765
   75MOL0     C10016   1.963   7.790  10.323  0.2155  0.2541 -0.9221
   75MOL0     C10017   1.898   7.858  10.429  0.8945  0.1769  1.0017
   75MOL0     C10018   1.844   7.985  10.404 -0.5970  0.8653 -0.4240
   75MOL0     C10019   1.788   8.053  10.520 -0.2800 -0.1054  0.2025
   75MOL0     O10020   1.709   8.160  10.485 -0.2023  1.1349 -0.6933
   75MOL0     C10021   1.669   8.236  10.591  0.6383  0.0411  0.5663
   75MOL0     C10022   1.722   8.358  10.621  0.4900 -0.0276  0.1374
   75MOL0     C10023   1.683   8.438  10.727  0.2833  0.0526  1.2671
   75MOL0     C10024   1.583   8.390  10.809 -0.7084 -1.0861 -0.6304
   75MOL0     O10025   1.536   8.448  10.924 -0.4254 -0.1245 -0.0487
   75MOL0     C10026   1.515   8.589  10.912 -0.2097 -0.6065  0.2318
   75MOL0     C10027   1.375   8.623  10.963 -0.7691 -0.5898  0.0254
   75MOL0     C10028   1.268   8.591  10.846  0.3920  0.7963  0.5617
   75MOL0     C10029   1.138   8.657  10.889  0.2046 -0.5640  0.2304
   75MOL0     C10030   1.063   8.599  11.004  0.2142  0.9389 -0.3353
   75MOL0     C10031   0.919   8.653  11.015  0.7007 -0.9561  0.5735
   75MOL0     C10032   0.850   8.595  11.140  0.4404  0.5122  0.3740
   75MOL0     C10033   0.697   8.601  11.125  0.1706 -0.1959  0.5237
   75MOL0    Cl10034   0.649   8.777  11.111 -0.0736  0.0078  0.0080
   75MOL0     C10035   1.528   8.260  10.795 -0.0219 -0.2074 -0.9853
   75MOL0     C10036   1.569   8.179  10.686 -0.5449  0.4869 -0.1635
   75MOL0     O10037   1.806   8.017  10.637 -0.5036  0.7467 -0.4191
   75MOL0     C10038   1.848   8.039  10.275 -0.8187  1.4886  0.2068
   75MOL0     C10039   1.901   7.964  10.165  0.1408  0.1197 -0.0310
   75MOL0     N10040   2.115   7.151   9.930  0.0519  0.2679  0.2139
   75MOL0     N10041   2.042   7.104   9.833 -0.1768 -0.4734 -0.0272
   75MOL0     C10042   1.215   6.224   9.720  0.5233  0.4165  0.7483
   75MOL0     C10043   1.109   6.156   9.784  0.7137 -0.6712  0.4357
   75MOL0     C10044   0.660   6.050   9.857  1.7392 -0.9591 -0.6431
   75MOL0     C10045   0.558   6.124   9.932  0.1760  0.3477 -0.5926
   75MOL0     C10046   0.440   6.053   9.964 -0.0636 -0.1090  0.5399
   75MOL0     C10047   0.413   5.921   9.926  1.3649 -0.5116  0.5849
   75MOL0     O10048   0.294   5.853   9.956  0.3502 -0.1142  0.1050
   75MOL0     C10049   0.210   5.914  10.065 -0.3270  0.2602  1.2447
   75MOL0     C10050   0.077   5.843  10.092 -0.6564  0.3341 -0.5922
   75MOL0     C10051   0.006   5.884  10.219 -0.3640 -0.3842  0.0945
   75MOL0     C10052  -0.122   5.800  10.237  0.6022 -1.2928  0.0445
   75MOL0     C10053  -0.095   5.652  10.259 -0.3302  0.2854 -0.8185
   75MOL0     C10054  -0.065   5.538  10.268  0.1766 -0.0507  1.4627
   75MOL0     C10055   0.512   5.858   9.848 -0.2328  1.0344 -0.4666
   75MOL0     C10056   0.633   5.923   9.806 -1.1228  0.2234  0.0171
   75MOL0     C10057   0.740   5.826   9.739  0.7144 -0.1705 -0.7520
   75MOL0     H10058   0.855   6.194   9.570  1.8331 -2.2326 -3.2336
   75MOL0     H10059   1.023   6.327   9.464 -1.6785 -1.2165  0.3088
   75MOL0     H10060   1.373   6.555   9.547 -0.3513  0.7176  0.8280
   75MOL0     H10061   1.326   6.485   9.707 -0.8314 -2.2250  0.1183
   75MOL0     H10062   1.558   6.403   9.537  1.7885 -2.5421  1.1312
   75MOL0     H10063   1.501   6.326   9.673 -3.1098  1.0904  2.4575
   75MOL0     H10064   1.656   6.457   9.754  0.3722  0.0468 -2.4578
   75MOL0     H10065   1.517   6.534   9.823  1.1467  0.5399  1.1125
   75MOL0     H10066   1.689   6.651   9.594  1.2083  0.7846  2.1958
   75MOL0     H10067   1.522   6.714   9.634  1.0889  3.5747  2.7422
   75MOL0     H10068   1.564   6.775   9.832  0.2424  1.7914 -1.3568
   75MOL0     H10069   1.734   6.689   9.845  4.1142 -0.5879 -3.8174
   75MOL0     H10070   1.807   6.838   9.666  0.0318 -1.0327  1.2299
   75MOL0     H10071   1.651   6.916   9.659  0.9955  1.1675 -1.0177
   75MOL0     H10072   1.822   6.916   9.909 -1.1787 -0.1942  1.2103
   75MOL0     H10073   1.658   6.976   9.891 -1.7968  0.1492 -2.1893
   75MOL0     H10074   1.821   7.121   9.695  0.8085  4.1151  1.5435
   75MOL0     H10075   1.723   7.176   9.820  0.6002  1.1629 -1.1699
   75MOL0     H10076   1.838   7.297  10.021  2.7578  3.0749 -0.2584
   75MOL0     H10077   2.029   7.308  10.227  0.5819  0.0666  0.0034
   75MOL0     H10078   2.176   7.228  10.182 -1.3428 -1.2704  0.6188
   75MOL0     H10079   2.224   7.457  10.173 -0.7666  0.6022 -0.6248
   75MOL0     H10080   2.200   7.434  10.003  2.9168  1.0085  1.7733
   75MOL0     H10081   2.016   7.526  10.225 -0.0600 -1.2637  0.1047
   75MOL0     H10082   1.963   7.518  10.057  1.7110 -2.6639 -2.4558
   75MOL0     H10083   2.183   7.677  10.028  1.8549 -0.5761  1.8283
   75MOL0     H10084   2.173   7.698  10.193  0.9764 -2.5237  0.4128
   75MOL0     H10085   2.023   7.703  10.346  1.7355  1.3135 -0.7200
   75MOL0     H10086   1.886   7.814  10.527  0.4412  0.3686  1.0342
   75MOL0     H10087   1.789   8.398  10.546  0.6041  0.4385  0.4792
   75MOL0     H10088   1.736   8.531  10.748  0.1711  0.4137  0.0252
   75MOL0     H10089   1.589   8.634  10.979 -0.4715  0.1420  0.0257
   75MOL0     H10090   1.531   8.629  10.812  0.3423  1.7406  1.2046
   75MOL0     H10091   1.341   8.590  11.062 -3.1851  0.1059 -0.5028
   75MOL0     H10092   1.378   8.732  10.965 -0.0708 -0.4323 -3.5380
   75MOL0     H10093   1.317   8.622  10.753  2.4445  1.5010  1.8079
   75MOL0     H10094   1.246   8.484  10.853 -0.5070  1.0426  1.9441
   75MOL0     H10095   1.069   8.652  10.805  0.8241 -1.1763 -0.2449
   75MOL0     H10096   1.160   8.763  10.903  0.6026 -0.4958 -0.8648
   75MOL0     H10097   1.122   8.610  11.095 -1.4019  0.4690  0.8130
   75MOL0     H10098   1.061   8.492  10.980 -0.8850  0.9535 -0.3518
   75MOL0     H10099   0.932   8.761  11.019  1.7209 -1.0890  1.1301
   75MOL0     H10100   0.865   8.622  10.925 -2.4658 -0.3056  2.1086
   75MOL0     H10101   0.881   8.655  11.226 -1.1139  0.5605  0.9230
   75MOL0     H10102   0.883   8.491  11.151 -2.6397 -0.6341 -0.3077
   75MOL0     H10103   0.668   8.541  11.038 -1.7606 -4.1341  3.5707
   75MOL0     H10104   0.640   8.551  11.203 -1.3350 -2.1805 -1.7040
   75MOL0     H10105   1.460   8.223  10.870 -3.3687  1.6427 -2.8853
   75MOL0     H10106   1.517   8.084  10.686  2.2382 -1.1582 -1.6077
   75MOL0     H10107   1.804   8.138  10.267  2.7629  3.3095  0.9597
   75MOL0     H10108   1.902   8.004  10.064  0.0308 -0.1285 -0.1308
   75MOL0     H10109   1.318   6.234   9.753  0.7879  2.6257 -0.5457
   75MOL0     H10110   1.119   6.120   9.886 -0.9337 -0.8134  0.5822
   75MOL0     H10111   0.560   6.229   9.960 -1.5552  0.5290 -1.0269
   75MOL0     H10112   0.364   6.101  10.025  1.5056  1.6019  1.2699
   75MOL0     H10113   0.179   6.013  10.030 -0.8718 -0.0622  0.7726
   75MOL0     H10114   0.266   5.921  10.158 -3.3853 -3.6193  3.6825
   75MOL0     H10115   0.102   5.738  10.106  1.2007  0.8631  0.3537
   75MOL0     H10116   0.002   5.858  10.014 -2.3474  0.7352  1.0254
   75MOL0     H10117  -0.023   5.989  10.217 -3.3681 -1.1119 -1.8525
   75MOL0     H10118   0.075   5.873  10.303  0.8921 -0.9873 -0.9729
   75MOL0     H10119  -0.173   5.841  10.325  0.0525  0.2579 -0.9602
   75MOL0     H10120  -0.196   5.817  10.158  0.9428 -1.2906 -0.2740
   75MOL0     H10121  -0.009   5.448  10.284  0.4936  0.0242  0.8158
   75MOL0     H10122   0.501   5.753   9.825 -1.2272  0.9571  0.3189
   75MOL0     H10123   0.689   5.730   9.728  0.8245 -0.5536  1.5377
   75MOL0     H10124   0.764   5.859   9.638  0.1162  1.6816 -0.3286
   75MOL0     H10125   0.826   5.825   9.807  0.9664  0.0059 -1.0696
   76MOL0     O10126   0.258   9.664   4.989 -0.3213  1.0333  0.6490
   76MOL0     C10127   0.331   9.717   5.070 -0.4258 -0.1901 -0.7621
   76MOL0     O10128   0.302   9.759   5.197 -0.2716  0.3119  0.2787
   76MOL0     C10129   0.171   9.783   5.215  0.5007 -0.0349 -0.2446
   76MOL0     C10130   0.094   9.670   5.243 -0.9523 -0.3274  0.6034
   76MOL0     C10131  -0.040   9.688   5.274 -0.4730  0.2817  0.3723
   76MOL0     C10132  -0.104   9.811   5.267  0.6471 -0.8735 -0.6630
   76MOL0     O10133  -0.235   9.820   5.299 -0.2804  0.2862  0.3523
   76MOL0     C10134  -0.318   9.925   5.246 -0.0355 -0.1315  0.0199
   76MOL0     C10135  -0.458   9.938   5.311 -0.4805 -0.7450 -0.2387
   76MOL0     C10136  -0.435   9.956   5.471  0.2103 -0.5953  0.7666
   76MOL0     C10137  -0.450   9.831   5.547 -0.2189  0.1766  0.6725
   76MOL0     C10138  -0.421   9.834   5.700 -0.4592  0.2996 -1.0942
   76MOL0     C10139  -0.520   9.907   5.790  0.5979 -0.1363  0.9566
   76MOL0     C10140  -0.515   9.870   5.936 -0.6906 -0.1568 -0.2444
   76MOL0     C10141  -0.550   9.723   5.971 -0.5351 -0.2247  1.1009
   76MOL0     N10142  -0.686   9.691   5.922  1.3807 -0.5443 -1.2071
   76MOL0     C10143  -0.733   9.664   5.795  0.9456 -0.4537 -1.0682
   76MOL0     C10144  -0.861   9.670   5.798  0.4817 -1.5214  0.1902
   76MOL0     C10145  -0.961   9.646   5.687 -0.6320  0.3744 -0.2914
   76MOL0     C10146  -1.029   9.508   5.697  0.1761  0.2150 -0.2427
   76MOL0     C10147  -1.069   9.449   5.551 -0.5943  0.5565 -0.0659
   76MOL0     C10148  -1.086   9.294   5.554 -0.1665 -0.3561 -0.7183
   76MOL0     O10149  -1.188   9.265   5.652  0.4122 -0.2882 -0.2841
   76MOL0     C10150  -1.288   9.175   5.640 -0.0964 -0.3563  0.2438
   76MOL0     C10151  -1.414   9.194   5.697  0.3048  0.1770  0.5997
   76MOL0     C10152  -1.505   9.088   5.702  0.7526  0.1222  0.0700
   76MOL0     C10153  -1.480   8.969   5.636 -0.5591  0.0234  0.7685
   76MOL0     C10154  -1.576   8.860   5.637  0.9095 -0.4385 -0.7797
   76MOL0     O10155  -1.706   8.890   5.682  0.3984 -0.0314 -0.1281
   76MOL0     C10156  -1.802   8.792   5.692  0.6894  0.0424  0.0903
   76MOL0     C10157  -1.857   8.759   5.823  0.3482 -1.0688  0.0448
   76MOL0     C10158  -1.967   8.670   5.828  0.0828  0.3121  0.0919
   76MOL0     C10159  -2.015   8.605   5.711  0.1649 -0.4260  0.4410
   76MOL0     O10160  -2.119   8.517   5.733 -0.5379 -0.0172 -0.4655
   76MOL0     C10161  -2.164   8.446   5.620  0.0270 -0.0406  0.7468
   76MOL0     C10162  -2.260   8.345   5.681 -0.0325 -0.7332 -0.2703
   76MOL0     C10163  -2.395   8.400   5.728 -0.9018  0.5909  0.9020
   76MOL0     C10164  -2.506   8.292   5.740 -0.3450 -0.0721 -0.6864
   76MOL0     C10165  -2.641   8.352   5.752 -0.0779  0.2528 -0.2135
   76MOL0     C10166  -2.658   8.462   5.853  0.1498 -0.3060 -0.4443
   76MOL0     C10167  -2.782   8.545   5.832  0.3403 -0.0163  0.3727
   76MOL0     C10168  -2.801   8.644   5.941 -0.2777  0.3774  0.5946
   76MOL0    Cl10169  -2.858   8.808   5.894 -0.0839 -0.1983 -0.6088
   76MOL0     C10170  -1.978   8.646   5.590  0.4017  0.0999  1.2839
   76MOL0     C10171  -1.871   8.741   5.582 -0.5444 -0.4618  0.2901
   76MOL0     O10172  -1.542   8.754   5.595  0.1546 -0.2434  0.3759
   76MOL0     C10173  -1.348   8.953   5.573  0.0335 -0.6999 -0.4433
   76MOL0     C10174  -1.250   9.056   5.576 -0.1550  0.8793  0.3001
   76MOL0     N10175  -0.900   9.690   5.931 -0.0805  0.1673 -1.2123
   76MOL0     N10176  -0.790   9.706   6.001  0.3858 -1.0213 -0.4413
   76MOL0     C10177  -0.027   9.920   5.243 -0.4697  0.2793 -0.1090
   76MOL0     C10178   0.111   9.910   5.217  0.2101 -0.2541 -1.4594
   76MOL0     C10179   0.477   9.743   5.025  0.3192 -0.2613  0.9589
   76MOL0     C10180   0.530   9.661   4.923  0.8103  0.3114  0.4841
   76MOL0     C10181   0.657   9.684   4.870 -0.1693  0.0058  0.2730
   76MOL0     C10182   0.736   9.782   4.916 -0.1640  0.5954 -1.0187
   76MOL0     O10183   0.856   9.792   4.857  1.0458 -0.4627  0.7501
   76MOL0     C10184   0.944   9.896   4.909  0.0733 -0.8626  0.7400
   76MOL0     C10185   1.083   9.903   4.836  0.1179 -0.4379 -0.1837
   76MOL0     C10186   1.067   9.908   4.677 -0.3983 -1.1776 -0.3139
   76MOL0     C10187   1.172   9.994   4.608  0.3367  1.1103  0.1417
   76MOL0     C10188   1.290   9.909   4.572 -0.4096 -0.9062  0.4378
   76MOL0     C10189   1.395   9.847   4.544  0.5291 -0.1466  0.0037
   76MOL0     C10190   0.694   9.864   5.025  0.5383 -0.0279  0.1123
   76MOL0     C10191   0.568   9.844   5.080 -0.5728  0.6440  0.3971
   76MOL0     C10192   0.525   9.951   5.178  0.4205  0.1680 -0.4066
   76MOL0     H10193   0.146   9.576   5.225 -0.2640  0.4660 -2.1730
   76MOL0     H10194  -0.094   9.596   5.291  1.8053 -0.5903  4.1133
   76MOL0     H10195  -0.281  10.025   5.270 -2.3619  0.7870  0.0651
   76MOL0     H10196  -0.316   9.907   5.138 -0.9765  0.5556 -0.1244
   76MOL0     H10197  -0.516   9.850   5.280 -0.7245 -0.1159 -1.6630
   76MOL0     H10198  -0.518  10.025   5.280  0.9210  1.0782  1.8365
   76MOL0     H10199  -0.503  10.033   5.509  2.8951  2.6619 -0.5370
   76MOL0     H10200  -0.339  10.007   5.484 -0.6681  2.9257 -4.0085
   76MOL0     H10201  -0.558   9.816   5.548 -0.3530  1.1156  1.2939
   76MOL0     H10202  -0.398   9.751   5.494 -0.8501  0.4871 -0.4320
   76MOL0     H10203  -0.422   9.727   5.721 -1.8275  0.0546 -2.2233
   76MOL0     H10204  -0.324   9.879   5.723 -0.9601  1.4983 -1.2389
   76MOL0     H10205  -0.510  10.015   5.780 -1.1538  0.2035  2.3653
   76MOL0     H10206  -0.619   9.877   5.754  1.1905 -1.1503  0.1117
   76MOL0     H10207  -0.579   9.933   5.999  1.9949  1.9619  0.5282
   76MOL0     H10208  -0.418   9.890   5.982 -0.4820 -0.8689 -0.3588
   76MOL0     H10209  -0.480   9.655   5.922 -1.8970 -2.2248  1.7968
   76MOL0     H10210  -0.543   9.703   6.079  0.5531 -1.7694  0.7689
   76MOL0     H10211  -0.685   9.647   5.699  0.5606 -1.0245 -1.1661
   76MOL0     H10212  -1.042   9.719   5.688 -3.5540 -2.5945  0.0715
   76MOL0     H10213  -0.918   9.658   5.587  2.9847  1.4684  1.2530
   76MOL0     H10214  -0.965   9.442   5.756 -0.0609  0.3574  0.1842
   76MOL0     H10215  -1.116   9.518   5.763  1.9863 -0.4340  2.4104
   76MOL0     H10216  -0.994   9.470   5.474 -0.9321  0.6094 -0.3818
   76MOL0     H10217  -1.156   9.503   5.514  0.8781  2.0405 -1.5522
   76MOL0     H10218  -0.992   9.249   5.586  0.6833 -0.3232 -2.9390
   76MOL0     H10219  -1.126   9.241   5.466 -2.4636 -0.4791  0.3252
   76MOL0     H10220  -1.452   9.282   5.747  1.5531  2.8700 -2.7904
   76MOL0     H10221  -1.601   9.094   5.750  0.8507  1.5473  0.1312
   76MOL0     H10222  -1.817   8.802   5.914 -0.7756  2.1144 -0.8359
   76MOL0     H10223  -1.993   8.650   5.931  1.2742  3.2067  1.0849
   76MOL0     H10224  -2.218   8.505   5.545  0.2025 -0.2559  0.4424
   76MOL0     H10225  -2.079   8.400   5.569 -0.7180 -1.7583  0.9812
   76MOL0     H10226  -2.275   8.257   5.618  0.4214 -1.1701  0.2176
   76MOL0     H10227  -2.212   8.296   5.766  0.0787  0.6646  0.4930
   76MOL0     H10228  -2.382   8.442   5.828 -2.2654  0.1591  1.2957
   76MOL0     H10229  -2.421   8.473   5.650 -1.8518  0.4374  1.0607
   76MOL0     H10230  -2.484   8.231   5.828 -0.8116 -0.7781 -1.0582
   76MOL0     H10231  -2.507   8.236   5.646 -1.1838  1.6286 -1.7525
   76MOL0     H10232  -2.716   8.272   5.753 -1.0104  1.0874 -1.1480
   76MOL0     H10233  -2.646   8.393   5.651 -0.5699  0.0068 -0.2962
   76MOL0     H10234  -2.670   8.422   5.954 -0.1678 -5.2381 -2.1758
   76MOL0     H10235  -2.577   8.534   5.855 -2.1390  2.6465 -3.0494
   76MOL0     H10236  -2.875   8.488   5.818 -0.2513  1.0991 -0.4613
   76MOL0     H10237  -2.773   8.590   5.732  1.6179 -0.0968  0.4404
   76MOL0     H10238  -2.868   8.599   6.015  1.2185 -3.7478 -0.2803
   76MOL0     H10239  -2.702   8.657   5.986 -0.0459  3.4606 -0.5448
   76MOL0     H10240  -2.030   8.617   5.499  0.0315 -1.6227  2.0068
   76MOL0     H10241  -1.830   8.766   5.485 -1.5982 -1.6520 -0.4974
   76MOL0     H10242  -1.325   8.855   5.534  2.8131 -1.3623  2.4880
   76MOL0     H10243  -1.153   9.039   5.530 -1.3138  1.5619 -2.6170
   76MOL0     H10244  -0.082  10.013   5.248 -3.5362 -1.3177 -1.3752
   76MOL0     H10245   0.170  10.001   5.213 -1.2306  0.7838 -0.4500
   76MOL0     H10246   0.470   9.587   4.871  0.5155  0.1890  0.9914
   76MOL0     H10247   0.693   9.620   4.790  0.1514 -1.5151  1.5807
   76MOL0     H10248   0.980   9.886   5.012  3.1237  2.4997  0.2008
   76MOL0     H10249   0.894   9.993   4.901  2.1988  0.1685 -1.5507
   76MOL0     H10250   1.160   9.829   4.861  0.6676  0.0719 -0.3580
   76MOL0     H10251   1.120   9.996   4.879 -1.5057  0.0299  0.2925
   76MOL0     H10252   0.972   9.958   4.652  1.4445  2.7254 -0.2301
   76MOL0     H10253   1.052   9.806   4.640 -0.1951  0.0075 -4.0399
   76MOL0     H10254   1.138  10.047   4.518  1.2223 -0.7974 -1.3977
   76MOL0     H10255   1.203  10.070   4.680  0.6395  1.5413 -0.4384
   76MOL0     H10256   1.489   9.799   4.526  2.5082  3.0012  1.2186
   76MOL0     H10257   0.752   9.947   5.064 -0.1110  1.7307 -2.3999
   76MOL0     H10258   0.466   9.904   5.257 -2.4529 -3.9430 -4.4823
   76MOL0     H10259   0.623   9.975   5.219  2.6020 -2.4035 -3.5927
   76MOL0     H10260   0.485  10.038   5.125  2.5075 -0.5314 -3.4043
   77MOL0     O10261   2.655   5.514   0.483  0.3567 -0.9688  0.6580
   77MOL0     C10262   2.726   5.541   0.579 -0.2129 -0.4131 -0.6570
   77MOL0     O10263   2.696   5.627   0.675 -0.1155  0.0367 -0.6688
   77MOL0     C10264   2.581   5.709   0.674  0.6026  1.0380  0.1785
   77MOL0     C10265   2.599   5.840   0.641  1.3075  0.4774 -0.0426
   77MOL0     C10266   2.493   5.932   0.641  0.0144  0.2426  0.0514
   77MOL0     C10267   2.365   5.887   0.670  0.1707 -0.0480  0.4818
   77MOL0     O10268   2.251   5.958   0.663  0.0803  0.2563  0.1279
   77MOL0     C10269   2.255   6.096   0.619 -0.9229  0.5177 -0.6002
   77MOL0     C10270   2.105   6.151   0.630  0.9289 -0.5324  0.1451
   77MOL0     C10271   2.097   6.309   0.640  0.4603  0.1689  0.1353
   77MOL0     C10272   1.964   6.371   0.687 -0.2443 -0.5551  0.2341
   77MOL0     C10273   1.955   6.523   0.698 -0.5594  0.5378 -0.3295
   77MOL0     C10274   1.826   6.558   0.749 -0.1208 -0.1683  0.1646
   77MOL0     C10275   1.813   6.701   0.785 -0.1261  0.0044 -0.8419
   77MOL0     C10276   1.680   6.757   0.766  0.6661  0.8837 -0.6458
   77MOL0     N10277   1.578   6.724   0.867 -0.6937 -0.5240 -0.0965
   77MOL0     C10278   1.532   6.799   0.977 -0.2871 -0.4966 -0.1048
   77MOL0     C10279   1.450   6.715   1.039 -0.1886  0.3043  0.0006
   77MOL0     C10280   1.364   6.748   1.157  0.7991  0.1966 -0.9187
   77MOL0     C10281   1.390   6.651   1.270 -0.0580  0.0994 -0.0396
   77MOL0     C10282   1.330   6.706   1.402  0.1968  0.3509  0.8221
   77MOL0     C10283   1.387   6.617   1.510 -0.1278  0.5243 -0.5085
   77MOL0     O10284   1.346   6.687   1.623  0.6770  0.4861 -1.0622
   77MOL0     C10285   1.383   6.643   1.746 -0.1210  0.2783 -0.9686
   77MOL0     C10286   1.437   6.514   1.774  0.7925  0.8612 -0.2685
   77MOL0     C10287   1.456   6.468   1.906 -0.6422  0.4473 -0.5220
   77MOL0     C10288   1.427   6.560   2.011 -0.2420 -0.5156 -0.3966
   77MOL0     C10289   1.440   6.529   2.160  0.0258  0.5896 -0.2880
   77MOL0     O10290   1.488   6.403   2.179 -0.2121  0.1658  0.0725
   77MOL0     C10291   1.538   6.376   2.303 -0.9563  0.3428  0.0683
   77MOL0     C10292   1.463   6.365   2.422 -0.3730  0.1085 -0.4069
   77MOL0     C10293   1.525   6.327   2.540 -0.8703 -0.3233 -0.2179
   77MOL0     C10294   1.657   6.294   2.540 -0.2911  0.7856 -0.5799
   77MOL0     O10295   1.724   6.271   2.657  0.2970  0.4046 -0.1601
   77MOL0     C10296   1.647   6.237   2.770  0.1811  0.7762  0.7618
   77MOL0     C10297   1.749   6.174   2.874 -0.0523 -1.5794 -0.0052
   77MOL0     C10298   1.676   6.124   2.997  0.5752  0.3607  0.4622
   77MOL0     C10299   1.770   6.075   3.106  0.2726  0.5539 -0.7689
   77MOL0     C10300   1.689   6.001   3.214 -0.1926 -0.4176 -1.2432
   77MOL0     C10301   1.780   5.951   3.324 -0.1445  0.0648 -0.9170
   77MOL0     C10302   1.821   6.051   3.431 -0.4254 -0.2989  0.2731
   77MOL0     C10303   1.825   6.004   3.574 -0.2658  0.4614 -0.4471
   77MOL0    Cl10304   1.876   6.131   3.680  0.2247  0.2433 -0.5479
   77MOL0     C10305   1.733   6.303   2.425 -0.4484  0.6695  0.3285
   77MOL0     C10306   1.678   6.340   2.309  0.1065 -0.5348  0.1684
   77MOL0     O10307   1.394   6.604   2.242  0.0200  0.5715  0.0233
   77MOL0     C10308   1.382   6.686   1.973 -0.0448  1.1299 -0.3364
   77MOL0     C10309   1.357   6.726   1.851 -0.0815 -0.2143  0.1474
   77MOL0     N10310   1.436   6.601   0.967  0.2881  0.2169 -0.8381
   77MOL0     N10311   1.505   6.614   0.862  0.0965  0.3074 -1.0102
   77MOL0     C10312   2.349   5.757   0.714 -0.7801 -0.2381  0.0047
   77MOL0     C10313   2.457   5.668   0.714 -0.2912  0.1085 -0.5242
   77MOL0     C10314   2.852   5.479   0.596 -0.6954 -0.1821  0.4288
   77MOL0     C10315   2.882   5.438   0.723 -0.6250  0.7770 -0.1051
   77MOL0     C10316   3.008   5.386   0.752 -0.5398 -0.1065  0.0028
   77MOL0     C10317   3.104   5.368   0.660 -0.0894  0.6251 -0.2558
   77MOL0     O10318   3.227   5.316   0.682 -0.3039 -0.2067  0.8673
   77MOL0     C10319   3.253   5.262   0.810  0.2230 -0.8574  0.2500
   77MOL0     C10320   3.399   5.208   0.815 -0.0004 -0.3104  0.9617
   77MOL0     C10321   3.445   5.117   0.927  0.0915  0.6013 -0.7595
   77MOL0     C10322   3.593   5.082   0.918 -0.1040  0.1696 -0.9390
   77MOL0     C10323   3.612   4.981   0.809  0.0503 -0.6720 -0.4302
   77MOL0     C10324   3.633   4.892   0.726 -0.2424 -0.0739 -0.5950
   77MOL0     C10325   3.072   5.397   0.526  1.2796 -0.2160  0.3526
   77MOL0     C10326   2.952   5.455   0.492  0.6235  0.2945 -0.5689
   77MOL0     C10327   2.945   5.517   0.355  0.3773  0.4295 -0.6149
   77MOL0     H10328   2.704   5.866   0.635  1.4651  0.1597  1.1961
   77MOL0     H10329   2.510   6.038   0.623  0.4016  0.2672  0.5295
   77MOL0     H10330   2.328   6.146   0.683 -1.8700 -1.2946  2.0984
   77MOL0     H10331   2.300   6.112   0.520  3.2162  1.0805  1.1500
   77MOL0     H10332   2.058   6.114   0.722  0.2496  3.4809  1.5911
   77MOL0     H10333   2.041   6.122   0.546  0.2162 -1.7556  1.0699
   77MOL0     H10334   2.127   6.355   0.545  0.5064  2.0359  1.0235
   77MOL0     H10335   2.174   6.338   0.711  0.4944 -2.9047  1.5125
   77MOL0     H10336   1.892   6.342   0.609  0.7538  0.7143 -1.2269
   77MOL0     H10337   1.943   6.336   0.788 -0.1657 -2.5642 -0.3912
   77MOL0     H10338   2.053   6.553   0.738 -0.4451  0.9862 -0.9350
   77MOL0     H10339   1.957   6.555   0.593  0.8930  2.4755  0.2373
   77MOL0     H10340   1.759   6.530   0.668 -1.1640  0.7093  0.7041
   77MOL0     H10341   1.811   6.498   0.840  0.9809 -1.6268 -0.5713
   77MOL0     H10342   1.872   6.768   0.722 -3.0550  2.4052 -1.2597
   77MOL0     H10343   1.846   6.724   0.887 -0.7416 -1.5623 -0.2712
   77MOL0     H10344   1.696   6.863   0.744 -0.7765  1.1531 -0.4951
   77MOL0     H10345   1.638   6.701   0.681 -0.0422  0.6695 -0.1710
   77MOL0     H10346   1.544   6.902   1.010  2.3651 -0.5429 -0.6951
   77MOL0     H10347   1.393   6.847   1.193  1.1781 -0.5773  1.0118
   77MOL0     H10348   1.258   6.761   1.135  0.6420 -0.2669 -0.4466
   77MOL0     H10349   1.357   6.551   1.239  1.0975 -0.3612  0.1569
   77MOL0     H10350   1.499   6.641   1.277  0.1957 -2.9339 -4.2425
   77MOL0     H10351   1.221   6.700   1.391  0.4184 -0.9197 -1.4250
   77MOL0     H10352   1.353   6.809   1.428 -1.8573  1.1148 -0.1820
   77MOL0     H10353   1.496   6.625   1.513  0.1853 -1.9269  3.8261
   77MOL0     H10354   1.353   6.513   1.502  1.6451 -0.2782  1.4487
   77MOL0     H10355   1.450   6.433   1.704  0.5912 -2.3289  3.1129
   77MOL0     H10356   1.500   6.373   1.933  2.2132  1.6187 -0.6805
   77MOL0     H10357   1.356   6.384   2.425 -1.3242 -4.1090  0.3859
   77MOL0     H10358   1.454   6.313   2.621  0.4703 -0.8358  0.9003
   77MOL0     H10359   1.610   6.335   2.802 -0.2280  1.2596 -1.0985
   77MOL0     H10360   1.571   6.165   2.739  0.3848  1.5935 -1.8207
   77MOL0     H10361   1.807   6.089   2.835  0.8560 -1.4660  1.0574
   77MOL0     H10362   1.830   6.243   2.898  0.3884 -1.4279 -1.8164
   77MOL0     H10363   1.621   6.211   3.033  2.0373  2.2091 -1.4794
   77MOL0     H10364   1.598   6.057   2.959 -1.0579  2.7557 -0.6792
   77MOL0     H10365   1.804   6.168   3.154 -0.6592  2.0267 -2.8316
   77MOL0     H10366   1.851   6.013   3.065  0.2818  0.5098 -0.6848
   77MOL0     H10367   1.632   5.919   3.169 -2.4592 -0.7984  1.9924
   77MOL0     H10368   1.615   6.065   3.262 -1.3690 -0.7867 -2.5052
   77MOL0     H10369   1.722   5.871   3.371 -0.8069  0.1967 -1.4972
   77MOL0     H10370   1.872   5.910   3.282  0.9460 -1.8793  2.8939
   77MOL0     H10371   1.759   6.141   3.433  0.5702  0.4058  1.8469
   77MOL0     H10372   1.922   6.074   3.397 -0.3401 -0.0887  0.6587
   77MOL0     H10373   1.731   5.973   3.621  0.0637  0.7654  0.4532
   77MOL0     H10374   1.905   5.929   3.576  1.8672  2.5675 -1.1932
   77MOL0     H10375   1.827   6.249   2.426 -2.0950 -2.4637  1.1998
   77MOL0     H10376   1.737   6.359   2.220 -0.5293 -0.9475 -0.3532
   77MOL0     H10377   1.377   6.749   2.062 -0.0189  1.2068 -0.3884
   77MOL0     H10378   1.325   6.829   1.841  1.5607  0.9009  4.3133
   77MOL0     H10379   2.254   5.711   0.738 -0.6836 -0.0718  0.7382
   77MOL0     H10380   2.447   5.563   0.743 -1.6808 -0.1350 -1.7637
   77MOL0     H10381   2.802   5.429   0.795  1.1637 -5.8598  1.7494
   77MOL0     H10382   3.014   5.360   0.857  1.2316  2.0545  0.5015
   77MOL0     H10383   3.184   5.181   0.838 -0.2818 -0.2965  0.6685
   77MOL0     H10384   3.243   5.338   0.889 -1.2744 -1.6904  0.9155
   77MOL0     H10385   3.454   5.303   0.812  1.2282 -0.9931 -1.7369
   77MOL0     H10386   3.408   5.156   0.719 -2.2054 -1.5218  1.3437
   77MOL0     H10387   3.387   5.024   0.928  3.0656 -1.3872 -0.9610
   77MOL0     H10388   3.429   5.163   1.025  0.3940  0.5395 -0.6808
   77MOL0     H10389   3.656   5.169   0.894  0.4052 -0.0066 -0.2790
   77MOL0     H10390   3.639   5.032   1.004  1.0136  1.7016 -0.5969
   77MOL0     H10391   3.658   4.817   0.654  2.5553 -3.1287  3.0857
   77MOL0     H10392   3.136   5.398   0.438 -2.6185 -1.0577 -2.7749
   77MOL0     H10393   2.881   5.607   0.357 -1.8449 -1.0425 -1.5603
   77MOL0     H10394   3.042   5.537   0.309 -0.4439  1.7874 -1.8613
   77MOL0     H10395   2.890   5.439   0.303  1.9725 -2.7275  2.0587
   78MOL0     O10396   2.591   6.433   5.718  0.2729  0.0186 -0.0435
   78MOL0     C10397   2.508   6.434   5.622 -0.3311  0.1822 -0.1566
   78MOL0     O10398   2.480   6.542   5.550 -0.6640  0.4431 -0.7413
   78MOL0     C10399   2.455   6.662   5.610  0.0690 -0.4730  0.8212
   78MOL0     C10400   2.539   6.771   5.606  0.4725 -0.4831  0.8605
   78MOL0     C10401   2.499   6.886   5.664 -1.2328  0.5547  0.5570
   78MOL0     C10402   2.384   6.915   5.719  0.6581  0.4143  0.5346
   78MOL0     O10403   2.377   7.029   5.783  0.1748  0.0961 -0.7163
   78MOL0     C10404   2.244   7.083   5.795 -0.0369  0.1763 -0.3360
   78MOL0     C10405   2.261   7.225   5.847  0.5233 -0.2827 -0.1283
   78MOL0     C10406   2.383   7.305   5.799  0.6993 -0.9119  0.4506
   78MOL0     C10407   2.361   7.345   5.656  0.1650  0.5060 -0.2768
   78MOL0     C10408   2.479   7.432   5.595  0.0597 -0.3944 -0.0334
   78MOL0     C10409   2.616   7.361   5.617  0.0434 -0.1187  0.1348
   78MOL0     C10410   2.719   7.401   5.510 -0.2955  0.5163  0.8741
   78MOL0     C10411   2.861   7.363   5.538  0.2104  0.3472 -0.6413
   78MOL0     N10412   2.953   7.359   5.423 -0.2555 -0.5763 -0.1178
   78MOL0     C10413   2.993   7.467   5.348 -0.4771 -0.6617  0.6785
   78MOL0     C10414   3.090   7.431   5.268  0.5148  0.5124 -0.2423
   78MOL0     C10415   3.167   7.523   5.184  0.2312 -0.0034 -0.3920
   78MOL0     C10416   3.286   7.460   5.123 -0.0559 -0.0832 -0.3148
   78MOL0     C10417   3.366   7.550   5.026  0.0357  0.3204 -0.8574
   78MOL0     C10418   3.487   7.460   4.984  0.1227 -0.0321 -0.9555
   78MOL0     O10419   3.560   7.529   4.881  0.3353 -0.6720  0.0932
   78MOL0     C10420   3.649   7.456   4.800 -0.8055  1.6496 -0.1756
   78MOL0     C10421   3.729   7.519   4.700 -0.1114 -0.7703  0.6233
   78MOL0     C10422   3.812   7.450   4.615  0.1190 -0.7740 -0.1473
   78MOL0     C10423   3.825   7.316   4.626  0.2232 -0.0811 -0.5445
   78MOL0     C10424   3.924   7.252   4.536 -0.7498 -0.3866  0.4417
   78MOL0     O10425   3.930   7.119   4.529  0.1759 -0.5343  0.3306
   78MOL0     C10426   4.008   7.051   4.437  0.7543  0.4278  1.1367
   78MOL0     C10427   4.084   6.952   4.494  0.4010  0.3014  0.2860
   78MOL0     C10428   4.180   6.877   4.422 -0.3684  0.0593  0.2605
   78MOL0     C10429   4.174   6.888   4.280 -0.2339 -0.6941 -0.7656
   78MOL0     O10430   4.251   6.795   4.217  0.1817 -0.2603  0.1188
   78MOL0     C10431   4.196   6.748   4.097 -0.0851  0.0408 -0.3036
   78MOL0     C10432   4.226   6.598   4.085  1.1965 -0.5413 -0.2332
   78MOL0     C10433   4.360   6.541   4.078 -0.7315 -0.4144  0.2223
   78MOL0     C10434   4.434   6.542   4.207  0.0997 -0.6815  0.2808
   78MOL0     C10435   4.554   6.441   4.216  0.4010  0.1780  0.3214
   78MOL0     C10436   4.642   6.454   4.343  0.4988  0.2189  0.3362
   78MOL0     C10437   4.711   6.593   4.360 -0.2495  0.3406  0.0332
   78MOL0     C10438   4.677   6.655   4.503 -0.1984 -0.3973  0.6398
   78MOL0    Cl10439   4.509   6.733   4.502  0.3837  0.2895 -0.6512
   78MOL0     C10440   4.102   6.993   4.222  0.0816 -0.2488  0.0172
   78MOL0     C10441   4.020   7.078   4.301 -0.0971 -0.0011  0.1966
   78MOL0     O10442   3.992   7.321   4.460 -0.6563 -0.2708 -0.2693
   78MOL0     C10443   3.750   7.243   4.726  0.1839  1.0208  0.3367
   78MOL0     C10444   3.668   7.313   4.816  0.8431 -0.2864 -0.1946
   78MOL0     N10445   3.097   7.289   5.281  0.0915 -0.4865 -0.3777
   78MOL0     N10446   3.018   7.254   5.373 -0.3571 -0.8210 -0.1294
   78MOL0     C10447   2.288   6.803   5.726  0.4507 -1.4150 -0.0222
   78MOL0     C10448   2.327   6.676   5.681 -0.1579 -1.0638 -0.3321
   78MOL0     C10449   2.443   6.300   5.607 -0.3902  0.2419  0.4467
   78MOL0     C10450   2.315   6.304   5.546 -0.8399 -0.1292  1.2198
   78MOL0     C10451   2.234   6.194   5.524 -0.4559 -1.2266  0.0202
   78MOL0     C10452   2.281   6.075   5.580 -0.3322 -0.3015 -0.1907
   78MOL0     O10453   2.211   5.954   5.584  0.2418  0.0138 -0.0374
   78MOL0     C10454   2.078   5.950   5.535 -0.4295 -0.0230 -0.7741
   78MOL0     C10455   2.077   5.930   5.381 -0.3938  0.0346  0.1031
   78MOL0     C10456   2.182   5.832   5.345 -0.1189  0.0591  0.3313
   78MOL0     C10457   2.167   5.795   5.197 -0.5581 -0.2269  0.6993
   78MOL0     C10458   2.271   5.711   5.141 -1.4386  0.3982 -0.0226
   78MOL0     C10459   2.370   5.637   5.109  0.9982 -0.3919 -0.6962
   78MOL0     C10460   2.411   6.068   5.632  0.7160 -0.1640  0.0964
   78MOL0     C10461   2.494   6.175   5.643 -0.8659 -0.1330 -0.4743
   78MOL0     C10462   2.635   6.159   5.707 -0.3620  0.5260  0.0214
   78MOL0     H10463   2.641   6.757   5.572 -0.3238 -3.0542 -0.7211
   78MOL0     H10464   2.580   6.957   5.681  2.7481 -2.6491 -3.0329
   78MOL0     H10465   2.191   7.077   5.699 -0.4114 -1.5312 -0.0597
   78MOL0     H10466   2.191   7.015   5.863  1.9750 -0.2975  0.8578
   78MOL0     H10467   2.271   7.228   5.956 -0.8143 -2.3046  0.1110
   78MOL0     H10468   2.168   7.274   5.819  0.5037  0.0641  0.5127
   78MOL0     H10469   2.476   7.247   5.799  1.3524  0.0819 -1.1852
   78MOL0     H10470   2.413   7.393   5.857 -0.5095  0.0866 -0.3889
   78MOL0     H10471   2.340   7.265   5.585 -6.1895  2.4603 -1.1782
   78MOL0     H10472   2.266   7.400   5.655  0.4602  1.0208 -0.7947
   78MOL0     H10473   2.462   7.441   5.488  2.3536 -0.7338 -0.4785
   78MOL0     H10474   2.472   7.534   5.635 -1.2286  0.6191 -2.6558
   78MOL0     H10475   2.647   7.377   5.720 -1.0612  1.7528  0.2363
   78MOL0     H10476   2.610   7.255   5.593  3.3319  0.0933 -2.2923
   78MOL0     H10477   2.713   7.506   5.480 -2.4742  0.4890  1.0683
   78MOL0     H10478   2.684   7.340   5.426 -2.6047 -0.1514  2.2515
   78MOL0     H10479   2.898   7.433   5.613  0.4739  1.0832 -1.4491
   78MOL0     H10480   2.864   7.267   5.591  2.2291 -0.2720 -1.7645
   78MOL0     H10481   2.964   7.570   5.369 -0.1913 -0.4192 -0.0537
   78MOL0     H10482   3.106   7.555   5.100  0.7850 -1.7908 -1.5294
   78MOL0     H10483   3.196   7.604   5.252  2.4609 -1.7197  0.8628
   78MOL0     H10484   3.360   7.433   5.199  0.2491  3.0326  0.6458
   78MOL0     H10485   3.255   7.371   5.069  0.6072  0.4155 -1.5758
   78MOL0     H10486   3.388   7.649   5.066 -0.9636 -0.4499  1.8790
   78MOL0     H10487   3.304   7.577   4.941  1.7890  1.1495 -1.9092
   78MOL0     H10488   3.455   7.360   4.955  1.0833 -0.5250 -0.3486
   78MOL0     H10489   3.559   7.461   5.066  1.1281  1.2793 -1.8067
   78MOL0     H10490   3.716   7.626   4.685  0.6630 -0.9895 -2.0072
   78MOL0     H10491   3.872   7.521   4.559 -0.5839 -0.2687 -0.2746
   78MOL0     H10492   4.077   6.939   4.602 -3.1772  1.0342  0.2384
   78MOL0     H10493   4.241   6.806   4.478 -1.1064  0.9595  2.2951
   78MOL0     H10494   4.088   6.765   4.091  0.0578  1.0372 -0.3561
   78MOL0     H10495   4.240   6.796   4.009 -1.9292  0.8907 -0.8001
   78MOL0     H10496   4.160   6.559   4.163 -0.6595  2.4519 -0.1508
   78MOL0     H10497   4.170   6.560   4.000 -0.8522 -1.6563  1.5071
   78MOL0     H10498   4.360   6.439   4.040 -0.4485  0.2236 -1.5876
   78MOL0     H10499   4.424   6.589   4.003 -1.1300 -0.5340 -0.1980
   78MOL0     H10500   4.362   6.501   4.278  0.7396 -2.3762  0.0203
   78MOL0     H10501   4.457   6.642   4.245 -1.3285 -0.6521  1.1292
   78MOL0     H10502   4.617   6.467   4.131  0.0742  1.4191  0.4316
   78MOL0     H10503   4.511   6.341   4.217 -2.2175  1.1837 -1.6141
   78MOL0     H10504   4.567   6.431   4.420 -0.9018 -1.4948 -1.4217
   78MOL0     H10505   4.717   6.375   4.338 -0.1870 -0.7752  3.4919
   78MOL0     H10506   4.685   6.661   4.278 -1.3544 -0.0561  0.0452
   78MOL0     H10507   4.820   6.588   4.356 -0.1587  1.6670  0.3170
   78MOL0     H10508   4.676   6.574   4.577  0.0729 -2.8799 -1.9021
   78MOL0     H10509   4.750   6.734   4.524  1.8255 -1.2669 -2.4511
   78MOL0     H10510   4.108   7.012   4.115  1.8289  0.4828  0.1997
   78MOL0     H10511   3.978   7.166   4.253 -0.4044 -0.4690 -0.4058
   78MOL0     H10512   3.753   7.134   4.721 -1.1643  1.0166 -1.4073
   78MOL0     H10513   3.611   7.250   4.883  2.3544  0.0402  1.4599
   78MOL0     H10514   2.192   6.802   5.776  1.0099  2.7294  1.5528
   78MOL0     H10515   2.258   6.593   5.694 -2.4615  0.2582 -2.9816
   78MOL0     H10516   2.282   6.404   5.520 -0.4154 -0.0969  0.7971
   78MOL0     H10517   2.134   6.214   5.487 -0.1043  0.6980 -0.0355
   78MOL0     H10518   2.028   6.043   5.563 -0.4768 -0.1111 -0.5685
   78MOL0     H10519   2.024   5.871   5.587 -1.8135  1.7226  0.5716
   78MOL0     H10520   2.088   6.021   5.321 -3.5276 -1.1481 -2.5641
   78MOL0     H10521   1.986   5.883   5.344  0.4719  0.8516 -3.5477
   78MOL0     H10522   2.182   5.748   5.415 -0.9797  1.2341  1.8265
   78MOL0     H10523   2.282   5.875   5.345  0.5515 -1.4310  0.8436
   78MOL0     H10524   2.066   5.760   5.174 -0.7202 -0.4901  1.8037
   78MOL0     H10525   2.172   5.884   5.133 -2.0151 -1.1108 -0.7342
   78MOL0     H10526   2.444   5.573   5.065  0.0039 -0.6113 -2.0927
   78MOL0     H10527   2.436   5.969   5.669 -2.2345 -0.5204  1.4455
   78MOL0     H10528   2.648   6.187   5.812 -1.2996  1.1914 -0.0260
   78MOL0     H10529   2.664   6.054   5.695  1.2528  1.0804 -1.3534
   78MOL0     H10530   2.710   6.206   5.643 -0.9930 -0.6410 -1.6503
   79MOL0     O10531   6.628   6.546   8.512 -0.5061 -0.1970  0.7583
   79MOL0     C10532   6.684   6.472   8.588 -0.1693  0.5302 -0.5517
   79MOL0     O10533   6.647   6.332   8.604  0.7783 -0.0147  0.7395
   79MOL0     C10534   6.535   6.296   8.537 -1.2252  0.4831  0.2432
   79MOL0     C10535   6.411   6.289   8.606  0.8065 -0.0636 -0.4421
   79MOL0     C10536   6.292   6.255   8.532 -0.5167 -0.6823  0.2128
   79MOL0     C10537   6.296   6.210   8.393  0.5385 -0.7890  0.3283
   79MOL0     O10538   6.192   6.170   8.310  0.1712 -0.3905 -0.4977
   79MOL0     C10539   6.064   6.198   8.371  0.2544  0.0622 -1.2941
   79MOL0     C10540   5.934   6.163   8.290 -0.0407  0.1115  0.3837
   79MOL0     C10541   5.861   6.280   8.230 -0.2175  0.3550  0.2117
   79MOL0     C10542   5.932   6.344   8.110 -0.4482  0.2468 -0.2770
   79MOL0     C10543   5.860   6.462   8.042  0.2169  0.3295  0.5324
   79MOL0     C10544   5.781   6.553   8.138  0.3939 -0.3538 -0.9458
   79MOL0     C10545   5.862   6.642   8.223 -0.3629  0.3977  0.7542
   79MOL0     C10546   5.774   6.756   8.292 -0.6469  1.3262 -0.0626
   79MOL0     N10547   5.858   6.863   8.347  0.3968 -0.6461 -0.1536
   79MOL0     C10548   5.812   6.991   8.340 -0.5053 -0.4205 -0.5778
   79MOL0     C10549   5.887   7.059   8.428 -0.3258 -0.5259 -0.2792
   79MOL0     C10550   5.891   7.211   8.455  1.1148 -0.6492  0.7928
   79MOL0     C10551   5.765   7.247   8.546 -0.9518  0.1006  0.1158
   79MOL0     C10552   5.767   7.158   8.674  0.0450  0.3910 -0.2635
   79MOL0     C10553   5.687   7.220   8.778  0.4667  0.3290 -0.3806
   79MOL0     O10554   5.736   7.353   8.818  0.3359  0.0462  0.3152
   79MOL0     C10555   5.643   7.426   8.895 -0.1169  0.8973 -0.1383
   79MOL0     C10556   5.586   7.538   8.832  0.3572  0.6002 -0.9797
   79MOL0     C10557   5.499   7.614   8.909  0.3146 -0.7421  0.5338
   79MOL0     C10558   5.473   7.601   9.045 -0.0131  0.8893  0.0380
   79MOL0     C10559   5.379   7.696   9.113 -0.2412  0.5994  0.7355
   79MOL0     O10560   5.335   7.800   9.040 -0.0681 -0.0565 -0.1508
   79MOL0     C10561   5.258   7.898   9.111 -0.1739 -0.2941  0.3427
   79MOL0     C10562   5.310   8.026   9.100  0.3633  0.4436 -0.0941
   79MOL0     C10563   5.241   8.129   9.167 -0.8651  0.9098 -0.5588
   79MOL0     C10564   5.118   8.113   9.218 -0.2871  0.5837  0.8556
   79MOL0     O10565   5.049   8.219   9.268 -0.2403 -0.1876 -0.8757
   79MOL0     C10566   5.106   8.356   9.292  0.8226  0.8351 -0.6034
   79MOL0     C10567   5.005   8.445   9.364 -0.8245  0.4011 -0.5489
   79MOL0     C10568   5.029   8.460   9.515  0.6189 -0.4577 -0.6654
   79MOL0     C10569   5.143   8.565   9.531 -0.7554  0.3104 -0.4055
   79MOL0     C10570   5.161   8.597   9.679 -1.1009  0.8307  0.2910
   79MOL0     C10571   5.294   8.662   9.696  0.1686  0.3652  0.6825
   79MOL0     C10572   5.403   8.559   9.734 -0.7393 -0.2708 -0.1660
   79MOL0     C10573   5.550   8.614   9.720  0.6574 -1.3180  0.3903
   79MOL0    Cl10574   5.597   8.575   9.552 -0.7255  0.3162 -0.4044
   79MOL0     C10575   5.062   7.984   9.230 -0.7586 -0.2802  0.3754
   79MOL0     C10576   5.131   7.874   9.176  0.4493  0.5100  0.5039
   79MOL0     O10577   5.347   7.663   9.229 -0.8660  0.7442 -0.1622
   79MOL0     C10578   5.544   7.490   9.112  0.2003  0.0357  0.1301
   79MOL0     C10579   5.624   7.400   9.028 -0.3056  0.4909 -0.0364
   79MOL0     N10580   5.982   6.972   8.486 -0.4338  0.6504  0.5371
   79MOL0     N10581   5.952   6.854   8.442  0.9220  0.5658 -0.0897
   79MOL0     C10582   6.425   6.205   8.340 -0.6776  0.1219  0.1578
   79MOL0     C10583   6.542   6.247   8.405  0.5773 -0.1794 -0.4086
   79MOL0     C10584   6.803   6.523   8.656 -0.1954 -0.2680 -0.6736
   79MOL0     C10585   6.852   6.651   8.621  0.4837  0.4124  0.6401
   79MOL0     C10586   6.974   6.696   8.673 -0.2731  0.7591 -0.3509
   79MOL0     C10587   7.035   6.633   8.779 -0.1547  0.1155 -0.2569
   79MOL0     O10588   7.148   6.681   8.842 -0.7409  0.0756  0.3789
   79MOL0     C10589   7.117   6.713   8.976  0.5878  0.5582 -0.1522
   79MOL0     C10590   7.024   6.838   8.994  0.0720  0.2783 -0.4997
   79MOL0     C10591   7.086   6.954   8.922  0.0419 -0.1855  0.9378
   79MOL0     C10592   7.021   7.091   8.959  0.2057 -0.9186 -0.2667
   79MOL0     C10593   6.883   7.086   8.915 -0.5218  0.0726 -0.9701
   79MOL0     C10594   6.766   7.072   8.879 -0.3528 -0.7998 -1.0635
   79MOL0     C10595   6.993   6.506   8.818 -0.2473  0.4894  0.8389
   79MOL0     C10596   6.879   6.449   8.748 -0.0058 -1.0929  0.9215
   79MOL0     C10597   6.841   6.308   8.789 -0.2430 -0.4405  0.4968
   79MOL0     H10598   6.404   6.319   8.710 -2.0393 -1.3058 -0.1782
   79MOL0     H10599   6.206   6.265   8.598  0.4310  1.9095  1.1982
   79MOL0     H10600   6.064   6.144   8.467 -0.2200  0.9607 -0.7805
   79MOL0     H10601   6.068   6.304   8.397 -0.6564 -0.1015 -0.3994
   79MOL0     H10602   5.866   6.120   8.364 -0.6916 -1.5239 -1.1079
   79MOL0     H10603   5.956   6.080   8.222  1.6739 -0.2731  1.3456
   79MOL0     H10604   5.828   6.356   8.301 -1.6856  0.6108 -0.7076
   79MOL0     H10605   5.773   6.228   8.191 -1.1994  1.1610  1.2706
   79MOL0     H10606   6.030   6.384   8.137 -0.7997  1.0287 -0.1191
   79MOL0     H10607   5.945   6.267   8.034 -0.5386  2.1250 -2.3010
   79MOL0     H10608   5.937   6.524   7.994  0.4725 -0.6989 -0.4103
   79MOL0     H10609   5.792   6.421   7.967  3.4499 -2.2950 -1.2134
   79MOL0     H10610   5.722   6.625   8.080 -0.3153 -0.6893 -0.6501
   79MOL0     H10611   5.707   6.507   8.204 -0.2404  1.9314  0.0320
   79MOL0     H10612   5.923   6.701   8.154 -0.4436  2.7504  2.5822
   79MOL0     H10613   5.925   6.583   8.291 -2.6971 -5.7647 -1.7352
   79MOL0     H10614   5.684   6.782   8.235 -0.9692  0.7972  0.2000
   79MOL0     H10615   5.730   6.710   8.381  1.3004  1.9460  1.2989
   79MOL0     H10616   5.733   7.022   8.273 -0.4059 -2.9335 -1.9914
   79MOL0     H10617   5.989   7.251   8.484  1.1368 -0.7632  0.8812
   79MOL0     H10618   5.866   7.255   8.357 -2.0187 -1.9711  0.8745
   79MOL0     H10619   5.789   7.350   8.573  1.4594 -0.5035  0.5622
   79MOL0     H10620   5.676   7.253   8.483  1.8289  2.2591 -4.1284
   79MOL0     H10621   5.870   7.138   8.705  1.3514  2.0162 -3.1552
   79MOL0     H10622   5.711   7.067   8.650 -1.3262 -0.2688  4.5287
   79MOL0     H10623   5.679   7.157   8.867  2.1692 -0.4477 -0.7280
   79MOL0     H10624   5.592   7.242   8.729  0.4511  3.6929  0.9365
   79MOL0     H10625   5.586   7.548   8.724 -0.7938 -1.8519 -1.2709
   79MOL0     H10626   5.440   7.685   8.852 -0.0224 -3.3978 -2.7491
   79MOL0     H10627   5.393   8.045   9.033  0.4565  0.1269 -0.0736
   79MOL0     H10628   5.291   8.225   9.173  5.2271 -1.7893 -0.6787
   79MOL0     H10629   5.189   8.342   9.362 -0.0447 -0.8073  0.1457
   79MOL0     H10630   5.150   8.395   9.200  2.1823  1.4102  0.2619
   79MOL0     H10631   5.004   8.546   9.322  2.0866  1.2263  1.1144
   79MOL0     H10632   4.904   8.409   9.340 -1.3388  2.3700 -1.5086
   79MOL0     H10633   4.942   8.503   9.564  1.3989  1.8037 -1.1656
   79MOL0     H10634   5.044   8.360   9.558  0.4685  0.1682  0.9044
   79MOL0     H10635   5.119   8.651   9.468 -2.5214  0.0022 -0.1874
   79MOL0     H10636   5.230   8.511   9.491 -0.1640 -0.5460  1.8698
   79MOL0     H10637   5.149   8.513   9.748 -0.3347  0.9403  0.5716
   79MOL0     H10638   5.091   8.677   9.699 -1.0454  1.0973 -0.5286
   79MOL0     H10639   5.316   8.706   9.598  2.0326 -1.1309  0.3797
   79MOL0     H10640   5.295   8.731   9.781  2.0487 -2.2341  2.9417
   79MOL0     H10641   5.394   8.467   9.675  0.6362  1.0171 -2.5596
   79MOL0     H10642   5.390   8.539   9.840  1.0902  0.1989  0.1825
   79MOL0     H10643   5.557   8.722   9.736  3.8530 -0.7875 -3.2215
   79MOL0     H10644   5.622   8.569   9.790 -1.1564 -1.5639  2.2006
   79MOL0     H10645   4.966   7.967   9.277 -0.2797 -1.9001  0.8281
   79MOL0     H10646   5.091   7.773   9.169  0.0606  0.6913  0.1569
   79MOL0     H10647   5.521   7.474   9.217 -0.7199  2.9908  0.4580
   79MOL0     H10648   5.663   7.305   9.064 -0.1232  0.6393  0.1613
   79MOL0     H10649   6.435   6.164   8.240 -1.2524 -1.7199  0.8105
   79MOL0     H10650   6.640   6.232   8.360 -0.6863  0.1588 -3.5087
   79MOL0     H10651   6.810   6.713   8.543 -3.1121 -0.7329  1.4647
   79MOL0     H10652   7.022   6.783   8.631 -0.3295  2.0805  2.1868
   79MOL0     H10653   7.214   6.722   9.027  0.6770 -2.1301  0.2912
   79MOL0     H10654   7.076   6.625   9.026  0.4006  1.3310  1.1128
   79MOL0     H10655   7.027   6.860   9.101 -3.0261  1.8879 -0.6417
   79MOL0     H10656   6.923   6.815   8.960  0.7699  1.1030 -3.4509
   79MOL0     H10657   7.070   6.941   8.815 -1.0340  1.9463  0.8009
   79MOL0     H10658   7.192   6.980   8.924 -0.6212  3.8640 -2.6115
   79MOL0     H10659   7.027   7.111   9.067 -1.0929  1.7314 -0.5989
   79MOL0     H10660   7.071   7.176   8.910  2.7657 -2.4425 -0.4563
   79MOL0     H10661   6.667   7.068   8.838 -0.6761  1.9374 -0.6981
   79MOL0     H10662   7.038   6.451   8.900 -1.0942 -1.0759  0.2857
   79MOL0     H10663   6.840   6.238   8.704  0.4867  1.7296 -1.3901
   79MOL0     H10664   6.915   6.271   8.860  1.1870 -1.0460 -1.2291
   79MOL0     H10665   6.741   6.307   8.835 -0.0073 -2.5486  1.0907
   80MOL0     O10666   0.120   4.043   6.696 -0.1461  0.3056 -0.4012
   80MOL0     C10667   0.005   4.030   6.645 -0.1281  0.2397 -1.1480
   80MOL0     O10668  -0.032   4.017   6.505  0.6836 -0.1323 -0.4986
   80MOL0     C10669   0.061   4.007   6.403  0.5815 -0.8604  0.4741
   80MOL0     C10670   0.193   3.983   6.426  0.2588 -0.4077 -0.3828
   80MOL0     C10671   0.286   3.975   6.334  0.4409 -0.7953 -0.2959
   80MOL0     C10672   0.249   3.989   6.199  1.1015  0.3333 -0.8158
   80MOL0     O10673   0.337   3.981   6.096 -0.2727  0.4401  0.5922
   80MOL0     C10674   0.414   3.865   6.079 -0.4401  0.0459  0.4260
   80MOL0     C10675   0.407   3.805   5.945  0.8843 -0.6365  0.6305
   80MOL0     C10676   0.501   3.878   5.840 -1.5514 -0.0279 -0.0398
   80MOL0     C10677   0.451   4.024   5.815  0.3742  0.7324 -0.0473
   80MOL0     C10678   0.503   4.097   5.697  0.4901 -0.1416  0.3571
   80MOL0     C10679   0.649   4.123   5.710 -0.7493 -0.2742 -0.5237
   80MOL0     C10680   0.703   4.191   5.847 -0.1658 -0.2686 -0.2108
   80MOL0     C10681   0.653   4.339   5.864 -0.2868 -0.7502 -0.2129
   80MOL0     N10682   0.661   4.378   6.003  0.4804  0.1152 -0.3887
   80MOL0     C10683   0.586   4.332   6.116 -0.9350  0.0790  0.9747
   80MOL0     C10684   0.664   4.376   6.218  0.2005  0.4098 -0.5231
   80MOL0     C10685   0.654   4.351   6.368  0.0834  0.4880 -0.8424
   80MOL0     C10686   0.505   4.346   6.412 -0.8659 -0.2550  0.7865
   80MOL0     C10687   0.495   4.351   6.560  0.3057  0.5714 -0.8260
   80MOL0     C10688   0.345   4.337   6.590  0.6490  0.0119 -0.0399
   80MOL0     O10689   0.304   4.374   6.717  0.3389  0.1173 -0.3765
   80MOL0     C10690   0.351   4.320   6.830  0.7625  0.3776  0.1095
   80MOL0     C10691   0.411   4.194   6.836 -0.4397 -0.0791  0.3927
   80MOL0     C10692   0.443   4.142   6.963  0.3290 -0.0162 -0.3806
   80MOL0     C10693   0.394   4.201   7.081  0.6947 -0.2344 -0.7077
   80MOL0     C10694   0.420   4.136   7.213  0.3810  0.3092  0.4857
   80MOL0     O10695   0.379   4.187   7.328  0.0296  1.1435 -0.2082
   80MOL0     C10696   0.394   4.120   7.445 -0.4026  0.1078 -0.4592
   80MOL0     C10697   0.505   4.130   7.529 -0.2607 -0.8398 -0.0210
   80MOL0     C10698   0.520   4.063   7.652 -0.3229  0.1181 -0.0400
   80MOL0     C10699   0.419   3.978   7.694 -0.6830 -0.1776  0.1638
   80MOL0     O10700   0.432   3.934   7.821 -0.3832  0.0035 -0.4532
   80MOL0     C10701   0.394   3.802   7.847 -0.4374  0.2983 -1.0562
   80MOL0     C10702   0.380   3.778   7.998  0.0717 -0.1355 -0.2147
   80MOL0     C10703   0.513   3.799   8.077  0.1247  0.0772 -0.3468
   80MOL0     C10704   0.473   3.833   8.219 -1.0588 -0.0401 -1.1929
   80MOL0     C10705   0.597   3.846   8.305  0.1415 -0.1140 -1.0340
   80MOL0     C10706   0.685   3.725   8.340  0.1983  1.2030 -0.2102
   80MOL0     C10707   0.803   3.749   8.447  0.4694  0.1929  1.1156
   80MOL0     C10708   0.903   3.625   8.441 -0.1131  0.2062  0.3988
   80MOL0    Cl10709   1.005   3.629   8.590  0.2680 -0.3316 -0.2176
   80MOL0     C10710   0.311   3.951   7.600  0.8784  0.5286 -0.2422
   80MOL0     C10711   0.299   4.019   7.476 -0.1949 -0.3155 -0.2857
   80MOL0     O10712   0.492   4.043   7.208 -0.4585 -0.2579  0.6238
   80MOL0     C10713   0.321   4.319   7.069 -1.2808 -0.0897  0.5481
   80MOL0     C10714   0.321   4.385   6.944  0.6772  0.0665  0.4134
   80MOL0     N10715   0.766   4.450   6.174  0.1227  0.1652 -0.6122
   80MOL0     N10716   0.764   4.460   6.044  0.0172 -0.3382  0.3159
   80MOL0     C10717   0.114   4.004   6.160  0.9104  0.9764 -0.6404
   80MOL0     C10718   0.020   4.021   6.259 -0.0259  0.2294 -0.2502
   80MOL0     C10719  -0.110   4.029   6.739 -0.0414 -0.0862  0.5785
   80MOL0     C10720  -0.247   4.000   6.697 -0.4179  0.4783 -0.5106
   80MOL0     C10721  -0.358   4.014   6.787  0.0434  0.2941 -1.0097
   80MOL0     C10722  -0.331   4.031   6.925 -0.3145  0.2179 -0.4313
   80MOL0     O10723  -0.427   4.040   7.014 -0.4295 -0.3364  0.2314
   80MOL0     C10724  -0.560   4.094   6.979 -0.1494 -0.4662  0.1195
   80MOL0     C10725  -0.659   3.968   6.962 -0.2143 -0.3918  0.5533
   80MOL0     C10726  -0.656   3.864   7.080 -0.7137 -0.6081  0.0563
   80MOL0     C10727  -0.750   3.740   7.064  0.2537 -0.1034  1.1269
   80MOL0     C10728  -0.855   3.751   6.959 -0.2553  0.1478  0.0224
   80MOL0     C10729  -0.942   3.770   6.876  0.3514 -1.3398 -0.3963
   80MOL0     C10730  -0.200   4.031   6.963 -0.9873 -0.2556  0.6252
   80MOL0     C10731  -0.090   4.036   6.876 -0.9781 -0.3885 -0.1743
   80MOL0     C10732   0.040   4.046   6.953  0.7026 -0.5832  0.0208
   80MOL0     H10733   0.223   3.951   6.526 -0.1157 -3.5894 -1.1991
   80MOL0     H10734   0.388   3.942   6.351  1.3910 -0.2410 -3.9477
   80MOL0     H10735   0.518   3.890   6.098 -1.0311  3.8646 -0.4806
   80MOL0     H10736   0.383   3.792   6.155 -3.1581  1.1045  0.4381
   80MOL0     H10737   0.310   3.816   5.897  2.5763  1.1797 -2.7513
   80MOL0     H10738   0.435   3.700   5.953  1.8170 -0.3713  1.0344
   80MOL0     H10739   0.514   3.834   5.741  2.1820 -0.8487  0.6695
   80MOL0     H10740   0.601   3.888   5.883 -0.7358  2.0460 -2.1760
   80MOL0     H10741   0.344   4.006   5.801  0.9458 -1.7849 -1.9062
   80MOL0     H10742   0.467   4.081   5.907  3.3368  1.6631 -1.0188
   80MOL0     H10743   0.492   4.052   5.598  2.2925  0.0183  0.0624
   80MOL0     H10744   0.446   4.190   5.690 -0.4601 -0.4809  2.5474
   80MOL0     H10745   0.700   4.030   5.686  1.6225  0.6619  0.4781
   80MOL0     H10746   0.664   4.196   5.630 -1.0926 -1.2060 -1.4512
   80MOL0     H10747   0.812   4.195   5.836 -0.1016 -1.6542 -0.2177
   80MOL0     H10748   0.674   4.126   5.930  0.1103  1.2917  1.1541
   80MOL0     H10749   0.716   4.395   5.794 -1.6312  2.3149  0.8423
   80MOL0     H10750   0.549   4.350   5.832 -0.8422 -0.2584  1.6102
   80MOL0     H10751   0.489   4.283   6.111 -1.1265  0.5408 -0.0732
   80MOL0     H10752   0.707   4.262   6.403 -0.6378 -0.6357 -2.4815
   80MOL0     H10753   0.701   4.436   6.418  0.8672 -0.4609  0.0916
   80MOL0     H10754   0.460   4.440   6.378  0.1445  0.1951  0.6381
   80MOL0     H10755   0.454   4.259   6.371  0.4373  0.4201 -2.5861
   80MOL0     H10756   0.523   4.443   6.611  0.3917  0.2481 -0.2752
   80MOL0     H10757   0.550   4.268   6.608  0.8205  1.2475 -0.2151
   80MOL0     H10758   0.321   4.233   6.565 -0.1766 -0.1625  1.4066
   80MOL0     H10759   0.295   4.395   6.511  0.0900 -1.5608 -0.8862
   80MOL0     H10760   0.428   4.134   6.748  1.9793  0.8987  0.1333
   80MOL0     H10761   0.494   4.047   6.978  0.0305  0.1606  2.3279
   80MOL0     H10762   0.575   4.209   7.501  0.7259 -2.0780 -1.1482
   80MOL0     H10763   0.601   4.087   7.720 -1.4414 -0.7886  1.6802
   80MOL0     H10764   0.300   3.781   7.795 -0.6247  2.7048 -1.8158
   80MOL0     H10765   0.472   3.735   7.809 -1.7038 -1.3951 -0.7782
   80MOL0     H10766   0.311   3.855   8.035 -1.4616 -1.3561 -0.4382
   80MOL0     H10767   0.335   3.679   8.009 -2.1022  0.7501 -0.6716
   80MOL0     H10768   0.565   3.703   8.066 -0.5020 -0.2159 -0.8624
   80MOL0     H10769   0.585   3.873   8.042 -0.1670  0.1801 -0.7367
   80MOL0     H10770   0.418   3.750   8.264 -2.1226 -0.0359 -2.4184
   80MOL0     H10771   0.404   3.918   8.222  0.5067  1.2396 -0.1748
   80MOL0     H10772   0.551   3.874   8.400  2.1876  3.3322 -0.8819
   80MOL0     H10773   0.658   3.932   8.274 -1.6364  1.9439  0.8126
   80MOL0     H10774   0.619   3.642   8.364  1.0014 -0.3640 -2.8979
   80MOL0     H10775   0.728   3.702   8.242 -1.7057 -0.7911 -0.6481
   80MOL0     H10776   0.758   3.769   8.545 -1.8297  0.6215  0.0458
   80MOL0     H10777   0.862   3.835   8.414  0.4300 -0.8791 -2.0455
   80MOL0     H10778   0.847   3.531   8.445 -1.9784  0.9843 -3.2464
   80MOL0     H10779   0.971   3.624   8.355  0.7725  2.2663  1.0151
   80MOL0     H10780   0.228   3.881   7.616 -0.3407  1.7154 -1.1596
   80MOL0     H10781   0.223   3.979   7.409 -1.3560 -1.3326  1.5454
   80MOL0     H10782   0.287   4.371   7.158 -1.8812  0.5679 -0.0525
   80MOL0     H10783   0.274   4.481   6.931  1.9638  0.3267 -3.4432
   80MOL0     H10784   0.071   4.008   6.061  0.3584 -0.5490 -0.4934
   80MOL0     H10785  -0.084   4.040   6.235 -0.2791 -0.0937  0.5479
   80MOL0     H10786  -0.266   3.979   6.592 -0.3299 -0.4191 -0.3515
   80MOL0     H10787  -0.457   4.001   6.744  0.2812 -1.7584 -1.0080
   80MOL0     H10788  -0.548   4.158   6.891 -2.6581 -0.1922 -0.0940
   80MOL0     H10789  -0.599   4.155   7.061 -0.5074 -1.0747  0.4064
   80MOL0     H10790  -0.638   3.916   6.868 -0.4257  1.2052 -0.4238
   80MOL0     H10791  -0.758   4.008   6.937  0.0820 -1.3859 -2.7003
   80MOL0     H10792  -0.675   3.919   7.173 -1.2979  0.3163 -0.5989
   80MOL0     H10793  -0.554   3.825   7.075  0.1503  1.2167  1.7370
   80MOL0     H10794  -0.692   3.648   7.059  1.3172  0.6011 -0.9023
   80MOL0     H10795  -0.805   3.747   7.158  2.3185  0.0501  2.3752
   80MOL0     H10796  -1.018   3.794   6.805  0.4787 -0.0709 -0.1267
   80MOL0     H10797  -0.173   4.052   7.066  2.8379  0.5286 -0.3879
   80MOL0     H10798   0.112   3.966   6.931  0.1548 -1.6969  2.0691
   80MOL0     H10799   0.098   4.135   6.927  1.7988 -1.3424 -0.2104
   80MOL0     H10800   0.019   4.066   7.058 -2.3860 -1.3328 -0.3571
   81MOL0     O10801   0.942   7.439  10.384 -0.3282  0.1162  0.8064
   81MOL0     C10802   0.991   7.462  10.272 -0.5711 -0.7927 -0.7699
   81MOL0     O10803   1.009   7.367  10.176 -0.0873  0.1634  0.3157
   81MOL0     C10804   0.926   7.258  10.171  0.4632 -0.1880 -0.7921
   81MOL0     C10805   0.784   7.266  10.178  0.3004  0.4354  0.2125
   81MOL0     C10806   0.705   7.157  10.141 -0.1428  0.4160  0.0479
   81MOL0     C10807   0.757   7.030  10.117 -0.6731  1.2963 -0.0825
   81MOL0     O10808   0.688   6.927  10.058  1.0901 -0.0999 -0.3869
   81MOL0     C10809   0.561   6.877  10.102  1.6328  0.2465  0.0424
   81MOL0     C10810   0.580   6.796  10.234 -0.9088  0.2224 -0.1741
   81MOL0     C10811   0.452   6.754  10.303 -0.0368  0.1416  0.3455
   81MOL0     C10812   0.485   6.701  10.449  0.1197  0.2841 -0.0832
   81MOL0     C10813   0.366   6.658  10.533  0.3201 -0.0824  0.7422
   81MOL0     C10814   0.409   6.537  10.620  0.2332 -1.4449 -0.4437
   81MOL0     C10815   0.505   6.574  10.733  0.3164  0.6330 -0.2467
   81MOL0     C10816   0.441   6.650  10.848  0.5353  0.7546 -0.1724
   81MOL0     N10817   0.534   6.702  10.941 -0.2415 -0.1116  0.6204
   81MOL0     C10818   0.637   6.788  10.906  0.5597 -0.2521  0.4640
   81MOL0     C10819   0.681   6.834  11.028  0.3941 -0.2168  0.1372
   81MOL0     C10820   0.790   6.938  11.031  0.6603 -0.7574  0.0684
   81MOL0     C10821   0.772   7.056  11.120  0.2073  0.0102 -0.7132
   81MOL0     C10822   0.885   7.161  11.094 -0.2927 -0.0787 -0.1253
   81MOL0     C10823   0.881   7.284  11.181 -0.5059  0.3631  0.3738
   81MOL0     O10824   0.743   7.328  11.180 -0.6607 -0.6580  0.1969
   81MOL0     C10825   0.704   7.412  11.281  0.0176 -0.5696 -0.3251
   81MOL0     C10826   0.771   7.535  11.304  0.5913  0.1359 -0.3750
   81MOL0     C10827   0.737   7.608  11.422  0.8644  1.0233 -0.9934
   81MOL0     C10828   0.633   7.570  11.516  0.2819 -0.8363 -0.2530
   81MOL0     C10829   0.608   7.647  11.644 -0.3914  0.4813  1.1152
   81MOL0     O10830   0.532   7.574  11.729 -0.3203  0.2642 -0.3179
   81MOL0     C10831   0.539   7.636  11.855 -1.0543 -0.8327 -0.1650
   81MOL0     C10832   0.417   7.695  11.907 -0.0145  0.8836  0.2702
   81MOL0     C10833   0.405   7.753  12.032  0.7420  0.3237 -0.4906
   81MOL0     C10834   0.513   7.751  12.121  0.0800  0.2363  0.3963
   81MOL0     O10835   0.524   7.796  12.250  0.6419 -0.1252 -0.5889
   81MOL0     C10836   0.411   7.863  12.301  0.3273  0.0743 -0.6566
   81MOL0     C10837   0.414   7.846  12.454  0.1041 -0.4621 -0.2248
   81MOL0     C10838   0.308   7.937  12.520 -0.0193  0.6464 -0.2653
   81MOL0     C10839   0.200   7.865  12.608 -0.2646  0.0911  0.1129
   81MOL0     C10840   0.074   7.954  12.630 -0.2789  0.0501  0.1283
   81MOL0     C10841   0.112   8.093  12.680 -0.7453 -0.5073  0.1264
   81MOL0     C10842   0.006   8.197  12.664  0.0060  0.8303  0.0754
   81MOL0     C10843   0.023   8.321  12.754  0.3567  0.0261 -0.0011
   81MOL0    Cl10844  -0.107   8.441  12.721  0.2342 -0.0391 -0.0927
   81MOL0     C10845   0.632   7.679  12.074 -0.2281 -0.7410 -0.3048
   81MOL0     C10846   0.645   7.633  11.946 -0.0743  0.8941  0.3918
   81MOL0     O10847   0.670   7.753  11.663  0.3467  0.0708 -0.5418
   81MOL0     C10848   0.558   7.457  11.480 -0.0565 -0.8988 -0.2170
   81MOL0     C10849   0.608   7.371  11.378  0.3549  0.3447  0.5639
   81MOL0     N10850   0.620   6.761  11.131  0.3974  0.0800  0.0493
   81MOL0     N10851   0.529   6.684  11.074 -0.2763 -0.0957 -0.6610
   81MOL0     C10852   0.899   7.016  10.125 -0.2244 -0.8764  0.0313
   81MOL0     C10853   0.982   7.132  10.158 -0.7628 -0.0124  0.4271
   81MOL0     C10854   1.024   7.611  10.252 -0.7363  0.0879 -0.1826
   81MOL0     C10855   0.995   7.696  10.357  0.0055  0.7405 -0.0543
   81MOL0     C10856   1.030   7.831  10.354 -0.6747  0.4144  0.1618
   81MOL0     C10857   1.090   7.879  10.247 -0.0276 -1.0819  1.2185
   81MOL0     O10858   1.116   8.012  10.273 -0.2405  0.4700  0.7734
   81MOL0     C10859   1.211   8.094  10.198  0.4975  0.0373  0.3480
   81MOL0     C10860   1.357   8.065  10.245  0.7980  0.5574 -0.2722
   81MOL0     C10861   1.454   8.164  10.180  0.3626 -0.7288 -0.4931
   81MOL0     C10862   1.474   8.152  10.032  0.4568 -0.3940  0.3759
   81MOL0     C10863   1.390   8.256   9.966  0.4207 -0.8174  0.1206
   81MOL0     C10864   1.324   8.339   9.910 -0.1326  0.7404  0.0825
   81MOL0     C10865   1.135   7.796  10.140 -0.0040 -0.1678 -0.2798
   81MOL0     C10866   1.099   7.657  10.149  0.3534  0.3589 -0.1276
   81MOL0     C10867   1.150   7.585  10.025  0.1283 -0.3260 -1.3721
   81MOL0     H10868   0.734   7.358  10.207 -1.9564 -1.2037  1.9485
   81MOL0     H10869   0.598   7.176  10.147 -0.4960 -1.6540  5.3401
   81MOL0     H10870   0.472   6.939  10.111 -1.6985 -3.7759 -1.7115
   81MOL0     H10871   0.529   6.803  10.027 -0.1456 -0.9841  1.9128
   81MOL0     H10872   0.632   6.851  10.312 -0.5266  0.8171 -0.8409
   81MOL0     H10873   0.633   6.704  10.208 -0.3307  0.3026  0.6958
   81MOL0     H10874   0.388   6.679  10.256 -2.4336  0.4676  2.8035
   81MOL0     H10875   0.401   6.851  10.300 -2.1923 -0.8805 -4.2059
   81MOL0     H10876   0.558   6.620  10.450  0.6312  0.7204  1.6508
   81MOL0     H10877   0.545   6.772  10.507  0.2479 -1.7153  2.4089
   81MOL0     H10878   0.325   6.742  10.589 -0.4038 -1.2898  2.0768
   81MOL0     H10879   0.283   6.621  10.473  0.9199 -3.2755  1.7020
   81MOL0     H10880   0.325   6.487  10.669  0.0788  0.1127  0.9736
   81MOL0     H10881   0.453   6.466  10.548  0.8327  1.2459 -2.9216
   81MOL0     H10882   0.593   6.628  10.698  1.1425 -1.4845 -1.6316
   81MOL0     H10883   0.552   6.485  10.775  3.0504  1.0304 -2.2170
   81MOL0     H10884   0.375   6.731  10.813  3.7237  2.8185 -1.8595
   81MOL0     H10885   0.377   6.580  10.902  0.1112  0.5692 -0.8987
   81MOL0     H10886   0.668   6.825  10.809 -0.7359  0.3986  0.2753
   81MOL0     H10887   0.878   6.885  11.069  0.8109 -0.3176  0.3432
   81MOL0     H10888   0.804   6.975  10.929 -4.3578  3.0656  0.3879
   81MOL0     H10889   0.674   7.104  11.115  0.2923  0.6699  2.3167
   81MOL0     H10890   0.784   7.013  11.220 -2.9665 -1.0051 -0.6747
   81MOL0     H10891   0.859   7.196  10.994 -2.4610 -0.7594  0.1605
   81MOL0     H10892   0.985   7.115  11.101  0.9030  2.4120  0.2242
   81MOL0     H10893   0.950   7.358  11.141  1.1265 -0.6136  1.2812
   81MOL0     H10894   0.908   7.246  11.280  1.1754 -3.0052 -1.2402
   81MOL0     H10895   0.846   7.576  11.238  0.2556  0.8644 -0.3161
   81MOL0     H10896   0.779   7.709  11.424  1.1946  0.8998 -1.4263
   81MOL0     H10897   0.325   7.688  11.850  1.2714 -0.1211 -1.7689
   81MOL0     H10898   0.308   7.794  12.058 -0.1371 -1.2106 -1.1882
   81MOL0     H10899   0.409   7.964  12.258 -1.0069 -0.5973 -2.2902
   81MOL0     H10900   0.317   7.814  12.275 -0.4930  1.0819  0.2984
   81MOL0     H10901   0.410   7.737  12.465  0.5447 -0.4372  0.1926
   81MOL0     H10902   0.514   7.877  12.485 -0.6621  0.0405  1.9460
   81MOL0     H10903   0.370   8.007  12.577 -0.5005  0.1456  0.8945
   81MOL0     H10904   0.259   7.995  12.441  0.1743  3.7085  1.6966
   81MOL0     H10905   0.246   7.824  12.699  0.2309  2.8620  1.2015
   81MOL0     H10906   0.163   7.782  12.547 -2.5416  0.8632  0.3450
   81MOL0     H10907   0.010   7.903  12.702 -2.5383 -0.3668 -2.0493
   81MOL0     H10908   0.004   7.966  12.546 -0.6053 -2.7897 -0.1011
   81MOL0     H10909   0.141   8.084  12.785 -0.6701 -0.6495  0.0939
   81MOL0     H10910   0.199   8.126  12.623 -1.6025 -1.0353 -1.5786
   81MOL0     H10911  -0.092   8.152  12.680  0.5304 -0.2212  0.3918
   81MOL0     H10912   0.026   8.225  12.560 -0.8340 -1.8951 -0.8746
   81MOL0     H10913   0.030   8.283  12.857 -1.1979  0.8224  0.4266
   81MOL0     H10914   0.115   8.377  12.733 -0.2909  0.6413 -1.2909
   81MOL0     H10915   0.714   7.661  12.143 -0.0094 -0.7961 -0.5763
   81MOL0     H10916   0.743   7.596  11.919  0.3938  2.9480 -0.9520
   81MOL0     H10917   0.477   7.420  11.541 -0.6993 -0.7574 -0.9603
   81MOL0     H10918   0.557   7.283  11.342  1.1170  0.1847 -0.1696
   81MOL0     H10919   0.951   6.921  10.118  3.6331  1.1635 -2.6330
   81MOL0     H10920   1.090   7.126  10.165 -0.6043 -2.4640 -2.2923
   81MOL0     H10921   0.939   7.668  10.445  0.4228  0.2243  0.0515
   81MOL0     H10922   1.012   7.884  10.447  2.4627  0.6103  0.7697
   81MOL0     H10923   1.181   8.198  10.211  0.6275  0.3376 -1.4780
   81MOL0     H10924   1.193   8.060  10.096 -0.5742 -2.2432  1.2286
   81MOL0     H10925   1.383   7.964  10.211 -0.2934 -0.7587  2.5157
   81MOL0     H10926   1.364   8.079  10.353  0.1746  2.5676 -0.4527
   81MOL0     H10927   1.551   8.149  10.229 -1.3845 -3.1365  2.6149
   81MOL0     H10928   1.424   8.265  10.210  0.8601 -0.3906 -1.1182
   81MOL0     H10929   1.576   8.188  10.018  0.1644  0.8667  1.2999
   81MOL0     H10930   1.460   8.050   9.995 -2.5033 -0.3435  1.1479
   81MOL0     H10931   1.270   8.422   9.870 -1.2075 -0.5132 -1.1719
   81MOL0     H10932   1.181   7.848  10.056 -0.3689  1.1273  0.2987
   81MOL0     H10933   1.232   7.518  10.053 -1.8772 -2.4114 -0.1063
   81MOL0     H10934   1.075   7.519   9.980  0.3475 -0.7124 -1.1801
   81MOL0     H10935   1.184   7.651   9.945  1.8467 -0.8704 -1.1313
   82MOL0     O10936   0.908   3.505   0.912  0.4628 -0.1620  0.2209
   82MOL0     C10937   0.989   3.571   0.967 -0.0792  0.4179  0.0010
   82MOL0     O10938   0.973   3.705   0.974 -0.4882 -0.2813  0.1653
   82MOL0     C10939   0.853   3.769   0.937 -0.8943  0.0021 -0.0712
   82MOL0     C10940   0.793   3.871   1.010  0.0378  0.9255 -0.2200
   82MOL0     C10941   0.664   3.917   0.976 -0.3214  0.1660 -0.4411
   82MOL0     C10942   0.618   3.898   0.856  0.7819  0.3010  0.1070
   82MOL0     O10943   0.491   3.940   0.832  0.6069 -0.4433 -0.1550
   82MOL0     C10944   0.472   4.080   0.788 -0.1528 -0.3596  0.2352
   82MOL0     C10945   0.324   4.107   0.775 -0.0286 -1.1697 -0.5177
   82MOL0     C10946   0.279   4.262   0.736  0.2594  0.6750  0.0987
   82MOL0     C10947   0.360   4.311   0.610  1.3215 -1.0045 -1.2616
   82MOL0     C10948   0.326   4.462   0.571  0.9189  0.3360  0.6767
   82MOL0     C10949   0.370   4.491   0.435  0.3193 -0.9047  0.6480
   82MOL0     C10950   0.521   4.530   0.424 -0.2601  0.7940  0.4513
   82MOL0     C10951   0.551   4.676   0.435  0.3501  0.5604  0.7206
   82MOL0     N10952   0.693   4.688   0.417 -0.1339  1.0967  0.3765
   82MOL0     C10953   0.760   4.754   0.328 -0.2033  0.0668 -0.2461
   82MOL0     C10954   0.890   4.763   0.362  0.7527 -0.0722  0.2726
   82MOL0     C10955   1.000   4.841   0.290  0.2132  0.3282 -0.6565
   82MOL0     C10956   0.962   4.873   0.142 -0.9605  0.2227 -0.5154
   82MOL0     C10957   0.954   4.757   0.048 -0.0213  0.3700  0.3905
   82MOL0     C10958   0.885   4.788  -0.091 -0.2730  0.0811 -1.1683
   82MOL0     O10959   0.750   4.833  -0.060  0.2290  0.2958  0.5981
   82MOL0     C10960   0.670   4.863  -0.173 -0.7605  0.5343  0.1448
   82MOL0     C10961   0.691   4.822  -0.302  0.0914 -0.8902 -0.5845
   82MOL0     C10962   0.595   4.833  -0.401 -0.7275 -0.0071 -0.0507
   82MOL0     C10963   0.475   4.900  -0.374  0.4142  0.0310 -0.3987
   82MOL0     C10964   0.388   4.924  -0.488 -0.5167 -0.8455  0.2625
   82MOL0     O10965   0.432   4.906  -0.618  0.3715  0.0672 -0.4284
   82MOL0     C10966   0.344   4.942  -0.724 -0.3661 -0.1156  0.9431
   82MOL0     C10967   0.278   4.852  -0.802  0.1728 -0.7698 -0.1281
   82MOL0     C10968   0.187   4.886  -0.897 -0.0371  0.0978  0.8661
   82MOL0     C10969   0.177   5.020  -0.943  0.5304 -0.6746  0.0540
   82MOL0     O10970   0.109   5.044  -1.059 -0.0933  0.6245  0.2562
   82MOL0     C10971   0.142   5.166  -1.122  0.5668  0.4555  0.0248
   82MOL0     C10972   0.116   5.168  -1.274 -0.5956  1.3450  0.2238
   82MOL0     C10973   0.173   5.045  -1.346  0.6585 -0.2033 -0.7019
   82MOL0     C10974   0.132   5.036  -1.494  0.1367 -0.3150 -0.1260
   82MOL0     C10975   0.196   4.921  -1.572 -0.1935  0.1088  0.2766
   82MOL0     C10976   0.145   4.916  -1.719  0.7939  1.0666 -0.1907
   82MOL0     C10977   0.215   4.804  -1.794  0.3499 -0.9770  0.0962
   82MOL0     C10978   0.139   4.674  -1.804 -0.8044 -0.0472  0.4061
   82MOL0    Cl10979   0.019   4.691  -1.939  0.3942 -0.0728 -0.5435
   82MOL0     C10980   0.244   5.113  -0.860 -1.5966  0.5451 -0.0859
   82MOL0     C10981   0.329   5.077  -0.757 -0.3625  0.0175 -0.7381
   82MOL0     O10982   0.279   4.965  -0.458 -0.4577 -0.1611  0.6124
   82MOL0     C10983   0.452   4.954  -0.242  0.9813 -0.5467 -0.0880
   82MOL0     C10984   0.553   4.935  -0.147 -0.1043  0.2365  1.2010
   82MOL0     N10985   0.903   4.664   0.462  0.2164  0.0948  0.4769
   82MOL0     N10986   0.790   4.618   0.487  0.2233 -0.4737 -0.0403
   82MOL0     C10987   0.689   3.825   0.763 -0.6226 -0.7698  0.1462
   82MOL0     C10988   0.808   3.752   0.801  0.1958  0.3575  0.3966
   82MOL0     C10989   1.107   3.508   1.019 -0.8369 -1.7180  0.3801
   82MOL0     C10990   1.190   3.588   1.096  0.3410 -0.0555  0.4000
   82MOL0     C10991   1.313   3.544   1.140 -0.6296 -0.1348 -0.1064
   82MOL0     C10992   1.360   3.415   1.108 -0.1495  1.1687  0.2039
   82MOL0     O10993   1.473   3.372   1.167 -0.2137  0.2183  0.3553
   82MOL0     C10994   1.537   3.253   1.116 -0.1493  0.4557  0.3976
   82MOL0     C10995   1.626   3.292   0.993 -0.0263  0.0831 -0.4201
   82MOL0     C10996   1.545   3.326   0.860 -0.5327 -0.4017 -1.1887
   82MOL0     C10997   1.638   3.340   0.742  0.1422  0.4110 -0.1815
   82MOL0     C10998   1.578   3.333   0.610  0.8710 -0.0535  0.8046
   82MOL0     C10999   1.516   3.320   0.509 -0.5353  0.4068  0.3206
   82MOL0     C11000   1.274   3.327   1.031 -0.1198 -0.0402  0.2186
   82MOL0     C11001   1.148   3.376   0.984 -0.6710  0.0043  0.6591
   82MOL0     C11002   1.086   3.279   0.883  0.0475  0.4073  0.5584
   82MOL0     H11003   0.850   3.901   1.097  1.4538  1.1971 -1.1978
   82MOL0     H11004   0.600   3.978   1.039 -3.1459 -2.5537 -0.4433
   82MOL0     H11005   0.510   4.156   0.858  0.8623  0.0356 -0.7126
   82MOL0     H11006   0.526   4.103   0.696 -0.7236  0.0848  0.0072
   82MOL0     H11007   0.273   4.088   0.870  1.3603  0.7998  0.7186
   82MOL0     H11008   0.276   4.032   0.712 -2.1538  0.3066 -0.7781
   82MOL0     H11009   0.287   4.321   0.828 -0.4111  1.6943 -0.4686
   82MOL0     H11010   0.177   4.269   0.698  1.0432  0.7756 -2.1750
   82MOL0     H11011   0.469   4.302   0.623  1.2438 -1.1149 -0.6660
   82MOL0     H11012   0.329   4.246   0.528 -0.5067 -1.5348 -0.1955
   82MOL0     H11013   0.219   4.483   0.581  0.6197 -0.0376 -1.2567
   82MOL0     H11014   0.380   4.536   0.631  1.8916 -0.3782  0.6967
   82MOL0     H11015   0.359   4.402   0.373 -0.4987 -2.1355  2.5026
   82MOL0     H11016   0.319   4.578   0.391 -2.1842 -1.8212  1.5891
   82MOL0     H11017   0.566   4.507   0.327  0.3836  1.0444  0.6869
   82MOL0     H11018   0.577   4.473   0.499 -0.8308  0.5835  0.7187
   82MOL0     H11019   0.510   4.741   0.358  1.3049 -1.5608 -1.7297
   82MOL0     H11020   0.514   4.710   0.532 -0.5032 -2.0652  1.4098
   82MOL0     H11021   0.707   4.808   0.251 -1.2559 -0.2913  0.2071
   82MOL0     H11022   1.009   4.941   0.334 -1.6373  0.4142 -0.4073
   82MOL0     H11023   1.095   4.792   0.313  0.5076  1.0488 -0.2813
   82MOL0     H11024   0.869   4.929   0.132 -0.5273  1.5839  2.0643
   82MOL0     H11025   1.039   4.942   0.107  0.0482  0.2245  1.5645
   82MOL0     H11026   0.913   4.664   0.090  1.9026 -1.2000 -1.0525
   82MOL0     H11027   1.055   4.727   0.022  0.2567  2.4745 -1.2105
   82MOL0     H11028   0.884   4.693  -0.145  1.8880  0.6200 -2.2650
   82MOL0     H11029   0.939   4.856  -0.157  0.1016  0.0924 -0.8528
   82MOL0     H11030   0.769   4.754  -0.335  0.4880  0.5862 -2.9411
   82MOL0     H11031   0.610   4.793  -0.501 -0.7150 -1.3552  0.4737
   82MOL0     H11032   0.284   4.744  -0.793 -3.0927 -0.9767  1.0000
   82MOL0     H11033   0.135   4.809  -0.953 -1.0813  1.4023  0.0151
   82MOL0     H11034   0.080   5.242  -1.073 -1.2946 -1.0714  0.1620
   82MOL0     H11035   0.244   5.204  -1.110  1.2166 -0.6354 -1.6410
   82MOL0     H11036   0.014   5.185  -1.310 -1.4586  0.7236  2.2522
   82MOL0     H11037   0.174   5.250  -1.318 -1.7490  1.6679 -0.7286
   82MOL0     H11038   0.282   5.039  -1.340  0.6385 -1.8594 -1.3991
   82MOL0     H11039   0.132   4.959  -1.291 -0.4002  0.4357 -0.4704
   82MOL0     H11040   0.168   5.120  -1.554 -1.8888  0.1299 -0.7955
   82MOL0     H11041   0.023   5.035  -1.482  0.3664  1.5576  3.4096
   82MOL0     H11042   0.181   4.823  -1.526  0.9531 -0.6164 -0.8304
   82MOL0     H11043   0.304   4.927  -1.557 -0.6141  2.6467  3.3164
   82MOL0     H11044   0.036   4.904  -1.717  0.8716 -0.2405 -1.7586
   82MOL0     H11045   0.147   5.007  -1.780 -2.9947  0.5469 -1.3925
   82MOL0     H11046   0.302   4.767  -1.739  1.1364  1.8104  0.8975
   82MOL0     H11047   0.257   4.833  -1.891  1.7759 -3.3029 -0.0813
   82MOL0     H11048   0.204   4.593  -1.838 -2.0752 -0.6788 -0.6397
   82MOL0     H11049   0.094   4.647  -1.708 -1.4510 -3.0938 -0.6586
   82MOL0     H11050   0.236   5.219  -0.882  0.9543  1.6504  3.4927
   82MOL0     H11051   0.377   5.149  -0.692 -4.6335  2.2936  0.3295
   82MOL0     H11052   0.355   4.997  -0.221  0.7156 -0.9865 -0.3982
   82MOL0     H11053   0.549   4.983  -0.050  1.5822  1.9269  0.4891
   82MOL0     H11054   0.655   3.794   0.665  1.7403  0.3846 -1.1437
   82MOL0     H11055   0.854   3.677   0.737 -0.0520  0.3739  0.1980
   82MOL0     H11056   1.148   3.682   1.129 -0.1964  0.4763 -1.6677
   82MOL0     H11057   1.371   3.604   1.210  0.2219  1.7189 -2.2568
   82MOL0     H11058   1.481   3.161   1.097 -0.9364  0.8029  1.0042
   82MOL0     H11059   1.600   3.226   1.201 -1.4039  2.9603  2.2474
   82MOL0     H11060   1.692   3.207   0.975 -1.5098 -0.8657 -1.6344
   82MOL0     H11061   1.677   3.380   1.031 -1.5867  0.2584  1.4462
   82MOL0     H11062   1.490   3.420   0.872  1.2109  0.4839  0.3974
   82MOL0     H11063   1.464   3.254   0.844 -0.7739 -0.1737 -1.0073
   82MOL0     H11064   1.699   3.430   0.736 -1.3099  1.3324 -2.6158
   82MOL0     H11065   1.708   3.256   0.744 -0.7408 -0.6690 -4.3121
   82MOL0     H11066   1.462   3.294   0.420 -0.1656  1.3429 -0.1970
   82MOL0     H11067   1.295   3.223   1.012 -1.8842  0.0234 -2.5299
   82MOL0     H11068   1.074   3.341   0.794  2.0871  0.4861  0.2925
   82MOL0     H11069   1.159   3.203   0.855 -1.0707  0.1289 -1.7480
   82MOL0     H11070   0.995   3.237   0.926  0.8665 -0.5645  1.4128
   83MOL0     O11071   9.459   0.028   0.664 -0.1446  0.0303  0.2777
   83MOL0     C11072   9.526  -0.047   0.598 -0.8340 -0.6509  0.1208
   83MOL0     O11073   9.657  -0.062   0.607  0.3906  0.1313  0.6567
   83MOL0     C11074   9.717  -0.080   0.725  0.4472 -0.0434 -0.5573
   83MOL0     C11075   9.847  -0.116   0.739 -0.1964 -0.3612  0.6274
   83MOL0     C11076   9.922  -0.153   0.851 -0.3002 -0.3153 -0.4163
   83MOL0     C11077   9.864  -0.134   0.976 -0.1201  0.4337 -1.1297
   83MOL0     O11078   9.932  -0.175   1.092 -0.8438 -0.5430  0.3396
   83MOL0     C11079   9.919  -0.106   1.217 -0.3622 -1.1308  0.3652
   83MOL0     C11080  10.003  -0.163   1.327  0.6506  0.0783  0.0476
   83MOL0     C11081   9.987  -0.311   1.341  0.6608  0.2279 -0.2647
   83MOL0     C11082   9.827  -0.342   1.363 -1.0391 -0.0960 -0.5834
   83MOL0     C11083   9.802  -0.478   1.432 -0.1611  0.0291 -0.1241
   83MOL0     C11084   9.676  -0.479   1.520  0.2618 -0.4226  0.9515
   83MOL0     C11085   9.660  -0.611   1.605 -0.2297 -0.1060 -0.8853
   83MOL0     C11086   9.590  -0.720   1.519 -0.4081  1.3117 -0.5135
   83MOL0     N11087   9.459  -0.662   1.508  0.1479  0.6376  1.0716
   83MOL0     C11088   9.356  -0.652   1.595 -0.3186 -0.9715 -0.4011
   83MOL0     C11089   9.257  -0.583   1.537 -0.1328  0.5055 -0.1337
   83MOL0     C11090   9.128  -0.559   1.610 -0.6672  0.2230 -0.5485
   83MOL0     C11091   9.019  -0.658   1.567  0.2880  0.8621 -0.3166
   83MOL0     C11092   9.024  -0.788   1.656 -0.6522 -0.6327 -0.0040
   83MOL0     C11093   8.916  -0.885   1.626  0.9772  0.5561  0.3856
   83MOL0     O11094   8.782  -0.834   1.637  0.2164 -0.1350  0.4468
   83MOL0     C11095   8.674  -0.916   1.640  0.4912 -0.7277 -0.0747
   83MOL0     C11096   8.677  -1.053   1.674  0.6336  0.8286 -0.6206
   83MOL0     C11097   8.555  -1.120   1.682  0.0983 -0.3582 -0.6680
   83MOL0     C11098   8.434  -1.057   1.652 -0.0393  0.4525 -0.2122
   83MOL0     C11099   8.306  -1.123   1.681  0.5267 -0.9737 -0.1320
   83MOL0     O11100   8.193  -1.064   1.622  0.4259 -0.1936  0.0901
   83MOL0     C11101   8.068  -1.124   1.643  0.2020 -0.3346 -0.0147
   83MOL0     C11102   8.030  -1.238   1.573 -0.7317  0.4890  0.0565
   83MOL0     C11103   7.912  -1.307   1.606  0.3210  0.2848 -0.0600
   83MOL0     C11104   7.836  -1.267   1.708  0.2345  0.3252 -0.2218
   83MOL0     O11105   7.727  -1.355   1.725 -0.3016 -0.1925  0.3045
   83MOL0     C11106   7.671  -1.365   1.862  0.0384  0.0604  0.3027
   83MOL0     C11107   7.568  -1.485   1.869 -0.1322 -0.3638  0.6368
   83MOL0     C11108   7.640  -1.617   1.829 -0.6173 -0.6322  0.7367
   83MOL0     C11109   7.544  -1.732   1.807  0.0340 -0.7049  0.0714
   83MOL0     C11110   7.613  -1.857   1.750  0.6694  0.7952  0.6202
   83MOL0     C11111   7.722  -1.928   1.839  0.2693  0.6836 -0.2760
   83MOL0     C11112   7.678  -1.995   1.967  0.1772  0.2736 -0.2385
   83MOL0     C11113   7.597  -2.119   1.923 -0.8702  0.2244 -0.6940
   83MOL0    Cl11114   7.714  -2.235   1.846 -0.1982  0.1917 -0.2890
   83MOL0     C11115   7.856  -1.143   1.773 -0.0914 -0.2088  0.0009
   83MOL0     C11116   7.976  -1.077   1.743 -0.6522  0.1416  0.6193
   83MOL0     O11117   8.302  -1.199   1.775 -0.2928  0.2706 -0.7112
   83MOL0     C11118   8.441  -0.930   1.584  0.3489  0.5120 -0.1492
   83MOL0     C11119   8.557  -0.856   1.595  0.1960 -0.6032 -0.4474
   83MOL0     N11120   9.291  -0.576   1.404 -0.6727 -0.1666  0.1241
   83MOL0     N11121   9.405  -0.631   1.385  1.1368  0.0041 -0.6893
   83MOL0     C11122   9.732  -0.097   0.975  0.6248 -0.2379  0.0772
   83MOL0     C11123   9.662  -0.074   0.857  0.0610  0.0618  0.4005
   83MOL0     C11124   9.459  -0.103   0.482  0.6926  0.0503  0.0401
   83MOL0     C11125   9.339  -0.051   0.437  0.0549 -1.0851 -0.5929
   83MOL0     C11126   9.262  -0.095   0.335  0.4018  0.0220 -0.0168
   83MOL0     C11127   9.298  -0.209   0.267  0.0537 -0.4418  0.2196
   83MOL0     O11128   9.239  -0.263   0.160 -0.3533  0.0121 -0.2897
   83MOL0     C11129   9.116  -0.331   0.190  0.1189  0.6273  0.6825
   83MOL0     C11130   9.146  -0.481   0.223  0.5037  0.2198 -0.8850
   83MOL0     C11131   9.220  -0.571   0.125 -0.1779 -0.6298 -0.6064
   83MOL0     C11132   9.217  -0.717   0.155  0.1927 -0.6637 -0.3719
   83MOL0     C11133   9.258  -0.727   0.295 -0.8170 -0.5212  1.2654
   83MOL0     C11134   9.300  -0.746   0.407 -0.1273  0.1140 -0.1345
   83MOL0     C11135   9.419  -0.273   0.305  0.7683  0.3995 -0.5491
   83MOL0     C11136   9.493  -0.218   0.409 -0.4876  0.0736  0.5536
   83MOL0     C11137   9.616  -0.296   0.446 -0.3322  0.0368 -0.5253
   83MOL0     H11138   9.909  -0.118   0.650  2.0434  0.6396  2.0722
   83MOL0     H11139  10.023  -0.192   0.858 -1.0020 -2.9170 -3.0804
   83MOL0     H11140   9.949  -0.001   1.210  0.9411 -1.1352  3.9425
   83MOL0     H11141   9.815  -0.099   1.249  0.1559  1.5662  1.7408
   83MOL0     H11142   9.990  -0.112   1.423 -0.5782 -3.0408  1.6959
   83MOL0     H11143  10.107  -0.143   1.299  0.0248  3.5240 -0.1831
   83MOL0     H11144  10.056  -0.356   1.413  3.2649  3.4382 -0.5221
   83MOL0     H11145  10.013  -0.368   1.251  1.1792  1.2514 -0.7772
   83MOL0     H11146   9.769  -0.259   1.404 -0.4516  0.3964 -0.7326
   83MOL0     H11147   9.784  -0.364   1.265 -2.4369 -1.2266  0.2377
   83MOL0     H11148   9.816  -0.552   1.353  0.3835 -1.9975  1.7637
   83MOL0     H11149   9.886  -0.497   1.501 -1.3456  4.0153  2.7960
   83MOL0     H11150   9.695  -0.387   1.576 -0.6084  1.1586 -1.1903
   83MOL0     H11151   9.581  -0.470   1.467 -0.5171 -1.2122  2.1742
   83MOL0     H11152   9.599  -0.599   1.695  1.4932 -1.0592  0.4567
   83MOL0     H11153   9.762  -0.632   1.638 -0.3048  0.3920 -0.3211
   83MOL0     H11154   9.640  -0.732   1.423 -1.0097 -0.1719 -0.6577
   83MOL0     H11155   9.603  -0.817   1.568 -1.1197  1.2714 -0.3968
   83MOL0     H11156   9.350  -0.673   1.702  1.8608  0.3327  0.0369
   83MOL0     H11157   9.142  -0.553   1.719  5.6121 -2.3372 -0.7865
   83MOL0     H11158   9.097  -0.456   1.589 -1.5260  0.7198  2.5214
   83MOL0     H11159   8.921  -0.610   1.582  0.7392  0.9136  3.5412
   83MOL0     H11160   9.036  -0.682   1.462  1.0431 -0.3935  0.0820
   83MOL0     H11161   9.009  -0.771   1.763  2.1634 -1.0149  0.5280
   83MOL0     H11162   9.128  -0.819   1.647 -0.3604  0.2537  0.2286
   83MOL0     H11163   8.932  -0.972   1.690 -0.2734 -0.5264 -0.7194
   83MOL0     H11164   8.923  -0.928   1.525  1.0927 -2.6509  1.6571
   83MOL0     H11165   8.765  -1.107   1.708 -0.8354 -0.8249  0.6846
   83MOL0     H11166   8.556  -1.223   1.718  0.9488 -0.5890 -1.3329
   83MOL0     H11167   8.101  -1.275   1.501 -0.4968 -1.2763  1.1420
   83MOL0     H11168   7.883  -1.401   1.561 -0.4361  0.6039 -0.2503
   83MOL0     H11169   7.754  -1.382   1.931  1.8740  1.6876 -1.3676
   83MOL0     H11170   7.625  -1.270   1.891  0.4674 -0.1906  1.8879
   83MOL0     H11171   7.512  -1.489   1.962 -2.5110 -0.1148 -0.7127
   83MOL0     H11172   7.490  -1.460   1.796  2.7078  3.0207 -1.6296
   83MOL0     H11173   7.695  -1.597   1.736  1.1590 -0.7421  1.7228
   83MOL0     H11174   7.713  -1.645   1.905 -1.1656 -3.1012  0.4345
   83MOL0     H11175   7.462  -1.711   1.738  1.3397  1.3858 -0.9382
   83MOL0     H11176   7.490  -1.753   1.900 -0.2362  2.3880  0.7344
   83MOL0     H11177   7.647  -1.834   1.649 -0.3239 -0.8998 -0.1369
   83MOL0     H11178   7.540  -1.935   1.728  2.8548 -1.1765 -0.0964
   83MOL0     H11179   7.775  -1.992   1.768 -2.8621 -0.0945 -2.1317
   83MOL0     H11180   7.799  -1.855   1.865  0.2377 -0.5001  3.8345
   83MOL0     H11181   7.626  -1.928   2.035 -1.8575 -2.8849  1.5736
   83MOL0     H11182   7.771  -2.031   2.013 -0.0185  0.1263  0.0401
   83MOL0     H11183   7.555  -2.171   2.009  0.3586 -4.0373 -2.4294
   83MOL0     H11184   7.522  -2.080   1.853 -1.1950 -0.7470 -0.9066
   83MOL0     H11185   7.785  -1.107   1.847 -0.0179  0.4811 -0.2547
   83MOL0     H11186   7.995  -0.982   1.793 -2.4716  1.2434 -0.6540
   83MOL0     H11187   8.350  -0.880   1.551  1.6185  2.2965 -1.0649
   83MOL0     H11188   8.573  -0.763   1.541  0.2077 -0.8035 -0.7972
   83MOL0     H11189   9.691  -0.099   1.075  0.6174  1.0054  0.1125
   83MOL0     H11190   9.559  -0.041   0.854  0.9845  3.2002 -0.5030
   83MOL0     H11191   9.288   0.022   0.500 -3.0201 -1.4350 -2.4527
   83MOL0     H11192   9.163  -0.055   0.320 -0.0422 -0.3611  1.6265
   83MOL0     H11193   9.061  -0.334   0.095 -2.1965  0.6481  1.9540
   83MOL0     H11194   9.049  -0.279   0.259  0.8850  0.4310  1.5924
   83MOL0     H11195   9.053  -0.535   0.247  0.3636  0.5790 -0.6223
   83MOL0     H11196   9.199  -0.487   0.319 -1.9034 -0.1860  0.5239
   83MOL0     H11197   9.320  -0.526   0.125 -0.9563  1.3770 -3.2582
   83MOL0     H11198   9.183  -0.549   0.025 -0.5665 -2.4554 -0.8982
   83MOL0     H11199   9.116  -0.755   0.141 -0.3641  0.3952  0.5858
   83MOL0     H11200   9.287  -0.762   0.083  0.2029 -2.2776  0.5995
   83MOL0     H11201   9.331  -0.726   0.508 -2.9893  2.1178  0.4795
   83MOL0     H11202   9.441  -0.370   0.262  0.8359  0.7024 -1.2140
   83MOL0     H11203   9.701  -0.227   0.438 -1.2740  1.1154 -1.5590
   83MOL0     H11204   9.616  -0.337   0.548 -0.1254 -0.9649 -0.9200
   83MOL0     H11205   9.638  -0.384   0.385 -1.2047 -1.4585  1.2117
   84MOL0     O11206   0.079  11.220   0.723  0.4137 -0.7974  0.6424
   84MOL0     C11207  -0.019  11.242   0.653  0.5016 -0.3681 -0.2340
   84MOL0     O11208  -0.024  11.344   0.557 -0.4960  0.3756 -0.6798
   84MOL0     C11209   0.073  11.436   0.544 -0.6705 -0.4967 -0.0563
   84MOL0     C11210   0.085  11.527   0.651 -0.3788  0.0331  0.2613
   84MOL0     C11211   0.191  11.622   0.652  0.0633  0.3543 -0.6771
   84MOL0     C11212   0.278  11.641   0.549  0.1756 -0.5407  0.2556
   84MOL0     O11213   0.380  11.737   0.560  0.8496 -0.8794  0.3068
   84MOL0     C11214   0.514  11.691   0.555  0.5773  0.1699  0.3086
   84MOL0     C11215   0.597  11.786   0.464 -0.2573 -0.6443 -0.0223
   84MOL0     C11216   0.540  11.806   0.318 -0.1432  0.1467 -0.0229
   84MOL0     C11217   0.590  11.928   0.236  0.1022  0.0102  0.4137
   84MOL0     C11218   0.550  11.928   0.083  0.4092 -0.1372 -0.0767
   84MOL0     C11219   0.394  11.935   0.070  0.2342 -0.9325 -0.2818
   84MOL0     C11220   0.335  12.064   0.138  0.0366  0.1789  0.1720
   84MOL0     C11221   0.208  12.105   0.073  0.2671  0.9458 -0.5960
   84MOL0     N11222   0.166  12.237   0.137  0.3713  0.0445 -0.4900
   84MOL0     C11223   0.038  12.273   0.179  0.1186 -0.0600  0.0353
   84MOL0     C11224   0.048  12.384   0.250 -0.2277  0.4797 -0.3420
   84MOL0     C11225  -0.048  12.461   0.329 -0.3820 -0.9442  0.9776
   84MOL0     C11226  -0.091  12.591   0.256 -0.4908 -0.1116 -1.1599
   84MOL0     C11227  -0.168  12.548   0.125 -0.0977 -0.5569 -0.0653
   84MOL0     C11228  -0.311  12.508   0.150  0.6710  0.7496  0.8324
   84MOL0     O11229  -0.413  12.600   0.105  0.5057  0.3564  0.7461
   84MOL0     C11230  -0.548  12.561   0.113 -0.1501  0.0056  0.5196
   84MOL0     C11231  -0.640  12.658   0.107  0.4185  0.4448  0.3830
   84MOL0     C11232  -0.779  12.640   0.107 -0.2020 -0.4502 -0.4844
   84MOL0     C11233  -0.823  12.510   0.134 -1.1866 -0.2322 -0.3988
   84MOL0     C11234  -0.969  12.486   0.158 -0.2364  0.0685  0.1712
   84MOL0     O11235  -1.056  12.581   0.134  0.2397  0.0207  0.4396
   84MOL0     C11236  -1.180  12.568   0.185 -0.2357  0.2886 -0.5676
   84MOL0     C11237  -1.259  12.449   0.166  0.2086 -0.5951  0.1631
   84MOL0     C11238  -1.395  12.441   0.204 -0.6610  0.2088 -0.2017
   84MOL0     C11239  -1.451  12.556   0.253  0.4945  0.6041 -1.1457
   84MOL0     O11240  -1.588  12.531   0.284  0.3156 -0.2950 -0.2109
   84MOL0     C11241  -1.669  12.623   0.219 -1.3453 -0.5767  0.1159
   84MOL0     C11242  -1.816  12.582   0.235  1.3287  0.2939 -0.0274
   84MOL0     C11243  -1.909  12.674   0.161  0.0263 -0.5916  0.0974
   84MOL0     C11244  -1.878  12.672   0.016  0.2355  0.4124  0.3249
   84MOL0     C11245  -1.983  12.716  -0.084 -0.1814 -0.1092  0.5444
   84MOL0     C11246  -1.914  12.746  -0.224  0.3464  0.2745 -0.4860
   84MOL0     C11247  -1.882  12.613  -0.291 -0.3184  0.1218  0.2551
   84MOL0     C11248  -1.829  12.630  -0.438  0.4631 -0.0068 -0.3364
   84MOL0    Cl11249  -1.837  12.483  -0.538 -0.2882  0.3330 -0.0640
   84MOL0     C11250  -1.376  12.667   0.273 -0.1535  0.0071 -0.2299
   84MOL0     C11251  -1.235  12.675   0.244 -0.4352 -0.0343  1.1608
   84MOL0     O11252  -0.997  12.377   0.210  0.1013 -0.4479 -0.2316
   84MOL0     C11253  -0.725  12.405   0.158  0.0615 -0.6544 -0.6325
   84MOL0     C11254  -0.592  12.428   0.134 -0.2981  0.2366 -0.1647
   84MOL0     N11255   0.176  12.424   0.238 -0.3639  0.1964 -0.3873
   84MOL0     N11256   0.249  12.336   0.169  0.2387 -0.3398 -0.1967
   84MOL0     C11257   0.235  11.572   0.431  0.0569 -0.5134  0.8172
   84MOL0     C11258   0.141  11.472   0.428  0.1804  0.4708  0.4119
   84MOL0     C11259  -0.134  11.150   0.681  0.2049  0.4788  0.0778
   84MOL0     C11260  -0.152  11.110   0.818 -0.6307 -0.0896 -0.0118
   84MOL0     C11261  -0.254  11.028   0.855 -1.1227 -0.2382 -0.0119
   84MOL0     C11262  -0.329  10.968   0.758  0.6246  1.3204  0.3665
   84MOL0     O11263  -0.416  10.859   0.783  0.3465 -0.5740  0.2236
   84MOL0     C11264  -0.432  10.826   0.917 -0.6514  0.3487  0.4584
   84MOL0     C11265  -0.544  10.719   0.917  0.8006  0.7403  0.3313
   84MOL0     C11266  -0.576  10.691   1.066 -0.6128 -0.4003  0.3285
   84MOL0     C11267  -0.651  10.563   1.095 -0.4142  0.1768 -0.1103
   84MOL0     C11268  -0.683  10.544   1.235 -0.3539  0.2462 -0.0997
   84MOL0     C11269  -0.707  10.523   1.348  0.4363  0.3390 -0.8552
   84MOL0     C11270  -0.302  10.986   0.621 -0.5642 -0.3610  0.0578
   84MOL0     C11271  -0.204  11.083   0.583 -0.1665  0.2925 -0.0263
   84MOL0     C11272  -0.179  11.100   0.434 -0.6658  0.7048  0.1918
   84MOL0     H11273   0.025  11.529   0.741 -0.8753  1.6044 -0.0714
   84MOL0     H11274   0.189  11.680   0.744 -1.7096  0.2989 -0.6423
   84MOL0     H11275   0.552  11.679   0.658  0.2708 -0.9847  0.3061
   84MOL0     H11276   0.516  11.591   0.509  0.6472 -0.8405  2.3644
   84MOL0     H11277   0.696  11.740   0.459 -0.7981 -1.7255 -3.3269
   84MOL0     H11278   0.597  11.884   0.513 -1.3689 -0.1357 -1.0071
   84MOL0     H11279   0.431  11.810   0.318 -0.1294  2.0184  1.1954
   84MOL0     H11280   0.566  11.714   0.265 -2.9428 -1.5656  1.3463
   84MOL0     H11281   0.562  12.022   0.284  3.4740  1.7976 -0.8332
   84MOL0     H11282   0.699  11.924   0.238  0.1602 -0.7210 -1.7226
   84MOL0     H11283   0.605  12.015   0.045 -2.0541  1.1930 -0.8311
   84MOL0     H11284   0.588  11.836   0.038 -2.6120 -1.5864  0.1401
   84MOL0     H11285   0.363  11.939  -0.035  0.3861  2.8192 -0.2993
   84MOL0     H11286   0.359  11.842   0.115  1.2924 -0.5582  1.3961
   84MOL0     H11287   0.412  12.141   0.131 -2.0199  2.2002 -2.2193
   84MOL0     H11288   0.326  12.045   0.245  0.2017  1.1876  0.3683
   84MOL0     H11289   0.226  12.113  -0.035  2.4795  0.1846 -0.3477
   84MOL0     H11290   0.130  12.031   0.090  1.3005 -0.6013 -2.2393
   84MOL0     H11291  -0.056  12.220   0.169 -0.1725  0.6194 -0.9023
   84MOL0     H11292  -0.133  12.394   0.345 -0.7622 -0.4419  1.1112
   84MOL0     H11293  -0.005  12.483   0.427 -0.2108  0.0184  0.6956
   84MOL0     H11294  -0.140  12.660   0.325  1.0116  0.9191 -1.0928
   84MOL0     H11295   0.002  12.641   0.228  0.5054 -0.3638  1.4251
   84MOL0     H11296  -0.116  12.465   0.077  0.6780 -1.0689  1.5945
   84MOL0     H11297  -0.178  12.630   0.053  2.1146  0.5984  0.8287
   84MOL0     H11298  -0.333  12.480   0.254 -2.7686 -2.0084 -0.4313
   84MOL0     H11299  -0.329  12.421   0.086 -0.1446  1.1170  0.5520
   84MOL0     H11300  -0.596  12.755   0.091  1.1242 -0.0207 -0.5818
   84MOL0     H11301  -0.841  12.728   0.099  0.9373  0.5923  1.3080
   84MOL0     H11302  -1.217  12.365   0.110  1.1577  0.3105 -0.5098
   84MOL0     H11303  -1.458  12.356   0.182 -1.4534  0.8404 -0.4397
   84MOL0     H11304  -1.638  12.716   0.266  1.5958 -2.1966  1.6696
   84MOL0     H11305  -1.640  12.617   0.114  2.0636 -1.8304  0.9893
   84MOL0     H11306  -1.829  12.487   0.182 -0.7469  0.1150  0.6986
   84MOL0     H11307  -1.856  12.564   0.335  1.4254 -0.7185 -0.1594
   84MOL0     H11308  -2.009  12.639   0.185  0.4694 -2.1069 -0.2073
   84MOL0     H11309  -1.891  12.772   0.207  1.9579 -1.8585  2.2124
   84MOL0     H11310  -1.840  12.576  -0.021 -1.7811 -0.6178  0.8028
   84MOL0     H11311  -1.796  12.744   0.008  3.3482 -2.7728  0.8164
   84MOL0     H11312  -2.020  12.815  -0.055 -2.6307 -1.3499  2.0780
   84MOL0     H11313  -2.054  12.633  -0.094  0.5081 -0.5173 -1.5044
   84MOL0     H11314  -1.984  12.807  -0.282 -3.2643  1.3524  4.3637
   84MOL0     H11315  -1.824  12.809  -0.217  0.7282 -0.4586  1.8640
   84MOL0     H11316  -1.979  12.564  -0.304 -1.7940  3.0975 -1.1868
   84MOL0     H11317  -1.811  12.555  -0.232 -0.9779 -0.3674  0.5796
   84MOL0     H11318  -1.883  12.708  -0.493  4.2326  2.1194 -1.4109
   84MOL0     H11319  -1.724  12.661  -0.438  0.2542  0.7287 -0.7306
   84MOL0     H11320  -1.417  12.763   0.302  0.4731 -0.3506  2.0145
   84MOL0     H11321  -1.188  12.771   0.258 -1.0684  0.9133 -2.2533
   84MOL0     H11322  -0.754  12.302   0.179  4.1738 -2.5718 -3.1214
   84MOL0     H11323  -0.536  12.335   0.131 -1.4162 -0.4443 -3.3830
   84MOL0     H11324   0.284  11.587   0.336 -0.4399 -3.4307  0.0078
   84MOL0     H11325   0.107  11.435   0.333 -1.3491  2.0159  0.2966
   84MOL0     H11326  -0.090  11.149   0.898 -0.4055 -2.3918  1.0197
   84MOL0     H11327  -0.272  11.016   0.962 -0.5836  1.9849  0.3957
   84MOL0     H11328  -0.463  10.901   0.991  0.7374 -1.2740  2.8255
   84MOL0     H11329  -0.337  10.782   0.950 -0.5106 -0.5761 -1.0699
   84MOL0     H11330  -0.504  10.626   0.876  0.3101  1.6794 -2.4777
   84MOL0     H11331  -0.625  10.751   0.852  2.7615  1.8014 -1.7302
   84MOL0     H11332  -0.628  10.781   1.103 -1.7213 -0.5349 -0.8284
   84MOL0     H11333  -0.483  10.682   1.123  2.4308  0.7281 -3.9765
   84MOL0     H11334  -0.742  10.551   1.037 -1.1639  1.7348  0.6713
   84MOL0     H11335  -0.586  10.482   1.059  0.7140  1.2273 -0.5232
   84MOL0     H11336  -0.729  10.502   1.451  2.6533 -1.6048 -0.6994
   84MOL0     H11337  -0.357  10.923   0.552 -1.3634 -1.0018  1.2533
   84MOL0     H11338  -0.077  11.135   0.418  0.9425 -1.3777  4.4162
   84MOL0     H11339  -0.192  11.005   0.383 -0.0959 -0.1754  1.6212
   84MOL0     H11340  -0.246  11.175   0.390  0.1716  1.6483  0.4864
   85MOL0     O11341   5.080   1.943   8.129  0.2993  1.1626  0.9795
   85MOL0     C11342   5.152   1.845   8.146  0.2531  0.3532 -0.4921
   85MOL0     O11343   5.281   1.853   8.203 -0.4817 -0.6636  0.6405
   85MOL0     C11344   5.336   1.970   8.225 -0.4354  0.4744 -0.4766
   85MOL0     C11345   5.277   2.073   8.313 -0.5786  0.4971 -0.2200
   85MOL0     C11346   5.341   2.196   8.335 -0.2122  1.0456 -0.8368
   85MOL0     C11347   5.465   2.211   8.288  0.4969  0.2728 -0.0618
   85MOL0     O11348   5.544   2.312   8.340  0.0568 -0.0791  0.7462
   85MOL0     C11349   5.689   2.306   8.331 -0.9989  0.3711  0.0085
   85MOL0     C11350   5.753   2.433   8.387  0.9077 -0.3328 -0.2368
   85MOL0     C11351   5.908   2.426   8.396 -0.4437  0.1952 -1.5262
   85MOL0     C11352   5.964   2.299   8.472 -0.3628  0.3754 -0.2364
   85MOL0     C11353   5.898   2.273   8.611  0.0013 -0.8542 -0.1885
   85MOL0     C11354   5.988   2.180   8.702 -0.2011  0.1896 -1.2687
   85MOL0     C11355   5.921   2.182   8.845  0.4720  0.3626 -0.1657
   85MOL0     C11356   5.987   2.067   8.929  0.9946  0.0592  0.7417
   85MOL0     N11357   6.128   2.087   8.955 -0.9830 -0.3426 -0.0510
   85MOL0     C11358   6.195   2.184   9.030 -0.0334 -0.2598  0.4240
   85MOL0     C11359   6.326   2.157   9.022 -0.0642 -0.0642  1.3428
   85MOL0     C11360   6.424   2.262   9.071 -0.1821  1.3780  0.0132
   85MOL0     C11361   6.533   2.186   9.142 -0.3576  0.2404 -0.3586
   85MOL0     C11362   6.521   2.195   9.291 -0.5305 -0.2413 -0.6548
   85MOL0     C11363   6.621   2.116   9.373 -0.1345 -0.4862 -0.4161
   85MOL0     O11364   6.566   2.039   9.482  0.2124 -0.0053  0.6415
   85MOL0     C11365   6.506   2.109   9.579  0.1580 -0.9689  1.4267
   85MOL0     C11366   6.562   2.240   9.621 -0.5679  0.9582  0.2670
   85MOL0     C11367   6.513   2.303   9.736 -0.3548 -0.0619  0.8159
   85MOL0     C11368   6.405   2.248   9.806  0.0861  0.7913  0.4221
   85MOL0     C11369   6.343   2.316   9.923 -0.0437  0.1083  0.3966
   85MOL0     O11370   6.416   2.413   9.973  1.0287 -0.8392  0.2690
   85MOL0     C11371   6.368   2.472  10.084  0.3654  0.4267 -1.1076
   85MOL0     C11372   6.382   2.414  10.215  0.6987  0.0289  0.9589
   85MOL0     C11373   6.332   2.469  10.327  1.0243  0.0778  0.6389
   85MOL0     C11374   6.286   2.598  10.313  0.0805  0.2191 -0.0912
   85MOL0     O11375   6.239   2.680  10.414 -0.2037 -0.4029 -0.1159
   85MOL0     C11376   6.164   2.622  10.522  0.4113  0.3301 -0.3746
   85MOL0     C11377   6.079   2.718  10.596  0.1371 -0.6482  0.9923
   85MOL0     C11378   6.162   2.830  10.664 -0.4076 -0.1988  0.0239
   85MOL0     C11379   6.234   2.813  10.799  0.7071 -0.3048 -0.4627
   85MOL0     C11380   6.346   2.916  10.811 -0.1587  1.3700  0.0890
   85MOL0     C11381   6.411   2.907  10.956 -1.0780 -0.6860 -0.4220
   85MOL0     C11382   6.558   2.947  10.961  0.7688 -0.3300  1.7376
   85MOL0     C11383   6.602   2.968  11.105  1.2994  0.7012  0.0101
   85MOL0    Cl11384   6.779   2.975  11.127 -0.2291 -0.5773  0.0151
   85MOL0     C11385   6.277   2.662  10.191  0.5433 -0.2247 -0.4124
   85MOL0     C11386   6.303   2.588  10.078  0.0129  0.2818  0.6820
   85MOL0     O11387   6.235   2.274   9.961  0.4005 -0.2644 -0.2694
   85MOL0     C11388   6.353   2.126   9.763  0.5929 -0.0246  0.1759
   85MOL0     C11389   6.399   2.057   9.652  0.2313  0.8304  0.0539
   85MOL0     N11390   6.336   2.050   8.930 -0.8008 -0.3514  0.1154
   85MOL0     N11391   6.224   2.002   8.905  0.0128  0.0909 -0.2332
   85MOL0     C11392   5.513   2.127   8.187  0.5073  0.2714  0.0749
   85MOL0     C11393   5.445   2.009   8.151  0.4793 -0.6466 -0.3237
   85MOL0     C11394   5.085   1.708   8.127  0.6177  0.8899 -0.0913
   85MOL0     C11395   4.950   1.711   8.083  1.2259  0.1177 -0.6688
   85MOL0     C11396   4.875   1.593   8.049 -0.5358 -0.5169  0.5569
   85MOL0     C11397   4.936   1.475   8.069 -0.3975  0.8079  0.0184
   85MOL0     O11398   4.872   1.346   8.056 -0.1604 -0.5824 -0.0710
   85MOL0     C11399   4.737   1.339   8.113  0.4755  0.4471  0.5764
   85MOL0     C11400   4.713   1.192   8.153  0.8346  0.4871  0.0433
   85MOL0     C11401   4.784   1.150   8.284 -0.6239 -0.3662  0.1968
   85MOL0     C11402   4.875   1.032   8.279 -1.1630  0.2403  0.6546
   85MOL0     C11403   4.787   0.920   8.257 -0.1941  0.5343 -0.7005
   85MOL0     C11404   4.718   0.827   8.244 -0.1465  0.0001 -0.1623
   85MOL0     C11405   5.072   1.469   8.122 -0.1825 -0.1729  0.4833
   85MOL0     C11406   5.149   1.579   8.137 -0.9667 -0.3376 -0.0626
   85MOL0     C11407   5.293   1.567   8.173  0.1652  0.2693  0.1353
   85MOL0     H11408   5.190   2.045   8.371  1.3591  0.5585  2.9351
   85MOL0     H11409   5.306   2.279   8.395  2.0641  1.4726 -0.0317
   85MOL0     H11410   5.720   2.221   8.392 -0.2143  2.5614  2.9031
   85MOL0     H11411   5.731   2.303   8.230 -0.2585  6.0965 -0.2024
   85MOL0     H11412   5.715   2.446   8.489 -0.0697 -1.3038 -0.4596
   85MOL0     H11413   5.729   2.515   8.319  0.3679 -1.2637 -1.1881
   85MOL0     H11414   5.943   2.511   8.455 -1.8276  0.7401 -1.4581
   85MOL0     H11415   5.950   2.426   8.295 -0.0157 -1.2576 -1.3786
   85MOL0     H11416   5.962   2.206   8.416  0.5034 -1.0298  1.9477
   85MOL0     H11417   6.070   2.319   8.491  0.2213 -2.4077 -0.1403
   85MOL0     H11418   5.875   2.370   8.656 -0.0583  0.3118 -2.6143
   85MOL0     H11419   5.800   2.227   8.592 -0.8811  0.1880  1.5619
   85MOL0     H11420   5.984   2.081   8.656  3.2637  0.7143 -3.0333
   85MOL0     H11421   6.093   2.210   8.705 -0.4967  1.1789  0.8152
   85MOL0     H11422   5.817   2.152   8.832  1.3866 -3.8500  0.6877
   85MOL0     H11423   5.930   2.277   8.899  0.8377  1.2670 -1.7693
   85MOL0     H11424   5.938   2.060   9.027  1.3262 -2.1338  0.7966
   85MOL0     H11425   5.981   1.970   8.878 -2.3014 -0.8094  2.5018
   85MOL0     H11426   6.141   2.266   9.076 -0.3692 -0.2562  0.0285
   85MOL0     H11427   6.466   2.313   8.984  1.0209  0.0392 -0.2275
   85MOL0     H11428   6.380   2.339   9.135  2.0504  1.7344  1.1829
   85MOL0     H11429   6.528   2.079   9.120 -2.2164  0.6885 -2.4429
   85MOL0     H11430   6.623   2.227   9.095  0.3745 -2.6679 -1.7323
   85MOL0     H11431   6.422   2.168   9.327 -0.1242 -1.7870 -0.6259
   85MOL0     H11432   6.530   2.301   9.318  4.7170 -0.4998 -0.2632
   85MOL0     H11433   6.695   2.188   9.407 -1.5292  0.6415  0.3576
   85MOL0     H11434   6.680   2.051   9.308 -1.6258 -2.7419  0.3889
   85MOL0     H11435   6.649   2.287   9.577 -1.3623  1.5369 -0.7581
   85MOL0     H11436   6.570   2.388   9.774  1.0529 -0.2296 -0.8039
   85MOL0     H11437   6.437   2.320  10.219  1.0987  0.2717  1.2529
   85MOL0     H11438   6.340   2.418  10.423  3.9629 -1.3992 -0.2597
   85MOL0     H11439   6.102   2.541  10.482  0.3264 -1.2191  2.5699
   85MOL0     H11440   6.227   2.573  10.597 -2.1265  0.0978  1.7540
   85MOL0     H11441   6.002   2.760  10.530  1.2026  1.1386  0.8394
   85MOL0     H11442   6.024   2.666  10.676 -2.6201  1.5723  0.6989
   85MOL0     H11443   6.239   2.844  10.587  1.0242  2.7895  1.8221
   85MOL0     H11444   6.100   2.920  10.659 -1.7069 -1.1014 -3.2190
   85MOL0     H11445   6.270   2.710  10.807 -2.6935 -1.6161 -0.2154
   85MOL0     H11446   6.171   2.830  10.887 -1.4937 -0.3733 -1.9470
   85MOL0     H11447   6.303   3.017  10.810 -2.2908  0.5778  2.5963
   85MOL0     H11448   6.419   2.903  10.730  0.7475  0.4668  1.0350
   85MOL0     H11449   6.352   2.965  11.027 -1.1807 -1.6614  0.3111
   85MOL0     H11450   6.423   2.801  10.981  0.3862 -1.1958 -2.9378
   85MOL0     H11451   6.574   3.043  10.911 -2.9940  0.4069  1.6987
   85MOL0     H11452   6.611   2.864  10.912 -0.9145 -2.1361  2.8382
   85MOL0     H11453   6.552   3.063  11.128 -1.2013 -0.5484  0.1006
   85MOL0     H11454   6.539   2.898  11.161 -1.7951  1.6835 -1.9530
   85MOL0     H11455   6.234   2.762  10.191 -2.1607 -1.2625 -2.4499
   85MOL0     H11456   6.292   2.627   9.976  1.4947 -0.7814  0.0862
   85MOL0     H11457   6.280   2.080   9.828  0.3829 -1.0491 -0.7576
   85MOL0     H11458   6.373   1.953   9.633 -2.9180  1.2962  1.2108
   85MOL0     H11459   5.608   2.139   8.136  0.9333 -0.8474  0.5626
   85MOL0     H11460   5.486   1.938   8.080  0.3991  0.2764 -1.3201
   85MOL0     H11461   4.894   1.804   8.078 -1.5542 -1.0794  3.2766
   85MOL0     H11462   4.771   1.609   8.022 -0.5839  0.5440  1.2894
   85MOL0     H11463   4.661   1.368   8.040  1.2518 -0.5434 -0.6680
   85MOL0     H11464   4.736   1.414   8.192 -0.3528  0.6589  0.3796
   85MOL0     H11465   4.734   1.129   8.066  0.4402 -0.1961  0.4263
   85MOL0     H11466   4.607   1.180   8.175  0.7354 -1.9982 -1.4111
   85MOL0     H11467   4.709   1.123   8.359 -0.8905  0.3936  0.2115
   85MOL0     H11468   4.851   1.231   8.315 -0.3886 -1.4815  2.8831
   85MOL0     H11469   4.957   1.044   8.207 -1.9163  1.6088 -0.0102
   85MOL0     H11470   4.926   1.014   8.374  1.7559  3.0529 -0.2075
   85MOL0     H11471   4.669   0.736   8.214 -2.4940  0.8156  0.9525
   85MOL0     H11472   5.127   1.378   8.144  1.9204  0.8518 -0.2205
   85MOL0     H11473   5.334   1.468   8.154 -1.1149 -0.7034  2.1059
   85MOL0     H11474   5.343   1.641   8.111 -1.1405  1.3721  0.3467
   85MOL0     H11475   5.311   1.584   8.280  1.1714 -2.4168  0.4563
   86MOL0     O11476   5.265   0.524  11.470  0.3376 -0.3499  0.8092
   86MOL0     C11477   5.152   0.501  11.428  0.5768  0.3637  0.1607
   86MOL0     O11478   5.103   0.538  11.300 -0.4588 -0.3649 -0.2152
   86MOL0     C11479   5.167   0.635  11.224  0.2797 -0.3686  0.7028
   86MOL0     C11480   5.164   0.629  11.078 -0.8334  0.8603 -1.0445
   86MOL0     C11481   5.221   0.721  10.997  0.3445  0.8390 -0.1671
   86MOL0     C11482   5.280   0.834  11.049 -1.0760  0.1095  0.1891
   86MOL0     O11483   5.350   0.934  10.980 -0.6427 -1.0246 -0.4007
   86MOL0     C11484   5.431   0.898  10.862  0.3920  0.4286 -0.1061
   86MOL0     C11485   5.361   0.935  10.728 -0.4288  0.1119 -0.0915
   86MOL0     C11486   5.325   1.080  10.718  0.5795 -0.5463 -0.4203
   86MOL0     C11487   5.436   1.180  10.699 -0.4320 -0.5680  0.2094
   86MOL0     C11488   5.386   1.325  10.723  0.3174  0.0417 -0.2675
   86MOL0     C11489   5.481   1.429  10.662  1.2442  0.7604 -0.1310
   86MOL0     C11490   5.414   1.578  10.679 -0.4635  0.0458 -0.0827
   86MOL0     C11491   5.437   1.613  10.829  0.8341 -0.3077 -0.3956
   86MOL0     N11492   5.383   1.742  10.856 -0.8539 -1.5586  0.0864
   86MOL0     C11493   5.364   1.852  10.781 -0.2431 -0.3962  0.0379
   86MOL0     C11494   5.308   1.943  10.866 -0.0921  0.3832  0.6016
   86MOL0     C11495   5.284   2.088  10.825 -0.2052 -0.3371 -0.8838
   86MOL0     C11496   5.182   2.089  10.722  0.2257  0.3713  0.5305
   86MOL0     C11497   5.041   2.072  10.789  0.1749 -0.0746 -0.7041
   86MOL0     C11498   4.933   2.062  10.677  0.3886 -0.1123  0.3367
   86MOL0     O11499   4.946   2.184  10.603  0.6115 -0.0604  0.7345
   86MOL0     C11500   4.962   2.195  10.469  0.2626 -0.5301  0.1495
   86MOL0     C11501   5.013   2.312  10.418  0.1829  0.2115 -0.6598
   86MOL0     C11502   5.032   2.322  10.275  0.7238  0.1544  0.0417
   86MOL0     C11503   4.982   2.220  10.187 -0.2670 -0.0658 -0.5690
   86MOL0     C11504   4.997   2.221  10.042 -0.1383  0.1975 -0.3264
   86MOL0     O11505   4.987   2.106   9.977 -0.1005 -0.2224  0.4397
   86MOL0     C11506   5.027   2.105   9.843 -0.5495 -0.2675  1.7499
   86MOL0     C11507   5.166   2.121   9.822  0.5672 -0.0090  0.3896
   86MOL0     C11508   5.210   2.121   9.685 -0.2236  0.2365 -0.0754
   86MOL0     C11509   5.119   2.108   9.579  0.4134 -0.0133 -0.0640
   86MOL0     O11510   5.159   2.124   9.444 -0.1277  1.1348  0.4606
   86MOL0     C11511   5.281   2.187   9.425  0.4681 -0.9876 -0.3162
   86MOL0     C11512   5.307   2.231   9.277  0.0590  0.7283 -0.1467
   86MOL0     C11513   5.312   2.093   9.200 -0.9890  0.2137  1.3637
   86MOL0     C11514   5.432   2.015   9.229  0.2032 -0.0041  0.6324
   86MOL0     C11515   5.475   1.938   9.102  0.0890  0.4081  0.5946
   86MOL0     C11516   5.594   1.848   9.118 -0.0956 -0.6795  0.3903
   86MOL0     C11517   5.625   1.790   8.971  0.5027 -0.4896 -0.5957
   86MOL0     C11518   5.691   1.658   8.964  0.1447 -0.0391 -1.1890
   86MOL0    Cl11519   5.843   1.665   9.067  0.6059 -0.1777 -0.1579
   86MOL0     C11520   4.977   2.088   9.610  0.0257 -0.9068 -1.1506
   86MOL0     C11521   4.935   2.081   9.739  0.0507 -0.4917 -1.1972
   86MOL0     O11522   5.021   2.326   9.993  0.5098 -0.0015 -0.1210
   86MOL0     C11523   4.901   2.116  10.244  0.0007 -0.8117 -0.1063
   86MOL0     C11524   4.910   2.097  10.377  0.5566  0.0988  0.4614
   86MOL0     N11525   5.270   1.878  10.983  0.2762 -0.0551 -0.1660
   86MOL0     N11526   5.331   1.762  10.978  0.3407 -0.1826 -0.3927
   86MOL0     C11527   5.289   0.848  11.190  0.9629 -0.5363  0.5470
   86MOL0     C11528   5.235   0.753  11.282 -0.4457 -0.3610  0.4161
   86MOL0     C11529   5.051   0.443  11.526  0.8642 -0.3689  0.7774
   86MOL0     C11530   4.922   0.403  11.463 -0.9165 -0.2654  0.1379
   86MOL0     C11531   4.822   0.329  11.531 -0.3293 -0.1557 -1.0353
   86MOL0     C11532   4.837   0.309  11.670 -0.0254  0.5244  0.2711
   86MOL0     O11533   4.739   0.243  11.745 -0.2585  0.0515  0.0303
   86MOL0     C11534   4.608   0.205  11.689 -0.2671  0.2473  0.6638
   86MOL0     C11535   4.495   0.142  11.784 -0.6619 -0.1664  0.2753
   86MOL0     C11536   4.464   0.219  11.915  0.0625 -0.6231 -0.6036
   86MOL0     C11537   4.349   0.166  11.994 -0.1231  0.3644  0.1820
   86MOL0     C11538   4.372   0.035  12.053  0.2187 -0.6909  1.0029
   86MOL0     C11539   4.385  -0.073  12.102 -0.3546  0.0827  0.4309
   86MOL0     C11540   4.960   0.337  11.726  0.1344  0.0912 -0.3689
   86MOL0     C11541   5.069   0.400  11.653  0.2144  0.4879 -1.3024
   86MOL0     C11542   5.197   0.432  11.733 -0.4189  0.1070 -0.1002
   86MOL0     H11543   5.126   0.539  11.031  1.2047 -1.1614  0.8921
   86MOL0     H11544   5.215   0.706  10.890  1.9169 -2.3906  0.0968
   86MOL0     H11545   5.532   0.940  10.865  1.5640 -2.0151 -1.5944
   86MOL0     H11546   5.460   0.792  10.861  2.8661  1.0266 -1.4478
   86MOL0     H11547   5.274   0.868  10.724  0.3167 -0.8186 -1.1239
   86MOL0     H11548   5.426   0.911  10.644  1.4468  1.5487  0.8558
   86MOL0     H11549   5.258   1.116  10.796  1.3814  0.7846 -0.3085
   86MOL0     H11550   5.269   1.094  10.625  1.0281 -0.3557 -0.6636
   86MOL0     H11551   5.520   1.157  10.766  1.7503  2.3735 -1.3259
   86MOL0     H11552   5.471   1.162  10.597 -0.8942 -2.1171  0.2914
   86MOL0     H11553   5.285   1.338  10.683 -0.6064  1.6577  2.3647
   86MOL0     H11554   5.377   1.342  10.831  3.4739 -2.2603  0.5228
   86MOL0     H11555   5.583   1.426  10.701  2.5380 -0.0850 -3.2722
   86MOL0     H11556   5.486   1.409  10.554 -1.1008  1.9405 -0.5358
   86MOL0     H11557   5.307   1.580  10.655 -1.3602 -3.2134  2.8744
   86MOL0     H11558   5.464   1.661  10.627  0.6174  0.8406  2.1092
   86MOL0     H11559   5.390   1.543  10.898 -2.6402  1.3485 -0.8603
   86MOL0     H11560   5.544   1.622  10.848  0.1633  3.5595  2.8953
   86MOL0     H11561   5.400   1.875  10.681  0.8025 -3.8437 -0.5153
   86MOL0     H11562   5.256   2.155  10.906 -2.9554  1.2834 -2.9786
   86MOL0     H11563   5.375   2.134  10.786 -0.3464 -0.5638 -1.4972
   86MOL0     H11564   5.192   2.176  10.656  1.9749  1.4619  2.1610
   86MOL0     H11565   5.188   2.000  10.658  1.0258  1.5164 -1.0367
   86MOL0     H11566   5.025   2.164  10.846  0.5144 -0.3483 -0.1607
   86MOL0     H11567   5.037   1.988  10.859  2.5101 -2.3295 -3.0737
   86MOL0     H11568   4.832   2.055  10.719  0.4579  0.5336  0.6212
   86MOL0     H11569   4.945   1.970  10.618 -4.4891 -0.6882 -0.1839
   86MOL0     H11570   5.045   2.385  10.492  0.1140  1.2331 -1.6092
   86MOL0     H11571   5.079   2.409  10.230  0.7180  0.6425  0.9508
   86MOL0     H11572   5.233   2.130   9.907 -1.5014 -1.0497  2.2286
   86MOL0     H11573   5.315   2.137   9.660  0.0720 -0.7223  0.5432
   86MOL0     H11574   5.272   2.287   9.467 -0.0662 -1.5407  0.9426
   86MOL0     H11575   5.359   2.121   9.465 -0.5222 -1.5459  0.7599
   86MOL0     H11576   5.218   2.285   9.245  0.7556 -0.2714 -4.2698
   86MOL0     H11577   5.394   2.293   9.254  0.8756 -0.0251  0.8186
   86MOL0     H11578   5.227   2.026   9.218  0.3581 -1.2751  2.4795
   86MOL0     H11579   5.310   2.122   9.094 -2.7307  0.2526  1.3811
   86MOL0     H11580   5.396   1.944   9.304  1.4222 -2.3729 -0.9011
   86MOL0     H11581   5.510   2.085   9.261 -0.2812  0.4458  0.8408
   86MOL0     H11582   5.506   2.024   9.042 -1.4383  1.7593  1.6588
   86MOL0     H11583   5.393   1.879   9.061 -0.2505  0.7495  0.7710
   86MOL0     H11584   5.682   1.905   9.147 -0.4500  1.4650 -2.3198
   86MOL0     H11585   5.573   1.771   9.192 -0.0363 -0.2619  0.8405
   86MOL0     H11586   5.695   1.858   8.920 -0.1106  0.7428  0.1583
   86MOL0     H11587   5.533   1.775   8.913 -0.7202 -2.4207  1.6697
   86MOL0     H11588   5.621   1.591   9.014 -0.5117  0.6138 -1.2265
   86MOL0     H11589   5.714   1.630   8.861  0.4402  0.9987 -1.4092
   86MOL0     H11590   4.913   2.063   9.526 -0.0603 -1.5534 -0.9009
   86MOL0     H11591   4.834   2.044   9.756  0.5280 -0.7785  1.4262
   86MOL0     H11592   4.855   2.042  10.179  2.0925 -3.2193  0.9750
   86MOL0     H11593   4.862   2.007  10.416  3.0722 -0.9942  1.2302
   86MOL0     H11594   5.340   0.940  11.214 -0.6327  1.1693 -2.0142
   86MOL0     H11595   5.237   0.774  11.389 -0.3779 -1.1161  0.5671
   86MOL0     H11596   4.915   0.422  11.357  2.0405  3.5692  0.4036
   86MOL0     H11597   4.738   0.293  11.472 -0.1923 -0.1639 -1.2244
   86MOL0     H11598   4.630   0.136  11.606  3.8226  0.4456  1.3533
   86MOL0     H11599   4.560   0.295  11.650 -0.7333  1.1574  3.1828
   86MOL0     H11600   4.515   0.039  11.814 -0.6091 -0.6514 -1.3322
   86MOL0     H11601   4.403   0.119  11.729 -0.4397 -1.8500  0.5632
   86MOL0     H11602   4.443   0.321  11.884  1.7174 -0.0026  0.2282
   86MOL0     H11603   4.556   0.221  11.974  1.2926  0.8782 -2.4671
   86MOL0     H11604   4.327   0.243  12.069 -3.2197  1.2821 -1.4805
   86MOL0     H11605   4.260   0.160  11.930  0.6399  0.0993 -0.8709
   86MOL0     H11606   4.409  -0.166  12.149  0.8972 -0.4087 -1.1012
   86MOL0     H11607   4.968   0.305  11.829 -0.1704  3.0678  0.6925
   86MOL0     H11608   5.177   0.423  11.840 -1.9354 -3.2522 -0.5340
   86MOL0     H11609   5.269   0.352  11.714 -0.5596  0.2582 -1.3014
   86MOL0     H11610   5.245   0.528  11.713  0.3269 -0.8251 -3.2699
   87MOL0     O11611   3.241   1.299   9.397  0.0619 -0.3405  0.5088
   87MOL0     C11612   3.280   1.294   9.278  0.1774  0.3406  0.2724
   87MOL0     O11613   3.239   1.207   9.182 -0.6024  0.5695 -0.4416
   87MOL0     C11614   3.128   1.124   9.201 -0.5414 -0.7130 -0.3523
   87MOL0     C11615   3.002   1.186   9.214  0.5215  0.2533 -0.2050
   87MOL0     C11616   2.889   1.104   9.215  0.9978 -0.1445 -0.7951
   87MOL0     C11617   2.897   0.966   9.189 -0.1586  0.3810 -0.4547
   87MOL0     O11618   2.786   0.895   9.161  0.1044  0.5766 -0.1501
   87MOL0     C11619   2.658   0.955   9.185  0.3215 -1.2940 -0.0580
   87MOL0     C11620   2.548   0.851   9.186  0.2526  0.0519  0.1883
   87MOL0     C11621   2.520   0.805   9.048 -0.1158  0.3199 -0.3373
   87MOL0     C11622   2.379   0.748   9.045 -0.2529  0.3450 -0.7134
   87MOL0     C11623   2.333   0.708   8.904 -1.3377 -0.2886 -0.4352
   87MOL0     C11624   2.196   0.644   8.915  0.2342  0.4827 -0.9872
   87MOL0     C11625   2.136   0.605   8.772 -0.2610 -0.3691  0.4514
   87MOL0     C11626   2.016   0.506   8.782  0.2984  0.0417  0.4935
   87MOL0     N11627   1.919   0.531   8.678 -0.0960  0.1460 -0.1642
   87MOL0     C11628   1.782   0.495   8.679 -0.3244  0.0635  0.6323
   87MOL0     C11629   1.724   0.518   8.559 -0.1831 -0.1658  0.5584
   87MOL0     C11630   1.586   0.487   8.509 -1.0790 -0.3100 -0.8088
   87MOL0     C11631   1.560   0.337   8.541  0.0013 -0.7344  0.4227
   87MOL0     C11632   1.488   0.272   8.422  0.7224  0.0414  0.7871
   87MOL0     C11633   1.346   0.319   8.389  0.1336 -0.0945  0.7361
   87MOL0     O11634   1.342   0.357   8.243  0.6298 -0.2338  0.0544
   87MOL0     C11635   1.222   0.404   8.192 -0.3417 -0.0169  0.6273
   87MOL0     C11636   1.099   0.388   8.250 -0.1536 -0.2522  0.4376
   87MOL0     C11637   0.978   0.393   8.185  0.2327  0.3797  0.3578
   87MOL0     C11638   0.975   0.412   8.040  0.1678  0.3538  0.0046
   87MOL0     C11639   0.854   0.410   7.958 -0.2124 -0.9130  0.3098
   87MOL0     O11640   0.864   0.424   7.822  0.1266  0.2197  0.0851
   87MOL0     C11641   0.749   0.406   7.743  0.3686  0.1346 -0.2819
   87MOL0     C11642   0.749   0.301   7.650 -0.8099  0.9129 -0.3659
   87MOL0     C11643   0.630   0.276   7.573 -0.6168 -1.2205  0.5070
   87MOL0     C11644   0.523   0.363   7.591  0.6089  0.7482 -0.2623
   87MOL0     O11645   0.420   0.353   7.504 -0.2057  0.0526 -0.5266
   87MOL0     C11646   0.437   0.291   7.374 -0.4155 -0.6687 -0.3204
   87MOL0     C11647   0.341   0.359   7.281  0.6701 -0.0449 -0.5550
   87MOL0     C11648   0.194   0.363   7.335 -0.8668  0.5823 -0.7188
   87MOL0     C11649   0.140   0.225   7.305  0.3838  0.0179 -0.5308
   87MOL0     C11650  -0.018   0.220   7.322  0.2192  0.0499 -0.0903
   87MOL0     C11651  -0.046   0.278   7.465  0.5148  0.1939 -0.4305
   87MOL0     C11652  -0.182   0.219   7.519  0.1667  0.3744  0.2431
   87MOL0     C11653  -0.299   0.274   7.440 -0.6434 -0.5223  0.7737
   87MOL0    Cl11654  -0.311   0.454   7.434 -0.3200 -0.3769 -0.3895
   87MOL0     C11655   0.529   0.471   7.678  1.0702 -0.1507  0.2721
   87MOL0     C11656   0.637   0.489   7.760  1.2475 -0.6354  0.0706
   87MOL0     O11657   0.755   0.389   8.022  0.0065  0.0477 -0.4630
   87MOL0     C11658   1.099   0.430   7.981 -0.2224 -0.3297  0.3089
   87MOL0     C11659   1.217   0.430   8.057 -0.9428  0.3790 -0.2729
   87MOL0     N11660   1.829   0.585   8.494 -0.7658 -0.3091 -0.3235
   87MOL0     N11661   1.938   0.598   8.567 -0.5040 -0.4886  0.1007
   87MOL0     C11662   3.024   0.909   9.176 -0.0648 -0.6941 -0.1211
   87MOL0     C11663   3.147   0.988   9.187  0.1079  1.0565 -0.7008
   87MOL0     C11664   3.386   1.388   9.238 -0.7428 -0.0584  0.4529
   87MOL0     C11665   3.483   1.426   9.328  0.2313  0.5627 -0.3259
   87MOL0     C11666   3.593   1.506   9.293  0.4595  1.0408 -0.7796
   87MOL0     C11667   3.595   1.576   9.171 -0.3647  0.7059 -0.5043
   87MOL0     O11668   3.694   1.669   9.161  0.0538 -0.8577  0.3365
   87MOL0     C11669   3.740   1.729   9.041  0.0845 -0.1801  0.4018
   87MOL0     C11670   3.896   1.722   9.050 -0.0163 -0.3091 -0.2144
   87MOL0     C11671   3.956   1.835   9.142  0.5478 -0.3734 -1.1096
   87MOL0     C11672   3.900   1.827   9.290 -0.3194  0.5206  0.6956
   87MOL0     C11673   3.950   1.699   9.338 -0.0403  0.4652  0.0078
   87MOL0     C11674   3.999   1.597   9.386 -0.2859  0.1032  0.2042
   87MOL0     C11675   3.493   1.560   9.086  0.3237 -0.0543  0.4358
   87MOL0     C11676   3.395   1.456   9.112 -1.1578 -0.3582 -0.3061
   87MOL0     C11677   3.284   1.462   9.011  0.4762 -0.0852  0.6923
   87MOL0     H11678   2.982   1.292   9.223  1.8713  0.5693 -0.6559
   87MOL0     H11679   2.791   1.150   9.209  0.5364 -1.1595 -1.4224
   87MOL0     H11680   2.658   0.997   9.286  1.3351  1.8605 -1.2677
   87MOL0     H11681   2.635   1.034   9.113 -0.4088  0.0872  1.6255
   87MOL0     H11682   2.460   0.901   9.228  1.2156 -0.1486  2.6064
   87MOL0     H11683   2.577   0.777   9.260 -1.1067 -2.3113 -1.5230
   87MOL0     H11684   2.593   0.739   9.000 -2.0609 -2.3252  0.1691
   87MOL0     H11685   2.524   0.895   8.985  1.6249 -0.6287 -1.6731
   87MOL0     H11686   2.381   0.657   9.106 -0.2758 -0.7121 -2.2562
   87MOL0     H11687   2.309   0.821   9.087 -0.7463 -0.0163 -0.8918
   87MOL0     H11688   2.330   0.796   8.839 -0.5512 -0.0645 -0.1868
   87MOL0     H11689   2.405   0.634   8.868  0.5277 -0.3631  2.9623
   87MOL0     H11690   2.204   0.557   8.981  0.4317  0.9471 -0.3940
   87MOL0     H11691   2.136   0.715   8.973  0.0849  1.0075 -1.7591
   87MOL0     H11692   2.220   0.574   8.711 -0.6178 -0.0924 -0.1873
   87MOL0     H11693   2.093   0.696   8.729 -3.9567 -2.7356 -1.4286
   87MOL0     H11694   2.058   0.405   8.794 -1.5575 -0.6252  1.8821
   87MOL0     H11695   1.981   0.531   8.883 -0.7847  0.8173 -0.0593
   87MOL0     H11696   1.734   0.435   8.756 -0.6078 -0.0428  0.3742
   87MOL0     H11697   1.515   0.553   8.560  0.6518  0.4296  0.7350
   87MOL0     H11698   1.563   0.521   8.407  0.6349  4.3667  0.1433
   87MOL0     H11699   1.652   0.283   8.567 -0.9146 -2.3725  0.3960
   87MOL0     H11700   1.499   0.336   8.632 -2.8068  1.4501 -1.2759
   87MOL0     H11701   1.474   0.165   8.443  1.4942 -0.7592 -2.3347
   87MOL0     H11702   1.554   0.277   8.335 -1.0307  1.7439 -0.5146
   87MOL0     H11703   1.311   0.406   8.444 -1.0520  0.4556 -0.8155
   87MOL0     H11704   1.273   0.243   8.419 -1.0612  1.3706  1.6877
   87MOL0     H11705   1.097   0.355   8.354  0.6383 -1.9185 -0.0519
   87MOL0     H11706   0.892   0.362   8.245  0.6065  0.3088  0.8694
   87MOL0     H11707   0.822   0.222   7.640 -1.3039  0.5587 -1.2419
   87MOL0     H11708   0.619   0.194   7.503  1.0091  0.9624 -2.5509
   87MOL0     H11709   0.537   0.321   7.341 -0.1722  1.0819  1.7733
   87MOL0     H11710   0.424   0.183   7.367  3.6766 -1.3026 -0.7011
   87MOL0     H11711   0.367   0.465   7.277  0.6187 -0.0483 -0.9901
   87MOL0     H11712   0.351   0.310   7.184  0.3604 -0.9768 -0.1273
   87MOL0     H11713   0.199   0.376   7.443  5.0065  1.4391 -0.7183
   87MOL0     H11714   0.144   0.448   7.287 -0.2114  1.0401 -0.6113
   87MOL0     H11715   0.191   0.156   7.373 -0.9898  0.1401  0.6831
   87MOL0     H11716   0.150   0.204   7.198 -0.2653  1.2025 -0.8386
   87MOL0     H11717  -0.051   0.115   7.322  0.0842  0.0878 -0.5504
   87MOL0     H11718  -0.064   0.260   7.231 -2.2830  2.1702  1.9771
   87MOL0     H11719   0.022   0.229   7.536  0.9060 -0.7592 -1.4408
   87MOL0     H11720  -0.044   0.386   7.482  0.0645  0.2609 -0.7863
   87MOL0     H11721  -0.195   0.250   7.623 -0.1535 -0.5584  0.4916
   87MOL0     H11722  -0.183   0.109   7.519  3.0389  0.1862 -3.2541
   87MOL0     H11723  -0.297   0.234   7.338 -1.8736 -0.1390  0.5844
   87MOL0     H11724  -0.394   0.239   7.483 -0.2435 -1.3210  1.0226
   87MOL0     H11725   0.438   0.531   7.683  0.9354 -0.2803 -0.5498
   87MOL0     H11726   0.637   0.561   7.842 -1.5720 -1.5470  1.0139
   87MOL0     H11727   1.108   0.437   7.873 -0.8439  0.7179  0.3113
   87MOL0     H11728   1.307   0.442   7.998 -0.6519  1.5300  0.3717
   87MOL0     H11729   3.045   0.805   9.156  3.1510 -0.0652 -0.6344
   87MOL0     H11730   3.244   0.941   9.172  1.2935  2.7879  1.0764
   87MOL0     H11731   3.491   1.388   9.430  2.4204  3.6582  0.8085
   87MOL0     H11732   3.673   1.539   9.358 -0.0586 -0.6456  0.8246
   87MOL0     H11733   3.700   1.828   9.020  0.3190 -0.2923 -0.6501
   87MOL0     H11734   3.699   1.676   8.954 -0.9520  3.0414 -1.2181
   87MOL0     H11735   3.921   1.748   8.947  0.6814  2.0750  0.4878
   87MOL0     H11736   3.930   1.626   9.089  1.4085 -0.0954 -0.8662
   87MOL0     H11737   3.929   1.932   9.101  0.4237  0.4798  0.8689
   87MOL0     H11738   4.065   1.834   9.134  0.6104  2.4731 -1.5886
   87MOL0     H11739   3.948   1.905   9.351  0.1283  0.0917  0.9025
   87MOL0     H11740   3.793   1.847   9.282 -0.1268  2.8022  2.6672
   87MOL0     H11741   4.025   1.505   9.435 -1.5148  1.0196  2.7422
   87MOL0     H11742   3.465   1.627   9.005 -2.4128  0.2839  1.5387
   87MOL0     H11743   3.317   1.490   8.910 -2.9822  3.1750  0.2504
   87MOL0     H11744   3.234   1.366   9.001  0.7694 -0.6559  3.7701
   87MOL0     H11745   3.206   1.535   9.036  1.6686  0.8708  1.7812
   88MOL0     O11746   5.708   9.725   8.094 -0.0927 -0.8570 -0.1321
   88MOL0     C11747   5.807   9.708   8.025 -0.4892  0.1400 -0.2710
   88MOL0     O11748   5.819   9.730   7.891 -0.0611 -0.7565 -0.4249
   88MOL0     C11749   5.711   9.788   7.830  0.7370  0.0576 -0.5508
   88MOL0     C11750   5.725   9.919   7.775  0.3637  0.0615 -0.4470
   88MOL0     C11751   5.611   9.996   7.716 -0.1660  0.0201 -0.4208
   88MOL0     C11752   5.479   9.936   7.723 -0.2669  0.3975  0.3518
   88MOL0     O11753   5.362  10.001   7.671  0.1874  0.4330 -0.2126
   88MOL0     C11754   5.237   9.975   7.728  0.8875  0.6219 -0.5374
   88MOL0     C11755   5.152  10.088   7.693  0.3443 -0.0859  0.3587
   88MOL0     C11756   5.012  10.051   7.654  0.5233 -0.6260  0.2104
   88MOL0     C11757   4.917  10.170   7.673 -0.5911  0.2120 -0.0780
   88MOL0     C11758   4.774  10.131   7.626  0.4055  0.1441 -0.0232
   88MOL0     C11759   4.675  10.244   7.622 -0.1370  0.3088 -0.0185
   88MOL0     C11760   4.616  10.271   7.756  0.5567 -0.8466 -0.4462
   88MOL0     C11761   4.498  10.366   7.746  0.7094  0.5880  0.4611
   88MOL0     N11762   4.381  10.317   7.669  0.3773 -0.5816  0.3305
   88MOL0     C11763   4.364  10.329   7.531 -0.0925  0.4510  0.3639
   88MOL0     C11764   4.267  10.237   7.493  0.0047 -0.0580 -0.6529
   88MOL0     C11765   4.227  10.212   7.353 -0.0658  0.0599 -0.7559
   88MOL0     C11766   4.198  10.061   7.315  0.2178 -0.1260 -1.2387
   88MOL0     C11767   4.325   9.995   7.264 -0.5104  0.6166 -0.0042
   88MOL0     C11768   4.434   9.970   7.366 -0.5178 -0.4569 -0.7459
   88MOL0     O11769   4.552   9.903   7.309  0.4517 -0.0906 -0.1534
   88MOL0     C11770   4.633   9.823   7.388  1.3018 -0.4457 -0.7996
   88MOL0     C11771   4.637   9.806   7.530  0.6784 -0.1992 -0.2330
   88MOL0     C11772   4.731   9.738   7.594 -0.2709  0.4969  0.0181
   88MOL0     C11773   4.831   9.674   7.517 -0.9102  0.2606 -0.4351
   88MOL0     C11774   4.948   9.606   7.578  0.2264  0.0036  0.0429
   88MOL0     O11775   4.936   9.584   7.712  0.6781 -0.5630  0.0309
   88MOL0     C11776   5.035   9.521   7.777 -0.2199  0.1209 -0.7439
   88MOL0     C11777   4.986   9.431   7.870 -0.3655 -0.0018  0.5581
   88MOL0     C11778   5.072   9.381   7.966 -0.3664 -0.0647  0.9003
   88MOL0     C11779   5.214   9.407   7.959 -0.1648 -0.5123 -0.3963
   88MOL0     O11780   5.300   9.367   8.059  1.1966 -0.9823 -0.2559
   88MOL0     C11781   5.233   9.391   8.186  1.0639  0.4324  0.7249
   88MOL0     C11782   5.338   9.419   8.295 -0.0796  0.1122 -0.1037
   88MOL0     C11783   5.419   9.534   8.261  0.3233  0.5282 -0.3306
   88MOL0     C11784   5.332   9.659   8.214  0.3223 -0.0418 -1.1084
   88MOL0     C11785   5.397   9.789   8.235 -0.3909  0.1691  0.1688
   88MOL0     C11786   5.318   9.909   8.160 -0.1207  0.5338 -0.9996
   88MOL0     C11787   5.183   9.939   8.215  0.4674 -0.2872  0.2044
   88MOL0     C11788   5.066   9.872   8.155  0.7877 -0.1825  0.0675
   88MOL0    Cl11789   5.062   9.828   7.975 -0.0957 -0.3701 -0.2694
   88MOL0     C11790   5.262   9.475   7.847  0.4705 -1.2722 -0.4258
   88MOL0     C11791   5.172   9.539   7.764  0.2780 -0.0704  0.4540
   88MOL0     O11792   5.043   9.582   7.509 -0.0062 -0.8466  0.5023
   88MOL0     C11793   4.816   9.666   7.379 -0.5093 -0.6341 -0.3355
   88MOL0     C11794   4.718   9.753   7.317 -1.2198  0.0801  0.0484
   88MOL0     N11795   4.241  10.160   7.596 -0.0335 -0.2372 -0.8471
   88MOL0     N11796   4.306  10.212   7.703  0.2932  0.3116 -0.7393
   88MOL0     C11797   5.479   9.805   7.766 -0.1300  0.9364  0.2590
   88MOL0     C11798   5.585   9.726   7.818  0.2644 -0.2119 -0.7269
   88MOL0     C11799   5.923   9.629   8.091  0.0967 -0.8685  0.3073
   88MOL0     C11800   6.017   9.563   8.004 -0.1695  0.6825 -0.6680
   88MOL0     C11801   6.100   9.463   8.054 -0.0919  0.5595 -0.2345
   88MOL0     C11802   6.117   9.444   8.198 -0.3064 -0.7138 -0.4234
   88MOL0     O11803   6.213   9.354   8.246 -0.5154 -0.5087 -0.4432
   88MOL0     C11804   6.309   9.303   8.156 -0.0386  0.1660 -0.2154
   88MOL0     C11805   6.409   9.192   8.194 -0.2564  0.4557  0.4218
   88MOL0     C11806   6.520   9.227   8.284  0.0039 -0.2522  0.5003
   88MOL0     C11807   6.479   9.236   8.439 -0.6116 -0.2764  0.1553
   88MOL0     C11808   6.580   9.308   8.516 -0.5506 -0.6106 -0.3243
   88MOL0     C11809   6.654   9.373   8.588 -1.0379 -0.6105 -0.5959
   88MOL0     C11810   6.039   9.516   8.286  0.9132  0.9320  0.0983
   88MOL0     C11811   5.935   9.602   8.232  0.1582 -0.4813  0.2402
   88MOL0     C11812   5.848   9.661   8.334 -0.4170  0.1315  0.1828
   88MOL0     H11813   5.820   9.971   7.775 -0.1416  1.1007 -2.9450
   88MOL0     H11814   5.614  10.097   7.676  0.9747 -0.0998 -0.6735
   88MOL0     H11815   5.189   9.885   7.688  1.0729  0.1728  0.2150
   88MOL0     H11816   5.265   9.961   7.833  0.1378 -0.4704 -0.4656
   88MOL0     H11817   5.190  10.141   7.605  0.0500  1.4518  1.1301
   88MOL0     H11818   5.163  10.156   7.778  2.0902  1.9225 -1.3400
   88MOL0     H11819   4.975   9.968   7.714 -2.3973  3.1524  4.3145
   88MOL0     H11820   4.998  10.018   7.550  1.9769  1.3396 -0.6825
   88MOL0     H11821   4.923  10.211   7.774  1.1801  2.0798 -0.8739
   88MOL0     H11822   4.957  10.258   7.622  2.2907  1.1668  3.4405
   88MOL0     H11823   4.788  10.098   7.522 -2.0731 -0.5600 -0.1819
   88MOL0     H11824   4.730  10.045   7.677  2.0851  0.0396  1.3386
   88MOL0     H11825   4.715  10.341   7.589  1.0309  0.2090  1.0259
   88MOL0     H11826   4.601  10.199   7.555 -0.5681 -2.1562  1.9791
   88MOL0     H11827   4.691  10.307   7.827  1.5452 -0.5730 -1.5940
   88MOL0     H11828   4.566  10.187   7.805  1.0384 -0.2149  1.2191
   88MOL0     H11829   4.458  10.408   7.839  2.0840  1.2160  0.8003
   88MOL0     H11830   4.527  10.456   7.690  2.7345 -0.0282  0.4556
   88MOL0     H11831   4.404  10.397   7.456  0.5776 -0.9387 -0.5931
   88MOL0     H11832   4.128  10.255   7.334  0.0129  0.0653 -1.1665
   88MOL0     H11833   4.302  10.254   7.285  0.7867  0.0545  0.1556
   88MOL0     H11834   4.152  10.011   7.400 -1.1862  0.6027 -1.5448
   88MOL0     H11835   4.130  10.063   7.229 -0.6060  2.0787 -0.5922
   88MOL0     H11836   4.358  10.048   7.174 -1.8165 -0.5867 -1.2506
   88MOL0     H11837   4.297   9.897   7.225 -1.5062  0.7665  0.3008
   88MOL0     H11838   4.392   9.945   7.464  2.1008  3.1595  1.5133
   88MOL0     H11839   4.473  10.070   7.381 -0.5617 -0.8570  3.0795
   88MOL0     H11840   4.566   9.860   7.592 -0.1834 -1.4257 -0.1221
   88MOL0     H11841   4.748   9.740   7.701  3.0413  1.0803 -0.4400
   88MOL0     H11842   4.881   9.403   7.872 -0.4071  0.0176 -0.4409
   88MOL0     H11843   5.027   9.313   8.039 -0.6581 -2.1752 -1.1325
   88MOL0     H11844   5.157   9.470   8.183 -0.0367 -0.6136  0.5431
   88MOL0     H11845   5.185   9.295   8.206 -1.5018  0.6837 -3.2027
   88MOL0     H11846   5.294   9.434   8.394 -3.5159 -1.2391 -1.2656
   88MOL0     H11847   5.411   9.339   8.313 -0.2113  0.5445  2.7792
   88MOL0     H11848   5.486   9.560   8.343 -1.6173 -1.4764  2.0410
   88MOL0     H11849   5.487   9.505   8.180  0.7863 -2.6769  1.0735
   88MOL0     H11850   5.244   9.664   8.279 -0.3646  3.0723 -2.1013
   88MOL0     H11851   5.294   9.646   8.112 -2.2027  0.8689 -0.3607
   88MOL0     H11852   5.501   9.781   8.202 -0.3196  0.2510  0.3692
   88MOL0     H11853   5.397   9.807   8.343  1.3122 -1.3644  0.4512
   88MOL0     H11854   5.380   9.998   8.175  0.3784 -0.1064  1.0346
   88MOL0     H11855   5.288   9.875   8.061 -0.1009  2.2078 -1.6152
   88MOL0     H11856   5.157  10.045   8.218  1.4399 -0.0581  0.8078
   88MOL0     H11857   5.193   9.901   8.317  0.2227  2.1290  1.1852
   88MOL0     H11858   5.047   9.779   8.209 -1.4386 -0.5543 -1.2163
   88MOL0     H11859   4.982   9.941   8.172 -0.6685 -1.8100 -0.2213
   88MOL0     H11860   5.365   9.507   7.837 -0.7214  2.3529 -3.0049
   88MOL0     H11861   5.218   9.613   7.699 -1.8877  1.0961  0.1481
   88MOL0     H11862   4.878   9.597   7.324  3.4241  1.7967  0.6758
   88MOL0     H11863   4.712   9.759   7.209  2.4315 -0.0875 -0.3014
   88MOL0     H11864   5.378   9.766   7.754  0.9037 -2.0934  0.6114
   88MOL0     H11865   5.570   9.625   7.855  0.2147 -0.6749 -1.9847
   88MOL0     H11866   6.017   9.583   7.897 -0.0967  0.1360 -0.7698
   88MOL0     H11867   6.157   9.410   7.978 -0.9219  1.8592 -1.8331
   88MOL0     H11868   6.360   9.387   8.107 -3.0638  2.4456  0.2110
   88MOL0     H11869   6.239   9.251   8.090 -1.2248 -1.6439  2.3322
   88MOL0     H11870   6.461   9.155   8.105 -2.2366 -0.3720 -0.4554
   88MOL0     H11871   6.346   9.110   8.232  0.6527  0.3763  1.8421
   88MOL0     H11872   6.555   9.325   8.252  1.7330 -0.9314  0.2088
   88MOL0     H11873   6.600   9.153   8.270  0.5959  0.7711 -2.0609
   88MOL0     H11874   6.384   9.289   8.446 -0.1531  0.7172 -0.8987
   88MOL0     H11875   6.455   9.144   8.494  1.7703  1.4541  4.5740
   88MOL0     H11876   6.720   9.427   8.653  0.5215  0.5091 -2.9849
   88MOL0     H11877   6.042   9.482   8.389  0.0555  0.2824 -0.0772
   88MOL0     H11878   5.875   9.628   8.435  0.5468 -1.4304 -0.5550
   88MOL0     H11879   5.841   9.770   8.324  0.7527  0.1172 -1.0850
   88MOL0     H11880   5.746   9.622   8.329 -0.6114  0.0283  3.1030
   89MOL0     O11881   1.286   7.439   0.842  0.1064  0.2475 -0.6660
   89MOL0     C11882   1.343   7.547   0.841 -0.2037  0.4377 -0.0081
   89MOL0     O11883   1.416   7.592   0.742  0.3449  0.2671  0.4108
   89MOL0     C11884   1.421   7.525   0.619  0.3897  0.6844 -0.5861
   89MOL0     C11885   1.319   7.439   0.560  0.3972  0.1872 -0.3400
   89MOL0     C11886   1.350   7.360   0.443  0.7340 -0.8838 -0.9079
   89MOL0     C11887   1.468   7.380   0.369  0.5150 -0.0729 -0.9050
   89MOL0     O11888   1.506   7.310   0.249 -0.3197 -0.1663  0.3376
   89MOL0     C11889   1.414   7.216   0.198  0.4495  0.0802  0.1949
   89MOL0     C11890   1.451   7.163   0.068  0.0557 -0.0247 -0.0873
   89MOL0     C11891   1.546   7.049   0.077  0.1722 -0.1936  0.5341
   89MOL0     C11892   1.561   6.995  -0.069  0.4053  0.5637 -0.0408
   89MOL0     C11893   1.638   6.861  -0.074 -0.3704 -0.2365  0.1859
   89MOL0     C11894   1.626   6.806  -0.215  0.4732 -0.5534 -0.6539
   89MOL0     C11895   1.688   6.665  -0.229 -0.5841  1.1678  1.1636
   89MOL0     C11896   1.847   6.673  -0.226 -0.0046 -0.4740 -0.0163
   89MOL0     N11897   1.917   6.544  -0.238 -0.5434  1.0396  0.0516
   89MOL0     C11898   1.972   6.471  -0.132 -0.4739  0.0191 -0.3736
   89MOL0     C11899   2.008   6.354  -0.189  0.5095 -0.2227  0.6694
   89MOL0     C11900   2.075   6.246  -0.109 -0.0659 -0.1580  0.6530
   89MOL0     C11901   2.213   6.226  -0.163  0.5244  0.2148 -0.5376
   89MOL0     C11902   2.293   6.082  -0.126 -0.1772 -0.0345 -0.2200
   89MOL0     C11903   2.425   6.050  -0.208 -0.0371 -0.1118  0.2890
   89MOL0     O11904   2.450   5.911  -0.182 -0.5796 -0.0620 -0.6768
   89MOL0     C11905   2.396   5.821  -0.275  0.8987  0.1940 -1.4639
   89MOL0     C11906   2.300   5.852  -0.373  0.1223  0.3945  0.4619
   89MOL0     C11907   2.252   5.753  -0.463  1.1483 -0.2833 -0.1175
   89MOL0     C11908   2.300   5.617  -0.452  0.4151 -0.4923  0.0525
   89MOL0     C11909   2.242   5.504  -0.524  0.0366  0.3943 -0.0015
   89MOL0     O11910   2.308   5.382  -0.515  0.2190 -0.3193  0.0888
   89MOL0     C11911   2.250   5.275  -0.579 -0.3888 -0.2239  0.8905
   89MOL0     C11912   2.219   5.287  -0.718 -0.3027  0.0979  0.7219
   89MOL0     C11913   2.158   5.180  -0.785 -0.1286  0.1252  0.5017
   89MOL0     C11914   2.110   5.069  -0.716  0.0547 -0.1309  0.6043
   89MOL0     O11915   2.043   4.974  -0.785 -0.2355 -0.0336  0.7062
   89MOL0     C11916   1.965   4.878  -0.709  0.5738 -0.1295 -0.8782
   89MOL0     C11917   1.871   4.787  -0.804  0.0894  0.4571 -0.4241
   89MOL0     C11918   1.770   4.874  -0.880 -0.0277 -0.4234  0.0929
   89MOL0     C11919   1.677   4.794  -0.967 -0.1668 -0.4282  0.1897
   89MOL0     C11920   1.616   4.887  -1.072  0.3031 -0.4063 -0.5109
   89MOL0     C11921   1.565   4.789  -1.176  0.5827 -1.2775  0.0725
   89MOL0     C11922   1.478   4.850  -1.284  0.0838 -0.0811 -0.0676
   89MOL0     C11923   1.330   4.844  -1.250  0.2252  0.3203  0.4701
   89MOL0    Cl11924   1.242   4.864  -1.409 -0.2131 -0.0796 -0.0332
   89MOL0     C11925   2.158   5.052  -0.584 -0.2260  0.0912 -0.7705
   89MOL0     C11926   2.225   5.153  -0.515  0.5551 -0.5969 -0.0990
   89MOL0     O11927   2.136   5.527  -0.587  0.3982 -0.0413 -0.4519
   89MOL0     C11928   2.399   5.595  -0.357  0.2004 -0.3049 -0.6894
   89MOL0     C11929   2.452   5.693  -0.267 -0.1610 -0.8047  0.1144
   89MOL0     N11930   1.996   6.364  -0.330  0.3511 -0.5508  0.7176
   89MOL0     N11931   1.939   6.471  -0.346  0.7219  0.1266  0.5390
   89MOL0     C11932   1.568   7.472   0.424 -0.9214  0.1955  0.1172
   89MOL0     C11933   1.543   7.532   0.545  0.4656 -0.2542  0.5767
   89MOL0     C11934   1.337   7.646   0.958  0.2012 -0.2975  0.2569
   89MOL0     C11935   1.258   7.607   1.071  0.5018 -0.3300  0.6623
   89MOL0     C11936   1.234   7.691   1.181  0.1082  0.0290 -0.4751
   89MOL0     C11937   1.304   7.815   1.179  0.0241  0.2389 -0.2015
   89MOL0     O11938   1.290   7.920   1.266 -0.0489  0.6877  0.2988
   89MOL0     C11939   1.195   7.911   1.374  0.7843 -0.7157  0.5783
   89MOL0     C11940   1.127   8.051   1.388 -0.2384  0.4054  0.2704
   89MOL0     C11941   1.210   8.157   1.463 -0.2651 -0.0620  0.9233
   89MOL0     C11942   1.193   8.150   1.615 -0.1688 -1.0317 -0.1301
   89MOL0     C11943   1.240   8.036   1.686 -0.9932  0.8603  0.4941
   89MOL0     C11944   1.250   7.931   1.747  0.1634 -0.4749  0.1092
   89MOL0     C11945   1.397   7.852   1.079  0.5218 -0.3370  0.3567
   89MOL0     C11946   1.407   7.772   0.958 -0.2015 -0.1367  0.8567
   89MOL0     C11947   1.520   7.820   0.872  0.5311 -0.1506 -0.3471
   89MOL0     H11948   1.228   7.419   0.618 -0.0425  3.9151  0.5125
   89MOL0     H11949   1.265   7.306   0.403  1.2973 -1.6509 -1.1010
   89MOL0     H11950   1.413   7.138   0.274  0.2066 -0.2651 -0.1589
   89MOL0     H11951   1.321   7.272   0.198  1.7470  2.3877  1.3613
   89MOL0     H11952   1.506   7.234   0.005  0.5496 -0.5834 -0.3033
   89MOL0     H11953   1.361   7.132   0.015  0.1857 -0.9924  0.2333
   89MOL0     H11954   1.500   6.972   0.140 -0.5477 -1.7085 -1.7146
   89MOL0     H11955   1.639   7.072   0.129  0.0319 -2.7525  2.1420
   89MOL0     H11956   1.462   6.976  -0.112  0.1669  2.4025 -0.3824
   89MOL0     H11957   1.604   7.069  -0.136  3.3578 -0.9553  0.0307
   89MOL0     H11958   1.742   6.874  -0.043  0.8764 -1.9228 -2.8328
   89MOL0     H11959   1.590   6.788  -0.007  0.6773  1.1152  2.5173
   89MOL0     H11960   1.519   6.806  -0.236  0.0492 -1.5234  1.2213
   89MOL0     H11961   1.681   6.874  -0.281 -1.3843  0.4811 -1.2026
   89MOL0     H11962   1.651   6.617  -0.320  2.4276 -3.3393  2.0330
   89MOL0     H11963   1.657   6.598  -0.148 -0.0173 -3.6000 -2.1454
   89MOL0     H11964   1.885   6.746  -0.298  2.2157  0.1119  1.6158
   89MOL0     H11965   1.875   6.715  -0.128  1.8876  0.1977 -0.8027
   89MOL0     H11966   1.986   6.506  -0.030  4.0106  1.3874 -1.2146
   89MOL0     H11967   2.083   6.294  -0.011 -0.1527  2.9970 -0.7728
   89MOL0     H11968   2.023   6.151  -0.093 -0.2184 -0.2432 -0.2851
   89MOL0     H11969   2.202   6.254  -0.268 -1.0193  2.0135  0.0536
   89MOL0     H11970   2.267   6.313  -0.125  0.9065  0.0097 -0.6124
   89MOL0     H11971   2.225   5.997  -0.142 -0.4861  0.0173  0.7452
   89MOL0     H11972   2.317   6.079  -0.019 -0.4581  0.6900 -0.1314
   89MOL0     H11973   2.505   6.109  -0.164  1.8306 -2.7133  0.6415
   89MOL0     H11974   2.426   6.068  -0.315  0.7074 -1.2075  0.0923
   89MOL0     H11975   2.269   5.955  -0.376  3.5106  1.5280 -0.8035
   89MOL0     H11976   2.171   5.782  -0.528 -1.1978  0.2368  2.8334
   89MOL0     H11977   2.248   5.384  -0.759 -0.5194 -0.2007 -0.1659
   89MOL0     H11978   2.127   5.181  -0.889  0.8504  2.1643  0.1770
   89MOL0     H11979   2.021   4.807  -0.648 -0.9032  0.3431  1.1328
   89MOL0     H11980   1.908   4.931  -0.631  0.7935 -0.1226 -0.7222
   89MOL0     H11981   1.926   4.711  -0.860  0.5073  2.3274 -2.6935
   89MOL0     H11982   1.807   4.723  -0.743  1.0010 -0.1096 -0.0442
   89MOL0     H11983   1.707   4.928  -0.808  1.8544 -0.1614  1.6374
   89MOL0     H11984   1.828   4.945  -0.940  1.3176  0.0814  1.8990
   89MOL0     H11985   1.591   4.757  -0.912 -2.0891  3.1860 -0.0488
   89MOL0     H11986   1.728   4.711  -1.016  0.2952 -0.8671  1.3956
   89MOL0     H11987   1.677   4.970  -1.109 -0.1936  0.1667 -0.0667
   89MOL0     H11988   1.534   4.934  -1.017  2.2656  0.2747  2.0233
   89MOL0     H11989   1.654   4.747  -1.224 -1.4632 -3.0488 -2.4595
   89MOL0     H11990   1.506   4.710  -1.129 -1.2543 -0.9621 -1.5655
   89MOL0     H11991   1.506   4.783  -1.365 -0.7941 -1.2281  0.5513
   89MOL0     H11992   1.521   4.950  -1.300  1.6063 -0.6865  0.1072
   89MOL0     H11993   1.304   4.746  -1.207  1.9084 -1.2447 -1.8063
   89MOL0     H11994   1.303   4.922  -1.178  0.0406  0.6478  0.0436
   89MOL0     H11995   2.134   4.968  -0.518 -0.2477  1.9643  1.7588
   89MOL0     H11996   2.258   5.137  -0.413  2.3625  0.0952 -0.5440
   89MOL0     H11997   2.437   5.494  -0.341 -2.1064 -0.9711  1.0872
   89MOL0     H11998   2.525   5.667  -0.192 -1.9599  0.3541  2.3825
   89MOL0     H11999   1.666   7.464   0.378 -2.3506 -2.5089 -2.8104
   89MOL0     H12000   1.618   7.606   0.571 -0.4605  0.8493  0.2218
   89MOL0     H12001   1.209   7.510   1.071 -3.0827  1.3035 -0.0389
   89MOL0     H12002   1.186   7.647   1.268  1.9342 -0.7824  0.1672
   89MOL0     H12003   1.242   7.871   1.464  1.5498  0.0129  0.5181
   89MOL0     H12004   1.116   7.842   1.343 -0.5640  0.6784  0.7120
   89MOL0     H12005   1.036   8.026   1.443 -0.0342  1.9298  1.3779
   89MOL0     H12006   1.102   8.113   1.301 -0.3335  1.1043  0.7914
   89MOL0     H12007   1.185   8.258   1.432 -1.7571 -0.7072 -0.0936
   89MOL0     H12008   1.311   8.154   1.421 -1.0737  0.4697 -1.1624
   89MOL0     H12009   1.242   8.237   1.660 -1.2836  0.0342 -0.8843
   89MOL0     H12010   1.085   8.165   1.632 -0.5230 -2.7322 -0.7134
   89MOL0     H12011   1.260   7.829   1.779  1.6080  0.1371  1.8009
   89MOL0     H12012   1.440   7.950   1.063  1.2643 -0.6660  0.2918
   89MOL0     H12013   1.468   7.849   0.781  0.2409 -0.0566 -0.1518
   89MOL0     H12014   1.579   7.903   0.911 -0.9375  0.4123  0.7752
   89MOL0     H12015   1.594   7.742   0.850  3.3156  1.9986  0.7843
   90MOL0     O12016   4.281   5.657   8.078  0.4214 -0.6157  0.2518
   90MOL0     C12017   4.342   5.639   7.964 -0.2199 -0.4224  0.0725
   90MOL0     O12018   4.432   5.539   7.949 -0.6498 -0.7038  0.2099
   90MOL0     C12019   4.486   5.480   8.063  0.1807  0.5285  0.2939
   90MOL0     C12020   4.542   5.544   8.176 -0.1053  0.7221  0.7012
   90MOL0     C12021   4.566   5.481   8.292 -0.4435  0.5124  0.3846
   90MOL0     C12022   4.547   5.348   8.313 -0.5763  0.6627 -0.3863
   90MOL0     O12023   4.569   5.283   8.439  0.6682 -0.0563  0.5541
   90MOL0     C12024   4.653   5.349   8.536  0.5257  0.8938 -0.4279
   90MOL0     C12025   4.697   5.246   8.644  0.1505 -1.0649 -0.0236
   90MOL0     C12026   4.579   5.184   8.726 -0.8449 -0.6870  0.3587
   90MOL0     C12027   4.486   5.292   8.790 -0.3426  0.4249 -0.2938
   90MOL0     C12028   4.387   5.232   8.884  0.2390  0.1653  0.0848
   90MOL0     C12029   4.292   5.352   8.928  0.3231  0.5421  0.2012
   90MOL0     C12030   4.174   5.313   9.025 -0.6548 -0.4766 -0.3597
   90MOL0     C12031   4.080   5.217   8.947 -0.1366  0.0821  0.7160
   90MOL0     N12032   3.937   5.208   8.994  0.1247 -0.4172 -0.5327
   90MOL0     C12033   3.892   5.111   9.073  0.8922 -0.3619 -0.3684
   90MOL0     C12034   3.758   5.123   9.084  0.8252 -0.2353  1.1597
   90MOL0     C12035   3.666   5.032   9.163 -1.0339 -0.5195  0.2080
   90MOL0     C12036   3.589   5.094   9.280  0.5086  0.7128  0.0773
   90MOL0     C12037   3.651   5.113   9.419  0.3002  0.6358 -0.0127
   90MOL0     C12038   3.761   5.219   9.422  0.2607 -0.1595 -0.1001
   90MOL0     O12039   3.888   5.172   9.365  0.6014  0.9361 -0.2435
   90MOL0     C12040   3.994   5.211   9.438 -0.1444  0.0721 -0.1627
   90MOL0     C12041   4.097   5.116   9.458 -0.7010  0.3757 -0.3554
   90MOL0     C12042   4.210   5.154   9.526 -0.5084  0.1893 -0.2319
   90MOL0     C12043   4.224   5.283   9.579  0.1852 -0.5261  0.3090
   90MOL0     C12044   4.346   5.316   9.654 -0.0543 -0.8235 -0.2258
   90MOL0     O12045   4.357   5.447   9.690 -0.8900 -0.3749 -0.4044
   90MOL0     C12046   4.471   5.481   9.756 -0.1719 -0.2003  0.6467
   90MOL0     C12047   4.493   5.452   9.893 -0.6803  1.0396  0.3379
   90MOL0     C12048   4.604   5.508   9.956 -0.0653 -0.4416  0.4804
   90MOL0     C12049   4.687   5.607   9.894 -0.3019 -1.0411 -0.8196
   90MOL0     O12050   4.805   5.667   9.938 -0.1330  0.0579  0.3018
   90MOL0     C12051   4.848   5.650  10.075  0.3065  0.5396  0.4498
   90MOL0     C12052   4.955   5.751  10.109 -1.1778  0.7965  0.0663
   90MOL0     C12053   5.100   5.703  10.091 -0.6120  0.7449  0.0121
   90MOL0     C12054   5.203   5.819  10.068 -0.5758  0.3789  0.5295
   90MOL0     C12055   5.356   5.801  10.106  0.7086 -0.4029 -0.3694
   90MOL0     C12056   5.410   5.700  10.007 -0.3481  0.2239 -0.1512
   90MOL0     C12057   5.521   5.610  10.059  0.0190 -0.8001 -0.5397
   90MOL0     C12058   5.666   5.671  10.043  0.1382  0.6591 -0.4821
   90MOL0    Cl12059   5.680   5.707   9.871 -0.3390 -0.4240  0.0636
   90MOL0     C12060   4.665   5.634   9.758 -0.0787  0.3436 -0.1981
   90MOL0     C12061   4.550   5.579   9.691 -0.4919 -0.0045 -0.6447
   90MOL0     O12062   4.428   5.233   9.686 -0.0721 -0.0053 -0.3265
   90MOL0     C12063   4.127   5.377   9.549  0.5992 -0.5210  0.0692
   90MOL0     C12064   4.016   5.340   9.480 -1.0093  0.6574  0.0877
   90MOL0     N12065   3.732   5.227   8.992  0.4793 -0.0632 -0.3627
   90MOL0     N12066   3.835   5.284   8.944 -0.0191  0.5427 -0.0617
   90MOL0     C12067   4.494   5.272   8.204 -0.3265 -0.3141  0.2483
   90MOL0     C12068   4.464   5.335   8.081  0.2416  0.1050  0.1078
   90MOL0     C12069   4.306   5.709   7.845  0.7573 -0.2076  0.1083
   90MOL0     C12070   4.299   5.636   7.717 -0.6585  0.0090 -0.5770
   90MOL0     C12071   4.248   5.695   7.607 -0.4636 -0.2369  0.6340
   90MOL0     C12072   4.198   5.828   7.610 -0.6663 -1.2559 -0.5952
   90MOL0     O12073   4.151   5.871   7.489  1.0388 -0.5024  0.7383
   90MOL0     C12074   4.087   6.001   7.477  0.2088  0.4395  0.0791
   90MOL0     C12075   4.056   6.033   7.326  0.0419 -0.7953 -0.6027
   90MOL0     C12076   4.083   5.916   7.215  0.3541  0.5164  0.1436
   90MOL0     C12077   4.030   5.952   7.077  0.0885 -0.2911  0.0844
   90MOL0     C12078   3.883   5.929   7.068  0.4471 -0.1140  0.6773
   90MOL0     C12079   3.759   5.922   7.053 -0.0779  0.6941  0.5690
   90MOL0     C12080   4.210   5.903   7.736 -0.4391 -0.1162  0.4745
   90MOL0     C12081   4.257   5.843   7.857 -1.1523 -0.3328  0.2400
   90MOL0     C12082   4.260   5.923   7.984 -0.1929 -0.7751 -1.1292
   90MOL0     H12083   4.577   5.645   8.157 -0.9443  0.2020 -5.6064
   90MOL0     H12084   4.609   5.546   8.367 -1.0733 -0.9718  2.1054
   90MOL0     H12085   4.747   5.386   8.494  1.9025  0.5112  2.1359
   90MOL0     H12086   4.597   5.430   8.584  2.4443  0.4912  2.7897
   90MOL0     H12087   4.767   5.289   8.717  1.0980 -2.2177 -0.2236
   90MOL0     H12088   4.758   5.166   8.602 -0.9065 -1.7374 -0.3056
   90MOL0     H12089   4.621   5.117   8.802 -0.9433 -0.9705  0.1667
   90MOL0     H12090   4.516   5.118   8.665  2.0409 -2.4853 -0.8984
   90MOL0     H12091   4.546   5.368   8.839 -0.4673 -0.9224  2.0913
   90MOL0     H12092   4.429   5.347   8.715  0.3937 -0.5344 -1.6091
   90MOL0     H12093   4.333   5.150   8.835 -2.0760  2.3418 -1.2384
   90MOL0     H12094   4.461   5.195   8.955  0.0867  1.9394  1.2166
   90MOL0     H12095   4.349   5.432   8.975 -0.9949  0.1397  2.6319
   90MOL0     H12096   4.249   5.407   8.843 -1.7173  0.9066  1.3975
   90MOL0     H12097   4.123   5.403   9.062 -1.9521 -0.8919 -1.0679
   90MOL0     H12098   4.216   5.259   9.110  2.1111  0.7029 -0.8821
   90MOL0     H12099   4.086   5.247   8.842 -1.3765  1.0115  0.8892
   90MOL0     H12100   4.115   5.115   8.964  2.4751  0.8895  0.6346
   90MOL0     H12101   3.943   5.043   9.139 -1.3918  3.3706  6.1909
   90MOL0     H12102   3.608   4.966   9.098  0.7422 -0.5463 -1.4568
   90MOL0     H12103   3.735   4.964   9.214  0.3039  0.3408 -0.4059
   90MOL0     H12104   3.532   5.182   9.250  1.0019  2.6221  4.0720
   90MOL0     H12105   3.518   5.012   9.290  1.2543  0.1237  0.7644
   90MOL0     H12106   3.704   5.027   9.460  0.5616  0.0418 -1.5238
   90MOL0     H12107   3.578   5.133   9.498  0.7410  1.9891  0.0859
   90MOL0     H12108   3.767   5.252   9.526 -1.7380 -0.0814  0.0247
   90MOL0     H12109   3.723   5.302   9.363 -0.4664  0.5537  1.3167
   90MOL0     H12110   4.092   5.022   9.403  3.2208  0.0029 -0.3296
   90MOL0     H12111   4.299   5.092   9.529  1.4582  2.8702  0.1279
   90MOL0     H12112   4.438   5.382   9.955  2.9540 -0.7136  1.8618
   90MOL0     H12113   4.639   5.467  10.050 -1.9326  0.9057  1.8272
   90MOL0     H12114   4.770   5.659  10.151  0.8271 -1.0810  1.2346
   90MOL0     H12115   4.897   5.557  10.104  0.4357 -0.6695 -3.1247
   90MOL0     H12116   4.949   5.837  10.041  2.4522  1.2691  0.1229
   90MOL0     H12117   4.929   5.792  10.207 -0.9258 -1.4818  1.1543
   90MOL0     H12118   5.115   5.659  10.189  2.4878  2.2050  0.3028
   90MOL0     H12119   5.097   5.620  10.019 -0.6629  0.0993  0.7530
   90MOL0     H12120   5.170   5.898  10.136  1.0224  0.5516  1.1486
   90MOL0     H12121   5.194   5.834   9.961 -0.3371 -3.3761 -0.1467
   90MOL0     H12122   5.362   5.768  10.211  1.8112  2.1072  0.4372
   90MOL0     H12123   5.418   5.891  10.104  2.5443 -1.6242 -0.6374
   90MOL0     H12124   5.336   5.627   9.973  0.1309  0.6248 -2.1552
   90MOL0     H12125   5.439   5.757   9.919  2.8112 -1.3677 -0.2689
   90MOL0     H12126   5.518   5.521   9.995 -2.0116 -0.2505 -1.2881
   90MOL0     H12127   5.505   5.572  10.161 -0.3220 -0.4602 -0.4644
   90MOL0     H12128   5.668   5.758  10.109 -0.6382  0.3349 -0.0276
   90MOL0     H12129   5.746   5.605  10.078  1.7131  0.7967 -3.4831
   90MOL0     H12130   4.743   5.692   9.709  1.3056 -1.1920  0.1151
   90MOL0     H12131   4.533   5.606   9.587 -0.9485  0.8729 -0.3559
   90MOL0     H12132   4.132   5.477   9.591 -0.5104 -0.4936  0.1519
   90MOL0     H12133   3.950   5.420   9.448  1.8497  2.8758 -0.6801
   90MOL0     H12134   4.472   5.169   8.228 -0.6380  0.2015  2.5038
   90MOL0     H12135   4.408   5.291   7.999  1.4584  1.6046 -1.5758
   90MOL0     H12136   4.322   5.531   7.703 -0.9800  0.2178 -2.9896
   90MOL0     H12137   4.226   5.643   7.514 -5.8704  4.5790 -1.3579
   90MOL0     H12138   4.143   6.082   7.524 -3.0249  2.5826  0.5502
   90MOL0     H12139   3.988   5.981   7.518  0.1449 -1.9630 -1.0728
   90MOL0     H12140   4.123   6.114   7.295 -0.1741 -0.3909 -0.0178
   90MOL0     H12141   3.958   6.081   7.315  2.1531  4.0540 -0.6483
   90MOL0     H12142   4.036   5.823   7.249  1.2511  0.2700  0.7228
   90MOL0     H12143   4.191   5.904   7.204  0.4971  2.0995 -0.5036
   90MOL0     H12144   4.044   6.059   7.058  0.3860 -0.6011 -1.5729
   90MOL0     H12145   4.080   5.892   7.001  0.5406 -0.7359  0.7303
   90MOL0     H12146   3.654   5.917   7.032  0.3820  0.4539 -1.9815
   90MOL0     H12147   4.192   6.009   7.748 -1.1210 -0.3274  1.4118
   90MOL0     H12148   4.357   5.909   8.034 -1.3842 -0.8772  1.2777
   90MOL0     H12149   4.235   6.028   7.966 -2.9396 -1.0086  0.7847
   90MOL0     H12150   4.182   5.881   8.048 -0.4819  2.3280  0.7655
   91MOL0     O12151   7.165   2.617  10.622 -0.2037  0.8190 -0.2696
   91MOL0     C12152   7.167   2.557  10.520  0.7293 -0.0093  0.4373
   91MOL0     O12153   7.213   2.606  10.404 -0.3201 -0.5659 -0.3973
   91MOL0     C12154   7.192   2.741  10.383  0.3987 -0.3427  0.0841
   91MOL0     C12155   7.077   2.815  10.423 -0.0117 -0.1522  0.3472
   91MOL0     C12156   7.060   2.945  10.364  0.4451  0.0080 -0.0819
   91MOL0     C12157   7.164   3.003  10.293 -0.0807 -0.0947 -0.4913
   91MOL0     O12158   7.156   3.133  10.239 -0.2962 -0.2720  0.1802
   91MOL0     C12159   7.041   3.218  10.267 -0.4864  0.9232 -0.1353
   91MOL0     C12160   7.036   3.326  10.162 -0.4705 -0.6466  0.5080
   91MOL0     C12161   7.173   3.407  10.161  0.4257 -0.2729  0.5486
   91MOL0     C12162   7.163   3.530  10.079  0.1136 -0.1439 -0.0590
   91MOL0     C12163   7.295   3.613  10.067 -0.0280 -0.1820 -0.6365
   91MOL0     C12164   7.388   3.563   9.955  0.7230  0.6156  0.1911
   91MOL0     C12165   7.523   3.632   9.960 -0.7812  0.4572  0.1846
   91MOL0     C12166   7.609   3.567  10.074  0.4865  0.1485  0.8278
   91MOL0     N12167   7.745   3.633  10.073  0.3144  0.4562 -0.0369
   91MOL0     C12168   7.773   3.729  10.154  0.5224  0.2262 -1.3463
   91MOL0     C12169   7.901   3.762  10.126  0.2285 -0.1265 -0.5773
   91MOL0     C12170   7.985   3.866  10.199  0.6136  0.6226  0.2219
   91MOL0     C12171   8.125   3.881  10.138  1.1516  0.3674 -0.7929
   91MOL0     C12172   8.218   3.777  10.200  0.7127 -0.0401  1.0248
   91MOL0     C12173   8.336   3.739  10.106 -0.1077 -1.1114  0.7123
   91MOL0     O12174   8.386   3.612  10.150 -0.6289  0.4397 -0.3739
   91MOL0     C12175   8.313   3.498  10.125 -0.0758 -0.3096 -0.1351
   91MOL0     C12176   8.350   3.377  10.190 -0.4245 -0.7673  0.5769
   91MOL0     C12177   8.282   3.256  10.158  0.6264  0.0713  0.0733
   91MOL0     C12178   8.177   3.253  10.068  0.3499  0.2584  1.0240
   91MOL0     C12179   8.095   3.136  10.047  0.7164 -0.5378 -0.3091
   91MOL0     O12180   7.989   3.139   9.962  0.4224 -0.5662 -0.4892
   91MOL0     C12181   7.878   3.055   9.963  0.4660  0.1743 -0.4390
   91MOL0     C12182   7.758   3.113   9.924 -0.1453  0.0689  0.5111
   91MOL0     C12183   7.642   3.037   9.947  1.3520  0.2278 -1.6046
   91MOL0     C12184   7.645   2.902   9.988 -0.3572  0.3658 -0.2299
   91MOL0     O12185   7.520   2.847   9.992  0.5616  0.1425 -0.0215
   91MOL0     C12186   7.511   2.751   9.883  0.8033 -0.1308  0.4642
   91MOL0     C12187   7.364   2.709   9.843  0.4047 -0.4242 -0.0884
   91MOL0     C12188   7.277   2.681   9.962  0.1927  0.2573  0.4207
   91MOL0     C12189   7.160   2.592   9.908  0.1508 -0.5614  0.2620
   91MOL0     C12190   7.078   2.559  10.033  0.0687 -0.6973  0.1179
   91MOL0     C12191   6.969   2.459   9.987  0.2367  0.3821  0.7906
   91MOL0     C12192   6.838   2.488  10.081  0.5442  0.1447 -0.2997
   91MOL0     C12193   6.729   2.382  10.061 -0.7136 -0.8758 -0.3355
   91MOL0    Cl12194   6.773   2.224  10.127  0.1505  0.4961 -0.1613
   91MOL0     C12195   7.772   2.838  10.014  0.0654  0.1040  0.4568
   91MOL0     C12196   7.885   2.915  10.004  0.4811 -0.7769  0.5830
   91MOL0     O12197   8.116   3.042  10.127 -0.0887 -0.2139 -0.2358
   91MOL0     C12198   8.137   3.372  10.015 -0.1202  0.4430 -0.3038
   91MOL0     C12199   8.200   3.496  10.036 -0.9370  0.2381 -0.0022
   91MOL0     N12200   7.947   3.684  10.028 -0.1114  0.0781  1.1926
   91MOL0     N12201   7.854   3.596  10.005  0.3375  0.8251 -0.4714
   91MOL0     C12202   7.274   2.929  10.259  0.3964  0.2258 -0.0024
   91MOL0     C12203   7.287   2.803  10.305 -1.5547 -0.6723 -0.1403
   91MOL0     C12204   7.149   2.411  10.517  0.1723 -0.4567 -0.3067
   91MOL0     C12205   7.191   2.347  10.404 -0.6312 -0.3956 -0.2936
   91MOL0     C12206   7.160   2.212  10.380 -0.5286 -0.4564  0.3702
   91MOL0     C12207   7.079   2.143  10.474 -0.0453  0.3097  0.9360
   91MOL0     O12208   7.045   2.014  10.458 -0.2391 -0.2725  0.0159
   91MOL0     C12209   7.102   1.945  10.340  0.2244  0.3130  0.6937
   91MOL0     C12210   7.042   1.795  10.344  0.2770 -0.1824 -0.7117
   91MOL0     C12211   7.099   1.717  10.467  0.9391 -0.5598  0.1288
   91MOL0     C12212   7.064   1.569  10.459 -0.5673 -0.0927  0.1086
   91MOL0     C12213   7.057   1.501  10.596  0.5303  0.6539 -0.5089
   91MOL0     C12214   7.035   1.440  10.701  0.0466 -0.5062  0.7898
   91MOL0     C12215   7.037   2.206  10.587 -0.1225  0.0640 -0.5754
   91MOL0     C12216   7.070   2.342  10.607 -0.9282  0.1315 -0.5169
   91MOL0     C12217   7.005   2.410  10.723 -0.3386  0.4998 -0.4265
   91MOL0     H12218   6.999   2.785  10.492 -0.2335  0.2464  0.2707
   91MOL0     H12219   6.970   3.001  10.385 -0.6060 -1.2873 -0.9294
   91MOL0     H12220   6.947   3.162  10.262  0.2861 -0.3889 -0.5214
   91MOL0     H12221   7.041   3.255  10.370 -2.8192  1.7652 -0.3835
   91MOL0     H12222   6.958   3.392  10.199 -0.0111 -0.3435  0.9517
   91MOL0     H12223   7.014   3.281  10.065 -2.1554  0.1058  0.5215
   91MOL0     H12224   7.248   3.334  10.131 -0.5760 -0.8288 -0.7319
   91MOL0     H12225   7.200   3.435  10.263  1.0884  0.7292  0.1088
   91MOL0     H12226   7.123   3.514   9.978 -0.2071  4.6014 -0.8995
   91MOL0     H12227   7.085   3.597  10.118  1.5778  1.6855 -0.1375
   91MOL0     H12228   7.265   3.718  10.066  0.3700 -0.0412  0.5095
   91MOL0     H12229   7.354   3.595  10.158  2.2557 -1.0145 -2.1773
   91MOL0     H12230   7.402   3.455   9.960 -0.2777  0.5383  1.8724
   91MOL0     H12231   7.346   3.584   9.856 -0.4283  0.2708  0.5942
   91MOL0     H12232   7.538   3.739   9.971  0.3673  0.3683 -0.3665
   91MOL0     H12233   7.571   3.613   9.863 -0.6842 -0.2490  0.3618
   91MOL0     H12234   7.564   3.586  10.171  2.7680 -1.4680  2.3015
   91MOL0     H12235   7.615   3.459  10.057  2.2263  0.5074 -1.2669
   91MOL0     H12236   7.712   3.779  10.228  3.1257 -0.2240  1.3000
   91MOL0     H12237   7.936   3.962  10.181 -1.8947 -0.6603 -0.2454
   91MOL0     H12238   7.987   3.859  10.308  0.4588  2.1064  0.3480
   91MOL0     H12239   8.103   3.862  10.033 -2.3100  0.7562 -0.2861
   91MOL0     H12240   8.173   3.978  10.152  0.0299  1.0646 -1.5947
   91MOL0     H12241   8.154   3.692  10.225 -1.2187  0.2220 -2.3978
   91MOL0     H12242   8.271   3.811  10.290  2.0142 -0.9932  0.6542
   91MOL0     H12243   8.411   3.815  10.129 -0.2699  0.2308 -2.6594
   91MOL0     H12244   8.327   3.747   9.998 -0.7105  1.5212  0.8776
   91MOL0     H12245   8.428   3.385  10.266 -1.3114  0.9506  1.3493
   91MOL0     H12246   8.296   3.160  10.207 -3.2018 -0.6859 -0.0337
   91MOL0     H12247   7.772   3.213   9.886  2.7116  0.9123  3.3348
   91MOL0     H12248   7.544   3.082   9.936  1.5522  0.2722 -3.6036
   91MOL0     H12249   7.566   2.780   9.793 -0.3484 -2.7930 -1.2079
   91MOL0     H12250   7.571   2.662   9.901  2.3982  0.8997  0.4496
   91MOL0     H12251   7.310   2.781   9.780 -0.9646 -1.2789  0.0611
   91MOL0     H12252   7.377   2.618   9.784  0.7433 -0.1625 -0.4259
   91MOL0     H12253   7.339   2.628  10.034  0.8483 -0.0960 -0.3901
   91MOL0     H12254   7.244   2.773  10.011 -2.6642 -1.1428  1.3574
   91MOL0     H12255   7.196   2.498   9.866  1.2656  0.3021 -0.8239
   91MOL0     H12256   7.120   2.644   9.820 -0.6224 -0.6995  0.5242
   91MOL0     H12257   7.040   2.657  10.065 -1.0897 -0.4879 -1.7439
   91MOL0     H12258   7.140   2.521  10.115  0.8872  1.1713  0.4333
   91MOL0     H12259   6.948   2.461   9.880  2.4709  0.7939  0.2991
   91MOL0     H12260   7.001   2.357  10.014  0.4077  0.3105  0.3270
   91MOL0     H12261   6.795   2.585  10.053 -0.3762 -0.9076 -2.7813
   91MOL0     H12262   6.867   2.484  10.187  2.2438 -4.2862 -0.7380
   91MOL0     H12263   6.646   2.423  10.120 -1.8378 -2.9624 -0.3733
   91MOL0     H12264   6.702   2.377   9.955 -0.6063 -0.8098 -0.3663
   91MOL0     H12265   7.773   2.736  10.051 -2.9809  0.4442  1.8185
   91MOL0     H12266   7.984   2.872  10.009  0.2519 -2.3820 -3.9688
   91MOL0     H12267   8.052   3.367   9.947  0.0117 -0.5974 -0.4114
   91MOL0     H12268   8.178   3.588   9.983  0.1919 -1.2968 -3.4941
   91MOL0     H12269   7.341   2.962  10.181 -1.9346 -0.5336 -2.4641
   91MOL0     H12270   7.372   2.746  10.269 -1.6966 -0.5929 -0.5990
   91MOL0     H12271   7.239   2.390  10.316  1.7851 -0.8823  0.7157
   91MOL0     H12272   7.190   2.156  10.292  1.0548 -1.2022  1.3277
   91MOL0     H12273   7.211   1.947  10.346  0.3877  0.8071 -1.4121
   91MOL0     H12274   7.077   1.991  10.244  2.4159 -0.7412 -0.4566
   91MOL0     H12275   7.054   1.742  10.249 -2.2054 -1.7102 -0.2532
   91MOL0     H12276   6.936   1.809  10.367  0.3363 -1.2993  0.2829
   91MOL0     H12277   7.048   1.768  10.549 -1.3352 -1.4402 -0.6677
   91MOL0     H12278   7.208   1.725  10.472  0.9471 -0.4995 -0.1028
   91MOL0     H12279   6.964   1.549  10.418 -1.3128  1.4560  1.0915
   91MOL0     H12280   7.144   1.515  10.408 -0.8993 -0.8781  0.3879
   91MOL0     H12281   7.019   1.377  10.786 -1.0755 -1.9127 -0.4170
   91MOL0     H12282   6.964   2.156  10.650  1.0056 -0.0143  0.7351
   91MOL0     H12283   6.969   2.329  10.787  0.8674  1.3332  1.4261
   91MOL0     H12284   7.072   2.470  10.786 -2.4125  3.6587 -0.9542
   91MOL0     H12285   6.919   2.469  10.690  1.2375  1.5022 -3.0957
   92MOL0     O12286   9.880   2.030   6.724 -0.3432 -0.1297  0.3810
   92MOL0     C12287   9.865   2.116   6.633  0.0240  0.3222 -0.5082
   92MOL0     O12288   9.957   2.210   6.603  0.6431  0.2937 -0.2294
   92MOL0     C12289  10.044   2.236   6.704  0.3561 -0.6807 -0.2687
   92MOL0     C12290  10.002   2.258   6.837 -0.4606 -0.3497 -0.3053
   92MOL0     C12291  10.101   2.287   6.934 -0.1675  0.3126  0.5417
   92MOL0     C12292  10.231   2.264   6.906 -0.1746  0.0906  0.0683
   92MOL0     O12293  10.324   2.284   7.009 -0.2506  0.9692  0.3190
   92MOL0     C12294  10.464   2.263   6.983 -0.3337 -0.1293 -0.4097
   92MOL0     C12295  10.520   2.395   6.914 -0.3913  1.0774 -0.7680
   92MOL0     C12296  10.603   2.465   7.017 -0.4318 -0.2335 -0.4862
   92MOL0     C12297  10.661   2.604   6.974 -0.8732  0.3030  0.6425
   92MOL0     C12298  10.809   2.597   6.920  0.8778  0.7962  0.8034
   92MOL0     C12299  10.870   2.740   6.942 -0.0171 -0.0436  0.9007
   92MOL0     C12300  10.814   2.850   6.849  0.5516 -1.0402  0.4655
   92MOL0     C12301  10.900   2.975   6.841  0.3534 -0.1344  0.1536
   92MOL0     N12302  11.018   2.951   6.770  0.1849 -0.3173  0.2903
   92MOL0     C12303  11.023   2.930   6.633 -0.3775 -0.0568  0.1200
   92MOL0     C12304  11.160   2.932   6.603 -0.1442 -0.0688  0.1728
   92MOL0     C12305  11.220   2.888   6.472  0.4802 -0.0399 -0.6200
   92MOL0     C12306  11.337   2.985   6.436  0.1172  0.7006 -0.5057
   92MOL0     C12307  11.300   3.129   6.428 -0.9670 -0.6859  0.1733
   92MOL0     C12308  11.424   3.205   6.371  0.4274 -0.3583  0.0909
   92MOL0     O12309  11.424   3.194   6.230 -0.1289  0.4781 -0.3951
   92MOL0     C12310  11.538   3.212   6.149 -0.2292 -0.4981 -0.4011
   92MOL0     C12311  11.642   3.114   6.126  0.4839 -0.0337  0.8845
   92MOL0     C12312  11.748   3.135   6.041  0.0569  0.6253  0.1613
   92MOL0     C12313  11.766   3.260   5.981 -0.2767 -0.8916  0.0177
   92MOL0     C12314  11.880   3.297   5.904 -1.0772 -0.3053  0.3120
   92MOL0     O12315  11.914   3.433   5.910  0.4842  0.3022  0.0147
   92MOL0     C12316  12.022   3.471   5.834 -0.7608 -0.4214 -0.5093
   92MOL0     C12317  12.151   3.507   5.881  0.4955  0.4986  0.6653
   92MOL0     C12318  12.243   3.568   5.789  0.3139 -0.5227 -0.5583
   92MOL0     C12319  12.218   3.587   5.653 -0.0558  0.7714 -0.2207
   92MOL0     O12320  12.303   3.636   5.563 -0.2461  0.6214  0.1170
   92MOL0     C12321  12.414   3.557   5.528 -0.8003  0.6287  0.5174
   92MOL0     C12322  12.427   3.585   5.378 -0.1156  0.0780  0.1503
   92MOL0     C12323  12.437   3.736   5.338  0.9416  0.3385  0.6678
   92MOL0     C12324  12.545   3.761   5.225 -0.0402  0.0754  0.0882
   92MOL0     C12325  12.686   3.752   5.280  0.6470  0.4785  0.4458
   92MOL0     C12326  12.798   3.784   5.185 -1.5461 -0.5869 -0.6280
   92MOL0     C12327  12.927   3.703   5.222 -0.3436 -0.4491 -1.0429
   92MOL0     C12328  12.988   3.633   5.104 -0.2487  0.1141 -0.3290
   92MOL0    Cl12329  12.876   3.520   5.001 -1.0646  0.0918 -0.0884
   92MOL0     C12330  12.092   3.551   5.609  0.0832  0.2654 -0.2603
   92MOL0     C12331  12.002   3.497   5.701  0.0647 -0.1211 -0.0863
   92MOL0     O12332  11.962   3.203   5.871  0.2635 -0.4459  0.3227
   92MOL0     C12333  11.660   3.362   5.998  0.1778  0.2525 -0.3424
   92MOL0     C12334  11.553   3.332   6.089  0.3756 -0.1424 -0.2256
   92MOL0     N12335  11.224   2.955   6.719  0.0277 -0.2354  0.1228
   92MOL0     N12336  11.140   2.972   6.808 -0.8051 -0.2824  0.1074
   92MOL0     C12337  10.271   2.246   6.775  0.5813 -0.2225  0.3894
   92MOL0     C12338  10.180   2.229   6.673  0.4749  0.6149  0.2285
   92MOL0     C12339   9.756   2.105   6.536 -0.9287 -0.6154 -0.9263
   92MOL0     C12340   9.759   2.191   6.426  0.2075 -0.4050  0.3192
   92MOL0     C12341   9.651   2.179   6.333 -0.0855  0.2322 -0.1929
   92MOL0     C12342   9.538   2.098   6.360  0.5153 -0.7807 -0.2311
   92MOL0     O12343   9.443   2.096   6.251  0.1692 -0.1597 -0.1876
   92MOL0     C12344   9.324   2.009   6.262  0.3667  0.4365  0.6037
   92MOL0     C12345   9.197   2.100   6.278 -0.5848 -0.0962 -0.6403
   92MOL0     C12346   9.194   2.194   6.402  0.1180 -0.3076  0.1957
   92MOL0     C12347   9.072   2.287   6.400 -0.4939  0.1998  0.5234
   92MOL0     C12348   9.088   2.416   6.330  0.1184 -0.5895 -0.7211
   92MOL0     C12349   9.094   2.526   6.278  0.5039 -0.0794 -0.6682
   92MOL0     C12350   9.543   2.008   6.468 -0.0350 -0.8380  0.0841
   92MOL0     C12351   9.655   2.009   6.558 -0.1045  0.6761 -0.0472
   92MOL0     C12352   9.641   1.916   6.678  0.7230 -0.2630 -0.2047
   92MOL0     H12353   9.902   2.272   6.876  0.1456  0.6742  0.9398
   92MOL0     H12354  10.081   2.312   7.037  0.3867 -2.2728  1.3652
   92MOL0     H12355  10.514   2.237   7.077  2.0999 -5.1435 -2.7274
   92MOL0     H12356  10.482   2.175   6.921 -2.0007  0.2856 -1.5539
   92MOL0     H12357  10.434   2.450   6.873 -1.2577  0.2025 -0.1828
   92MOL0     H12358  10.586   2.356   6.835  1.5964 -0.2928  1.4463
   92MOL0     H12359  10.687   2.406   7.053 -0.6695 -0.6143 -0.5496
   92MOL0     H12360  10.543   2.485   7.107 -0.8396 -2.6843 -0.1430
   92MOL0     H12361  10.596   2.638   6.893  1.7230 -2.1113 -2.7451
   92MOL0     H12362  10.650   2.680   7.052 -3.7979 -0.6103  1.2496
   92MOL0     H12363  10.868   2.526   6.979  0.8432  0.1262  0.0616
   92MOL0     H12364  10.824   2.559   6.818 -0.5556 -0.9110  1.1635
   92MOL0     H12365  10.855   2.774   7.045 -1.9799 -1.2936  1.0839
   92MOL0     H12366  10.975   2.744   6.913  0.1506 -0.4755  1.4438
   92MOL0     H12367  10.714   2.881   6.879  0.8477  2.3766 -1.5048
   92MOL0     H12368  10.797   2.812   6.748 -0.1365  0.0073  0.1710
   92MOL0     H12369  10.838   3.048   6.788 -0.4306 -0.0665  1.1228
   92MOL0     H12370  10.912   3.016   6.942  1.7955  1.8584 -0.7653
   92MOL0     H12371  10.941   2.921   6.563 -0.5077  3.5899 -0.3769
   92MOL0     H12372  11.254   2.784   6.472  0.6662 -0.0044 -2.0105
   92MOL0     H12373  11.145   2.904   6.394 -3.0478  1.3693  2.7034
   92MOL0     H12374  11.413   2.962   6.511  0.3383  0.7222 -0.7244
   92MOL0     H12375  11.376   2.956   6.339  1.4861  2.9038 -0.6835
   92MOL0     H12376  11.280   3.176   6.526  0.8689  0.9837 -0.1814
   92MOL0     H12377  11.206   3.141   6.372  0.1216  3.5772 -1.1536
   92MOL0     H12378  11.517   3.186   6.425 -0.1439  2.0759  2.1606
   92MOL0     H12379  11.414   3.314   6.370 -3.4040 -0.5390 -2.1400
   92MOL0     H12380  11.653   3.018   6.175  3.6574 -0.0314  0.4027
   92MOL0     H12381  11.832   3.067   6.028  1.9772  3.0285 -0.8339
   92MOL0     H12382  12.167   3.494   5.987 -4.1405  0.4795  1.5776
   92MOL0     H12383  12.332   3.594   5.845  2.3569 -1.0371 -3.3543
   92MOL0     H12384  12.499   3.602   5.581 -1.2247  1.9236  0.1458
   92MOL0     H12385  12.392   3.451   5.545  0.0106  0.5132  0.8900
   92MOL0     H12386  12.506   3.526   5.328 -1.6077 -1.3123 -0.6705
   92MOL0     H12387  12.338   3.545   5.329  0.9122  0.8051 -2.4688
   92MOL0     H12388  12.335   3.767   5.315  1.0517  1.0487  1.1133
   92MOL0     H12389  12.463   3.797   5.424  1.7008 -2.0339  2.2308
   92MOL0     H12390  12.530   3.865   5.193  1.5232  0.7487  1.4333
   92MOL0     H12391  12.529   3.692   5.142 -0.5722  2.2313 -1.7100
   92MOL0     H12392  12.701   3.648   5.308  0.0136  0.2206 -0.1546
   92MOL0     H12393  12.694   3.812   5.372 -0.5283  0.2369  0.7267
   92MOL0     H12394  12.767   3.763   5.082 -3.3988 -0.9350 -0.0433
   92MOL0     H12395  12.825   3.889   5.197  3.1056 -1.6886  0.2870
   92MOL0     H12396  12.910   3.625   5.296  2.3242 -0.3979 -0.2824
   92MOL0     H12397  13.003   3.767   5.269 -1.3380  1.0868 -1.4405
   92MOL0     H12398  13.032   3.706   5.035  1.4090 -0.3451  0.1857
   92MOL0     H12399  13.070   3.572   5.143 -0.6249  0.8915  1.8080
   92MOL0     H12400  12.052   3.552   5.508 -0.8631 -2.7294 -0.0252
   92MOL0     H12401  11.908   3.464   5.658 -0.0159 -1.6356  1.1564
   92MOL0     H12402  11.664   3.457   5.946 -0.5001  1.7721  2.2176
   92MOL0     H12403  11.481   3.409   6.115  1.3770  0.6694  0.1986
   92MOL0     H12404  10.375   2.233   6.748  0.4738  1.2624 -0.8647
   92MOL0     H12405  10.215   2.204   6.573 -1.1315  1.6153 -0.6216
   92MOL0     H12406   9.836   2.266   6.412  2.1413 -2.6014 -1.5869
   92MOL0     H12407   9.654   2.248   6.250 -0.8076  0.4662 -0.0370
   92MOL0     H12408   9.330   1.945   6.350  0.4586  1.7583  1.6025
   92MOL0     H12409   9.309   1.956   6.168 -1.1361  3.2959 -0.9196
   92MOL0     H12410   9.103   2.044   6.273 -0.5268 -0.3040  0.4490
   92MOL0     H12411   9.191   2.161   6.187  0.7227  2.3581  0.8078
   92MOL0     H12412   9.285   2.255   6.403  3.0029 -4.1931  0.7767
   92MOL0     H12413   9.189   2.139   6.497 -2.3404  0.4401  0.5707
   92MOL0     H12414   8.991   2.228   6.354  1.2714 -0.7607 -1.5373
   92MOL0     H12415   9.044   2.315   6.502  1.2619 -0.9370  1.3543
   92MOL0     H12416   9.102   2.628   6.245  2.2030 -0.3585 -1.2181
   92MOL0     H12417   9.459   1.941   6.483 -0.8833 -0.6235 -3.0460
   92MOL0     H12418   9.718   1.840   6.689  0.2360 -0.8468 -0.7225
   92MOL0     H12419   9.634   1.971   6.772  0.7752  0.4792 -0.6264
   92MOL0     H12420   9.549   1.858   6.661  1.3468 -2.4068  2.9504
   93MOL0     O12421   4.636   8.872   9.210  0.1300  0.2182  0.2168
   93MOL0     C12422   4.588   8.875   9.098  0.0548  0.0442  0.8621
   93MOL0     O12423   4.548   8.763   9.021 -0.3191 -0.6046 -0.3567
   93MOL0     C12424   4.566   8.636   9.061  0.4557 -0.0230 -1.2157
   93MOL0     C12425   4.627   8.581   9.175 -0.1309 -0.6388 -0.5097
   93MOL0     C12426   4.656   8.450   9.185 -0.4601  0.4994  0.3043
   93MOL0     C12427   4.616   8.356   9.084  0.8564  0.5229 -0.0120
   93MOL0     O12428   4.650   8.226   9.083  0.2035 -0.3122  0.5966
   93MOL0     C12429   4.707   8.160   9.191  0.7326  1.1775 -0.7025
   93MOL0     C12430   4.607   8.150   9.314  0.2404 -0.4464  0.5894
   93MOL0     C12431   4.471   8.072   9.302  0.8641  0.5762 -0.5734
   93MOL0     C12432   4.363   8.143   9.220  0.2173  0.3106 -0.6257
   93MOL0     C12433   4.246   8.044   9.188  0.0362  0.2913 -0.2583
   93MOL0     C12434   4.138   8.098   9.095  0.2456 -0.5603 -0.0364
   93MOL0     C12435   4.184   8.170   8.963 -0.5883  0.6435 -0.6413
   93MOL0     C12436   4.063   8.153   8.856 -0.0449  0.1133 -0.0613
   93MOL0     N12437   4.115   8.159   8.712 -0.3925 -0.3713 -0.0783
   93MOL0     C12438   4.155   8.045   8.639  0.2425 -0.5822  1.1320
   93MOL0     C12439   4.156   8.092   8.506  0.2464 -0.3207 -0.3903
   93MOL0     C12440   4.173   8.002   8.382  1.3273 -0.2157  0.3959
   93MOL0     C12441   4.076   8.064   8.268 -0.1069  0.1905 -0.5494
   93MOL0     C12442   3.923   8.059   8.299  0.0263  0.2570 -0.2848
   93MOL0     C12443   3.839   8.097   8.186  0.2652  0.5931 -0.4492
   93MOL0     O12444   3.852   8.237   8.154  0.0301 -0.1444  0.2184
   93MOL0     C12445   3.768   8.296   8.074  0.8889 -0.4366  0.0925
   93MOL0     C12446   3.754   8.437   8.082  0.4386  0.0812  0.8581
   93MOL0     C12447   3.686   8.511   7.991  0.4004  0.7448  1.2944
   93MOL0     C12448   3.612   8.457   7.894  0.4987 -0.6325  0.0863
   93MOL0     C12449   3.551   8.530   7.779 -0.5616 -1.2957 -0.6260
   93MOL0     O12450   3.510   8.455   7.673 -0.1548 -1.0213  0.1598
   93MOL0     C12451   3.502   8.509   7.551 -0.2445 -0.0751 -0.0192
   93MOL0     C12452   3.386   8.477   7.474 -0.0463  0.3789  1.4569
   93MOL0     C12453   3.365   8.542   7.351 -0.1225 -0.4976 -0.6535
   93MOL0     C12454   3.440   8.659   7.314  0.2325 -0.4062 -0.0536
   93MOL0     O12455   3.409   8.742   7.210  0.2714 -0.6645  0.6331
   93MOL0     C12456   3.320   8.722   7.107  1.2898  0.6728  0.5909
   93MOL0     C12457   3.346   8.604   7.009  0.3417  0.0585 -0.4669
   93MOL0     C12458   3.248   8.614   6.886  0.2891 -0.3337  0.2436
   93MOL0     C12459   3.309   8.710   6.786  0.8524 -0.1952  0.1299
   93MOL0     C12460   3.223   8.721   6.656  0.0741 -0.0142 -0.7141
   93MOL0     C12461   3.082   8.768   6.692  0.1134 -0.5811 -0.9137
   93MOL0     C12462   3.002   8.782   6.565 -0.3521 -1.0965 -0.5880
   93MOL0     C12463   2.855   8.834   6.589  0.1662  0.0890  0.0615
   93MOL0    Cl12464   2.764   8.704   6.679 -0.3850  0.2644  0.6860
   93MOL0     C12465   3.561   8.671   7.372  0.7105  0.8157 -0.4758
   93MOL0     C12466   3.597   8.593   7.485 -0.4840 -0.4373 -0.5882
   93MOL0     O12467   3.550   8.650   7.789 -0.3425 -0.0709  0.2524
   93MOL0     C12468   3.613   8.319   7.888  0.0831 -0.2189  0.0313
   93MOL0     C12469   3.691   8.243   7.977  0.1475  0.4711 -0.0692
   93MOL0     N12470   4.106   8.227   8.506 -0.1407  0.2882 -0.4224
   93MOL0     N12471   4.098   8.261   8.631 -0.7005 -0.3060  0.0201
   93MOL0     C12472   4.549   8.411   8.975  0.0958  0.0439  0.2180
   93MOL0     C12473   4.523   8.545   8.963  0.3381 -0.6524 -1.0615
   93MOL0     C12474   4.574   9.015   9.040  0.1013 -1.3846  0.7280
   93MOL0     C12475   4.627   9.123   9.112  0.3437  0.1643  0.6310
   93MOL0     C12476   4.613   9.251   9.077 -0.0582 -0.4964  0.2701
   93MOL0     C12477   4.528   9.285   8.974  0.3132  1.6111  0.2856
   93MOL0     O12478   4.499   9.408   8.917 -0.4316 -0.1232 -0.6514
   93MOL0     C12479   4.584   9.519   8.946 -0.2061  0.8470 -0.6263
   93MOL0     C12480   4.612   9.606   8.823 -0.3983 -0.9102 -0.2207
   93MOL0     C12481   4.656   9.524   8.693 -0.8568  0.0283 -0.9207
   93MOL0     C12482   4.810   9.518   8.682  0.0943 -0.0181 -0.6151
   93MOL0     C12483   4.875   9.487   8.809 -0.0342 -0.4447 -1.0594
   93MOL0     C12484   4.932   9.460   8.908 -0.4230 -0.3502 -0.9078
   93MOL0     C12485   4.473   9.176   8.895  0.2074  0.2714  0.3961
   93MOL0     C12486   4.493   9.039   8.926 -0.5945 -1.6285  0.8068
   93MOL0     C12487   4.399   8.949   8.853  0.1876  0.9721  0.1531
   93MOL0     H12488   4.668   8.635   9.260 -0.0804 -1.6226  0.1017
   93MOL0     H12489   4.721   8.415   9.265  0.7696  1.1692 -0.3723
   93MOL0     H12490   4.715   8.057   9.155  0.0734  0.6635  0.5559
   93MOL0     H12491   4.800   8.189   9.240  0.2245 -1.1735  1.9158
   93MOL0     H12492   4.590   8.250   9.355 -0.3991 -1.4625  2.9350
   93MOL0     H12493   4.666   8.098   9.390 -0.8646 -0.6093  1.3520
   93MOL0     H12494   4.432   8.040   9.399  2.4005 -1.0648 -0.4397
   93MOL0     H12495   4.492   7.970   9.266 -2.4298 -0.8780  1.2070
   93MOL0     H12496   4.333   8.228   9.283  0.6826 -0.7309  1.0782
   93MOL0     H12497   4.399   8.189   9.128 -2.5868  1.9636 -1.0000
   93MOL0     H12498   4.283   7.957   9.133  0.7472 -0.7636  1.7835
   93MOL0     H12499   4.193   8.013   9.279 -1.3417 -0.3401 -1.2451
   93MOL0     H12500   4.067   8.016   9.081 -0.0178 -0.1083 -1.4639
   93MOL0     H12501   4.082   8.171   9.155 -0.1012 -2.2367  1.8013
   93MOL0     H12502   4.273   8.116   8.929  1.0488  1.7436  1.5895
   93MOL0     H12503   4.214   8.274   8.973 -0.4050  0.4107  1.9034
   93MOL0     H12504   4.024   8.052   8.870  1.4489 -0.5411 -0.3879
   93MOL0     H12505   3.986   8.230   8.862 -0.3826 -0.1938 -0.4451
   93MOL0     H12506   4.167   7.944   8.675  3.3628 -0.8845 -0.3967
   93MOL0     H12507   4.275   8.012   8.343  0.0649  0.8335 -3.0197
   93MOL0     H12508   4.147   7.901   8.416 -0.6873 -0.7144 -2.2622
   93MOL0     H12509   4.105   8.169   8.260  1.4209 -0.1575  0.1197
   93MOL0     H12510   4.089   8.018   8.170  0.5335 -2.2063  0.5870
   93MOL0     H12511   3.904   8.118   8.389 -0.4289 -4.2166  2.8837
   93MOL0     H12512   3.897   7.957   8.327 -1.7426  1.1448  1.6176
   93MOL0     H12513   3.733   8.088   8.212  0.2471  5.2069  1.9679
   93MOL0     H12514   3.870   8.022   8.113 -0.0482  0.3236 -0.3096
   93MOL0     H12515   3.813   8.493   8.154  3.7790 -0.8800 -0.9015
   93MOL0     H12516   3.694   8.619   8.000  0.3649  0.7572  1.1804
   93MOL0     H12517   3.326   8.400   7.521  2.7429 -1.7460  1.7985
   93MOL0     H12518   3.272   8.525   7.298 -1.1001  0.1861  0.7600
   93MOL0     H12519   3.223   8.710   7.157  0.1930 -0.6037 -1.6976
   93MOL0     H12520   3.319   8.809   7.041  2.1449 -0.0872 -0.4513
   93MOL0     H12521   3.452   8.621   6.990  0.8329  1.0829  2.5625
   93MOL0     H12522   3.340   8.503   7.053 -2.2544  0.0709 -0.6219
   93MOL0     H12523   3.233   8.517   6.838  2.9409  0.0805 -1.6727
   93MOL0     H12524   3.155   8.656   6.926 -0.4657 -0.2092 -1.5642
   93MOL0     H12525   3.409   8.672   6.766  1.1643  0.6187  0.1234
   93MOL0     H12526   3.318   8.807   6.835 -1.4879  0.8237 -1.2589
   93MOL0     H12527   3.221   8.636   6.588  2.4180  0.3089 -1.2626
   93MOL0     H12528   3.254   8.808   6.596  0.3213 -2.7441 -4.9385
   93MOL0     H12529   3.031   8.702   6.763 -0.1697  1.6147  1.0743
   93MOL0     H12530   3.098   8.859   6.751  1.6627 -0.7544 -1.0022
   93MOL0     H12531   3.018   8.692   6.504  0.7218 -2.1048  1.0975
   93MOL0     H12532   3.047   8.866   6.512 -0.6036 -0.3550  0.3525
   93MOL0     H12533   2.863   8.922   6.653  0.9954 -0.3534  0.5853
   93MOL0     H12534   2.817   8.849   6.487 -0.8121 -2.1925  0.0348
   93MOL0     H12535   3.630   8.740   7.325 -0.5056  0.1343 -3.4953
   93MOL0     H12536   3.688   8.619   7.538  0.3627 -1.1089 -1.6850
   93MOL0     H12537   3.553   8.260   7.820 -0.6874  0.3674  0.1972
   93MOL0     H12538   3.674   8.136   7.969  0.9916  0.3854 -0.9971
   93MOL0     H12539   4.511   8.345   8.897 -1.9208  1.4913 -0.1275
   93MOL0     H12540   4.462   8.584   8.882 -1.4433  1.4099  1.1154
   93MOL0     H12541   4.685   9.100   9.201  2.2222  1.5424 -0.1871
   93MOL0     H12542   4.660   9.331   9.133  0.4676 -0.1594 -0.6304
   93MOL0     H12543   4.678   9.493   8.995 -0.5094  0.6670 -0.1313
   93MOL0     H12544   4.544   9.585   9.024 -0.4037 -2.5493  2.3939
   93MOL0     H12545   4.690   9.682   8.838 -0.8488 -0.5505  0.3027
   93MOL0     H12546   4.526   9.667   8.796 -0.2805 -1.1679 -1.2378
   93MOL0     H12547   4.624   9.576   8.602  3.3798  1.2765 -1.9255
   93MOL0     H12548   4.606   9.427   8.690  0.3050 -0.6497  0.4133
   93MOL0     H12549   4.819   9.433   8.614 -0.4047  0.4793 -1.3124
   93MOL0     H12550   4.839   9.618   8.650 -1.0714  1.1145  1.6058
   93MOL0     H12551   4.986   9.428   8.995 -0.3824 -0.5015 -0.9881
   93MOL0     H12552   4.413   9.204   8.809  0.7466 -0.9766 -0.4201
   93MOL0     H12553   4.337   8.909   8.934  2.4173 -5.4686 -0.7378
   93MOL0     H12554   4.331   9.006   8.788  0.6073  1.7057  0.3537
   93MOL0     H12555   4.438   8.856   8.810 -2.3021 -0.6147  1.0482
   94MOL0     O12556   6.436   2.062   5.190  0.5560  0.1578 -0.5569
   94MOL0     C12557   6.428   2.129   5.093 -0.2632 -0.0703  0.6611
   94MOL0     O12558   6.523   2.225   5.052 -0.0576  0.0622 -0.3843
   94MOL0     C12559   6.645   2.224   5.116 -0.7502  0.1737  0.5744
   94MOL0     C12560   6.720   2.118   5.184  0.5269 -0.2417  0.0412
   94MOL0     C12561   6.840   2.144   5.243  0.0871  0.0057  0.3018
   94MOL0     C12562   6.904   2.269   5.253 -0.7577 -0.0107  0.5641
   94MOL0     O12563   7.036   2.287   5.295 -0.3268  0.0999 -0.6347
   94MOL0     C12564   7.068   2.396   5.388  0.1903  0.3764 -1.0289
   94MOL0     C12565   7.011   2.394   5.534 -0.6877  0.6913  0.0214
   94MOL0     C12566   7.052   2.260   5.600  0.3527  0.1617  1.0448
   94MOL0     C12567   7.030   2.242   5.752  0.0811 -0.1276 -0.3311
   94MOL0     C12568   7.093   2.113   5.799  0.1714  0.5412 -1.2561
   94MOL0     C12569   7.241   2.144   5.835 -0.0143  0.0251 -0.5437
   94MOL0     C12570   7.315   2.019   5.873  1.0132  0.5822  0.6213
   94MOL0     C12571   7.282   1.990   6.017  0.0453  0.0923  0.5052
   94MOL0     N12572   7.398   1.925   6.076 -0.1167  1.1007  0.3263
   94MOL0     C12573   7.381   1.820   6.157  0.8108 -1.1082  0.2855
   94MOL0     C12574   7.495   1.802   6.221  0.9033 -0.6756 -0.6103
   94MOL0     C12575   7.504   1.714   6.349 -0.4494 -0.2591 -0.0174
   94MOL0     C12576   7.649   1.689   6.395 -0.0578  0.0277 -0.0325
   94MOL0     C12577   7.724   1.813   6.441 -0.0853 -0.4821 -0.8453
   94MOL0     C12578   7.848   1.779   6.526  0.3259 -0.0761 -0.7568
   94MOL0     O12579   7.937   1.699   6.441  0.0667  0.2382  0.0739
   94MOL0     C12580   8.055   1.671   6.499 -0.5225  0.2740  0.9869
   94MOL0     C12581   8.098   1.720   6.623  0.4371  0.3024  0.7540
   94MOL0     C12582   8.228   1.700   6.671  1.4630 -0.2156  0.4674
   94MOL0     C12583   8.315   1.623   6.594 -0.2466  0.3003 -0.6323
   94MOL0     C12584   8.447   1.599   6.655 -0.1420  0.3849 -0.2986
   94MOL0     O12585   8.486   1.466   6.673 -0.4520 -0.0635  0.0456
   94MOL0     C12586   8.621   1.438   6.711  0.0745 -0.5779  0.2593
   94MOL0     C12587   8.660   1.308   6.685 -0.1005 -0.0361  0.8309
   94MOL0     C12588   8.792   1.266   6.696  0.3266 -0.5318  0.2186
   94MOL0     C12589   8.884   1.346   6.759 -0.3415  0.0438  0.0198
   94MOL0     O12590   9.010   1.299   6.787  0.3263  0.2035  0.2092
   94MOL0     C12591   9.098   1.368   6.885 -0.4016  0.2060 -0.4749
   94MOL0     C12592   9.199   1.268   6.935  0.3553 -0.5116  1.1045
   94MOL0     C12593   9.258   1.293   7.072 -0.0824 -0.2873 -0.6959
   94MOL0     C12594   9.154   1.259   7.178  0.0961 -0.6211  0.3246
   94MOL0     C12595   9.210   1.247   7.318  0.1167 -0.1412 -0.5356
   94MOL0     C12596   9.158   1.369   7.406  0.1943 -0.0467 -0.3773
   94MOL0     C12597   9.235   1.379   7.540  0.0271 -0.5936  0.5696
   94MOL0     C12598   9.207   1.511   7.600  0.5825 -0.4456  1.0537
   94MOL0    Cl12599   9.296   1.523   7.749  0.1397  0.0060  0.1138
   94MOL0     C12600   8.842   1.476   6.795  0.1478 -0.1455 -0.1879
   94MOL0     C12601   8.713   1.523   6.771 -0.2585 -0.3020  0.8376
   94MOL0     O12602   8.497   1.704   6.695 -0.4822 -0.2568 -0.3606
   94MOL0     C12603   8.274   1.567   6.477 -0.5152 -0.0569  0.2838
   94MOL0     C12604   8.151   1.597   6.427  1.0126 -0.4969 -0.6540
   94MOL0     N12605   7.589   1.890   6.176 -0.3100 -0.0689  0.1150
   94MOL0     N12606   7.529   1.962   6.087  0.2502  0.3265  0.6286
   94MOL0     C12607   6.835   2.381   5.195  1.2121 -0.2239  0.4266
   94MOL0     C12608   6.716   2.351   5.123 -0.0764 -1.0646 -0.1350
   94MOL0     C12609   6.317   2.092   4.990  0.7341 -0.9569 -0.4332
   94MOL0     C12610   6.355   2.075   4.859  0.5385  0.0690 -0.0265
   94MOL0     C12611   6.267   2.043   4.756  0.0284  0.2988  0.0550
   94MOL0     C12612   6.133   2.020   4.784 -0.0063  0.1307  0.5706
   94MOL0     O12613   6.043   1.965   4.690  0.2589 -0.7526  0.0454
   94MOL0     C12614   6.103   1.887   4.582 -1.4011 -0.1547 -0.0834
   94MOL0     C12615   5.999   1.830   4.497 -0.2667  1.3502  0.7366
   94MOL0     C12616   5.944   1.921   4.391 -0.2946 -0.9094 -0.0518
   94MOL0     C12617   6.004   1.875   4.263 -0.5536 -0.3427  0.5783
   94MOL0     C12618   5.923   1.783   4.192  0.7333 -0.2266  0.8010
   94MOL0     C12619   5.855   1.698   4.132  0.4875 -0.4118 -0.4199
   94MOL0     C12620   6.094   2.036   4.916  0.2314 -0.0303 -0.9078
   94MOL0     C12621   6.183   2.068   5.018 -0.1043 -0.0331  0.2757
   94MOL0     C12622   6.121   2.058   5.156  0.2124  0.0397 -0.0541
   94MOL0     H12623   6.671   2.024   5.162 -0.0273 -0.4956  2.1661
   94MOL0     H12624   6.887   2.057   5.288 -2.8571 -1.6456  0.3929
   94MOL0     H12625   7.177   2.386   5.393 -0.0524 -3.3607 -0.2170
   94MOL0     H12626   7.037   2.489   5.340 -1.1097 -0.3622 -1.6692
   94MOL0     H12627   6.903   2.409   5.528 -1.7404 -4.2611  1.5452
   94MOL0     H12628   7.052   2.474   5.595  0.3038 -0.1882  0.5459
   94MOL0     H12629   7.158   2.246   5.580 -0.0184  0.1791 -1.1821
   94MOL0     H12630   7.013   2.171   5.550 -0.0436  0.0655  1.5176
   94MOL0     H12631   7.062   2.332   5.805  1.3974 -0.6856 -0.1542
   94MOL0     H12632   6.921   2.246   5.765  0.3765  1.4209  2.3200
   94MOL0     H12633   7.046   2.073   5.889 -2.5056 -0.5618 -3.0080
   94MOL0     H12634   7.072   2.036   5.724 -2.2100 -0.1444 -0.0102
   94MOL0     H12635   7.297   2.183   5.749  3.1504 -1.5120  0.7060
   94MOL0     H12636   7.253   2.219   5.914 -2.3326 -1.8320  1.7233
   94MOL0     H12637   7.422   2.024   5.854  1.5648 -1.6094  2.8133
   94MOL0     H12638   7.274   1.946   5.802  2.2988  1.9665 -1.6617
   94MOL0     H12639   7.268   2.082   6.076  1.7501  1.5782 -1.2851
   94MOL0     H12640   7.184   1.942   6.031  0.0386 -0.3601 -1.0026
   94MOL0     H12641   7.288   1.771   6.184  1.6984 -2.8053  0.4404
   94MOL0     H12642   7.445   1.753   6.432 -1.3355 -0.8101 -0.3808
   94MOL0     H12643   7.456   1.622   6.314 -3.2141  0.7279  0.9755
   94MOL0     H12644   7.655   1.615   6.476  0.5191 -0.3149 -0.3823
   94MOL0     H12645   7.709   1.656   6.310 -1.4444 -1.2449 -0.5624
   94MOL0     H12646   7.663   1.887   6.493  0.8851 -1.7586  2.3407
   94MOL0     H12647   7.766   1.866   6.355  4.0613 -0.7939  0.7803
   94MOL0     H12648   7.826   1.735   6.624  3.9503 -0.5296 -0.0318
   94MOL0     H12649   7.891   1.878   6.543  0.1585 -0.1650  0.2801
   94MOL0     H12650   8.023   1.776   6.678 -1.2343 -0.4544 -0.6492
   94MOL0     H12651   8.252   1.755   6.762  0.7788  0.3228  0.3251
   94MOL0     H12652   8.586   1.238   6.647 -1.9386  1.6896  1.0797
   94MOL0     H12653   8.800   1.162   6.665  0.5412  0.7864 -5.2839
   94MOL0     H12654   9.143   1.447   6.824 -1.1951  0.7544 -0.3647
   94MOL0     H12655   9.060   1.415   6.976  1.0961 -1.5722  1.1812
   94MOL0     H12656   9.171   1.163   6.919  2.2305 -0.7888 -0.8171
   94MOL0     H12657   9.280   1.267   6.861 -0.5316 -3.5328  0.0359
   94MOL0     H12658   9.354   1.243   7.085  1.6591  2.8671 -0.4230
   94MOL0     H12659   9.289   1.398   7.078 -0.9580 -0.0902  0.8248
   94MOL0     H12660   9.123   1.155   7.165 -0.6302 -0.8763  3.2831
   94MOL0     H12661   9.078   1.337   7.185  1.7482  0.9443  5.8452
   94MOL0     H12662   9.319   1.244   7.324  0.2821 -5.1642 -1.5553
   94MOL0     H12663   9.177   1.152   7.362  1.9260  0.0185  1.3193
   94MOL0     H12664   9.172   1.460   7.346 -0.4651 -0.9246 -1.9058
   94MOL0     H12665   9.053   1.352   7.430 -0.1094  2.1584  0.0428
   94MOL0     H12666   9.342   1.381   7.521 -0.1448  1.8080 -0.5844
   94MOL0     H12667   9.207   1.296   7.606 -0.2256 -2.1889 -1.4531
   94MOL0     H12668   9.236   1.588   7.527  0.9977 -2.0993 -0.6023
   94MOL0     H12669   9.099   1.521   7.615  0.7542  1.6320  1.2576
   94MOL0     H12670   8.907   1.556   6.831 -0.5521  0.2803  0.1555
   94MOL0     H12671   8.694   1.627   6.793  0.3034  0.1442 -0.6717
   94MOL0     H12672   8.327   1.497   6.413 -1.4627 -0.9743  0.4774
   94MOL0     H12673   8.122   1.551   6.333  4.3151 -3.0506 -0.6082
   94MOL0     H12674   6.873   2.483   5.193 -0.5910  0.4869  0.0757
   94MOL0     H12675   6.679   2.428   5.057 -3.1547 -2.4222 -0.1914
   94MOL0     H12676   6.459   2.079   4.828  0.6015  1.8812  0.3251
   94MOL0     H12677   6.318   2.044   4.661 -0.4037  1.8741 -0.2012
   94MOL0     H12678   6.173   1.813   4.624  4.1642  4.0070 -0.7443
   94MOL0     H12679   6.161   1.956   4.520 -2.6986  0.8946 -0.1672
   94MOL0     H12680   5.911   1.787   4.545 -1.2032 -0.8895 -2.5763
   94MOL0     H12681   6.051   1.742   4.456 -1.0830  1.0166  0.3879
   94MOL0     H12682   5.983   2.022   4.410 -0.7274 -0.8312  0.4411
   94MOL0     H12683   5.835   1.924   4.380 -0.1964 -0.0467 -0.9317
   94MOL0     H12684   6.026   1.963   4.203  2.3680 -1.4941 -0.2072
   94MOL0     H12685   6.105   1.833   4.276 -0.6572 -0.6999  0.2427
   94MOL0     H12686   5.791   1.630   4.080 -0.2921  0.7631 -1.0499
   94MOL0     H12687   5.996   2.002   4.947 -0.1872  0.5337 -1.5853
   94MOL0     H12688   6.113   1.955   5.192 -2.3276 -0.2773 -1.3369
   94MOL0     H12689   6.194   2.103   5.225 -0.3270  2.3477 -0.8725
   94MOL0     H12690   6.022   2.102   5.169  0.7016  2.1019 -2.4026
   95MOL0     O12691   4.123   0.387   9.994  0.6385  0.0459 -0.4984
   95MOL0     C12692   4.092   0.371   9.876  1.2607 -0.6523 -0.8470
   95MOL0     O12693   3.961   0.367   9.829  0.1538  0.1492  0.0202
   95MOL0     C12694   3.859   0.391   9.921 -0.4067  1.0131 -0.0572
   95MOL0     C12695   3.828   0.512   9.977  0.1650 -0.7348  0.0072
   95MOL0     C12696   3.726   0.529  10.075 -0.4578  0.4875 -0.4139
   95MOL0     C12697   3.645   0.419  10.113 -0.3213 -1.5551  0.0719
   95MOL0     O12698   3.531   0.439  10.203  0.1825 -0.4129  0.7668
   95MOL0     C12699   3.560   0.522  10.311 -0.1916 -0.2622 -0.9232
   95MOL0     C12700   3.563   0.426  10.427 -0.1540  0.0937  0.5277
   95MOL0     C12701   3.695   0.340  10.434  0.0569 -0.0335 -0.0900
   95MOL0     C12702   3.737   0.322  10.583 -0.3073  0.2606  0.4437
   95MOL0     C12703   3.886   0.285  10.589 -0.0837  0.9448  0.1686
   95MOL0     C12704   3.925   0.242  10.739  0.1973 -0.6762  0.6956
   95MOL0     C12705   4.002   0.361  10.802 -0.0675  0.9486  0.5514
   95MOL0     C12706   4.137   0.392  10.740 -0.0116 -0.1736 -1.7122
   95MOL0     N12707   4.234   0.280  10.729  0.6820 -0.1761  0.5992
   95MOL0     C12708   4.263   0.207  10.614 -0.1882 -0.4050 -0.5066
   95MOL0     C12709   4.389   0.169  10.637  0.5463  0.2562 -0.2774
   95MOL0     C12710   4.488   0.117  10.531 -0.0037  0.4878  0.7039
   95MOL0     C12711   4.468  -0.038  10.492 -0.9142 -0.3962 -1.3878
   95MOL0     C12712   4.504  -0.069  10.343  0.0155  0.2571 -0.0025
   95MOL0     C12713   4.433  -0.191  10.297  0.2981  1.1237  0.6461
   95MOL0     O12714   4.449  -0.298  10.390 -0.3230 -0.3906 -0.3229
   95MOL0     C12715   4.376  -0.415  10.372  0.1942 -0.0269 -0.5840
   95MOL0     C12716   4.380  -0.511  10.471 -0.8178  0.1737 -0.0868
   95MOL0     C12717   4.320  -0.634  10.453  0.0233  0.6843  0.3733
   95MOL0     C12718   4.236  -0.660  10.341 -0.3538  0.6105  0.3017
   95MOL0     C12719   4.179  -0.798  10.323 -1.1283 -0.1355  0.4531
   95MOL0     O12720   4.171  -0.849  10.195  0.1246 -0.3676 -0.4133
   95MOL0     C12721   4.106  -0.963  10.166  0.0923  0.4070  0.3082
   95MOL0     C12722   3.996  -0.967  10.084  0.5957 -0.5168 -0.2775
   95MOL0     C12723   3.935  -1.087  10.053  0.7305  1.2988 -0.1799
   95MOL0     C12724   3.984  -1.214  10.106 -1.3466 -0.3435 -0.1061
   95MOL0     O12725   3.943  -1.330  10.064 -0.0703  0.3191 -1.0278
   95MOL0     C12726   3.804  -1.346  10.021 -0.2620 -0.3952  0.1896
   95MOL0     C12727   3.750  -1.491   9.992  0.8047 -0.0715  0.1256
   95MOL0     C12728   3.615  -1.512  10.062 -0.6780  0.1330 -0.9906
   95MOL0     C12729   3.539  -1.630   9.997  0.0690 -0.6565 -0.2676
   95MOL0     C12730   3.431  -1.680  10.096 -0.0805  0.0466 -0.3618
   95MOL0     C12731   3.387  -1.818  10.038 -0.6252 -0.5567  0.2869
   95MOL0     C12732   3.270  -1.882  10.114 -0.8643  0.6560 -0.5943
   95MOL0     C12733   3.235  -2.023  10.060  0.0636  0.8836  0.7285
   95MOL0    Cl12734   3.382  -2.117  10.055  0.3011 -0.5528 -0.0919
   95MOL0     C12735   4.098  -1.205  10.188  0.8178  0.1683  0.0930
   95MOL0     C12736   4.146  -1.083  10.219 -0.9359  0.6557 -0.7969
   95MOL0     O12737   4.142  -0.850  10.426 -0.3344  0.3414  0.0123
   95MOL0     C12738   4.241  -0.561  10.244 -0.1676  0.4425 -0.1187
   95MOL0     C12739   4.310  -0.443  10.257 -0.5177  0.2585 -0.1506
   95MOL0     N12740   4.427   0.212  10.764 -0.5413 -0.5456  0.0973
   95MOL0     N12741   4.340   0.286  10.816  0.1879  0.3161 -0.0009
   95MOL0     C12742   3.658   0.303  10.040  0.7022  0.1436 -0.4886
   95MOL0     C12743   3.758   0.288   9.944 -0.2121 -0.0090 -0.2317
   95MOL0     C12744   4.195   0.371   9.773  0.6300  0.0313  0.2621
   95MOL0     C12745   4.156   0.289   9.658 -1.0551  0.5339 -0.1677
   95MOL0     C12746   4.261   0.260   9.563 -0.3201  0.2623  0.2236
   95MOL0     C12747   4.390   0.299   9.578 -1.0518  0.6790  0.2052
   95MOL0     O12748   4.493   0.262   9.487  0.1866 -0.8784  0.4833
   95MOL0     C12749   4.508   0.131   9.424  0.1940 -0.3626 -0.8527
   95MOL0     C12750   4.520   0.030   9.533  0.2250  0.0494 -0.8493
   95MOL0     C12751   4.573  -0.113   9.497 -0.0420 -0.3630 -1.0091
   95MOL0     C12752   4.693  -0.112   9.403 -0.7694 -0.3796  0.7887
   95MOL0     C12753   4.734  -0.249   9.378 -0.8719 -0.0586 -1.1040
   95MOL0     C12754   4.771  -0.355   9.345  0.5433  0.1560  0.3047
   95MOL0     C12755   4.424   0.372   9.697 -0.3664 -0.5435 -1.4876
   95MOL0     C12756   4.327   0.407   9.792  0.8031 -0.3094  0.1579
   95MOL0     C12757   4.369   0.483   9.912 -0.1712 -0.5599 -0.0016
   95MOL0     H12758   3.866   0.607   9.941  1.1704 -1.6520 -1.4821
   95MOL0     H12759   3.711   0.631  10.110  3.2749  0.9779  0.1292
   95MOL0     H12760   3.657   0.571  10.305  1.0739 -2.2023  1.9177
   95MOL0     H12761   3.477   0.590  10.334 -1.4206 -2.3102  1.1147
   95MOL0     H12762   3.473   0.363  10.420  0.5264 -1.0010  1.2985
   95MOL0     H12763   3.552   0.492  10.513 -0.9893  0.6759 -0.0054
   95MOL0     H12764   3.773   0.398  10.384  2.4165 -0.3794  2.9260
   95MOL0     H12765   3.674   0.237  10.403  1.9314 -0.7377  0.8081
   95MOL0     H12766   3.722   0.419  10.633 -2.4056 -0.4259  1.2612
   95MOL0     H12767   3.665   0.253  10.627 -1.2780  2.0083  1.7233
   95MOL0     H12768   3.908   0.202  10.522  1.5119 -1.3301  3.2328
   95MOL0     H12769   3.936   0.381  10.576 -2.1044  2.0092 -0.1501
   95MOL0     H12770   3.838   0.217  10.800  1.1435  0.0360  2.4283
   95MOL0     H12771   3.991   0.155  10.738 -3.4107 -3.7404  2.5927
   95MOL0     H12772   4.017   0.341  10.909  3.0348 -2.4956 -0.3153
   95MOL0     H12773   3.936   0.447  10.789 -2.1303 -0.7162 -0.6756
   95MOL0     H12774   4.125   0.439  10.643 -2.8321  1.3022 -0.7568
   95MOL0     H12775   4.164   0.477  10.803 -2.4910  0.9124 -2.0110
   95MOL0     H12776   4.212   0.202  10.518 -0.8042 -0.9561 -0.1612
   95MOL0     H12777   4.470   0.188  10.449 -2.5498  0.9428  1.5598
   95MOL0     H12778   4.585   0.144  10.574 -1.2158 -0.7271  4.5811
   95MOL0     H12779   4.531  -0.102  10.553 -0.5597 -0.5853 -1.9517
   95MOL0     H12780   4.364  -0.068  10.506 -0.5593 -0.2984  2.9226
   95MOL0     H12781   4.613  -0.071  10.335  0.5240  0.0285  4.3719
   95MOL0     H12782   4.473   0.018  10.283 -0.2344  0.2269  0.0827
   95MOL0     H12783   4.476  -0.216  10.199 -2.4254  0.7924 -0.5596
   95MOL0     H12784   4.327  -0.166  10.289  0.7199  3.3104  1.1721
   95MOL0     H12785   4.430  -0.480  10.562 -1.9429 -1.0990  1.0119
   95MOL0     H12786   4.337  -0.710  10.529  0.2359 -1.1898 -1.4389
   95MOL0     H12787   3.966  -0.878  10.029 -1.6405 -1.2691 -0.3634
   95MOL0     H12788   3.849  -1.095   9.987  1.2399  1.1249 -0.8280
   95MOL0     H12789   3.742  -1.287  10.090 -0.2677  0.7479 -0.7530
   95MOL0     H12790   3.808  -1.288   9.928  4.6728 -0.3834  0.1178
   95MOL0     H12791   3.732  -1.487   9.884 -0.9749  5.5280  0.3054
   95MOL0     H12792   3.825  -1.560  10.032  2.3745  2.1260  1.1729
   95MOL0     H12793   3.637  -1.548  10.163  0.8018 -3.9718 -2.5548
   95MOL0     H12794   3.557  -1.420  10.068 -4.0686 -1.9445  1.0799
   95MOL0     H12795   3.604  -1.712   9.968 -1.8069 -2.1963 -0.2822
   95MOL0     H12796   3.479  -1.597   9.911  1.2394 -0.3525 -0.9892
   95MOL0     H12797   3.345  -1.614  10.106 -1.9409 -2.1526 -0.9790
   95MOL0     H12798   3.470  -1.699  10.196 -1.3520  1.5894  0.4585
   95MOL0     H12799   3.362  -1.807   9.932  1.0355 -0.3431 -0.1129
   95MOL0     H12800   3.476  -1.880  10.048 -0.0284  0.6368  3.8017
   95MOL0     H12801   3.186  -1.812  10.106  0.4455  2.2471 -1.0509
   95MOL0     H12802   3.291  -1.901  10.219  0.7018 -2.2784 -1.3234
   95MOL0     H12803   3.163  -2.072  10.127  1.1878 -0.5472  0.9384
   95MOL0     H12804   3.186  -2.005   9.964 -2.0158 -0.0353  1.5577
   95MOL0     H12805   4.137  -1.300  10.223 -2.0027 -0.9735  0.4197
   95MOL0     H12806   4.238  -1.080  10.277 -1.9561  0.3924  0.9299
   95MOL0     H12807   4.192  -0.584  10.150 -0.6050 -2.9631  0.8256
   95MOL0     H12808   4.309  -0.379  10.169  1.2150 -0.0183 -0.4166
   95MOL0     H12809   3.585   0.224  10.050 -0.5084  1.2220 -0.5223
   95MOL0     H12810   3.746   0.190   9.899  1.1511  0.8815 -2.7070
   95MOL0     H12811   4.054   0.253   9.657 -1.0620  0.5497 -0.0444
   95MOL0     H12812   4.241   0.202   9.474  1.3214 -0.9470  0.5867
   95MOL0     H12813   4.599   0.136   9.364  0.8526 -1.3410  0.0362
   95MOL0     H12814   4.424   0.113   9.356 -0.9888  2.2591 -0.2039
   95MOL0     H12815   4.432   0.031   9.597 -1.6606  0.8546 -3.3185
   95MOL0     H12816   4.595   0.058   9.608 -2.1444  0.3621  1.5659
   95MOL0     H12817   4.494  -0.182   9.466  0.3784 -1.7613  0.8516
   95MOL0     H12818   4.610  -0.149   9.593  0.6415  6.7838  1.9992
   95MOL0     H12819   4.665  -0.081   9.301  1.9404  0.8091  0.3076
   95MOL0     H12820   4.773  -0.049   9.444 -0.8788 -1.6073  3.0197
   95MOL0     H12821   4.793  -0.457   9.319 -1.2795 -0.8672  2.4190
   95MOL0     H12822   4.529   0.392   9.719 -0.6197 -1.5682  0.9777
   95MOL0     H12823   4.467   0.532   9.910 -1.4103  2.1808  0.9737
   95MOL0     H12824   4.302   0.569   9.924 -0.2429 -0.4489 -1.0672
   95MOL0     H12825   4.367   0.407   9.990  0.7779  0.3858  0.9908
   96MOL0     O12826   1.860   5.314  10.216 -0.5795  0.2699  0.9402
   96MOL0     C12827   1.913   5.216  10.271  0.3009 -0.5010  1.5516
   96MOL0     O12828   1.930   5.206  10.401  0.0277 -0.1335 -0.6094
   96MOL0     C12829   1.900   5.309  10.481  0.8854 -0.0982  0.1727
   96MOL0     C12830   1.772   5.309  10.539  0.2524 -0.5239 -0.1550
   96MOL0     C12831   1.736   5.413  10.625  0.6646  0.2618  1.5052
   96MOL0     C12832   1.821   5.522  10.663 -0.2370  0.0579 -0.2431
   96MOL0     O12833   1.768   5.618  10.730 -0.2521 -0.7210 -0.1951
   96MOL0     C12834   1.844   5.742  10.744 -0.6129  1.0138 -0.0674
   96MOL0     C12835   1.773   5.851  10.823 -0.1808  0.1991  0.6900
   96MOL0     C12836   1.861   5.976  10.832  0.0275 -0.3003  0.0077
   96MOL0     C12837   1.874   6.033  10.976  0.3071 -0.0831  1.0279
   96MOL0     C12838   1.762   6.114  11.038  0.2381 -0.3983 -0.2423
   96MOL0     C12839   1.734   6.098  11.194  1.3757  0.0346 -0.6998
   96MOL0     C12840   1.600   6.169  11.229  0.7228 -0.3876 -0.9636
   96MOL0     C12841   1.605   6.324  11.236 -0.0566 -0.3991 -0.6824
   96MOL0     N12842   1.492   6.373  11.315 -0.2779  0.2073 -0.3407
   96MOL0     C12843   1.503   6.408  11.449  0.3176  0.2498 -0.4794
   96MOL0     C12844   1.368   6.412  11.492  0.2671 -0.9939 -0.3004
   96MOL0     C12845   1.316   6.452  11.632  0.2772 -0.6560 -0.1578
   96MOL0     C12846   1.213   6.355  11.694 -0.5647  0.5465  1.0625
   96MOL0     C12847   1.148   6.400  11.821 -0.1320 -1.0204  0.4249
   96MOL0     C12848   1.245   6.410  11.949  0.3790 -0.5395  0.4068
   96MOL0     O12849   1.231   6.281  12.018 -0.2557  0.1249  0.0040
   96MOL0     C12850   1.329   6.243  12.108  0.1389 -1.1878 -0.6143
   96MOL0     C12851   1.315   6.109  12.148  0.5256  0.4272 -0.0726
   96MOL0     C12852   1.406   6.046  12.234 -0.2783  0.0573 -0.3824
   96MOL0     C12853   1.513   6.121  12.289  0.0234  0.0960  0.5155
   96MOL0     C12854   1.587   6.066  12.398  0.6432 -0.2306 -0.4141
   96MOL0     O12855   1.617   5.925  12.386  0.3684 -0.4294 -0.1713
   96MOL0     C12856   1.685   5.856  12.482 -1.5249 -0.5005  0.6850
   96MOL0     C12857   1.739   5.891  12.604  0.3259  0.2112 -0.2365
   96MOL0     C12858   1.801   5.802  12.686 -1.3608  0.1793  0.4686
   96MOL0     C12859   1.834   5.671  12.650 -0.2611 -0.5608  0.1439
   96MOL0     O12860   1.893   5.573  12.729 -0.4714 -0.3720  0.5029
   96MOL0     C12861   1.878   5.591  12.872 -0.1040 -0.2152 -0.2618
   96MOL0     C12862   1.973   5.487  12.921 -0.4323  0.9271 -0.6927
   96MOL0     C12863   2.118   5.521  12.877  0.0157 -0.6137 -1.0372
   96MOL0     C12864   2.230   5.508  12.988 -0.8080 -0.0749  0.2813
   96MOL0     C12865   2.199   5.606  13.096  0.6698 -0.2280 -0.6139
   96MOL0     C12866   2.235   5.747  13.075  0.9644  0.0733  0.2896
   96MOL0     C12867   2.138   5.846  13.138 -0.4649 -0.3734  0.2069
   96MOL0     C12868   2.144   5.979  13.076  1.1472 -0.7567 -0.0420
   96MOL0    Cl12869   2.025   5.972  12.945  0.1042  0.2976  0.1379
   96MOL0     C12870   1.792   5.637  12.521 -0.4597  0.0860 -0.4530
   96MOL0     C12871   1.717   5.727  12.439  0.3655  0.9807 -0.5753
   96MOL0     O12872   1.629   6.147  12.482  0.4466  0.0400 -0.5819
   96MOL0     C12873   1.526   6.259  12.238  0.1744 -0.5894 -0.3288
   96MOL0     C12874   1.437   6.318  12.159  0.2177 -0.0204 -0.5718
   96MOL0     N12875   1.291   6.374  11.382  0.3338 -0.0230  0.0220
   96MOL0     N12876   1.360   6.359  11.271  0.2698 -0.2494  0.1049
   96MOL0     C12877   1.947   5.526  10.602  0.1362  0.3634 -0.9126
   96MOL0     C12878   1.989   5.416  10.513  0.4262 -0.6001 -0.7557
   96MOL0     C12879   1.969   5.112  10.187  0.2428  0.0083  0.1123
   96MOL0     C12880   2.041   5.011  10.258  0.1161  0.3719 -0.3048
   96MOL0     C12881   2.074   4.894  10.202  0.1606  0.1804 -0.0390
   96MOL0     C12882   2.058   4.868  10.069 -0.2012 -0.1979  0.0536
   96MOL0     O12883   2.099   4.749  10.018  0.0595 -0.3917 -0.8075
   96MOL0     C12884   1.994   4.654   9.990 -0.3534  0.2092  0.7034
   96MOL0     C12885   2.002   4.599   9.850 -0.3524 -0.3212 -0.2651
   96MOL0     C12886   2.146   4.546   9.819 -0.2430 -0.0776  1.0041
   96MOL0     C12887   2.158   4.511   9.661  0.0221 -0.0391  0.3511
   96MOL0     C12888   2.074   4.405   9.625  0.0759 -0.2903 -0.2234
   96MOL0     C12889   1.994   4.317   9.608 -0.9320  0.3046 -0.3298
   96MOL0     C12890   2.001   4.962   9.989 -0.3375 -0.2845 -0.3033
   96MOL0     C12891   1.965   5.086  10.051  0.0520 -1.1623  0.7018
   96MOL0     C12892   1.914   5.190   9.947  0.4985  0.6076 -0.4759
   96MOL0     H12893   1.698   5.232  10.522  0.7367 -0.9406 -0.3955
   96MOL0     H12894   1.634   5.408  10.660 -0.6802 -0.4907 -2.1278
   96MOL0     H12895   1.940   5.724  10.792  1.6575  1.8179 -3.8427
   96MOL0     H12896   1.864   5.778  10.642  3.6103 -0.2890  0.1231
   96MOL0     H12897   1.751   5.811  10.922 -4.0166  0.4869  0.0931
   96MOL0     H12898   1.683   5.887  10.772 -0.8730 -3.3829 -0.9137
   96MOL0     H12899   1.816   6.052  10.767  3.1743  2.0244  0.2833
   96MOL0     H12900   1.959   5.952  10.790 -0.2949  1.3736 -1.8584
   96MOL0     H12901   1.909   5.952  11.041 -2.4535 -0.0795  2.6881
   96MOL0     H12902   1.954   6.104  10.951  1.3821 -1.2909  0.8892
   96MOL0     H12903   1.787   6.217  11.010  1.2098 -0.9426 -1.4698
   96MOL0     H12904   1.666   6.097  10.988  0.1315  0.6861 -0.4456
   96MOL0     H12905   1.733   5.992  11.222 -1.0578  0.5230  1.5258
   96MOL0     H12906   1.812   6.151  11.250 -0.2832  3.0198 -1.0065
   96MOL0     H12907   1.572   6.125  11.325 -1.4996 -0.2326 -1.4951
   96MOL0     H12908   1.522   6.147  11.156  1.2244  1.4883 -2.1550
   96MOL0     H12909   1.699   6.357  11.281 -0.4476 -1.5160  1.0815
   96MOL0     H12910   1.593   6.373  11.139 -1.0471  0.5687 -0.0936
   96MOL0     H12911   1.592   6.438  11.503 -0.0217  4.2148 -1.7800
   96MOL0     H12912   1.404   6.439  11.695  0.5710 -4.3952 -1.1457
   96MOL0     H12913   1.279   6.555  11.641  0.7838 -0.5128  0.3433
   96MOL0     H12914   1.136   6.320  11.626 -1.0696  0.9581  1.4150
   96MOL0     H12915   1.259   6.257  11.712  1.1295  1.0528 -0.2368
   96MOL0     H12916   1.060   6.342  11.851 -3.3217  3.3658  0.5530
   96MOL0     H12917   1.097   6.496  11.811  0.8293 -0.4019  1.1602
   96MOL0     H12918   1.209   6.486  12.018  0.2318 -0.3237  0.0928
   96MOL0     H12919   1.345   6.440  11.919  0.9500 -1.1483  1.6066
   96MOL0     H12920   1.244   6.050  12.090  2.4510 -0.6877 -1.4287
   96MOL0     H12921   1.384   5.942  12.257 -1.2082 -0.3767 -2.9193
   96MOL0     H12922   1.723   5.988  12.649 -2.3052 -1.6664  3.3905
   96MOL0     H12923   1.827   5.843  12.783  0.6268  1.9773 -0.7569
   96MOL0     H12924   1.907   5.693  12.901  0.6892 -0.0488 -1.5957
   96MOL0     H12925   1.779   5.566  12.912  0.2709 -0.5897  0.4560
   96MOL0     H12926   1.966   5.473  13.029 -1.6023 -3.8408 -1.1958
   96MOL0     H12927   1.948   5.387  12.884 -3.0006 -0.4253  3.9269
   96MOL0     H12928   2.149   5.446  12.804  1.2050 -0.3407 -0.8316
   96MOL0     H12929   2.136   5.619  12.830  1.2852 -1.6326 -2.8244
   96MOL0     H12930   2.331   5.518  12.946 -1.1430 -2.4042 -1.2316
   96MOL0     H12931   2.229   5.405  13.025 -2.7320 -0.6473 -1.2290
   96MOL0     H12932   2.243   5.576  13.192 -0.0620 -1.2677 -0.5859
   96MOL0     H12933   2.090   5.603  13.110  0.7160 -0.8566 -0.3855
   96MOL0     H12934   2.340   5.756  13.104  0.6466 -0.3742  1.6574
   96MOL0     H12935   2.235   5.769  12.968  3.2219  0.0743  0.2325
   96MOL0     H12936   2.155   5.857  13.246 -0.6697 -1.1487  0.3264
   96MOL0     H12937   2.038   5.801  13.144 -0.1257 -0.9892  1.7838
   96MOL0     H12938   2.118   6.063  13.141  2.2857 -0.4177 -0.0133
   96MOL0     H12939   2.241   6.006  13.033 -0.1210  0.0928 -2.5849
   96MOL0     H12940   1.807   5.537  12.480  0.5455 -0.2389  0.6498
   96MOL0     H12941   1.689   5.701  12.338 -0.0836  1.8970 -0.6945
   96MOL0     H12942   1.606   6.321  12.276 -0.7657  0.6561 -0.3258
   96MOL0     H12943   1.467   6.420  12.135  1.8955 -0.3393  0.0676
   96MOL0     H12944   2.012   5.614  10.603 -0.4618  0.8216 -1.5890
   96MOL0     H12945   2.086   5.415  10.466 -0.2575 -0.1695 -2.2440
   96MOL0     H12946   2.073   5.010  10.362 -0.7476  3.6435  0.0975
   96MOL0     H12947   2.117   4.818  10.266 -0.4876  0.9121  1.3088
   96MOL0     H12948   1.906   4.718  10.000  1.0281  2.1205  1.1959
   96MOL0     H12949   1.977   4.575  10.063 -2.3563  0.0771  0.1494
   96MOL0     H12950   1.964   4.685   9.794 -0.1323  1.9569  2.8148
   96MOL0     H12951   1.932   4.516   9.838  0.3234 -1.0037  0.3660
   96MOL0     H12952   2.167   4.455   9.876 -3.1455 -0.6250  1.3552
   96MOL0     H12953   2.223   4.617   9.849  1.0445 -0.7937 -0.4631
   96MOL0     H12954   2.119   4.595   9.602  0.0557 -0.0339  0.3359
   96MOL0     H12955   2.255   4.476   9.625 -0.2748 -1.6144  1.0051
   96MOL0     H12956   1.922   4.240   9.588 -0.5288 -0.9111  2.3592
   96MOL0     H12957   1.973   4.931   9.889  0.0526 -0.9777 -0.2009
   96MOL0     H12958   1.805   5.192   9.955  0.4475 -0.8150 -0.7048
   96MOL0     H12959   1.953   5.290   9.969 -0.0727  0.8372 -0.4995
   96MOL0     H12960   1.944   5.170   9.844 -0.8111  0.9702 -0.9436
   97MOL0     O12961  10.883   8.943   8.453 -0.0287 -0.1062 -0.4736
   97MOL0     C12962  10.976   8.868   8.422  0.6688 -0.0467  0.1023
   97MOL0     O12963  11.070   8.825   8.513 -0.3292  0.5084  0.8412
   97MOL0     C12964  11.031   8.822   8.646 -0.4991 -0.5921 -0.0049
   97MOL0     C12965  10.985   8.709   8.708 -1.4077  0.4907  0.1558
   97MOL0     C12966  10.950   8.703   8.843  0.5121  1.2007 -0.5150
   97MOL0     C12967  10.964   8.821   8.914  0.3820 -1.1892 -0.3312
   97MOL0     O12968  10.935   8.829   9.051  0.7561  0.5421  0.6297
   97MOL0     C12969  10.848   8.727   9.098 -0.1162 -0.1416 -0.0835
   97MOL0     C12970  10.788   8.774   9.232 -0.7727 -1.1112 -0.5388
   97MOL0     C12971  10.667   8.695   9.281 -0.8866  0.0058  0.2906
   97MOL0     C12972  10.589   8.782   9.380 -0.1938 -1.3024 -0.2986
   97MOL0     C12973  10.476   8.705   9.445  0.2818  0.0872 -0.1669
   97MOL0     C12974  10.367   8.671   9.348 -0.1960 -0.4513  1.5456
   97MOL0     C12975  10.258   8.594   9.411 -0.4383  0.0561 -0.1204
   97MOL0     C12976  10.139   8.681   9.437  0.1572 -1.0299  0.4438
   97MOL0     N12977  10.165   8.778   9.537 -0.2263 -1.5040 -0.4074
   97MOL0     C12978  10.224   8.753   9.660 -0.3263  0.2698  0.2665
   97MOL0     C12979  10.231   8.874   9.720 -0.1152 -0.3911 -0.2644
   97MOL0     C12980  10.286   8.907   9.853 -0.1933  0.7502 -0.7428
   97MOL0     C12981  10.435   8.875   9.849  0.5203 -0.1528 -0.3459
   97MOL0     C12982  10.519   9.001   9.851 -0.0720 -0.1507 -0.1625
   97MOL0     C12983  10.664   8.980   9.885 -0.4184  0.3489 -0.4517
   97MOL0     O12984  10.729   9.109   9.857 -0.2016 -0.2349 -0.3292
   97MOL0     C12985  10.861   9.120   9.853  1.3816  0.6331 -0.4376
   97MOL0     C12986  10.956   9.043   9.916 -0.3642 -0.4689 -0.1074
   97MOL0     C12987  11.091   9.079   9.927 -0.0148 -0.1721  0.0210
   97MOL0     C12988  11.134   9.193   9.866 -0.4999 -0.4635  0.1262
   97MOL0     C12989  11.273   9.238   9.880  1.0361  0.3959 -1.2592
   97MOL0     O12990  11.334   9.222   9.998 -0.2839 -0.4228 -0.7281
   97MOL0     C12991  11.433   9.309  10.048  0.4660 -0.1941  0.8733
   97MOL0     C12992  11.464   9.430   9.979  1.0070 -0.4346 -0.2480
   97MOL0     C12993  11.566   9.514  10.026  0.8194  0.4008 -0.1055
   97MOL0     C12994  11.639   9.487  10.143 -0.1503  0.7529 -0.1051
   97MOL0     O12995  11.739   9.565  10.173  0.8851 -0.3731 -0.5766
   97MOL0     C12996  11.857   9.546  10.089 -0.0769  0.1854  0.1761
   97MOL0     C12997  11.954   9.433  10.122  0.9734  0.1405  0.5854
   97MOL0     C12998  12.014   9.448  10.264  0.4444  0.4683 -0.3070
   97MOL0     C12999  12.121   9.348  10.275 -0.6934  0.7648  0.1914
   97MOL0     C13000  12.189   9.364  10.412 -1.0527  0.4995 -0.2471
   97MOL0     C13001  12.306   9.264  10.432  0.0444 -0.8162 -0.4852
   97MOL0     C13002  12.334   9.247  10.582 -0.3008 -0.4536  0.2479
   97MOL0     C13003  12.414   9.366  10.642  0.3874  0.6866  0.2056
   97MOL0    Cl13004  12.570   9.360  10.560  0.2002 -0.1726  0.1303
   97MOL0     C13005  11.602   9.371  10.218 -0.4055 -0.0893 -0.3281
   97MOL0     C13006  11.505   9.282  10.163 -0.2157  0.8498  0.4830
   97MOL0     O13007  11.325   9.274   9.776  0.2590  0.2641  0.5109
   97MOL0     C13008  11.043   9.272   9.796  0.3447  0.2384 -0.8351
   97MOL0     C13009  10.911   9.225   9.790  0.1114  1.0110 -0.5352
   97MOL0     N13010  10.177   8.971   9.631 -0.7089 -1.0556 -0.2909
   97MOL0     N13011  10.138   8.908   9.526  0.4375 -0.5734  0.3991
   97MOL0     C13012  11.020   8.937   8.862  0.5620  0.3207  0.0300
   97MOL0     C13013  11.056   8.933   8.731 -0.9920  0.7177  1.0288
   97MOL0     C13014  10.999   8.823   8.273  0.3200 -0.1981 -0.2169
   97MOL0     C13015  11.121   8.759   8.237 -0.1375 -0.3476 -1.5799
   97MOL0     C13016  11.164   8.746   8.108  0.2165 -1.0835  0.3860
   97MOL0     C13017  11.069   8.770   8.008 -0.4220  0.1773  0.3322
   97MOL0     O13018  11.089   8.760   7.869  0.8832  1.0063 -0.5377
   97MOL0     C13019  11.131   8.627   7.813  0.0815 -0.5325 -0.5502
   97MOL0     C13020  11.060   8.613   7.679 -0.5249  0.3035 -0.3167
   97MOL0     C13021  10.929   8.546   7.679 -0.4635  0.4468 -0.3161
   97MOL0     C13022  10.827   8.615   7.767  0.1915 -0.1011  0.2140
   97MOL0     C13023  10.695   8.578   7.734 -0.2792  0.4065  0.4766
   97MOL0     C13024  10.582   8.557   7.699  0.5733 -0.5227 -0.1494
   97MOL0     C13025  10.942   8.816   8.042  0.3026  0.6780  0.4070
   97MOL0     C13026  10.903   8.845   8.172 -0.5950  0.7375  0.1571
   97MOL0     C13027  10.760   8.905   8.195  0.4199  0.3481 -0.4469
   97MOL0     H13028  10.988   8.620   8.646  1.8219 -0.9353  2.1019
   97MOL0     H13029  10.911   8.608   8.879  3.1651 -0.0486 -0.7277
   97MOL0     H13030  10.766   8.709   9.029  2.4573 -0.8420 -3.2106
   97MOL0     H13031  10.913   8.644   9.128  0.0838  1.1297  3.5352
   97MOL0     H13032  10.749   8.874   9.212 -2.5048 -1.9718 -1.6923
   97MOL0     H13033  10.857   8.791   9.316 -0.4642 -2.5333 -0.4729
   97MOL0     H13034  10.693   8.599   9.328  0.6979  0.2343 -0.0809
   97MOL0     H13035  10.599   8.666   9.200  2.6475 -1.3862 -2.4245
   97MOL0     H13036  10.648   8.828   9.460 -1.2420  2.2269 -1.3842
   97MOL0     H13037  10.553   8.863   9.315 -0.7269 -0.7337  0.6832
   97MOL0     H13038  10.514   8.614   9.491 -1.5026 -0.0495  1.1585
   97MOL0     H13039  10.430   8.757   9.529  0.2279  4.8885 -2.8065
   97MOL0     H13040  10.328   8.766   9.309 -2.1052 -2.0433 -0.6799
   97MOL0     H13041  10.401   8.612   9.262  1.8272  2.2478  0.3156
   97MOL0     H13042  10.301   8.554   9.503 -1.8504  0.8214  0.9079
   97MOL0     H13043  10.238   8.509   9.346  1.2416 -3.0958  3.1484
   97MOL0     H13044  10.120   8.713   9.334  2.5666 -0.3824  0.1450
   97MOL0     H13045  10.060   8.612   9.468 -1.7475  0.9054  0.1385
   97MOL0     H13046  10.260   8.666   9.714 -1.2826 -1.9920 -2.4424
   97MOL0     H13047  10.268   9.013   9.873 -3.2736  0.0631  0.7584
   97MOL0     H13048  10.235   8.857   9.936 -0.3647  1.0086 -0.6892
   97MOL0     H13049  10.438   8.822   9.945  0.3511  0.9376  0.2804
   97MOL0     H13050  10.461   8.806   9.768  1.7670 -1.8057  1.3819
   97MOL0     H13051  10.485   9.069   9.930  0.6087  0.4932 -0.4119
   97MOL0     H13052  10.520   9.051   9.754  2.4613 -0.7723 -0.5212
   97MOL0     H13053  10.704   8.893   9.832 -0.7831 -1.7626  2.5116
   97MOL0     H13054  10.672   8.953   9.990 -1.9510 -1.6116 -0.7773
   97MOL0     H13055  10.921   8.952   9.964 -0.4207  0.5795  1.9697
   97MOL0     H13056  11.165   9.018   9.977 -0.7633 -1.3210 -0.2407
   97MOL0     H13057  11.398   9.450   9.895 -1.0628 -2.1014  0.8963
   97MOL0     H13058  11.581   9.603   9.966 -0.6902  0.1524 -0.9119
   97MOL0     H13059  11.824   9.554   9.985  0.3587  2.2383  0.1562
   97MOL0     H13060  11.915   9.635  10.114 -1.9619  1.3339  0.7022
   97MOL0     H13061  11.900   9.338  10.108 -3.0049  2.5467 -2.3390
   97MOL0     H13062  12.038   9.436  10.052  0.9869  0.9681  0.6369
   97MOL0     H13063  12.044   9.552  10.282  0.5702  0.5542 -0.9830
   97MOL0     H13064  11.935   9.425  10.336  2.5464  0.6583  2.2385
   97MOL0     H13065  12.195   9.365  10.196 -0.5725 -0.1709  0.0985
   97MOL0     H13066  12.078   9.248  10.272 -3.9259  2.0165  0.2453
   97MOL0     H13067  12.120   9.359  10.496  0.2970  3.2598  1.1317
   97MOL0     H13068  12.225   9.467  10.422  2.5569 -0.6544  0.2798
   97MOL0     H13069  12.281   9.166  10.392 -1.6295 -1.0644  1.0247
   97MOL0     H13070  12.390   9.293  10.368 -1.2286 -0.6890 -2.1931
   97MOL0     H13071  12.407   9.167  10.586  1.9544  1.4716 -0.0184
   97MOL0     H13072  12.241   9.222  10.634 -0.3837  0.7367  0.7184
   97MOL0     H13073  12.350   9.453  10.628 -0.6478 -0.0195  0.4684
   97MOL0     H13074  12.430   9.356  10.750 -1.2776 -7.0547  0.3508
   97MOL0     H13075  11.653   9.345  10.310  3.5747  1.8593 -1.7290
   97MOL0     H13076  11.493   9.187  10.214 -1.4343  0.9065  0.3373
   97MOL0     H13077  11.065   9.366   9.747 -0.1610  1.4368  1.1558
   97MOL0     H13078  10.837   9.294   9.751 -3.2695  1.2998  5.2167
   97MOL0     H13079  11.017   9.023   8.928 -2.3347 -1.4226  2.4273
   97MOL0     H13080  11.113   9.007   8.678  0.7947  0.1144  2.0187
   97MOL0     H13081  11.181   8.745   8.326 -1.8806  2.6427  0.2263
   97MOL0     H13082  11.257   8.694   8.087 -0.2782 -1.8688  0.1009
   97MOL0     H13083  11.115   8.541   7.879  2.0452  1.3950  2.7471
   97MOL0     H13084  11.241   8.629   7.815  0.0817 -0.0849  1.0261
   97MOL0     H13085  11.126   8.553   7.615 -2.3187 -1.3673 -0.7247
   97MOL0     H13086  11.051   8.709   7.629  0.5568  0.0773 -0.9810
   97MOL0     H13087  10.927   8.441   7.707  2.3593  0.2041 -0.6910
   97MOL0     H13088  10.893   8.546   7.576 -2.9638  1.0420  0.4930
   97MOL0     H13089  10.844   8.594   7.873  1.9965  2.3588  0.5024
   97MOL0     H13090  10.832   8.724   7.761  3.5031 -0.0788  1.2398
   97MOL0     H13091  10.485   8.533   7.661 -0.8665 -2.5492  4.1375
   97MOL0     H13092  10.874   8.830   7.958  0.4664  2.2066  0.4948
   97MOL0     H13093  10.770   9.012   8.214 -2.4681  0.7385 -0.6590
   97MOL0     H13094  10.700   8.894   8.105  1.1235  0.0799 -0.8909
   97MOL0     H13095  10.710   8.858   8.281 -0.7560  2.0745 -0.1463
   98MOL0     O13096  10.151   1.889   1.464 -0.0365  0.2756 -0.1655
   98MOL0     C13097  10.149   1.993   1.525 -0.6062  0.0800  0.5629
   98MOL0     O13098  10.229   2.031   1.621 -0.0621  0.2134  0.7457
   98MOL0     C13099  10.309   1.935   1.685 -0.3504 -0.5051  0.5891
   98MOL0     C13100  10.247   1.855   1.781  0.2812 -0.7116  0.6666
   98MOL0     C13101  10.317   1.761   1.858 -0.0144  0.5449 -0.9977
   98MOL0     C13102  10.452   1.737   1.832  0.5652  0.1304 -0.7763
   98MOL0     O13103  10.513   1.644   1.905 -1.1032  0.1653 -0.3860
   98MOL0     C13104  10.649   1.659   1.928 -0.2215 -0.3823 -0.6656
   98MOL0     C13105  10.696   1.569   2.044  0.0572 -0.9761  0.3024
   98MOL0     C13106  10.762   1.645   2.156 -0.9509  0.6657 -0.1604
   98MOL0     C13107  10.784   1.559   2.280 -0.5154  0.9316  0.2965
   98MOL0     C13108  10.876   1.627   2.382 -0.2470 -0.6677 -0.9977
   98MOL0     C13109  10.840   1.624   2.528  0.6841 -0.1752 -0.3904
   98MOL0     C13110  10.901   1.726   2.622  0.1225 -0.6037 -0.1210
   98MOL0     C13111  10.826   1.716   2.764  0.4045  0.3663 -0.8782
   98MOL0     N13112  10.902   1.776   2.878  0.0534 -0.0167  0.2890
   98MOL0     C13113  10.968   1.721   2.978  0.2953  0.2292 -0.2143
   98MOL0     C13114  11.040   1.821   3.037  0.1284  0.6307  0.1517
   98MOL0     C13115  11.129   1.815   3.161 -0.4424 -0.5967  0.5116
   98MOL0     C13116  11.042   1.748   3.271  0.0502  0.2888  0.1139
   98MOL0     C13117  11.130   1.733   3.400  0.5124  0.5691 -0.6146
   98MOL0     C13118  11.046   1.700   3.521 -0.4097  0.3443  0.5320
   98MOL0     O13119  11.139   1.704   3.638 -0.0827 -0.1711  0.1925
   98MOL0     C13120  11.094   1.658   3.757 -0.2791  0.2913 -0.8110
   98MOL0     C13121  11.182   1.685   3.859 -0.1808  0.6336  0.5716
   98MOL0     C13122  11.163   1.632   3.990  0.6154 -0.9527 -0.2168
   98MOL0     C13123  11.050   1.551   4.017 -0.6625  0.2953  0.0503
   98MOL0     C13124  11.037   1.489   4.144  0.1333  0.9078  0.5761
   98MOL0     O13125  10.914   1.420   4.168 -0.5114 -0.1249  0.3180
   98MOL0     C13126  10.916   1.343   4.282 -0.2531 -0.0601  0.2032
   98MOL0     C13127  11.016   1.254   4.307  0.7696  1.1385  0.6647
   98MOL0     C13128  10.993   1.152   4.406  0.4319  0.7713  0.0876
   98MOL0     C13129  10.869   1.147   4.468 -0.7354  0.9223 -0.4307
   98MOL0     O13130  10.865   1.060   4.575 -0.3910 -0.4728  0.6108
   98MOL0     C13131  10.758   0.968   4.574 -0.3920 -0.3528  0.6053
   98MOL0     C13132  10.772   0.871   4.690 -0.0863  0.1147 -0.3087
   98MOL0     C13133  10.749   0.959   4.817  0.1767 -0.6318 -0.1641
   98MOL0     C13134  10.731   0.870   4.937 -0.3730 -0.1094 -0.4011
   98MOL0     C13135  10.735   0.956   5.068  0.7793  0.1397 -0.1549
   98MOL0     C13136  10.872   0.989   5.117 -0.8173  0.0535 -0.7469
   98MOL0     C13137  10.950   0.868   5.158  0.4110  1.1999  0.0130
   98MOL0     C13138  11.063   0.914   5.247  0.8133  0.2788  0.1056
   98MOL0    Cl13139  11.175   1.013   5.155 -0.3107 -0.3413  0.0510
   98MOL0     C13140  10.773   1.244   4.445 -0.3795 -0.2974 -0.0882
   98MOL0     C13141  10.792   1.349   4.355 -0.0864 -0.9458  0.0465
   98MOL0     O13142  11.130   1.507   4.222  0.0048 -0.2976  0.6894
   98MOL0     C13143  10.955   1.533   3.914  0.1126  0.1004  0.2764
   98MOL0     C13144  10.976   1.588   3.784 -0.0858  0.1134  0.1111
   98MOL0     N13145  11.027   1.940   2.958 -0.0966 -0.7595 -0.2547
   98MOL0     N13146  10.936   1.906   2.870  0.8043 -0.1048 -0.1055
   98MOL0     C13147  10.514   1.806   1.727 -0.5210 -0.3024 -0.3930
   98MOL0     C13148  10.454   1.916   1.660  0.6409  0.0862  0.1941
   98MOL0     C13149  10.056   2.097   1.478  0.1454  0.5906 -0.1974
   98MOL0     C13150  10.068   2.138   1.344  0.2208 -0.5739 -0.7203
   98MOL0     C13151   9.966   2.220   1.288 -0.6190  0.6197 -0.1253
   98MOL0     C13152   9.862   2.262   1.371  1.0382 -0.7343 -0.1440
   98MOL0     O13153   9.758   2.334   1.309  0.0953  0.4557 -0.7080
   98MOL0     C13154   9.621   2.328   1.369 -0.1008 -0.0971 -1.1342
   98MOL0     C13155   9.527   2.403   1.284  0.4096 -0.2269  0.0286
   98MOL0     C13156   9.511   2.342   1.142  1.0345 -0.6021 -0.3258
   98MOL0     C13157   9.420   2.440   1.055 -0.4775  0.2623  1.5681
   98MOL0     C13158   9.440   2.399   0.910  0.1434 -0.9431  0.0978
   98MOL0     C13159   9.438   2.366   0.795 -0.4671  0.2077  0.7389
   98MOL0     C13160   9.862   2.239   1.509  0.3769 -0.4550 -0.7401
   98MOL0     C13161   9.964   2.155   1.568 -0.0080 -0.1555  0.8016
   98MOL0     C13162   9.950   2.124   1.716 -0.4705 -0.5270 -0.4232
   98MOL0     H13163  10.141   1.870   1.799 -0.1318 -2.2448 -0.3386
   98MOL0     H13164  10.286   1.706   1.947  3.7070  1.2680  0.9521
   98MOL0     H13165  10.700   1.637   1.834 -0.6836 -0.3944 -0.9177
   98MOL0     H13166  10.682   1.760   1.955  2.1004 -0.9413 -1.2507
   98MOL0     H13167  10.766   1.499   1.995 -2.3999 -1.2465 -3.2426
   98MOL0     H13168  10.611   1.508   2.075 -0.5853 -0.2890 -0.0888
   98MOL0     H13169  10.702   1.726   2.198  0.3954  0.3184  2.6494
   98MOL0     H13170  10.861   1.686   2.132 -0.3807  0.4357  1.6715
   98MOL0     H13171  10.689   1.525   2.322 -0.4425 -0.2245 -0.4164
   98MOL0     H13172  10.837   1.467   2.255  2.0785  0.8194  4.9801
   98MOL0     H13173  10.978   1.593   2.359 -0.0581 -1.2009  0.5000
   98MOL0     H13174  10.865   1.731   2.350  0.4559 -0.5418 -0.8485
   98MOL0     H13175  10.732   1.640   2.534  0.7710  0.2401  0.1659
   98MOL0     H13176  10.860   1.530   2.580  1.8148 -0.6160 -1.5681
   98MOL0     H13177  10.885   1.826   2.582  1.3237 -0.4729 -0.2938
   98MOL0     H13178  11.007   1.701   2.632  1.4162  2.6345 -3.5425
   98MOL0     H13179  10.735   1.775   2.760  1.3607  1.8240 -2.2933
   98MOL0     H13180  10.806   1.610   2.785 -0.7131  0.7335 -0.0486
   98MOL0     H13181  10.975   1.615   2.997  1.1505 -0.0660 -1.9861
   98MOL0     H13182  11.209   1.748   3.128  0.4644  1.0541 -0.8078
   98MOL0     H13183  11.166   1.906   3.210  3.8600 -2.5200  1.3285
   98MOL0     H13184  10.945   1.795   3.286 -0.0758  0.6789 -1.6408
   98MOL0     H13185  11.022   1.649   3.231 -0.1268 -0.4453  1.9480
   98MOL0     H13186  11.176   1.829   3.426 -1.6287  1.2534  0.9277
   98MOL0     H13187  11.199   1.648   3.398  1.1493  1.0495  0.2939
   98MOL0     H13188  10.999   1.602   3.513  0.0573  0.0906  0.8298
   98MOL0     H13189  10.965   1.773   3.526 -1.5935 -0.8771 -0.1598
   98MOL0     H13190  11.275   1.739   3.840  3.3271 -4.4072  1.2051
   98MOL0     H13191  11.242   1.646   4.064  0.6264 -0.9432 -0.2304
   98MOL0     H13192  11.115   1.252   4.262  1.1299 -2.9373  1.2654
   98MOL0     H13193  11.080   1.096   4.436 -0.0430  0.9221  1.8584
   98MOL0     H13194  10.664   1.024   4.572  0.4996  1.3812 -3.7235
   98MOL0     H13195  10.770   0.912   4.481  1.6725 -1.0885  1.2735
   98MOL0     H13196  10.696   0.796   4.672 -0.7511  1.0193 -1.4598
   98MOL0     H13197  10.873   0.828   4.695 -0.4574 -0.6943  0.3802
   98MOL0     H13198  10.833   1.028   4.829 -1.0272  0.7500  0.6069
   98MOL0     H13199  10.655   1.014   4.827  0.0076 -1.3070  3.1149
   98MOL0     H13200  10.800   0.786   4.951 -0.8335 -0.8165 -2.1432
   98MOL0     H13201  10.631   0.828   4.926 -0.1960 -0.4702 -0.6674
   98MOL0     H13202  10.682   0.892   5.140  0.5166  0.7280  0.1869
   98MOL0     H13203  10.671   1.044   5.057 -0.6067 -0.8663 -0.4412
   98MOL0     H13204  10.922   1.049   5.041  1.2925  0.3378  0.7866
   98MOL0     H13205  10.859   1.055   5.203  0.6105 -2.4567  1.5693
   98MOL0     H13206  10.992   0.814   5.073 -0.1089 -2.0408  1.6404
   98MOL0     H13207  10.888   0.792   5.207  0.0351  3.3100  3.1360
   98MOL0     H13208  11.017   0.969   5.331 -2.1090 -1.0273 -0.4884
   98MOL0     H13209  11.115   0.827   5.288 -1.3730 -1.1096  0.1533
   98MOL0     H13210  10.678   1.237   4.498  0.6784  1.6558  2.2658
   98MOL0     H13211  10.711   1.419   4.331  2.5299  2.2328 -0.2188
   98MOL0     H13212  10.861   1.482   3.934  0.6286 -1.9553 -2.1833
   98MOL0     H13213  10.902   1.567   3.707  1.2391 -1.2983 -0.8434
   98MOL0     H13214  10.622   1.798   1.713 -0.2633 -2.3018  2.0279
   98MOL0     H13215  10.509   1.986   1.598 -1.4388  0.3815 -1.4145
   98MOL0     H13216  10.150   2.094   1.288 -2.4254 -2.8116 -3.2306
   98MOL0     H13217   9.966   2.246   1.183  0.4203  0.6934 -0.1192
   98MOL0     H13218   9.634   2.379   1.464  3.2538 -4.0996  0.8863
   98MOL0     H13219   9.588   2.225   1.387  2.0153 -1.5346 -4.4626
   98MOL0     H13220   9.546   2.511   1.276  0.2251 -0.3017 -1.6555
   98MOL0     H13221   9.429   2.397   1.332 -0.0312 -2.9027 -1.0417
   98MOL0     H13222   9.465   2.244   1.158 -2.7673  0.9339 -0.8669
   98MOL0     H13223   9.607   2.326   1.091  0.9302 -0.9647 -0.4075
   98MOL0     H13224   9.314   2.439   1.085 -1.2104 -3.2334 -0.5697
   98MOL0     H13225   9.457   2.541   1.076 -1.3987  0.4580  2.3223
   98MOL0     H13226   9.426   2.335   0.694 -0.7966  1.1370  0.4878
   98MOL0     H13227   9.777   2.276   1.565  0.8973  2.0036 -1.4545
   98MOL0     H13228   9.973   2.022   1.747  1.9515  1.0651  3.8821
   98MOL0     H13229  10.032   2.178   1.764 -0.8408  0.6364 -1.0523
   98MOL0     H13230   9.849   2.136   1.756 -1.1017  3.2060 -2.6418
   99MOL0     O13231   8.653   3.391   9.325  0.2258  0.3060  0.1895
   99MOL0     C13232   8.765   3.335   9.337  0.5655  0.5458  0.1185
   99MOL0     O13233   8.825   3.248   9.233 -0.0467 -0.1071  0.3931
   99MOL0     C13234   8.762   3.234   9.108 -0.5165  0.2695 -1.0802
   99MOL0     C13235   8.689   3.328   9.037  0.4492  0.7520 -0.7131
   99MOL0     C13236   8.621   3.308   8.910  0.2530  0.8971 -0.0603
   99MOL0     C13237   8.650   3.183   8.844 -0.7457 -0.6089  0.1856
   99MOL0     O13238   8.602   3.168   8.713  0.4163 -0.0289 -0.1180
   99MOL0     C13239   8.500   3.249   8.657 -0.9065  0.0160  0.6387
   99MOL0     C13240   8.432   3.173   8.539  0.1908  0.4375  0.1083
   99MOL0     C13241   8.284   3.204   8.542  0.1389  0.6683 -0.1044
   99MOL0     C13242   8.211   3.135   8.426  0.6346  0.5104  1.1801
   99MOL0     C13243   8.253   3.155   8.278 -0.1650 -0.2143  0.0867
   99MOL0     C13244   8.160   3.078   8.183 -0.6531  0.2183 -0.2631
   99MOL0     C13245   8.163   3.132   8.041  0.0912 -0.5080  0.8652
   99MOL0     C13246   8.073   3.059   7.946 -0.7054 -0.8318  0.5906
   99MOL0     N13247   7.950   3.126   7.923  0.2048 -0.7443  0.2922
   99MOL0     C13248   7.905   3.144   7.794 -0.5227 -0.2909  0.2236
   99MOL0     C13249   7.787   3.206   7.805  1.0068 -0.6832 -0.5528
   99MOL0     C13250   7.682   3.254   7.702  0.4267  0.1580  0.2647
   99MOL0     C13251   7.740   3.362   7.609  0.1898 -0.0482 -0.3673
   99MOL0     C13252   7.719   3.501   7.671  1.4174 -0.1642  0.4336
   99MOL0     C13253   7.571   3.537   7.641  0.4221 -0.3145 -0.8049
   99MOL0     O13254   7.576   3.558   7.496 -0.5748  0.1091 -0.1263
   99MOL0     C13255   7.468   3.581   7.417  0.0748 -1.0047 -0.0843
   99MOL0     C13256   7.339   3.571   7.461  0.2590  0.0345  0.5078
   99MOL0     C13257   7.232   3.589   7.376 -0.2907 -0.0280 -0.4978
   99MOL0     C13258   7.243   3.614   7.239 -0.3285 -0.1427  0.2106
   99MOL0     C13259   7.129   3.618   7.143  0.0325  0.4733 -0.1194
   99MOL0     O13260   7.010   3.618   7.192 -0.1112  0.1623 -0.6422
   99MOL0     C13261   6.914   3.683   7.118 -0.0493  0.0224 -0.4712
   99MOL0     C13262   6.948   3.803   7.058  0.9011 -0.0712 -0.1427
   99MOL0     C13263   6.843   3.883   7.001 -0.0725  0.6193  0.5043
   99MOL0     C13264   6.712   3.836   6.984 -0.0368  0.0446  0.4123
   99MOL0     O13265   6.626   3.910   6.904  0.1863  0.9399 -0.5786
   99MOL0     C13266   6.494   3.923   6.953  0.6275 -0.1061 -1.1440
   99MOL0     C13267   6.397   3.908   6.832 -1.2074  0.1047 -0.2248
   99MOL0     C13268   6.251   3.894   6.876  0.6646 -0.4885 -0.0038
   99MOL0     C13269   6.213   4.033   6.948 -0.0370 -0.1831  0.9964
   99MOL0     C13270   6.066   4.056   6.922 -0.2559  0.2562 -0.8714
   99MOL0     C13271   5.983   3.950   6.992 -0.6778  0.1055 -0.8038
   99MOL0     C13272   5.847   4.008   7.027 -0.0207 -0.1256 -0.2875
   99MOL0     C13273   5.749   3.905   7.077 -0.0185 -0.6929  0.0668
   99MOL0    Cl13274   5.606   3.997   7.142 -0.5719 -0.3535  0.1412
   99MOL0     C13275   6.682   3.706   7.031  0.1195  0.5174 -0.6162
   99MOL0     C13276   6.781   3.640   7.105 -0.2498  0.7620  0.1768
   99MOL0     O13277   7.161   3.615   7.027  0.3910  0.3023  0.4518
   99MOL0     C13278   7.377   3.625   7.193 -0.4415 -0.3410  0.8044
   99MOL0     C13279   7.487   3.613   7.278 -0.6668  0.6174 -0.5055
   99MOL0     N13280   7.764   3.227   7.942  1.8269  0.4551 -0.1528
   99MOL0     N13281   7.866   3.190   8.013  0.3100  0.3353 -0.3077
   99MOL0     C13282   8.727   3.088   8.913 -1.2527 -0.3711  0.1590
   99MOL0     C13283   8.771   3.110   9.043 -0.1507 -0.0768  0.0007
   99MOL0     C13284   8.846   3.357   9.457  0.8046 -0.1080  0.1330
   99MOL0     C13285   8.843   3.490   9.504 -0.7549  0.3081  0.5171
   99MOL0     C13286   8.923   3.526   9.618 -0.0763  1.0975 -0.1215
   99MOL0     C13287   9.009   3.427   9.679  1.1120  0.1302  0.3302
   99MOL0     O13288   9.086   3.464   9.795 -0.0972 -0.4952  0.2473
   99MOL0     C13289   9.186   3.376   9.848  0.6198  0.0475  0.3887
   99MOL0     C13290   9.303   3.383   9.751 -0.3180 -0.1438  0.4389
   99MOL0     C13291   9.371   3.522   9.726 -0.1915  0.0446  0.0714
   99MOL0     C13292   9.412   3.597   9.856  0.2669  0.8210  0.8396
   99MOL0     C13293   9.527   3.524   9.912 -1.3774 -0.7204  0.1027
   99MOL0     C13294   9.630   3.480   9.966 -0.4655  0.8077 -0.0901
   99MOL0     C13295   9.000   3.295   9.631  0.2123  0.3391 -0.1514
   99MOL0     C13296   8.920   3.261   9.527  0.4933 -0.3336  0.0536
   99MOL0     C13297   8.916   3.116   9.490  0.1289 -0.9121 -0.3362
   99MOL0     H13298   8.679   3.424   9.087  2.4424  1.5734 -1.7909
   99MOL0     H13299   8.562   3.390   8.871  0.6728  0.3783 -1.8764
   99MOL0     H13300   8.422   3.278   8.729 -1.8846  2.5314 -1.2825
   99MOL0     H13301   8.548   3.340   8.620 -2.1597  0.8915  1.0991
   99MOL0     H13302   8.445   3.065   8.551  2.5722  0.6791  0.1888
   99MOL0     H13303   8.483   3.204   8.447  0.3281 -0.9483 -0.3019
   99MOL0     H13304   8.268   3.312   8.536  0.5654  0.6611 -2.6519
   99MOL0     H13305   8.237   3.162   8.632 -0.0481  0.4834 -0.2857
   99MOL0     H13306   8.216   3.027   8.440  1.0748 -0.0220 -2.2238
   99MOL0     H13307   8.104   3.159   8.433  0.4811  0.4249 -0.4464
   99MOL0     H13308   8.259   3.263   8.258  3.3752 -0.4627 -0.8531
   99MOL0     H13309   8.360   3.136   8.264  0.2257  0.7431  1.5219
   99MOL0     H13310   8.188   2.972   8.191 -1.3484  0.1369  2.1389
   99MOL0     H13311   8.060   3.079   8.228 -0.4721 -1.1786  0.2232
   99MOL0     H13312   8.268   3.121   8.011  0.1612 -1.2599  1.3528
   99MOL0     H13313   8.140   3.239   8.034 -1.5335 -0.7772  1.5679
   99MOL0     H13314   8.122   3.032   7.852  0.0166 -0.0114  0.7186
   99MOL0     H13315   8.051   2.964   7.996  0.3281 -0.6370  1.4475
   99MOL0     H13316   7.955   3.105   7.706 -0.3408 -1.0464  0.6553
   99MOL0     H13317   7.653   3.175   7.632  4.4841 -1.7722  0.4706
   99MOL0     H13318   7.594   3.284   7.759 -0.8907 -1.4491 -0.8078
   99MOL0     H13319   7.848   3.350   7.602 -0.1030 -3.7626 -0.4870
   99MOL0     H13320   7.702   3.348   7.507 -1.3991 -0.9058  0.3015
   99MOL0     H13321   7.784   3.569   7.615  0.8570  0.1139  0.1084
   99MOL0     H13322   7.728   3.495   7.780 -0.7857 -0.6095  0.6464
   99MOL0     H13323   7.540   3.623   7.701 -0.9327 -2.6839  2.1689
   99MOL0     H13324   7.500   3.457   7.663 -0.4284  0.6549  0.1294
   99MOL0     H13325   7.313   3.535   7.560  0.3812 -0.3010  0.4179
   99MOL0     H13326   7.132   3.588   7.419  2.0932 -1.8610  6.2775
   99MOL0     H13327   7.046   3.849   7.058  1.3345 -0.9591 -0.8701
   99MOL0     H13328   6.866   3.981   6.960 -0.8783 -0.0536 -1.6984
   99MOL0     H13329   6.479   3.856   7.038  1.8219  0.8793 -0.1094
   99MOL0     H13330   6.471   4.022   6.993  0.5086 -0.4127 -0.4428
   99MOL0     H13331   6.407   3.997   6.769  1.0016  2.4673  3.1195
   99MOL0     H13332   6.420   3.826   6.764 -2.1645 -1.3080  1.0914
   99MOL0     H13333   6.189   3.879   6.788 -2.1817  2.5843  1.2789
   99MOL0     H13334   6.224   3.806   6.936 -1.3643 -1.4614 -2.2233
   99MOL0     H13335   6.272   4.116   6.908 -0.6702 -0.9202 -1.6383
   99MOL0     H13336   6.235   4.012   7.053  2.0924 -1.6218  0.3254
   99MOL0     H13337   6.037   4.059   6.816 -1.2106  1.2559 -0.5936
   99MOL0     H13338   6.034   4.148   6.972 -1.8981 -1.9372  2.5000
   99MOL0     H13339   5.983   3.865   6.923 -0.4541 -1.6963  1.2856
   99MOL0     H13340   6.030   3.913   7.084 -1.1413  1.4566  0.0154
   99MOL0     H13341   5.808   4.058   6.938  2.8851  2.1091 -0.4393
   99MOL0     H13342   5.855   4.088   7.101 -0.1616 -0.1391 -0.2572
   99MOL0     H13343   5.715   3.850   6.988  1.5117  1.4687 -1.9639
   99MOL0     H13344   5.793   3.842   7.154 -2.8646 -0.6331  1.8757
   99MOL0     H13345   6.586   3.655   7.027  1.6191 -2.6901  0.5181
   99MOL0     H13346   6.749   3.541   7.138  1.7598  0.6502  1.9789
   99MOL0     H13347   7.385   3.656   7.090  0.8093  4.1430  2.0291
   99MOL0     H13348   7.586   3.599   7.234 -0.8291 -2.0327 -0.1786
   99MOL0     H13349   8.755   3.000   8.857 -0.5873  0.7768 -1.3867
   99MOL0     H13350   8.848   3.041   9.076  2.9353  1.9962 -2.3266
   99MOL0     H13351   8.775   3.570   9.476 -1.0602 -0.0785  0.1389
   99MOL0     H13352   8.909   3.626   9.657 -0.1041  0.2017  2.3681
   99MOL0     H13353   9.137   3.279   9.865 -0.4005  0.6493  0.9272
   99MOL0     H13354   9.215   3.418   9.944  0.5928  2.9698 -0.7755
   99MOL0     H13355   9.285   3.343   9.651  4.8200 -0.1535 -0.7595
   99MOL0     H13356   9.372   3.315   9.801 -1.7487 -1.4528  0.6987
   99MOL0     H13357   9.306   3.588   9.668 -0.8124 -0.1835  0.4992
   99MOL0     H13358   9.465   3.506   9.673 -0.3039  0.0574 -0.1353
   99MOL0     H13359   9.439   3.700   9.832 -0.6397  0.9177  0.1972
   99MOL0     H13360   9.345   3.594   9.942 -3.2078  0.4534 -1.6757
   99MOL0     H13361   9.721   3.444  10.010 -1.6102 -2.2458  0.0291
   99MOL0     H13362   9.046   3.211   9.682 -1.7049  0.3348  1.7211
   99MOL0     H13363   9.005   3.087   9.433  1.6208  2.9010 -0.2918
   99MOL0     H13364   8.896   3.057   9.579  1.1372  1.5989  1.6787
   99MOL0     H13365   8.830   3.104   9.423 -0.6852  0.7229  0.3554
  100MOL0     O13366   0.181   9.359   5.887 -0.6730  0.4867 -0.0502
  100MOL0     C13367   0.152   9.354   6.008 -0.4414  0.6364  0.1697
  100MOL0     O13368   0.244   9.375   6.116  0.5513 -0.0722  0.1086
  100MOL0     C13369   0.378   9.382   6.079  0.1210  0.2769 -0.4089
  100MOL0     C13370   0.436   9.509   6.057 -0.2588  0.2369  0.3232
  100MOL0     C13371   0.573   9.521   6.021 -0.6568 -0.7632 -0.0151
  100MOL0     C13372   0.652   9.401   6.028  0.1028 -0.8559  0.6819
  100MOL0     O13373   0.785   9.409   5.997  0.3453 -0.0193  0.6409
  100MOL0     C13374   0.877   9.333   6.078  0.0518 -0.0432  0.3559
  100MOL0     C13375   0.922   9.206   6.007 -0.6318  0.0165  0.0899
  100MOL0     C13376   1.000   9.258   5.890  0.8912  0.1192 -0.5347
  100MOL0     C13377   1.064   9.153   5.801 -0.0288 -1.1722  0.6575
  100MOL0     C13378   1.152   9.223   5.685 -0.5013  0.3862  0.4001
  100MOL0     C13379   1.063   9.299   5.583 -0.1351  1.1459 -0.3858
  100MOL0     C13380   1.127   9.300   5.438 -0.7644  0.6984 -0.0812
  100MOL0     C13381   1.136   9.172   5.360  0.4678 -0.0770  0.1742
  100MOL0     N13382   1.011   9.104   5.336  0.4289 -0.2022 -0.3769
  100MOL0     C13383   0.906   9.147   5.253  0.8025  0.3998  0.1995
  100MOL0     C13384   0.821   9.044   5.255 -0.4491 -0.4034  0.0500
  100MOL0     C13385   0.699   9.026   5.179 -0.4085  0.2090 -0.2480
  100MOL0     C13386   0.592   9.086   5.262  0.5202 -0.6112 -1.1085
  100MOL0     C13387   0.591   9.241   5.296 -0.4921  0.2552 -1.1299
  100MOL0     C13388   0.546   9.331   5.182  0.0966 -0.0670  0.3320
  100MOL0     O13389   0.635   9.326   5.065 -0.1176 -0.4845 -0.7501
  100MOL0     C13390   0.748   9.410   5.084  0.7954  0.0768  0.7046
  100MOL0     C13391   0.768   9.507   5.179  0.0955 -0.5770  0.2400
  100MOL0     C13392   0.896   9.568   5.174  0.3690 -0.7755  0.0875
  100MOL0     C13393   1.002   9.526   5.085  0.5328  1.0222 -0.0781
  100MOL0     C13394   1.137   9.574   5.110 -0.3712  0.0004  0.1443
  100MOL0     O13395   1.158   9.676   5.200  0.3893 -0.2935 -0.1310
  100MOL0     C13396   1.283   9.682   5.258 -0.0645 -0.2165  0.3917
  100MOL0     C13397   1.374   9.769   5.208 -0.3461  0.0857  0.4512
  100MOL0     C13398   1.499   9.774   5.270  0.4485 -0.1180  0.3868
  100MOL0     C13399   1.535   9.695   5.385  0.3863 -0.2104 -0.3887
  100MOL0     O13400   1.660   9.707   5.448 -0.2227  0.3298 -0.0534
  100MOL0     C13401   1.754   9.803   5.403  0.3632  0.3226  0.3050
  100MOL0     C13402   1.860   9.805   5.503  0.5339 -1.4083  0.3550
  100MOL0     C13403   1.962   9.916   5.477 -0.3931  0.2800  0.7604
  100MOL0     C13404   2.105   9.863   5.494  0.1557 -0.6023 -0.5785
  100MOL0     C13405   2.221   9.968   5.508 -1.3627  0.5293  0.4004
  100MOL0     C13406   2.236  10.055   5.381 -0.2258 -0.4357  0.2571
  100MOL0     C13407   2.353  10.151   5.401 -0.7316  0.2753 -0.0055
  100MOL0     C13408   2.493  10.072   5.413  0.6329 -0.0667 -0.4830
  100MOL0    Cl13409   2.626  10.187   5.452  0.1443  0.2176 -0.5146
  100MOL0     C13410   1.438   9.613   5.430  0.5530  0.9569 -0.3026
  100MOL0     C13411   1.311   9.600   5.368 -0.0038  0.4041 -0.0373
  100MOL0     O13412   1.225   9.522   5.043 -0.2626 -0.1752  0.2612
  100MOL0     C13413   0.978   9.421   4.997 -0.6037  0.5431 -0.7900
  100MOL0     C13414   0.847   9.378   4.984 -0.4724  0.2824 -0.2087
  100MOL0     N13415   0.859   8.963   5.363  0.1907 -0.1993  0.1031
  100MOL0     N13416   0.978   8.995   5.408 -0.5099 -0.8592 -0.0470
  100MOL0     C13417   0.589   9.280   6.057  0.4381 -0.2076 -0.3171
  100MOL0     C13418   0.453   9.266   6.078  0.2236 -0.2541 -0.7718
  100MOL0     C13419   0.012   9.334   6.062 -0.4299 -0.8438 -0.8168
  100MOL0     C13420  -0.039   9.422   6.168 -0.3611 -0.0378 -0.3866
  100MOL0     C13421  -0.169   9.412   6.212  0.9954 -0.7764 -0.0166
  100MOL0     C13422  -0.255   9.320   6.155  0.7795  1.0735  0.5581
  100MOL0     O13423  -0.392   9.319   6.184 -0.4646  0.2828  0.3394
  100MOL0     C13424  -0.455   9.454   6.165 -0.6307  0.3168 -0.2256
  100MOL0     C13425  -0.610   9.434   6.178 -0.0172 -0.9283 -0.3143
  100MOL0     C13426  -0.673   9.380   6.052  0.1135 -0.6008  1.0716
  100MOL0     C13427  -0.705   9.228   6.063  0.1005 -0.9237  0.5854
  100MOL0     C13428  -0.812   9.206   5.962  0.1820 -0.2893 -1.0886
  100MOL0     C13429  -0.898   9.176   5.885 -0.1070 -0.8100  0.6644
  100MOL0     C13430  -0.211   9.232   6.056 -0.3499  0.4129 -0.2522
  100MOL0     C13431  -0.079   9.233   6.015 -0.2881 -0.0122 -0.1451
  100MOL0     C13432  -0.033   9.135   5.909 -0.3136  0.0539  0.3402
  100MOL0     H13433   0.381   9.602   6.041  2.0686  1.1254 -3.8653
  100MOL0     H13434   0.619   9.618   6.001  2.3155 -2.4217 -1.8779
  100MOL0     H13435   0.963   9.391   6.115 -1.0799  2.2605 -0.4233
  100MOL0     H13436   0.814   9.300   6.161 -1.1996  0.5583 -0.3234
  100MOL0     H13437   0.836   9.141   5.990 -0.9866  0.0976  1.4578
  100MOL0     H13438   0.993   9.155   6.073  0.7433 -0.4061 -1.6316
  100MOL0     H13439   1.086   9.320   5.915  0.7665  0.9069 -1.9689
  100MOL0     H13440   0.928   9.311   5.827 -1.1028 -0.2375  1.3384
  100MOL0     H13441   1.124   9.089   5.867 -1.4518 -0.7613  2.4185
  100MOL0     H13442   0.985   9.086   5.768 -0.5263 -1.9246  3.1475
  100MOL0     H13443   1.227   9.288   5.732 -0.5684  0.1148  0.8890
  100MOL0     H13444   1.203   9.139   5.637  0.2240  0.3322  1.2508
  100MOL0     H13445   0.961   9.262   5.585 -0.0021  0.8219  0.6339
  100MOL0     H13446   1.052   9.404   5.610 -0.1533  0.8629  0.7277
  100MOL0     H13447   1.228   9.341   5.434  0.3894 -1.7104  1.5797
  100MOL0     H13448   1.055   9.368   5.391 -0.0568  0.9135 -0.8855
  100MOL0     H13449   1.183   9.204   5.266 -1.2477 -0.3740 -0.8244
  100MOL0     H13450   1.207   9.109   5.414  1.0964  1.3074  1.0222
  100MOL0     H13451   0.916   9.232   5.187  2.4270 -1.3855 -1.9934
  100MOL0     H13452   0.695   9.074   5.081 -1.2134 -2.9274 -1.8859
  100MOL0     H13453   0.672   8.921   5.159 -1.1141  0.7600 -2.4627
  100MOL0     H13454   0.494   9.077   5.215  1.1313 -3.4248 -2.0342
  100MOL0     H13455   0.582   9.032   5.357  0.3628  2.1961  0.5999
  100MOL0     H13456   0.687   9.272   5.338 -1.1901 -0.5934  1.2273
  100MOL0     H13457   0.522   9.234   5.380 -0.7869 -4.4547 -1.4639
  100MOL0     H13458   0.540   9.431   5.226  2.6964 -0.0989  0.9272
  100MOL0     H13459   0.447   9.300   5.148  0.5734 -2.3654  0.8695
  100MOL0     H13460   0.693   9.548   5.246 -3.9213  1.3912 -4.7865
  100MOL0     H13461   0.920   9.646   5.246 -0.7669 -1.7131  1.5279
  100MOL0     H13462   1.347   9.840   5.130  0.7933  0.8423  0.7276
  100MOL0     H13463   1.574   9.841   5.230 -0.7273  0.2474 -1.2819
  100MOL0     H13464   1.800   9.772   5.309 -0.3786  3.1737 -1.0829
  100MOL0     H13465   1.714   9.904   5.396 -1.4461 -0.3518  0.1580
  100MOL0     H13466   1.796   9.831   5.588  0.0547 -0.7914 -0.1783
  100MOL0     H13467   1.921   9.716   5.517  4.5129  1.2405  1.5550
  100MOL0     H13468   1.958   9.950   5.373 -3.3882 -2.5482 -0.2220
  100MOL0     H13469   1.937  10.005   5.535 -0.7065  0.2057  0.7404
  100MOL0     H13470   2.133   9.786   5.422  2.8961  0.3814 -0.6730
  100MOL0     H13471   2.102   9.812   5.591  0.4195 -3.9975 -2.2213
  100MOL0     H13472   2.306   9.903   5.530 -0.6805  0.9103 -0.9659
  100MOL0     H13473   2.197  10.029   5.596  2.4923  1.0596  1.2635
  100MOL0     H13474   2.239   9.993   5.291 -1.2606 -1.6722  1.0373
  100MOL0     H13475   2.145  10.114   5.368  0.4365  0.6249  0.3766
  100MOL0     H13476   2.341  10.219   5.486  4.3008  1.7593 -0.1486
  100MOL0     H13477   2.351  10.215   5.312 -4.7278  0.6530  0.1870
  100MOL0     H13478   2.498   9.985   5.479  4.0798  0.5782  0.3269
  100MOL0     H13479   2.513  10.038   5.311 -2.4913 -2.5654 -0.4244
  100MOL0     H13480   1.456   9.547   5.514  1.4025 -1.3414 -2.1804
  100MOL0     H13481   1.233   9.536   5.407  0.1221  0.3297  0.0929
  100MOL0     H13482   1.056   9.393   4.927  0.7448  1.6992  0.2011
  100MOL0     H13483   0.826   9.301   4.910 -0.9016  0.1380  0.0679
  100MOL0     H13484   0.652   9.192   6.051  1.6028  0.6827 -2.0654
  100MOL0     H13485   0.410   9.169   6.100 -0.6909  0.2507 -0.2919
  100MOL0     H13486   0.031   9.498   6.200 -0.9306  0.3117  0.0384
  100MOL0     H13487  -0.210   9.478   6.287  1.9041 -0.3325  0.1043
  100MOL0     H13488  -0.420   9.502   6.073 -2.3309  2.0908 -0.0040
  100MOL0     H13489  -0.419   9.510   6.252  1.1117 -0.0947 -0.6444
  100MOL0     H13490  -0.650   9.534   6.195 -0.9787 -0.6962 -3.3482
  100MOL0     H13491  -0.621   9.368   6.265  0.7043  1.1549  1.4318
  100MOL0     H13492  -0.603   9.394   5.969  1.0371 -1.4692  1.6811
  100MOL0     H13493  -0.762   9.438   6.025  0.8357 -0.2960 -0.8354
  100MOL0     H13494  -0.615   9.171   6.036 -0.6995 -1.3349 -1.4086
  100MOL0     H13495  -0.743   9.206   6.163 -1.6257  1.3637  0.5119
  100MOL0     H13496  -0.991   9.159   5.836 -1.5728  1.2316  2.5239
  100MOL0     H13497  -0.289   9.170   6.012 -2.4649  0.6829  2.7958
  100MOL0     H13498   0.014   9.194   5.829  1.0281 -0.5354  0.6526
  100MOL0     H13499   0.045   9.071   5.953 -1.4940 -0.7555  1.3151
  100MOL0     H13500  -0.110   9.073   5.863 -2.0313  2.9505 -0.9826
  101MOL0     O13501  10.746   4.247   8.130  0.2636 -0.1785  0.4585
  101MOL0     C13502  10.772   4.314   8.234 -0.8096 -0.7204  0.9474
  101MOL0     O13503  10.830   4.257   8.349 -0.3510  0.0418  0.5099
  101MOL0     C13504  10.852   4.121   8.356  0.6997 -0.2632 -0.6589
  101MOL0     C13505  10.979   4.066   8.375  0.4875 -0.7220  0.2523
  101MOL0     C13506  10.983   3.929   8.406  0.2866  0.4436  0.5794
  101MOL0     C13507  10.880   3.846   8.385  0.4990 -0.0378  1.3637
  101MOL0     O13508  10.904   3.712   8.411 -0.6265 -0.3711  0.5050
  101MOL0     C13509  10.802   3.612   8.394 -0.4742 -0.6045  0.3419
  101MOL0     C13510  10.869   3.471   8.419  0.6749 -0.4508  0.0633
  101MOL0     C13511  10.863   3.419   8.563 -0.3557  0.2716  0.6739
  101MOL0     C13512  10.722   3.368   8.607  0.0846  1.4916 -0.0838
  101MOL0     C13513  10.735   3.292   8.744  0.2219  0.3609  0.2822
  101MOL0     C13514  10.616   3.215   8.785 -0.1583  0.7072 -0.2002
  101MOL0     C13515  10.641   3.143   8.920  0.3571  0.2581 -1.0782
  101MOL0     C13516  10.524   3.054   8.957  0.6197  0.9366  0.4378
  101MOL0     N13517  10.548   2.963   9.068 -0.0302 -0.0376 -0.7806
  101MOL0     C13518  10.554   2.997   9.203  0.9141 -0.9952 -0.2440
  101MOL0     C13519  10.599   2.897   9.273 -0.3124  0.3007 -0.1059
  101MOL0     C13520  10.629   2.881   9.420 -0.0054  0.0308 -0.0531
  101MOL0     C13521  10.563   2.983   9.506  0.6589 -0.0952  0.6852
  101MOL0     C13522  10.583   2.964   9.654 -0.7589 -0.1761 -0.3466
  101MOL0     C13523  10.731   2.988   9.697 -0.8408  0.1310 -0.4775
  101MOL0     O13524  10.721   3.031   9.834 -0.8019 -0.1696  0.7848
  101MOL0     C13525  10.844   2.998   9.901 -0.7484  0.2164  0.2377
  101MOL0     C13526  10.972   3.017   9.849 -0.5996 -0.3752  0.1361
  101MOL0     C13527  11.083   3.002   9.936 -0.6060  0.4908 -0.3446
  101MOL0     C13528  11.066   2.956  10.068 -0.2618  0.2449  0.5680
  101MOL0     C13529  11.172   2.918  10.151  0.4450  0.2385  0.7254
  101MOL0     O13530  11.295   2.899  10.083 -0.3851  0.2244 -0.0788
  101MOL0     C13531  11.402   2.873  10.169  0.1943 -0.3147  0.9453
  101MOL0     C13532  11.447   2.740  10.168  0.0010 -0.3197  0.3828
  101MOL0     C13533  11.553   2.704  10.250  0.9211  0.1633  0.5847
  101MOL0     C13534  11.598   2.800  10.336 -0.0284  0.1678 -0.2645
  101MOL0     O13535  11.692   2.746  10.422  0.2216  0.2130 -0.8064
  101MOL0     C13536  11.806   2.816  10.444 -0.1546 -0.1132 -0.2868
  101MOL0     C13537  11.889   2.744  10.554 -0.3937  0.0534  0.9364
  101MOL0     C13538  12.017   2.819  10.584 -0.0576 -0.5163  0.5331
  101MOL0     C13539  12.102   2.732  10.661  0.4466  1.1946  0.0433
  101MOL0     C13540  12.197   2.805  10.747 -0.6718  0.3423  0.1425
  101MOL0     C13541  12.306   2.715  10.811  0.5693  0.3769  1.1133
  101MOL0     C13542  12.420   2.786  10.884 -0.0468  0.1737 -1.4089
  101MOL0     C13543  12.368   2.835  11.015  0.0775  0.4550 -0.6445
  101MOL0    Cl13544  12.416   2.693  11.116  0.2069  0.0517 -0.2896
  101MOL0     C13545  11.556   2.929  10.334  0.5382 -0.0126  0.4579
  101MOL0     C13546  11.463   2.965  10.246 -0.6189 -0.0832  0.0206
  101MOL0     O13547  11.151   2.919  10.271 -0.6960 -0.0303  0.3767
  101MOL0     C13548  10.939   2.943  10.131  0.3012 -0.5700  1.0050
  101MOL0     C13549  10.830   2.970  10.043  0.4678  0.2815 -0.5395
  101MOL0     N13550  10.633   2.799   9.178 -0.2405 -0.5360  0.4961
  101MOL0     N13551  10.611   2.846   9.052  0.1043  0.5633  0.2077
  101MOL0     C13552  10.753   3.901   8.367  0.1807  0.4350 -0.7866
  101MOL0     C13553  10.739   4.039   8.351  0.6069 -0.2097  0.1652
  101MOL0     C13554  10.733   4.459   8.245  1.0146  0.5074 -0.6957
  101MOL0     C13555  10.797   4.548   8.331  0.6943  0.2096 -0.0542
  101MOL0     C13556  10.757   4.681   8.339  0.2996 -0.2169 -0.0852
  101MOL0     C13557  10.651   4.733   8.264 -0.6666  0.7120 -0.3174
  101MOL0     O13558  10.616   4.858   8.287 -0.0839 -0.0836  0.0414
  101MOL0     C13559  10.508   4.874   8.380  1.3115 -0.5957 -0.2792
  101MOL0     C13560  10.458   5.015   8.385 -0.8534 -0.6931 -0.1904
  101MOL0     C13561  10.412   5.067   8.247 -0.9520  0.4628 -0.4695
  101MOL0     C13562  10.451   5.215   8.231  0.5524 -0.1388  0.0459
  101MOL0     C13563  10.392   5.300   8.336  0.5015 -0.1286 -0.3073
  101MOL0     C13564  10.371   5.370   8.436  0.7887  0.2936 -0.4513
  101MOL0     C13565  10.593   4.648   8.171  0.4287  0.6145 -0.2296
  101MOL0     C13566  10.634   4.511   8.155  0.4376 -0.8492 -0.2434
  101MOL0     C13567  10.534   4.424   8.071 -0.0293 -0.5913  0.9377
  101MOL0     H13568  11.070   4.120   8.350  0.9859 -2.5031 -2.1014
  101MOL0     H13569  11.071   3.867   8.422 -1.1698 -1.8518  0.2744
  101MOL0     H13570  10.718   3.634   8.461  0.5179 -0.8495  1.6923
  101MOL0     H13571  10.770   3.617   8.289  4.1237  1.4277 -1.2036
  101MOL0     H13572  10.970   3.476   8.378  1.4241  2.6852  1.9583
  101MOL0     H13573  10.821   3.405   8.345  0.7944  1.0562 -1.4191
  101MOL0     H13574  10.882   3.493   8.642  0.9470 -0.2420  0.8677
  101MOL0     H13575  10.935   3.336   8.565 -1.9929 -1.2470 -0.5385
  101MOL0     H13576  10.648   3.447   8.601 -1.3153  0.3274  1.1783
  101MOL0     H13577  10.692   3.288   8.538  0.7791  1.2377 -0.1031
  101MOL0     H13578  10.813   3.216   8.733 -0.8656 -1.3147  3.0336
  101MOL0     H13579  10.768   3.345   8.834 -0.0861 -3.1248  2.6469
  101MOL0     H13580  10.531   3.282   8.799 -0.9557 -0.3541  0.1562
  101MOL0     H13581  10.590   3.142   8.708  4.3584  1.1366 -2.5379
  101MOL0     H13582  10.668   3.211   9.002  1.9104 -0.9429 -0.5318
  101MOL0     H13583  10.732   3.081   8.922  0.7303  0.3707  4.7038
  101MOL0     H13584  10.448   3.128   8.984  1.1325  1.0662  1.6071
  101MOL0     H13585  10.480   2.998   8.875  1.4246 -1.2222  1.3978
  101MOL0     H13586  10.511   3.088   9.243  0.1315 -0.1333 -2.8517
  101MOL0     H13587  10.602   2.777   9.438 -2.6924  0.9643  1.9222
  101MOL0     H13588  10.738   2.895   9.428  0.2296 -0.9157 -1.1783
  101MOL0     H13589  10.599   3.081   9.474 -0.2909 -0.3022 -1.1331
  101MOL0     H13590  10.454   2.977   9.495  0.3165  3.2028  1.2535
  101MOL0     H13591  10.554   2.863   9.682 -0.4336  0.1431  1.2567
  101MOL0     H13592  10.517   3.032   9.709  2.3486  2.5026  0.4020
  101MOL0     H13593  10.773   3.071   9.638 -2.6105  2.3646  1.2135
  101MOL0     H13594  10.790   2.897   9.685  0.5733  0.9132  0.2601
  101MOL0     H13595  10.985   3.067   9.753 -2.0306 -0.3138 -0.0530
  101MOL0     H13596  11.181   3.032   9.900  0.3482  0.0094  1.6896
  101MOL0     H13597  11.386   2.671  10.112 -2.8425  0.1124  2.7124
  101MOL0     H13598  11.585   2.601  10.240  0.8458  0.3771 -3.7420
  101MOL0     H13599  11.865   2.819  10.352  0.1686  1.3577 -0.0684
  101MOL0     H13600  11.795   2.922  10.471  1.0382 -0.0577  0.0475
  101MOL0     H13601  11.824   2.718  10.638 -2.7079  2.2799  0.0009
  101MOL0     H13602  11.914   2.652  10.501 -3.0753 -1.5184  2.1927
  101MOL0     H13603  12.063   2.854  10.491  0.6342 -2.4341  0.0966
  101MOL0     H13604  12.004   2.909  10.644  1.1970  2.6015 -3.3832
  101MOL0     H13605  12.158   2.669  10.591 -2.3645  0.7264 -1.9860
  101MOL0     H13606  12.049   2.661  10.725  0.8490  1.5188  0.7461
  101MOL0     H13607  12.137   2.865  10.815 -0.6152  3.1256 -2.0779
  101MOL0     H13608  12.255   2.870  10.680  1.1718 -1.1369  0.2026
  101MOL0     H13609  12.252   2.642  10.871  0.2685  0.0959  0.5085
  101MOL0     H13610  12.349   2.656  10.729 -0.5007 -0.2151  0.9630
  101MOL0     H13611  12.460   2.870  10.826  4.3650  0.0496  0.9904
  101MOL0     H13612  12.505   2.717  10.888  1.0161  1.3747 -2.3848
  101MOL0     H13613  12.415   2.930  11.044 -1.0727  1.0194 -0.5704
  101MOL0     H13614  12.259   2.840  11.025  0.1391  0.3274  0.1388
  101MOL0     H13615  11.598   3.001  10.405 -2.7323  1.2061  1.3440
  101MOL0     H13616  11.419   3.064  10.255 -3.5547 -1.2726  0.0822
  101MOL0     H13617  10.919   2.917  10.234  0.8126  0.8119  1.4811
  101MOL0     H13618  10.732   2.970  10.089  0.5109  1.3355 -0.4072
  101MOL0     H13619  10.665   3.837   8.360 -0.9717  1.7772  0.5871
  101MOL0     H13620  10.644   4.090   8.347  0.5249  0.0969  3.2815
  101MOL0     H13621  10.876   4.509   8.395 -2.9696 -0.8300  4.4171
  101MOL0     H13622  10.805   4.755   8.402  0.4514  0.2211 -0.7114
  101MOL0     H13623  10.535   4.832   8.478  0.6456 -0.8247 -0.1899
  101MOL0     H13624  10.416   4.825   8.348  0.6712 -0.1729  0.8711
  101MOL0     H13625  10.543   5.077   8.416  0.8738 -2.6749 -0.7398
  101MOL0     H13626  10.388   5.033   8.467 -1.0785 -2.6609  0.1069
  101MOL0     H13627  10.304   5.050   8.246 -0.5079 -3.0250 -1.7433
  101MOL0     H13628  10.457   5.001   8.172  1.8697 -0.7083  2.0470
  101MOL0     H13629  10.560   5.229   8.231  0.4191  1.2984  1.5613
  101MOL0     H13630  10.421   5.247   8.131 -1.0957  0.6373  0.7618
  101MOL0     H13631  10.367   5.421   8.530 -1.3069 -0.2931 -0.1613
  101MOL0     H13632  10.525   4.695   8.101  0.7676 -0.7650 -1.5101
  101MOL0     H13633  10.508   4.330   8.122  2.1994 -2.4139 -1.0303
  101MOL0     H13634  10.440   4.475   8.051 -1.1995 -3.7270 -2.5699
  101MOL0     H13635  10.570   4.394   7.972 -0.6529 -1.4117  0.9518
  102MOL0     O13636   0.581   7.410   6.914 -0.4933 -0.5929  0.8610
  102MOL0     C13637   0.595   7.507   6.852  1.1127  0.3608  0.1124
  102MOL0     O13638   0.564   7.629   6.886  0.5329  0.4577  0.7300
  102MOL0     C13639   0.496   7.658   7.003  0.2223 -0.0877  0.7466
  102MOL0     C13640   0.545   7.641   7.132  0.1712 -0.3107  0.2073
  102MOL0     C13641   0.474   7.678   7.250  0.2038  1.0098 -1.1359
  102MOL0     C13642   0.355   7.756   7.232 -0.5966  1.1512 -0.0373
  102MOL0     O13643   0.298   7.808   7.345  0.0210 -0.4437 -0.1231
  102MOL0     C13644   0.225   7.930   7.327 -0.2950 -0.2220  1.1874
  102MOL0     C13645   0.134   7.941   7.443 -0.8836  0.3367  0.1307
  102MOL0     C13646   0.085   8.086   7.462  0.2315 -0.0397  0.1727
  102MOL0     C13647   0.125   8.139   7.607 -0.0224  0.2451  0.4395
  102MOL0     C13648   0.025   8.101   7.718  0.0696  0.1437 -0.0770
  102MOL0     C13649   0.069   8.173   7.841 -0.6619 -0.6823 -0.1897
  102MOL0     C13650  -0.024   8.150   7.955  0.2853 -0.0642  0.1537
  102MOL0     C13651   0.033   8.217   8.084  0.3301 -0.0353  0.3713
  102MOL0     N13652   0.075   8.349   8.056  0.4866  0.1970 -0.4560
  102MOL0     C13653   0.201   8.392   8.015 -0.1655 -0.4670  0.9500
  102MOL0     C13654   0.183   8.526   7.997 -0.6638  0.1743 -0.7454
  102MOL0     C13655   0.288   8.628   7.949 -0.2032  0.1845 -0.0868
  102MOL0     C13656   0.420   8.619   8.037  0.6455  0.2471  0.3633
  102MOL0     C13657   0.381   8.668   8.177 -0.3825 -0.1759 -0.4752
  102MOL0     C13658   0.504   8.691   8.263 -0.1703 -0.7143 -0.0354
  102MOL0     O13659   0.567   8.561   8.268  0.0406 -0.9972  0.7265
  102MOL0     C13660   0.694   8.555   8.320  0.2261 -0.0712  0.4783
  102MOL0     C13661   0.765   8.666   8.382 -0.0327  0.3155  0.4445
  102MOL0     C13662   0.900   8.649   8.409  0.4171 -0.7288  0.2879
  102MOL0     C13663   0.965   8.527   8.388  0.9503 -0.5930  0.5793
  102MOL0     C13664   1.099   8.506   8.435  0.2883 -0.3488  0.6869
  102MOL0     O13665   1.177   8.622   8.433 -0.1673  1.0057 -0.1282
  102MOL0     C13666   1.300   8.600   8.483  0.0247  0.3689 -0.3286
  102MOL0     C13667   1.409   8.562   8.399 -0.2796  0.0930  0.0402
  102MOL0     C13668   1.539   8.528   8.447 -0.2800 -0.3807  0.8549
  102MOL0     C13669   1.551   8.544   8.586 -0.5400  0.4833 -1.0340
  102MOL0     O13670   1.677   8.537   8.652 -0.0460 -0.7271  0.1670
  102MOL0     C13671   1.787   8.487   8.569  0.2532 -0.3823  0.3836
  102MOL0     C13672   1.916   8.482   8.648 -0.2993 -0.5548  0.1944
  102MOL0     C13673   1.930   8.377   8.752 -1.0307  0.3120 -0.0644
  102MOL0     C13674   1.989   8.260   8.689 -0.1888  0.3639  0.1905
  102MOL0     C13675   1.974   8.149   8.790  0.1234  0.3982 -1.1397
  102MOL0     C13676   2.041   8.025   8.725 -0.1295 -0.1297 -1.0502
  102MOL0     C13677   2.039   7.908   8.826  0.2673 -0.6610 -0.7527
  102MOL0     C13678   2.155   7.820   8.792  0.1176  0.0925 -1.0296
  102MOL0    Cl13679   2.125   7.756   8.624  0.2047 -0.2564  0.2994
  102MOL0     C13680   1.450   8.584   8.670  1.0417  0.4072  0.0062
  102MOL0     C13681   1.323   8.622   8.619  0.0803  0.2922  0.1920
  102MOL0     O13682   1.138   8.395   8.461 -0.0783  0.1858 -0.0091
  102MOL0     C13683   0.890   8.425   8.329  0.9824 -0.5096 -0.2938
  102MOL0     C13684   0.758   8.438   8.286 -0.4511  0.4547  0.0462
  102MOL0     N13685   0.045   8.547   8.027  1.1227 -0.8489 -0.3048
  102MOL0     N13686  -0.018   8.438   8.060  1.1305  0.1178  0.0273
  102MOL0     C13687   0.306   7.779   7.102  0.1253 -1.0082 -0.5459
  102MOL0     C13688   0.378   7.734   6.990  0.4470  0.7236  0.4249
  102MOL0     C13689   0.639   7.488   6.719  0.3961  0.4148  0.9048
  102MOL0     C13690   0.683   7.596   6.643  0.6566 -0.3897 -0.0528
  102MOL0     C13691   0.736   7.589   6.514 -0.8466 -0.4477  0.1223
  102MOL0     C13692   0.738   7.465   6.449 -0.5836 -0.2719  1.0955
  102MOL0     O13693   0.776   7.460   6.318  0.5949  0.1154 -0.3387
  102MOL0     C13694   0.843   7.342   6.265 -0.7002 -0.0249  0.0657
  102MOL0     C13695   0.976   7.328   6.333  0.5453 -0.2101 -0.9284
  102MOL0     C13696   1.078   7.443   6.307  0.5902  0.2981  0.5429
  102MOL0     C13697   1.221   7.390   6.287  0.1935 -0.4322  0.6058
  102MOL0     C13698   1.275   7.351   6.420  0.2413 -0.2593  0.8154
  102MOL0     C13699   1.307   7.332   6.534  0.4101  0.2376  0.0330
  102MOL0     C13700   0.679   7.359   6.517 -0.1117  0.1382  1.7102
  102MOL0     C13701   0.647   7.356   6.654 -0.3286  0.3864  0.8099
  102MOL0     C13702   0.627   7.228   6.713  0.0358 -0.7474  0.5476
  102MOL0     H13703   0.644   7.598   7.142 -0.3459 -1.6121 -0.0832
  102MOL0     H13704   0.510   7.653   7.349 -3.9793  1.0758  0.6424
  102MOL0     H13705   0.289   8.019   7.323  2.8604 -2.3579 -1.5888
  102MOL0     H13706   0.156   7.928   7.242  1.1977 -3.2910 -0.0881
  102MOL0     H13707   0.185   7.914   7.535  0.6908  1.3936 -0.3941
  102MOL0     H13708   0.053   7.869   7.427 -0.1050 -1.0408  2.1207
  102MOL0     H13709  -0.023   8.083   7.447  0.4830 -0.8930 -1.8578
  102MOL0     H13710   0.126   8.154   7.386 -0.2692  0.1083  0.0328
  102MOL0     H13711   0.227   8.113   7.638  0.9804  1.6847 -1.4239
  102MOL0     H13712   0.111   8.247   7.598  3.5953  0.8755  0.7193
  102MOL0     H13713  -0.077   8.124   7.685  0.1520  1.9463  0.8295
  102MOL0     H13714   0.038   7.993   7.729 -1.3025 -0.1075 -0.6918
  102MOL0     H13715   0.171   8.142   7.863  0.4904  0.8125 -2.8770
  102MOL0     H13716   0.060   8.278   7.811 -1.3864 -0.4478  0.8125
  102MOL0     H13717  -0.033   8.043   7.974 -5.2499 -0.5105 -2.9151
  102MOL0     H13718  -0.125   8.190   7.940 -1.3523 -4.0501 -0.7112
  102MOL0     H13719  -0.041   8.205   8.164  2.2717 -1.8178  2.0272
  102MOL0     H13720   0.125   8.169   8.117  0.5152  0.1257  0.0874
  102MOL0     H13721   0.290   8.332   8.006  0.5734  0.6166  0.7837
  102MOL0     H13722   0.312   8.597   7.847  0.5131  1.3873 -0.3056
  102MOL0     H13723   0.252   8.731   7.953 -0.1635  0.1938  3.5847
  102MOL0     H13724   0.463   8.518   8.034 -2.4115 -1.1659 -0.8041
  102MOL0     H13725   0.495   8.680   7.986  1.8299 -1.0797  0.4495
  102MOL0     H13726   0.317   8.590   8.219 -0.5962 -0.5038 -1.3911
  102MOL0     H13727   0.310   8.752   8.183  0.3915  0.4095  1.1402
  102MOL0     H13728   0.482   8.730   8.363 -0.8084  3.8197 -1.6872
  102MOL0     H13729   0.565   8.768   8.214 -0.6713 -1.2678 -1.6026
  102MOL0     H13730   0.710   8.759   8.391  0.9099  0.9491 -0.1151
  102MOL0     H13731   0.952   8.731   8.457 -1.9142  0.0103  1.7518
  102MOL0     H13732   1.389   8.559   8.292 -2.8856  0.0688  0.4702
  102MOL0     H13733   1.622   8.520   8.377 -1.5506 -0.8466 -0.6506
  102MOL0     H13734   1.769   8.384   8.537 -2.1332  0.4355 -1.1534
  102MOL0     H13735   1.810   8.560   8.491 -0.0510  1.6329  2.0750
  102MOL0     H13736   2.002   8.474   8.582  0.2013 -0.1685  0.7951
  102MOL0     H13737   1.920   8.580   8.696 -0.7908 -0.3366 -0.1940
  102MOL0     H13738   2.002   8.419   8.824 -0.1583  0.4277 -0.9753
  102MOL0     H13739   1.838   8.345   8.802 -1.3103  2.0562  0.6200
  102MOL0     H13740   2.093   8.286   8.669 -0.6108  3.0857  1.1314
  102MOL0     H13741   1.941   8.232   8.594 -2.7922  1.0827  1.1991
  102MOL0     H13742   1.871   8.116   8.807  0.2662  0.4881 -0.0043
  102MOL0     H13743   2.016   8.183   8.885 -1.7819 -1.7002  0.5709
  102MOL0     H13744   1.982   7.989   8.640 -3.3804 -4.1833  2.4463
  102MOL0     H13745   2.132   8.066   8.681  0.4964 -0.6929 -0.2983
  102MOL0     H13746   1.940   7.863   8.813 -1.7326  3.0561  0.3092
  102MOL0     H13747   2.049   7.953   8.925  1.5649  2.7449 -2.3011
  102MOL0     H13748   2.253   7.868   8.789 -0.1026  0.6752  0.2339
  102MOL0     H13749   2.170   7.743   8.869  1.2603  0.6221 -0.6956
  102MOL0     H13750   1.457   8.593   8.778 -2.1399  0.0179  0.3657
  102MOL0     H13751   1.243   8.661   8.680  0.3418  1.9125 -0.4497
  102MOL0     H13752   0.927   8.323   8.314  0.9270 -0.8215  1.4452
  102MOL0     H13753   0.699   8.358   8.242 -0.9426  0.0518  1.3828
  102MOL0     H13754   0.218   7.840   7.083 -0.5240 -0.8288  2.5623
  102MOL0     H13755   0.354   7.763   6.889  0.6908  0.6399  0.3421
  102MOL0     H13756   0.672   7.695   6.686 -2.6311 -1.2037  1.2965
  102MOL0     H13757   0.769   7.686   6.478 -1.6242  1.4282  3.8974
  102MOL0     H13758   0.856   7.350   6.157 -0.0884 -1.0498  0.0426
  102MOL0     H13759   0.790   7.248   6.284  0.9561 -0.6505  2.0792
  102MOL0     H13760   1.030   7.238   6.301 -0.1417 -1.7050  1.7486
  102MOL0     H13761   0.955   7.318   6.440 -1.3940  3.6973 -0.7704
  102MOL0     H13762   1.082   7.506   6.396  0.2840 -0.2901  0.9744
  102MOL0     H13763   1.044   7.504   6.223 -0.1733 -0.4304  0.3030
  102MOL0     H13764   1.233   7.300   6.225 -2.0087 -2.6420  3.1170
  102MOL0     H13765   1.286   7.467   6.245  1.9285 -3.0418 -1.9578
  102MOL0     H13766   1.356   7.320   6.628 -3.4587  1.7146  2.5054
  102MOL0     H13767   0.688   7.263   6.468  1.9466  0.5999  1.0703
  102MOL0     H13768   0.665   7.147   6.649 -0.9777 -0.0398 -1.0119
  102MOL0     H13769   0.675   7.211   6.810  2.7043 -0.2935 -0.6007
  102MOL0     H13770   0.519   7.212   6.722 -0.2802  0.6693 -0.3986
  103MOL0     O13771  10.113   2.206  11.348 -0.3628 -0.8023 -0.6876
  103MOL0     C13772  10.001   2.207  11.294 -0.3506 -0.1749  0.2289
  103MOL0     O13773   9.894   2.277  11.349 -0.1341  0.0444 -0.8965
  103MOL0     C13774   9.926   2.346  11.465  0.3854  0.1332  0.1353
  103MOL0     C13775   9.888   2.291  11.592 -1.3336  0.0806  0.0397
  103MOL0     C13776   9.914   2.362  11.715  0.3017 -0.0679 -0.4029
  103MOL0     C13777   9.986   2.480  11.707 -0.2286 -0.0162  0.2461
  103MOL0     O13778   9.988   2.561  11.814 -0.5073  0.7874 -0.0025
  103MOL0     C13779   9.892   2.668  11.802  0.1145  0.3883 -0.1727
  103MOL0     C13780   9.854   2.710  11.947  0.0951 -0.4112  0.3948
  103MOL0     C13781   9.738   2.631  12.003 -0.1621 -0.4000  0.2569
  103MOL0     C13782   9.717   2.645  12.154  0.4527  0.2194 -0.0496
  103MOL0     C13783   9.692   2.794  12.186 -0.4359  0.0419  0.9640
  103MOL0     C13784   9.686   2.824  12.339 -0.3630  0.6183  0.2357
  103MOL0     C13785   9.679   2.974  12.371  0.4523  0.6388 -0.5620
  103MOL0     C13786   9.692   3.001  12.520 -0.3624  0.0238 -0.6338
  103MOL0     N13787   9.595   2.922  12.601  0.1055  0.6919  0.3117
  103MOL0     C13788   9.466   2.970  12.623  0.6693  0.6321  0.1042
  103MOL0     C13789   9.417   2.873  12.703  0.7845 -0.0931 -0.2052
  103MOL0     C13790   9.282   2.870  12.779  0.0772 -1.2639 -0.0985
  103MOL0     C13791   9.158   2.841  12.680  0.0711  0.0878 -0.3323
  103MOL0     C13792   9.100   2.968  12.611 -0.7795  1.4553 -0.8703
  103MOL0     C13793   9.012   3.047  12.705  0.9036  0.0208  0.3078
  103MOL0     O13794   8.947   3.136  12.609  0.0185 -0.1680 -0.2573
  103MOL0     C13795   8.915   3.261  12.657  0.3277 -0.0071  0.6572
  103MOL0     C13796   8.965   3.372  12.592  1.3121  0.3804 -0.4363
  103MOL0     C13797   8.928   3.503  12.633 -0.4094  1.1431  0.7435
  103MOL0     C13798   8.854   3.532  12.747 -0.0035  0.4885  0.4330
  103MOL0     C13799   8.828   3.667  12.779 -0.2163 -0.6555  0.4908
  103MOL0     O13800   8.754   3.682  12.897 -0.1812  0.3607  0.3906
  103MOL0     C13801   8.704   3.807  12.918 -0.3021  0.1109 -0.1759
  103MOL0     C13802   8.598   3.840  12.831 -0.4718 -0.1393  0.2677
  103MOL0     C13803   8.549   3.969  12.829 -0.4166  0.4109 -0.0162
  103MOL0     C13804   8.607   4.067  12.910 -0.3675  0.3636  0.0031
  103MOL0     O13805   8.569   4.200  12.903  0.0428 -0.2446  0.7071
  103MOL0     C13806   8.444   4.208  12.980 -0.9622  0.0605  0.3362
  103MOL0     C13807   8.441   4.355  13.025  0.0624  0.3607 -0.0057
  103MOL0     C13808   8.310   4.391  13.110  0.2663  0.1246  0.0237
  103MOL0     C13809   8.221   4.478  13.029  0.7012  0.0029  0.5586
  103MOL0     C13810   8.077   4.504  13.094  1.0498 -0.2924 -0.0002
  103MOL0     C13811   8.017   4.632  13.048  0.5265  0.4652  0.5787
  103MOL0     C13812   7.891   4.664  13.126  0.0371  0.4369  0.4909
  103MOL0     C13813   7.823   4.785  13.068  0.4052 -0.2159 -0.3925
  103MOL0    Cl13814   7.648   4.753  13.074  0.2087 -0.3179 -0.0382
  103MOL0     C13815   8.706   4.032  12.990  0.5222  0.8146 -0.1551
  103MOL0     C13816   8.758   3.903  12.998 -0.2927  0.4342 -0.3094
  103MOL0     O13817   8.870   3.756  12.707 -0.3400 -0.7868  0.0803
  103MOL0     C13818   8.802   3.418  12.819 -0.1167 -0.2071 -0.6428
  103MOL0     C13819   8.835   3.290  12.770  0.2530  0.9779 -0.6403
  103MOL0     N13820   9.512   2.778  12.730 -0.2685  0.5035 -0.5798
  103MOL0     N13821   9.615   2.797  12.654  0.6118  0.3963 -0.1229
  103MOL0     C13822  10.026   2.534  11.583 -0.3242  0.5770 -1.4000
  103MOL0     C13823   9.995   2.467  11.470 -0.9748  0.3748  0.4484
  103MOL0     C13824   9.967   2.127  11.168 -1.2092 -0.4383 -0.1985
  103MOL0     C13825  10.049   2.133  11.054  1.0416 -0.6345  0.8133
  103MOL0     C13826  10.013   2.088  10.926 -0.8731  0.9610  0.7207
  103MOL0     C13827   9.886   2.029  10.904  0.2790 -0.2331 -0.8845
  103MOL0     O13828   9.850   2.010  10.773 -0.1727 -0.5697  0.3330
  103MOL0     C13829   9.753   1.901  10.755  0.1918  0.4384 -0.1017
  103MOL0     C13830   9.751   1.835  10.610  0.5934 -0.2429  0.1683
  103MOL0     C13831   9.866   1.732  10.573  0.2212  0.0820 -0.9934
  103MOL0     C13832   9.993   1.821  10.579 -0.3076  0.0223 -0.1803
  103MOL0     C13833  10.094   1.756  10.500  0.3588  0.6580 -0.2019
  103MOL0     C13834  10.176   1.692  10.434  0.0982 -1.1130  0.1866
  103MOL0     C13835   9.807   2.014  11.024 -0.0078  0.0350  0.2040
  103MOL0     C13836   9.852   2.059  11.148  0.3519  0.4404  0.3572
  103MOL0     C13837   9.753   2.045  11.266  0.4037  0.7986  0.2939
  103MOL0     H13838   9.852   2.189  11.583  2.6143 -1.6094  1.3665
  103MOL0     H13839   9.860   2.332  11.804 -1.3141  2.5042 -0.4269
  103MOL0     H13840   9.935   2.758  11.759 -1.4549 -0.1703 -3.2560
  103MOL0     H13841   9.794   2.649  11.756 -1.0112  0.0747  2.1970
  103MOL0     H13842   9.812   2.811  11.941 -2.0958 -1.3511 -2.6920
  103MOL0     H13843   9.937   2.707  12.018  1.1282  0.3186 -0.7381
  103MOL0     H13844   9.759   2.527  11.979  0.5632  0.2411 -2.1121
  103MOL0     H13845   9.642   2.655  11.956 -0.2079 -0.7553  0.1661
  103MOL0     H13846   9.632   2.588  12.192  1.0054  0.5664  1.8207
  103MOL0     H13847   9.813   2.616  12.198  0.1071 -1.9359 -0.6299
  103MOL0     H13848   9.775   2.850  12.143 -0.9991 -1.0670 -1.8172
  103MOL0     H13849   9.596   2.837  12.157  0.4150  0.6859 -1.0681
  103MOL0     H13850   9.608   2.764  12.386  0.3208  0.0609  0.6846
  103MOL0     H13851   9.777   2.776  12.378 -1.7333 -1.2472  1.3086
  103MOL0     H13852   9.575   3.000  12.349  0.2891  0.0440 -0.5100
  103MOL0     H13853   9.745   3.041  12.316 -0.5198  1.1331 -1.1471
  103MOL0     H13854   9.791   2.973  12.556 -0.9781 -1.6058 -0.1340
  103MOL0     H13855   9.683   3.106  12.550  1.9503 -0.1835  1.0418
  103MOL0     H13856   9.409   3.060  12.599  0.7231  0.1305 -2.1665
  103MOL0     H13857   9.275   2.790  12.854 -0.8677  0.9629  2.3806
  103MOL0     H13858   9.263   2.960  12.839  1.4184 -0.4684 -0.8149
  103MOL0     H13859   9.176   2.761  12.607 -0.0158 -2.7198  2.5072
  103MOL0     H13860   9.082   2.797  12.746  0.1050 -1.9026 -1.5244
  103MOL0     H13861   9.042   2.925  12.529  1.1472 -2.8899 -0.2288
  103MOL0     H13862   9.184   3.026  12.571 -0.7028  0.0310 -2.9017
  103MOL0     H13863   9.062   3.111  12.779 -0.2728  1.6322 -0.2380
  103MOL0     H13864   8.949   2.978  12.761  0.1273  2.2669  2.3780
  103MOL0     H13865   9.032   3.359  12.507  3.4163 -1.8448  1.3910
  103MOL0     H13866   8.970   3.588  12.579  1.3771  0.2289  0.6241
  103MOL0     H13867   8.552   3.771  12.761  0.2264 -0.7839  0.4393
  103MOL0     H13868   8.466   3.988  12.762  0.2339 -1.8278 -1.5563
  103MOL0     H13869   8.364   4.178  12.911 -0.3494  0.1776 -0.4390
  103MOL0     H13870   8.444   4.143  13.067  2.2197 -1.3825 -0.6064
  103MOL0     H13871   8.533   4.362  13.083  1.2551  2.9165 -2.0270
  103MOL0     H13872   8.468   4.417  12.940  1.5255 -1.2009 -0.7448
  103MOL0     H13873   8.263   4.296  13.137 -1.5607  0.7669 -0.7378
  103MOL0     H13874   8.340   4.448  13.198  0.5858  2.9416 -1.8076
  103MOL0     H13875   8.198   4.426  12.935  3.9073 -3.6763  1.5605
  103MOL0     H13876   8.273   4.571  13.002 -2.1440  1.2984 -0.9173
  103MOL0     H13877   8.093   4.512  13.202 -1.4924 -0.0376  0.4232
  103MOL0     H13878   8.009   4.426  13.058  0.0948  0.5944 -0.1568
  103MOL0     H13879   8.080   4.718  13.073 -0.3909  1.8592 -1.6258
  103MOL0     H13880   7.998   4.611  12.942  0.0422 -1.8700  1.0626
  103MOL0     H13881   7.910   4.681  13.233  2.8376  0.7486  0.0193
  103MOL0     H13882   7.828   4.575  13.115  0.1801  0.4382 -0.4062
  103MOL0     H13883   7.837   4.874  13.130 -0.5253 -0.4248  0.1357
  103MOL0     H13884   7.857   4.790  12.965 -0.5394 -1.6768 -0.8039
  103MOL0     H13885   8.750   4.118  13.039 -0.0142  0.9386  0.1088
  103MOL0     H13886   8.825   3.881  13.081 -0.9939  0.0160  0.1574
  103MOL0     H13887   8.745   3.432  12.910 -0.1451  0.6719 -0.7860
  103MOL0     H13888   8.792   3.216  12.837  2.2275  0.0198 -0.3696
  103MOL0     H13889  10.084   2.626  11.575  0.3118  0.3358  0.0048
  103MOL0     H13890  10.027   2.524  11.384  1.2625  0.1753  1.0785
  103MOL0     H13891  10.141   2.191  11.060  0.7376  0.2518 -1.6601
  103MOL0     H13892  10.071   2.092  10.834  0.7653 -2.4960  1.4172
  103MOL0     H13893   9.655   1.944  10.781 -0.2059 -0.1552 -0.5774
  103MOL0     H13894   9.775   1.821  10.826  1.4447  0.3255 -0.6008
  103MOL0     H13895   9.742   1.914  10.535 -0.8154  1.1199  1.7085
  103MOL0     H13896   9.654   1.785  10.605  0.2492  0.3842  0.4816
  103MOL0     H13897   9.848   1.696  10.471  0.1753  2.6099 -1.9455
  103MOL0     H13898   9.873   1.641  10.635 -0.6648  0.2126 -0.6844
  103MOL0     H13899   9.963   1.912  10.526 -0.5890 -1.0885 -1.9891
  103MOL0     H13900  10.031   1.839  10.680 -0.9004 -0.5686  0.1510
  103MOL0     H13901  10.255   1.653  10.373 -1.5854 -0.8139 -2.3647
  103MOL0     H13902   9.710   1.971  11.001 -0.2786  1.5729 -1.7947
  103MOL0     H13903   9.805   2.026  11.360  0.4217 -0.8527 -0.0223
  103MOL0     H13904   9.698   2.140  11.264  2.4698  2.0472 -0.1360
  103MOL0     H13905   9.682   1.962  11.263  2.2404 -0.8544  0.4583
  104MOL0     O13906   5.124   3.779   6.142  0.3255 -0.8875  0.0400
  104MOL0     C13907   5.131   3.875   6.218  0.6591 -0.7284  0.5267
  104MOL0     O13908   5.025   3.937   6.285  0.2426  0.2041 -0.1788
  104MOL0     C13909   4.891   3.894   6.266 -0.4519 -0.7392  0.1103
  104MOL0     C13910   4.796   3.896   6.369  0.1016 -0.3912 -0.0501
  104MOL0     C13911   4.660   3.876   6.344 -0.1433 -0.1796  0.6349
  104MOL0     C13912   4.623   3.850   6.212 -0.5093  0.1176  0.7842
  104MOL0     O13913   4.495   3.843   6.168  0.5183 -0.3611 -0.2444
  104MOL0     C13914   4.382   3.841   6.263  0.1838 -0.1006  0.3287
  104MOL0     C13915   4.341   3.987   6.289 -0.4771  0.9021 -0.9295
  104MOL0     C13916   4.188   3.987   6.325  0.3518 -0.0128 -0.4230
  104MOL0     C13917   4.146   3.897   6.434  0.6565  0.4312 -0.5258
  104MOL0     C13918   4.001   3.915   6.480  0.1731 -0.0815 -0.2132
  104MOL0     C13919   3.977   3.813   6.604  0.3681  0.0262 -0.1924
  104MOL0     C13920   3.830   3.810   6.656 -0.6385 -0.8728  0.3643
  104MOL0     C13921   3.808   3.705   6.763  0.9389 -0.0218 -1.2422
  104MOL0     N13922   3.675   3.717   6.811  0.1045  0.6465  0.7351
  104MOL0     C13923   3.556   3.683   6.748 -0.0144 -0.6017  0.7752
  104MOL0     C13924   3.458   3.741   6.826 -0.3038 -0.1108  0.1177
  104MOL0     C13925   3.300   3.744   6.805 -0.4613 -0.1668  0.2360
  104MOL0     C13926   3.220   3.810   6.921  0.4400 -0.2904 -0.3934
  104MOL0     C13927   3.068   3.820   6.890 -0.5593  0.3084  0.2761
  104MOL0     C13928   2.986   3.895   6.978 -0.1611  0.2099  0.1675
  104MOL0     O13929   3.019   4.037   6.975  0.7616 -0.0428 -0.3821
  104MOL0     C13930   2.997   4.083   6.841  0.1693 -0.4997 -0.4273
  104MOL0     C13931   2.874   4.065   6.780 -0.1015  0.2004 -0.1246
  104MOL0     C13932   2.846   4.102   6.650  0.1904  0.1950  0.5926
  104MOL0     C13933   2.946   4.177   6.584  0.5921  0.2956  0.3789
  104MOL0     C13934   2.923   4.226   6.447  0.6211 -0.4391 -0.5829
  104MOL0     O13935   2.809   4.159   6.386 -0.3115 -0.1701  0.9042
  104MOL0     C13936   2.790   4.205   6.254 -0.0373 -0.8505 -0.2415
  104MOL0     C13937   2.696   4.317   6.230  0.6077 -0.3009  0.8852
  104MOL0     C13938   2.670   4.367   6.090 -0.5264  0.5915  0.3963
  104MOL0     C13939   2.757   4.308   5.989 -0.8750  0.0212  0.3908
  104MOL0     O13940   2.760   4.345   5.859  0.0905  0.8028 -0.5577
  104MOL0     C13941   2.783   4.482   5.821 -0.2661 -0.4315  0.6773
  104MOL0     C13942   2.937   4.511   5.821  0.7319 -0.1285 -0.2683
  104MOL0     C13943   2.960   4.639   5.749 -0.2157  0.0662 -0.3031
  104MOL0     C13944   3.099   4.655   5.690 -0.0492  0.3650  0.6438
  104MOL0     C13945   3.110   4.768   5.595 -0.6154  0.1088  0.6449
  104MOL0     C13946   3.252   4.797   5.546 -1.7217  0.7131 -0.0291
  104MOL0     C13947   3.259   4.924   5.473 -0.0753  0.7243 -0.4478
  104MOL0     C13948   3.397   4.966   5.422  0.0081 -0.0273  0.1138
  104MOL0    Cl13949   3.494   5.016   5.556 -0.1729 -0.1775  0.0054
  104MOL0     C13950   2.853   4.207   6.017 -0.7202  0.5110  0.1570
  104MOL0     C13951   2.870   4.157   6.145 -0.0056 -0.8104  0.2546
  104MOL0     O13952   2.996   4.311   6.391  0.4481  0.0440 -0.1460
  104MOL0     C13953   3.073   4.202   6.644  0.3164 -1.0951  0.7537
  104MOL0     C13954   3.095   4.163   6.771  0.0734 -0.2057 -0.5989
  104MOL0     N13955   3.520   3.808   6.928 -0.4033  0.2286 -0.1215
  104MOL0     N13956   3.647   3.806   6.913  0.4252  0.3544  0.7138
  104MOL0     C13957   4.718   3.842   6.101  0.2108 -0.3902 -0.0020
  104MOL0     C13958   4.854   3.862   6.133 -0.1284 -0.1117  0.5041
  104MOL0     C13959   5.267   3.940   6.230  0.5632  0.1707 -0.7773
  104MOL0     C13960   5.273   4.067   6.289  1.1462  0.1886 -0.7865
  104MOL0     C13961   5.396   4.135   6.284  0.5825  0.1105  1.1014
  104MOL0     C13962   5.510   4.089   6.232  0.0872  0.5342 -0.7259
  104MOL0     O13963   5.620   4.169   6.244 -0.5793  0.3521 -0.0698
  104MOL0     C13964   5.744   4.107   6.189 -0.2997  1.4541 -0.2206
  104MOL0     C13965   5.866   4.211   6.198 -0.1761 -0.0114  0.2058
  104MOL0     C13966   5.826   4.350   6.143  0.6616 -0.5377 -0.4164
  104MOL0     C13967   5.909   4.459   6.212 -0.2893 -0.1822 -0.6545
  104MOL0     C13968   5.878   4.592   6.156  0.1969  0.5552 -0.0927
  104MOL0     C13969   5.838   4.692   6.099 -0.7288 -0.6831 -0.1105
  104MOL0     C13970   5.499   3.955   6.191  0.6087  0.2553  0.5831
  104MOL0     C13971   5.380   3.882   6.183 -1.0020  0.4994 -0.2536
  104MOL0     C13972   5.397   3.749   6.103  0.5810 -1.2763  0.3852
  104MOL0     H13973   4.814   3.915   6.474 -1.6605 -6.2766  1.6832
  104MOL0     H13974   4.589   3.889   6.425  0.0160 -1.1253  0.9305
  104MOL0     H13975   4.300   3.781   6.224 -1.1624  1.4373  0.6817
  104MOL0     H13976   4.411   3.794   6.357  2.9821 -0.6358 -0.7093
  104MOL0     H13977   4.369   4.039   6.196  2.1862 -0.3646 -0.9395
  104MOL0     H13978   4.406   4.032   6.365 -2.6516  0.1600  1.5212
  104MOL0     H13979   4.124   3.954   6.242 -0.9292 -1.6314  1.1243
  104MOL0     H13980   4.159   4.089   6.353 -0.3620 -0.9707  2.6983
  104MOL0     H13981   4.170   3.793   6.410  1.4122  0.3684  0.4125
  104MOL0     H13982   4.211   3.912   6.521 -0.7801 -0.0674  0.6778
  104MOL0     H13983   3.998   4.016   6.522 -1.1185 -0.2644  0.2037
  104MOL0     H13984   3.924   3.902   6.403 -1.0588  0.4740  0.8730
  104MOL0     H13985   3.997   3.712   6.567  0.5630 -0.7837  2.0056
  104MOL0     H13986   4.050   3.840   6.681  2.4147 -0.1634 -1.9544
  104MOL0     H13987   3.763   3.800   6.570 -0.8601  0.4128  0.3671
  104MOL0     H13988   3.799   3.911   6.682 -1.9309 -0.2841 -2.9560
  104MOL0     H13989   3.817   3.612   6.706 -0.4104 -0.3597 -0.9437
  104MOL0     H13990   3.878   3.695   6.846  0.9988  0.3885 -1.2436
  104MOL0     H13991   3.545   3.649   6.646  0.3104 -0.7212  0.7800
  104MOL0     H13992   3.279   3.808   6.720 -2.3309 -0.2410  0.5878
  104MOL0     H13993   3.261   3.644   6.782 -1.4648  0.2905 -0.1070
  104MOL0     H13994   3.241   3.751   7.011  3.2847  2.0675  0.6743
  104MOL0     H13995   3.253   3.913   6.941  0.7495 -0.9381  3.1683
  104MOL0     H13996   3.029   3.719   6.910 -0.7168  0.5087  1.0173
  104MOL0     H13997   3.047   3.838   6.785  1.6294  0.5073 -0.1705
  104MOL0     H13998   3.003   3.860   7.081  1.8185 -0.4589 -0.3382
  104MOL0     H13999   2.882   3.883   6.949 -0.2508  2.4478 -0.6569
  104MOL0     H14000   2.796   4.020   6.841  1.0212  0.4510  1.5600
  104MOL0     H14001   2.748   4.090   6.603  0.6516 -1.7036  0.0374
  104MOL0     H14002   2.641   4.361   6.312  0.3761 -1.6665  1.4975
  104MOL0     H14003   2.592   4.437   6.062  1.4007  3.0058  0.6743
  104MOL0     H14004   2.743   4.503   5.721 -0.3063  0.1603  0.8138
  104MOL0     H14005   2.719   4.542   5.887  0.0926  0.1937  0.4651
  104MOL0     H14006   2.969   4.506   5.926  1.6021 -2.0959 -0.5796
  104MOL0     H14007   2.976   4.420   5.777 -2.7830 -1.3066 -1.3024
  104MOL0     H14008   2.885   4.659   5.672 -2.2816 -2.0703  1.0082
  104MOL0     H14009   2.944   4.713   5.828  0.0136 -3.6160  3.6119
  104MOL0     H14010   3.125   4.558   5.645 -0.4650  0.5300  0.0342
  104MOL0     H14011   3.177   4.665   5.766  0.6373 -2.6971  0.5053
  104MOL0     H14012   3.069   4.853   5.651 -0.4779 -0.0528  0.9980
  104MOL0     H14013   3.051   4.739   5.508  1.7931 -0.2114 -0.9729
  104MOL0     H14014   3.321   4.801   5.631 -1.1085 -3.7940 -0.1000
  104MOL0     H14015   3.304   4.726   5.482  2.7613  1.5188  2.3131
  104MOL0     H14016   3.214   5.001   5.536 -0.0477  0.8162 -0.5402
  104MOL0     H14017   3.191   4.907   5.388  0.1805  0.2852 -0.5686
  104MOL0     H14018   3.443   4.884   5.365  0.8998  0.2343  0.4289
  104MOL0     H14019   3.387   5.050   5.353  2.0005  1.6007  1.6540
  104MOL0     H14020   2.918   4.183   5.934 -0.5842  1.5611 -0.0617
  104MOL0     H14021   2.941   4.077   6.164 -0.7834 -1.2889  1.2437
  104MOL0     H14022   3.142   4.261   6.585 -1.9199 -0.1202 -1.0385
  104MOL0     H14023   3.179   4.196   6.833  0.2012 -0.3785 -0.6798
  104MOL0     H14024   4.686   3.825   5.998  0.4937 -1.0663  0.0161
  104MOL0     H14025   4.927   3.871   6.053  0.2601 -4.3761  0.1421
  104MOL0     H14026   5.181   4.109   6.327  1.0897 -1.6991  1.3581
  104MOL0     H14027   5.393   4.236   6.324 -1.2913  0.0199  1.2640
  104MOL0     H14028   5.731   4.089   6.082 -2.3244  1.3736 -0.0134
  104MOL0     H14029   5.777   4.013   6.233  0.9094  2.1853  0.4727
  104MOL0     H14030   5.952   4.171   6.144  0.0954  0.8043  0.0105
  104MOL0     H14031   5.897   4.231   6.301  2.3756  0.8979 -0.6600
  104MOL0     H14032   5.721   4.362   6.175  0.7347 -0.8136 -0.0630
  104MOL0     H14033   5.843   4.352   6.036  0.5653  1.4264 -0.4390
  104MOL0     H14034   5.885   4.468   6.318  2.5265 -0.5768  0.0735
  104MOL0     H14035   6.015   4.436   6.200 -0.7175 -2.6352 -0.3666
  104MOL0     H14036   5.817   4.781   6.044  1.7355 -1.0284 -1.7939
  104MOL0     H14037   5.582   3.905   6.142  1.4057  0.6156  1.5254
  104MOL0     H14038   5.367   3.787   6.005  2.7367  0.6257  0.3746
  104MOL0     H14039   5.498   3.708   6.092  1.3010  0.7643 -1.0939
  104MOL0     H14040   5.334   3.665   6.135  1.4476 -2.6623 -1.3351
  105MOL0     O14041   8.938   5.321   1.264 -0.8124  0.3135 -1.0701
  105MOL0     C14042   8.951   5.216   1.321 -0.4068 -0.9983  0.0240
  105MOL0     O14043   9.048   5.127   1.296  0.3266  0.0138 -0.3097
  105MOL0     C14044   9.144   5.157   1.207 -0.7531  0.3570 -0.0255
  105MOL0     C14045   9.106   5.167   1.073 -0.8779  0.0571 -0.2946
  105MOL0     C14046   9.195   5.206   0.968  0.3922 -0.0396  0.3622
  105MOL0     C14047   9.330   5.232   0.999 -1.0340 -1.1261 -0.5589
  105MOL0     O14048   9.422   5.265   0.912  0.0136  0.2741 -0.6275
  105MOL0     C14049   9.367   5.334   0.797 -0.1562 -0.1239 -0.1093
  105MOL0     C14050   9.473   5.392   0.697  0.8415 -0.5856  0.2117
  105MOL0     C14051   9.409   5.419   0.557  0.5337 -0.0332 -0.4636
  105MOL0     C14052   9.493   5.502   0.463 -0.4796  1.0368 -0.8230
  105MOL0     C14053   9.440   5.531   0.319 -0.3144  0.1444 -0.5430
  105MOL0     C14054   9.513   5.430   0.212  0.0551 -0.5377  0.1341
  105MOL0     C14055   9.449   5.409   0.080  0.3687 -1.0226  0.6725
  105MOL0     C14056   9.325   5.333   0.094 -0.2525  0.1414  0.2424
  105MOL0     N14057   9.360   5.194   0.094  1.1583 -0.3230 -0.9064
  105MOL0     C14058   9.421   5.132  -0.010 -0.3618  1.1267  0.0315
  105MOL0     C14059   9.431   5.001   0.017 -0.4477 -0.1068 -0.6589
  105MOL0     C14060   9.487   4.888  -0.067 -0.0203 -0.0150  0.6804
  105MOL0     C14061   9.621   4.942  -0.130  0.4238  0.9580 -0.0568
  105MOL0     C14062   9.705   4.816  -0.177 -0.3136  0.4634 -0.0415
  105MOL0     C14063   9.855   4.846  -0.183  0.0168  0.0702  0.6327
  105MOL0     O14064   9.890   4.949  -0.277  1.0328 -0.3229  0.3799
  105MOL0     C14065  10.013   4.998  -0.291 -0.2407 -0.1925 -0.1440
  105MOL0     C14066  10.122   4.966  -0.201  0.3408 -0.5592 -0.2806
  105MOL0     C14067  10.238   5.044  -0.202 -0.3017  0.2639 -0.4345
  105MOL0     C14068  10.272   5.134  -0.303 -0.1237  0.3969 -1.0410
  105MOL0     C14069  10.406   5.187  -0.325  0.0412 -0.5079 -0.5669
  105MOL0     O14070  10.505   5.142  -0.239  0.1674  0.2269 -0.1465
  105MOL0     C14071  10.632   5.192  -0.258 -0.6671  0.1323 -0.3616
  105MOL0     C14072  10.707   5.175  -0.371 -0.1721  0.2841  0.6191
  105MOL0     C14073  10.840   5.227  -0.378  0.2381  0.1866 -0.7100
  105MOL0     C14074  10.892   5.305  -0.267  0.7762  0.2674 -0.3673
  105MOL0     O14075  11.020   5.350  -0.263  0.0570 -0.0621  0.6857
  105MOL0     C14076  11.051   5.442  -0.361  1.2136 -1.0938  0.8100
  105MOL0     C14077  11.192   5.491  -0.332  0.6940 -0.5630  0.3638
  105MOL0     C14078  11.231   5.614  -0.412  0.5320 -0.3649 -0.0678
  105MOL0     C14079  11.243   5.598  -0.563  0.9129  0.8725  0.3984
  105MOL0     C14080  11.272   5.740  -0.633  0.2840 -0.4959 -1.3659
  105MOL0     C14081  11.266   5.719  -0.787 -0.6292 -0.9149  0.0059
  105MOL0     C14082  11.123   5.721  -0.836 -0.7629 -0.0262 -0.4651
  105MOL0     C14083  11.120   5.784  -0.979 -0.0132 -0.4651  0.1768
  105MOL0    Cl14084  10.968   5.839  -1.022 -0.7007  0.0807  0.2526
  105MOL0     C14085  10.811   5.322  -0.154  0.8058 -0.5110  0.0572
  105MOL0     C14086  10.681   5.269  -0.151  0.1023 -0.4223 -0.7389
  105MOL0     O14087  10.426   5.242  -0.432  0.1722  0.3224  0.6359
  105MOL0     C14088  10.173   5.167  -0.393  0.9383  0.1626  0.6612
  105MOL0     C14089  10.045   5.104  -0.378  0.3647  0.7833 -0.1652
  105MOL0     N14090   9.355   4.985   0.127 -0.9546 -0.2828  0.1098
  105MOL0     N14091   9.317   5.095   0.179  0.4158 -0.1776  0.1654
  105MOL0     C14092   9.361   5.234   1.138 -0.7687  0.2369  0.1656
  105MOL0     C14093   9.273   5.193   1.236 -1.1078 -0.7968 -0.7144
  105MOL0     C14094   8.864   5.214   1.441 -0.1017  1.1494 -0.2269
  105MOL0     C14095   8.750   5.292   1.447 -0.1800  0.5458  0.2372
  105MOL0     C14096   8.661   5.286   1.554 -0.3865  0.0673  0.9408
  105MOL0     C14097   8.677   5.192   1.654 -1.0285 -0.0479 -0.6204
  105MOL0     O14098   8.600   5.187   1.767  0.6242  0.2413  0.3837
  105MOL0     C14099   8.494   5.284   1.798  0.7297 -0.3990  0.3469
  105MOL0     C14100   8.413   5.229   1.917  0.2239 -0.3280  0.3162
  105MOL0     C14101   8.291   5.311   1.938  0.4356 -0.1513 -0.7355
  105MOL0     C14102   8.169   5.245   1.863  0.3715  0.1954 -0.6088
  105MOL0     C14103   8.138   5.111   1.910 -0.5680 -0.2622 -0.8144
  105MOL0     C14104   8.109   5.003   1.955 -0.1172 -0.2393  0.2676
  105MOL0     C14105   8.800   5.115   1.653  1.1888 -0.3648  0.5834
  105MOL0     C14106   8.889   5.125   1.549 -0.2365  0.5802 -0.0893
  105MOL0     C14107   9.025   5.055   1.585 -0.7400  0.4343 -0.0234
  105MOL0     H14108   9.003   5.146   1.047 -1.2649  2.5014 -0.9957
  105MOL0     H14109   9.166   5.206   0.863  3.7570 -1.7492 -0.7179
  105MOL0     H14110   9.304   5.265   0.739 -0.6048  0.8650 -0.8234
  105MOL0     H14111   9.300   5.413   0.831  0.3303 -0.9357  3.0295
  105MOL0     H14112   9.536   5.304   0.686  1.1630 -0.2838 -0.3899
  105MOL0     H14113   9.519   5.485   0.732  0.5213 -0.5164  0.4579
  105MOL0     H14114   9.307   5.458   0.557  1.1226  1.9929 -4.2859
  105MOL0     H14115   9.397   5.315   0.524 -1.4088  0.7718 -2.6168
  105MOL0     H14116   9.517   5.599   0.507 -1.2335  0.4505  0.9800
  105MOL0     H14117   9.592   5.457   0.449 -0.1582  1.8123 -1.1134
  105MOL0     H14118   9.332   5.517   0.314 -0.1716 -2.6226  1.6749
  105MOL0     H14119   9.456   5.636   0.294 -0.5609  0.9019  2.1923
  105MOL0     H14120   9.608   5.480   0.194 -1.4043  1.7196 -1.8872
  105MOL0     H14121   9.531   5.328   0.247  5.2729 -1.1831 -3.3912
  105MOL0     H14122   9.517   5.361   0.009 -2.2355 -2.3741 -1.0636
  105MOL0     H14123   9.421   5.505   0.035 -0.9475 -2.1574 -1.0357
  105MOL0     H14124   9.261   5.352   0.181 -1.9718 -0.4483 -0.8338
  105MOL0     H14125   9.261   5.358   0.009  1.6116  4.1282 -0.1946
  105MOL0     H14126   9.446   5.173  -0.107 -0.1896 -0.3204 -0.5555
  105MOL0     H14127   9.499   4.800  -0.004 -0.4584 -0.7157 -0.1897
  105MOL0     H14128   9.423   4.848  -0.146  0.7544  0.8402 -0.4072
  105MOL0     H14129   9.614   5.005  -0.219 -3.9262  1.2904  0.2908
  105MOL0     H14130   9.690   4.987  -0.059 -0.6087  3.2746 -0.4189
  105MOL0     H14131   9.667   4.780  -0.273  0.8617 -0.0093 -0.3472
  105MOL0     H14132   9.688   4.738  -0.102 -2.8538  1.3718  0.4085
  105MOL0     H14133   9.903   4.759  -0.228 -2.0323 -1.0698  0.5374
  105MOL0     H14134   9.897   4.860  -0.083  1.3945 -1.3308  0.2840
  105MOL0     H14135  10.100   4.892  -0.125 -2.8716 -0.4633 -0.9432
  105MOL0     H14136  10.311   5.027  -0.123  1.6047  2.5231 -1.5960
  105MOL0     H14137  10.662   5.119  -0.452  1.0966 -2.1335  1.5118
  105MOL0     H14138  10.904   5.209  -0.464  0.1950  3.4596 -1.5580
  105MOL0     H14139  11.045   5.414  -0.467 -0.3090 -0.0261  0.5775
  105MOL0     H14140  10.978   5.523  -0.351 -0.4164 -2.4592  0.6247
  105MOL0     H14141  11.198   5.514  -0.225  0.8692 -0.2157  0.2785
  105MOL0     H14142  11.260   5.407  -0.345 -0.7894 -1.5384 -1.7140
  105MOL0     H14143  11.146   5.679  -0.388 -1.2648 -1.8237 -2.0505
  105MOL0     H14144  11.333   5.649  -0.394  0.4371  1.7730 -3.0184
  105MOL0     H14145  11.154   5.545  -0.600  1.7868 -0.3537 -0.0037
  105MOL0     H14146  11.325   5.531  -0.591 -1.0817 -2.0046  0.8745
  105MOL0     H14147  11.375   5.761  -0.601  0.5108 -4.0354  0.8351
  105MOL0     H14148  11.209   5.818  -0.589  0.0110 -3.3270  4.1452
  105MOL0     H14149  11.322   5.804  -0.828 -2.5674 -0.7349 -2.5426
  105MOL0     H14150  11.327   5.634  -0.821  1.5085  0.8673 -0.8564
  105MOL0     H14151  11.060   5.781  -0.770  1.3978  0.6630  1.1156
  105MOL0     H14152  11.089   5.618  -0.838  2.2367 -1.2603  2.2689
  105MOL0     H14153  11.190   5.868  -0.979  1.5270 -1.6820 -0.9062
  105MOL0     H14154  11.154   5.708  -1.050 -3.6453 -3.1478  1.0415
  105MOL0     H14155  10.858   5.371  -0.070  0.0896 -0.2271  0.3047
  105MOL0     H14156  10.615   5.278  -0.065 -0.0413 -2.9430 -0.5161
  105MOL0     H14157  10.178   5.246  -0.467 -0.4774 -2.3681 -2.3533
  105MOL0     H14158   9.959   5.128  -0.440 -1.3741 -4.3835 -0.1892
  105MOL0     H14159   9.460   5.264   1.170 -0.9103  0.4820  0.3772
  105MOL0     H14160   9.295   5.186   1.342  0.3541  0.2781 -0.9262
  105MOL0     H14161   8.719   5.366   1.373  1.4655  3.0076  1.8423
  105MOL0     H14162   8.576   5.354   1.553 -1.0605 -0.7663  0.5249
  105MOL0     H14163   8.435   5.306   1.708  2.4525 -1.8516 -1.2090
  105MOL0     H14164   8.548   5.377   1.816 -0.4792  0.0370  1.9889
  105MOL0     H14165   8.474   5.238   2.007  0.0746 -1.8649  0.5969
  105MOL0     H14166   8.388   5.123   1.922  0.8270 -0.5842 -1.3605
  105MOL0     H14167   8.318   5.414   1.912  1.8840 -0.4163 -0.3604
  105MOL0     H14168   8.262   5.302   2.044  0.7424 -0.2574 -0.6621
  105MOL0     H14169   8.083   5.306   1.895  2.1939  3.2513 -1.1267
  105MOL0     H14170   8.186   5.254   1.755  0.1799 -0.5829 -0.7074
  105MOL0     H14171   8.077   4.913   2.003 -1.9973  0.8043  1.0511
  105MOL0     H14172   8.812   5.055   1.743 -2.8144  1.5148  2.6456
  105MOL0     H14173   9.067   5.007   1.497  1.6632  0.4119  1.0634
  105MOL0     H14174   9.104   5.122   1.620  1.0247 -1.7927  0.5441
  105MOL0     H14175   9.016   4.978   1.663  0.8842 -1.2415 -1.3885
  106MOL0     O14176   8.246   1.246   1.125  0.3536  0.4612  0.5248
  106MOL0     C14177   8.285   1.233   1.009 -0.0023 -0.2878  0.5228
  106MOL0     O14178   8.373   1.129   0.967  0.1788 -0.3922  0.0466
  106MOL0     C14179   8.419   1.041   1.052  1.1691  0.0980  0.2509
  106MOL0     C14180   8.561   1.022   1.074  0.4216  0.1598  0.2895
  106MOL0     C14181   8.602   0.900   1.139  0.4245 -0.0130  0.3840
  106MOL0     C14182   8.511   0.814   1.197 -0.3691  0.4580 -0.4533
  106MOL0     O14183   8.568   0.701   1.259 -0.4041 -0.1417 -0.6967
  106MOL0     C14184   8.488   0.594   1.314  0.4646 -0.8083  1.0691
  106MOL0     C14185   8.572   0.492   1.378 -0.0811 -0.1502 -0.6051
  106MOL0     C14186   8.514   0.353   1.401  0.7575  0.0873 -0.2202
  106MOL0     C14187   8.606   0.248   1.465  0.4824 -0.1054  1.0123
  106MOL0     C14188   8.531   0.114   1.489 -0.4059  0.3123 -1.2763
  106MOL0     C14189   8.641   0.020   1.553 -0.0132  0.6337 -0.2712
  106MOL0     C14190   8.705   0.052   1.681  0.2127  0.4854  0.0957
  106MOL0     C14191   8.593   0.082   1.792  0.1907 -0.0770 -0.2408
  106MOL0     N14192   8.634   0.043   1.925  0.0967 -0.3110  0.1078
  106MOL0     C14193   8.578  -0.059   1.994  0.4187 -0.6822 -1.0807
  106MOL0     C14194   8.650  -0.056   2.109  0.7270  0.0265  0.3056
  106MOL0     C14195   8.614  -0.148   2.219 -0.6950  0.5490 -0.0493
  106MOL0     C14196   8.500  -0.084   2.303 -0.1900  0.0199 -0.5406
  106MOL0     C14197   8.535   0.028   2.399  0.5102 -0.7333 -0.1343
  106MOL0     C14198   8.666   0.019   2.477  0.3904  0.1835  0.4984
  106MOL0     O14199   8.671   0.134   2.563  0.5903 -0.4122 -0.4057
  106MOL0     C14200   8.792   0.150   2.622  0.4105 -0.3866 -0.9024
  106MOL0     C14201   8.890   0.046   2.644  0.1595 -0.7407 -0.3604
  106MOL0     C14202   9.015   0.083   2.700  0.1456 -0.1779 -0.4415
  106MOL0     C14203   9.047   0.219   2.745 -0.0884  1.3673 -0.0505
  106MOL0     C14204   9.176   0.253   2.807  0.4063  0.4730  0.1819
  106MOL0     O14205   9.181   0.353   2.894 -0.8072  0.3824  0.2282
  106MOL0     C14206   9.296   0.367   2.963 -0.8991  0.4869 -0.7929
  106MOL0     C14207   9.433   0.380   2.912 -0.5310  0.4432 -0.2483
  106MOL0     C14208   9.539   0.407   2.997 -0.1951  0.0898  0.0863
  106MOL0     C14209   9.523   0.416   3.139 -0.6017  0.8989 -0.4489
  106MOL0     O14210   9.639   0.449   3.211 -0.0545 -0.2731  1.9007
  106MOL0     C14211   9.625   0.501   3.343  0.4222  0.5558 -0.0926
  106MOL0     C14212   9.719   0.608   3.371 -1.0737  0.3367 -0.2613
  106MOL0     C14213   9.865   0.553   3.366 -0.7343 -0.2666  0.4470
  106MOL0     C14214   9.962   0.650   3.437 -0.6157  0.9217  0.0869
  106MOL0     C14215  10.111   0.615   3.409  0.0179 -0.1801  0.6875
  106MOL0     C14216  10.196   0.720   3.473 -0.4330  0.4227  0.1630
  106MOL0     C14217  10.348   0.676   3.452  0.4898 -0.5914 -0.4884
  106MOL0     C14218  10.448   0.777   3.504 -0.5371  0.0562 -0.2484
  106MOL0    Cl14219  10.445   0.931   3.404  0.0074 -0.1821  0.2673
  106MOL0     C14220   9.395   0.412   3.176  0.2478  0.5905 -1.1725
  106MOL0     C14221   9.286   0.384   3.097 -0.5707 -0.1489 -0.2364
  106MOL0     O14222   9.270   0.179   2.775  0.4666 -0.2159 -0.1870
  106MOL0     C14223   8.957   0.315   2.717 -0.5842 -0.9636  0.0768
  106MOL0     C14224   8.834   0.285   2.660  0.2965  0.2730  0.5000
  106MOL0     N14225   8.740   0.055   2.112 -0.1576  0.1585 -0.2981
  106MOL0     N14226   8.725   0.120   1.996  0.2308  0.5135  1.1182
  106MOL0     C14227   8.372   0.846   1.184 -0.8639  0.6578 -0.4170
  106MOL0     C14228   8.334   0.966   1.125 -1.4110 -0.2605  1.2857
  106MOL0     C14229   8.227   1.326   0.900  0.6915  0.3321  1.0084
  106MOL0     C14230   8.209   1.274   0.773  0.8365 -0.0417 -1.0872
  106MOL0     C14231   8.149   1.355   0.679  0.1208 -0.6421  0.0999
  106MOL0     C14232   8.106   1.481   0.699 -0.0537  0.0645  0.9305
  106MOL0     O14233   8.051   1.539   0.593 -0.5857 -0.0133  0.0977
  106MOL0     C14234   7.980   1.661   0.611 -0.1649  0.0919  0.4080
  106MOL0     C14235   7.888   1.678   0.482  0.5766 -1.0370  0.0211
  106MOL0     C14236   7.846   1.828   0.480 -0.2634  0.2367  0.4872
  106MOL0     C14237   7.734   1.865   0.576  1.0660  0.2717 -0.2272
  106MOL0     C14238   7.625   1.768   0.594  0.9788  0.4598  0.6800
  106MOL0     C14239   7.554   1.668   0.599 -0.2848  0.2518 -0.2163
  106MOL0     C14240   8.131   1.539   0.822  0.8512 -0.2968  0.0091
  106MOL0     C14241   8.188   1.458   0.932  0.2236 -1.3814 -0.5489
  106MOL0     C14242   8.217   1.523   1.066  0.1793  0.5821 -0.1271
  106MOL0     H14243   8.624   1.102   1.037  2.8151 -1.8739 -0.3214
  106MOL0     H14244   8.706   0.879   1.160 -0.2009 -3.4871  0.6063
  106MOL0     H14245   8.418   0.644   1.381 -0.0076  0.4668 -0.3264
  106MOL0     H14246   8.433   0.540   1.236  0.3695 -3.5507  2.8699
  106MOL0     H14247   8.602   0.528   1.477 -0.9449  2.3486 -1.1920
  106MOL0     H14248   8.663   0.482   1.317 -0.4742  0.6817 -1.3507
  106MOL0     H14249   8.469   0.308   1.312  0.8178  1.1513 -0.7993
  106MOL0     H14250   8.429   0.365   1.468  0.7746 -0.1080 -0.1599
  106MOL0     H14251   8.692   0.231   1.399 -0.2246 -3.1645  0.7288
  106MOL0     H14252   8.637   0.278   1.566 -3.0420 -1.0206  2.5209
  106MOL0     H14253   8.445   0.120   1.556  0.2738 -4.2340  0.3301
  106MOL0     H14254   8.489   0.081   1.394 -2.9717 -3.6912  0.9500
  106MOL0     H14255   8.593  -0.075   1.574 -3.1658  2.4915  1.7261
  106MOL0     H14256   8.704  -0.007   1.468 -1.0268  0.3974 -0.9630
  106MOL0     H14257   8.759   0.147   1.680  2.3940 -0.6525 -1.6625
  106MOL0     H14258   8.769  -0.031   1.714 -0.4204  0.0747  0.3019
  106MOL0     H14259   8.572   0.190   1.796  0.0052 -0.1463  1.3182
  106MOL0     H14260   8.505   0.026   1.759  0.3777 -0.3371 -0.3017
  106MOL0     H14261   8.497  -0.128   1.969 -0.5233 -0.5799  1.3658
  106MOL0     H14262   8.589  -0.246   2.177  0.6391  0.3550 -0.4498
  106MOL0     H14263   8.698  -0.158   2.289 -1.1210  0.9789  0.5323
  106MOL0     H14264   8.433  -0.038   2.230  2.4733  0.2083 -3.0247
  106MOL0     H14265   8.445  -0.148   2.372  2.7568 -1.1031  0.9348
  106MOL0     H14266   8.455   0.054   2.469 -0.1401  0.6288 -1.3278
  106MOL0     H14267   8.535   0.118   2.337 -0.1855 -2.3485 -2.6054
  106MOL0     H14268   8.757   0.016   2.417  1.7996 -2.6886  2.5513
  106MOL0     H14269   8.665  -0.078   2.527 -2.4246 -0.3493 -0.3910
  106MOL0     H14270   8.867  -0.057   2.617 -0.4301 -0.3176 -1.5610
  106MOL0     H14271   9.089   0.008   2.728 -0.7523 -0.3562  1.6286
  106MOL0     H14272   9.465   0.384   2.809 -1.1449  2.9145 -0.4132
  106MOL0     H14273   9.635   0.431   2.951 -1.0941  0.1489 -1.8699
  106MOL0     H14274   9.528   0.549   3.358  0.3829  0.3946  0.1783
  106MOL0     H14275   9.640   0.418   3.412 -0.9846  0.0106 -0.4068
  106MOL0     H14276   9.706   0.686   3.295 -1.2925  0.0854 -0.4854
  106MOL0     H14277   9.689   0.647   3.468 -2.8431 -1.2750 -0.1093
  106MOL0     H14278   9.877   0.448   3.396 -2.2658 -1.0454 -1.4574
  106MOL0     H14279   9.898   0.554   3.261  0.4534 -0.9594  0.7820
  106MOL0     H14280   9.925   0.650   3.540 -1.2751 -0.8540 -0.1096
  106MOL0     H14281   9.947   0.754   3.407 -2.8461  1.2463  2.0281
  106MOL0     H14282  10.134   0.604   3.303 -1.4032 -4.5129  0.6141
  106MOL0     H14283  10.119   0.516   3.456 -0.9524 -0.0440  1.1665
  106MOL0     H14284  10.186   0.825   3.444 -1.2490  0.2700 -0.1117
  106MOL0     H14285  10.171   0.717   3.580 -2.4938 -0.9061 -0.3071
  106MOL0     H14286  10.374   0.677   3.346  0.7420 -1.5106 -0.4452
  106MOL0     H14287  10.367   0.579   3.501  1.3733 -0.3361 -0.3057
  106MOL0     H14288  10.438   0.799   3.610 -1.3621 -0.2664 -0.2472
  106MOL0     H14289  10.550   0.743   3.484  0.1673  0.8704  1.7944
  106MOL0     H14290   9.366   0.437   3.278  1.8308 -1.7963 -0.0367
  106MOL0     H14291   9.188   0.374   3.144  0.0397 -2.5984  0.6665
  106MOL0     H14292   8.987   0.417   2.736 -1.2417 -0.8550  0.6118
  106MOL0     H14293   8.769   0.369   2.642  0.1536  1.1445  4.3342
  106MOL0     H14294   8.301   0.770   1.215 -2.5944  2.8113  1.2023
  106MOL0     H14295   8.232   1.002   1.123 -1.6762 -0.9951  1.0345
  106MOL0     H14296   8.235   1.176   0.735  1.4333  0.4807 -2.1117
  106MOL0     H14297   8.127   1.313   0.582  1.5059 -0.5196 -0.2918
  106MOL0     H14298   8.047   1.746   0.622  0.3769 -0.1888 -0.5528
  106MOL0     H14299   7.909   1.651   0.693 -1.7468 -2.7760 -1.1424
  106MOL0     H14300   7.797   1.617   0.477  0.5153 -1.0094  0.7936
  106MOL0     H14301   7.954   1.654   0.398  2.3644 -0.0009  1.0879
  106MOL0     H14302   7.803   1.847   0.381 -1.3175 -1.6441  0.5112
  106MOL0     H14303   7.934   1.892   0.481  1.0517 -1.3606 -1.9695
  106MOL0     H14304   7.765   1.882   0.679 -0.8713 -1.1722  0.6649
  106MOL0     H14305   7.697   1.960   0.536  0.4268 -0.2929 -1.0395
  106MOL0     H14306   7.481   1.590   0.606  2.7402 -2.8193 -0.4894
  106MOL0     H14307   8.085   1.635   0.841 -2.3624 -1.3333 -1.8389
  106MOL0     H14308   8.218   1.631   1.055  0.6499  0.5182 -0.8053
  106MOL0     H14309   8.141   1.506   1.143 -0.5435  2.5614 -0.3637
  106MOL0     H14310   8.318   1.486   1.091 -0.3349 -0.9630 -0.2199
  107MOL0     O14311  10.471   1.772   8.773 -0.7706  0.4568  0.6086
  107MOL0     C14312  10.480   1.867   8.707  0.2467 -0.1947  0.2569
  107MOL0     O14313  10.500   2.002   8.747 -0.3895  0.1456  0.5504
  107MOL0     C14314  10.490   2.032   8.871 -0.2185 -0.0738 -0.6962
  107MOL0     C14315  10.606   2.074   8.935 -0.6124  0.8692  0.4986
  107MOL0     C14316  10.588   2.137   9.061  0.6457  0.2873  0.3898
  107MOL0     C14317  10.465   2.149   9.130 -0.8161  0.0875 -0.6025
  107MOL0     O14318  10.455   2.198   9.262  0.1520  0.3860  0.3419
  107MOL0     C14319  10.535   2.312   9.291  0.3673  0.3825  0.0114
  107MOL0     C14320  10.484   2.388   9.413  0.2498  0.3035  0.4118
  107MOL0     C14321  10.516   2.333   9.554 -0.4994  1.4091  0.3707
  107MOL0     C14322  10.660   2.365   9.589 -0.3224 -0.2118  0.0863
  107MOL0     C14323  10.701   2.347   9.736  0.0278 -0.1745  0.1122
  107MOL0     C14324  10.645   2.211   9.793  0.0892 -0.9196  0.3989
  107MOL0     C14325  10.675   2.195   9.939  0.3202  0.6779  0.4389
  107MOL0     C14326  10.595   2.064   9.993 -0.2752 -0.6382  0.0499
  107MOL0     N14327  10.617   1.955   9.898  0.0865  0.2254  0.0384
  107MOL0     C14328  10.512   1.894   9.832 -0.1819 -0.4021 -0.2680
  107MOL0     C14329  10.560   1.789   9.762  0.6477  0.3574  0.2666
  107MOL0     C14330  10.507   1.693   9.655  0.6049 -0.2528 -0.0349
  107MOL0     C14331  10.558   1.541   9.654 -0.6062 -0.0011 -0.2133
  107MOL0     C14332  10.499   1.460   9.542 -0.1170  0.7448  0.2087
  107MOL0     C14333  10.438   1.326   9.576 -0.2137  0.7629  0.2359
  107MOL0     O14334  10.548   1.251   9.637  0.0411  0.1926 -0.0700
  107MOL0     C14335  10.614   1.146   9.572  0.8766 -0.8041  0.1816
  107MOL0     C14336  10.687   1.047   9.647 -0.0349 -0.5500  0.2166
  107MOL0     C14337  10.761   0.953   9.581  0.2835 -0.1768  0.0397
  107MOL0     C14338  10.755   0.940   9.439 -0.1298  0.0782 -0.0704
  107MOL0     C14339  10.829   0.825   9.367  0.2011 -0.5085 -0.5683
  107MOL0     O14340  10.856   0.711   9.428  0.2850 -0.1450 -0.2808
  107MOL0     C14341  10.916   0.605   9.362 -0.1544  0.5130  0.4978
  107MOL0     C14342  10.995   0.505   9.429 -0.5845 -0.3562  0.3091
  107MOL0     C14343  11.054   0.404   9.350  0.3979  0.8766  0.1184
  107MOL0     C14344  11.029   0.385   9.214  0.6255 -1.2156 -0.4096
  107MOL0     O14345  11.080   0.278   9.152 -0.3875  0.2197  0.2496
  107MOL0     C14346  11.218   0.261   9.154 -0.0369  0.6728 -0.3298
  107MOL0     C14347  11.272   0.139   9.080  1.4618  0.2601 -0.8794
  107MOL0     C14348  11.219  -0.004   9.118 -1.1319 -0.9938 -0.6021
  107MOL0     C14349  11.230  -0.036   9.264  0.5333 -0.0955  0.2243
  107MOL0     C14350  11.174  -0.176   9.302  0.6966 -0.2100  0.0988
  107MOL0     C14351  11.187  -0.190   9.462  0.2814  0.6136 -0.0813
  107MOL0     C14352  11.152  -0.324   9.512  0.0178  0.0751 -0.0110
  107MOL0     C14353  11.163  -0.339   9.662  0.2661  1.0583 -0.0162
  107MOL0    Cl14354  11.069  -0.215   9.742 -0.4865 -0.2122  0.5311
  107MOL0     C14355  10.939   0.469   9.152 -0.6558 -0.3175 -0.0563
  107MOL0     C14356  10.889   0.577   9.218  0.7214  1.4556  0.6005
  107MOL0     O14357  10.880   0.851   9.253  0.6295  0.6278  0.7388
  107MOL0     C14358  10.669   1.026   9.368 -0.8045 -0.2261 -0.6855
  107MOL0     C14359  10.606   1.128   9.435  0.8811  0.9181  0.5307
  107MOL0     N14360  10.694   1.784   9.790 -0.4970  0.0915  0.2094
  107MOL0     N14361  10.731   1.881   9.865 -0.3391 -0.0334 -0.0669
  107MOL0     C14362  10.358   2.093   9.071  0.1167 -0.1116 -0.9715
  107MOL0     C14363  10.365   2.047   8.936  0.1871 -0.7465  0.1906
  107MOL0     C14364  10.478   1.846   8.565  0.1956 -0.5345 -0.3684
  107MOL0     C14365  10.358   1.834   8.501  0.9995 -0.2458  0.1209
  107MOL0     C14366  10.353   1.819   8.361 -0.9458  0.7516  0.6692
  107MOL0     C14367  10.470   1.784   8.287 -0.9001 -0.5231  0.3644
  107MOL0     O14368  10.484   1.767   8.153  0.0759  0.0078 -0.3025
  107MOL0     C14369  10.397   1.838   8.060  1.0663  0.3658 -0.7131
  107MOL0     C14370  10.458   1.846   7.921 -0.1305 -0.2570 -0.0470
  107MOL0     C14371  10.363   1.898   7.819  0.5138  0.0373  0.3964
  107MOL0     C14372  10.440   1.925   7.687  0.4963 -0.0903 -0.6617
  107MOL0     C14373  10.477   1.795   7.622  0.3391  0.5050 -0.3055
  107MOL0     C14374  10.503   1.683   7.591 -0.0911  0.9463  0.4209
  107MOL0     C14375  10.594   1.792   8.361  0.4323 -0.2286  0.5976
  107MOL0     C14376  10.598   1.825   8.493 -0.0767  0.4516  0.0994
  107MOL0     C14377  10.734   1.820   8.557  0.5953  0.7400  0.4144
  107MOL0     H14378  10.706   2.065   8.895  0.0128 -0.7726  2.2585
  107MOL0     H14379  10.678   2.181   9.104  1.7031 -0.6931 -0.7588
  107MOL0     H14380  10.641   2.287   9.300  0.0065 -2.0542 -1.6042
  107MOL0     H14381  10.525   2.380   9.205  0.4523  1.0028  0.4855
  107MOL0     H14382  10.377   2.405   9.405  0.4995  1.9232  0.2232
  107MOL0     H14383  10.522   2.491   9.412 -0.5060  0.5847  0.4017
  107MOL0     H14384  10.515   2.224   9.547 -0.1482  1.5197 -4.0668
  107MOL0     H14385  10.458   2.386   9.630 -2.2611  0.8860 -0.5448
  107MOL0     H14386  10.722   2.305   9.522 -2.3086  0.2722 -2.2969
  107MOL0     H14387  10.675   2.472   9.576 -3.3646  0.4255  0.9784
  107MOL0     H14388  10.810   2.342   9.742  0.1249  2.0386  1.0720
  107MOL0     H14389  10.668   2.434   9.793 -2.0722 -1.6757  1.3355
  107MOL0     H14390  10.538   2.194   9.777 -0.7020 -0.2650  3.9698
  107MOL0     H14391  10.697   2.133   9.736 -2.9212 -3.6119  1.0709
  107MOL0     H14392  10.649   2.285   9.995  2.1607  2.3265 -1.1983
  107MOL0     H14393  10.783   2.182   9.948  0.1901 -4.6205 -1.8857
  107MOL0     H14394  10.649   2.035  10.084  1.8013 -0.1546 -0.9713
  107MOL0     H14395  10.494   2.080  10.032 -0.3932 -1.7928  0.2632
  107MOL0     H14396  10.408   1.921   9.843 -0.3196 -0.9449 -0.1982
  107MOL0     H14397  10.398   1.700   9.660  0.6247  0.0548 -0.0189
  107MOL0     H14398  10.527   1.736   9.556 -0.1370  3.0668  1.1262
  107MOL0     H14399  10.666   1.524   9.650 -0.8931 -1.8183 -1.0339
  107MOL0     H14400  10.524   1.499   9.749  1.0747  1.1764  0.9822
  107MOL0     H14401  10.581   1.438   9.472  0.3585  1.1127  0.6394
  107MOL0     H14402  10.429   1.521   9.485 -1.0919  0.1304  0.7192
  107MOL0     H14403  10.396   1.276   9.488  1.0157  1.5822 -0.8562
  107MOL0     H14404  10.353   1.341   9.643 -2.3179 -0.1987 -2.0802
  107MOL0     H14405  10.678   1.060   9.754 -3.1196  1.4393 -0.1735
  107MOL0     H14406  10.826   0.885   9.635 -2.8406 -2.3841  1.3018
  107MOL0     H14407  11.031   0.532   9.528 -3.8110  1.8765  1.0530
  107MOL0     H14408  11.110   0.332   9.409 -2.7040  0.1013  2.4159
  107MOL0     H14409  11.265   0.336   9.088  1.1007 -2.0240 -2.8237
  107MOL0     H14410  11.258   0.256   9.255  0.0326 -1.3305 -0.4111
  107MOL0     H14411  11.219   0.148   8.984 -2.6388 -0.0480  1.1582
  107MOL0     H14412  11.379   0.131   9.056  1.4289  0.0018 -0.9617
  107MOL0     H14413  11.113   0.012   9.098 -0.9875 -1.0810 -1.4662
  107MOL0     H14414  11.247  -0.082   9.047  2.2646 -0.0775 -0.4618
  107MOL0     H14415  11.180   0.034   9.332  2.2867  0.0995  1.3712
  107MOL0     H14416  11.336  -0.044   9.291  0.3928  1.9910  1.6427
  107MOL0     H14417  11.238  -0.240   9.241  0.4104  0.2643 -0.7194
  107MOL0     H14418  11.070  -0.184   9.269  0.3497  3.4991 -0.0837
  107MOL0     H14419  11.294  -0.183   9.484  0.3209 -2.2814  1.0778
  107MOL0     H14420  11.141  -0.107   9.517 -0.8444 -0.8450  1.3003
  107MOL0     H14421  11.209  -0.406   9.467 -1.7996 -0.7341 -0.9661
  107MOL0     H14422  11.048  -0.336   9.480  0.3802  1.0226 -1.6823
  107MOL0     H14423  11.117  -0.435   9.689 -0.6405  0.7128 -2.5066
  107MOL0     H14424  11.266  -0.339   9.697  0.9899 -0.5301 -1.9929
  107MOL0     H14425  10.935   0.436   9.049 -1.5004 -0.9044  0.1524
  107MOL0     H14426  10.819   0.641   9.166  0.9038  0.5398 -0.8349
  107MOL0     H14427  10.651   1.010   9.262 -0.1815  1.4269 -1.0642
  107MOL0     H14428  10.553   1.189   9.363 -0.7665  0.6641  1.4868
  107MOL0     H14429  10.261   2.099   9.119  0.7456  0.2287  0.3160
  107MOL0     H14430  10.269   2.023   8.892 -0.1846  0.8722  0.0764
  107MOL0     H14431  10.269   1.851   8.562  0.6766  1.3176 -0.7272
  107MOL0     H14432  10.253   1.802   8.324 -0.9281 -1.4804  1.4585
  107MOL0     H14433  10.385   1.941   8.093 -0.2424  0.2574 -0.8183
  107MOL0     H14434  10.299   1.790   8.060  0.2241  1.8221  2.5464
  107MOL0     H14435  10.502   1.749   7.896 -1.0930 -0.4288 -1.1320
  107MOL0     H14436  10.542   1.915   7.927 -0.8458  0.7082 -0.9300
  107MOL0     H14437  10.313   1.988   7.854  2.3266  0.7231  1.3613
  107MOL0     H14438  10.289   1.819   7.801  2.2862 -2.9470  4.5472
  107MOL0     H14439  10.365   1.981   7.630 -0.5224 -0.0937  0.6111
  107MOL0     H14440  10.526   1.992   7.699  0.8001  0.4399 -4.6424
  107MOL0     H14441  10.537   1.584   7.567 -0.7056  1.0919 -1.1899
  107MOL0     H14442  10.690   1.801   8.312 -0.4918  1.0699 -1.0480
  107MOL0     H14443  10.812   1.755   8.516  0.6259  0.2066  1.2788
  107MOL0     H14444  10.775   1.921   8.549  0.1127  0.9770  0.8168
  107MOL0     H14445  10.733   1.779   8.659  2.8300 -1.2596 -0.2811
  108MOL0     O14446   0.662   8.685  10.721 -0.8168  0.1853 -0.4645
  108MOL0     C14447   0.625   8.786  10.669  0.9331 -0.0007  0.3024
  108MOL0     O14448   0.697   8.902  10.653  0.2338  0.4715 -0.0339
  108MOL0     C14449   0.836   8.906  10.678  0.3333  0.1809  0.1707
  108MOL0     C14450   0.887   8.983  10.779 -1.0156  0.0813  0.3859
  108MOL0     C14451   1.027   9.003  10.790 -1.0747  0.2467 -0.3783
  108MOL0     C14452   1.118   8.933  10.698  0.0881  0.3358 -0.3646
  108MOL0     O14453   1.256   8.937  10.704  0.2793 -0.0730 -0.5673
  108MOL0     C14454   1.319   9.052  10.640  0.1611  0.4271 -0.5089
  108MOL0     C14455   1.411   9.004  10.531  0.5001  0.3529  0.0758
  108MOL0     C14456   1.357   8.924  10.410 -0.3706 -0.0842  0.1772
  108MOL0     C14457   1.468   8.900  10.303 -1.0941  0.1891  1.1363
  108MOL0     C14458   1.412   8.891  10.157 -0.7662 -1.1211 -0.9843
  108MOL0     C14459   1.524   8.897  10.050 -0.1617 -0.5715  0.6236
  108MOL0     C14460   1.626   8.790  10.059  0.5420  0.0941 -0.0408
  108MOL0     C14461   1.721   8.773   9.938  0.0596 -0.6332 -0.5066
  108MOL0     N14462   1.655   8.716   9.821  0.3350  0.3399  0.3105
  108MOL0     C14463   1.629   8.583   9.796 -0.2609 -0.3192 -0.0240
  108MOL0     C14464   1.580   8.586   9.675  0.8384  0.8103  0.2931
  108MOL0     C14465   1.527   8.453   9.620 -0.3943  0.5907  0.6685
  108MOL0     C14466   1.633   8.349   9.598  0.3056  0.1666 -0.5229
  108MOL0     C14467   1.584   8.219   9.532  0.1227 -0.2903 -0.0316
  108MOL0     C14468   1.524   8.110   9.622 -0.3476  0.0048  0.6522
  108MOL0     O14469   1.604   8.065   9.727  1.1202 -0.1086 -0.5308
  108MOL0     C14470   1.585   7.933   9.770  0.1313  0.2514 -0.8110
  108MOL0     C14471   1.474   7.848   9.728 -0.3062  0.1093  0.0276
  108MOL0     C14472   1.462   7.716   9.778 -0.7866 -0.2521  0.0794
  108MOL0     C14473   1.556   7.667   9.873  0.0397  1.3504 -0.7775
  108MOL0     C14474   1.569   7.522   9.901 -0.3169 -0.0940 -1.0100
  108MOL0     O14475   1.461   7.457   9.866  0.7324  0.9650  0.3866
  108MOL0     C14476   1.451   7.327   9.912  0.3940  0.0092 -0.2036
  108MOL0     C14477   1.480   7.291  10.044 -0.3355 -0.1715  0.4106
  108MOL0     C14478   1.442   7.159  10.082  0.2299 -0.4771  1.2897
  108MOL0     C14479   1.382   7.070   9.992 -1.3576 -0.3630  0.0108
  108MOL0     O14480   1.369   6.937  10.009  0.5536 -1.2497 -0.2133
  108MOL0     C14481   1.394   6.887  10.143 -0.2405 -0.1183 -0.0179
  108MOL0     C14482   1.369   6.737  10.153  0.2852 -0.2407  0.5640
  108MOL0     C14483   1.233   6.696  10.097  0.1951  0.1344  0.8636
  108MOL0     C14484   1.187   6.556  10.138  0.0212  0.2832  0.1878
  108MOL0     C14485   1.126   6.478  10.029  0.6512  0.1389  0.0115
  108MOL0     C14486   1.007   6.538   9.950 -0.0856  0.5191 -0.1288
  108MOL0     C14487   0.884   6.529  10.031 -1.2719  0.6242 -0.1598
  108MOL0     C14488   0.771   6.582   9.949  0.2514 -0.4124  0.5085
  108MOL0    Cl14489   0.614   6.515   9.987 -0.0977  0.1411 -0.5375
  108MOL0     C14490   1.373   7.110   9.859  0.6562  0.3330 -0.4943
  108MOL0     C14491   1.405   7.236   9.818  0.2335 -0.2905 -0.5139
  108MOL0     O14492   1.672   7.485   9.959  0.2004 -0.1130 -0.4927
  108MOL0     C14493   1.661   7.749   9.915  0.8371 -0.1056  0.4322
  108MOL0     C14494   1.678   7.885   9.861 -0.6408 -0.1107 -0.3082
  108MOL0     N14495   1.558   8.718   9.624 -0.2118 -0.0541 -0.3203
  108MOL0     N14496   1.612   8.797   9.723  1.2933 -0.2653  0.8643
  108MOL0     C14497   1.057   8.847  10.606  0.2139 -0.0190  0.6433
  108MOL0     C14498   0.920   8.824  10.607 -0.7133  0.2577  0.3815
  108MOL0     C14499   0.493   8.774  10.623 -0.4630  0.6946 -1.0704
  108MOL0     C14500   0.470   8.837  10.503 -0.3608  0.2146 -0.2614
  108MOL0     C14501   0.351   8.820  10.432  0.4012 -0.6046 -0.7207
  108MOL0     C14502   0.241   8.743  10.490 -0.0379 -0.3955 -0.0930
  108MOL0     O14503   0.128   8.715  10.413  0.5063 -0.5632 -0.4175
  108MOL0     C14504   0.068   8.833  10.362 -1.7878 -0.1935 -0.3384
  108MOL0     C14505   0.096   8.834  10.215  1.0810  0.4786 -0.0529
  108MOL0     C14506  -0.029   8.863  10.131 -0.4777 -0.3831  0.3893
  108MOL0     C14507   0.011   8.817   9.992  0.5828 -0.4231  0.0780
  108MOL0     C14508  -0.089   8.831   9.886 -0.0628 -0.0473 -0.8361
  108MOL0     C14509  -0.165   8.856   9.789  0.4835 -0.2290  0.0390
  108MOL0     C14510   0.254   8.694  10.627  0.6000  0.0136  1.5176
  108MOL0     C14511   0.380   8.706  10.685  0.1309  0.0791 -0.5735
  108MOL0     C14512   0.396   8.639  10.813  0.3531  0.1381  0.2823
  108MOL0     H14513   0.817   9.037  10.843 -1.3783  3.1368 -2.2989
  108MOL0     H14514   1.086   9.064  10.857  0.6381  1.3669 -2.7743
  108MOL0     H14515   1.249   9.121  10.592 -0.7508 -0.8423 -1.0643
  108MOL0     H14516   1.394   9.104  10.701  0.9972 -2.5996  1.2471
  108MOL0     H14517   1.484   8.940  10.582 -0.5130 -0.8878  0.0361
  108MOL0     H14518   1.456   9.096  10.492  1.0111 -0.4681 -1.3796
  108MOL0     H14519   1.269   8.967  10.362 -1.1555 -3.0913 -1.3375
  108MOL0     H14520   1.324   8.825  10.443  0.5781 -0.4248  0.1421
  108MOL0     H14521   1.522   8.996  10.305 -0.1021 -0.2501 -1.6343
  108MOL0     H14522   1.537   8.820  10.329 -1.3909 -0.8765 -1.1543
  108MOL0     H14523   1.358   8.796  10.152 -2.4336 -0.2083 -1.1220
  108MOL0     H14524   1.338   8.972  10.149  1.2734  1.4498  2.8985
  108MOL0     H14525   1.465   8.909   9.959 -2.4090  0.1464  2.0901
  108MOL0     H14526   1.579   8.991  10.058  0.1811 -0.9224  3.3044
  108MOL0     H14527   1.574   8.694  10.060  1.3249 -0.3790 -1.4819
  108MOL0     H14528   1.682   8.784  10.153 -1.0035  2.5989  1.1550
  108MOL0     H14529   1.778   8.864   9.917  0.9651 -1.1595 -0.4134
  108MOL0     H14530   1.794   8.693   9.958  1.5513 -0.0490 -3.0896
  108MOL0     H14531   1.658   8.491   9.845  0.3046  0.8324  1.8856
  108MOL0     H14532   1.445   8.412   9.679 -0.9131 -2.2763 -1.7600
  108MOL0     H14533   1.485   8.466   9.520  0.5024  0.5933  0.2758
  108MOL0     H14534   1.717   8.393   9.543 -0.3160 -0.6696 -2.1964
  108MOL0     H14535   1.674   8.337   9.699  0.1343 -0.8203 -0.5615
  108MOL0     H14536   1.661   8.168   9.474 -0.4483 -1.6764  0.3816
  108MOL0     H14537   1.500   8.244   9.467 -0.1559  0.0559  0.4533
  108MOL0     H14538   1.500   8.032   9.549  1.7383 -0.7375  0.7009
  108MOL0     H14539   1.434   8.156   9.664  0.9727  2.7479  0.6743
  108MOL0     H14540   1.390   7.885   9.669 -1.7330  0.2523  2.0189
  108MOL0     H14541   1.374   7.660   9.746 -0.7686  0.5488 -1.4696
  108MOL0     H14542   1.513   7.366  10.115  0.9922  0.3482 -0.6912
  108MOL0     H14543   1.445   7.139  10.189 -4.3413 -2.1218  1.3006
  108MOL0     H14544   1.497   6.920  10.158 -0.9504  1.4224  1.8602
  108MOL0     H14545   1.343   6.946  10.219  2.7893  3.4104 -0.4195
  108MOL0     H14546   1.452   6.688  10.102 -2.4114 -3.0955 -1.4959
  108MOL0     H14547   1.374   6.710  10.259 -0.2295  0.4043  0.7590
  108MOL0     H14548   1.160   6.768  10.135 -1.0558 -0.7904  0.3004
  108MOL0     H14549   1.245   6.699   9.989  4.1007 -2.3359  1.0504
  108MOL0     H14550   1.127   6.570  10.228  1.5881 -0.1857  1.3509
  108MOL0     H14551   1.277   6.497  10.160 -0.1239  1.0875  3.4315
  108MOL0     H14552   1.103   6.383  10.077  0.5819  0.2281  0.1537
  108MOL0     H14553   1.210   6.460   9.962 -0.0354  0.0192 -0.8439
  108MOL0     H14554   1.029   6.641   9.922  1.5932  0.2866  0.1701
  108MOL0     H14555   0.981   6.489   9.856 -0.4412  0.8281 -0.1889
  108MOL0     H14556   0.883   6.582  10.127 -1.5370 -1.4476  1.0440
  108MOL0     H14557   0.859   6.426  10.057 -4.6905  1.1827 -0.6640
  108MOL0     H14558   0.774   6.691   9.966 -0.2720 -0.6122  2.0470
  108MOL0     H14559   0.778   6.570   9.840  0.3163  0.6469  0.3840
  108MOL0     H14560   1.336   7.034   9.791  4.8887 -2.8553  0.3321
  108MOL0     H14561   1.408   7.267   9.714 -0.5759 -0.1331 -0.4971
  108MOL0     H14562   1.742   7.709   9.976 -1.2340 -1.5595  2.4241
  108MOL0     H14563   1.760   7.951   9.885  0.9443 -1.4933 -1.6433
  108MOL0     H14564   1.107   8.777  10.539 -2.5110 -0.6156 -0.9127
  108MOL0     H14565   0.881   8.758  10.531  1.2327 -0.6643  0.1202
  108MOL0     H14566   0.554   8.891  10.460  1.5666 -2.6425 -0.3865
  108MOL0     H14567   0.346   8.865  10.333 -2.7141 -0.4329 -0.5895
  108MOL0     H14568   0.089   8.930  10.409 -4.4733  0.9076 -1.1842
  108MOL0     H14569  -0.039   8.839  10.388 -0.7837  0.3136  4.8870
  108MOL0     H14570   0.139   8.739  10.182 -0.3032  0.0923 -0.8068
  108MOL0     H14571   0.172   8.909  10.191  0.8374  0.5121 -0.7270
  108MOL0     H14572  -0.059   8.968  10.131  2.9491  0.7946  3.3882
  108MOL0     H14573  -0.117   8.801  10.150 -2.9986  2.1379 -2.0039
  108MOL0     H14574   0.102   8.867   9.959  1.7722 -2.7060 -0.3017
  108MOL0     H14575   0.020   8.708   9.995 -0.5366 -0.6853 -2.6749
  108MOL0     H14576  -0.234   8.886   9.714 -0.4249  0.7488  1.2188
  108MOL0     H14577   0.172   8.631  10.658  1.5132 -5.1994 -4.4871
  108MOL0     H14578   0.435   8.538  10.795 -3.5278 -1.1669 -1.8007
  108MOL0     H14579   0.461   8.704  10.872  1.2277  4.0275 -4.3216
  108MOL0     H14580   0.297   8.622  10.856  1.0362 -2.9549  0.8811
  109MOL0     O14581   2.408   6.147  10.938 -0.5370  0.1515  0.0361
  109MOL0     C14582   2.409   6.086  10.833  0.6539 -0.8108  0.8768
  109MOL0     O14583   2.514   6.003  10.793  0.0756 -1.4523 -0.6668
  109MOL0     C14584   2.636   6.029  10.852  0.4148  0.3661 -0.5817
  109MOL0     C14585   2.736   6.088  10.773  0.3730 -0.1385  0.7938
  109MOL0     C14586   2.861   6.111  10.826 -0.2324  0.0582 -0.2805
  109MOL0     C14587   2.896   6.070  10.959  0.0167 -0.2616  0.3405
  109MOL0     O14588   3.018   6.090  11.023  0.1411 -0.2468  0.4266
  109MOL0     C14589   3.122   6.135  10.944 -0.0002 -0.0863 -0.1228
  109MOL0     C14590   3.254   6.125  11.017 -0.2726  0.2293  0.6703
  109MOL0     C14591   3.364   6.174  10.927  0.8010  0.0296 -0.6322
  109MOL0     C14592   3.474   6.212  11.025  0.2795  0.4412  0.8308
  109MOL0     C14593   3.584   6.273  10.935 -0.3281  0.4216  0.1224
  109MOL0     C14594   3.688   6.347  11.014  0.0519 -0.3624 -0.3997
  109MOL0     C14595   3.815   6.386  10.943  1.1201  0.0996 -0.1474
  109MOL0     C14596   3.804   6.518  10.862  0.1445  0.0100  0.3649
  109MOL0     N14597   3.850   6.639  10.930 -0.7740  0.4290 -0.0421
  109MOL0     C14598   3.801   6.697  11.044 -0.0788 -0.1018 -0.2579
  109MOL0     C14599   3.894   6.786  11.087 -0.6727  0.9829  0.0222
  109MOL0     C14600   3.883   6.889  11.207 -0.5678 -0.1008  0.7236
  109MOL0     C14601   4.019   6.950  11.232 -0.4827 -0.2260 -0.2745
  109MOL0     C14602   4.099   6.837  11.305 -1.0529  0.9118  0.1635
  109MOL0     C14603   4.243   6.878  11.331 -0.0400 -0.0140 -0.8879
  109MOL0     O14604   4.292   6.802  11.445 -0.0488  0.5028 -0.5555
  109MOL0     C14605   4.396   6.855  11.511  0.5938 -0.1406 -1.3312
  109MOL0     C14606   4.488   6.953  11.456 -0.0007 -0.1848  0.0132
  109MOL0     C14607   4.590   7.003  11.528 -0.0881 -0.4063 -0.8986
  109MOL0     C14608   4.623   6.962  11.658  1.0744  0.7716 -0.3443
  109MOL0     C14609   4.757   6.982  11.710  0.0184 -0.9280  0.0072
  109MOL0     O14610   4.800   6.887  11.804 -0.7580  0.1103 -0.9111
  109MOL0     C14611   4.916   6.895  11.879  0.6669 -0.3301  0.3990
  109MOL0     C14612   4.925   6.833  12.005 -0.1199  0.1040  0.6297
  109MOL0     C14613   5.033   6.822  12.073 -0.2196 -0.4481  0.5989
  109MOL0     C14614   5.149   6.886  12.040  0.4750 -0.9192  0.9275
  109MOL0     O14615   5.253   6.892  12.126  0.5263 -0.2365  0.1588
  109MOL0     C14616   5.349   7.010  12.120  0.6239  0.9099 -0.8039
  109MOL0     C14617   5.450   6.998  12.239 -0.1432 -0.7230  0.5867
  109MOL0     C14618   5.391   7.031  12.377 -0.0099 -0.1942 -0.0786
  109MOL0     C14619   5.500   7.016  12.480  0.4740  0.9260  0.7338
  109MOL0     C14620   5.454   7.088  12.610  0.5442 -0.4864  0.4871
  109MOL0     C14621   5.541   7.081  12.737 -0.7126 -0.2183  0.4374
  109MOL0     C14622   5.676   7.149  12.715  0.8888 -0.8945 -0.0039
  109MOL0     C14623   5.779   7.115  12.821  0.9602  0.3706  0.2985
  109MOL0    Cl14624   5.935   7.179  12.756  0.1317  0.6195  0.2381
  109MOL0     C14625   5.152   6.945  11.920 -1.3199 -0.9405  0.5102
  109MOL0     C14626   5.040   6.936  11.832 -0.5464 -1.0766 -0.0816
  109MOL0     O14627   4.820   7.085  11.677 -0.3651 -0.0538 -0.2376
  109MOL0     C14628   4.537   6.867  11.711 -0.3927  0.3783  0.4830
  109MOL0     C14629   4.427   6.810  11.641  0.3059 -0.4193 -0.2434
  109MOL0     N14630   4.000   6.770  10.998 -0.0177 -0.2664 -0.6653
  109MOL0     N14631   3.972   6.689  10.905 -0.4891  0.6648  0.3572
  109MOL0     C14632   2.792   6.018  11.039 -0.3221 -0.5426  0.0021
  109MOL0     C14633   2.672   5.984  10.982 -0.3985 -0.1568  0.8136
  109MOL0     C14634   2.285   6.092  10.752  0.4727 -0.0194 -0.0494
  109MOL0     C14635   2.287   5.999  10.647 -0.1915 -0.8261 -0.3562
  109MOL0     C14636   2.193   5.993  10.545  0.2955  0.5455 -0.4449
  109MOL0     C14637   2.084   6.079  10.557 -0.3192 -0.7524 -0.3766
  109MOL0     O14638   2.002   6.088  10.447  0.5789 -0.0299  0.3964
  109MOL0     C14639   1.873   6.159  10.452  0.5278 -0.2266  0.1584
  109MOL0     C14640   1.809   6.137  10.319  0.1764 -0.2568 -0.1280
  109MOL0     C14641   1.789   5.988  10.286 -0.1048  0.9624 -0.7162
  109MOL0     C14642   1.712   5.902  10.395  0.3879  0.0465 -0.2981
  109MOL0     C14643   1.670   5.770  10.354 -0.8927  1.4077  0.0326
  109MOL0     C14644   1.627   5.653  10.321 -0.5604  0.7239 -0.4781
  109MOL0     C14645   2.074   6.161  10.666  0.2789 -0.9917  0.0130
  109MOL0     C14646   2.174   6.170  10.765  1.0649  0.1587 -0.4446
  109MOL0     C14647   2.158   6.275  10.877 -0.3719 -0.0093  0.0870
  109MOL0     H14648   2.716   6.115  10.669 -1.8160 -2.5250  0.5104
  109MOL0     H14649   2.938   6.163  10.770  1.5201 -2.0391  0.0521
  109MOL0     H14650   3.118   6.065  10.861 -2.4545  0.5023 -0.5922
  109MOL0     H14651   3.095   6.234  10.905 -0.9966 -0.0624  0.5801
  109MOL0     H14652   3.276   6.023  11.048  2.8185  0.4769 -0.3294
  109MOL0     H14653   3.239   6.184  11.109  0.5398  1.2374  0.1800
  109MOL0     H14654   3.315   6.260  10.879 -3.2048 -1.6293  0.1082
  109MOL0     H14655   3.400   6.096  10.860  2.7707  0.3202  0.0068
  109MOL0     H14656   3.440   6.287  11.097  0.7358  0.1171  1.3880
  109MOL0     H14657   3.509   6.132  11.091 -2.9820  1.5067  4.2690
  109MOL0     H14658   3.623   6.194  10.870  1.3310  1.3376 -0.0663
  109MOL0     H14659   3.542   6.348  10.867  2.3839  0.4007 -1.7547
  109MOL0     H14660   3.640   6.438  11.052  0.7996  0.9296 -2.3815
  109MOL0     H14661   3.714   6.290  11.104 -2.9716  0.8463  1.3973
  109MOL0     H14662   3.843   6.301  10.880  1.8918  0.1647  0.1057
  109MOL0     H14663   3.897   6.414  11.009  3.1096  1.0694 -2.8493
  109MOL0     H14664   3.873   6.512  10.777 -2.4638 -0.9800 -1.8156
  109MOL0     H14665   3.712   6.537  10.807  2.0208 -0.9786 -3.4917
  109MOL0     H14666   3.701   6.666  11.074 -0.6983  0.8071 -1.3199
  109MOL0     H14667   3.807   6.964  11.183 -0.6716 -0.6405 -0.7787
  109MOL0     H14668   3.846   6.832  11.293 -1.1102  0.7475  1.0679
  109MOL0     H14669   4.059   6.979  11.134 -1.1686  0.6210 -0.3154
  109MOL0     H14670   4.007   7.041  11.292 -1.2747 -0.3956 -0.1682
  109MOL0     H14671   4.109   6.751  11.239  1.6255  0.0725  1.5149
  109MOL0     H14672   4.060   6.806  11.402  1.5266 -1.3133  0.6139
  109MOL0     H14673   4.251   6.987  11.344 -0.1807  0.0525 -1.3505
  109MOL0     H14674   4.306   6.859  11.244  2.0283  0.5164  0.4210
  109MOL0     H14675   4.478   6.982  11.351 -0.2142 -1.2766 -0.2762
  109MOL0     H14676   4.659   7.070  11.476 -0.4734  1.9389  1.3786
  109MOL0     H14677   4.830   6.797  12.045  0.6824 -0.6088  1.9590
  109MOL0     H14678   5.027   6.784  12.175 -0.0744  5.0997  3.0034
  109MOL0     H14679   5.401   7.000  12.024  1.5706  0.4641 -0.2584
  109MOL0     H14680   5.289   7.100  12.135 -0.2748  0.1065  0.6816
  109MOL0     H14681   5.495   6.900  12.253  1.2571 -0.0387  1.0643
  109MOL0     H14682   5.529   7.073  12.222 -1.3775  0.7044  0.9063
  109MOL0     H14683   5.370   7.138  12.372  2.6318  0.5710  2.3426
  109MOL0     H14684   5.300   6.974  12.398  1.4166 -2.5161  0.1851
  109MOL0     H14685   5.587   7.076  12.451  1.0262  0.0902  0.6240
  109MOL0     H14686   5.532   6.912  12.494 -1.2870  0.2835  0.1791
  109MOL0     H14687   5.357   7.049  12.640  0.6002  1.4223  3.6847
  109MOL0     H14688   5.446   7.192  12.579 -4.3518  0.0511  2.6609
  109MOL0     H14689   5.496   7.134  12.822  2.7451  1.5023  1.4218
  109MOL0     H14690   5.555   6.973  12.744 -0.9845 -0.3598 -0.8886
  109MOL0     H14691   5.649   7.254  12.725 -0.9058 -1.2582 -0.6461
  109MOL0     H14692   5.722   7.149  12.616  0.3374  3.7335 -0.4612
  109MOL0     H14693   5.752   7.158  12.918 -0.8360 -2.3954  1.1205
  109MOL0     H14694   5.795   7.007  12.827  0.4689  0.2035 -1.1256
  109MOL0     H14695   5.243   6.990  11.882 -2.5576 -0.0218 -1.5158
  109MOL0     H14696   5.041   6.972  11.730  0.6764  0.7695  0.5209
  109MOL0     H14697   4.570   6.801  11.792  2.1000 -1.9396 -2.1745
  109MOL0     H14698   4.365   6.739  11.694  1.6244  0.4535  2.6524
  109MOL0     H14699   2.823   5.985  11.138 -1.7920 -1.7988  0.0931
  109MOL0     H14700   2.591   5.943  11.041 -0.6119 -0.9677 -0.0347
  109MOL0     H14701   2.374   5.937  10.630  0.6097 -0.1557  1.0625
  109MOL0     H14702   2.209   5.930  10.458 -0.2346 -1.4000  0.8124
  109MOL0     H14703   1.902   6.265  10.451 -1.8040  0.4634 -0.8298
  109MOL0     H14704   1.803   6.124  10.529 -0.0878  1.2418  0.3109
  109MOL0     H14705   1.862   6.196  10.244 -2.0795  2.3389  0.1691
  109MOL0     H14706   1.709   6.183  10.321  0.5740  0.6858 -1.0099
  109MOL0     H14707   1.884   5.947  10.252 -1.3850 -2.0821 -0.9765
  109MOL0     H14708   1.729   5.983  10.194 -0.6553  1.0215 -0.3671
  109MOL0     H14709   1.776   5.893  10.483 -1.0927 -1.1798  0.6950
  109MOL0     H14710   1.615   5.944  10.422  0.9047  2.1843 -1.4980
  109MOL0     H14711   1.580   5.558  10.301  0.6632  0.4009 -2.0171
  109MOL0     H14712   1.986   6.225  10.669  0.1065 -1.2574  0.8424
  109MOL0     H14713   2.183   6.231  10.973 -1.3797 -4.4189 -1.4591
  109MOL0     H14714   2.223   6.359  10.850  0.0504 -0.2770  0.2747
  109MOL0     H14715   2.056   6.316  10.882 -0.4637 -0.2930  0.6196
  110MOL0     O14716   9.470   4.410   5.743  0.4526  0.0257 -0.8133
  110MOL0     C14717   9.550   4.343   5.675  0.8587  0.0213  0.0344
  110MOL0     O14718   9.589   4.381   5.548 -0.1902 -0.4602 -0.2264
  110MOL0     C14719   9.539   4.484   5.467 -0.1028  0.0164  0.8032
  110MOL0     C14720   9.617   4.537   5.363  0.0583  0.4839  0.9843
  110MOL0     C14721   9.574   4.635   5.277  0.0220  0.1169  0.2624
  110MOL0     C14722   9.441   4.684   5.303 -0.7097 -0.5844 -1.1793
  110MOL0     O14723   9.391   4.784   5.230  0.6610 -0.2803 -0.1065
  110MOL0     C14724   9.448   4.824   5.106  0.0782  0.1950 -0.0047
  110MOL0     C14725   9.345   4.871   5.000 -0.1070 -0.6327 -0.6676
  110MOL0     C14726   9.252   4.981   5.043  0.2052 -0.4287 -0.7093
  110MOL0     C14727   9.156   5.029   4.930  0.3620  0.2774 -1.0069
  110MOL0     C14728   9.040   5.126   4.972  0.6977  0.0335 -0.8672
  110MOL0     C14729   8.926   5.142   4.874  0.6594 -0.2734 -0.1148
  110MOL0     C14730   8.960   5.224   4.749  1.2852  0.2367  1.2542
  110MOL0     C14731   8.842   5.259   4.659 -0.2146  0.9790 -0.1415
  110MOL0     N14732   8.899   5.315   4.535 -0.2028 -0.6934  0.1312
  110MOL0     C14733   8.937   5.233   4.431  0.4468  0.4723 -0.3025
  110MOL0     C14734   8.978   5.314   4.329  0.3983 -0.0876 -0.0920
  110MOL0     C14735   9.010   5.298   4.183 -0.3262  0.3006  0.5826
  110MOL0     C14736   9.149   5.331   4.143 -0.1050 -0.0318 -0.7871
  110MOL0     C14737   9.258   5.227   4.178  0.5253  0.7496 -0.1123
  110MOL0     C14738   9.277   5.206   4.332  0.9862 -0.3013  0.2745
  110MOL0     O14739   9.386   5.110   4.353  0.3603 -0.4049  0.2343
  110MOL0     C14740   9.433   5.114   4.479 -0.3321  0.7421  0.0624
  110MOL0     C14741   9.364   5.153   4.595 -0.0840 -0.6548 -0.9810
  110MOL0     C14742   9.436   5.147   4.717 -0.4169 -1.6906 -0.5633
  110MOL0     C14743   9.563   5.083   4.728  0.1213  0.3120  0.5966
  110MOL0     C14744   9.625   5.064   4.851  0.9256  0.3730  0.8033
  110MOL0     O14745   9.752   5.013   4.850  0.1852 -0.0333  0.2635
  110MOL0     C14746   9.804   5.008   4.967  0.0347 -0.2122  0.0336
  110MOL0     C14747   9.867   5.116   5.038 -0.3147 -1.0795  0.1477
  110MOL0     C14748   9.938   5.098   5.155 -0.1528  0.1961  0.1754
  110MOL0     C14749   9.962   4.967   5.197  0.3162  0.6734 -0.4974
  110MOL0     O14750  10.041   4.917   5.307 -0.0731  0.0218 -0.3687
  110MOL0     C14751  10.104   5.012   5.394 -0.1267 -0.7235 -0.6268
  110MOL0     C14752  10.116   4.956   5.536 -0.0445 -0.5411 -0.7143
  110MOL0     C14753  10.168   5.061   5.626  0.2172 -0.3036  0.7347
  110MOL0     C14754  10.158   5.017   5.772  0.1405 -0.4541 -0.6132
  110MOL0     C14755  10.138   5.141   5.863  0.2643  0.5698  0.4999
  110MOL0     C14756  10.216   5.127   5.988 -0.1316 -1.4029  0.0405
  110MOL0     C14757  10.204   5.255   6.084  0.2995  0.4282  0.4910
  110MOL0     C14758  10.321   5.260   6.192  0.3883 -1.4522  0.3895
  110MOL0    Cl14759  10.479   5.283   6.115 -0.1212 -0.2665  0.3267
  110MOL0     C14760   9.894   4.859   5.124  2.2140  0.6193 -0.4266
  110MOL0     C14761   9.814   4.882   5.015 -0.2466  0.2568  0.0303
  110MOL0     O14762   9.566   5.107   4.948 -0.1569 -0.6548  0.8312
  110MOL0     C14763   9.620   5.028   4.614 -0.0350  0.0016  0.2818
  110MOL0     C14764   9.561   5.057   4.490  0.4717 -0.9214 -0.4033
  110MOL0     N14765   8.976   5.440   4.384  0.0913  0.2451  0.0158
  110MOL0     N14766   8.928   5.446   4.505  0.4619  0.1679  0.7226
  110MOL0     C14767   9.356   4.629   5.396  0.3099 -0.5655  0.2539
  110MOL0     C14768   9.410   4.533   5.482 -0.8530  0.6512 -0.9324
  110MOL0     C14769   9.627   4.222   5.721 -0.1579 -0.9455  0.7743
  110MOL0     C14770   9.746   4.182   5.653  0.0291 -0.2671 -0.4159
  110MOL0     C14771   9.804   4.058   5.680  0.5796  0.1703 -0.8977
  110MOL0     C14772   9.745   3.971   5.771 -0.4081 -0.1719 -0.2096
  110MOL0     O14773   9.823   3.859   5.793 -0.2271  0.9335 -0.1062
  110MOL0     C14774   9.773   3.754   5.876  1.0458  0.0072 -0.4118
  110MOL0     C14775   9.865   3.636   5.868  0.7057 -0.7951  0.2407
  110MOL0     C14776   9.812   3.531   5.965 -0.3557  0.6336 -0.3527
  110MOL0     C14777   9.931   3.442   6.000 -0.5386  0.6523 -0.4571
  110MOL0     C14778  10.041   3.509   6.073  0.0069  0.0541  0.4224
  110MOL0     C14779  10.116   3.577   6.140  0.2961 -0.2908  0.1344
  110MOL0     C14780   9.622   4.007   5.832  0.4530  1.0526 -0.6150
  110MOL0     C14781   9.568   4.128   5.809  0.6918 -0.5927 -0.1522
  110MOL0     C14782   9.434   4.147   5.872  0.3469 -0.2205 -1.0285
  110MOL0     H14783   9.713   4.489   5.353  0.5596  1.5904  0.3500
  110MOL0     H14784   9.634   4.682   5.200 -0.4126 -1.9920 -1.4599
  110MOL0     H14785   9.528   4.895   5.130  0.6211 -0.9090  1.5414
  110MOL0     H14786   9.484   4.731   5.062 -0.1078  0.6333 -1.1408
  110MOL0     H14787   9.278   4.785   4.992 -2.5783  1.1981 -0.8527
  110MOL0     H14788   9.398   4.902   4.908  0.5778  1.4090  0.3479
  110MOL0     H14789   9.302   5.065   5.091 -0.3570 -1.1993  1.3382
  110MOL0     H14790   9.182   4.944   5.118 -1.1392  4.2375  0.6673
  110MOL0     H14791   9.213   5.081   4.853 -0.3317  0.7692 -1.1932
  110MOL0     H14792   9.101   4.944   4.890 -1.7155  1.1490 -0.1271
  110MOL0     H14793   8.991   5.093   5.063  1.4625  0.3845 -0.3179
  110MOL0     H14794   9.077   5.229   4.981 -0.1482  0.2955 -0.3581
  110MOL0     H14795   8.884   5.044   4.847 -1.8990  1.0101 -1.2388
  110MOL0     H14796   8.845   5.185   4.934 -0.0123  2.3393 -2.6527
  110MOL0     H14797   9.030   5.159   4.696 -0.1535 -1.2840  1.1341
  110MOL0     H14798   9.013   5.317   4.769  0.3015  0.7545  1.4956
  110MOL0     H14799   8.791   5.165   4.634 -0.5286 -0.1446  4.0899
  110MOL0     H14800   8.770   5.326   4.706 -1.4254 -1.2162  1.3207
  110MOL0     H14801   8.902   5.132   4.413 -1.9216  1.4532 -1.5521
  110MOL0     H14802   8.981   5.196   4.157  0.7193  0.2450 -0.4236
  110MOL0     H14803   8.950   5.366   4.122 -0.8106 -0.1641  0.5269
  110MOL0     H14804   9.149   5.367   4.039  1.8366 -2.5220 -1.7465
  110MOL0     H14805   9.177   5.419   4.201  0.5858 -0.6564 -0.1613
  110MOL0     H14806   9.348   5.252   4.121  0.5563 -0.9703 -0.8800
  110MOL0     H14807   9.229   5.128   4.142  0.6312  0.4454  0.6136
  110MOL0     H14808   9.180   5.171   4.370  0.9479 -3.8959 -2.6096
  110MOL0     H14809   9.293   5.309   4.365 -0.9111 -0.0435  0.5410
  110MOL0     H14810   9.258   5.176   4.585 -0.4341 -2.1682 -1.0577
  110MOL0     H14811   9.388   5.179   4.809  2.3055  0.9990  0.1020
  110MOL0     H14812   9.834   5.219   5.029  0.6870 -0.6107  1.4852
  110MOL0     H14813   9.976   5.184   5.209  2.6916  0.2713 -1.7622
  110MOL0     H14814  10.202   5.044   5.358  0.9299 -1.9409  1.0028
  110MOL0     H14815  10.043   5.103   5.401  0.4031 -0.3314 -0.9766
  110MOL0     H14816  10.017   4.941   5.578  0.3325 -0.9932  0.0285
  110MOL0     H14817  10.177   4.866   5.546 -0.3472 -0.8976 -1.9040
  110MOL0     H14818  10.271   5.078   5.595 -0.7982 -0.5268 -3.2253
  110MOL0     H14819  10.120   5.159   5.618 -0.8651 -0.6644  2.1983
  110MOL0     H14820  10.250   4.963   5.797  0.1659  0.1864  0.7832
  110MOL0     H14821  10.073   4.953   5.796 -1.1958  1.7750  0.9493
  110MOL0     H14822  10.032   5.166   5.875  0.2212  0.0386  1.3462
  110MOL0     H14823  10.187   5.222   5.809  2.4402 -0.6653  0.5144
  110MOL0     H14824  10.191   5.036   6.042 -2.6666 -0.9309 -0.2221
  110MOL0     H14825  10.319   5.119   5.952 -1.3281  0.3997 -4.4578
  110MOL0     H14826  10.111   5.253   6.142 -0.1950 -1.6111 -0.2809
  110MOL0     H14827  10.206   5.349   6.028 -4.4603  0.8209  0.5354
  110MOL0     H14828  10.301   5.343   6.259  3.3728 -1.6785  1.7077
  110MOL0     H14829  10.326   5.172   6.257 -0.8871 -1.1945  0.8444
  110MOL0     H14830   9.888   4.761   5.169 -0.7261 -0.0669 -2.0553
  110MOL0     H14831   9.767   4.797   4.967  1.6762 -0.5878 -0.4696
  110MOL0     H14832   9.710   4.968   4.608 -0.7522 -1.3864  2.3170
  110MOL0     H14833   9.591   5.018   4.393  0.1633 -0.5917 -0.6302
  110MOL0     H14834   9.251   4.657   5.399  0.7217  1.0057  2.1533
  110MOL0     H14835   9.348   4.480   5.553  4.4850 -0.9737  3.1301
  110MOL0     H14836   9.797   4.240   5.576  0.7164 -2.2472 -1.5259
  110MOL0     H14837   9.902   4.030   5.643 -0.8463 -1.9804 -3.4278
  110MOL0     H14838   9.678   3.718   5.837 -1.0431  1.0475  3.2135
  110MOL0     H14839   9.768   3.786   5.981  1.4644  0.4658 -0.5297
  110MOL0     H14840   9.962   3.676   5.898  0.0036 -0.0592  1.6263
  110MOL0     H14841   9.867   3.601   5.765 -1.9615 -1.0305  0.1867
  110MOL0     H14842   9.735   3.472   5.914  0.4373 -0.0376 -0.7947
  110MOL0     H14843   9.769   3.574   6.055  0.2469  0.1649  0.1628
  110MOL0     H14844   9.891   3.362   6.064  0.9577 -0.7547 -1.2095
  110MOL0     H14845   9.974   3.395   5.911  0.1672 -0.5700  0.4934
  110MOL0     H14846  10.163   3.637   6.215  2.1546  0.3291 -1.4270
  110MOL0     H14847   9.580   3.925   5.891  3.5595 -0.5994 -0.4908
  110MOL0     H14848   9.448   4.224   5.948  2.3019  0.9383 -2.4545
  110MOL0     H14849   9.368   4.193   5.797 -3.6628 -1.5764  1.3706
  110MOL0     H14850   9.401   4.055   5.921  1.4524 -0.1875 -0.1811
  111MOL0     O14851   1.858   4.471  10.340 -0.3719  0.3743  0.7936
  111MOL0     C14852   1.878   4.451  10.459  0.1947  0.3422 -0.1793
  111MOL0     O14853   2.001   4.459  10.515 -0.6869 -0.3906 -0.0724
  111MOL0     C14854   2.104   4.461  10.431  0.1751  0.5708  0.0570
  111MOL0     C14855   2.158   4.338  10.395 -0.6445 -0.0012  0.9602
  111MOL0     C14856   2.260   4.335  10.292 -0.3510  0.6104 -0.5309
  111MOL0     C14857   2.308   4.451  10.241 -0.2976 -0.4946  0.0740
  111MOL0     O14858   2.401   4.461  10.149 -1.4544 -0.7475 -0.5563
  111MOL0     C14859   2.435   4.347  10.062 -0.5512 -0.0204 -0.1188
  111MOL0     C14860   2.539   4.377   9.957 -0.0584  0.4035 -0.3653
  111MOL0     C14861   2.490   4.472   9.849 -0.3051  0.0417 -1.0476
  111MOL0     C14862   2.589   4.485   9.735  0.1074 -0.2189  0.3438
  111MOL0     C14863   2.549   4.571   9.622  0.3883  0.2166  0.4989
  111MOL0     C14864   2.660   4.614   9.523 -0.2851  0.3493  0.0890
  111MOL0     C14865   2.782   4.670   9.592  0.0487 -0.0120  0.1934
  111MOL0     C14866   2.852   4.770   9.498  0.3561  0.2094 -0.5708
  111MOL0     N14867   2.997   4.764   9.511  0.5132 -0.2666 -0.0341
  111MOL0     C14868   3.066   4.810   9.622  0.3483  0.0126  0.5214
  111MOL0     C14869   3.194   4.806   9.584  0.3316  0.0601  0.5642
  111MOL0     C14870   3.301   4.856   9.677 -0.8491  0.2874  0.5247
  111MOL0     C14871   3.284   5.001   9.718 -0.3158 -0.4295 -0.4269
  111MOL0     C14872   3.406   5.053   9.791 -0.0127 -0.2126 -0.9448
  111MOL0     C14873   3.417   5.204   9.814  0.5467 -0.0145  0.2329
  111MOL0     O14874   3.412   5.259   9.681 -1.0473 -0.5298  0.1851
  111MOL0     C14875   3.428   5.397   9.676  0.2430 -0.2351 -0.0794
  111MOL0     C14876   3.432   5.446   9.551 -0.1999 -0.4284  1.0047
  111MOL0     C14877   3.430   5.588   9.524 -0.4483  1.2343 -0.4684
  111MOL0     C14878   3.425   5.681   9.631 -0.2979  0.4144 -0.3015
  111MOL0     C14879   3.446   5.829   9.610  0.0608  0.3380  0.4270
  111MOL0     O14880   3.468   5.863   9.483 -0.5151  0.1475  0.1788
  111MOL0     C14881   3.525   5.978   9.449  0.1824  0.4171  0.3883
  111MOL0     C14882   3.600   6.068   9.534 -0.5766 -0.9938 -0.6192
  111MOL0     C14883   3.667   6.181   9.487 -0.7022  0.4895 -0.2272
  111MOL0     C14884   3.665   6.213   9.353 -0.3597 -0.7237  0.2271
  111MOL0     O14885   3.718   6.342   9.318 -0.4974  0.2761 -0.3809
  111MOL0     C14886   3.787   6.366   9.193  0.6467  0.8761 -0.2343
  111MOL0     C14887   3.872   6.492   9.198 -0.3928  0.4589  0.4381
  111MOL0     C14888   3.804   6.623   9.231 -0.6415  0.3117 -0.5492
  111MOL0     C14889   3.872   6.749   9.167  0.1874 -0.3411 -0.5829
  111MOL0     C14890   3.819   6.885   9.222 -0.3752  0.7989  0.1976
  111MOL0     C14891   3.909   6.926   9.343 -0.1570 -0.4046 -0.1656
  111MOL0     C14892   3.834   7.025   9.431  0.3738 -0.3496 -0.8007
  111MOL0     C14893   3.926   7.078   9.537 -0.2565  1.4876  0.3037
  111MOL0    Cl14894   3.838   7.216   9.611 -0.0806 -0.2979  0.3051
  111MOL0     C14895   3.611   6.124   9.263  0.4052  0.4396 -0.3231
  111MOL0     C14896   3.526   6.021   9.310  0.5329  0.1300 -0.3684
  111MOL0     O14897   3.429   5.905   9.702  0.4046 -0.0375  0.2133
  111MOL0     C14898   3.414   5.623   9.764 -0.3476  0.7046  0.2667
  111MOL0     C14899   3.433   5.483   9.790 -0.1863  0.0352  0.4605
  111MOL0     N14900   3.209   4.758   9.454  0.5597 -0.8601 -0.5579
  111MOL0     N14901   3.089   4.742   9.406  1.0209 -0.3655  0.3757
  111MOL0     C14902   2.251   4.579  10.288  0.2581  0.0000  0.8946
  111MOL0     C14903   2.165   4.578  10.398  0.2836  0.6393  0.5645
  111MOL0     C14904   1.764   4.416  10.554 -0.9061  0.6169  0.0276
  111MOL0     C14905   1.783   4.437  10.697  0.0984  0.5453 -1.0352
  111MOL0     C14906   1.681   4.398  10.792  0.4167 -0.0421 -0.1085
  111MOL0     C14907   1.556   4.343  10.750 -0.2043 -0.0093  0.2416
  111MOL0     O14908   1.460   4.295  10.835  0.2995 -0.9230  0.0934
  111MOL0     C14909   1.480   4.330  10.974 -0.4624  0.0420  0.3169
  111MOL0     C14910   1.487   4.478  11.008  0.8510  0.1129 -0.4087
  111MOL0     C14911   1.347   4.527  11.050  0.5020  0.3270 -1.1249
  111MOL0     C14912   1.349   4.666  11.113  0.6016  0.0295 -0.6849
  111MOL0     C14913   1.219   4.733  11.115  0.9698 -0.7652 -0.3457
  111MOL0     C14914   1.116   4.795  11.108  0.9856 -0.3737 -0.0278
  111MOL0     C14915   1.533   4.338  10.614  0.7766  0.2699  0.7928
  111MOL0     C14916   1.635   4.365  10.517  0.5582  0.1675  0.2351
  111MOL0     C14917   1.597   4.338  10.370 -0.5938  0.2316  0.9765
  111MOL0     H14918   2.103   4.250  10.427  0.3967 -1.5197 -1.1711
  111MOL0     H14919   2.304   4.241  10.257  0.6113 -0.1165  2.3392
  111MOL0     H14920   2.479   4.278  10.136 -0.7584  1.7793  1.7748
  111MOL0     H14921   2.352   4.289  10.020  2.7759 -2.9086 -3.4045
  111MOL0     H14922   2.546   4.286   9.896 -2.6123  0.9391 -1.6172
  111MOL0     H14923   2.635   4.404  10.001 -0.4155 -0.3770  0.9480
  111MOL0     H14924   2.487   4.570   9.898  3.7214 -0.3647  0.4135
  111MOL0     H14925   2.392   4.445   9.809 -0.4205 -1.1898 -0.0126
  111MOL0     H14926   2.681   4.522   9.781  0.0482  1.0032 -0.4691
  111MOL0     H14927   2.613   4.386   9.696 -1.2158  0.3666 -2.2619
  111MOL0     H14928   2.462   4.525   9.575  0.4483 -1.3641  1.8383
  111MOL0     H14929   2.516   4.667   9.663  0.8525  1.0962 -1.0833
  111MOL0     H14930   2.684   4.534   9.452 -0.9894  0.7014 -0.5704
  111MOL0     H14931   2.609   4.681   9.453 -0.2940 -3.2040 -3.6721
  111MOL0     H14932   2.845   4.584   9.619 -2.1375 -1.1401  2.0901
  111MOL0     H14933   2.747   4.727   9.678  0.7159 -0.4215  0.7513
  111MOL0     H14934   2.829   4.756   9.392  1.3883 -1.3027 -0.6162
  111MOL0     H14935   2.812   4.869   9.523 -2.4191 -0.6698 -1.1257
  111MOL0     H14936   3.028   4.834   9.720 -0.6517  2.4986 -0.3963
  111MOL0     H14937   3.301   4.795   9.768  3.0033 -1.9085 -0.6978
  111MOL0     H14938   3.400   4.828   9.639 -0.0154 -0.3739  2.9863
  111MOL0     H14939   3.274   5.057   9.624  0.8925  1.7516  0.6451
  111MOL0     H14940   3.195   5.020   9.778  0.2597  0.6260  0.1249
  111MOL0     H14941   3.493   5.022   9.732  0.0220  0.1534 -1.0871
  111MOL0     H14942   3.397   4.997   9.885  0.0972  1.1604 -0.0970
  111MOL0     H14943   3.507   5.223   9.873  0.2675  0.1947  0.6022
  111MOL0     H14944   3.327   5.235   9.869 -0.7159 -0.3213 -1.5684
  111MOL0     H14945   3.420   5.380   9.465  1.5723  1.1280 -0.5362
  111MOL0     H14946   3.436   5.619   9.420 -0.5088 -0.8879 -1.1472
  111MOL0     H14947   3.600   6.042   9.640 -1.5573 -1.1561 -0.6477
  111MOL0     H14948   3.712   6.247   9.560 -2.0980  1.2000  0.0292
  111MOL0     H14949   3.860   6.285   9.178  0.5357  0.1638  2.5128
  111MOL0     H14950   3.715   6.358   9.112 -0.9298 -1.0461  1.2453
  111MOL0     H14951   3.959   6.477   9.263  0.6809  1.5564 -0.6903
  111MOL0     H14952   3.920   6.511   9.102 -1.0735  0.0166 -0.0002
  111MOL0     H14953   3.714   6.618   9.169 -0.1424  0.6204 -1.3124
  111MOL0     H14954   3.785   6.622   9.339  1.4927  0.5258 -0.1171
  111MOL0     H14955   3.847   6.747   9.060  0.0076 -0.6577 -0.5382
  111MOL0     H14956   3.979   6.732   9.177  0.0622 -1.3905 -0.8493
  111MOL0     H14957   3.713   6.876   9.248 -0.2738  0.5228  0.5251
  111MOL0     H14958   3.822   6.968   9.151 -0.3402  0.2319 -0.4709
  111MOL0     H14959   3.939   6.840   9.403  2.2776  1.5560  1.7008
  111MOL0     H14960   4.001   6.974   9.308 -0.7539  2.0932  1.4314
  111MOL0     H14961   3.752   6.970   9.477 -0.8715  0.6484 -1.7670
  111MOL0     H14962   3.789   7.101   9.366 -3.0135 -2.4805 -1.1952
  111MOL0     H14963   3.952   6.995   9.604 -2.1936 -1.5529 -2.3464
  111MOL0     H14964   4.025   7.109   9.505 -0.2084 -0.2113 -1.3825
  111MOL0     H14965   3.604   6.146   9.157 -3.4265  0.0083 -0.2943
  111MOL0     H14966   3.466   5.968   9.237 -0.7352  1.9501 -0.7239
  111MOL0     H14967   3.417   5.692   9.848 -1.7420  1.7271 -0.4841
  111MOL0     H14968   3.424   5.450   9.893  0.5033  2.3367  1.3338
  111MOL0     H14969   2.283   4.675  10.249  2.9794 -0.5450  1.5617
  111MOL0     H14970   2.131   4.665  10.453  1.6884  1.2875  0.4566
  111MOL0     H14971   1.876   4.458  10.748 -0.6306  1.2539  0.0320
  111MOL0     H14972   1.713   4.411  10.895  2.7348 -1.8412 -0.5091
  111MOL0     H14973   1.566   4.278  11.017 -1.6548 -0.6255  1.9907
  111MOL0     H14974   1.398   4.287  11.032 -0.3464  0.2912  0.6731
  111MOL0     H14975   1.529   4.543  10.931  1.0796 -0.1934 -0.5417
  111MOL0     H14976   1.555   4.492  11.093  2.9063 -1.1102 -1.7697
  111MOL0     H14977   1.319   4.459  11.131 -0.2689  0.3515 -1.3628
  111MOL0     H14978   1.278   4.528  10.965  2.8035  1.6936 -3.1137
  111MOL0     H14979   1.387   4.655  11.215 -1.7292 -2.4526  0.0402
  111MOL0     H14980   1.426   4.719  11.056 -0.5228 -0.5443 -2.8609
  111MOL0     H14981   1.029   4.857  11.102  1.4900  0.3704  0.1534
  111MOL0     H14982   1.433   4.317  10.578  2.0906 -2.4319 -1.6232
  111MOL0     H14983   1.599   4.431  10.313  2.1110  0.8927  1.9645
  111MOL0     H14984   1.674   4.280  10.318  0.5552  0.6473  2.1423
  111MOL0     H14985   1.504   4.282  10.358  0.1303 -0.8474  0.1483
  112MOL0     O14986   3.733   6.860   1.733  0.4820 -0.2008 -0.0406
  112MOL0     C14987   3.736   6.930   1.832 -0.0063 -0.4035 -0.6080
  112MOL0     O14988   3.643   7.012   1.862 -0.3274  0.7988  0.2572
  112MOL0     C14989   3.532   7.027   1.776  0.5942 -0.4323  0.5045
  112MOL0     C14990   3.545   7.055   1.632 -0.0332 -0.3348 -0.4682
  112MOL0     C14991   3.439   7.068   1.549  0.0277 -0.7986  0.1678
  112MOL0     C14992   3.309   7.050   1.599 -0.1376 -0.0417  0.7612
  112MOL0     O14993   3.194   7.056   1.520  0.1105  0.1837 -0.3900
  112MOL0     C14994   3.124   7.185   1.516 -1.6747  0.1887 -0.0719
  112MOL0     C14995   2.977   7.167   1.474 -0.0227 -1.0369 -0.0076
  112MOL0     C14996   2.931   7.315   1.455 -0.5509  0.5355 -0.6348
  112MOL0     C14997   2.868   7.323   1.317 -0.0738 -1.1333  0.0528
  112MOL0     C14998   2.809   7.472   1.302 -0.0407 -0.2361  0.1500
  112MOL0     C14999   2.752   7.501   1.162 -0.3465  0.1032 -0.5491
  112MOL0     C15000   2.639   7.404   1.115  0.4683 -0.3048  0.1729
  112MOL0     C15001   2.498   7.439   1.178  0.2736  0.4524 -0.4843
  112MOL0     N15002   2.456   7.335   1.283 -0.9529  0.8401  0.4516
  112MOL0     C15003   2.358   7.245   1.254 -0.6910 -0.1812  0.3808
  112MOL0     C15004   2.336   7.184   1.369  0.0444 -0.2156  0.2655
  112MOL0     C15005   2.235   7.074   1.390  0.0872 -0.1562  0.2519
  112MOL0     C15006   2.300   6.937   1.398  0.3926 -0.6867  0.3775
  112MOL0     C15007   2.190   6.839   1.453 -0.8713  0.3087  0.5267
  112MOL0     C15008   2.260   6.715   1.519 -0.0890 -0.5662 -1.0466
  112MOL0     O15009   2.360   6.679   1.416  0.0309  0.0893  0.7061
  112MOL0     C15010   2.473   6.601   1.446 -0.1589 -0.2716 -1.0176
  112MOL0     C15011   2.561   6.587   1.343 -0.3657 -0.0376 -0.0201
  112MOL0     C15012   2.675   6.509   1.358  0.2190 -0.6838  0.2955
  112MOL0     C15013   2.699   6.446   1.484  0.4478 -0.4326  0.4763
  112MOL0     C15014   2.826   6.372   1.494  0.1130 -0.3639  0.0833
  112MOL0     O15015   2.881   6.324   1.378 -0.8794 -0.3299  0.3935
  112MOL0     C15016   2.988   6.239   1.381 -0.2691 -0.5122 -0.5455
  112MOL0     C15017   3.108   6.273   1.437 -0.8855 -1.0839  0.9378
  112MOL0     C15018   3.209   6.182   1.434 -0.0755  0.3728  1.0339
  112MOL0     C15019   3.191   6.057   1.380 -0.8061  0.2986 -0.4165
  112MOL0     O15020   3.300   5.967   1.393 -0.3133  0.2353  0.3411
  112MOL0     C15021   3.261   5.835   1.394  0.3002 -0.5670  0.2149
  112MOL0     C15022   3.384   5.762   1.434 -0.2417  0.4015  1.4186
  112MOL0     C15023   3.367   5.604   1.439  0.2954 -1.2360 -0.0386
  112MOL0     C15024   3.493   5.536   1.497  0.1516  0.8827  0.7742
  112MOL0     C15025   3.469   5.379   1.484 -0.1256 -0.6753 -0.2290
  112MOL0     C15026   3.585   5.287   1.533 -0.7472  0.1645  0.6778
  112MOL0     C15027   3.543   5.140   1.559  0.1632  0.6057  0.1235
  112MOL0     C15028   3.486   5.067   1.439  0.5798 -0.5667  0.2013
  112MOL0    Cl15029   3.609   5.007   1.312 -0.0182 -0.0821 -0.0473
  112MOL0     C15030   3.074   6.029   1.308  0.3302  0.7304  0.1450
  112MOL0     C15031   2.969   6.124   1.303  0.4853  0.1222  0.1843
  112MOL0     O15032   2.883   6.380   1.602  0.0255 -0.2818  0.0710
  112MOL0     C15033   2.605   6.452   1.586  0.4710 -1.2347  0.5558
  112MOL0     C15034   2.488   6.522   1.566  0.1580 -1.1202  0.1204
  112MOL0     N15035   2.419   7.243   1.471  1.0109  0.6444  0.4847
  112MOL0     N15036   2.504   7.320   1.406  0.3653 -0.3809 -0.0622
  112MOL0     C15037   3.288   7.012   1.737  0.4030 -0.6489 -0.0898
  112MOL0     C15038   3.399   7.006   1.827 -0.7753  0.0600  0.2816
  112MOL0     C15039   3.846   6.898   1.929  0.2835 -0.1881  0.5007
  112MOL0     C15040   3.838   6.958   2.057 -0.3116 -1.1517  0.9284
  112MOL0     C15041   3.937   6.953   2.148  0.2646 -0.8036 -0.4699
  112MOL0     C15042   4.047   6.870   2.124 -0.8162 -0.2435  0.4177
  112MOL0     O15043   4.151   6.839   2.207 -0.0366  0.2679 -0.4270
  112MOL0     C15044   4.178   6.916   2.321 -0.2169  0.2148  0.6481
  112MOL0     C15045   4.248   6.822   2.423  0.4615 -0.4895 -0.0560
  112MOL0     C15046   4.393   6.777   2.392  0.3646 -0.3593 -0.2551
  112MOL0     C15047   4.489   6.887   2.355 -0.0313 -0.7431  0.5270
  112MOL0     C15048   4.630   6.842   2.347  0.5615 -0.3318  0.6360
  112MOL0     C15049   4.741   6.804   2.326  1.7013 -0.1039  0.4467
  112MOL0     C15050   4.047   6.791   2.009  0.2394 -0.6169  0.2190
  112MOL0     C15051   3.944   6.795   1.917 -0.0799  0.2631  0.5888
  112MOL0     C15052   3.952   6.697   1.801  0.8260  0.4174 -0.2856
  112MOL0     H15053   3.649   7.048   1.599 -0.1289 -2.7935 -0.4482
  112MOL0     H15054   3.448   7.095   1.444 -0.8650 -1.8080 -0.1897
  112MOL0     H15055   3.130   7.241   1.610  0.7190 -1.1536  0.6808
  112MOL0     H15056   3.187   7.226   1.436 -3.9157  1.5711 -1.2222
  112MOL0     H15057   2.925   7.118   1.557 -0.0760 -1.0393 -0.0420
  112MOL0     H15058   2.966   7.088   1.399 -1.2226 -1.2215  0.3428
  112MOL0     H15059   3.016   7.380   1.478 -1.8141  1.7586  0.7403
  112MOL0     H15060   2.853   7.346   1.524 -1.3338 -1.2605 -0.6677
  112MOL0     H15061   2.944   7.320   1.238 -2.7917 -0.2955 -2.8311
  112MOL0     H15062   2.797   7.240   1.308  1.5024 -2.3952 -1.5507
  112MOL0     H15063   2.743   7.495   1.387 -1.2978  0.2564 -0.9205
  112MOL0     H15064   2.890   7.545   1.308 -0.6365  0.6051 -1.4743
  112MOL0     H15065   2.722   7.604   1.183  2.1999  0.7405  0.3343
  112MOL0     H15066   2.818   7.513   1.076  0.3478 -0.7052 -0.1401
  112MOL0     H15067   2.670   7.300   1.131  3.6034  0.5822  0.6178
  112MOL0     H15068   2.627   7.412   1.006  1.6173  2.4840  0.1690
  112MOL0     H15069   2.497   7.536   1.229  0.3963 -0.4175  1.2632
  112MOL0     H15070   2.433   7.449   1.091 -3.7460  1.2419  2.3352
  112MOL0     H15071   2.321   7.230   1.153  1.5369  0.0136 -0.5191
  112MOL0     H15072   2.176   7.083   1.482  2.0481 -2.0888  1.7904
  112MOL0     H15073   2.164   7.081   1.307 -0.1375  3.4815  0.5834
  112MOL0     H15074   2.332   6.892   1.303 -2.5190 -1.9153 -0.1343
  112MOL0     H15075   2.389   6.951   1.461 -1.0241  1.6621  2.0116
  112MOL0     H15076   2.136   6.805   1.365  0.0256  0.6868 -0.1804
  112MOL0     H15077   2.119   6.879   1.526 -0.7566 -3.2625  2.8423
  112MOL0     H15078   2.189   6.634   1.542 -2.1548  1.8429  1.8435
  112MOL0     H15079   2.307   6.748   1.612 -0.3785 -1.4873 -0.5589
  112MOL0     H15080   2.543   6.641   1.250  3.7870  1.6773 -0.0315
  112MOL0     H15081   2.745   6.493   1.278  1.0850  1.6572  0.4967
  112MOL0     H15082   3.132   6.374   1.469 -3.1148 -0.3650  0.5179
  112MOL0     H15083   3.306   6.212   1.473 -0.8538  1.7546  1.9703
  112MOL0     H15084   3.183   5.816   1.468 -0.6606  2.7226  0.1945
  112MOL0     H15085   3.237   5.800   1.293  0.1007 -1.2658  0.4967
  112MOL0     H15086   3.462   5.786   1.361 -1.5418  0.7915  0.1218
  112MOL0     H15087   3.408   5.794   1.536 -2.1697 -1.7532  2.6361
  112MOL0     H15088   3.283   5.591   1.508  0.1741  2.2285  0.6402
  112MOL0     H15089   3.328   5.562   1.346  2.7742 -1.4015 -1.0956
  112MOL0     H15090   3.514   5.564   1.600  1.7604  1.1693  0.3809
  112MOL0     H15091   3.586   5.562   1.447 -1.3865  0.4501 -2.6309
  112MOL0     H15092   3.443   5.361   1.380  1.1859  2.2183 -1.1429
  112MOL0     H15093   3.391   5.365   1.560  0.0536  1.7840  0.4765
  112MOL0     H15094   3.663   5.280   1.456 -0.1197 -5.0022  1.3992
  112MOL0     H15095   3.630   5.332   1.621  2.6066 -2.3848  0.4889
  112MOL0     H15096   3.468   5.133   1.638 -0.9424  2.0103 -0.7444
  112MOL0     H15097   3.634   5.086   1.589 -0.0700 -0.1508 -0.5263
  112MOL0     H15098   3.429   4.980   1.474 -1.2715  0.5647  0.1597
  112MOL0     H15099   3.411   5.134   1.396  0.1508  0.4017  2.3454
  112MOL0     H15100   3.072   5.936   1.252 -1.5360  0.4261  0.6610
  112MOL0     H15101   2.892   6.119   1.227  2.8174  3.0695 -2.6557
  112MOL0     H15102   2.625   6.396   1.677  1.6403 -2.6317 -0.5200
  112MOL0     H15103   2.411   6.521   1.642  1.4066  2.3520  1.6012
  112MOL0     H15104   3.183   7.006   1.765  0.6095 -1.1031  0.6276
  112MOL0     H15105   3.389   6.985   1.933  1.0748 -0.4521  0.3956
  112MOL0     H15106   3.764   7.034   2.078  0.7008  0.1919 -0.1563
  112MOL0     H15107   3.930   7.012   2.239  2.4327 -0.7945 -0.2475
  112MOL0     H15108   4.091   6.960   2.372 -0.1776 -1.3438  2.1678
  112MOL0     H15109   4.233   7.006   2.294 -2.4803  1.3916 -0.3218
  112MOL0     H15110   4.192   6.731   2.443  0.3034  0.0280  2.1527
  112MOL0     H15111   4.247   6.865   2.524 -2.2477 -1.5390  0.4385
  112MOL0     H15112   4.392   6.694   2.321 -3.0097 -1.0813  0.4953
  112MOL0     H15113   4.431   6.738   2.487  1.0837 -1.6170 -1.0278
  112MOL0     H15114   4.470   6.925   2.254  2.0506  1.6662  0.9218
  112MOL0     H15115   4.474   6.974   2.420  0.6695 -0.7591  0.7185
  112MOL0     H15116   4.846   6.780   2.325  1.4506 -1.2745 -0.9964
  112MOL0     H15117   4.125   6.717   1.987  0.3639 -0.8386  1.3795
  112MOL0     H15118   3.982   6.751   1.711  3.1333  1.2683  0.9008
  112MOL0     H15119   4.017   6.610   1.818  0.2851 -0.0139 -0.4285
  112MOL0     H15120   3.856   6.653   1.775  1.2059 -0.4199 -0.3114
  113MOL0     O15121   4.250   5.753   8.585 -0.3635  0.5366 -0.3609
  113MOL0     C15122   4.202   5.650   8.638  0.7254 -1.1743 -0.0619
  113MOL0     O15123   4.173   5.634   8.772 -0.6513  0.0560  0.5556
  113MOL0     C15124   4.236   5.704   8.875  0.2215 -0.5822 -0.5516
  113MOL0     C15125   4.359   5.776   8.874  0.8125 -1.1618 -0.4875
  113MOL0     C15126   4.423   5.825   8.997  0.2337  0.0862  1.0770
  113MOL0     C15127   4.364   5.797   9.121 -0.6968 -0.0464 -0.2852
  113MOL0     O15128   4.427   5.832   9.238  0.0484 -0.4235 -0.2562
  113MOL0     C15129   4.342   5.894   9.340 -1.1345 -0.4232  0.6505
  113MOL0     C15130   4.417   6.009   9.410 -0.0281 -0.4878  0.3004
  113MOL0     C15131   4.464   6.126   9.311 -0.0701 -0.0873  0.2646
  113MOL0     C15132   4.519   6.240   9.408 -0.0423 -0.3802 -0.3476
  113MOL0     C15133   4.547   6.368   9.323  0.1431 -0.2015  0.7294
  113MOL0     C15134   4.586   6.475   9.414 -0.4416 -0.7250  0.2143
  113MOL0     C15135   4.604   6.610   9.342  0.0965 -0.4675 -0.3388
  113MOL0     C15136   4.650   6.695   9.467 -0.9801 -0.4270  0.7558
  113MOL0     N15137   4.692   6.829   9.419  0.2385 -0.1355  1.2339
  113MOL0     C15138   4.763   6.839   9.299 -0.7711  0.9217  0.0351
  113MOL0     C15139   4.797   6.972   9.292  0.0364 -0.7512  0.2373
  113MOL0     C15140   4.869   7.042   9.175  0.8640 -0.1950  0.1610
  113MOL0     C15141   4.799   7.032   9.040  0.2732  0.0484  0.4070
  113MOL0     C15142   4.873   7.117   8.935 -0.1478  0.0014  0.5514
  113MOL0     C15143   4.809   7.132   8.799  0.5412  0.2866 -0.1133
  113MOL0     O15144   4.680   7.196   8.820 -0.2297  0.1150 -0.0440
  113MOL0     C15145   4.599   7.223   8.716 -1.1537 -0.1754  0.0488
  113MOL0     C15146   4.476   7.266   8.748  1.1960 -0.1338  0.4132
  113MOL0     C15147   4.390   7.304   8.641  0.6073 -0.8288  0.1086
  113MOL0     C15148   4.419   7.290   8.501 -0.0571  0.0390 -0.1566
  113MOL0     C15149   4.329   7.325   8.394  0.1344  0.3993 -0.4917
  113MOL0     O15150   4.216   7.400   8.433  0.1986  0.4849  0.8561
  113MOL0     C15151   4.149   7.461   8.336  0.3948 -0.1351 -0.3022
  113MOL0     C15152   4.172   7.599   8.322 -0.1109 -1.0514  0.5254
  113MOL0     C15153   4.110   7.673   8.226  1.4120  0.0513 -0.4630
  113MOL0     C15154   4.005   7.615   8.141  0.9185 -0.5866 -0.9746
  113MOL0     O15155   3.937   7.695   8.052  0.5299 -0.7280 -0.4286
  113MOL0     C15156   3.834   7.648   7.968 -0.4974  0.3507 -0.3493
  113MOL0     C15157   3.718   7.743   7.965 -0.6444  0.5216  0.4524
  113MOL0     C15158   3.639   7.757   8.097 -0.8013 -0.7228  0.3787
  113MOL0     C15159   3.600   7.629   8.164  0.1912  0.2195 -0.8457
  113MOL0     C15160   3.519   7.639   8.297  0.1732 -0.7632  0.3654
  113MOL0     C15161   3.580   7.740   8.399  0.4690  0.1638  0.0678
  113MOL0     C15162   3.704   7.687   8.469 -0.3776 -0.4635 -0.2443
  113MOL0     C15163   3.778   7.792   8.545  0.2253 -0.1233 -0.4492
  113MOL0    Cl15164   3.948   7.748   8.550 -0.5971  0.0845 -0.0268
  113MOL0     C15165   3.971   7.479   8.175  0.1021  0.4638  0.1305
  113MOL0     C15166   4.049   7.405   8.259 -0.3076 -0.5891 -0.6859
  113MOL0     O15167   4.353   7.293   8.276  0.1749  0.3866  0.4581
  113MOL0     C15168   4.558   7.260   8.473  0.1195 -0.4322 -0.2484
  113MOL0     C15169   4.642   7.230   8.583 -0.1811 -0.5444 -0.3940
  113MOL0     N15170   4.750   7.035   9.405 -0.0484 -0.3863 -0.7634
  113MOL0     N15171   4.694   6.944   9.484 -0.5128 -0.3485  0.6555
  113MOL0     C15172   4.245   5.719   9.123 -0.6775 -0.3029 -0.4108
  113MOL0     C15173   4.182   5.680   9.012  0.2133 -0.5881  0.0265
  113MOL0     C15174   4.165   5.552   8.540  0.2324 -1.0027  0.5932
  113MOL0     C15175   4.237   5.539   8.419  0.2047  0.9627 -0.0171
  113MOL0     C15176   4.205   5.435   8.331  0.3124 -0.3380 -0.5479
  113MOL0     C15177   4.106   5.347   8.361  0.0685 -0.5385  0.6588
  113MOL0     O15178   4.089   5.251   8.263 -0.5511 -1.6644 -0.5392
  113MOL0     C15179   4.077   5.112   8.306  0.6543 -0.7897  0.7284
  113MOL0     C15180   3.944   5.045   8.260  0.2277  0.3658 -0.5734
  113MOL0     C15181   3.956   4.946   8.139  0.3563 -0.5059  0.1316
  113MOL0     C15182   3.816   4.881   8.107 -0.2307 -0.2973 -0.0325
  113MOL0     C15183   3.853   4.759   8.041 -0.8499  0.2139 -0.5521
  113MOL0     C15184   3.897   4.674   7.976  0.4690 -0.2376 -0.3257
  113MOL0     C15185   4.047   5.350   8.489 -0.2766  0.5708  0.4778
  113MOL0     C15186   4.056   5.465   8.565 -0.4010  0.4940  0.5731
  113MOL0     C15187   3.970   5.464   8.690 -0.6687  0.4147 -0.2130
  113MOL0     H15188   4.394   5.798   8.773 -2.0083 -0.1713 -1.3443
  113MOL0     H15189   4.513   5.887   8.993  0.4561 -0.1716 -3.5704
  113MOL0     H15190   4.257   5.944   9.292  1.0267  2.3876 -0.4992
  113MOL0     H15191   4.312   5.824   9.419 -2.6159  0.3476  0.8029
  113MOL0     H15192   4.499   5.971   9.473  0.9031  3.6204  1.9031
  113MOL0     H15193   4.347   6.054   9.481  2.1131 -0.1276  2.3277
  113MOL0     H15194   4.375   6.167   9.263  1.9184  2.5238 -1.4118
  113MOL0     H15195   4.541   6.086   9.244  0.7220  1.3498  0.2809
  113MOL0     H15196   4.450   6.268   9.489  1.5470  3.1074 -0.0166
  113MOL0     H15197   4.615   6.197   9.437  2.6083  1.7471 -4.9061
  113MOL0     H15198   4.629   6.354   9.252 -0.7787 -0.6950 -0.2756
  113MOL0     H15199   4.456   6.382   9.263  0.1777  0.2933  0.7816
  113MOL0     H15200   4.515   6.478   9.497 -1.2947 -1.6894 -0.4585
  113MOL0     H15201   4.684   6.446   9.454 -1.0771 -0.4891  2.0503
  113MOL0     H15202   4.513   6.651   9.297 -0.9124 -1.6216  0.5884
  113MOL0     H15203   4.685   6.601   9.270 -0.1413 -0.5745 -0.5948
  113MOL0     H15204   4.567   6.701   9.538 -2.3355  4.1837 -0.8488
  113MOL0     H15205   4.736   6.643   9.509 -1.4798 -0.8433  1.2695
  113MOL0     H15206   4.779   6.770   9.217 -0.7916 -0.3283  1.0449
  113MOL0     H15207   4.884   7.148   9.196  0.5613  0.0672 -0.8630
  113MOL0     H15208   4.967   6.994   9.176  0.5729 -0.8459  2.4928
  113MOL0     H15209   4.787   6.929   9.006  0.1849 -1.0367  3.4472
  113MOL0     H15210   4.696   7.066   9.057  0.4789  0.9150 -0.0330
  113MOL0     H15211   4.974   7.079   8.913  1.5527  4.0443  0.3937
  113MOL0     H15212   4.876   7.224   8.959 -0.9657  0.2181 -0.2666
  113MOL0     H15213   4.789   7.040   8.745  1.2207  0.5219 -0.7818
  113MOL0     H15214   4.876   7.200   8.744  1.1336  1.6351  2.1254
  113MOL0     H15215   4.437   7.273   8.849 -3.5823  0.2370 -1.2107
  113MOL0     H15216   4.289   7.334   8.667  0.2438 -1.8076 -0.1141
  113MOL0     H15217   4.245   7.649   8.385  1.3266  0.8072 -2.3721
  113MOL0     H15218   4.133   7.779   8.220  4.6949 -0.4317  1.3483
  113MOL0     H15219   3.860   7.651   7.861  0.2943  3.1955 -0.1569
  113MOL0     H15220   3.811   7.542   7.985  1.5954 -0.3076 -1.2316
  113MOL0     H15221   3.747   7.843   7.931 -1.8817  0.5499 -0.6274
  113MOL0     H15222   3.644   7.706   7.893 -0.6394  0.7528  0.3274
  113MOL0     H15223   3.695   7.828   8.159  1.5571 -1.1719 -1.0848
  113MOL0     H15224   3.541   7.798   8.074  0.0436  0.3245 -1.6422
  113MOL0     H15225   3.685   7.562   8.184  0.4048  0.9130  0.6956
  113MOL0     H15226   3.535   7.573   8.095 -1.4641 -0.7569  1.3943
  113MOL0     H15227   3.517   7.539   8.343 -0.3719 -1.5114 -1.2198
  113MOL0     H15228   3.420   7.674   8.265  1.0436  0.4988 -1.0610
  113MOL0     H15229   3.597   7.839   8.354  0.3986 -0.0772 -0.4946
  113MOL0     H15230   3.513   7.745   8.486 -0.7526 -2.7411 -0.6121
  113MOL0     H15231   3.763   7.645   8.387  0.4541 -0.2049  0.2206
  113MOL0     H15232   3.669   7.606   8.534 -2.0736  1.0516  0.8471
  113MOL0     H15233   3.779   7.892   8.501 -2.0183  0.5836  0.8959
  113MOL0     H15234   3.731   7.806   8.643 -3.8457 -0.9231 -2.0652
  113MOL0     H15235   3.899   7.422   8.118  0.4186  1.2668 -1.1230
  113MOL0     H15236   4.005   7.309   8.282  0.4921 -0.7469  0.2232
  113MOL0     H15237   4.597   7.251   8.373  1.6672  3.4093 -0.1604
  113MOL0     H15238   4.746   7.201   8.572 -0.3400 -2.7931  2.7572
  113MOL0     H15239   4.190   5.686   9.210  1.1896  1.7644  1.7004
  113MOL0     H15240   4.082   5.639   9.026 -0.9253  2.5405  2.0182
  113MOL0     H15241   4.315   5.606   8.383  0.6576  0.1705 -0.5328
  113MOL0     H15242   4.262   5.419   8.240  0.4347 -2.0692 -0.1947
  113MOL0     H15243   4.107   5.101   8.411  1.2356  2.1133  0.9411
  113MOL0     H15244   4.149   5.045   8.259  0.2043 -1.5692  1.1337
  113MOL0     H15245   3.876   5.129   8.242 -1.0015  0.2326  2.7809
  113MOL0     H15246   3.900   4.990   8.343  0.3497  0.8421 -0.1863
  113MOL0     H15247   4.024   4.869   8.175  0.5968 -1.6000 -2.5005
  113MOL0     H15248   3.998   4.997   8.052 -2.0563 -0.1788 -0.9360
  113MOL0     H15249   3.764   4.859   8.200  2.6279  1.4485  2.1383
  113MOL0     H15250   3.752   4.943   8.044 -0.9500  1.3608  2.1999
  113MOL0     H15251   3.934   4.590   7.922 -2.5952 -0.7214 -1.8896
  113MOL0     H15252   3.985   5.262   8.509  0.4628 -0.6017 -1.9431
  113MOL0     H15253   3.891   5.389   8.687 -2.1677  1.8616  1.4007
  113MOL0     H15254   4.027   5.449   8.783  0.9925  1.9032 -0.9183
  113MOL0     H15255   3.928   5.565   8.692 -2.7520 -0.3907  2.4948
  114MOL0     O15256   3.737   7.735   1.959 -0.8234  0.1582  0.5466
  114MOL0     C15257   3.670   7.836   1.930 -0.3549  0.9669 -1.1120
  114MOL0     O15258   3.691   7.915   1.818 -0.2080  0.6855 -0.1158
  114MOL0     C15259   3.800   7.892   1.748 -0.7756 -0.3203  0.0760
  114MOL0     C15260   3.803   7.911   1.610 -0.5921  0.0030  0.0779
  114MOL0     C15261   3.917   7.891   1.534  0.0571  0.7009  0.2270
  114MOL0     C15262   4.036   7.870   1.600  0.8624 -0.3989  0.6322
  114MOL0     O15263   4.155   7.854   1.530  0.6763 -0.2807  0.0538
  114MOL0     C15264   4.148   7.752   1.434 -0.0810  0.0409 -0.2225
  114MOL0     C15265   4.279   7.685   1.432 -0.4440 -0.0774  0.3132
  114MOL0     C15266   4.290   7.534   1.445 -0.7128  0.5736  0.5931
  114MOL0     C15267   4.439   7.479   1.454 -0.1393  0.2646 -1.3314
  114MOL0     C15268   4.440   7.333   1.464  0.5633  1.1758 -0.4638
  114MOL0     C15269   4.586   7.286   1.483  0.2671  0.5642 -0.1656
  114MOL0     C15270   4.599   7.134   1.463  0.3126 -1.1180  0.3356
  114MOL0     C15271   4.737   7.093   1.423  0.3069  0.7909 -0.4682
  114MOL0     N15272   4.742   6.948   1.423 -1.1361  0.8478 -0.2523
  114MOL0     C15273   4.821   6.869   1.503 -0.0410  0.3950  0.2186
  114MOL0     C15274   4.796   6.739   1.467  0.7147  0.3099 -0.7744
  114MOL0     C15275   4.874   6.615   1.517 -0.5744 -0.3434 -0.4506
  114MOL0     C15276   4.894   6.496   1.416 -0.5812  0.0560 -0.6575
  114MOL0     C15277   4.771   6.413   1.393 -0.4205  0.3468  0.6839
  114MOL0     C15278   4.790   6.320   1.285  0.5242 -0.7004 -0.0141
  114MOL0     O15279   4.892   6.226   1.330 -0.4864 -0.1872  0.3502
  114MOL0     C15280   4.933   6.147   1.229  0.7810  0.7980  0.1070
  114MOL0     C15281   4.907   6.153   1.091 -0.0171  0.0852  0.3575
  114MOL0     C15282   4.972   6.059   1.010  0.8809  0.6135 -0.1006
  114MOL0     C15283   5.038   5.941   1.057  0.2615 -0.7267 -0.0161
  114MOL0     C15284   5.087   5.841   0.962 -0.1070  0.1260  0.5201
  114MOL0     O15285   5.124   5.717   1.015  0.0419  0.4675  0.3143
  114MOL0     C15286   5.194   5.625   0.953 -0.3278  0.3015 -0.0558
  114MOL0     C15287   5.170   5.495   0.984  0.6193  0.1409 -0.3947
  114MOL0     C15288   5.231   5.396   0.908 -0.4909 -1.7157 -1.0611
  114MOL0     C15289   5.337   5.429   0.820  0.4822  0.3379  0.6259
  114MOL0     O15290   5.402   5.335   0.755 -0.9163  0.0461 -0.2842
  114MOL0     C15291   5.362   5.193   0.757  0.4420  0.0908 -0.6033
  114MOL0     C15292   5.452   5.111   0.671 -0.4277  0.5131  0.4550
  114MOL0     C15293   5.594   5.105   0.738 -0.0538  0.3071 -0.0787
  114MOL0     C15294   5.714   5.079   0.650 -0.5334 -0.5657 -0.5539
  114MOL0     C15295   5.847   5.110   0.715 -0.9747 -0.6915 -0.4046
  114MOL0     C15296   5.971   5.062   0.634 -0.1847 -0.3777  0.4169
  114MOL0     C15297   6.093   5.099   0.712 -0.5871  0.3598  0.8635
  114MOL0     C15298   6.218   5.043   0.628  0.5965 -0.1890  1.0533
  114MOL0    Cl15299   6.212   5.094   0.451 -0.3734  0.4252  0.0403
  114MOL0     C15300   5.366   5.564   0.808  0.2494  0.5339  0.8504
  114MOL0     C15301   5.290   5.665   0.867 -0.0709  0.9690  0.9924
  114MOL0     O15302   5.093   5.876   0.846 -0.1376  0.0343  0.3247
  114MOL0     C15303   5.054   5.943   1.200 -0.7881  0.0856  0.3074
  114MOL0     C15304   5.008   6.046   1.279 -0.3180 -0.3085  0.3655
  114MOL0     N15305   4.679   6.747   1.392  0.2918 -0.4900 -0.4673
  114MOL0     N15306   4.648   6.869   1.363 -0.1928  0.5062  0.1072
  114MOL0     C15307   4.040   7.874   1.737  0.3270 -0.9657 -0.8577
  114MOL0     C15308   3.925   7.893   1.812  0.2537 -0.2677 -0.0188
  114MOL0     C15309   3.552   7.867   2.022 -0.5622  0.3942  0.5893
  114MOL0     C15310   3.499   7.996   2.006  0.5219 -0.2847 -0.4418
  114MOL0     C15311   3.398   8.050   2.083  1.0223  0.2777 -0.0674
  114MOL0     C15312   3.338   7.969   2.177  0.7923  1.1279  1.1427
  114MOL0     O15313   3.236   8.018   2.248 -0.1144  0.4798 -0.3289
  114MOL0     C15314   3.269   8.022   2.394  0.4974  1.1706 -0.7419
  114MOL0     C15315   3.148   8.074   2.464  0.2781 -0.0951  0.9457
  114MOL0     C15316   3.143   8.037   2.615  0.6711  1.0147  0.4795
  114MOL0     C15317   3.010   8.097   2.679 -0.2660  0.6605  1.0343
  114MOL0     C15318   3.018   8.049   2.818 -0.4181  0.3183  0.4121
  114MOL0     C15319   3.013   8.029   2.939 -0.5769 -0.7943 -0.1208
  114MOL0     C15320   3.383   7.835   2.196 -0.8459  0.0995  0.4526
  114MOL0     C15321   3.496   7.780   2.123  0.2802 -1.4297  0.7222
  114MOL0     C15322   3.548   7.639   2.149 -0.4494 -0.0724  0.9120
  114MOL0     H15323   3.712   7.939   1.558 -1.4807  3.0422  2.9271
  114MOL0     H15324   3.921   7.902   1.426  0.2516  1.7724  0.3355
  114MOL0     H15325   4.068   7.683   1.461  1.1784 -2.0781 -1.5804
  114MOL0     H15326   4.109   7.788   1.338 -0.5169  2.4334  0.7994
  114MOL0     H15327   4.330   7.734   1.516  2.5148 -0.2233 -1.2363
  114MOL0     H15328   4.339   7.722   1.347  0.0839  1.2493  1.2213
  114MOL0     H15329   4.255   7.497   1.348 -1.2614  1.3468  0.4889
  114MOL0     H15330   4.227   7.494   1.525  4.1102 -0.4159  4.4106
  114MOL0     H15331   4.507   7.516   1.376  1.1854 -0.2758 -0.4589
  114MOL0     H15332   4.481   7.528   1.542  0.4017 -0.4920 -1.1617
  114MOL0     H15333   4.391   7.306   1.558 -2.5768  1.3164 -1.9279
  114MOL0     H15334   4.387   7.279   1.384 -0.4303  0.2398  0.7827
  114MOL0     H15335   4.649   7.342   1.413 -0.2611  1.0168 -0.2946
  114MOL0     H15336   4.624   7.311   1.582  1.0031 -4.2859  1.0252
  114MOL0     H15337   4.537   7.119   1.374  0.1205  1.2993 -0.0290
  114MOL0     H15338   4.551   7.088   1.549 -0.1362  1.9656  1.8888
  114MOL0     H15339   4.769   7.140   1.330  3.1954  2.7482  1.3561
  114MOL0     H15340   4.805   7.120   1.504  1.4830 -0.6669 -0.9215
  114MOL0     H15341   4.898   6.901   1.572 -1.9777  2.2591  1.6538
  114MOL0     H15342   4.971   6.650   1.552 -0.9658  0.1547  0.1441
  114MOL0     H15343   4.822   6.575   1.605 -0.3039 -0.2635 -0.2537
  114MOL0     H15344   4.938   6.527   1.320  0.1122 -2.1181 -1.1041
  114MOL0     H15345   4.964   6.429   1.466  0.9226  2.3724  0.5109
  114MOL0     H15346   4.687   6.477   1.365 -0.4523  0.3247  0.7277
  114MOL0     H15347   4.749   6.352   1.481  2.3212 -0.8674  0.6064
  114MOL0     H15348   4.822   6.375   1.196 -0.8367 -5.9867 -4.3038
  114MOL0     H15349   4.694   6.271   1.266 -0.9435  2.5796 -1.8293
  114MOL0     H15350   4.858   6.234   1.038 -0.8798 -1.1978 -0.8618
  114MOL0     H15351   4.964   6.070   0.902 -2.0935 -3.2437 -0.4742
  114MOL0     H15352   5.093   5.483   1.060 -2.3203  0.1275 -3.1746
  114MOL0     H15353   5.208   5.298   0.947 -0.6070 -1.3402 -0.1589
  114MOL0     H15354   5.374   5.147   0.856  1.9373  1.9262  0.1209
  114MOL0     H15355   5.263   5.170   0.715  1.0840 -4.9154  0.0333
  114MOL0     H15356   5.418   5.007   0.660  0.1725  0.3464  0.0932
  114MOL0     H15357   5.461   5.150   0.569 -0.1866 -0.7494 -0.0320
  114MOL0     H15358   5.609   5.201   0.788 -1.0626  1.5765 -2.1087
  114MOL0     H15359   5.589   5.026   0.815 -2.8874  1.0623  0.6308
  114MOL0     H15360   5.713   5.142   0.560  3.2725 -1.6467 -1.5396
  114MOL0     H15361   5.726   4.975   0.620  0.7238  0.1551 -2.8397
  114MOL0     H15362   5.843   5.058   0.811  1.8389 -0.3400 -0.0208
  114MOL0     H15363   5.870   5.212   0.746  2.3211 -2.1514  2.7316
  114MOL0     H15364   5.957   4.954   0.621  1.1470 -0.4588 -0.5263
  114MOL0     H15365   5.960   5.115   0.539  1.8541  0.6754  0.7072
  114MOL0     H15366   6.087   5.051   0.810  1.4445  0.1544  0.9307
  114MOL0     H15367   6.100   5.205   0.739 -1.2840  1.1652 -1.7962
  114MOL0     H15368   6.308   5.084   0.675  1.3361  2.2975 -2.1623
  114MOL0     H15369   6.230   4.934   0.630  2.9514  0.0394  1.7473
  114MOL0     H15370   5.448   5.596   0.745  1.5258 -0.1041  2.1228
  114MOL0     H15371   5.309   5.770   0.845 -1.6946  1.0691 -0.0449
  114MOL0     H15372   5.121   5.872   1.248  0.2888  2.1646  2.0406
  114MOL0     H15373   5.026   6.048   1.386  1.9998  0.9596  0.0279
  114MOL0     H15374   4.137   7.869   1.785 -1.1082  2.4700  2.9915
  114MOL0     H15375   3.929   7.885   1.920  0.2458  2.3531  0.2565
  114MOL0     H15376   3.537   8.041   1.915  1.0321 -0.2766 -0.2297
  114MOL0     H15377   3.362   8.150   2.062  0.0086  0.0203  0.4114
  114MOL0     H15378   3.351   8.091   2.417 -0.3323  2.3758 -1.2692
  114MOL0     H15379   3.290   7.927   2.443  1.8118  2.0420  0.4603
  114MOL0     H15380   3.063   8.027   2.414  0.5619  1.2325 -0.8515
  114MOL0     H15381   3.136   8.181   2.449  0.3064 -0.4109 -1.9663
  114MOL0     H15382   3.229   8.066   2.676  0.1312 -0.0876  1.8497
  114MOL0     H15383   3.131   7.929   2.630  3.6305  0.7772  1.9238
  114MOL0     H15384   3.003   8.206   2.674 -0.7080  0.6669  1.7666
  114MOL0     H15385   2.922   8.043   2.640  1.2804 -2.2100  1.2357
  114MOL0     H15386   3.018   7.997   3.041 -1.1160 -0.3699  0.0444
  114MOL0     H15387   3.330   7.773   2.268 -1.1823  0.8605  0.8672
  114MOL0     H15388   3.484   7.575   2.211  0.9019 -2.2872  0.1456
  114MOL0     H15389   3.562   7.582   2.057 -0.5548 -0.7072  1.2749
  114MOL0     H15390   3.646   7.659   2.192 -0.4011 -0.4097  0.9629
  115MOL0     O15391   2.820   9.530   6.816  0.0972 -0.3196 -0.2187
  115MOL0     C15392   2.751   9.466   6.895 -0.7501 -0.5002 -0.7765
  115MOL0     O15393   2.706   9.522   7.014 -0.2241  0.2859 -0.1368
  115MOL0     C15394   2.749   9.656   7.037 -0.0610  0.1264  0.0327
  115MOL0     C15395   2.663   9.761   7.005 -0.8177 -0.5730  1.1860
  115MOL0     C15396   2.705   9.895   7.025  0.2093 -0.2107 -1.1926
  115MOL0     C15397   2.823   9.919   7.097  0.9181 -0.4503 -0.2406
  115MOL0     O15398   2.863  10.048   7.128 -0.2688 -0.4408  0.5216
  115MOL0     C15399   2.781  10.153   7.176 -0.2399  0.3543  0.4987
  115MOL0     C15400   2.868  10.279   7.169  0.6986  0.4324 -1.0393
  115MOL0     C15401   2.897  10.312   7.028 -0.2548 -0.4617  0.7364
  115MOL0     C15402   2.933  10.459   7.001 -0.2537 -0.4703  0.4023
  115MOL0     C15403   3.008  10.478   6.870 -0.4866 -0.1960 -0.2279
  115MOL0     C15404   3.117  10.600   6.882  0.5781  0.4089  0.4591
  115MOL0     C15405   3.209  10.588   6.755  0.0144  0.2769  0.2445
  115MOL0     C15406   3.265  10.715   6.699  0.0933  0.0314 -0.6827
  115MOL0     N15407   3.379  10.783   6.776  0.1770  0.4973  0.0966
  115MOL0     C15408   3.513  10.761   6.750  0.3668 -0.6228 -0.2330
  115MOL0     C15409   3.585  10.874   6.801  0.2876 -0.0626 -0.6616
  115MOL0     C15410   3.734  10.897   6.771  0.4932 -0.7975 -0.2306
  115MOL0     C15411   3.811  10.982   6.884  0.3767 -0.3854  0.1202
  115MOL0     C15412   3.956  10.992   6.859 -0.4114  0.0403  0.1506
  115MOL0     C15413   4.000  11.087   6.745 -0.2238 -0.3865  0.7899
  115MOL0     O15414   3.974  11.017   6.624 -0.6076 -0.4828 -0.1388
  115MOL0     C15415   4.009  11.083   6.506  0.2753 -0.7116 -0.8818
  115MOL0     C15416   3.913  11.155   6.436  0.0687  0.4078  0.0899
  115MOL0     C15417   3.943  11.222   6.329 -0.4631 -0.9873 -0.1919
  115MOL0     C15418   4.079  11.225   6.277  0.4625  0.3487 -0.8801
  115MOL0     C15419   4.119  11.311   6.163  0.4842  0.5177 -1.0574
  115MOL0     O15420   4.249  11.371   6.169 -0.2710  0.4962 -0.3905
  115MOL0     C15421   4.281  11.462   6.068 -0.1832  0.0589 -0.0071
  115MOL0     C15422   4.195  11.561   6.023  0.6375 -1.2544 -1.3982
  115MOL0     C15423   4.236  11.661   5.937  0.6302 -0.9729  0.9303
  115MOL0     C15424   4.366  11.666   5.888 -0.4974  0.2193 -0.9869
  115MOL0     O15425   4.393  11.773   5.802  0.0794  1.1572  0.4467
  115MOL0     C15426   4.522  11.838   5.808  0.1318 -0.4525 -0.8277
  115MOL0     C15427   4.601  11.817   5.677 -0.0706 -0.2841 -0.4590
  115MOL0     C15428   4.753  11.857   5.685 -0.0121 -0.4922  0.3094
  115MOL0     C15429   4.848  11.745   5.666 -0.1205  0.5080  0.1574
  115MOL0     C15430   4.998  11.791   5.643  0.2531 -0.3371 -0.7099
  115MOL0     C15431   5.081  11.669   5.604 -0.4409  0.4076 -0.2570
  115MOL0     C15432   5.238  11.702   5.599 -0.0329  0.6946 -1.2541
  115MOL0     C15433   5.299  11.733   5.747  0.5826 -0.5580 -0.1705
  115MOL0    Cl15434   5.298  11.587   5.853  0.1735 -0.0136 -0.2976
  115MOL0     C15435   4.456  11.565   5.930  0.5276 -0.7548  0.2267
  115MOL0     C15436   4.415  11.467   6.023  1.1318  0.3686 -0.0889
  115MOL0     O15437   4.034  11.322   6.071 -0.4889 -0.0103  0.0656
  115MOL0     C15438   4.182  11.157   6.353 -0.1965 -0.4021  0.0275
  115MOL0     C15439   4.142  11.082   6.469 -0.7528  1.8501  0.1077
  115MOL0     N15440   3.487  10.958   6.857 -0.3199  0.3520  1.3333
  115MOL0     N15441   3.373  10.902   6.847 -0.2584 -0.1409 -0.2360
  115MOL0     C15442   2.916   9.815   7.112  0.3005  0.3729 -0.5080
  115MOL0     C15443   2.878   9.687   7.087  0.3427 -0.0254  0.0951
  115MOL0     C15444   2.711   9.327   6.860  0.5394  0.1465 -0.4283
  115MOL0     C15445   2.632   9.254   6.960 -1.1773  0.3435 -0.8170
  115MOL0     C15446   2.604   9.117   6.935 -0.0833 -0.4366 -0.6886
  115MOL0     C15447   2.620   9.067   6.808 -0.5217 -0.2093 -0.1136
  115MOL0     O15448   2.576   8.947   6.786  0.4149 -0.5964  0.0972
  115MOL0     C15449   2.478   8.928   6.679 -0.0226 -0.2690  0.1948
  115MOL0     C15450   2.341   8.966   6.726 -0.1460  0.1332  0.0935
  115MOL0     C15451   2.253   9.006   6.606 -0.6539  0.3624  0.7551
  115MOL0     C15452   2.103   8.988   6.628  0.6593 -0.0991 -0.0694
  115MOL0     C15453   2.061   9.080   6.735 -0.1284 -0.4248 -0.0444
  115MOL0     C15454   2.045   9.134   6.844 -0.1851 -0.6741 -0.0878
  115MOL0     C15455   2.700   9.128   6.715  0.6190 -1.1935  0.6151
  115MOL0     C15456   2.752   9.260   6.742 -0.3477  0.7206 -0.0587
  115MOL0     C15457   2.861   9.312   6.653 -0.5073  0.1352 -0.3684
  115MOL0     H15458   2.563   9.745   6.966 -0.3467  1.6572 -1.2164
  115MOL0     H15459   2.636   9.973   6.994 -0.5063  1.0019  2.8080
  115MOL0     H15460   2.682  10.172   7.135 -1.1750 -2.8909  0.9153
  115MOL0     H15461   2.759  10.121   7.279  1.1703 -1.6210  0.2608
  115MOL0     H15462   2.962  10.280   7.224  0.3179  4.1879 -0.1670
  115MOL0     H15463   2.813  10.354   7.226  2.1617 -1.2127  2.9332
  115MOL0     H15464   2.813  10.284   6.963  0.4040 -0.8341  0.0242
  115MOL0     H15465   2.975  10.244   6.992 -2.8932 -2.3240 -1.9677
  115MOL0     H15466   2.853  10.533   6.998  0.6127  0.4403 -1.8164
  115MOL0     H15467   2.996  10.493   7.085 -1.3872  1.0661  0.6692
  115MOL0     H15468   3.066  10.388   6.845 -0.1288  0.2860 -1.1523
  115MOL0     H15469   2.936  10.505   6.792 -0.5860 -2.3163 -0.9384
  115MOL0     H15470   3.074  10.701   6.889  0.1337  0.2393  0.2479
  115MOL0     H15471   3.177  10.590   6.972  0.7860 -1.5849  0.1432
  115MOL0     H15472   3.150  10.533   6.680  1.2749  0.1381 -0.6689
  115MOL0     H15473   3.296  10.526   6.777 -2.0382 -3.3118 -0.8967
  115MOL0     H15474   3.315  10.687   6.606  0.3747 -0.9518 -0.2525
  115MOL0     H15475   3.177  10.778   6.684  0.3213  1.5517  3.2388
  115MOL0     H15476   3.563  10.672   6.715  0.4321 -0.3427 -0.8588
  115MOL0     H15477   3.780  10.801   6.747  0.2632 -0.8328 -0.5357
  115MOL0     H15478   3.730  10.963   6.683  1.4114  1.9727  1.6411
  115MOL0     H15479   3.771  11.083   6.900 -2.4392 -1.8868  4.3957
  115MOL0     H15480   3.801  10.926   6.978  2.5918 -4.1105 -1.6211
  115MOL0     H15481   4.006  10.899   6.831 -0.8324 -0.5415  1.2632
  115MOL0     H15482   4.010  11.030   6.947  0.3354  0.2824 -0.3965
  115MOL0     H15483   4.108  11.102   6.743 -0.2813  0.0159  0.5146
  115MOL0     H15484   3.939  11.176   6.764 -0.0165 -0.0326 -0.1305
  115MOL0     H15485   3.811  11.155   6.471 -0.0977  1.4456 -0.3436
  115MOL0     H15486   3.866  11.286   6.286  1.9382  1.1125 -1.6919
  115MOL0     H15487   4.096  11.561   6.068  1.2903 -2.4316  0.1196
  115MOL0     H15488   4.169  11.745   5.922 -1.3643 -2.3433  1.7577
  115MOL0     H15489   4.506  11.946   5.799 -0.5859 -0.4698  0.0329
  115MOL0     H15490   4.583  11.819   5.898  0.7754 -2.2310 -1.5936
  115MOL0     H15491   4.580  11.720   5.632 -3.5234 -1.0401  2.3262
  115MOL0     H15492   4.556  11.888   5.608  0.3396  0.9013  0.4557
  115MOL0     H15493   4.767  11.939   5.614 -1.7661 -0.4226 -0.0159
  115MOL0     H15494   4.774  11.905   5.780 -0.6459  0.2917  0.0634
  115MOL0     H15495   4.806  11.675   5.593 -1.5866 -0.7227  2.0862
  115MOL0     H15496   4.853  11.690   5.760  1.5827  1.0406  0.4156
  115MOL0     H15497   5.021  11.847   5.734 -0.7831 -0.9488 -0.0566
  115MOL0     H15498   5.009  11.868   5.566  0.9580  1.6249  1.2407
  115MOL0     H15499   5.064  11.583   5.670  0.8497 -2.0135 -2.8825
  115MOL0     H15500   5.041  11.638   5.507 -1.0840  1.1818 -0.2486
  115MOL0     H15501   5.238  11.782   5.524  0.0840 -0.5869 -2.6452
  115MOL0     H15502   5.286  11.612   5.560  0.2829  1.4818 -2.7368
  115MOL0     H15503   5.398  11.780   5.749  0.3212  0.0177  2.5203
  115MOL0     H15504   5.239  11.814   5.789 -0.3525 -1.8379  1.0877
  115MOL0     H15505   4.562  11.566   5.908  0.1022 -2.5095 -2.3387
  115MOL0     H15506   4.485  11.393   6.062 -0.7550 -1.5885 -0.2360
  115MOL0     H15507   4.287  11.161   6.326 -0.4514  0.8401 -0.9025
  115MOL0     H15508   4.231  11.039   6.515  0.6935  3.1903 -1.3176
  115MOL0     H15509   3.009   9.848   7.156 -0.6798 -0.9868  2.8923
  115MOL0     H15510   2.936   9.598   7.110  1.1982  1.0779  2.5809
  115MOL0     H15511   2.614   9.308   7.052  1.0769  0.9251 -0.6700
  115MOL0     H15512   2.545   9.071   7.014  0.4249 -0.9732 -0.6161
  115MOL0     H15513   2.474   8.823   6.650  1.6250  0.2126 -2.0478
  115MOL0     H15514   2.507   8.976   6.585 -2.8750  0.9727 -0.1794
  115MOL0     H15515   2.356   9.046   6.798  2.2836  0.0715 -0.2530
  115MOL0     H15516   2.281   8.892   6.780 -1.1437  0.1288 -0.9755
  115MOL0     H15517   2.268   8.937   6.523 -0.6567  1.3551 -0.0818
  115MOL0     H15518   2.283   9.105   6.570  3.9343  0.6744  4.5497
  115MOL0     H15519   2.052   9.007   6.533  0.9995  1.0014 -0.0475
  115MOL0     H15520   2.089   8.885   6.662  1.5561 -1.1894 -2.7497
  115MOL0     H15521   2.030   9.176   6.941  3.5106  4.2859 -1.2898
  115MOL0     H15522   2.732   9.087   6.620  2.6362 -0.0923  0.7586
  115MOL0     H15523   2.902   9.239   6.583  0.1278 -0.7202  0.8678
  115MOL0     H15524   2.821   9.394   6.593 -2.2053 -2.1366 -2.5708
  115MOL0     H15525   2.946   9.345   6.712 -0.5907 -0.1883 -0.0665
  116MOL0     O15526   2.255  10.940   2.127 -0.4266  0.4133  0.0473
  116MOL0     C15527   2.343  10.864   2.172 -0.4714  0.4961  0.1930
  116MOL0     O15528   2.472  10.853   2.120 -0.2355 -0.3547 -0.3804
  116MOL0     C15529   2.525  10.950   2.034 -0.2665 -0.1772 -0.6215
  116MOL0     C15530   2.479  11.081   2.019 -0.4661 -0.5116  0.0714
  116MOL0     C15531   2.528  11.168   1.923  0.8319  0.6460 -0.0072
  116MOL0     C15532   2.606  11.131   1.816 -0.3627  0.1017  0.6387
  116MOL0     O15533   2.633  11.204   1.698  0.2141  0.7611  0.1466
  116MOL0     C15534   2.540  11.307   1.658  0.6495 -0.1112  0.2105
  116MOL0     C15535   2.569  11.443   1.719 -1.0039  0.5730  0.5639
  116MOL0     C15536   2.506  11.565   1.656  1.1679  0.1236 -0.4571
  116MOL0     C15537   2.349  11.554   1.639 -0.3454  0.2209  0.0356
  116MOL0     C15538   2.279  11.688   1.643 -0.0674 -0.1043 -0.8212
  116MOL0     C15539   2.324  11.778   1.523 -0.9397  0.1156 -0.6948
  116MOL0     C15540   2.307  11.927   1.562  0.4962 -0.1084 -0.2608
  116MOL0     C15541   2.346  12.035   1.455  0.2819  0.5383  0.3599
  116MOL0     N15542   2.293  12.162   1.495  0.0270 -0.3028 -0.2592
  116MOL0     C15543   2.312  12.213   1.620  0.8775 -0.4964 -0.8099
  116MOL0     C15544   2.254  12.329   1.613 -0.1385 -0.5607 -0.1700
  116MOL0     C15545   2.251  12.423   1.733 -0.0016 -0.8931  1.0152
  116MOL0     C15546   2.265  12.370   1.874 -0.0073  0.0483 -0.6710
  116MOL0     C15547   2.257  12.477   1.983 -0.8096 -0.0896  0.1742
  116MOL0     C15548   2.270  12.410   2.114 -1.3279 -0.0417 -0.8972
  116MOL0     O15549   2.177  12.302   2.130 -0.2858  1.0694 -0.7547
  116MOL0     C15550   2.202  12.175   2.178 -0.8552 -0.1366 -0.4377
  116MOL0     C15551   2.313  12.142   2.253  0.2955 -0.4539 -0.0854
  116MOL0     C15552   2.332  12.017   2.307 -1.0337  0.3467 -0.4551
  116MOL0     C15553   2.233  11.926   2.303 -0.2876 -0.0567  0.4723
  116MOL0     C15554   2.251  11.806   2.382  0.3670  0.0430 -0.4437
  116MOL0     O15555   2.366  11.793   2.455 -0.6326  0.1632  0.9195
  116MOL0     C15556   2.396  11.703   2.554 -0.4773  0.8667  1.5073
  116MOL0     C15557   2.532  11.684   2.594  0.6779 -0.5153  0.4596
  116MOL0     C15558   2.559  11.596   2.698  0.3193  0.0790  0.1118
  116MOL0     C15559   2.455  11.534   2.767 -0.9008 -0.2375  0.2400
  116MOL0     O15560   2.492  11.441   2.860 -0.2292 -0.4764 -0.2039
  116MOL0     C15561   2.587  11.470   2.955  0.3176 -0.2859 -0.3978
  116MOL0     C15562   2.550  11.404   3.091 -0.9387  0.0335  0.1953
  116MOL0     C15563   2.642  11.452   3.204  0.5792 -0.3246  0.0850
  116MOL0     C15564   2.648  11.347   3.311  0.4377 -0.3159  0.1169
  116MOL0     C15565   2.748  11.382   3.415 -0.1515 -0.2741  0.4644
  116MOL0     C15566   2.759  11.273   3.522 -0.5000  0.3139  0.9059
  116MOL0     C15567   2.854  11.167   3.469  0.6871  0.2925  0.4875
  116MOL0     C15568   2.882  11.056   3.583 -0.3986  0.3850 -0.5400
  116MOL0    Cl15569   2.735  10.966   3.646 -0.0187 -0.3103 -0.0960
  116MOL0     C15570   2.327  11.549   2.725  0.1670 -0.1610 -0.1231
  116MOL0     C15571   2.297  11.633   2.625  0.2514 -0.3775  0.0889
  116MOL0     O15572   2.162  11.726   2.377 -0.0715  0.2634 -0.0271
  116MOL0     C15573   2.105  11.958   2.239  0.9562  0.1224 -0.5594
  116MOL0     C15574   2.100  12.084   2.174 -0.1878 -1.2351  0.9028
  116MOL0     N15575   2.212  12.345   1.488 -0.0701 -0.2610  0.5932
  116MOL0     N15576   2.232  12.248   1.407 -0.2071 -0.3561  0.9783
  116MOL0     C15577   2.654  11.002   1.829 -0.0906  0.1461 -0.9902
  116MOL0     C15578   2.612  10.917   1.933  0.1372  1.7979 -0.8072
  116MOL0     C15579   2.313  10.787   2.300 -0.7959 -0.1455  0.4823
  116MOL0     C15580   2.411  10.697   2.343  0.1228  0.4497  0.2103
  116MOL0     C15581   2.394  10.631   2.462  0.2102  0.6249  0.7916
  116MOL0     C15582   2.274  10.646   2.535  0.2606 -0.1201  0.1521
  116MOL0     O15583   2.271  10.566   2.645  0.4232  0.3806  0.9750
  116MOL0     C15584   2.157  10.586   2.733  0.5572 -0.1882 -0.3643
  116MOL0     C15585   2.176  10.503   2.858  0.7394 -0.4584  0.4045
  116MOL0     C15586   2.308  10.532   2.935 -1.0636 -0.6192  0.5550
  116MOL0     C15587   2.329  10.676   2.986 -0.1646  0.8174  1.1270
  116MOL0     C15588   2.221  10.731   3.057  0.3591 -0.1598  1.3360
  116MOL0     C15589   2.145  10.791   3.140 -0.6014  0.2247 -0.9304
  116MOL0     C15590   2.185  10.747   2.494 -0.1650 -1.2876 -0.1761
  116MOL0     C15591   2.195  10.817   2.373  0.1038  1.0123 -0.3291
  116MOL0     C15592   2.074  10.901   2.333  0.4929 -0.1846  0.2852
  116MOL0     H15593   2.414  11.118   2.098 -1.3391 -2.1988  0.1964
  116MOL0     H15594   2.473  11.262   1.928 -0.8028 -0.3143  1.1266
  116MOL0     H15595   2.536  11.310   1.549  0.3084 -3.3238  0.0200
  116MOL0     H15596   2.440  11.281   1.696  0.1421  0.4288 -0.7337
  116MOL0     H15597   2.677  11.456   1.712 -0.8420 -1.1447 -0.9789
  116MOL0     H15598   2.549  11.441   1.826  0.1738  0.6864  0.7959
  116MOL0     H15599   2.551  11.589   1.560 -1.0964  1.8393 -1.1604
  116MOL0     H15600   2.523  11.647   1.727  1.0535  0.5821 -0.9541
  116MOL0     H15601   2.337  11.511   1.539  0.4498 -0.7149  0.3234
  116MOL0     H15602   2.309  11.482   1.711  0.8173 -1.4342 -0.8920
  116MOL0     H15603   2.170  11.681   1.645 -0.1778  1.4134  0.6954
  116MOL0     H15604   2.316  11.737   1.734 -1.4186  1.7881 -1.2159
  116MOL0     H15605   2.429  11.762   1.497 -0.5166  1.6542 -0.0281
  116MOL0     H15606   2.265  11.734   1.442  0.1821 -4.5272  0.7117
  116MOL0     H15607   2.356  11.939   1.659  0.5148 -1.7461 -0.0305
  116MOL0     H15608   2.200  11.947   1.577  0.8240  5.8161 -2.9264
  116MOL0     H15609   2.454  12.046   1.444  1.1979 -0.9203  5.3137
  116MOL0     H15610   2.304  12.008   1.358  1.0747 -1.8567  0.5961
  116MOL0     H15611   2.356  12.156   1.701  1.7077 -1.4919 -1.9322
  116MOL0     H15612   2.337  12.487   1.711 -1.2830  0.1891 -1.1861
  116MOL0     H15613   2.158  12.479   1.721 -0.2724 -1.6883 -0.9451
  116MOL0     H15614   2.177  12.304   1.872 -0.8433  1.1007  0.3230
  116MOL0     H15615   2.359  12.314   1.881 -0.8255 -1.1959  1.0338
  116MOL0     H15616   2.157  12.520   1.985 -1.3896 -0.9397 -3.3601
  116MOL0     H15617   2.326  12.560   1.967  0.1921 -0.7146  1.1514
  116MOL0     H15618   2.247  12.483   2.192  0.2193  0.7440 -1.1311
  116MOL0     H15619   2.375  12.390   2.138 -1.6329  1.7135  2.4248
  116MOL0     H15620   2.397  12.209   2.268 -0.0280 -0.5919  2.8047
  116MOL0     H15621   2.421  12.002   2.367 -2.1139  0.7736  1.3304
  116MOL0     H15622   2.603  11.745   2.539 -1.3142  3.2671  1.7483
  116MOL0     H15623   2.664  11.575   2.716  0.1313 -0.4411  0.6383
  116MOL0     H15624   2.694  11.452   2.941  1.3073  2.9294  1.9548
  116MOL0     H15625   2.574  11.578   2.965 -1.1563 -0.3495 -1.3268
  116MOL0     H15626   2.452  11.446   3.115 -1.0656 -0.2497  0.1757
  116MOL0     H15627   2.544  11.296   3.079  0.4416 -0.2296  1.5287
  116MOL0     H15628   2.738  11.439   3.154  0.3230 -1.5441 -0.1350
  116MOL0     H15629   2.627  11.558   3.228 -1.4788 -0.9768  2.0444
  116MOL0     H15630   2.665  11.251   3.260 -1.2963 -0.3999 -0.3681
  116MOL0     H15631   2.551  11.331   3.360 -0.2421  1.9790 -0.3711
  116MOL0     H15632   2.713  11.475   3.459  2.2842  0.4250  1.0701
  116MOL0     H15633   2.849  11.400   3.378  0.6491 -0.7519  2.2905
  116MOL0     H15634   2.808  11.318   3.609 -0.6081  1.1889  0.5268
  116MOL0     H15635   2.661  11.231   3.550 -0.6282  0.7865  1.1775
  116MOL0     H15636   2.946  11.216   3.437 -1.1243  2.2692 -2.1257
  116MOL0     H15637   2.816  11.122   3.377 -4.4303  0.8428  1.9852
  116MOL0     H15638   2.963  10.988   3.552  2.1239  3.4669 -1.1962
  116MOL0     H15639   2.921  11.114   3.667 -0.6008  2.4038 -1.7852
  116MOL0     H15640   2.246  11.498   2.774 -1.4296 -0.7792 -3.1639
  116MOL0     H15641   2.191  11.632   2.602  0.5209  0.4277 -1.2980
  116MOL0     H15642   2.023  11.888   2.252 -2.1902  3.8481  1.9985
  116MOL0     H15643   2.000  12.114   2.146 -0.1613  0.3771  2.3429
  116MOL0     H15644   2.719  10.952   1.758 -0.9312 -2.5907  0.0200
  116MOL0     H15645   2.642  10.813   1.945  3.0737  2.7221  0.7490
  116MOL0     H15646   2.512  10.689   2.302  1.5268  2.7469  2.8758
  116MOL0     H15647   2.483  10.587   2.507 -0.8334  1.6696  4.2492
  116MOL0     H15648   2.073  10.529   2.692  0.1192 -1.1772  1.7988
  116MOL0     H15649   2.152  10.695   2.742  1.7000 -0.1795  0.4438
  116MOL0     H15650   2.179  10.400   2.822 -3.2123 -0.0444 -1.5932
  116MOL0     H15651   2.083  10.511   2.914  0.2529 -1.4818 -0.2423
  116MOL0     H15652   2.393  10.503   2.872 -2.7205  0.5049 -2.4026
  116MOL0     H15653   2.331  10.469   3.021  2.3147  0.1275  0.3187
  116MOL0     H15654   2.413  10.692   3.054 -0.7043  2.7409  1.4173
  116MOL0     H15655   2.341  10.745   2.902  2.3143  1.5916  2.0439
  116MOL0     H15656   2.081  10.841   3.208 -2.0279 -1.8877 -0.6142
  116MOL0     H15657   2.102  10.767   2.560  1.3541 -3.1631  2.4729
  116MOL0     H15658   2.039  10.870   2.234  0.9302  0.5010 -0.0882
  116MOL0     H15659   2.000  10.875   2.410  0.2668 -1.1630 -0.2391
  116MOL0     H15660   2.107  11.004   2.342  3.0222 -0.9708  0.8441
  117MOL0     O15661   9.653   1.634   9.579 -0.3317  0.4826  0.6268
  117MOL0     C15662   9.610   1.626   9.468  0.2784  0.5965  0.0002
  117MOL0     O15663   9.639   1.515   9.391  0.1715 -0.5674  0.2952
  117MOL0     C15664   9.710   1.422   9.444 -0.4511  0.3202 -0.5114
  117MOL0     C15665   9.846   1.418   9.423 -0.6251  0.1407 -0.0935
  117MOL0     C15666   9.932   1.307   9.453  0.0839 -0.1881 -0.9572
  117MOL0     C15667   9.873   1.191   9.513 -0.1007 -0.4686  0.7310
  117MOL0     O15668   9.938   1.082   9.549  0.3520 -0.0574  0.0396
  117MOL0     C15669  10.025   1.014   9.454 -0.8413 -0.5165  0.0953
  117MOL0     C15670  10.176   1.038   9.481 -0.3282 -0.0152  0.2453
  117MOL0     C15671  10.275   0.966   9.379  0.0870  0.1322  0.0799
  117MOL0     C15672  10.263   0.816   9.379  0.5410  0.1718 -1.0490
  117MOL0     C15673  10.394   0.753   9.310  0.6543 -0.1702  0.7794
  117MOL0     C15674  10.399   0.779   9.155 -0.5446 -0.2290  0.3329
  117MOL0     C15675  10.509   0.709   9.071 -0.7825 -0.2048 -0.2249
  117MOL0     C15676  10.529   0.556   9.079 -0.7484  0.4672 -0.9837
  117MOL0     N15677  10.594   0.492   8.966  0.2015 -0.9308 -0.1085
  117MOL0     C15678  10.539   0.495   8.839  0.4785  0.5088 -0.0682
  117MOL0     C15679  10.592   0.393   8.776 -0.3794  0.8510  0.0624
  117MOL0     C15680  10.544   0.366   8.638  0.3616 -0.2281  0.3900
  117MOL0     C15681  10.593   0.229   8.580 -0.7891  0.0375  1.0961
  117MOL0     C15682  10.555   0.200   8.441 -0.3668 -0.4303 -0.2443
  117MOL0     C15683  10.633   0.273   8.334 -0.7172 -0.7780  0.4986
  117MOL0     O15684  10.620   0.210   8.201 -0.6109 -0.2431 -0.3992
  117MOL0     C15685  10.670   0.084   8.176 -0.7579  0.6906 -0.3623
  117MOL0     C15686  10.645   0.039   8.050  0.1382 -0.2479  0.2636
  117MOL0     C15687  10.682  -0.085   8.005 -0.1768 -0.5465  0.1276
  117MOL0     C15688  10.745  -0.172   8.090 -0.3908  1.0315 -0.2414
  117MOL0     C15689  10.799  -0.305   8.041  0.3736  0.2055 -0.1451
  117MOL0     O15690  10.757  -0.350   7.923 -0.3808 -0.1279  0.1159
  117MOL0     C15691  10.835  -0.454   7.876  0.0661  0.0693 -0.5211
  117MOL0     C15692  10.962  -0.432   7.820 -0.8101  0.8909  0.0109
  117MOL0     C15693  11.024  -0.546   7.764 -0.8955  0.4958  0.4559
  117MOL0     C15694  10.962  -0.678   7.760 -0.9652 -0.3278  0.2465
  117MOL0     O15695  11.050  -0.774   7.710 -0.2196 -0.9426 -0.1840
  117MOL0     C15696  11.014  -0.904   7.748 -0.3311 -0.7825 -1.0466
  117MOL0     C15697  11.116  -1.005   7.689 -0.7874 -0.7429  0.1685
  117MOL0     C15698  11.267  -1.006   7.744 -0.0361  0.1250  0.2675
  117MOL0     C15699  11.329  -1.133   7.718 -0.3934  1.0097  0.1453
  117MOL0     C15700  11.376  -1.168   7.573 -0.0428 -0.8158 -0.2089
  117MOL0     C15701  11.482  -1.289   7.584 -0.0888  0.7099 -0.5067
  117MOL0     C15702  11.531  -1.334   7.449  0.2909 -0.8168  0.0438
  117MOL0     C15703  11.604  -1.468   7.450 -0.3190 -0.1408 -0.0759
  117MOL0    Cl15704  11.709  -1.490   7.312 -0.1242 -0.2096  0.1228
  117MOL0     C15705  10.840  -0.695   7.829 -0.5931 -0.9878 -0.4382
  117MOL0     C15706  10.772  -0.581   7.881 -0.4144  0.2560 -0.1169
  117MOL0     O15707  10.862  -0.377   8.122 -0.2420 -0.0572  0.5674
  117MOL0     C15708  10.784  -0.126   8.216  0.2951 -0.3047 -0.6221
  117MOL0     C15709  10.751   0.002   8.258 -0.8230 -0.9056 -0.2117
  117MOL0     N15710  10.667   0.312   8.863 -0.7914 -0.4342 -0.0034
  117MOL0     N15711  10.666   0.380   8.974  0.0198  1.0181 -0.1447
  117MOL0     C15712   9.739   1.197   9.551  0.8191 -0.1149 -0.7975
  117MOL0     C15713   9.659   1.315   9.524 -0.0821 -0.3078  0.1292
  117MOL0     C15714   9.527   1.732   9.404 -0.4667 -0.3226  1.1253
  117MOL0     C15715   9.500   1.727   9.267 -0.6477  0.7059 -1.1091
  117MOL0     C15716   9.437   1.827   9.199  0.7715  0.5924  0.4902
  117MOL0     C15717   9.394   1.941   9.267 -0.0435 -0.1685  0.0123
  117MOL0     O15718   9.339   2.054   9.205 -0.3193  0.0394 -0.3561
  117MOL0     C15719   9.313   2.063   9.064 -0.3501 -0.3586 -0.8286
  117MOL0     C15720   9.292   2.204   9.014  0.3176  0.3447 -0.1768
  117MOL0     C15721   9.224   2.207   8.877  0.9815 -0.0129  0.2574
  117MOL0     C15722   9.155   2.338   8.846  1.0419  0.5602 -0.0613
  117MOL0     C15723   9.256   2.448   8.821  0.4398 -0.2731 -0.2074
  117MOL0     C15724   9.353   2.524   8.811  0.7301 -0.0466 -0.1906
  117MOL0     C15725   9.403   1.943   9.408 -0.1899  0.4209 -0.1610
  117MOL0     C15726   9.463   1.836   9.475 -0.0703  0.5421 -1.3653
  117MOL0     C15727   9.467   1.846   9.622  0.5436 -0.0212 -0.2199
  117MOL0     H15728   9.888   1.489   9.352 -1.6869  1.1220  0.2190
  117MOL0     H15729  10.038   1.309   9.432  0.1393  0.9747 -0.6723
  117MOL0     H15730  10.011   0.906   9.458  0.1518 -0.6109  2.1177
  117MOL0     H15731  10.010   1.047   9.350 -0.7320 -1.2563 -0.1637
  117MOL0     H15732  10.207   1.032   9.586  1.8854  0.3742 -0.3161
  117MOL0     H15733  10.203   1.142   9.461  1.5826  0.1668  3.1026
  117MOL0     H15734  10.379   0.995   9.397 -0.1444  0.7648  0.4419
  117MOL0     H15735  10.240   0.996   9.280  0.2713 -1.1867 -0.4098
  117MOL0     H15736  10.260   0.783   9.484 -1.3951  0.2013 -1.0541
  117MOL0     H15737  10.168   0.784   9.335  0.1899 -0.4526  0.1002
  117MOL0     H15738  10.487   0.801   9.345 -0.9840  3.7139  0.3639
  117MOL0     H15739  10.404   0.645   9.316  0.8957 -0.1305  1.1482
  117MOL0     H15740  10.301   0.773   9.107  1.2381  1.3056 -3.9619
  117MOL0     H15741  10.411   0.886   9.138 -0.3781 -0.7146 -3.7185
  117MOL0     H15742  10.604   0.752   9.102 -1.2995  2.3770 -1.9207
  117MOL0     H15743  10.503   0.733   8.965 -0.1018  0.2484 -0.1666
  117MOL0     H15744  10.579   0.520   9.169 -0.6663 -0.9921 -1.5776
  117MOL0     H15745  10.430   0.509   9.084 -1.0401  1.1470 -0.2644
  117MOL0     H15746  10.465   0.563   8.798  0.2928  0.2815 -0.1134
  117MOL0     H15747  10.436   0.357   8.653 -0.1278  3.1317 -0.3116
  117MOL0     H15748  10.567   0.454   8.578  1.2576 -0.4687  0.3669
  117MOL0     H15749  10.701   0.243   8.574 -0.8506  1.0591  2.0615
  117MOL0     H15750  10.556   0.145   8.639  2.0252 -0.4896  2.2749
  117MOL0     H15751  10.449   0.206   8.414 -0.1996 -3.6831 -2.1751
  117MOL0     H15752  10.581   0.094   8.433  1.4645 -0.0183 -0.0272
  117MOL0     H15753  10.738   0.294   8.358 -1.4079  1.5621  1.8084
  117MOL0     H15754  10.597   0.377   8.329  1.6446  0.1061  0.6958
  117MOL0     H15755  10.581   0.093   7.981  1.4370 -2.7659 -3.2093
  117MOL0     H15756  10.661  -0.096   7.900 -0.3469  1.3400 -0.0812
  117MOL0     H15757  11.018  -0.339   7.819 -2.4124  1.9829  2.3218
  117MOL0     H15758  11.122  -0.537   7.718 -1.4060 -0.8264 -0.9558
  117MOL0     H15759  11.014  -0.916   7.857  1.8088 -1.0685 -1.0312
  117MOL0     H15760  10.918  -0.925   7.699 -2.0285  0.2200  1.6180
  117MOL0     H15761  11.067  -1.101   7.709  0.5877 -1.5476 -0.1741
  117MOL0     H15762  11.130  -0.984   7.583 -0.2579  0.7867  0.5239
  117MOL0     H15763  11.332  -0.923   7.713  3.6534 -1.6161  2.6645
  117MOL0     H15764  11.254  -0.984   7.850  1.8715  0.9092  0.3804
  117MOL0     H15765  11.265  -1.218   7.745 -0.8187  0.5846 -1.9831
  117MOL0     H15766  11.425  -1.141   7.768  0.8277  0.7168 -2.1079
  117MOL0     H15767  11.419  -1.081   7.522  2.1595 -1.3794  0.5630
  117MOL0     H15768  11.290  -1.205   7.517 -0.0764 -0.6298 -0.2823
  117MOL0     H15769  11.564  -1.244   7.641 -1.1362  0.2794  1.4362
  117MOL0     H15770  11.438  -1.377   7.632  0.4663  1.3307  1.2439
  117MOL0     H15771  11.608  -1.261   7.421  3.5810 -3.9894  0.1140
  117MOL0     H15772  11.451  -1.328   7.374  0.5968  0.4595 -0.2076
  117MOL0     H15773  11.668  -1.474   7.539 -1.1127 -0.6136  0.4844
  117MOL0     H15774  11.533  -1.551   7.455 -1.0392  0.5240  2.6991
  117MOL0     H15775  10.800  -0.796   7.832  2.1461 -2.1457  1.2039
  117MOL0     H15776  10.676  -0.581   7.933  0.0461  0.5850  0.7558
  117MOL0     H15777  10.844  -0.182   8.287  0.9919  0.7423 -0.3684
  117MOL0     H15778  10.774   0.039   8.358 -2.8974 -1.4635  0.5166
  117MOL0     H15779   9.692   1.111   9.598 -1.8257  0.4492 -2.1993
  117MOL0     H15780   9.558   1.303   9.561 -0.0471  1.0563  0.7241
  117MOL0     H15781   9.529   1.637   9.214  1.0528  2.1968 -2.8582
  117MOL0     H15782   9.437   1.829   9.091  0.1029 -2.4344  0.3209
  117MOL0     H15783   9.228   1.995   9.050 -1.2532  0.1535  1.5794
  117MOL0     H15784   9.399   2.023   9.009 -0.4967  0.8106 -1.9611
  117MOL0     H15785   9.390   2.241   8.983  0.5111  0.7570  0.8972
  117MOL0     H15786   9.251   2.264   9.096 -0.2866  0.0790 -0.2745
  117MOL0     H15787   9.143   2.134   8.868  0.5111  0.5900 -0.6244
  117MOL0     H15788   9.294   2.184   8.796  0.7182 -0.8858  0.2712
  117MOL0     H15789   9.108   2.322   8.748  1.4477 -0.9012 -0.0314
  117MOL0     H15790   9.090   2.364   8.930  0.1594  0.2049 -0.6176
  117MOL0     H15791   9.435   2.589   8.786 -0.1545  0.2275 -2.6485
  117MOL0     H15792   9.362   2.027   9.464 -2.4113 -0.7963  0.1745
  117MOL0     H15793   9.570   1.878   9.640  0.7166  0.9304 -2.5530
  117MOL0     H15794   9.400   1.925   9.658 -2.3927 -1.5897 -1.8415
  117MOL0     H15795   9.435   1.748   9.660  1.0846 -0.2523 -0.3467
  118MOL0     O15796   6.211   3.439   0.337 -0.2007  0.3307 -0.0857
  118MOL0     C15797   6.291   3.351   0.299  0.4611  1.0808  1.0634
  118MOL0     O15798   6.261   3.218   0.296  0.7008  0.1295 -0.0070
  118MOL0     C15799   6.141   3.179   0.345 -0.6353  0.8906 -0.5285
  118MOL0     C15800   6.131   3.077   0.439 -0.5080 -0.9941 -0.5960
  118MOL0     C15801   6.007   3.013   0.463 -0.4149 -0.5908  0.1624
  118MOL0     C15802   5.894   3.061   0.399  1.3010  0.5425 -0.9061
  118MOL0     O15803   5.762   3.028   0.430  0.0808  0.1672 -0.2172
  118MOL0     C15804   5.730   3.019   0.573 -0.2703  1.0211 -0.5449
  118MOL0     C15805   5.586   2.975   0.599  0.1669  0.4999 -0.3415
  118MOL0     C15806   5.567   2.954   0.744 -0.3461  0.1685 -1.3946
  118MOL0     C15807   5.419   2.921   0.787 -0.2291  0.1658 -0.2906
  118MOL0     C15808   5.403   2.916   0.941 -0.4406  0.4625  0.2565
  118MOL0     C15809   5.472   3.027   1.028  0.7257  0.3260 -0.0305
  118MOL0     C15810   5.601   2.969   1.095 -0.7819  0.6827 -0.5005
  118MOL0     C15811   5.703   3.065   1.161  0.7519  0.2060  0.9530
  118MOL0     N15812   5.754   3.156   1.054 -0.4999  0.4271 -0.0759
  118MOL0     C15813   5.837   3.135   0.944  0.7596  0.4644 -0.7283
  118MOL0     C15814   5.836   3.255   0.875  0.0525 -0.6603  0.6357
  118MOL0     C15815   5.915   3.276   0.748  0.7866 -0.2618 -0.2544
  118MOL0     C15816   6.051   3.331   0.796  1.3270  1.1317  0.4515
  118MOL0     C15817   6.139   3.352   0.679  0.1299 -0.2749 -0.1703
  118MOL0     C15818   6.268   3.437   0.703 -0.1302  0.6087  0.1710
  118MOL0     O15819   6.367   3.363   0.774 -0.9553 -0.3053  0.3620
  118MOL0     C15820   6.472   3.328   0.692  0.2851 -0.9504  0.3949
  118MOL0     C15821   6.557   3.426   0.638  0.3212  0.3720 -1.3410
  118MOL0     C15822   6.662   3.396   0.568 -0.8211  0.3726  0.3143
  118MOL0     C15823   6.704   3.261   0.557 -0.2851  0.6114  1.0189
  118MOL0     C15824   6.839   3.233   0.507  0.9538 -0.4221  0.6543
  118MOL0     O15825   6.863   3.110   0.448  0.3284 -0.6283 -0.4654
  118MOL0     C15826   6.971   3.095   0.377  0.1254  0.4104  0.4870
  118MOL0     C15827   7.039   2.969   0.398 -0.1969  0.2370  0.3128
  118MOL0     C15828   7.155   2.932   0.323  0.4893 -0.4585  0.0558
  118MOL0     C15829   7.213   3.026   0.232  0.7031 -0.0799 -0.0789
  118MOL0     O15830   7.331   3.011   0.163 -0.7797 -0.4410  0.8031
  118MOL0     C15831   7.380   2.873   0.148 -0.4076  0.0284  0.1658
  118MOL0     C15832   7.499   2.872   0.055 -0.4095  0.7607 -0.3373
  118MOL0     C15833   7.545   2.734   0.033  0.6707 -0.2375  0.2674
  118MOL0     C15834   7.449   2.657  -0.069  0.5894 -0.2160  0.2549
  118MOL0     C15835   7.515   2.527  -0.124 -0.4772  0.2739 -0.0804
  118MOL0     C15836   7.429   2.434  -0.204  0.1676 -0.8620 -0.3395
  118MOL0     C15837   7.366   2.496  -0.327  0.7261 -0.7446  0.3923
  118MOL0     C15838   7.280   2.397  -0.403  0.5743 -0.6453 -0.1350
  118MOL0    Cl15839   7.134   2.351  -0.295 -0.1976 -0.1355 -0.4862
  118MOL0     C15840   7.145   3.150   0.214  0.4692  0.5125 -0.4350
  118MOL0     C15841   7.029   3.184   0.287 -0.0954  0.3877  0.8536
  118MOL0     O15842   6.919   3.330   0.512  0.9032 -0.3946  0.1187
  118MOL0     C15843   6.620   3.162   0.611  0.0133 -0.0957 -0.0399
  118MOL0     C15844   6.506   3.196   0.688  1.3263 -0.5359  0.3715
  118MOL0     N15845   5.757   3.344   0.944 -0.2368  0.1789  0.1092
  118MOL0     N15846   5.708   3.289   1.049 -0.4997  0.4658  0.9039
  118MOL0     C15847   5.902   3.164   0.307 -0.0180  0.0515  0.6380
  118MOL0     C15848   6.027   3.219   0.276  0.0623 -0.1819  0.6247
  118MOL0     C15849   6.428   3.388   0.259 -0.5191  0.9839 -0.4263
  118MOL0     C15850   6.519   3.281   0.210  0.0622  0.0400  0.7414
  118MOL0     C15851   6.655   3.296   0.179 -0.1994 -0.1552  0.8306
  118MOL0     C15852   6.714   3.421   0.204  0.5865 -0.3557  0.4291
  118MOL0     O15853   6.841   3.457   0.173 -0.2710 -0.2237  0.4775
  118MOL0     C15854   6.870   3.524   0.047 -0.7671 -0.0008  0.5567
  118MOL0     C15855   6.874   3.442  -0.072 -0.3341  0.6477  0.3402
  118MOL0     C15856   6.975   3.333  -0.065 -0.2013 -0.5557 -0.4931
  118MOL0     C15857   6.959   3.253  -0.198 -0.1721 -1.0417  0.2962
  118MOL0     C15858   7.060   3.145  -0.205  0.2843 -0.6356  1.3197
  118MOL0     C15859   7.153   3.074  -0.210  0.2115 -0.5135 -0.8573
  118MOL0     C15860   6.630   3.523   0.263  0.4740  0.5098  0.3988
  118MOL0     C15861   6.489   3.508   0.283  0.4141  0.1579  0.9486
  118MOL0     C15862   6.416   3.617   0.355  0.8020 -0.5634  0.7162
  118MOL0     H15863   6.209   3.038   0.503 -0.7668 -0.3171  0.1546
  118MOL0     H15864   5.984   2.934   0.534 -2.1970  1.3597  1.9035
  118MOL0     H15865   5.794   2.944   0.619  1.9837  2.2499 -1.5182
  118MOL0     H15866   5.742   3.118   0.616 -2.3058  1.1089 -0.0642
  118MOL0     H15867   5.563   2.888   0.536 -1.2465  2.1378 -2.2666
  118MOL0     H15868   5.522   3.054   0.557 -0.8469 -0.6165 -0.9927
  118MOL0     H15869   5.603   3.048   0.786 -3.2601 -0.0667  2.2292
  118MOL0     H15870   5.633   2.872   0.773  1.1289  1.1379 -1.9522
  118MOL0     H15871   5.350   2.993   0.743  1.1426 -0.7092 -4.3310
  118MOL0     H15872   5.400   2.824   0.739  0.3039  0.5961 -1.4151
  118MOL0     H15873   5.296   2.922   0.962 -1.1289  0.5491 -2.7593
  118MOL0     H15874   5.430   2.814   0.968  0.8435 -0.2516 -3.1878
  118MOL0     H15875   5.495   3.125   0.985 -2.4511  1.6439  0.9703
  118MOL0     H15876   5.409   3.053   1.113  3.5769  3.9354  1.2596
  118MOL0     H15877   5.660   2.909   1.024  1.8056 -0.8808  2.6707
  118MOL0     H15878   5.577   2.896   1.173  0.4981  0.0467 -0.6697
  118MOL0     H15879   5.645   3.122   1.234  1.4413  0.6626  1.1491
  118MOL0     H15880   5.788   3.019   1.212  0.5327  1.9253  2.9678
  118MOL0     H15881   5.898   3.050   0.915  2.1938  0.7934  1.1444
  118MOL0     H15882   5.935   3.178   0.703  0.6253 -1.3806  1.9469
  118MOL0     H15883   5.873   3.356   0.688  0.5155 -0.9623 -1.0224
  118MOL0     H15884   6.033   3.432   0.834 -1.1355  0.8136  0.3105
  118MOL0     H15885   6.104   3.267   0.868  2.0301  0.2275 -0.8285
  118MOL0     H15886   6.082   3.404   0.601  2.1309 -0.7389 -2.0328
  118MOL0     H15887   6.166   3.254   0.640 -0.8128  0.0182 -1.6635
  118MOL0     H15888   6.231   3.527   0.753 -1.9125  0.8108 -1.3814
  118MOL0     H15889   6.294   3.468   0.601 -2.0343  1.8468  0.0167
  118MOL0     H15890   6.531   3.527   0.668  2.5172 -0.1460  2.9000
  118MOL0     H15891   6.723   3.480   0.535 -0.8018 -0.4023 -1.8217
  118MOL0     H15892   6.986   2.899   0.461 -2.7054  0.6787 -1.1562
  118MOL0     H15893   7.200   2.833   0.329  1.3913 -0.2358 -1.9667
  118MOL0     H15894   7.401   2.818   0.241 -1.1012 -1.5494 -0.5823
  118MOL0     H15895   7.300   2.824   0.093 -1.9397  0.9723  1.4593
  118MOL0     H15896   7.475   2.917  -0.042  1.0579 -1.0746 -1.6306
  118MOL0     H15897   7.585   2.926   0.095  0.2983 -0.6043  0.0139
  118MOL0     H15898   7.646   2.733  -0.008 -0.0757  0.4163 -1.7184
  118MOL0     H15899   7.535   2.688   0.132 -0.4927  1.1743  0.8519
  118MOL0     H15900   7.419   2.720  -0.153  2.6777  1.7099  0.8508
  118MOL0     H15901   7.358   2.632  -0.016  1.6019  1.7500  3.1651
  118MOL0     H15902   7.556   2.474  -0.037 -2.0620  2.9118  2.4159
  118MOL0     H15903   7.599   2.556  -0.188 -0.9867  1.6498 -0.1538
  118MOL0     H15904   7.486   2.342  -0.219 -2.4137 -2.4710 -1.0520
  118MOL0     H15905   7.344   2.403  -0.143 -0.4001  0.3986 -0.4714
  118MOL0     H15906   7.438   2.542  -0.396  0.0212 -3.0909 -2.0669
  118MOL0     H15907   7.304   2.579  -0.291  0.8240  0.0289 -1.1213
  118MOL0     H15908   7.240   2.448  -0.492 -1.2169  0.6934  1.3655
  118MOL0     H15909   7.339   2.307  -0.420  1.3159  0.2538 -2.8246
  118MOL0     H15910   7.182   3.212   0.132  0.4478 -2.6474 -3.0415
  118MOL0     H15911   6.984   3.281   0.269  1.4081  1.0823  0.6773
  118MOL0     H15912   6.658   3.060   0.612 -0.1661 -0.1637  0.3028
  118MOL0     H15913   6.447   3.118   0.734 -1.5096  2.6083  2.5492
  118MOL0     H15914   5.812   3.185   0.251  0.2236  1.0550  0.6084
  118MOL0     H15915   6.037   3.292   0.196  2.7631  1.3406  2.2015
  118MOL0     H15916   6.468   3.186   0.193 -0.7063  0.5535  0.0621
  118MOL0     H15917   6.720   3.213   0.150 -2.4758 -2.1026  0.9836
  118MOL0     H15918   6.969   3.570   0.047  0.1925 -1.6944 -3.0526
  118MOL0     H15919   6.804   3.611   0.041  2.6308  3.3979  5.3590
  118MOL0     H15920   6.887   3.489  -0.170 -0.3671 -4.0757 -2.2600
  118MOL0     H15921   6.775   3.396  -0.081  0.6349 -1.3174 -1.0231
  118MOL0     H15922   6.947   3.263   0.015  0.5367 -1.9447 -1.4195
  118MOL0     H15923   7.078   3.363  -0.045 -0.3765  0.3832 -0.9834
  118MOL0     H15924   6.857   3.213  -0.206 -0.4174 -0.1381 -2.2057
  118MOL0     H15925   6.966   3.319  -0.285  1.8911 -0.6427  0.7257
  118MOL0     H15926   7.242   3.019  -0.188  0.0385 -0.0861  1.0543
  118MOL0     H15927   6.670   3.621   0.289  0.0714  0.4482  1.3109
  118MOL0     H15928   6.348   3.669   0.286  1.5901  1.8688  1.6614
  118MOL0     H15929   6.373   3.581   0.448  1.5289 -2.0532  0.5065
  118MOL0     H15930   6.482   3.700   0.382 -1.4290  1.4669  0.2878
  119MOL0     O15931   2.148   1.655   1.453  0.3914  0.3690  0.8843
  119MOL0     C15932   2.086   1.693   1.552  0.1729 -0.2950  0.2465
  119MOL0     O15933   1.950   1.730   1.553  0.3055 -0.6838  0.2737
  119MOL0     C15934   1.893   1.750   1.423  1.0894  0.3386  0.1015
  119MOL0     C15935   1.798   1.651   1.380 -0.1030 -0.5023  0.0481
  119MOL0     C15936   1.719   1.676   1.269 -0.0728  0.0659 -0.2658
  119MOL0     C15937   1.722   1.804   1.213 -0.0839  0.8507 -0.2292
  119MOL0     O15938   1.656   1.851   1.104 -0.0493 -0.1814  0.4717
  119MOL0     C15939   1.541   1.770   1.040 -0.8650 -0.5560  0.0678
  119MOL0     C15940   1.592   1.673   0.939 -0.3477 -0.7805  0.1520
  119MOL0     C15941   1.479   1.605   0.871  0.8185 -0.1394 -1.6036
  119MOL0     C15942   1.465   1.621   0.723  0.2169 -0.7508  0.4736
  119MOL0     C15943   1.345   1.548   0.676  0.5808  0.1399  0.4524
  119MOL0     C15944   1.331   1.574   0.522  0.1509 -0.7468  0.1358
  119MOL0     C15945   1.228   1.498   0.444  0.2289  0.0767  0.5308
  119MOL0     C15946   1.124   1.592   0.368  0.4848  0.1749 -0.2424
  119MOL0     N15947   1.014   1.514   0.306 -0.6806 -0.0814  0.1611
  119MOL0     C15948   0.912   1.457   0.376 -0.1914 -0.5091 -0.6061
  119MOL0     C15949   0.846   1.370   0.295  1.1018  0.7969 -0.6286
  119MOL0     C15950   0.722   1.296   0.340  0.1380  0.4258 -0.0189
  119MOL0     C15951   0.665   1.176   0.255  0.0943 -0.3752  0.3419
  119MOL0     C15952   0.635   1.224   0.111  0.2352  0.5555 -0.2941
  119MOL0     C15953   0.496   1.178   0.069 -1.2108  0.3115 -0.5261
  119MOL0     O15954   0.478   1.200  -0.070 -0.7541  0.3820 -0.0341
  119MOL0     C15955   0.351   1.176  -0.121  0.2384  0.2600 -0.5061
  119MOL0     C15956   0.246   1.131  -0.038 -0.1626 -0.0107  0.0723
  119MOL0     C15957   0.119   1.107  -0.086  0.4430 -0.3692  0.2316
  119MOL0     C15958   0.094   1.128  -0.226 -0.8815 -0.1567  0.0927
  119MOL0     C15959  -0.041   1.115  -0.271 -0.5186 -0.2608 -0.5737
  119MOL0     O15960  -0.142   1.136  -0.182 -0.0097  0.2845  0.0791
  119MOL0     C15961  -0.268   1.096  -0.222 -0.2701 -0.1861  0.1051
  119MOL0     C15962  -0.298   0.968  -0.286 -0.7685 -0.3114 -0.2452
  119MOL0     C15963  -0.426   0.935  -0.313  0.4232 -0.1116  0.3809
  119MOL0     C15964  -0.528   1.017  -0.277 -0.0907 -0.7201 -0.5352
  119MOL0     O15965  -0.658   0.992  -0.325 -0.1794 -0.6169  0.2682
  119MOL0     C15966  -0.763   0.981  -0.224  0.1479  0.0345  0.2541
  119MOL0     C15967  -0.890   0.910  -0.292 -0.1459 -0.2754 -0.5159
  119MOL0     C15968  -1.009   0.991  -0.242 -0.7070 -0.5822 -0.2304
  119MOL0     C15969  -1.140   0.950  -0.315 -0.3374 -0.0020  0.4893
  119MOL0     C15970  -1.256   1.045  -0.312 -0.6044  0.4547  0.2191
  119MOL0     C15971  -1.309   1.060  -0.172  0.0627  0.3362 -0.4914
  119MOL0     C15972  -1.437   1.134  -0.154 -0.9923 -0.9412  0.5655
  119MOL0     C15973  -1.397   1.280  -0.159  0.5144 -0.8567 -0.0640
  119MOL0    Cl15974  -1.530   1.368  -0.073 -0.1866  0.1697  0.1338
  119MOL0     C15975  -0.510   1.142  -0.212  0.3000  0.8952  0.7158
  119MOL0     C15976  -0.378   1.184  -0.182  0.6624  0.6327 -0.3153
  119MOL0     O15977  -0.054   1.081  -0.389 -0.4803 -0.2028 -0.2237
  119MOL0     C15978   0.202   1.155  -0.312 -1.3027  0.5697 -0.3612
  119MOL0     C15979   0.334   1.180  -0.257  1.2532 -0.2579 -0.4008
  119MOL0     N15980   0.929   1.362   0.183  0.3757  0.2194  0.2406
  119MOL0     N15981   1.021   1.451   0.186  0.1746 -0.1190 -0.1168
  119MOL0     C15982   1.811   1.901   1.260 -0.2591 -0.4832 -0.3808
  119MOL0     C15983   1.890   1.873   1.368  0.2491  0.8094 -1.0084
  119MOL0     C15984   2.158   1.688   1.673 -0.2445 -0.3940  0.0457
  119MOL0     C15985   2.252   1.590   1.689  0.0545 -0.8625 -0.5235
  119MOL0     C15986   2.326   1.562   1.805  0.1422 -0.0714 -1.1802
  119MOL0     C15987   2.297   1.632   1.921 -0.8181 -0.3494 -0.6017
  119MOL0     O15988   2.372   1.605   2.037  0.9103 -0.9086  0.6681
  119MOL0     C15989   2.309   1.622   2.166 -0.3202 -0.2197 -0.5926
  119MOL0     C15990   2.388   1.528   2.259  0.4949  0.0321 -0.3678
  119MOL0     C15991   2.536   1.555   2.273 -0.4357 -0.0867  0.7281
  119MOL0     C15992   2.569   1.659   2.386  0.7948 -0.7064 -0.9149
  119MOL0     C15993   2.709   1.680   2.414 -0.3784  0.3522  0.3830
  119MOL0     C15994   2.826   1.653   2.435  0.4453  1.0541  0.0915
  119MOL0     C15995   2.204   1.740   1.914 -0.1705  0.0928  0.0134
  119MOL0     C15996   2.135   1.763   1.792  0.7703  0.0222  0.1600
  119MOL0     C15997   2.028   1.868   1.796 -0.0711 -0.0114  0.6216
  119MOL0     H15998   1.800   1.560   1.439 -1.4871  0.8789  2.3794
  119MOL0     H15999   1.655   1.598   1.228  4.5515 -2.4747 -3.5674
  119MOL0     H16000   1.495   1.717   1.124  1.9473 -0.9650  1.4665
  119MOL0     H16001   1.468   1.828   0.983  0.4435  1.0473 -0.0463
  119MOL0     H16002   1.653   1.597   0.990 -0.8291 -1.1567  0.1827
  119MOL0     H16003   1.651   1.725   0.863  0.6204 -3.5827 -1.1594
  119MOL0     H16004   1.387   1.638   0.918  0.0417 -0.5381 -2.7881
  119MOL0     H16005   1.493   1.498   0.889  1.3265  0.2801  0.8199
  119MOL0     H16006   1.464   1.725   0.690  3.4667 -1.2010 -1.4693
  119MOL0     H16007   1.558   1.585   0.677  1.4609  2.6884 -0.0074
  119MOL0     H16008   1.373   1.444   0.696  0.7275 -0.1563 -1.1729
  119MOL0     H16009   1.256   1.575   0.734 -0.3621 -2.6494  0.4713
  119MOL0     H16010   1.303   1.677   0.497  0.5136 -0.4213  1.0563
  119MOL0     H16011   1.430   1.562   0.478  0.0684  1.1529 -0.6447
  119MOL0     H16012   1.177   1.437   0.519  0.5440 -2.2052 -1.0058
  119MOL0     H16013   1.277   1.422   0.383 -1.3450 -0.6894  0.1637
  119MOL0     H16014   1.069   1.655   0.439 -2.4353  0.4391 -2.5606
  119MOL0     H16015   1.184   1.653   0.300  0.8511 -0.2619 -0.3167
  119MOL0     H16016   0.865   1.490   0.468  0.0350  0.0240 -0.6786
  119MOL0     H16017   0.737   1.261   0.443  1.0058 -3.1797 -1.2358
  119MOL0     H16018   0.644   1.373   0.346  0.2113  0.4256  1.2692
  119MOL0     H16019   0.727   1.087   0.248 -1.1904 -1.1669 -1.4823
  119MOL0     H16020   0.575   1.139   0.305 -1.0220  1.0602 -0.4892
  119MOL0     H16021   0.715   1.188   0.047  1.4454  0.2466  1.3271
  119MOL0     H16022   0.625   1.333   0.100 -1.2800  0.4402 -0.2972
  119MOL0     H16023   0.423   1.229   0.133 -1.6500  1.4478 -1.8755
  119MOL0     H16024   0.495   1.072   0.094 -1.4263 -0.2274 -2.5875
  119MOL0     H16025   0.256   1.120   0.070 -4.1183 -5.6125  0.2979
  119MOL0     H16026   0.052   1.082  -0.004  1.5904 -1.8940  0.7416
  119MOL0     H16027  -0.214   0.907  -0.318  0.0516  1.9712 -2.9176
  119MOL0     H16028  -0.444   0.847  -0.374 -2.3410  2.5361 -3.0994
  119MOL0     H16029  -0.746   0.928  -0.130 -2.8921 -0.6955  0.5039
  119MOL0     H16030  -0.789   1.084  -0.196  1.3227  0.7505 -1.1735
  119MOL0     H16031  -0.881   0.923  -0.400  4.6132 -0.8358 -0.4072
  119MOL0     H16032  -0.899   0.805  -0.261  1.0272 -0.5233 -0.9571
  119MOL0     H16033  -1.012   0.967  -0.136  1.6675  1.2791  0.3525
  119MOL0     H16034  -0.997   1.099  -0.253 -1.8664 -0.2105  1.7165
  119MOL0     H16035  -1.180   0.857  -0.275 -0.6961 -0.5846 -1.1554
  119MOL0     H16036  -1.126   0.923  -0.420 -1.6245 -4.4533  1.2827
  119MOL0     H16037  -1.345   1.009  -0.364 -1.5305  2.7530  0.0970
  119MOL0     H16038  -1.221   1.142  -0.350  2.7569 -0.8987 -0.5021
  119MOL0     H16039  -1.344   0.965  -0.130 -0.9817  0.0747 -1.8836
  119MOL0     H16040  -1.226   1.103  -0.115 -0.4016  1.4078 -0.5924
  119MOL0     H16041  -1.473   1.100  -0.056  0.2315 -0.1185  1.3267
  119MOL0     H16042  -1.510   1.110  -0.232 -1.4258  1.8208  0.0078
  119MOL0     H16043  -1.302   1.299  -0.108  1.5908  1.2744 -2.6070
  119MOL0     H16044  -1.390   1.325  -0.258  1.4030 -1.0449 -0.0993
  119MOL0     H16045  -0.592   1.212  -0.201  1.1849  2.3108 -1.0996
  119MOL0     H16046  -0.352   1.268  -0.118  0.8527 -0.4168  1.0261
  119MOL0     H16047   0.183   1.173  -0.417 -2.8166 -0.2101 -0.2583
  119MOL0     H16048   0.418   1.212  -0.318  2.6103 -0.9381  1.0381
  119MOL0     H16049   1.810   2.000   1.216 -1.7144 -0.4848 -0.4091
  119MOL0     H16050   1.965   1.949   1.387  0.6454  0.6253 -1.7796
  119MOL0     H16051   2.286   1.540   1.598  0.8848 -2.5760  0.6791
  119MOL0     H16052   2.401   1.484   1.797  0.4845  0.3348 -2.2381
  119MOL0     H16053   2.201   1.604   2.165 -0.2148 -1.0935  0.9609
  119MOL0     H16054   2.322   1.725   2.200 -0.9672 -0.7729  1.4785
  119MOL0     H16055   2.366   1.426   2.226 -0.6910 -1.6789  4.8400
  119MOL0     H16056   2.337   1.528   2.356  2.7682  0.9684  0.9128
  119MOL0     H16057   2.588   1.577   2.180 -2.2120 -3.6229 -1.3270
  119MOL0     H16058   2.583   1.460   2.302  1.6434  0.6037 -0.1660
  119MOL0     H16059   2.540   1.762   2.365  2.1289 -0.4251 -1.4071
  119MOL0     H16060   2.524   1.623   2.480  1.2437  1.1272  0.0455
  119MOL0     H16061   2.928   1.622   2.442 -0.5447 -2.5387  0.4047
  119MOL0     H16062   2.177   1.799   2.001  1.4558  3.8426 -1.8243
  119MOL0     H16063   2.050   1.942   1.874 -1.1846  1.6949 -0.6079
  119MOL0     H16064   2.039   1.934   1.710 -3.8748 -2.1627 -1.8040
  119MOL0     H16065   1.928   1.826   1.797 -1.0793  2.0978 -1.8066
  120MOL0     O16066   5.401   4.510   5.333 -0.0907 -0.2099  0.2829
  120MOL0     C16067   5.348   4.444   5.248  0.0520 -0.0214  1.7613
  120MOL0     O16068   5.396   4.325   5.190 -0.0990  0.4562 -0.4010
  120MOL0     C16069   5.527   4.296   5.212 -0.3805  0.7827  0.8326
  120MOL0     C16070   5.594   4.245   5.099 -0.6020  0.0252 -0.8288
  120MOL0     C16071   5.737   4.207   5.104 -0.2244 -0.4355  0.3599
  120MOL0     C16072   5.796   4.198   5.225 -0.6785  0.9641 -0.4279
  120MOL0     O16073   5.925   4.153   5.248  0.1438 -0.5282  0.0871
  120MOL0     C16074   6.022   4.237   5.200  0.5188  0.2161  0.1460
  120MOL0     C16075   6.146   4.220   5.290  0.0910  0.5769  0.4838
  120MOL0     C16076   6.282   4.240   5.217  0.7404 -0.6222 -0.0256
  120MOL0     C16077   6.377   4.119   5.215 -0.2036 -0.0311 -0.0061
  120MOL0     C16078   6.517   4.151   5.269  0.3436  0.5293 -0.0540
  120MOL0     C16079   6.594   4.230   5.157 -0.4160 -0.1738  0.3876
  120MOL0     C16080   6.726   4.276   5.225  0.5671 -0.5517  0.0948
  120MOL0     C16081   6.807   4.370   5.129 -0.3872 -0.9409  0.0497
  120MOL0     N16082   6.919   4.429   5.197  0.5394 -0.2132 -0.0398
  120MOL0     C16083   7.046   4.377   5.204 -0.6844 -0.1641  0.7892
  120MOL0     C16084   7.116   4.475   5.274  0.2582 -0.1529 -0.0438
  120MOL0     C16085   7.256   4.482   5.320 -0.4951 -0.5142  0.3063
  120MOL0     C16086   7.279   4.367   5.419  0.2718 -0.7455  0.0529
  120MOL0     C16087   7.389   4.396   5.536  0.2313  0.1139  0.1948
  120MOL0     C16088   7.508   4.486   5.508  0.1949 -0.2713 -0.1875
  120MOL0     O16089   7.572   4.466   5.375  0.4624 -0.4976  0.4358
  120MOL0     C16090   7.632   4.341   5.361 -0.5831 -0.7787 -0.3947
  120MOL0     C16091   7.614   4.286   5.236  0.5704  0.3936 -0.0003
  120MOL0     C16092   7.687   4.168   5.191  0.3841 -0.8034 -0.0729
  120MOL0     C16093   7.778   4.106   5.275  0.0043 -0.0042  0.3455
  120MOL0     C16094   7.842   3.976   5.236 -0.7175 -0.0544 -0.3415
  120MOL0     O16095   7.944   3.931   5.314  0.3092 -0.2480 -0.0002
  120MOL0     C16096   8.005   3.824   5.264  0.5825  0.6399  0.8387
  120MOL0     C16097   8.087   3.836   5.149 -0.5877  0.2387 -0.5475
  120MOL0     C16098   8.149   3.721   5.093 -0.2039  0.4773  0.3537
  120MOL0     C16099   8.135   3.597   5.159  0.4016  0.5487  0.3188
  120MOL0     O16100   8.193   3.482   5.120  0.1806  0.1613 -0.2861
  120MOL0     C16101   8.181   3.438   4.979 -0.6894 -0.4506 -0.5609
  120MOL0     C16102   8.052   3.373   4.946  0.5512 -0.6615 -0.4336
  120MOL0     C16103   7.947   3.475   4.897 -0.5994  0.6954  1.1009
  120MOL0     C16104   7.822   3.491   4.994  0.3916  0.3336 -0.4231
  120MOL0     C16105   7.707   3.588   4.952  0.3690  0.3033 -1.4437
  120MOL0     C16106   7.636   3.554   4.818 -0.4088  0.0191  0.9756
  120MOL0     C16107   7.498   3.626   4.802 -1.0066  0.4190 -0.1896
  120MOL0     C16108   7.421   3.577   4.687  0.1974  0.0811 -0.4778
  120MOL0    Cl16109   7.494   3.609   4.528  0.3442 -0.1127 -0.0351
  120MOL0     C16110   8.055   3.587   5.270 -0.0670  0.3749 -0.0356
  120MOL0     C16111   7.995   3.702   5.321 -0.2591 -0.2090  0.5065
  120MOL0     O16112   7.787   3.908   5.148  0.1308  0.3577  0.1682
  120MOL0     C16113   7.801   4.171   5.396 -0.4926  1.1648 -0.2542
  120MOL0     C16114   7.725   4.279   5.449 -1.1472 -0.1005  0.8710
  120MOL0     N16115   7.024   4.570   5.329  0.5309  0.8730  0.4977
  120MOL0     N16116   6.911   4.535   5.287  0.0014 -0.7468 -0.2793
  120MOL0     C16117   5.727   4.235   5.338  0.2262 -0.6219  0.3194
  120MOL0     C16118   5.587   4.283   5.338 -0.3994  0.0003  0.8389
  120MOL0     C16119   5.202   4.467   5.218 -0.0769  0.7431 -0.0171
  120MOL0     C16120   5.124   4.357   5.167 -0.1135 -0.2263  0.9570
  120MOL0     C16121   4.993   4.379   5.127  0.0207  0.7227 -0.1310
  120MOL0     C16122   4.943   4.508   5.117 -0.1555 -0.3795 -0.1607
  120MOL0     O16123   4.838   4.529   5.041 -0.0481  0.4125  0.9311
  120MOL0     C16124   4.725   4.598   5.104 -0.2113  0.0777 -0.0228
  120MOL0     C16125   4.614   4.642   5.008  0.6849  0.3855 -0.2080
  120MOL0     C16126   4.512   4.534   4.956 -0.8104  0.5044 -0.5359
  120MOL0     C16127   4.434   4.465   5.068 -0.4416 -0.4378 -0.4841
  120MOL0     C16128   4.382   4.342   5.013 -1.0498 -0.8639 -0.3148
  120MOL0     C16129   4.322   4.247   4.981  0.6760  0.6946  0.2143
  120MOL0     C16130   5.013   4.612   5.177  0.2265 -0.3642 -0.2676
  120MOL0     C16131   5.141   4.598   5.225  0.0647  0.7176  0.6968
  120MOL0     C16132   5.209   4.728   5.269  0.0804  0.4523 -0.1381
  120MOL0     H16133   5.555   4.257   4.998 -1.1023 -1.5113 -0.8415
  120MOL0     H16134   5.789   4.195   5.009  1.1157 -1.5376  1.1855
  120MOL0     H16135   6.041   4.196   5.100  1.7057  0.5128  0.2327
  120MOL0     H16136   5.994   4.341   5.182  0.9630  0.3849  0.4064
  120MOL0     H16137   6.148   4.135   5.358 -1.7961 -1.0396 -1.3188
  120MOL0     H16138   6.145   4.299   5.365  0.9849  0.5918  0.4871
  120MOL0     H16139   6.327   4.330   5.261 -1.5596  1.1065 -0.9884
  120MOL0     H16140   6.258   4.274   5.116  0.4557  0.0420  0.2584
  120MOL0     H16141   6.340   4.038   5.278 -0.1543  0.3454  0.5162
  120MOL0     H16142   6.395   4.082   5.113 -0.1672 -1.3824  0.4659
  120MOL0     H16143   6.513   4.207   5.364  2.4985 -1.8059  1.5450
  120MOL0     H16144   6.565   4.053   5.273 -1.2410 -0.4111 -2.1484
  120MOL0     H16145   6.611   4.171   5.067  2.1446  0.4416  0.3988
  120MOL0     H16146   6.532   4.315   5.129 -2.2115 -0.6643  2.5377
  120MOL0     H16147   6.796   4.196   5.250  2.7879  0.4871 -2.2987
  120MOL0     H16148   6.701   4.336   5.313  0.2262 -3.6956  2.2734
  120MOL0     H16149   6.836   4.332   5.030  0.4796 -0.6221  0.1709
  120MOL0     H16150   6.740   4.452   5.102 -0.5242 -0.7519  0.9475
  120MOL0     H16151   7.095   4.290   5.163  0.9010  1.2059 -0.3592
  120MOL0     H16152   7.324   4.479   5.234 -0.9640  4.6786 -0.5391
  120MOL0     H16153   7.288   4.578   5.362 -0.1056  1.0468 -3.1918
  120MOL0     H16154   7.184   4.331   5.462  0.6850 -2.9170 -0.7233
  120MOL0     H16155   7.317   4.279   5.367  1.9348 -1.0361  1.6534
  120MOL0     H16156   7.431   4.296   5.553 -0.9701 -1.0193 -2.7661
  120MOL0     H16157   7.336   4.423   5.628  0.5059 -1.4543  0.8495
  120MOL0     H16158   7.579   4.469   5.589  2.0074 -1.9808 -1.9897
  120MOL0     H16159   7.471   4.589   5.507  3.6317  1.0665 -1.1941
  120MOL0     H16160   7.551   4.346   5.172 -1.3127  1.3635  2.6012
  120MOL0     H16161   7.670   4.128   5.092  2.8965 -0.4730 -0.7090
  120MOL0     H16162   8.091   3.929   5.093 -0.8964 -0.7867 -2.3425
  120MOL0     H16163   8.205   3.726   5.000  4.1822 -0.7363  2.6314
  120MOL0     H16164   8.219   3.511   4.907  0.3084  0.4966  0.8606
  120MOL0     H16165   8.244   3.349   4.972 -0.3219 -0.1070 -1.7248
  120MOL0     H16166   8.061   3.307   4.860  0.8655 -1.2873  0.0758
  120MOL0     H16167   8.016   3.307   5.025 -1.5896 -1.0611 -1.6601
  120MOL0     H16168   7.981   3.573   4.862  0.5878 -0.1107 -0.1593
  120MOL0     H16169   7.904   3.429   4.807 -0.5516  1.0611  0.8913
  120MOL0     H16170   7.850   3.527   5.093  0.3763  3.9540 -1.6095
  120MOL0     H16171   7.786   3.387   4.996  1.2811 -0.2028 -4.3455
  120MOL0     H16172   7.750   3.688   4.943 -0.3175  1.3942  4.1107
  120MOL0     H16173   7.619   3.596   5.016 -0.1707  1.8720 -2.3068
  120MOL0     H16174   7.696   3.585   4.732  0.1458 -2.4607  0.3783
  120MOL0     H16175   7.620   3.446   4.810 -1.0177  0.1807 -0.1707
  120MOL0     H16176   7.509   3.735   4.805  0.3689  0.3268 -1.2358
  120MOL0     H16177   7.431   3.610   4.887 -0.3879 -0.2895  0.1712
  120MOL0     H16178   7.401   3.471   4.697 -1.3414  0.5848  3.0084
  120MOL0     H16179   7.325   3.630   4.690  1.4463  2.5072 -0.6615
  120MOL0     H16180   8.051   3.499   5.332  1.0415  0.5345  0.2830
  120MOL0     H16181   7.941   3.700   5.415 -0.5955 -3.4185  0.3807
  120MOL0     H16182   7.877   4.135   5.464 -1.5556  0.9833  0.8817
  120MOL0     H16183   7.757   4.337   5.535  1.4254  0.7802 -0.5635
  120MOL0     H16184   5.760   4.235   5.441 -1.3136 -1.4244  0.8460
  120MOL0     H16185   5.521   4.311   5.418  0.5939  1.3387  1.2157
  120MOL0     H16186   5.160   4.255   5.163 -1.4617 -0.7964  2.2587
  120MOL0     H16187   4.933   4.297   5.088  2.0402 -0.0614 -1.7404
  120MOL0     H16188   4.757   4.679   5.170  1.6893  0.5917 -1.5015
  120MOL0     H16189   4.672   4.530   5.173 -0.6114 -1.5969 -1.8849
  120MOL0     H16190   4.650   4.689   4.916 -1.1649 -0.3047 -1.3187
  120MOL0     H16191   4.553   4.718   5.059 -1.1131 -0.3159 -1.2356
  120MOL0     H16192   4.570   4.461   4.900  1.3056  0.8149  1.1274
  120MOL0     H16193   4.435   4.575   4.890 -1.0446 -1.0665 -1.2621
  120MOL0     H16194   4.477   4.448   5.168 -0.0736  1.9853 -0.1888
  120MOL0     H16195   4.347   4.529   5.081 -0.1687 -0.2440  0.5229
  120MOL0     H16196   4.248   4.175   4.949  0.7067  1.7813 -2.5646
  120MOL0     H16197   4.965   4.709   5.174 -0.0397 -0.4819  0.1096
  120MOL0     H16198   5.302   4.735   5.211 -0.1692  0.4705 -0.5405
  120MOL0     H16199   5.146   4.815   5.248 -1.9036  0.1886  3.7303
  120MOL0     H16200   5.224   4.733   5.377 -1.7275  0.7603  0.1248
  121MOL0     O16201   0.585   4.120  11.304 -0.7382  0.0722 -0.4514
  121MOL0     C16202   0.553   4.006  11.322  0.5496  0.6312 -0.1746
  121MOL0     O16203   0.530   3.932  11.429  0.5455 -1.0989 -0.3150
  121MOL0     C16204   0.578   3.967  11.555 -0.0268  0.2767  0.4313
  121MOL0     C16205   0.505   3.933  11.670 -0.3401 -0.7898 -0.9404
  121MOL0     C16206   0.548   3.979  11.801 -0.3026  0.5573  0.3079
  121MOL0     C16207   0.666   4.050  11.805 -0.8717  0.0688 -0.1288
  121MOL0     O16208   0.708   4.077  11.937  0.1012 -0.1456  0.1388
  121MOL0     C16209   0.786   4.193  11.954  0.8991 -1.4712 -0.1939
  121MOL0     C16210   0.797   4.203  12.101 -0.7232 -0.1949  0.8365
  121MOL0     C16211   0.899   4.314  12.140  0.5001 -0.1497  1.0394
  121MOL0     C16212   0.882   4.387  12.270  0.5489  1.0237 -0.3217
  121MOL0     C16213   0.909   4.306  12.397 -0.6131 -0.2865 -0.3340
  121MOL0     C16214   0.867   4.391  12.518 -0.7919  0.3718 -1.1659
  121MOL0     C16215   0.924   4.327  12.651 -0.0266  0.1869 -0.9099
  121MOL0     C16216   1.042   4.400  12.702  0.5543 -0.4227 -0.5087
  121MOL0     N16217   1.107   4.322  12.813 -0.0159  0.3622  0.3638
  121MOL0     C16218   1.049   4.326  12.940  0.1791  0.6623 -0.2203
  121MOL0     C16219   1.129   4.241  13.010 -0.3453 -1.8864  0.2449
  121MOL0     C16220   1.119   4.196  13.153  0.7194  0.2860  0.2990
  121MOL0     C16221   1.121   4.044  13.159  0.7955 -0.3657 -0.2882
  121MOL0     C16222   1.121   3.996  13.310  0.1824 -1.4632  0.4916
  121MOL0     C16223   1.113   3.848  13.322  0.2063  0.3435  0.5627
  121MOL0     O16224   0.977   3.792  13.311 -0.8623  0.7114  0.4983
  121MOL0     C16225   0.890   3.831  13.403  0.5419 -0.2822 -0.5662
  121MOL0     C16226   0.776   3.896  13.367  0.8505 -0.2133 -0.5132
  121MOL0     C16227   0.671   3.924  13.452 -0.2785  0.0318 -0.6788
  121MOL0     C16228   0.678   3.877  13.586  0.5501  0.3368 -0.4781
  121MOL0     C16229   0.553   3.899  13.668  0.3992 -0.6492  0.0660
  121MOL0     O16230   0.460   3.980  13.621  0.6747  0.6598  0.3387
  121MOL0     C16231   0.349   4.002  13.704  0.2525  0.2133 -0.7847
  121MOL0     C16232   0.342   4.121  13.773  0.3009  0.4935  0.5160
  121MOL0     C16233   0.244   4.142  13.869 -0.4190 -0.1505  0.1955
  121MOL0     C16234   0.154   4.045  13.902 -0.2359  0.9823 -0.0339
  121MOL0     O16235   0.060   4.064  13.995  1.1412  0.4269 -0.6244
  121MOL0     C16236  -0.002   3.962  14.067  0.3364 -0.3350  0.6724
  121MOL0     C16237  -0.116   4.022  14.164  0.3819  0.5932 -0.1994
  121MOL0     C16238  -0.195   3.912  14.232 -0.2861 -0.1257  0.7027
  121MOL0     C16239  -0.291   3.961  14.337  0.0171  0.0031 -0.5651
  121MOL0     C16240  -0.362   3.836  14.397  0.1359  0.4831 -0.1682
  121MOL0     C16241  -0.424   3.732  14.299  0.2690 -0.3924 -0.1659
  121MOL0     C16242  -0.514   3.811  14.195 -0.3331  0.3763 -0.2963
  121MOL0     C16243  -0.624   3.897  14.251 -0.0476  1.2791 -1.0309
  121MOL0    Cl16244  -0.726   3.796  14.355  0.0059  0.1937  0.2033
  121MOL0     C16245   0.162   3.920  13.832  0.1803 -0.0146  0.1972
  121MOL0     C16246   0.258   3.895  13.735  0.2228 -0.5957 -0.2581
  121MOL0     O16247   0.560   3.854  13.782 -0.1072  0.1614 -0.2501
  121MOL0     C16248   0.786   3.806  13.631 -1.2959 -1.2175  0.2029
  121MOL0     C16249   0.896   3.792  13.541 -0.5523  0.3180  0.8911
  121MOL0     N16250   1.228   4.200  12.925  0.5534 -0.1661  0.2533
  121MOL0     N16251   1.209   4.241  12.808 -0.0220 -0.9790 -0.4393
  121MOL0     C16252   0.743   4.078  11.688 -0.9537 -0.4464 -0.6515
  121MOL0     C16253   0.705   4.039  11.563 -0.0314 -0.0135  0.9544
  121MOL0     C16254   0.475   3.937  11.209  0.2802 -0.7858 -0.0597
  121MOL0     C16255   0.367   3.851  11.242  0.0449 -0.4258 -0.8778
  121MOL0     C16256   0.296   3.784  11.134  0.2354 -0.3731 -0.1409
  121MOL0     C16257   0.334   3.806  10.999 -0.8537  0.1960 -0.9716
  121MOL0     O16258   0.257   3.749  10.900 -0.3197 -0.2029  0.6514
  121MOL0     C16259   0.300   3.729  10.772  0.2411  0.2684  0.6465
  121MOL0     C16260   0.194   3.636  10.703 -0.5932  0.1260 -0.2802
  121MOL0     C16261   0.060   3.717  10.677 -0.6475 -0.1757  0.4359
  121MOL0     C16262  -0.019   3.748  10.802 -1.0140 -0.1391  1.1152
  121MOL0     C16263  -0.156   3.779  10.767 -0.0521  0.4007  0.1496
  121MOL0     C16264  -0.277   3.796  10.746 -0.2144 -0.1946 -1.0761
  121MOL0     C16265   0.447   3.882  10.978 -0.1093 -0.2665  0.3633
  121MOL0     C16266   0.512   3.958  11.079 -0.6687  0.1028  0.1910
  121MOL0     C16267   0.629   4.038  11.043 -0.8297  0.1328  0.5426
  121MOL0     H16268   0.412   3.878  11.668 -0.0651 -1.3405  0.2921
  121MOL0     H16269   0.487   3.941  11.882 -0.2322 -0.7094 -0.2065
  121MOL0     H16270   0.887   4.184  11.911  0.0836 -0.4561 -2.4535
  121MOL0     H16271   0.746   4.285  11.912  1.9618 -1.2365 -0.7264
  121MOL0     H16272   0.833   4.112  12.150 -1.0727 -0.1683  1.1472
  121MOL0     H16273   0.700   4.236  12.139  0.3290  1.4683  2.2068
  121MOL0     H16274   0.896   4.395  12.067  0.6456 -2.7585 -2.0706
  121MOL0     H16275   0.998   4.269  12.130  0.6434  0.0829  1.3781
  121MOL0     H16276   0.948   4.474  12.275  3.1986 -0.9065  1.4313
  121MOL0     H16277   0.775   4.411  12.268 -0.2077 -1.9683 -1.1543
  121MOL0     H16278   0.878   4.201  12.394  0.5411 -0.6513  0.0514
  121MOL0     H16279   1.017   4.309  12.410 -0.9084 -0.7564  3.3036
  121MOL0     H16280   0.895   4.496  12.506  0.2638  0.6629  2.6044
  121MOL0     H16281   0.758   4.395  12.524 -0.6956  2.0549  3.4294
  121MOL0     H16282   0.947   4.223  12.626  1.2633  0.4050 -0.6945
  121MOL0     H16283   0.846   4.326  12.728  1.7140 -1.9445  0.9620
  121MOL0     H16284   1.112   4.426  12.622  0.6285  0.0825 -0.2839
  121MOL0     H16285   1.019   4.497  12.747 -2.2028 -2.1653  2.2976
  121MOL0     H16286   0.962   4.372  12.986 -0.3471  4.0865 -4.0684
  121MOL0     H16287   1.208   4.228  13.208  0.5627  0.9270  0.1834
  121MOL0     H16288   1.031   4.241  13.199  0.5888  1.5066 -1.0935
  121MOL0     H16289   1.035   4.007  13.103  2.6322 -0.5210 -3.2355
  121MOL0     H16290   1.197   4.008  13.089 -0.8823 -0.3023 -2.2325
  121MOL0     H16291   1.046   4.048  13.369  0.1159 -0.1573 -0.6863
  121MOL0     H16292   1.222   4.024  13.342 -0.6242  2.3802  0.0733
  121MOL0     H16293   1.151   3.820  13.420  0.4177  2.8844  1.2796
  121MOL0     H16294   1.175   3.797  13.248  3.2358  2.7904  1.2198
  121MOL0     H16295   0.762   3.932  13.265  0.2370  3.9159  0.8617
  121MOL0     H16296   0.580   3.981  13.434 -1.3961 -1.4537  0.0584
  121MOL0     H16297   0.404   4.209  13.759  2.4714 -1.1494 -0.9691
  121MOL0     H16298   0.238   4.237  13.921 -0.2682 -0.0482  0.0288
  121MOL0     H16299  -0.047   3.886  14.002 -0.3320 -1.8732  2.8183
  121MOL0     H16300   0.077   3.908  14.119 -0.2579 -2.2602 -0.3370
  121MOL0     H16301  -0.065   4.073  14.245 -0.9155  0.9244  0.4270
  121MOL0     H16302  -0.179   4.098  14.117 -0.1283 -0.3642 -1.1380
  121MOL0     H16303  -0.246   3.850  14.157  0.7435 -2.1415  1.5894
  121MOL0     H16304  -0.119   3.853  14.283  1.3830  1.6368  0.3823
  121MOL0     H16305  -0.365   4.033  14.300 -1.2645 -0.1489  1.5477
  121MOL0     H16306  -0.231   4.016  14.410  0.4369 -0.1881 -0.7634
  121MOL0     H16307  -0.443   3.868  14.464  0.0386  3.8350 -1.6526
  121MOL0     H16308  -0.283   3.787  14.454 -1.2825 -0.7885  0.7811
  121MOL0     H16309  -0.350   3.676  14.241  2.0032  1.5079  0.0615
  121MOL0     H16310  -0.483   3.662  14.359  2.0058  2.3688  5.4663
  121MOL0     H16311  -0.559   3.723  14.148  2.1883 -1.1630 -0.0197
  121MOL0     H16312  -0.454   3.854  14.115  0.2997 -1.2728 -0.7345
  121MOL0     H16313  -0.595   3.990  14.303 -2.3401  1.0652  0.8097
  121MOL0     H16314  -0.693   3.917  14.169 -2.8429  0.5824  1.0202
  121MOL0     H16315   0.078   3.852  13.840 -0.8402  1.1856  0.1105
  121MOL0     H16316   0.266   3.797  13.691  0.3625 -1.2365  1.1393
  121MOL0     H16317   0.791   3.763  13.731 -0.5265  1.4453  1.4208
  121MOL0     H16318   0.986   3.742  13.575 -0.5981 -2.5075 -2.6082
  121MOL0     H16319   0.842   4.122  11.691  0.1518 -2.7336 -0.8497
  121MOL0     H16320   0.779   4.059  11.487  1.4612 -3.6902  1.1959
  121MOL0     H16321   0.330   3.827  11.341 -1.5759  3.1923 -0.4519
  121MOL0     H16322   0.217   3.710  11.144 -0.9862  0.6049 -1.9385
  121MOL0     H16323   0.399   3.683  10.766  0.4325  0.2488  3.0802
  121MOL0     H16324   0.320   3.825  10.723 -0.7605 -0.1052 -0.5356
  121MOL0     H16325   0.168   3.549  10.763 -2.8531  0.9505  0.0239
  121MOL0     H16326   0.232   3.602  10.606  2.3079  1.9625  0.0586
  121MOL0     H16327   0.001   3.654  10.610 -0.2536 -0.6766  0.5597
  121MOL0     H16328   0.095   3.810  10.630 -0.5031  0.0490  0.9729
  121MOL0     H16329  -0.013   3.670  10.878 -1.5827 -0.3242  0.9816
  121MOL0     H16330   0.015   3.841  10.849  0.9498 -0.2458  0.0040
  121MOL0     H16331  -0.384   3.796  10.741 -0.2284 -1.6804 -1.3473
  121MOL0     H16332   0.493   3.881  10.880 -1.3277 -1.5686 -0.2191
  121MOL0     H16333   0.712   4.029  11.114 -0.5575 -1.7869  0.0192
  121MOL0     H16334   0.660   4.003  10.944  0.2569  0.5588  0.7179
  121MOL0     H16335   0.608   4.145  11.034  2.1713  0.6246 -4.2512
  122MOL0     O16336   5.425   0.575   6.444 -0.2567  0.5219 -1.0456
  122MOL0     C16337   5.419   0.660   6.360  0.1601  0.4869 -0.4314
  122MOL0     O16338   5.495   0.768   6.348 -0.7026  0.0573  0.2222
  122MOL0     C16339   5.603   0.804   6.425  0.4969  0.1339  0.4517
  122MOL0     C16340   5.613   0.932   6.471  0.1015  0.6118  0.6492
  122MOL0     C16341   5.739   0.980   6.525  0.4449 -0.3193 -0.2030
  122MOL0     C16342   5.848   0.892   6.538 -0.2257 -0.1029 -0.0687
  122MOL0     O16343   5.969   0.919   6.599 -0.5972 -0.3626  0.2019
  122MOL0     C16344   5.998   1.058   6.601 -0.3980 -1.0648  0.6251
  122MOL0     C16345   6.133   1.106   6.629  0.4527  0.3361 -0.1051
  122MOL0     C16346   6.189   1.069   6.761 -0.8102  1.0899  0.7096
  122MOL0     C16347   6.114   1.124   6.871  0.9517 -0.0233 -0.1889
  122MOL0     C16348   6.192   1.081   7.003 -0.5618 -0.1980 -0.0923
  122MOL0     C16349   6.143   1.167   7.115  0.4611  0.0756  0.3112
  122MOL0     C16350   6.233   1.144   7.237 -0.1110  0.7521 -0.7366
  122MOL0     C16351   6.159   1.067   7.346 -0.8895  0.5195  0.9652
  122MOL0     N16352   6.264   1.011   7.443  0.3352 -0.3220 -0.0356
  122MOL0     C16353   6.240   0.932   7.558  0.3284 -0.5119  0.2388
  122MOL0     C16354   6.361   0.924   7.621  0.1740 -0.2775  1.0008
  122MOL0     C16355   6.379   0.848   7.747 -0.1917  0.3038  0.5868
  122MOL0     C16356   6.495   0.897   7.833  0.4151 -0.0159 -0.0739
  122MOL0     C16357   6.514   0.794   7.943 -0.2998 -0.4028 -0.7630
  122MOL0     C16358   6.628   0.835   8.037  0.2808  0.7615 -0.2345
  122MOL0     O16359   6.596   0.948   8.109  0.4578 -0.5542 -0.6173
  122MOL0     C16360   6.659   0.948   8.234  0.0402 -0.0733 -0.6989
  122MOL0     C16361   6.786   0.889   8.263  0.6001  0.5955 -1.1810
  122MOL0     C16362   6.850   0.920   8.391  1.2340  1.1927  0.5769
  122MOL0     C16363   6.788   0.993   8.491  0.6339  0.4400  0.2870
  122MOL0     C16364   6.853   1.035   8.611 -0.1170 -0.2550  1.2189
  122MOL0     O16365   6.992   1.013   8.616  0.0148 -0.7584 -0.0701
  122MOL0     C16366   7.069   1.014   8.726 -0.8080 -0.5801  0.1281
  122MOL0     C16367   7.039   0.957   8.850 -0.5638 -0.0129  0.9004
  122MOL0     C16368   7.134   0.953   8.962 -0.8761  0.7613 -0.2587
  122MOL0     C16369   7.265   1.008   8.942 -0.4301 -0.0922 -1.0010
  122MOL0     O16370   7.354   1.011   9.046 -1.5283 -0.5005  0.3794
  122MOL0     C16371   7.353   0.886   9.118  0.5862 -0.3966  0.0336
  122MOL0     C16372   7.501   0.882   9.179 -0.2519  0.7117  0.0762
  122MOL0     C16373   7.541   0.753   9.236  0.2528  0.5255  0.0159
  122MOL0     C16374   7.691   0.741   9.285  0.1560  0.7442 -0.0770
  122MOL0     C16375   7.726   0.632   9.387 -0.1080 -0.9751 -0.3316
  122MOL0     C16376   7.867   0.657   9.449 -0.6053  0.3930  0.9640
  122MOL0     C16377   7.904   0.567   9.571  0.1990 -0.4518  0.8773
  122MOL0     C16378   8.055   0.580   9.611 -0.0376 -0.8689  0.4210
  122MOL0    Cl16379   8.166   0.522   9.497 -0.4496  0.4411  0.3891
  122MOL0     C16380   7.295   1.072   8.823  0.3078  0.1657 -0.7206
  122MOL0     C16381   7.195   1.081   8.721  0.5443  0.4793 -0.5129
  122MOL0     O16382   6.781   1.086   8.699 -0.4052 -0.1510 -0.1012
  122MOL0     C16383   6.658   1.039   8.463 -0.1564  0.2177 -0.2551
  122MOL0     C16384   6.597   1.017   8.343  0.0800 -0.6407  0.5119
  122MOL0     N16385   6.460   0.988   7.543  0.0048  0.2617 -0.3462
  122MOL0     N16386   6.395   1.043   7.441  0.3339  0.0571 -0.1962
  122MOL0     C16387   5.833   0.760   6.493  0.0379 -0.4616 -0.5857
  122MOL0     C16388   5.713   0.717   6.433 -0.7995  0.0807 -0.0783
  122MOL0     C16389   5.319   0.636   6.267  0.2569  0.0233  0.0148
  122MOL0     C16390   5.219   0.734   6.248 -0.4900  0.6221 -0.0933
  122MOL0     C16391   5.130   0.731   6.141 -0.1934 -0.4189  0.5255
  122MOL0     C16392   5.120   0.621   6.052  0.0849 -0.8383 -0.4401
  122MOL0     O16393   5.031   0.616   5.942  0.2793 -0.3178 -0.5928
  122MOL0     C16394   4.967   0.727   5.876 -0.4128  0.6998 -0.2401
  122MOL0     C16395   5.067   0.786   5.776 -0.8578 -0.3252  0.0923
  122MOL0     C16396   5.108   0.681   5.668  0.1754 -0.0107  0.0891
  122MOL0     C16397   5.219   0.737   5.584  0.1418 -0.8150 -0.5713
  122MOL0     C16398   5.323   0.635   5.553  0.4388 -0.6451  0.3075
  122MOL0     C16399   5.409   0.556   5.541 -0.5245 -0.0681 -0.8135
  122MOL0     C16400   5.192   0.508   6.084  0.1104 -1.0884 -0.1068
  122MOL0     C16401   5.292   0.514   6.192 -0.1370  0.1712  0.6799
  122MOL0     C16402   5.368   0.394   6.221  0.2755 -0.0809  0.6957
  122MOL0     H16403   5.529   1.001   6.460  2.2979  3.5334  0.8989
  122MOL0     H16404   5.755   1.079   6.567  1.1528 -0.6449  0.3231
  122MOL0     H16405   5.967   1.108   6.509 -1.4196  0.0572  1.5356
  122MOL0     H16406   5.939   1.113   6.676 -0.7634 -1.2141  0.4522
  122MOL0     H16407   6.132   1.215   6.624  0.2462  0.4054  1.0851
  122MOL0     H16408   6.199   1.073   6.549 -0.1110 -0.4932 -0.2449
  122MOL0     H16409   6.294   1.103   6.760 -0.1427 -0.8459  0.9453
  122MOL0     H16410   6.205   0.961   6.763  1.0611  1.3105 -0.1150
  122MOL0     H16411   6.112   1.232   6.859  0.6979 -0.0273 -0.1859
  122MOL0     H16412   6.013   1.081   6.873  0.8230  0.2926  1.1956
  122MOL0     H16413   6.153   0.980   7.020 -1.4048  0.1336  0.0256
  122MOL0     H16414   6.300   1.083   6.989 -0.2447 -1.0331  1.8458
  122MOL0     H16415   6.152   1.274   7.091  2.9074 -0.2184 -0.3392
  122MOL0     H16416   6.036   1.151   7.135  0.5108 -5.3013 -2.0517
  122MOL0     H16417   6.279   1.237   7.272  0.7590  0.4504 -1.0610
  122MOL0     H16418   6.314   1.083   7.196  0.0183  1.1437 -1.0703
  122MOL0     H16419   6.078   1.129   7.385 -0.5332  1.0456  0.8859
  122MOL0     H16420   6.115   0.987   7.286  0.3138 -0.3546  1.2098
  122MOL0     H16421   6.148   0.888   7.595  0.6241 -0.5109  0.9765
  122MOL0     H16422   6.294   0.864   7.814 -0.5733  2.5452 -0.3493
  122MOL0     H16423   6.393   0.739   7.742 -1.4496  0.0429  2.0244
  122MOL0     H16424   6.592   0.908   7.783  1.0926  1.7638  1.4952
  122MOL0     H16425   6.456   0.992   7.870  1.6655  1.1684 -1.6188
  122MOL0     H16426   6.536   0.702   7.888 -1.6392  1.3673 -4.6081
  122MOL0     H16427   6.427   0.796   8.010  0.3199  2.1785  0.0994
  122MOL0     H16428   6.724   0.850   7.987  1.1356 -5.1975 -1.0981
  122MOL0     H16429   6.639   0.747   8.101  1.9544 -0.5357 -2.1608
  122MOL0     H16430   6.835   0.841   8.180 -0.7924 -3.2666 -0.0005
  122MOL0     H16431   6.947   0.876   8.410 -0.3373 -4.1824 -1.9014
  122MOL0     H16432   6.947   0.901   8.864 -1.8582  1.6306 -0.5157
  122MOL0     H16433   7.118   0.896   9.053  2.2216  2.0319  1.2200
  122MOL0     H16434   7.270   0.885   9.189 -1.2624 -3.4479 -1.9648
  122MOL0     H16435   7.349   0.803   9.047  1.0502 -2.1133  1.9217
  122MOL0     H16436   7.561   0.911   9.092 -2.1498 -0.8999 -1.8927
  122MOL0     H16437   7.525   0.956   9.255  1.3751  0.0270  0.2715
  122MOL0     H16438   7.471   0.734   9.318  1.7158  0.3666  1.2818
  122MOL0     H16439   7.534   0.676   9.159  2.9905  1.8031 -1.6572
  122MOL0     H16440   7.719   0.838   9.329 -0.4170 -0.3787  3.0491
  122MOL0     H16441   7.748   0.718   9.195 -1.9413  0.3918 -1.3802
  122MOL0     H16442   7.727   0.540   9.329  1.3434  0.0369 -1.9883
  122MOL0     H16443   7.648   0.623   9.464 -2.1127 -0.0415 -2.1497
  122MOL0     H16444   7.940   0.638   9.370  0.3875  1.4957  1.5834
  122MOL0     H16445   7.873   0.763   9.475 -1.2759  1.2511 -1.9298
  122MOL0     H16446   7.875   0.464   9.545  0.7964 -0.6433  0.9567
  122MOL0     H16447   7.833   0.602   9.646 -4.2099 -0.1229 -2.9994
  122MOL0     H16448   8.081   0.683   9.633 -3.5406 -0.2828  2.4792
  122MOL0     H16449   8.068   0.535   9.710  0.9306  1.7286  1.5408
  122MOL0     H16450   7.387   1.129   8.816  2.1503 -2.4271  0.7495
  122MOL0     H16451   7.222   1.142   8.636 -0.3295 -0.4890 -1.5267
  122MOL0     H16452   6.597   1.090   8.537  0.4375 -1.0093  1.1424
  122MOL0     H16453   6.497   1.058   8.341  0.4984  0.7759  3.2726
  122MOL0     H16454   5.921   0.696   6.497  1.3582  1.3501  0.4454
  122MOL0     H16455   5.699   0.620   6.386  0.4856  0.4331 -1.2795
  122MOL0     H16456   5.241   0.822   6.308  2.5128 -2.4109  3.8059
  122MOL0     H16457   5.064   0.817   6.133 -0.9812 -1.1580 -1.6568
  122MOL0     H16458   4.933   0.802   5.949  0.4783  1.6229 -0.7524
  122MOL0     H16459   4.881   0.698   5.815  1.2784  2.7294 -3.9181
  122MOL0     H16460   5.147   0.834   5.833 -0.0657 -1.9782  0.4393
  122MOL0     H16461   5.010   0.864   5.725 -2.0529  1.3631  3.6479
  122MOL0     H16462   5.027   0.664   5.596 -0.3642 -0.2189  0.7386
  122MOL0     H16463   5.145   0.586   5.707  0.2781  0.2359  0.6056
  122MOL0     H16464   5.161   0.769   5.497  2.4812  2.5312 -1.1010
  122MOL0     H16465   5.266   0.828   5.620  1.9480 -0.9481 -2.3738
  122MOL0     H16466   5.494   0.491   5.537  0.7368  1.4785 -0.5113
  122MOL0     H16467   5.173   0.424   6.017 -2.2478 -0.1601 -0.7049
  122MOL0     H16468   5.340   0.354   6.319  2.7296 -1.5101  0.8856
  122MOL0     H16469   5.348   0.311   6.154  0.1011  1.6077 -1.4495
  122MOL0     H16470   5.476   0.411   6.216  0.1957  0.1097 -0.9904
  123MOL0     O16471   1.595   9.833   9.711 -0.5215  0.6727  0.1112
  123MOL0     C16472   1.618   9.748   9.789 -0.0603  1.3950  0.1464
  123MOL0     O16473   1.719   9.745   9.877  0.0309 -0.7477  0.1890
  123MOL0     C16474   1.837   9.807   9.853  0.6029 -0.2717  1.1089
  123MOL0     C16475   1.901   9.812   9.728  0.4340 -0.3809  0.5445
  123MOL0     C16476   2.025   9.869   9.716 -0.1140  0.0065  0.1659
  123MOL0     C16477   2.104   9.908   9.822 -0.0435  0.2685  1.1379
  123MOL0     O16478   2.228   9.962   9.785 -0.3770  1.1057  0.5808
  123MOL0     C16479   2.317  10.014   9.896 -0.4310  0.9452  0.3572
  123MOL0     C16480   2.436  10.095   9.844 -0.5189 -0.6401  0.5238
  123MOL0     C16481   2.554  10.026   9.773 -0.1924  0.0789 -0.5169
  123MOL0     C16482   2.639  10.119   9.694 -0.0097 -0.6879  0.0260
  123MOL0     C16483   2.767  10.059   9.632 -0.7969  0.0221 -0.2775
  123MOL0     C16484   2.844   9.952   9.726  0.3472  0.6831  0.2668
  123MOL0     C16485   2.992   9.944   9.685  0.1440 -0.8750  0.0533
  123MOL0     C16486   3.086   9.867   9.783 -0.2732 -0.8681  0.5619
  123MOL0     N16487   3.086   9.930   9.913 -0.8397 -0.5931 -0.7590
  123MOL0     C16488   3.011   9.885  10.018  0.2037 -0.0404  0.8508
  123MOL0     C16489   3.052   9.957  10.128 -0.4141  0.2004  0.5570
  123MOL0     C16490   3.001   9.943  10.269  0.0760  0.1839 -0.4417
  123MOL0     C16491   3.095   9.849  10.350  0.2088 -0.8350  0.8220
  123MOL0     C16492   3.066   9.828  10.503 -0.7383 -0.3762  0.0883
  123MOL0     C16493   3.159   9.716  10.565  0.3780 -0.0318  0.5207
  123MOL0     O16494   3.145   9.592  10.493  0.4881  0.9335  0.3672
  123MOL0     C16495   3.136   9.470  10.550  0.8202  0.3882 -1.0106
  123MOL0     C16496   3.162   9.360  10.467 -0.1971 -0.0632 -0.5590
  123MOL0     C16497   3.185   9.232  10.524  0.1520 -0.2418  0.1056
  123MOL0     C16498   3.169   9.205  10.654  0.1738  0.1759  0.4416
  123MOL0     C16499   3.184   9.063  10.718  0.9480 -1.0797  0.1201
  123MOL0     O16500   3.153   9.046  10.856 -0.2221 -0.0294  0.3340
  123MOL0     C16501   3.178   8.927  10.922  0.6295  0.5111  0.7962
  123MOL0     C16502   3.244   8.809  10.873  0.6687 -1.2973  0.2854
  123MOL0     C16503   3.283   8.708  10.963  0.0647 -0.7796 -0.1460
  123MOL0     C16504   3.237   8.704  11.098  0.3316 -0.2512 -0.4637
  123MOL0     O16505   3.278   8.615  11.191 -0.7525 -0.3916  0.5752
  123MOL0     C16506   3.262   8.479  11.154 -0.2081 -0.0139  1.0094
  123MOL0     C16507   3.349   8.394  11.258  0.5275  0.0586  0.3789
  123MOL0     C16508   3.269   8.263  11.285  0.0039 -0.7649 -0.0213
  123MOL0     C16509   3.312   8.187  11.416 -0.2917  0.4741  0.0624
  123MOL0     C16510   3.218   8.068  11.441  0.4537 -0.1908 -0.0448
  123MOL0     C16511   3.230   8.012  11.582  0.3613  0.3676  1.0681
  123MOL0     C16512   3.132   7.908  11.628  0.2146 -0.5391 -0.3984
  123MOL0     C16513   3.156   7.770  11.546 -0.2351 -0.7227 -0.2993
  123MOL0    Cl16514   3.307   7.667  11.589 -0.3751 -0.1380 -0.1177
  123MOL0     C16515   3.164   8.808  11.135  0.3417 -0.4131 -0.6866
  123MOL0     C16516   3.143   8.924  11.056 -0.4272  0.0820  0.3533
  123MOL0     O16517   3.218   8.976  10.636 -0.7242 -0.7748 -0.6004
  123MOL0     C16518   3.126   9.307  10.736 -0.1029 -0.2666  0.8292
  123MOL0     C16519   3.120   9.438  10.688 -1.0074 -0.5689 -0.6353
  123MOL0     N16520   3.139  10.055  10.083 -0.4659  0.0524 -0.1163
  123MOL0     N16521   3.158  10.039   9.958 -0.2650  0.6782 -0.2211
  123MOL0     C16522   2.046   9.893   9.950 -0.3618  0.6994 -0.4805
  123MOL0     C16523   1.909   9.851   9.964  0.9984  0.1452 -0.2281
  123MOL0     C16524   1.507   9.652   9.835  0.3573  0.7190  0.0153
  123MOL0     C16525   1.507   9.590   9.961 -1.0664  0.3380 -0.4339
  123MOL0     C16526   1.418   9.497   9.994  0.8569 -0.0780  0.2684
  123MOL0     C16527   1.315   9.462   9.911  0.9031 -0.1420 -0.0708
  123MOL0     O16528   1.239   9.356   9.954 -0.2501  0.1253 -0.0176
  123MOL0     C16529   1.129   9.325   9.880  0.6778  0.3162 -1.2032
  123MOL0     C16530   1.090   9.194   9.940 -0.3284  0.3239  0.5526
  123MOL0     C16531   0.955   9.153   9.894  0.0369 -0.6353 -0.0853
  123MOL0     C16532   0.932   9.127   9.747 -0.4473 -0.2956 -0.0254
  123MOL0     C16533   1.041   9.055   9.688 -0.6217  0.8685  0.1705
  123MOL0     C16534   1.137   8.999   9.628 -0.5497  0.1368 -0.5473
  123MOL0     C16535   1.294   9.534   9.793  1.3652 -0.6371 -0.3622
  123MOL0     C16536   1.390   9.633   9.752 -0.2986 -0.2334 -0.4638
  123MOL0     C16537   1.365   9.694   9.619 -0.8207 -0.0857 -0.6956
  123MOL0     H16538   1.843   9.789   9.639 -1.8743 -0.0877  1.8994
  123MOL0     H16539   2.054   9.902   9.616 -0.1351  1.7056  0.6946
  123MOL0     H16540   2.267  10.095   9.949 -0.9999 -0.2392  1.7084
  123MOL0     H16541   2.358   9.934   9.959  2.4677  0.9144 -1.4145
  123MOL0     H16542   2.470  10.149   9.934 -0.6282 -1.4956  1.0904
  123MOL0     H16543   2.404  10.173   9.775  4.4807  0.1922 -1.3193
  123MOL0     H16544   2.513   9.953   9.702 -3.5172 -0.6043  1.8601
  123MOL0     H16545   2.607   9.971   9.851 -0.9144  2.0098  1.4469
  123MOL0     H16546   2.569  10.165   9.624 -1.1651 -1.4527  0.6542
  123MOL0     H16547   2.682  10.194   9.762 -0.5942 -0.8123  0.5411
  123MOL0     H16548   2.751  10.007   9.537  2.3931 -4.8136  1.4647
  123MOL0     H16549   2.828  10.148   9.616  0.2209 -0.7798 -0.9484
  123MOL0     H16550   2.836   9.989   9.828 -0.1729  3.7464 -0.7686
  123MOL0     H16551   2.813   9.849   9.705  0.2932  0.8219 -0.3546
  123MOL0     H16552   3.027  10.048   9.679  2.1631 -1.5879 -1.8484
  123MOL0     H16553   3.004   9.903   9.585  0.3695 -3.1683  0.9590
  123MOL0     H16554   3.065   9.760   9.791  1.6878 -1.1572  3.7486
  123MOL0     H16555   3.185   9.878   9.738 -1.5910 -3.4269 -3.4472
  123MOL0     H16556   2.952   9.794  10.025 -0.5388  0.5528  4.2900
  123MOL0     H16557   2.997  10.042  10.314  0.1136  1.6605 -3.4384
  123MOL0     H16558   2.895   9.917  10.266 -0.0180  0.3752  0.7293
  123MOL0     H16559   3.112   9.756  10.294  4.2520 -0.4676  1.1778
  123MOL0     H16560   3.193   9.897  10.345  0.6463 -1.6376  1.4165
  123MOL0     H16561   2.963   9.797  10.521 -3.2015  4.9439 -2.5583
  123MOL0     H16562   3.086   9.923  10.553 -3.3084  0.1460  0.2485
  123MOL0     H16563   3.134   9.710  10.671  0.2911  0.9202  0.5578
  123MOL0     H16564   3.258   9.764  10.566  0.8442 -0.9648  0.9214
  123MOL0     H16565   3.168   9.378  10.361 -1.3158 -0.0995 -0.6314
  123MOL0     H16566   3.210   9.149  10.458  0.6443  1.6461 -2.2097
  123MOL0     H16567   3.273   8.788  10.771  0.4450 -1.1447  0.1876
  123MOL0     H16568   3.337   8.623  10.924 -3.0318 -1.9496 -2.2477
  123MOL0     H16569   3.156   8.453  11.157 -0.2643  0.0683  0.0265
  123MOL0     H16570   3.304   8.463  11.054  1.3484 -1.6258  1.8567
  123MOL0     H16571   3.454   8.373  11.234 -0.2091 -1.5937 -1.7089
  123MOL0     H16572   3.345   8.453  11.350  0.6035  2.9562 -1.3399
  123MOL0     H16573   3.162   8.283  11.296  0.1784  2.1668 -2.2105
  123MOL0     H16574   3.285   8.197  11.200 -1.6212 -1.8098  0.4601
  123MOL0     H16575   3.297   8.251  11.504  0.3227  1.8600 -0.8112
  123MOL0     H16576   3.417   8.161  11.426 -0.4837 -0.0623  0.8191
  123MOL0     H16577   3.242   7.989  11.369  2.7316  0.0109  0.4365
  123MOL0     H16578   3.113   8.097  11.424 -0.2963 -1.7270  1.6534
  123MOL0     H16579   3.324   7.958  11.590  0.9913  1.3872  0.7613
  123MOL0     H16580   3.226   8.094  11.655  1.5559  0.7853  0.6944
  123MOL0     H16581   3.027   7.940  11.624  0.7637  1.2418 -3.2210
  123MOL0     H16582   3.153   7.884  11.733  1.0352  2.9292  0.3449
  123MOL0     H16583   3.069   7.705  11.558 -1.6207  1.3969  2.2237
  123MOL0     H16584   3.154   7.815  11.446  0.6521 -3.0515 -1.4204
  123MOL0     H16585   3.132   8.814  11.238  0.7067  0.4766 -0.6181
  123MOL0     H16586   3.094   9.008  11.104 -0.0765 -0.6896  2.1275
  123MOL0     H16587   3.113   9.292  10.843  1.1935 -0.6030  0.9490
  123MOL0     H16588   3.115   9.518  10.761 -0.0283 -1.6754  0.7080
  123MOL0     H16589   2.090   9.919  10.046 -1.7305 -1.8057  0.9288
  123MOL0     H16590   1.850   9.825  10.052  1.1052 -0.5483 -0.3543
  123MOL0     H16591   1.589   9.605  10.030 -0.2283 -1.9291 -0.8218
  123MOL0     H16592   1.423   9.445  10.089 -1.3830  0.8387  0.9675
  123MOL0     H16593   1.144   9.322   9.771 -4.4691  3.2902 -2.3067
  123MOL0     H16594   1.040   9.386   9.896 -0.0718 -0.5307 -2.0069
  123MOL0     H16595   1.085   9.208  10.048  0.2091 -4.3461  1.3953
  123MOL0     H16596   1.172   9.122   9.928  0.5856  1.5956 -1.2239
  123MOL0     H16597   0.882   9.227   9.932  0.0843  1.2167 -3.2643
  123MOL0     H16598   0.944   9.057   9.945 -1.2153  0.8618  2.7087
  123MOL0     H16599   0.836   9.079   9.728 -0.1806 -0.2495 -1.6386
  123MOL0     H16600   0.924   9.222   9.694  0.0597  0.0992  0.5977
  123MOL0     H16601   1.205   8.938   9.572 -1.4636 -3.8806  2.2803
  123MOL0     H16602   1.210   9.529   9.724 -0.0790  1.3595  1.1033
  123MOL0     H16603   1.456   9.677   9.562 -0.5577 -2.8618  0.3853
  123MOL0     H16604   1.283   9.641   9.570 -0.9530 -2.6049  1.9345
  123MOL0     H16605   1.334   9.797   9.638  0.7421  0.3628 -0.4343
  124MOL0     O16606   5.932  10.311   2.867  0.2843 -0.6333 -0.7647
  124MOL0     C16607   5.839  10.229   2.863  0.3802 -0.6537  0.3313
  124MOL0     O16608   5.830  10.127   2.957 -0.4791 -0.3748  0.2321
  124MOL0     C16609   5.908  10.148   3.064  0.1316 -0.3261 -0.0734
  124MOL0     C16610   6.001  10.040   3.087 -0.0518 -0.1945  0.2300
  124MOL0     C16611   6.068  10.041   3.210 -0.3197  0.1164  0.7265
  124MOL0     C16612   6.049  10.133   3.307 -0.2570  0.2950  0.2658
  124MOL0     O16613   6.101  10.110   3.427 -0.8280 -0.3717 -0.1201
  124MOL0     C16614   6.030  10.140   3.554  0.5264  0.4995 -0.0972
  124MOL0     C16615   6.095  10.066   3.669 -0.2864 -0.2533 -0.0620
  124MOL0     C16616   6.239  10.108   3.677 -0.4405  0.6082 -0.3438
  124MOL0     C16617   6.263  10.256   3.707 -0.4094 -0.2110  0.2547
  124MOL0     C16618   6.417  10.280   3.723  0.3111  1.0183  0.2216
  124MOL0     C16619   6.440  10.385   3.829  0.5741  0.3884 -0.5802
  124MOL0     C16620   6.584  10.433   3.826 -0.5194  0.5021  0.1134
  124MOL0     C16621   6.688  10.325   3.839  1.0157 -0.1208  0.2640
  124MOL0     N16622   6.816  10.367   3.888 -0.6677 -0.7577 -0.2304
  124MOL0     C16623   6.912  10.425   3.808  0.4226  0.4255 -0.0727
  124MOL0     C16624   7.028  10.413   3.884 -0.1348 -0.2422 -0.6581
  124MOL0     C16625   7.160  10.474   3.842  0.7391  0.1841  0.1615
  124MOL0     C16626   7.243  10.535   3.951  0.0971 -0.9420 -0.2874
  124MOL0     C16627   7.366  10.618   3.900 -0.3247  0.3454 -0.1495
  124MOL0     C16628   7.441  10.696   4.004 -0.5631 -0.4728  0.2256
  124MOL0     O16629   7.533  10.794   3.947 -0.3854  0.7540  0.3498
  124MOL0     C16630   7.616  10.876   4.038  0.9507  0.2778 -0.5691
  124MOL0     C16631   7.588  10.886   4.174 -0.2991 -0.2720 -0.0589
  124MOL0     C16632   7.664  10.972   4.256  0.8574 -0.4678 -0.3990
  124MOL0     C16633   7.770  11.035   4.197  0.3398  0.4609 -0.0289
  124MOL0     C16634   7.855  11.138   4.269  0.1459 -0.6376 -0.3581
  124MOL0     O16635   7.889  11.248   4.194 -0.3668 -0.2854  0.6193
  124MOL0     C16636   7.977  11.335   4.239  0.3583  0.2705 -0.6527
  124MOL0     C16637   8.108  11.334   4.183 -0.1559  0.4243  0.0117
  124MOL0     C16638   8.200  11.424   4.235 -0.6401 -0.4757 -0.0069
  124MOL0     C16639   8.173  11.501   4.348  0.7539 -0.4808  1.2872
  124MOL0     O16640   8.256  11.601   4.399  0.4880 -0.0518  0.7426
  124MOL0     C16641   8.389  11.628   4.346  0.0955 -0.2038 -0.1674
  124MOL0     C16642   8.448  11.739   4.426 -0.2744  0.0061 -0.6820
  124MOL0     C16643   8.543  11.821   4.332  0.5537  0.2324 -0.1887
  124MOL0     C16644   8.603  11.942   4.407 -0.1942 -0.2513  0.0601
  124MOL0     C16645   8.669  12.044   4.315  0.6124  0.8105 -0.6038
  124MOL0     C16646   8.738  12.149   4.400 -0.3596 -0.1745 -0.1063
  124MOL0     C16647   8.724  12.285   4.344  0.4258  0.5402 -0.1311
  124MOL0     C16648   8.795  12.394   4.440 -0.4519  0.7479 -0.4140
  124MOL0    Cl16649   8.784  12.550   4.362 -0.3011  0.2492  0.0172
  124MOL0     C16650   8.039  11.499   4.401  0.9692  0.0702 -0.7699
  124MOL0     C16651   7.938  11.425   4.342  0.1697 -1.0413 -0.0892
  124MOL0     O16652   7.886  11.113   4.390 -0.3756 -0.0951  0.0005
  124MOL0     C16653   7.794  11.020   4.060 -0.0016  0.1084 -0.1922
  124MOL0     C16654   7.714  10.942   3.981 -0.4196  0.3463  0.0719
  124MOL0     N16655   6.996  10.345   3.993 -0.1672  0.1628 -0.8315
  124MOL0     N16656   6.869  10.309   3.998  0.8324  0.2801 -1.4444
  124MOL0     C16657   5.958  10.234   3.283 -0.0259  0.5621 -0.6848
  124MOL0     C16658   5.876  10.239   3.166 -0.8821 -0.5951  1.2778
  124MOL0     C16659   5.758  10.229   2.734 -0.8476  0.5831 -0.0338
  124MOL0     C16660   5.799  10.306   2.623 -0.3795  0.9244 -0.5643
  124MOL0     C16661   5.725  10.310   2.501 -0.1885  0.1677 -0.3440
  124MOL0     C16662   5.600  10.247   2.496 -0.2419 -0.0277  0.5935
  124MOL0     O16663   5.521  10.262   2.389 -0.5979  0.7902  0.4088
  124MOL0     C16664   5.387  10.267   2.416  0.3977  0.0326 -1.8378
  124MOL0     C16665   5.316  10.360   2.325 -0.3725  0.1663  0.1903
  124MOL0     C16666   5.168  10.367   2.358  0.6675 -0.0329 -0.5786
  124MOL0     C16667   5.073  10.420   2.252 -0.0272 -0.0773  0.0883
  124MOL0     C16668   5.117  10.547   2.193  0.7041  0.5023  0.2228
  124MOL0     C16669   5.167  10.652   2.157 -0.6520  1.0650  0.5492
  124MOL0     C16670   5.567  10.167   2.601  0.1329  0.1683  0.1742
  124MOL0     C16671   5.652  10.144   2.715  0.1159  1.1342 -0.1305
  124MOL0     C16672   5.602  10.037   2.807 -0.0581 -0.6883  0.3015
  124MOL0     H16673   6.013   9.975   3.001 -0.8369 -0.8803  0.6283
  124MOL0     H16674   6.142   9.966   3.236 -1.9163 -1.4426  0.9702
  124MOL0     H16675   6.021  10.248   3.569  2.3796  0.5100  1.3988
  124MOL0     H16676   5.927  10.104   3.547  0.9192 -0.4551 -1.4321
  124MOL0     H16677   6.088   9.961   3.641 -3.8979 -0.5872  1.5052
  124MOL0     H16678   6.044  10.097   3.761 -1.0059  0.1114 -0.5707
  124MOL0     H16679   6.296  10.079   3.588 -1.2176 -0.9743 -0.3651
  124MOL0     H16680   6.297  10.056   3.754 -0.1304 -0.8730 -1.5371
  124MOL0     H16681   6.212  10.319   3.633 -2.0182 -0.0405  1.4561
  124MOL0     H16682   6.220  10.282   3.805 -0.1605  1.8881 -0.1531
  124MOL0     H16683   6.468  10.188   3.753  0.8425  0.4925 -2.0636
  124MOL0     H16684   6.469  10.292   3.627  0.7546 -2.4093 -0.0966
  124MOL0     H16685   6.374  10.465   3.795  0.4232  1.0658  1.2087
  124MOL0     H16686   6.413  10.361   3.932  0.5993 -0.8314 -0.8434
  124MOL0     H16687   6.603  10.508   3.903  2.7497  0.8938 -0.9242
  124MOL0     H16688   6.597  10.488   3.733 -0.6449 -0.1573 -0.3019
  124MOL0     H16689   6.649  10.235   3.887 -1.6432  0.6741 -0.2431
  124MOL0     H16690   6.698  10.286   3.737 -2.6871  0.1424 -0.3352
  124MOL0     H16691   6.892  10.476   3.714  0.1209  0.4949  0.0261
  124MOL0     H16692   7.218  10.402   3.783 -1.7109 -0.0760 -2.1304
  124MOL0     H16693   7.145  10.563   3.779 -0.9653  0.9622  1.5952
  124MOL0     H16694   7.185  10.602   4.015  0.2602 -1.3410  0.2980
  124MOL0     H16695   7.280  10.449   4.008 -1.8269 -0.4835  1.8015
  124MOL0     H16696   7.324  10.692   3.831  2.4544  1.2874 -0.9428
  124MOL0     H16697   7.432  10.554   3.841 -0.2016  2.6989 -2.8035
  124MOL0     H16698   7.486  10.619   4.068 -3.8497 -1.4222  1.5995
  124MOL0     H16699   7.380  10.757   4.071  0.3682  2.2758 -1.2693
  124MOL0     H16700   7.511  10.830   4.225  0.7890 -2.3318 -0.5500
  124MOL0     H16701   7.636  10.970   4.361  0.7098  0.9135 -0.4026
  124MOL0     H16702   8.142  11.269   4.104  1.0288  2.9015 -1.6593
  124MOL0     H16703   8.297  11.416   4.186 -1.5287 -2.0490 -1.6611
  124MOL0     H16704   8.451  11.539   4.352  2.1928  1.1577 -0.4116
  124MOL0     H16705   8.373  11.659   4.242 -0.5039  0.4341  0.1124
  124MOL0     H16706   8.377  11.810   4.470  0.6082  1.9698 -2.2671
  124MOL0     H16707   8.505  11.685   4.502 -1.1953 -2.6633 -1.7713
  124MOL0     H16708   8.628  11.765   4.295  0.6993 -0.3557  0.9901
  124MOL0     H16709   8.479  11.869   4.258  0.6965  3.7619  1.7210
  124MOL0     H16710   8.681  11.913   4.478  2.4721 -0.2817 -2.6766
  124MOL0     H16711   8.527  11.999   4.462 -6.0410 -3.5006 -3.6494
  124MOL0     H16712   8.597  12.087   4.245  0.4711 -0.0640 -1.0119
  124MOL0     H16713   8.749  11.987   4.266  1.5712  1.5566  0.0552
  124MOL0     H16714   8.699  12.147   4.502  1.1815  1.2654  0.5504
  124MOL0     H16715   8.841  12.117   4.419 -0.5489 -0.8021 -0.0900
  124MOL0     H16716   8.617  12.308   4.347 -0.0983 -1.6043 -0.8147
  124MOL0     H16717   8.757  12.287   4.240  3.2086  0.0571  0.6660
  124MOL0     H16718   8.739  12.417   4.531 -0.4300  0.8169 -0.4175
  124MOL0     H16719   8.896  12.357   4.461 -0.9947 -0.6248 -0.1616
  124MOL0     H16720   8.017  11.574   4.476 -0.7945 -2.0947  0.9977
  124MOL0     H16721   7.832  11.426   4.367  0.3718  2.2471  1.0876
  124MOL0     H16722   7.881  11.075   4.025 -0.2730  2.1449  2.0794
  124MOL0     H16723   7.726  10.944   3.873  2.9246  0.0954  0.3190
  124MOL0     H16724   5.922  10.302   3.359 -0.1567 -1.6369  1.3314
  124MOL0     H16725   5.799  10.315   3.169 -0.6791 -0.3452  0.3202
  124MOL0     H16726   5.900  10.347   2.626 -0.2341  1.1880 -4.2156
  124MOL0     H16727   5.751  10.378   2.421  0.9774  1.1232  0.8009
  124MOL0     H16728   5.372  10.302   2.519  2.0336  3.9823 -2.7877
  124MOL0     H16729   5.344  10.167   2.400 -0.4945 -0.0853  0.7609
  124MOL0     H16730   5.326  10.317   2.225  1.1504 -0.0945  0.4189
  124MOL0     H16731   5.358  10.460   2.336  0.9296 -0.3617  0.2398
  124MOL0     H16732   5.145  10.442   2.435  1.3595 -0.9845  0.5827
  124MOL0     H16733   5.140  10.271   2.402  1.7164  1.2542  3.2502
  124MOL0     H16734   5.078  10.358   2.162 -0.1058 -0.3320  0.2590
  124MOL0     H16735   4.969  10.420   2.285 -1.2591 -0.0380 -3.3182
  124MOL0     H16736   5.201  10.750   2.129  1.1889  1.4614  3.7822
  124MOL0     H16737   5.485  10.097   2.590  1.3263 -1.0674 -1.2888
  124MOL0     H16738   5.540  10.092   2.878 -0.3670  1.0681 -1.2735
  124MOL0     H16739   5.539   9.959   2.764 -0.9086 -1.3906  2.6412
  124MOL0     H16740   5.688   9.981   2.846 -1.1207 -2.7818 -0.2599
  125MOL0     O16741   5.846   7.692   4.171  0.6600  0.0310 -0.0614
  125MOL0     C16742   5.886   7.804   4.155 -0.3813 -0.1642 -0.0836
  125MOL0     O16743   5.908   7.861   4.031  0.1760 -0.2852 -0.2454
  125MOL0     C16744   5.955   7.787   3.929  0.7849  0.3349  0.8101
  125MOL0     C16745   5.862   7.700   3.865 -0.5174 -0.0229 -0.4593
  125MOL0     C16746   5.911   7.617   3.763 -0.3129  0.1261  0.1547
  125MOL0     C16747   6.056   7.612   3.730  0.4925  0.3202 -0.5062
  125MOL0     O16748   6.109   7.530   3.638 -0.1350  0.5929 -0.3212
  125MOL0     C16749   6.054   7.396   3.650 -0.4970 -0.1490  0.1731
  125MOL0     C16750   6.148   7.302   3.570 -0.2708  0.8529  0.7636
  125MOL0     C16751   6.140   7.147   3.600  0.0236 -0.0613  0.0604
  125MOL0     C16752   5.993   7.105   3.608  0.8794 -0.6376 -1.3303
  125MOL0     C16753   5.973   6.960   3.645  0.4556  1.3873  0.2290
  125MOL0     C16754   5.823   6.933   3.686  0.7942 -0.3661 -0.3884
  125MOL0     C16755   5.791   6.791   3.698 -0.2657  0.3896 -1.1909
  125MOL0     C16756   5.779   6.722   3.561  0.3671 -0.4844 -0.3870
  125MOL0     N16757   5.640   6.713   3.503  0.6703 -0.7871  0.0984
  125MOL0     C16758   5.524   6.658   3.571 -0.3678 -0.3209 -0.1100
  125MOL0     C16759   5.434   6.645   3.473  0.1100  0.2527  0.2516
  125MOL0     C16760   5.301   6.575   3.501  0.0478  0.4197 -0.1887
  125MOL0     C16761   5.178   6.644   3.464  1.0596 -0.3551  0.8824
  125MOL0     C16762   5.038   6.606   3.522 -0.3445  0.1157 -0.1127
  125MOL0     C16763   4.935   6.692   3.459  0.1433  0.9440 -0.3742
  125MOL0     O16764   4.974   6.833   3.477  0.1301 -0.3266 -0.8440
  125MOL0     C16765   4.895   6.931   3.438  0.2089 -0.9496  0.2060
  125MOL0     C16766   4.757   6.916   3.408 -0.1042 -0.0759  0.0618
  125MOL0     C16767   4.671   7.030   3.403  0.6036 -0.7613 -0.3713
  125MOL0     C16768   4.717   7.160   3.430  0.1870 -0.0806  0.1944
  125MOL0     C16769   4.634   7.282   3.419 -0.0580  0.3753  0.4526
  125MOL0     O16770   4.691   7.396   3.476  0.9449  0.1661  0.0111
  125MOL0     C16771   4.614   7.505   3.487 -0.0948 -0.1753 -0.6303
  125MOL0     C16772   4.504   7.518   3.570 -0.2372 -0.8953  0.5145
  125MOL0     C16773   4.430   7.634   3.575  0.0116  0.7676  0.1548
  125MOL0     C16774   4.479   7.754   3.517 -0.0718 -0.9521  0.1226
  125MOL0     O16775   4.424   7.876   3.537  0.4370 -0.3571  0.0485
  125MOL0     C16776   4.285   7.894   3.593  0.3919 -0.3096  0.4421
  125MOL0     C16777   4.255   8.040   3.583 -0.7290 -0.1670 -0.4958
  125MOL0     C16778   4.218   8.087   3.448  0.1381  0.8006 -0.1396
  125MOL0     C16779   4.184   8.237   3.457  0.8227 -0.2456 -0.6786
  125MOL0     C16780   4.119   8.294   3.339  1.1799  0.4834  0.5701
  125MOL0     C16781   4.067   8.439   3.357  0.2498  0.0056 -0.0375
  125MOL0     C16782   4.182   8.538   3.387 -0.0540 -0.8006 -1.3165
  125MOL0     C16783   4.221   8.650   3.290  0.1989 -0.1207  0.7287
  125MOL0    Cl16784   4.245   8.579   3.134 -0.0790 -0.0440  0.0911
  125MOL0     C16785   4.598   7.746   3.450  0.9360  0.5620  0.0874
  125MOL0     C16786   4.666   7.619   3.432  0.5776 -0.4400 -0.0069
  125MOL0     O16787   4.520   7.280   3.369 -0.1982  0.0170  0.0218
  125MOL0     C16788   4.855   7.172   3.460  0.3268  0.4326 -0.3228
  125MOL0     C16789   4.936   7.053   3.470 -0.3107  0.3605  0.1320
  125MOL0     N16790   5.484   6.705   3.353  0.0191  0.5445 -0.1109
  125MOL0     N16791   5.601   6.735   3.370 -0.0017  0.1074  0.5426
  125MOL0     C16792   6.141   7.711   3.779 -0.2760  0.8345  0.4041
  125MOL0     C16793   6.092   7.797   3.884 -0.8751 -0.1976  0.3866
  125MOL0     C16794   5.903   7.888   4.270 -0.3555 -0.5057 -0.7551
  125MOL0     C16795   5.796   7.900   4.354 -0.6271 -0.4304 -0.8898
  125MOL0     C16796   5.790   7.972   4.476 -0.8211 -0.3901 -0.0832
  125MOL0     C16797   5.905   8.061   4.494  1.2621  0.2033 -0.5463
  125MOL0     O16798   5.898   8.151   4.596  0.0065 -0.2278  0.1203
  125MOL0     C16799   5.973   8.278   4.596  0.0475  0.7740 -1.2665
  125MOL0     C16800   6.108   8.256   4.673  0.4749  0.7633 -0.3971
  125MOL0     C16801   6.114   8.249   4.827 -0.5442 -0.2536  0.4942
  125MOL0     C16802   6.268   8.267   4.865 -0.0011  0.8931  0.4429
  125MOL0     C16803   6.291   8.228   5.007  1.0309 -0.5202  0.2421
  125MOL0     C16804   6.306   8.184   5.119 -0.4874  0.1699 -0.5870
  125MOL0     C16805   6.015   8.043   4.414 -1.4178 -0.0073  0.7340
  125MOL0     C16806   6.022   7.957   4.305  0.0644  0.3801 -0.5297
  125MOL0     C16807   6.153   7.944   4.224 -0.2422  0.8972  0.2484
  125MOL0     H16808   5.761   7.712   3.902  0.0771  0.9567  0.9433
  125MOL0     H16809   5.838   7.561   3.705 -0.7511 -0.6002  1.3791
  125MOL0     H16810   6.036   7.370   3.755 -1.0903  1.9028  0.6225
  125MOL0     H16811   5.960   7.392   3.596 -2.1753  3.1471  2.4728
  125MOL0     H16812   6.254   7.329   3.586 -0.1239  1.1592 -0.6105
  125MOL0     H16813   6.115   7.319   3.467 -2.7740 -2.9652  0.7596
  125MOL0     H16814   6.196   7.134   3.693  1.2431  2.8170 -0.1575
  125MOL0     H16815   6.202   7.092   3.530 -0.6349  1.2795 -1.6506
  125MOL0     H16816   5.931   7.163   3.677 -1.4917 -0.1944 -3.6591
  125MOL0     H16817   5.947   7.125   3.511 -3.4363  0.1229  0.6455
  125MOL0     H16818   6.002   6.894   3.562 -1.2579  2.2693 -1.1186
  125MOL0     H16819   6.047   6.928   3.719 -0.9142  0.1755  1.1283
  125MOL0     H16820   5.809   6.979   3.784 -0.8990  0.3296 -0.9278
  125MOL0     H16821   5.751   6.970   3.613  1.0173  0.8824  0.0041
  125MOL0     H16822   5.701   6.766   3.755 -2.1840  1.6326 -3.5027
  125MOL0     H16823   5.879   6.747   3.746 -0.4038  1.4503  0.0869
  125MOL0     H16824   5.830   6.770   3.477 -0.0286  2.3556  0.8769
  125MOL0     H16825   5.823   6.623   3.563  2.3227  0.3274 -1.0287
  125MOL0     H16826   5.517   6.636   3.678 -1.1614  1.8161  0.3358
  125MOL0     H16827   5.307   6.474   3.459  2.8227 -0.9736  3.0496
  125MOL0     H16828   5.299   6.556   3.609 -0.3586 -1.4470 -0.4879
  125MOL0     H16829   5.202   6.745   3.497 -1.2263  0.5729 -0.0514
  125MOL0     H16830   5.176   6.642   3.354  2.6607 -0.8749  0.8423
  125MOL0     H16831   5.048   6.630   3.628  2.5393  2.0298 -0.7088
  125MOL0     H16832   5.015   6.501   3.503  0.4217 -0.1184  0.1961
  125MOL0     H16833   4.844   6.653   3.506  1.9631 -3.2425  0.1521
  125MOL0     H16834   4.918   6.679   3.352 -1.9794  0.6605 -0.0471
  125MOL0     H16835   4.714   6.816   3.401  2.5143 -1.2089 -1.3914
  125MOL0     H16836   4.566   7.023   3.378  0.6536 -2.0847 -0.2487
  125MOL0     H16837   4.464   7.428   3.615 -2.1088 -0.3562  0.0237
  125MOL0     H16838   4.345   7.637   3.643  0.2040  2.3234  0.3819
  125MOL0     H16839   4.224   7.832   3.527  3.2084 -0.1137 -2.5884
  125MOL0     H16840   4.299   7.855   3.694  0.2678 -4.4130 -0.9556
  125MOL0     H16841   4.168   8.065   3.645  0.1596 -0.3597  0.8460
  125MOL0     H16842   4.348   8.087   3.615  0.8216 -2.0325 -1.9766
  125MOL0     H16843   4.298   8.063   3.377  0.1343  1.8116 -0.4992
  125MOL0     H16844   4.126   8.037   3.418 -1.1743  2.6327  0.6262
  125MOL0     H16845   4.279   8.285   3.481  0.7367 -0.9700  1.2844
  125MOL0     H16846   4.117   8.257   3.540  1.6276  0.3616 -0.1603
  125MOL0     H16847   4.031   8.232   3.318 -0.4866  2.5498  0.9931
  125MOL0     H16848   4.187   8.303   3.254  1.1872  0.2383  0.5504
  125MOL0     H16849   4.031   8.479   3.262 -0.1195 -0.7659 -0.2307
  125MOL0     H16850   3.993   8.454   3.436 -0.2412  2.3233 -0.8893
  125MOL0     H16851   4.277   8.483   3.391  1.1732  1.2988  1.3229
  125MOL0     H16852   4.162   8.576   3.487 -1.7814  2.2263 -2.6745
  125MOL0     H16853   4.155   8.736   3.293  0.2182 -0.1177  1.5271
  125MOL0     H16854   4.320   8.691   3.316  1.5985 -1.2905 -2.3269
  125MOL0     H16855   4.653   7.830   3.409  0.8420  2.3835  3.3784
  125MOL0     H16856   4.766   7.618   3.390  0.6754  1.2209  0.0886
  125MOL0     H16857   4.893   7.272   3.479  0.7016  0.2862 -0.2989
  125MOL0     H16858   5.026   7.060   3.531 -0.9629  0.7224  1.0835
  125MOL0     H16859   6.243   7.717   3.744 -0.4769  1.4504 -0.1116
  125MOL0     H16860   6.163   7.866   3.929 -0.5836  0.2454 -0.7117
  125MOL0     H16861   5.712   7.836   4.330  1.0420 -2.3257 -1.9732
  125MOL0     H16862   5.703   7.988   4.539 -0.6815  2.8052 -0.5026
  125MOL0     H16863   5.915   8.354   4.649 -1.4193 -0.3098 -1.2573
  125MOL0     H16864   5.996   8.308   4.494 -0.5636  2.6933 -0.8691
  125MOL0     H16865   6.173   8.338   4.643 -0.9199  3.0496  2.3574
  125MOL0     H16866   6.161   8.163   4.649 -1.4159 -0.2835 -0.7518
  125MOL0     H16867   6.061   8.158   4.856  1.7454 -2.1779 -0.9388
  125MOL0     H16868   6.062   8.337   4.866  1.1773 -0.0810  2.6291
  125MOL0     H16869   6.327   8.196   4.806 -0.4263  1.9359 -1.3290
  125MOL0     H16870   6.304   8.367   4.839 -1.1151  0.6288 -2.4849
  125MOL0     H16871   6.288   8.152   5.219 -3.8480  0.9944 -0.8171
  125MOL0     H16872   6.103   8.104   4.430 -0.7090 -0.5969 -0.7548
  125MOL0     H16873   6.240   7.900   4.274 -0.4953 -3.2815 -2.4664
  125MOL0     H16874   6.143   7.883   4.133  1.0378  1.9173 -0.6214
  125MOL0     H16875   6.175   8.039   4.174  0.5661 -0.6417 -2.5715
  126MOL0     O16876   0.625  10.986   1.500  0.9888  0.9677 -0.4527
  126MOL0     C16877   0.511  10.979   1.464  0.1959 -0.8608  0.5689
  126MOL0     O16878   0.435  10.871   1.456  0.0049  0.0671  0.0008
  126MOL0     C16879   0.487  10.749   1.514  0.8533  0.2255 -0.5060
  126MOL0     C16880   0.506  10.744   1.659 -0.4280  0.0571 -0.0680
  126MOL0     C16881   0.572  10.638   1.714 -0.8826  0.4173 -0.4486
  126MOL0     C16882   0.618  10.535   1.629 -0.3051  0.6077  0.0343
  126MOL0     O16883   0.683  10.427   1.680 -0.0004  0.0027 -0.7857
  126MOL0     C16884   0.807  10.394   1.624  0.2228  0.3327  0.2172
  126MOL0     C16885   0.908  10.512   1.596 -0.4305 -0.0700  0.1045
  126MOL0     C16886   1.061  10.482   1.608 -0.1519 -0.0898  0.0236
  126MOL0     C16887   1.124  10.610   1.657 -0.9113  0.1115 -0.4309
  126MOL0     C16888   1.273  10.589   1.642 -1.1241  0.7099 -1.1964
  126MOL0     C16889   1.352  10.716   1.687  0.3681  0.7324  0.3685
  126MOL0     C16890   1.317  10.835   1.594  0.3994  0.4529 -0.6730
  126MOL0     C16891   1.412  10.953   1.610 -0.5099  0.5491  1.1769
  126MOL0     N16892   1.557  10.919   1.576 -0.4425 -0.5897  1.4705
  126MOL0     C16893   1.607  10.902   1.453 -0.5375 -0.3554 -0.2000
  126MOL0     C16894   1.738  10.922   1.458 -0.4157 -0.5762  1.0278
  126MOL0     C16895   1.841  10.893   1.345 -0.3778 -0.0119  0.1024
  126MOL0     C16896   1.881  10.749   1.364  0.5400 -1.3164  0.3582
  126MOL0     C16897   2.027  10.711   1.320 -1.0024  0.1941  0.2187
  126MOL0     C16898   2.071  10.562   1.311 -1.3343 -0.1816  0.6577
  126MOL0     O16899   2.214  10.563   1.265 -0.5654  0.6442  0.0218
  126MOL0     C16900   2.309  10.568   1.368 -0.6705  0.2868  0.5144
  126MOL0     C16901   2.282  10.600   1.503  0.7229 -0.1627  0.6506
  126MOL0     C16902   2.384  10.602   1.597  0.0313 -0.2332 -0.3652
  126MOL0     C16903   2.510  10.570   1.556 -0.4118  0.3404 -0.0832
  126MOL0     C16904   2.621  10.571   1.658  0.1929 -0.1370 -0.1616
  126MOL0     O16905   2.746  10.524   1.622  0.2625  0.5228  0.4273
  126MOL0     C16906   2.864  10.589   1.647 -0.2374 -0.6240  0.8138
  126MOL0     C16907   2.919  10.681   1.552  0.4298  0.5063  0.2022
  126MOL0     C16908   3.031  10.764   1.592  0.0382  0.6398 -0.0259
  126MOL0     C16909   3.084  10.764   1.725 -0.7486  0.5315 -0.0505
  126MOL0     O16910   3.188  10.850   1.758  0.2259  0.2723  0.5105
  126MOL0     C16911   3.227  10.846   1.896 -0.0919  0.9957 -0.0264
  126MOL0     C16912   3.356  10.919   1.927  0.8038 -0.1743 -0.9867
  126MOL0     C16913   3.346  11.072   1.941 -0.1165 -0.2138  0.0786
  126MOL0     C16914   3.471  11.148   1.976 -0.3465 -0.3299 -0.8651
  126MOL0     C16915   3.481  11.297   1.930  0.7786  0.7677  0.2472
  126MOL0     C16916   3.343  11.378   1.958  0.0196 -0.4613  0.3904
  126MOL0     C16917   3.324  11.480   1.846 -1.1425  0.2529  0.0989
  126MOL0     C16918   3.210  11.574   1.870 -0.3129 -0.6660 -0.3112
  126MOL0    Cl16919   3.201  11.644   2.040 -0.6801 -0.1687 -0.1086
  126MOL0     C16920   3.030  10.661   1.805 -0.3126 -0.0967 -0.8742
  126MOL0     C16921   2.920  10.589   1.772  1.0815 -0.2645  0.0493
  126MOL0     O16922   2.598  10.634   1.761 -0.0908 -0.1134  0.0791
  126MOL0     C16923   2.543  10.542   1.422 -0.8698  0.0124  0.1041
  126MOL0     C16924   2.449  10.543   1.321 -0.1317 -0.6654  0.5300
  126MOL0     N16925   1.775  10.962   1.588 -0.3902 -0.3098 -0.3640
  126MOL0     N16926   1.666  10.950   1.658  0.3202 -0.0662 -0.6068
  126MOL0     C16927   0.571  10.528   1.497 -0.1307  0.2095 -0.0429
  126MOL0     C16928   0.515  10.639   1.435  0.7073  0.3742  1.0367
  126MOL0     C16929   0.447  11.112   1.444 -0.5566 -0.7425 -0.0235
  126MOL0     C16930   0.528  11.225   1.410  0.8562 -0.2151  0.2431
  126MOL0     C16931   0.468  11.354   1.393  0.6256  0.2285 -0.5865
  126MOL0     C16932   0.334  11.372   1.407  0.5354  0.0199  0.3429
  126MOL0     O16933   0.263  11.489   1.374 -0.5131 -0.0019 -0.0068
  126MOL0     C16934   0.340  11.603   1.335 -0.0461  0.3688  0.2657
  126MOL0     C16935   0.261  11.733   1.294  0.0107  0.4465 -0.1589
  126MOL0     C16936   0.154  11.698   1.189  0.6855  0.7069 -0.0273
  126MOL0     C16937   0.141  11.810   1.083 -0.2828  0.0431  0.1812
  126MOL0     C16938   0.266  11.821   1.003 -0.4025 -1.1968  0.3177
  126MOL0     C16939   0.354  11.869   0.943  0.1264  0.6749  0.0766
  126MOL0     C16940   0.258  11.261   1.449 -0.3253 -0.5188  0.0291
  126MOL0     C16941   0.306  11.135   1.467 -0.7945 -1.3565  0.1439
  126MOL0     C16942   0.207  11.037   1.517  0.0682  0.4277 -0.4037
  126MOL0     H16943   0.455  10.821   1.717 -2.8521  0.5240 -2.5537
  126MOL0     H16944   0.608  10.631   1.816  2.8762 -1.6482 -1.7342
  126MOL0     H16945   0.858  10.325   1.691 -0.8766  0.1902  0.9355
  126MOL0     H16946   0.797  10.346   1.526  3.1468  0.8108 -0.4209
  126MOL0     H16947   0.877  10.595   1.660  1.8041 -0.0755  1.3169
  126MOL0     H16948   0.899  10.552   1.495 -2.7236  3.6860  1.5838
  126MOL0     H16949   1.094  10.452   1.508  1.4120  5.4945 -1.4940
  126MOL0     H16950   1.080  10.402   1.680  1.5134  0.1533 -0.1126
  126MOL0     H16951   1.084  10.692   1.595 -3.1815  0.5890  1.5356
  126MOL0     H16952   1.102  10.630   1.762  1.9392 -0.0223  0.2778
  126MOL0     H16953   1.312  10.505   1.700  1.4658  1.5228 -1.6622
  126MOL0     H16954   1.304  10.570   1.538 -0.1413 -0.3087 -0.7322
  126MOL0     H16955   1.314  10.742   1.786 -0.6253 -1.1298  0.5187
  126MOL0     H16956   1.460  10.698   1.678 -0.3288 -5.7283  0.1784
  126MOL0     H16957   1.222  10.875   1.631  0.5156 -1.5210  1.9957
  126MOL0     H16958   1.291  10.813   1.489  0.7518 -1.4874 -0.3802
  126MOL0     H16959   1.375  11.046   1.566 -0.0957  0.1551 -0.0303
  126MOL0     H16960   1.414  10.967   1.719  1.2392 -1.6710  1.4998
  126MOL0     H16961   1.543  10.882   1.367  0.1660  1.0946 -1.0856
  126MOL0     H16962   1.816  10.914   1.241  0.5540 -0.6425 -0.2560
  126MOL0     H16963   1.929  10.957   1.359  0.2602 -0.0574 -3.0089
  126MOL0     H16964   1.867  10.710   1.465  0.8740 -0.9285  0.5534
  126MOL0     H16965   1.805  10.700   1.302 -0.2501 -0.2093  0.4212
  126MOL0     H16966   2.088  10.756   1.398 -2.6345 -1.4134  2.5597
  126MOL0     H16967   2.054  10.755   1.223 -1.5834 -1.6020 -0.8062
  126MOL0     H16968   2.000  10.517   1.241 -1.4690  3.0404 -1.4615
  126MOL0     H16969   2.069  10.502   1.403 -4.0933 -1.9841 -0.4536
  126MOL0     H16970   2.181  10.626   1.536 -0.9334 -2.5182 -2.1014
  126MOL0     H16971   2.363  10.640   1.696  5.0470 -1.0744  1.2784
  126MOL0     H16972   2.892  10.705   1.449  3.2922  1.8350 -0.3495
  126MOL0     H16973   3.060  10.845   1.526  1.2709 -1.2329 -1.8865
  126MOL0     H16974   3.149  10.880   1.965 -1.3354  0.9847 -1.3905
  126MOL0     H16975   3.239  10.743   1.930 -3.2695  0.3961 -0.3899
  126MOL0     H16976   3.398  10.873   2.017  0.1631 -0.9602 -1.0802
  126MOL0     H16977   3.422  10.887   1.846  0.3366 -1.3545 -0.9090
  126MOL0     H16978   3.309  11.112   1.846 -1.5515 -1.5066  0.0527
  126MOL0     H16979   3.273  11.086   2.021  1.2548  0.2373  1.3087
  126MOL0     H16980   3.558  11.106   1.924 -0.9174  0.6205 -2.6487
  126MOL0     H16981   3.474  11.146   2.086  1.1494  0.4497 -0.8640
  126MOL0     H16982   3.495  11.296   1.822 -0.4851  0.8294  0.0690
  126MOL0     H16983   3.568  11.348   1.972  1.2967  0.3197 -0.2745
  126MOL0     H16984   3.258  11.311   1.947 -3.3101  3.6063 -1.6562
  126MOL0     H16985   3.350  11.431   2.054  2.7090 -1.1812  0.6762
  126MOL0     H16986   3.315  11.428   1.749  0.8694 -0.3291  0.1776
  126MOL0     H16987   3.412  11.543   1.832  0.5617 -2.4384 -2.7363
  126MOL0     H16988   3.215  11.656   1.798 -0.2010  1.8617  2.3692
  126MOL0     H16989   3.116  11.522   1.848  0.7668 -2.4735 -0.8782
  126MOL0     H16990   3.063  10.630   1.903 -0.4605 -1.5097 -1.2438
  126MOL0     H16991   2.867  10.535   1.850 -0.2489 -1.3465 -1.5267
  126MOL0     H16992   2.648  10.525   1.401 -0.7750  2.1730 -1.4770
  126MOL0     H16993   2.489  10.512   1.225  3.6742 -1.8965  2.3253
  126MOL0     H16994   0.596  10.442   1.436 -2.3322  0.0665 -0.8444
  126MOL0     H16995   0.484  10.655   1.333 -3.3518  0.7499  2.1772
  126MOL0     H16996   0.624  11.209   1.363  1.6027 -0.3322  1.7474
  126MOL0     H16997   0.541  11.420   1.348  2.2130 -1.5189 -0.7033
  126MOL0     H16998   0.407  11.576   1.252 -1.4929 -0.7914 -0.5603
  126MOL0     H16999   0.409  11.624   1.418  1.3059  1.6685 -1.1187
  126MOL0     H17000   0.329  11.809   1.255 -0.1560  4.7369  6.4398
  126MOL0     H17001   0.211  11.774   1.382  1.4972 -1.2723  1.5894
  126MOL0     H17002   0.057  11.681   1.237  1.4114 -1.6918  0.7463
  126MOL0     H17003   0.185  11.605   1.142 -0.6887  0.9517 -1.4837
  126MOL0     H17004   0.060  11.788   1.013 -2.3558 -2.1911  3.0274
  126MOL0     H17005   0.122  11.909   1.126 -1.3543  0.4357 -1.1440
  126MOL0     H17006   0.425  11.905   0.871 -2.2951  1.3954 -2.0762
  126MOL0     H17007   0.150  11.271   1.437 -0.4419 -2.5547 -0.9826
  126MOL0     H17008   0.258  10.975   1.591 -0.7678  4.0367  3.5810
  126MOL0     H17009   0.116  11.079   1.562 -0.2648  2.4634 -2.7784
  126MOL0     H17010   0.169  10.993   1.425 -1.1663  0.6586 -0.0282
  127MOL0     O17011   3.267   3.020   8.832 -0.4141 -0.0560  0.3643
  127MOL0     C17012   3.364   3.005   8.910 -0.6123 -0.5348 -0.6472
  127MOL0     O17013   3.420   3.110   8.990 -0.5847  0.3226 -0.0562
  127MOL0     C17014   3.370   3.232   8.979 -0.2876  0.6185 -0.7968
  127MOL0     C17015   3.375   3.326   8.871 -0.0083  0.4026 -0.0142
  127MOL0     C17016   3.311   3.448   8.884 -0.1577  0.4197  0.0094
  127MOL0     C17017   3.251   3.488   8.999  0.3258 -0.9499 -1.0839
  127MOL0     O17018   3.177   3.613   8.998 -1.4786  0.2449 -0.1661
  127MOL0     C17019   3.082   3.625   8.890  0.8116 -0.7030  0.9170
  127MOL0     C17020   2.982   3.731   8.937  0.0744  0.5487  0.6557
  127MOL0     C17021   2.853   3.735   8.850  0.4110 -0.1559 -0.0313
  127MOL0     C17022   2.730   3.799   8.917  0.6766 -0.8508 -0.0577
  127MOL0     C17023   2.656   3.714   9.027  0.1191  0.4574 -0.4789
  127MOL0     C17024   2.583   3.590   8.965  0.2931 -0.0289  0.7098
  127MOL0     C17025   2.444   3.638   8.912  0.6337  0.2556  0.7717
  127MOL0     C17026   2.385   3.524   8.828 -0.1202 -0.4188 -0.1152
  127MOL0     N17027   2.448   3.490   8.702  0.4944  0.7757 -0.2023
  127MOL0     C17028   2.533   3.385   8.687 -0.3170 -0.3750 -1.0883
  127MOL0     C17029   2.535   3.358   8.551 -0.1554 -0.6324 -0.6896
  127MOL0     C17030   2.589   3.234   8.485 -0.5232  0.0287  0.0086
  127MOL0     C17031   2.672   3.260   8.359 -0.0934  0.3102  0.5263
  127MOL0     C17032   2.730   3.131   8.310 -0.2150  1.2961 -0.2531
  127MOL0     C17033   2.800   3.159   8.180 -0.0399  0.0770  0.1886
  127MOL0     O17034   2.730   3.194   8.064 -0.9673  0.4533 -0.0829
  127MOL0     C17035   2.777   3.291   7.986  0.1049 -0.1838 -0.2200
  127MOL0     C17036   2.796   3.270   7.851  0.0997 -0.0045 -0.0762
  127MOL0     C17037   2.831   3.371   7.754 -0.6787  0.1591  0.5178
  127MOL0     C17038   2.850   3.499   7.806 -0.4542 -0.2176  0.0514
  127MOL0     C17039   2.868   3.628   7.726 -0.5888  0.0675  0.6354
  127MOL0     O17040   2.878   3.613   7.588  0.4291  0.1104 -0.2496
  127MOL0     C17041   2.906   3.732   7.526  0.0505 -0.5154 -0.1787
  127MOL0     C17042   3.012   3.820   7.556 -0.4355 -0.7247  0.3735
  127MOL0     C17043   3.006   3.951   7.509  0.5773  0.7013 -0.5155
  127MOL0     C17044   2.902   3.989   7.413 -0.3812  0.0949 -0.4261
  127MOL0     O17045   2.873   4.112   7.361 -0.4463 -0.5567  0.0759
  127MOL0     C17046   2.964   4.218   7.397  0.1705  0.9628  0.4591
  127MOL0     C17047   2.925   4.359   7.340 -0.2709 -0.5534  0.2999
  127MOL0     C17048   2.880   4.337   7.190 -0.0978 -0.5156 -0.7312
  127MOL0     C17049   2.866   4.474   7.108  0.2177 -0.2746 -0.4385
  127MOL0     C17050   2.777   4.455   6.980  0.2300  0.3982 -0.7372
  127MOL0     C17051   2.799   4.551   6.862 -1.1539  0.5783  0.5206
  127MOL0     C17052   2.685   4.553   6.761 -0.1635  0.0453 -0.4083
  127MOL0     C17053   2.662   4.420   6.702  0.0745 -0.2348  0.3447
  127MOL0    Cl17054   2.536   4.435   6.579 -0.4514 -0.1047  0.1649
  127MOL0     C17055   2.807   3.898   7.386 -1.4509  0.7140  0.3309
  127MOL0     C17056   2.811   3.766   7.437  0.0501  0.0777  0.7184
  127MOL0     O17057   2.870   3.733   7.794 -0.5216  0.6117  0.2168
  127MOL0     C17058   2.827   3.521   7.947 -0.6986  0.4956  1.0378
  127MOL0     C17059   2.800   3.418   8.033  0.6049  0.5201  0.0593
  127MOL0     N17060   2.474   3.457   8.487 -0.8388 -1.0852  0.5478
  127MOL0     N17061   2.425   3.542   8.579 -0.1728 -0.0494 -0.5005
  127MOL0     C17062   3.259   3.395   9.105 -0.3598  0.1871 -0.9185
  127MOL0     C17063   3.310   3.269   9.103 -0.0841  0.5679 -0.3744
  127MOL0     C17064   3.425   2.868   8.934  1.0332 -0.1121 -0.3612
  127MOL0     C17065   3.552   2.853   8.985 -0.9026 -0.5034  0.0309
  127MOL0     C17066   3.606   2.728   9.000 -0.0288  0.7389  0.0525
  127MOL0     C17067   3.527   2.613   8.985 -0.6319  0.0996  0.5449
  127MOL0     O17068   3.598   2.498   9.005  0.4417 -0.0452 -0.3130
  127MOL0     C17069   3.534   2.392   9.079 -0.4810  0.3303  0.5229
  127MOL0     C17070   3.626   2.269   9.071 -0.0530 -0.3935 -0.0833
  127MOL0     C17071   3.629   2.201   8.927 -0.4546  0.8318  0.1908
  127MOL0     C17072   3.497   2.139   8.876 -0.5429 -0.0061  0.4050
  127MOL0     C17073   3.468   2.016   8.947  0.5166  0.5554 -0.3850
  127MOL0     C17074   3.424   1.930   9.031 -0.6577 -0.4722 -0.1433
  127MOL0     C17075   3.403   2.621   8.938  0.3961 -0.4180  0.4564
  127MOL0     C17076   3.349   2.749   8.913 -0.3509 -0.5906  0.2894
  127MOL0     C17077   3.205   2.748   8.885  1.1135 -0.0811  0.0694
  127MOL0     H17078   3.430   3.306   8.780  2.0287 -0.0316  1.2505
  127MOL0     H17079   3.312   3.520   8.803  1.3093 -2.1023 -2.3833
  127MOL0     H17080   3.119   3.665   8.796  1.0055  2.2255  2.1334
  127MOL0     H17081   3.034   3.530   8.862 -3.5432  0.9257  1.9508
  127MOL0     H17082   3.031   3.829   8.929  1.3908 -0.2214 -1.7993
  127MOL0     H17083   2.952   3.716   9.041  0.2661  0.8189  0.7495
  127MOL0     H17084   2.817   3.644   8.802  1.0606 -1.9155  2.6269
  127MOL0     H17085   2.883   3.804   8.770  0.4219 -0.1424 -0.0148
  127MOL0     H17086   2.758   3.892   8.967 -2.5221  1.5485 -2.2905
  127MOL0     H17087   2.652   3.819   8.842  2.4487  3.2023 -1.0935
  127MOL0     H17088   2.730   3.679   9.100  0.3705  1.3648 -0.2875
  127MOL0     H17089   2.582   3.769   9.086  0.2510 -0.7812  0.9162
  127MOL0     H17090   2.643   3.540   8.889 -0.8808 -0.0559 -0.2262
  127MOL0     H17091   2.566   3.513   9.042 -1.5045 -2.4101 -1.8970
  127MOL0     H17092   2.459   3.734   8.862  1.7596  0.5061  1.5492
  127MOL0     H17093   2.378   3.654   8.997 -1.8281 -1.8089 -0.5867
  127MOL0     H17094   2.394   3.436   8.892  3.0081  0.4064  0.7944
  127MOL0     H17095   2.278   3.536   8.813 -0.3850  0.4941  2.1987
  127MOL0     H17096   2.579   3.326   8.765 -2.0628 -0.3504  0.0126
  127MOL0     H17097   2.650   3.176   8.555 -2.1978 -2.4906 -0.5112
  127MOL0     H17098   2.511   3.170   8.444 -1.2109  3.3870 -4.6842
  127MOL0     H17099   2.597   3.304   8.292 -0.7754 -1.3102  0.1684
  127MOL0     H17100   2.741   3.342   8.380 -0.8450  1.3035 -0.7588
  127MOL0     H17101   2.660   3.049   8.289  2.1288 -0.2721 -2.5950
  127MOL0     H17102   2.805   3.085   8.375 -1.7817 -0.7041  0.2514
  127MOL0     H17103   2.847   3.068   8.141 -1.5877 -1.4805  1.8122
  127MOL0     H17104   2.887   3.221   8.206  0.9892 -1.7269  1.2655
  127MOL0     H17105   2.783   3.170   7.812  1.1987 -0.7914  1.4867
  127MOL0     H17106   2.860   3.347   7.652 -1.3761  0.8170  0.1480
  127MOL0     H17107   3.092   3.781   7.616  0.6642  1.4497  0.4305
  127MOL0     H17108   3.069   4.026   7.556 -0.8453  0.9438  1.1288
  127MOL0     H17109   2.973   4.233   7.505  1.1055 -0.2349  0.5646
  127MOL0     H17110   3.067   4.191   7.373  1.0151  3.5719  0.8543
  127MOL0     H17111   2.843   4.407   7.394 -0.6559 -0.5278 -0.2848
  127MOL0     H17112   3.008   4.430   7.337 -1.4460  0.8684 -1.3499
  127MOL0     H17113   2.966   4.277   7.158  0.1857 -0.6152  0.1850
  127MOL0     H17114   2.786   4.282   7.183 -0.0469 -0.5582 -1.0642
  127MOL0     H17115   2.962   4.515   7.074  0.2713  0.7653  0.9109
  127MOL0     H17116   2.821   4.550   7.172 -0.9413 -0.6356 -0.7954
  127MOL0     H17117   2.675   4.451   7.019  0.1568  1.8092 -0.7273
  127MOL0     H17118   2.807   4.360   6.935 -0.9777  0.9142 -2.7778
  127MOL0     H17119   2.809   4.653   6.902 -0.6125 -0.6470  3.8173
  127MOL0     H17120   2.891   4.523   6.810 -1.3222  0.8091  0.0975
  127MOL0     H17121   2.711   4.627   6.685  1.6468 -0.5819 -0.4367
  127MOL0     H17122   2.592   4.594   6.803 -1.1752 -0.6107 -1.9199
  127MOL0     H17123   2.755   4.374   6.669  0.6590 -0.5530  2.2642
  127MOL0     H17124   2.615   4.351   6.774  1.7941  0.3473  2.1276
  127MOL0     H17125   2.728   3.919   7.314 -0.1726 -1.7976 -2.0240
  127MOL0     H17126   2.730   3.696   7.416  1.6937 -2.1023  1.2386
  127MOL0     H17127   2.836   3.620   7.990 -2.2669 -0.6280  4.2597
  127MOL0     H17128   2.801   3.438   8.140  0.1461  2.2050 -0.2221
  127MOL0     H17129   3.210   3.414   9.200 -0.1767 -0.3533 -0.7075
  127MOL0     H17130   3.295   3.199   9.185 -1.8231  1.7961  0.4186
  127MOL0     H17131   3.619   2.937   9.004  0.0049 -1.2909  0.4258
  127MOL0     H17132   3.703   2.703   9.041 -1.5058 -1.9529  2.2075
  127MOL0     H17133   3.436   2.375   9.033 -0.2771 -0.7920  0.4708
  127MOL0     H17134   3.519   2.425   9.182 -2.0943  0.2993  0.3150
  127MOL0     H17135   3.592   2.206   9.154  1.1983  0.9326  1.5056
  127MOL0     H17136   3.730   2.297   9.089  0.3631  0.3648 -3.1627
  127MOL0     H17137   3.697   2.115   8.935  0.7725  1.4619 -2.3265
  127MOL0     H17138   3.685   2.256   8.852  1.6473  1.0719  1.8196
  127MOL0     H17139   3.405   2.196   8.891  1.5969  4.4290 -1.6577
  127MOL0     H17140   3.512   2.122   8.769  2.7834 -4.4904  1.2637
  127MOL0     H17141   3.390   1.850   9.094 -0.7384  0.3003  0.8324
  127MOL0     H17142   3.338   2.533   8.937 -0.6721  0.3573 -0.3039
  127MOL0     H17143   3.192   2.761   8.778 -0.7138  0.6248  0.3375
  127MOL0     H17144   3.152   2.654   8.906  1.0802 -0.2383 -0.7038
  127MOL0     H17145   3.144   2.819   8.942  4.0866  0.8529  2.3073
  128MOL0     O17146  11.325   7.582   2.058  0.3813  0.0177  0.3285
  128MOL0     C17147  11.326   7.473   2.114  0.6900 -0.8675 -0.4460
  128MOL0     O17148  11.274   7.446   2.238 -1.1804  0.4048  0.3098
  128MOL0     C17149  11.208   7.546   2.301  0.1040 -0.3398 -0.4859
  128MOL0     C17150  11.269   7.631   2.392  0.1374 -0.4998 -0.2563
  128MOL0     C17151  11.197   7.733   2.460 -0.3004 -1.0219  0.3540
  128MOL0     C17152  11.066   7.754   2.440  0.6736  0.9763 -0.4039
  128MOL0     O17153  10.993   7.853   2.501 -0.7515 -0.0770 -0.5199
  128MOL0     C17154  10.971   7.967   2.413 -0.0996  0.6475 -0.4214
  128MOL0     C17155  11.089   8.025   2.341 -0.8540  0.1183 -0.7792
  128MOL0     C17156  11.051   8.160   2.278 -0.4891  1.6601 -0.7248
  128MOL0     C17157  11.156   8.230   2.189 -0.2254  0.4979  0.2012
  128MOL0     C17158  11.276   8.265   2.262 -0.4467  0.7551  0.6453
  128MOL0     C17159  11.275   8.386   2.366  0.2578 -0.6181  0.1169
  128MOL0     C17160  11.415   8.454   2.402 -0.7271 -0.1205  0.3927
  128MOL0     C17161  11.481   8.513   2.273 -0.2966  0.6290  0.3650
  128MOL0     N17162  11.606   8.577   2.330 -0.4837 -0.6159 -0.2479
  128MOL0     C17163  11.612   8.702   2.391 -0.2083  0.0776 -0.4965
  128MOL0     C17164  11.744   8.715   2.430 -1.2974 -0.2782  0.8953
  128MOL0     C17165  11.832   8.814   2.511  0.2062  0.6158  0.4243
  128MOL0     C17166  11.886   8.744   2.645 -0.0113  0.3709  0.2304
  128MOL0     C17167  11.781   8.718   2.766  0.4086  0.1283  0.0333
  128MOL0     C17168  11.709   8.841   2.846 -0.6262  0.9970  0.4473
  128MOL0     O17169  11.624   8.932   2.773  0.6281  0.2461  0.4115
  128MOL0     C17170  11.496   8.887   2.726 -0.1354 -0.9277 -0.4231
  128MOL0     C17171  11.426   8.995   2.665  0.6819  0.5778  0.3178
  128MOL0     C17172  11.295   8.984   2.622  0.1338 -0.1546 -0.3529
  128MOL0     C17173  11.237   8.850   2.622 -0.6855  0.2620 -0.3779
  128MOL0     C17174  11.100   8.832   2.568 -0.2864  1.2697  0.0373
  128MOL0     O17175  11.037   8.700   2.569 -0.2002 -0.3508  0.5509
  128MOL0     C17176  10.922   8.706   2.493 -0.1848 -0.4088  0.5694
  128MOL0     C17177  10.909   8.625   2.387 -0.8930  0.2646  0.6756
  128MOL0     C17178  10.789   8.596   2.322 -0.1680 -0.5966  0.2737
  128MOL0     C17179  10.671   8.675   2.357  0.8320  0.2316 -0.0445
  128MOL0     O17180  10.539   8.678   2.304 -1.1315 -0.2243 -0.3958
  128MOL0     C17181  10.523   8.634   2.168  0.3085  0.4689 -0.1328
  128MOL0     C17182  10.371   8.609   2.136 -0.5603  0.2204 -0.6964
  128MOL0     C17183  10.347   8.523   2.006  0.1931  0.8113 -0.5147
  128MOL0     C17184  10.385   8.606   1.887  0.1009 -0.0696  0.1300
  128MOL0     C17185  10.370   8.537   1.741 -0.3733  0.1244 -0.0400
  128MOL0     C17186  10.474   8.420   1.721  0.0312 -0.0514 -0.7044
  128MOL0     C17187  10.620   8.475   1.703  0.2454 -0.4742 -0.5975
  128MOL0     C17188  10.699   8.386   1.616  0.3313  0.3121 -0.1467
  128MOL0    Cl17189  10.858   8.455   1.571  0.2259 -0.4417  0.4615
  128MOL0     C17190  10.694   8.765   2.465 -0.0115 -0.0820  0.2421
  128MOL0     C17191  10.815   8.778   2.533 -0.2372 -0.0223  0.8877
  128MOL0     O17192  11.049   8.928   2.519 -0.0410 -0.7004 -0.8145
  128MOL0     C17193  11.313   8.740   2.667 -0.4236 -0.5504 -0.7630
  128MOL0     C17194  11.439   8.763   2.720  0.4683  0.6757 -0.5035
  128MOL0     N17195  11.808   8.597   2.392  0.2405 -0.1258  0.0356
  128MOL0     N17196  11.724   8.514   2.331 -0.3986  0.1452  0.1478
  128MOL0     C17197  11.006   7.661   2.356 -0.0602  1.4028 -0.3953
  128MOL0     C17198  11.077   7.562   2.293  0.6628  1.0101  0.2565
  128MOL0     C17199  11.404   7.368   2.053 -0.3782  0.6499 -0.5083
  128MOL0     C17200  11.517   7.321   2.123  0.6443 -0.0949 -0.7071
  128MOL0     C17201  11.621   7.269   2.049  0.2748 -0.5253  0.3943
  128MOL0     C17202  11.613   7.255   1.910 -0.7001 -0.0017  1.0262
  128MOL0     O17203  11.729   7.197   1.852  0.0404 -0.1151 -0.2010
  128MOL0     C17204  11.729   7.171   1.710 -0.0223  0.2585 -0.7050
  128MOL0     C17205  11.857   7.103   1.659  0.3869  0.0160 -0.0344
  128MOL0     C17206  11.981   7.163   1.720 -0.7381  0.1317  0.7735
  128MOL0     C17207  12.101   7.082   1.674  0.8393 -1.0615 -0.5771
  128MOL0     C17208  12.211   7.175   1.647  0.0230 -0.0513  0.3754
  128MOL0     C17209  12.308   7.242   1.613 -0.2888 -0.1241 -0.9362
  128MOL0     C17210  11.492   7.302   1.843 -0.2884  0.4148 -0.3190
  128MOL0     C17211  11.380   7.348   1.920 -0.3471  0.9837 -0.7049
  128MOL0     C17212  11.255   7.382   1.852  1.0694  0.0826 -0.2304
  128MOL0     H17213  11.369   7.609   2.428  0.5865 -2.1981 -2.3387
  128MOL0     H17214  11.261   7.804   2.511  1.6080 -1.9371 -0.6723
  128MOL0     H17215  10.887   7.944   2.346 -2.1077 -3.6380  3.0796
  128MOL0     H17216  10.925   8.045   2.475  2.1818 -0.0997  2.4099
  128MOL0     H17217  11.124   7.950   2.269 -0.7713 -2.0195  1.3644
  128MOL0     H17218  11.168   8.055   2.410 -1.8195  5.0831 -1.5197
  128MOL0     H17219  11.047   8.218   2.371  2.2876  1.3763 -0.3361
  128MOL0     H17220  10.957   8.166   2.223 -0.0054 -0.6144 -1.9539
  128MOL0     H17221  11.189   8.163   2.109  3.0362 -0.1270  1.8990
  128MOL0     H17222  11.108   8.321   2.152 -2.2292 -0.2635  0.8161
  128MOL0     H17223  11.311   8.176   2.315 -1.5290  0.8641  1.6004
  128MOL0     H17224  11.350   8.269   2.182  3.7448  3.2674  4.1939
  128MOL0     H17225  11.209   8.470   2.341 -0.1814 -1.2965 -1.1078
  128MOL0     H17226  11.234   8.359   2.463  2.8876 -0.7535  1.2625
  128MOL0     H17227  11.478   8.376   2.445 -0.9640  0.6019  2.0953
  128MOL0     H17228  11.386   8.529   2.476 -0.4693  2.5130 -1.9791
  128MOL0     H17229  11.511   8.440   2.198  0.0818 -1.3382  2.3159
  128MOL0     H17230  11.417   8.590   2.230 -0.4001 -0.5017 -1.5746
  128MOL0     H17231  11.530   8.773   2.396  1.2444  1.8581 -0.8079
  128MOL0     H17232  11.908   8.854   2.444  0.9025 -0.4678  0.5391
  128MOL0     H17233  11.774   8.903   2.536  1.3367  0.9048  2.2412
  128MOL0     H17234  11.930   8.647   2.619 -2.2049 -1.4191  2.5891
  128MOL0     H17235  11.962   8.807   2.690 -1.1988  1.4750  0.7609
  128MOL0     H17236  11.835   8.655   2.837  0.9760 -1.1861 -1.4961
  128MOL0     H17237  11.707   8.656   2.715 -0.1420  0.3684  0.5377
  128MOL0     H17238  11.789   8.899   2.892  1.5107 -0.6166 -1.0769
  128MOL0     H17239  11.648   8.795   2.925 -0.1479  0.3329  0.4448
  128MOL0     H17240  11.476   9.089   2.684  0.9360  0.7828 -1.2307
  128MOL0     H17241  11.256   9.073   2.576  3.8646  0.4728 -2.7306
  128MOL0     H17242  10.993   8.557   2.378  1.4268  3.1161 -0.7017
  128MOL0     H17243  10.788   8.520   2.245  2.4342 -0.9889  0.5517
  128MOL0     H17244  10.560   8.696   2.086 -1.1740  0.2343 -1.0250
  128MOL0     H17245  10.568   8.536   2.150 -1.1826  0.0355 -1.8260
  128MOL0     H17246  10.318   8.552   2.213 -0.3385 -1.5841 -1.8205
  128MOL0     H17247  10.327   8.708   2.118  2.4088  1.8332  0.0940
  128MOL0     H17248  10.411   8.434   2.013  0.5468  0.9986 -1.2445
  128MOL0     H17249  10.247   8.479   2.000  0.3628  0.2986  0.2401
  128MOL0     H17250  10.482   8.656   1.894  0.6509 -1.0818  0.0019
  128MOL0     H17251  10.318   8.692   1.880 -1.6964 -1.2352  2.0004
  128MOL0     H17252  10.382   8.611   1.661 -0.1686 -1.4634 -1.5659
  128MOL0     H17253  10.276   8.480   1.735  0.7276 -1.9918  1.5016
  128MOL0     H17254  10.464   8.349   1.804 -2.1636  2.4884  1.3920
  128MOL0     H17255  10.439   8.367   1.632 -2.6943 -1.4263  1.0371
  128MOL0     H17256  10.675   8.503   1.793 -3.2839  1.4784  1.1688
  128MOL0     H17257  10.605   8.566   1.645 -1.1149  1.2855  2.3134
  128MOL0     H17258  10.702   8.297   1.679 -1.3214 -0.4495 -1.0659
  128MOL0     H17259  10.640   8.358   1.528 -0.6230 -2.2036  1.1941
  128MOL0     H17260  10.603   8.817   2.496 -0.9790  0.1250 -2.5752
  128MOL0     H17261  10.817   8.826   2.630 -0.2752  1.0652  0.3614
  128MOL0     H17262  11.269   8.641   2.674  1.7694 -1.4858  1.3132
  128MOL0     H17263  11.493   8.690   2.778  2.9729  2.1566 -0.8176
  128MOL0     H17264  10.898   7.663   2.341 -0.2391 -1.3855  0.0020
  128MOL0     H17265  11.031   7.487   2.229 -1.7805  1.1097  1.7648
  128MOL0     H17266  11.540   7.343   2.226 -1.5254 -4.0620  0.8583
  128MOL0     H17267  11.713   7.247   2.103  1.2851 -0.6138 -1.3019
  128MOL0     H17268  11.710   7.266   1.658 -1.1272  0.7543  0.5515
  128MOL0     H17269  11.644   7.107   1.685  0.7779 -0.6607 -1.0870
  128MOL0     H17270  11.862   7.113   1.551 -1.9649  3.0755  0.0202
  128MOL0     H17271  11.848   6.997   1.687 -0.8461  0.6178  2.1113
  128MOL0     H17272  11.970   7.155   1.829 -2.6752 -1.6307  0.5127
  128MOL0     H17273  11.998   7.267   1.690  1.6041  0.4424  2.8902
  128MOL0     H17274  12.135   7.009   1.748 -0.5288 -1.7409 -0.5801
  128MOL0     H17275  12.075   7.019   1.589 -0.2271 -2.3102  0.6309
  128MOL0     H17276  12.382   7.311   1.577 -0.4557 -0.1246 -1.2811
  128MOL0     H17277  11.469   7.291   1.737 -0.8801  2.6055 -0.4660
  128MOL0     H17278  11.236   7.302   1.779 -0.5704  1.3060 -1.2176
  128MOL0     H17279  11.171   7.379   1.923  0.9609 -0.3464 -0.3741
  128MOL0     H17280  11.260   7.473   1.792  1.0275  0.6063  0.5491
  129MOL0     O17281   6.874   2.666   0.469 -0.7085 -1.0135  0.1046
  129MOL0     C17282   6.873   2.704   0.584  1.2185  0.3237  0.1889
  129MOL0     O17283   6.768   2.772   0.646 -0.6256 -0.5502 -0.2581
  129MOL0     C17284   6.643   2.784   0.589 -0.2376 -0.3057  0.2457
  129MOL0     C17285   6.528   2.751   0.659 -0.3877 -1.2421 -0.5940
  129MOL0     C17286   6.399   2.754   0.595 -0.2732 -0.6385  0.1581
  129MOL0     C17287   6.392   2.781   0.455  0.1418  0.3653  0.0890
  129MOL0     O17288   6.266   2.758   0.393 -0.3133 -0.4138 -0.1813
  129MOL0     C17289   6.249   2.807   0.259  0.0392 -0.3715  0.4025
  129MOL0     C17290   6.099   2.772   0.218 -0.9533  0.3356 -0.2193
  129MOL0     C17291   6.038   2.857   0.108 -0.4829 -0.4202  0.8977
  129MOL0     C17292   6.104   2.831  -0.028 -0.2075  1.1185  0.5187
  129MOL0     C17293   6.034   2.896  -0.152  1.2834 -0.5975 -0.1577
  129MOL0     C17294   6.086   2.852  -0.288 -0.3361 -0.6099  0.8517
  129MOL0     C17295   6.051   2.699  -0.327 -0.0593 -0.4897  0.2942
  129MOL0     C17296   6.174   2.617  -0.359  0.2479 -1.0506  0.6184
  129MOL0     N17297   6.258   2.602  -0.234 -0.8566 -0.4350  0.2212
  129MOL0     C17298   6.231   2.519  -0.126  0.5826  0.5163 -0.5142
  129MOL0     C17299   6.335   2.532  -0.045 -0.0199  1.0903 -0.3455
  129MOL0     C17300   6.333   2.468   0.096  0.2612  0.4962 -0.0857
  129MOL0     C17301   6.424   2.350   0.131 -0.1610  0.4975 -0.3213
  129MOL0     C17302   6.466   2.267   0.006  0.0889  0.5528 -0.0529
  129MOL0     C17303   6.522   2.130   0.061  0.2026  0.1280  1.0247
  129MOL0     O17304   6.425   2.051   0.124  0.5412 -0.1835 -0.7949
  129MOL0     C17305   6.466   1.937   0.192  0.4851 -0.3276 -0.4861
  129MOL0     C17306   6.591   1.878   0.198 -0.7746 -0.0655 -0.4899
  129MOL0     C17307   6.614   1.767   0.281 -0.3686 -0.5157  0.9738
  129MOL0     C17308   6.511   1.703   0.355 -0.5604  0.2175 -0.1532
  129MOL0     C17309   6.535   1.583   0.438 -0.2857 -0.3278 -0.1359
  129MOL0     O17310   6.665   1.560   0.471  0.0356  0.1148  0.3511
  129MOL0     C17311   6.695   1.441   0.537 -0.0179 -0.0942 -0.1522
  129MOL0     C17312   6.799   1.453   0.624 -0.0681  0.4067  0.2538
  129MOL0     C17313   6.832   1.341   0.703 -0.0701  0.2104 -0.3138
  129MOL0     C17314   6.782   1.215   0.678  0.3256 -0.1061 -0.3022
  129MOL0     O17315   6.826   1.099   0.739 -0.7318  0.1600 -0.3816
  129MOL0     C17316   6.858   1.090   0.880  0.1018  0.8782  0.9605
  129MOL0     C17317   6.860   0.957   0.927  0.5618  0.0849 -0.2325
  129MOL0     C17318   6.736   0.869   0.892  0.0835 -0.2923 -0.4561
  129MOL0     C17319   6.779   0.724   0.890  0.9034 -0.3751 -0.4500
  129MOL0     C17320   6.674   0.616   0.906 -0.6629  0.2286 -0.0198
  129MOL0     C17321   6.593   0.627   1.040  1.2912 -0.1111 -1.0693
  129MOL0     C17322   6.488   0.519   1.065  0.3330  0.1478  0.2227
  129MOL0     C17323   6.398   0.549   1.183  0.3611  0.8257 -0.0376
  129MOL0    Cl17324   6.296   0.695   1.163  0.4267 -0.0098 -0.0819
  129MOL0     C17325   6.685   1.202   0.577  0.8373 -0.4256  0.7243
  129MOL0     C17326   6.643   1.316   0.509  0.3666  0.4636 -0.3692
  129MOL0     O17327   6.438   1.525   0.485 -0.1941  0.3042 -0.5788
  129MOL0     C17328   6.388   1.757   0.325  1.0503  0.2452 -0.0598
  129MOL0     C17329   6.366   1.870   0.252 -0.8493  0.4342  1.0873
  129MOL0     N17330   6.422   2.629  -0.093 -0.2019  0.2094 -0.2386
  129MOL0     N17331   6.366   2.668  -0.201  0.1969 -0.3561  0.2568
  129MOL0     C17332   6.504   2.814   0.389 -0.3308 -0.1612 -0.2106
  129MOL0     C17333   6.630   2.818   0.450 -0.1133  0.3567 -0.2611
  129MOL0     C17334   6.990   2.681   0.670 -0.8883  0.3975  0.5742
  129MOL0     C17335   7.058   2.798   0.724  0.4032  0.8082  0.3818
  129MOL0     C17336   7.177   2.797   0.790 -1.6077 -0.5236 -0.2831
  129MOL0     C17337   7.228   2.675   0.819 -0.8092  0.4516 -0.2964
  129MOL0     O17338   7.343   2.684   0.900  0.6074  0.0446  0.0358
  129MOL0     C17339   7.425   2.571   0.916 -0.5804  0.7853  0.0833
  129MOL0     C17340   7.543   2.605   1.008 -0.7673  0.5658 -0.0768
  129MOL0     C17341   7.646   2.496   1.001  0.7352 -0.1003  0.0041
  129MOL0     C17342   7.760   2.527   0.905 -0.8818  0.1891 -0.3860
  129MOL0     C17343   7.806   2.405   0.847 -0.2822 -0.0813  0.3972
  129MOL0     C17344   7.839   2.301   0.802 -0.1925  0.5024 -0.2565
  129MOL0     C17345   7.158   2.555   0.779 -0.6825  0.0137 -0.0971
  129MOL0     C17346   7.045   2.558   0.698  0.0938  0.1950 -0.4965
  129MOL0     C17347   6.980   2.429   0.656 -0.6251 -0.0346  0.6261
  129MOL0     H17348   6.526   2.718   0.763 -1.5807 -1.3897 -0.6471
  129MOL0     H17349   6.312   2.724   0.652  1.3405  0.2809  3.3564
  129MOL0     H17350   6.272   2.914   0.251  2.2820 -0.7942  0.3913
  129MOL0     H17351   6.316   2.764   0.184 -0.5213 -0.5600  0.0047
  129MOL0     H17352   6.030   2.787   0.302 -1.5977  2.5636 -1.0919
  129MOL0     H17353   6.097   2.668   0.184  0.8300 -0.2940  1.3960
  129MOL0     H17354   6.049   2.961   0.140  2.0846 -0.4143  0.2106
  129MOL0     H17355   5.935   2.823   0.099 -1.1586  1.7527 -0.4705
  129MOL0     H17356   6.200   2.884  -0.031  1.5619 -1.7652  1.2999
  129MOL0     H17357   6.127   2.724  -0.037 -0.5074  1.1696 -1.2442
  129MOL0     H17358   5.927   2.876  -0.144  1.2220 -0.0982  0.2825
  129MOL0     H17359   6.040   3.005  -0.144 -0.7288 -0.4795  0.2063
  129MOL0     H17360   6.039   2.911  -0.367 -0.8743 -1.8914  0.1732
  129MOL0     H17361   6.194   2.860  -0.307 -0.3167 -2.7997 -0.3786
  129MOL0     H17362   5.983   2.708  -0.413  0.3825 -1.5413 -0.1768
  129MOL0     H17363   5.988   2.657  -0.248 -1.8179  2.6011  0.7187
  129MOL0     H17364   6.148   2.518  -0.397 -0.7317 -0.8622  0.7756
  129MOL0     H17365   6.226   2.671  -0.439 -0.4947  0.8118  1.3339
  129MOL0     H17366   6.141   2.461  -0.108  1.6392 -1.3991 -1.0718
  129MOL0     H17367   6.360   2.538   0.176  0.9160 -0.1627  0.2799
  129MOL0     H17368   6.229   2.445   0.119 -0.0656 -1.1120 -2.7805
  129MOL0     H17369   6.521   2.382   0.171  0.5392 -2.0106  0.1944
  129MOL0     H17370   6.384   2.292   0.214  0.2979 -0.4909 -0.7645
  129MOL0     H17371   6.544   2.310  -0.057 -0.0365 -2.3102 -2.4010
  129MOL0     H17372   6.383   2.254  -0.064 -0.0793 -2.9880  0.5996
  129MOL0     H17373   6.612   2.133   0.124 -1.5567 -1.8937  3.8322
  129MOL0     H17374   6.555   2.094  -0.037 -0.0058  3.0655 -0.2338
  129MOL0     H17375   6.683   1.913   0.153  2.2580 -3.4687  2.3611
  129MOL0     H17376   6.715   1.732   0.297 -0.5111 -0.6428  1.5953
  129MOL0     H17377   6.856   1.542   0.649 -0.3659 -0.1731  3.3135
  129MOL0     H17378   6.908   1.347   0.781  0.4186  0.8414 -0.8277
  129MOL0     H17379   6.954   1.136   0.905  0.3469  0.1901  1.2975
  129MOL0     H17380   6.779   1.142   0.935  0.7984  1.1484  1.7203
  129MOL0     H17381   6.944   0.906   0.878  1.1269 -1.2235  1.9660
  129MOL0     H17382   6.874   0.963   1.035 -0.1134  4.9346 -0.1914
  129MOL0     H17383   6.654   0.875   0.964  1.0095 -1.4936  0.7632
  129MOL0     H17384   6.700   0.896   0.792 -0.5735  1.3295  0.1856
  129MOL0     H17385   6.836   0.716   0.983  3.3846  1.4991 -1.6977
  129MOL0     H17386   6.836   0.713   0.798  0.8916  1.6323 -0.7449
  129MOL0     H17387   6.716   0.517   0.918 -3.0378 -0.6111  2.7225
  129MOL0     H17388   6.596   0.627   0.830 -4.3605  3.1992  3.7348
  129MOL0     H17389   6.670   0.617   1.118  0.5177  1.1266 -0.1091
  129MOL0     H17390   6.541   0.723   1.048  1.1045 -0.3306  0.6160
  129MOL0     H17391   6.542   0.425   1.074  0.3074  0.3267  3.7125
  129MOL0     H17392   6.422   0.522   0.978 -0.0503 -1.7550  0.4048
  129MOL0     H17393   6.331   0.463   1.193 -1.5562  1.8414 -2.8038
  129MOL0     H17394   6.455   0.562   1.275 -1.2638  0.8092  1.0265
  129MOL0     H17395   6.645   1.106   0.548  4.6996 -1.6183 -1.3156
  129MOL0     H17396   6.571   1.306   0.428  1.6776 -2.6713 -1.2957
  129MOL0     H17397   6.298   1.723   0.375  2.9287 -1.6184  2.2860
  129MOL0     H17398   6.277   1.923   0.221 -1.1790 -0.5109  0.3660
  129MOL0     H17399   6.511   2.852   0.288  1.6540  4.9150  1.4804
  129MOL0     H17400   6.720   2.834   0.392  0.0520 -0.2334 -0.1709
  129MOL0     H17401   7.010   2.892   0.697 -2.9830 -0.7755  0.3886
  129MOL0     H17402   7.227   2.885   0.829 -0.2078 -1.4134  0.0257
  129MOL0     H17403   7.460   2.533   0.819  1.0102  3.6382 -0.5711
  129MOL0     H17404   7.370   2.490   0.964 -0.5349  0.3326 -0.6139
  129MOL0     H17405   7.507   2.623   1.109  0.1744 -0.5947  0.4902
  129MOL0     H17406   7.588   2.704   0.996  1.9150 -0.3407  1.6722
  129MOL0     H17407   7.608   2.399   0.966  1.5445  0.6272 -3.1253
  129MOL0     H17408   7.682   2.500   1.105  2.2420  2.7692 -0.5316
  129MOL0     H17409   7.734   2.610   0.838 -1.2002  0.8177  0.4987
  129MOL0     H17410   7.839   2.561   0.973 -0.1423  1.6003 -1.8815
  129MOL0     H17411   7.893   2.213   0.773 -0.7444 -1.3867  3.7313
  129MOL0     H17412   7.202   2.461   0.810 -0.3834 -0.4317 -1.7953
  129MOL0     H17413   7.051   2.377   0.590  0.0067 -0.5297  1.6829
  129MOL0     H17414   6.961   2.372   0.747 -0.0476 -3.3607 -1.1474
  129MOL0     H17415   6.899   2.429   0.582  0.2804 -0.2193 -0.3905
  130MOL0     O17416   0.792   0.622  10.995  0.8747 -0.0110  0.6428
  130MOL0     C17417   0.760   0.722  10.923 -0.4967  0.1764 -0.9968
  130MOL0     O17418   0.671   0.710  10.822  0.0844  0.5029  0.0041
  130MOL0     C17419   0.616   0.585  10.801  0.0075 -0.5135 -0.5106
  130MOL0     C17420   0.485   0.550  10.857  0.2195 -0.2798 -0.2168
  130MOL0     C17421   0.426   0.433  10.825 -0.1652  0.3136 -0.3022
  130MOL0     C17422   0.498   0.344  10.740 -0.0418 -0.0754 -1.1900
  130MOL0     O17423   0.435   0.228  10.709  0.4272 -0.2210 -0.2567
  130MOL0     C17424   0.424   0.214  10.569  0.7005 -0.1908 -0.2660
  130MOL0     C17425   0.291   0.142  10.547  0.2152 -0.6222  0.5541
  130MOL0     C17426   0.292  -0.004  10.559 -0.0931  0.6595 -1.1502
  130MOL0     C17427   0.155  -0.073  10.541 -0.6331 -0.0637 -0.4160
  130MOL0     C17428   0.067  -0.040  10.664 -0.3247 -0.2530 -0.1235
  130MOL0     C17429   0.128  -0.084  10.794  0.4252  0.1941 -0.1761
  130MOL0     C17430   0.025  -0.075  10.902  0.5662 -0.1658 -0.3958
  130MOL0     C17431   0.010   0.074  10.955  0.2878 -1.1817 -0.1349
  130MOL0     N17432  -0.106   0.084  11.047  0.2992 -0.0801  0.2932
  130MOL0     C17433  -0.157  -0.012  11.137 -0.3534 -0.7744  0.5116
  130MOL0     C17434  -0.267   0.048  11.190 -0.6227 -0.2915  0.0742
  130MOL0     C17435  -0.370  -0.016  11.281 -1.0270  1.5796  0.2556
  130MOL0     C17436  -0.510  -0.025  11.218  0.0235  0.4493 -0.1943
  130MOL0     C17437  -0.516  -0.110  11.091  0.6331  0.6416 -0.6101
  130MOL0     C17438  -0.472  -0.258  11.096 -0.0903  0.1550 -0.0502
  130MOL0     O17439  -0.489  -0.309  10.958 -0.0337  0.1825  0.3720
  130MOL0     C17440  -0.510  -0.444  10.949  1.2674 -0.1921  1.0100
  130MOL0     C17441  -0.536  -0.487  10.814 -0.3641  0.1339  0.0508
  130MOL0     C17442  -0.556  -0.623  10.787  0.8390  0.2366  0.1213
  130MOL0     C17443  -0.546  -0.728  10.888  0.8905 -0.1957 -0.4311
  130MOL0     C17444  -0.549  -0.867  10.846  1.5543  0.6844 -0.1694
  130MOL0     O17445  -0.510  -0.946  10.943 -0.0020  0.6033  0.2867
  130MOL0     C17446  -0.504  -1.082  10.943  0.3993 -0.9301  1.0064
  130MOL0     C17447  -0.613  -1.165  10.914  0.7869  0.0843 -0.0828
  130MOL0     C17448  -0.607  -1.306  10.938 -0.2649 -0.8683 -0.5891
  130MOL0     C17449  -0.487  -1.364  10.968 -0.5157  0.1358  0.4178
  130MOL0     O17450  -0.475  -1.497  10.964 -0.3959 -0.3210  0.5845
  130MOL0     C17451  -0.412  -1.532  10.841  0.0430  0.5027 -0.0584
  130MOL0     C17452  -0.378  -1.675  10.856  0.3899  0.2716 -0.1257
  130MOL0     C17453  -0.286  -1.745  10.748  0.4729  0.2530  0.0059
  130MOL0     C17454  -0.260  -1.891  10.777  0.3921  0.4881 -0.3136
  130MOL0     C17455  -0.268  -1.980  10.657 -1.0667 -0.1938  0.0434
  130MOL0     C17456  -0.152  -1.960  10.561  0.0269  1.2090  0.0250
  130MOL0     C17457  -0.095  -2.096  10.518 -0.2125 -0.1200 -0.6793
  130MOL0     C17458  -0.204  -2.198  10.463 -0.1148 -0.8468 -0.4586
  130MOL0    Cl17459  -0.125  -2.345  10.415  0.2520  0.3893 -0.1452
  130MOL0     C17460  -0.373  -1.287  10.988  0.8783  0.5623  0.0115
  130MOL0     C17461  -0.382  -1.149  10.975 -0.3763  0.3889 -0.9109
  130MOL0     O17462  -0.603  -0.903  10.743  0.8656 -0.5751  0.5931
  130MOL0     C17463  -0.520  -0.683  11.025  0.9398  0.0406  0.3816
  130MOL0     C17464  -0.504  -0.545  11.049  0.3194 -0.5842  0.1949
  130MOL0     N17465  -0.283   0.175  11.141  0.3436 -0.7259 -0.3702
  130MOL0     N17466  -0.193   0.194  11.048 -0.3430 -0.1904 -0.8445
  130MOL0     C17467   0.621   0.379  10.679  0.3714  0.3433  1.0270
  130MOL0     C17468   0.680   0.503  10.707  0.4272 -1.1493 -0.2455
  130MOL0     C17469   0.837   0.847  10.930  0.9963  0.7250  0.0336
  130MOL0     C17470   0.797   0.946  10.842 -0.6230  0.4049 -0.0237
  130MOL0     C17471   0.870   1.063  10.840  0.5293  0.2748  0.4613
  130MOL0     C17472   0.977   1.088  10.927  0.8793  0.2861  0.4034
  130MOL0     O17473   1.040   1.202  10.931 -0.4623 -1.0855  0.3514
  130MOL0     C17474   1.161   1.203  10.847 -0.1198 -1.2641 -0.2094
  130MOL0     C17475   1.227   1.332  10.838 -0.3522  0.2853  0.9125
  130MOL0     C17476   1.285   1.403  10.959  0.0871 -0.9586  1.4083
  130MOL0     C17477   1.200   1.510  11.021  0.8152  0.0802  0.2805
  130MOL0     C17478   1.259   1.580  11.120 -0.6368 -0.4135  0.0996
  130MOL0     C17479   1.311   1.633  11.217  1.0648  0.4106 -0.6052
  130MOL0     C17480   1.002   0.996  11.032  0.8378  0.0180  0.4484
  130MOL0     C17481   0.943   0.871  11.027  1.2704 -0.2729 -0.0688
  130MOL0     C17482   0.998   0.760  11.108 -0.4650 -0.3435  1.0136
  130MOL0     H17483   0.427   0.608  10.928 -0.3632 -0.8307 -0.2299
  130MOL0     H17484   0.325   0.411  10.860 -0.6648  4.0360  1.0867
  130MOL0     H17485   0.401   0.314  10.531 -0.5466 -0.1317  0.5888
  130MOL0     H17486   0.501   0.163  10.512 -1.3501  0.3737 -3.8228
  130MOL0     H17487   0.255   0.163  10.446  1.7909  4.6596  0.7635
  130MOL0     H17488   0.223   0.180  10.625  3.6166  0.7621  3.1255
  130MOL0     H17489   0.338  -0.016  10.657 -0.8516  0.5187 -0.8039
  130MOL0     H17490   0.360  -0.043  10.483  1.2378 -0.1720  0.4225
  130MOL0     H17491   0.110  -0.037  10.448  1.5020 -1.0959 -1.9280
  130MOL0     H17492   0.160  -0.182  10.549 -2.1453  0.0012  3.4433
  130MOL0     H17493   0.033   0.064  10.664  1.1063  0.2481 -0.7267
  130MOL0     H17494  -0.015  -0.109  10.643 -0.2304 -1.2290  2.3819
  130MOL0     H17495   0.154  -0.189  10.777 -1.8421 -0.6222  1.0018
  130MOL0     H17496   0.217  -0.034  10.832  0.5496  0.1448 -0.4037
  130MOL0     H17497   0.040  -0.139  10.989 -1.1638 -0.5803 -0.3690
  130MOL0     H17498  -0.072  -0.115  10.873  0.9000 -1.7586  0.5190
  130MOL0     H17499   0.101   0.116  11.001 -0.5164  4.0295 -2.6117
  130MOL0     H17500   0.003   0.142  10.870  4.0809  2.5185  2.1323
  130MOL0     H17501  -0.127  -0.115  11.149 -1.1016 -1.4284 -2.4016
  130MOL0     H17502  -0.341  -0.120  11.296  1.3164  2.0928 -0.3622
  130MOL0     H17503  -0.362   0.037  11.377  3.4456  1.6682  0.0416
  130MOL0     H17504  -0.575  -0.065  11.296  2.1817  3.1135  3.2768
  130MOL0     H17505  -0.528   0.081  11.197  4.5141  1.0430 -2.2736
  130MOL0     H17506  -0.452  -0.055  11.021 -0.3674 -1.2721 -3.2035
  130MOL0     H17507  -0.619  -0.102  11.055 -0.8297 -4.0856  1.7271
  130MOL0     H17508  -0.548  -0.286  11.169 -0.4219 -2.6053 -1.3295
  130MOL0     H17509  -0.366  -0.271  11.119 -0.8955 -1.0082  3.6788
  130MOL0     H17510  -0.556  -0.423  10.729 -0.8183  2.3738  1.7708
  130MOL0     H17511  -0.574  -0.651  10.683  0.3212  1.2293 -0.0736
  130MOL0     H17512  -0.703  -1.113  10.884  1.3551  0.0884 -1.9219
  130MOL0     H17513  -0.697  -1.367  10.936 -1.0237  0.2421 -1.0073
  130MOL0     H17514  -0.486  -1.520  10.761  0.8221  0.5351 -0.7759
  130MOL0     H17515  -0.321  -1.476  10.820 -0.6654  0.6958 -3.1055
  130MOL0     H17516  -0.321  -1.682  10.949 -0.3722 -1.5063  0.2519
  130MOL0     H17517  -0.464  -1.743  10.869 -1.2908  2.4113  0.6466
  130MOL0     H17518  -0.338  -1.730  10.653 -0.8898 -1.2917  0.4601
  130MOL0     H17519  -0.187  -1.700  10.740  0.8128 -0.4986 -0.1454
  130MOL0     H17520  -0.339  -1.943  10.832  0.0208  2.4131  1.0707
  130MOL0     H17521  -0.160  -1.906  10.819  0.8024  1.1499 -1.0328
  130MOL0     H17522  -0.361  -1.954  10.604 -2.0146  0.0767  1.7761
  130MOL0     H17523  -0.279  -2.083  10.691  1.0767 -0.1571  0.9830
  130MOL0     H17524  -0.175  -1.900  10.473  0.3303  0.3935 -0.6266
  130MOL0     H17525  -0.066  -1.914  10.610  1.5539 -2.9888  1.6927
  130MOL0     H17526  -0.045  -2.134  10.607 -1.9614  0.9211  0.8265
  130MOL0     H17527  -0.016  -2.077  10.444 -0.8374 -1.0226 -1.6029
  130MOL0     H17528  -0.280  -2.227  10.536  0.8254 -2.1348  0.0409
  130MOL0     H17529  -0.260  -2.150  10.382  2.8517  1.1706 -1.4966
  130MOL0     H17530  -0.274  -1.328  11.005  0.8138  0.5719  0.4287
  130MOL0     H17531  -0.300  -1.080  10.993 -2.1388  2.0950  1.1889
  130MOL0     H17532  -0.526  -0.741  11.116  0.7337 -0.7347 -0.1167
  130MOL0     H17533  -0.481  -0.520  11.152 -1.2526  2.3170 -0.0381
  130MOL0     H17534   0.679   0.315  10.613  3.3970  0.7161  3.0960
  130MOL0     H17535   0.780   0.533  10.676  0.0854  0.9492  0.5662
  130MOL0     H17536   0.709   0.944  10.779 -1.5579  0.3422  1.2364
  130MOL0     H17537   0.832   1.149  10.786 -0.4322  0.2990  1.1585
  130MOL0     H17538   1.134   1.166  10.748  0.3299  0.3369 -0.9590
  130MOL0     H17539   1.237   1.137  10.889 -0.5778 -1.8202 -0.2339
  130MOL0     H17540   1.154   1.389  10.780 -1.3920  1.8598  3.6139
  130MOL0     H17541   1.316   1.313  10.777  0.5943  0.9997  2.0432
  130MOL0     H17542   1.375   1.455  10.923  0.7972 -1.2436  2.7033
  130MOL0     H17543   1.317   1.342  11.044  1.5258 -1.4196  0.5618
  130MOL0     H17544   1.161   1.578  10.945  3.2444  2.3386  0.9147
  130MOL0     H17545   1.112   1.462  11.067  0.2355  1.2755  0.4654
  130MOL0     H17546   1.368   1.688  11.289 -2.4100  3.9152 -0.1672
  130MOL0     H17547   1.073   1.012  11.113 -0.1427  0.1612  1.3083
  130MOL0     H17548   0.928   0.720  11.181  0.8255  0.9344  3.0754
  130MOL0     H17549   1.051   0.687  11.045  2.8279  0.8356  2.1672
  130MOL0     H17550   1.085   0.791  11.167  0.2292  1.6246 -0.9137
  131MOL0     O17551   4.496   5.311  11.447 -0.2578  0.0997  0.4753
  131MOL0     C17552   4.540   5.225  11.375  0.4178 -0.3782 -0.1663
  131MOL0     O17553   4.668   5.223  11.321 -0.5536 -0.5998  0.1664
  131MOL0     C17554   4.751   5.331  11.352 -0.6015 -0.1296  0.3751
  131MOL0     C17555   4.718   5.450  11.270  0.1380  0.0687 -0.1988
  131MOL0     C17556   4.789   5.563  11.279  0.2240 -0.0028  0.1730
  131MOL0     C17557   4.884   5.573  11.371 -0.4502  0.3091 -0.5206
  131MOL0     O17558   4.932   5.700  11.382 -0.4208  0.3841 -0.0959
  131MOL0     C17559   5.078   5.734  11.381 -0.3183 -0.0714  0.2103
  131MOL0     C17560   5.132   5.869  11.323  0.4208  0.7985  0.1723
  131MOL0     C17561   5.107   5.993  11.415  0.2504 -0.8110 -0.4813
  131MOL0     C17562   5.127   6.130  11.339 -0.1611 -0.4857  0.4184
  131MOL0     C17563   5.079   6.245  11.422  0.4597  0.4180  0.6547
  131MOL0     C17564   5.123   6.270  11.563  0.5756  0.3450 -1.1724
  131MOL0     C17565   5.276   6.265  11.565 -0.4211 -0.3833 -0.4961
  131MOL0     C17566   5.334   6.293  11.709  0.5197 -0.2243  0.3647
  131MOL0     N17567   5.473   6.257  11.721 -0.0831 -0.2927  0.1113
  131MOL0     C17568   5.578   6.351  11.718  0.2219  0.3391 -0.7560
  131MOL0     C17569   5.687   6.284  11.754  0.6133 -0.5678  0.1190
  131MOL0     C17570   5.824   6.348  11.753 -0.5247 -0.4151 -0.0114
  131MOL0     C17571   5.935   6.268  11.812 -0.2118  0.7172  0.3392
  131MOL0     C17572   6.071   6.343  11.832  0.0631  0.4940 -1.1399
  131MOL0     C17573   6.158   6.263  11.921 -0.3152 -0.8697  0.6844
  131MOL0     O17574   6.285   6.332  11.924 -0.6975  0.0144 -0.6645
  131MOL0     C17575   6.392   6.269  11.995  0.0891 -0.3928  0.4366
  131MOL0     C17576   6.516   6.335  11.979 -0.0857  0.1828  0.4836
  131MOL0     C17577   6.622   6.276  12.037  0.0373  0.1675 -0.4289
  131MOL0     C17578   6.626   6.156  12.112 -0.0173 -0.9078 -0.2468
  131MOL0     C17579   6.741   6.100  12.164 -0.8956  0.1176 -0.5679
  131MOL0     O17580   6.733   6.012  12.270 -0.6418 -0.6553 -0.0450
  131MOL0     C17581   6.854   5.965  12.322 -0.1583  0.1982  0.0535
  131MOL0     C17582   6.904   6.013  12.439  1.0784 -0.6030  1.0266
  131MOL0     C17583   7.033   5.993  12.486 -0.4093 -0.1388 -0.8469
  131MOL0     C17584   7.121   5.911  12.409  0.3056 -0.0569 -0.3636
  131MOL0     O17585   7.255   5.904  12.450  0.4267  0.4465  0.3667
  131MOL0     C17586   7.339   5.798  12.393 -0.2388  0.6385  0.1387
  131MOL0     C17587   7.472   5.819  12.475 -0.4629  0.2835  0.2546
  131MOL0     C17588   7.582   5.725  12.423 -1.0939  0.4877 -0.0268
  131MOL0     C17589   7.718   5.752  12.490  0.3183 -0.8491  0.4049
  131MOL0     C17590   7.836   5.667  12.430  0.2424 -1.6057 -0.7263
  131MOL0     C17591   7.895   5.747  12.311  0.8642 -0.2363  0.1412
  131MOL0     C17592   7.964   5.884  12.342 -0.3304  0.0026  0.4118
  131MOL0     C17593   8.081   5.912  12.254 -1.1163  0.4707  0.0405
  131MOL0    Cl17594   8.187   6.059  12.306 -0.1762  0.1188  0.1883
  131MOL0     C17595   7.055   5.839  12.307 -0.3957  0.0866 -0.4968
  131MOL0     C17596   6.930   5.873  12.254 -1.0941  1.1801  0.7779
  131MOL0     O17597   6.848   6.132  12.119 -0.7091 -0.7467  0.6177
  131MOL0     C17598   6.490   6.097  12.141  0.3632 -0.0176 -0.3789
  131MOL0     C17599   6.381   6.153  12.067 -0.4128 -0.0274 -0.3859
  131MOL0     N17600   5.651   6.149  11.780 -0.0942  0.3409  0.5048
  131MOL0     N17601   5.527   6.134  11.766 -0.5956 -0.0325 -0.2999
  131MOL0     C17602   4.930   5.459  11.444  0.3024 -0.8821  0.0529
  131MOL0     C17603   4.860   5.342  11.436 -0.5368  0.1878 -0.4070
  131MOL0     C17604   4.446   5.139  11.321 -0.1931  0.9153 -1.0646
  131MOL0     C17605   4.405   5.018  11.393 -0.6458 -0.4789 -0.3136
  131MOL0     C17606   4.307   4.944  11.342  0.6371 -0.2937  0.4928
  131MOL0     C17607   4.254   4.963  11.214  0.4548  0.3891 -0.2859
  131MOL0     O17608   4.175   4.872  11.147  0.3761  0.5836 -0.2073
  131MOL0     C17609   4.147   4.755  11.216 -0.4001  0.1205 -0.8865
  131MOL0     C17610   4.061   4.674  11.114  0.0913 -0.3054 -0.3101
  131MOL0     C17611   3.992   4.559  11.192 -0.6569 -0.1671 -0.3207
  131MOL0     C17612   3.903   4.469  11.103 -0.4683 -0.2633  0.3347
  131MOL0     C17613   3.974   4.411  10.990  0.0031  1.1818  0.5563
  131MOL0     C17614   4.028   4.382  10.886 -0.2736  0.4706  0.3037
  131MOL0     C17615   4.291   5.074  11.138 -0.0632  0.7756 -0.8233
  131MOL0     C17616   4.395   5.161  11.188  0.0062 -0.3076  0.4521
  131MOL0     C17617   4.441   5.281  11.108  0.6903 -0.6276  0.9399
  131MOL0     H17618   4.642   5.448  11.192  0.4556 -0.0261 -0.5062
  131MOL0     H17619   4.767   5.650  11.218  0.4312 -1.1816 -1.6566
  131MOL0     H17620   5.125   5.722  11.480 -0.8949 -2.4062  0.2806
  131MOL0     H17621   5.120   5.653  11.322  1.2633  0.0820  1.0766
  131MOL0     H17622   5.090   5.899  11.226 -0.7051  1.3195  0.7943
  131MOL0     H17623   5.237   5.858  11.296  0.0962  2.4813 -2.1180
  131MOL0     H17624   5.174   5.978  11.501  0.8165 -0.2373 -0.8225
  131MOL0     H17625   4.999   5.997  11.436  0.1545  2.3490 -1.0869
  131MOL0     H17626   5.231   6.139  11.304 -0.7571  2.5270 -0.8942
  131MOL0     H17627   5.070   6.127  11.245  1.0911 -3.1165 -0.3665
  131MOL0     H17628   5.097   6.332  11.357 -1.5106 -0.4619 -1.1917
  131MOL0     H17629   4.970   6.241  11.428  0.2751  3.6902  1.2165
  131MOL0     H17630   5.076   6.359  11.605  1.7771  0.5039 -0.0853
  131MOL0     H17631   5.092   6.185  11.624  3.5322 -0.4979 -0.7025
  131MOL0     H17632   5.315   6.332  11.488  0.8694 -0.1602  0.3222
  131MOL0     H17633   5.303   6.164  11.532  1.2929 -0.2239  0.3064
  131MOL0     H17634   5.323   6.402  11.719  1.7706  0.0867 -1.1906
  131MOL0     H17635   5.276   6.231  11.778 -0.3825 -1.1984 -1.2013
  131MOL0     H17636   5.580   6.453  11.681  0.6459 -0.3155 -2.6195
  131MOL0     H17637   5.859   6.356  11.649  1.1532 -1.1284  0.4641
  131MOL0     H17638   5.814   6.442  11.808 -1.1153 -1.0868  1.0510
  131MOL0     H17639   5.902   6.226  11.908 -1.9470  0.5444 -0.2934
  131MOL0     H17640   5.965   6.188  11.744 -0.5254  0.3817  0.5906
  131MOL0     H17641   6.066   6.437  11.887  1.4638 -0.8134  1.3712
  131MOL0     H17642   6.125   6.361  11.738  0.3679  1.5636 -0.7788
  131MOL0     H17643   6.158   6.161  11.880 -3.7734  0.8932 -4.6353
  131MOL0     H17644   6.110   6.255  12.020 -1.2521  1.5366  0.4951
  131MOL0     H17645   6.517   6.419  11.911 -1.2482 -0.2951 -0.1487
  131MOL0     H17646   6.716   6.325  12.011  0.2651 -1.1008 -2.1344
  131MOL0     H17647   6.840   6.087  12.486  1.6771  0.1461  0.6775
  131MOL0     H17648   7.082   6.036  12.573  1.8877 -1.5771 -1.3350
  131MOL0     H17649   7.295   5.702  12.423  0.8649  0.4051  1.0844
  131MOL0     H17650   7.351   5.802  12.284 -0.7518 -1.0950 -0.0118
  131MOL0     H17651   7.495   5.925  12.461  0.4223  0.3451  1.8880
  131MOL0     H17652   7.468   5.806  12.584  0.3659 -0.1149  0.2400
  131MOL0     H17653   7.560   5.618  12.432 -2.1165  0.7147  0.2159
  131MOL0     H17654   7.592   5.748  12.316 -1.0239  0.0525 -0.1169
  131MOL0     H17655   7.708   5.736  12.598 -1.5404 -2.9548  0.0006
  131MOL0     H17656   7.745   5.857  12.478 -0.3220 -0.4369  2.2408
  131MOL0     H17657   7.797   5.575  12.386  0.1196 -2.3428  0.8424
  131MOL0     H17658   7.902   5.643  12.514 -0.8668 -2.0994  0.0274
  131MOL0     H17659   7.965   5.670  12.277 -1.5455 -2.9720  0.9043
  131MOL0     H17660   7.810   5.757  12.243  0.5253 -1.5321  0.3510
  131MOL0     H17661   7.997   5.890  12.446  0.9843 -0.1148  0.0124
  131MOL0     H17662   7.882   5.956  12.329  0.3719  0.7796  0.2006
  131MOL0     H17663   8.144   5.822  12.257 -0.9998  0.5685  0.5667
  131MOL0     H17664   8.061   5.926  12.147  1.0297 -1.2068 -0.6850
  131MOL0     H17665   7.113   5.761  12.258  2.5542  0.2585  2.3583
  131MOL0     H17666   6.893   5.824  12.164  1.5536  0.0224  0.2115
  131MOL0     H17667   6.488   6.011  12.207 -0.8155  2.3635  2.9096
  131MOL0     H17668   6.285   6.104  12.078 -0.7750  0.6863 -0.2800
  131MOL0     H17669   5.012   5.476  11.513 -0.6877 -4.0351  2.2213
  131MOL0     H17670   4.898   5.259  11.496  0.1142  1.0210  0.3509
  131MOL0     H17671   4.444   5.001  11.493  0.3640 -4.4877 -1.2339
  131MOL0     H17672   4.278   4.858  11.401  2.6967 -0.9334  0.6379
  131MOL0     H17673   4.088   4.778  11.306  0.9039 -0.7353  0.2307
  131MOL0     H17674   4.234   4.696  11.243 -0.6570  0.5223  0.9684
  131MOL0     H17675   4.125   4.632  11.036 -0.3393 -3.0505  0.7243
  131MOL0     H17676   3.988   4.744  11.071  1.0448  0.3241 -0.9526
  131MOL0     H17677   3.923   4.607  11.262 -1.4940 -1.2784 -0.3504
  131MOL0     H17678   4.060   4.492  11.247 -1.2131 -2.5854 -2.3797
  131MOL0     H17679   3.857   4.390  11.163  0.5307 -0.6785  0.5759
  131MOL0     H17680   3.823   4.533  11.065  0.7245  1.9252  1.3159
  131MOL0     H17681   4.080   4.362  10.795 -2.1267  2.0897 -1.2137
  131MOL0     H17682   4.263   5.086  11.033 -0.8775  3.8052 -0.3719
  131MOL0     H17683   4.530   5.250  11.051 -1.0917 -4.8693  0.0426
  131MOL0     H17684   4.367   5.313  11.034  2.6494 -1.4356 -1.5022
  131MOL0     H17685   4.453   5.372  11.167  2.0100  0.5666 -1.0550
  132MOL0     O17686   7.547  10.070   4.976 -0.3626 -0.4853  0.0812
  132MOL0     C17687   7.521   9.973   4.909 -0.8075  0.1002  0.4928
  132MOL0     O17688   7.540   9.840   4.950 -0.0731 -0.6004  0.5867
  132MOL0     C17689   7.619   9.815   5.060  0.0310 -0.4689  0.5392
  132MOL0     C17690   7.734   9.728   5.052  0.1330 -0.1386 -0.1332
  132MOL0     C17691   7.819   9.701   5.153 -1.0798 -0.4546 -0.1097
  132MOL0     C17692   7.781   9.752   5.278 -1.0883 -0.3050 -0.2593
  132MOL0     O17693   7.878   9.738   5.375  0.6802  0.9549  0.1410
  132MOL0     C17694   8.006   9.787   5.350  0.1321 -0.0638 -0.1459
  132MOL0     C17695   8.066   9.864   5.463 -0.0285  0.4443 -0.4599
  132MOL0     C17696   8.214   9.889   5.446 -0.6153  0.3747 -0.1802
  132MOL0     C17697   8.263   9.985   5.550 -0.2847  0.3113 -0.1975
  132MOL0     C17698   8.271   9.942   5.692  0.7238  0.9788 -0.1519
  132MOL0     C17699   8.380   9.849   5.744 -0.3204 -0.9870 -0.1366
  132MOL0     C17700   8.357   9.813   5.892  0.6749  0.1498  0.0763
  132MOL0     C17701   8.424   9.906   5.994 -0.1015 -0.0922 -0.7771
  132MOL0     N17702   8.389  10.054   5.993  0.6544  0.6027  0.0248
  132MOL0     C17703   8.267  10.105   6.015  1.4274 -0.0597 -0.5148
  132MOL0     C17704   8.254  10.228   5.957 -0.5549 -0.3885  0.2761
  132MOL0     C17705   8.136  10.320   5.949 -0.5908 -0.1042  0.4663
  132MOL0     C17706   8.051  10.273   5.828 -0.4055 -0.1001  0.0212
  132MOL0     C17707   7.979  10.394   5.775  0.1932 -0.0458  0.0208
  132MOL0     C17708   7.838  10.380   5.714 -0.2189  0.6737  0.5142
  132MOL0     O17709   7.846  10.287   5.599 -0.5925  0.3281 -0.5181
  132MOL0     C17710   7.735  10.216   5.571 -0.5915 -0.8461 -0.8047
  132MOL0     C17711   7.648  10.166   5.666 -1.0614 -0.8201 -0.3348
  132MOL0     C17712   7.530  10.112   5.643  0.0733  0.4104  0.1876
  132MOL0     C17713   7.482  10.091   5.514  0.1831  0.0873  0.2322
  132MOL0     C17714   7.351  10.040   5.476  0.7679  0.1419 -0.7992
  132MOL0     O17715   7.271   9.996   5.589  0.3863 -0.3970  0.5971
  132MOL0     C17716   7.145   9.965   5.552  0.3551  0.3943 -1.0447
  132MOL0     C17717   7.124   9.844   5.492 -0.5917 -0.6855 -0.1878
  132MOL0     C17718   6.995   9.795   5.474 -0.2406  0.5703  0.3506
  132MOL0     C17719   6.885   9.867   5.505 -0.1272 -0.1309  0.3815
  132MOL0     O17720   6.753   9.830   5.491 -0.0626 -0.2359 -0.0161
  132MOL0     C17721   6.689   9.760   5.592 -0.1016 -0.2930  0.4947
  132MOL0     C17722   6.539   9.794   5.615  0.8590 -0.1348 -0.4373
  132MOL0     C17723   6.534   9.941   5.664  0.0220  0.5006  0.1228
  132MOL0     C17724   6.390   9.978   5.727 -0.7150 -0.8741  0.6060
  132MOL0     C17725   6.379  10.130   5.750  0.6705  0.5940  0.2867
  132MOL0     C17726   6.258  10.166   5.832  0.3379  0.0793  0.3110
  132MOL0     C17727   6.223  10.323   5.839 -0.9496  0.8110  0.3748
  132MOL0     C17728   6.075  10.332   5.872  0.7667  0.2590 -0.6903
  132MOL0    Cl17729   6.034  10.340   6.043  0.4141  0.3909  0.1584
  132MOL0     C17730   6.905   9.993   5.562 -0.2754  0.1222 -0.0023
  132MOL0     C17731   7.038  10.045   5.580 -0.1207  0.4307  0.2942
  132MOL0     O17732   7.320  10.036   5.356  0.1811  0.2058  0.2191
  132MOL0     C17733   7.576  10.128   5.416 -0.6045  0.4451  0.8221
  132MOL0     C17734   7.698  10.195   5.445  0.3524  0.9710  0.8660
  132MOL0     N17735   8.380  10.260   5.911 -0.1760  0.1037 -0.0932
  132MOL0     N17736   8.457  10.160   5.940 -0.8265 -0.1383  0.0904
  132MOL0     C17737   7.671   9.834   5.302  0.1541  0.6256  0.1051
  132MOL0     C17738   7.583   9.862   5.192 -0.8483  0.8123 -0.3258
  132MOL0     C17739   7.458   9.985   4.776  1.0459 -0.6172  0.1200
  132MOL0     C17740   7.375  10.095   4.762 -0.3024  1.1509  0.0902
  132MOL0     C17741   7.292  10.110   4.654  0.4178  0.8062  0.0309
  132MOL0     C17742   7.283  10.009   4.557  0.2849 -0.7214  0.6818
  132MOL0     O17743   7.198   9.998   4.447 -0.3054 -0.0525 -0.0389
  132MOL0     C17744   7.099  10.098   4.434 -0.3162  0.1571 -0.3277
  132MOL0     C17745   7.029  10.059   4.305  0.7559 -0.2714  0.4730
  132MOL0     C17746   6.941   9.944   4.325 -0.5676  0.3326  0.9214
  132MOL0     C17747   6.885   9.887   4.193 -0.4168  0.4296  0.4246
  132MOL0     C17748   6.978   9.796   4.119 -0.2520  0.1992  0.4102
  132MOL0     C17749   7.056   9.727   4.062  0.1167 -0.3246  0.1262
  132MOL0     C17750   7.369   9.903   4.565 -0.2876  1.2182 -0.6535
  132MOL0     C17751   7.451   9.882   4.673 -0.2342 -0.7108  0.7652
  132MOL0     C17752   7.521   9.752   4.675  0.4374  0.5911  0.0313
  132MOL0     H17753   7.775   9.692   4.958  3.5402 -2.0056  1.8470
  132MOL0     H17754   7.916   9.653   5.137 -0.5848  0.4111  0.2134
  132MOL0     H17755   8.070   9.699   5.338 -2.3672 -2.6455  3.1915
  132MOL0     H17756   8.008   9.862   5.270  0.8883  0.2730  0.1742
  132MOL0     H17757   8.048   9.811   5.557  2.0698 -1.5172 -1.0732
  132MOL0     H17758   8.017   9.962   5.462 -2.1217 -0.5454 -1.6440
  132MOL0     H17759   8.222   9.934   5.347 -2.7120  0.5531 -0.3195
  132MOL0     H17760   8.258   9.789   5.447  0.5483  0.8709  0.7722
  132MOL0     H17761   8.367  10.007   5.528 -0.4886  2.3785  0.6768
  132MOL0     H17762   8.200  10.074   5.561 -0.0348  0.6401 -1.3313
  132MOL0     H17763   8.274  10.028   5.760 -0.9826 -0.7817  2.3674
  132MOL0     H17764   8.175   9.892   5.711 -0.0687  0.7778 -3.9834
  132MOL0     H17765   8.392   9.755   5.689  5.0987 -0.7402  0.0957
  132MOL0     H17766   8.480   9.894   5.747 -0.4977 -0.3884 -2.1051
  132MOL0     H17767   8.400   9.713   5.900  0.9429  0.2301 -0.2906
  132MOL0     H17768   8.249   9.800   5.903  0.4088  1.5288 -0.6090
  132MOL0     H17769   8.410   9.869   6.096  3.9101  0.6834  0.2439
  132MOL0     H17770   8.533   9.904   5.981  0.2866  1.8115  1.5826
  132MOL0     H17771   8.193  10.032   6.047  0.5921  2.4664  4.2182
  132MOL0     H17772   8.076  10.310   6.041 -0.8022 -3.3773  0.0971
  132MOL0     H17773   8.191  10.412   5.929  0.5633 -1.2160 -1.8418
  132MOL0     H17774   8.120  10.236   5.752 -2.0017 -2.6811 -0.3218
  132MOL0     H17775   7.976  10.194   5.840 -2.0942  1.3632 -0.4031
  132MOL0     H17776   8.050  10.443   5.708 -1.7857  2.1074 -0.6199
  132MOL0     H17777   7.950  10.464   5.854  1.3489  0.2136  0.2361
  132MOL0     H17778   7.811  10.483   5.691  4.0503  1.9254  0.2663
  132MOL0     H17779   7.766  10.344   5.788  0.0095  0.6590  0.7330
  132MOL0     H17780   7.688  10.163   5.767  2.0182 -0.9348 -1.4283
  132MOL0     H17781   7.467  10.086   5.728  0.4901  0.8196  0.6296
  132MOL0     H17782   7.201   9.769   5.478 -0.5695 -1.0727  1.7469
  132MOL0     H17783   6.984   9.698   5.427  2.3206 -1.2896  3.2115
  132MOL0     H17784   6.691   9.652   5.578 -1.4483 -0.3779  0.7854
  132MOL0     H17785   6.742   9.782   5.686  1.9427  0.3532 -0.7465
  132MOL0     H17786   6.490   9.775   5.519  2.7387 -0.3332 -1.4028
  132MOL0     H17787   6.485   9.734   5.690 -2.3522  4.6014  1.5017
  132MOL0     H17788   6.603   9.950   5.748 -0.5960 -2.6115  1.0820
  132MOL0     H17789   6.554  10.019   5.589  0.0679  0.6508  0.2914
  132MOL0     H17790   6.387   9.927   5.824 -0.3160  1.4057  1.8755
  132MOL0     H17791   6.305   9.944   5.666  0.1873 -0.6615 -0.8121
  132MOL0     H17792   6.363  10.177   5.652 -0.8882  0.9206  0.6746
  132MOL0     H17793   6.464  10.170   5.806 -1.0617 -0.0348  3.5900
  132MOL0     H17794   6.175  10.114   5.784 -1.6459  3.3459 -0.1039
  132MOL0     H17795   6.263  10.116   5.929 -3.4447 -1.2608 -0.0472
  132MOL0     H17796   6.226  10.372   5.741  2.5821 -0.4545 -0.2954
  132MOL0     H17797   6.293  10.362   5.913  1.5156 -1.7536 -0.4168
  132MOL0     H17798   6.042  10.426   5.827 -0.6903  1.4363  2.5273
  132MOL0     H17799   6.013  10.250   5.835  0.4854 -0.9253  2.1871
  132MOL0     H17800   6.828  10.066   5.584  0.8468  1.0363  1.0572
  132MOL0     H17801   7.049  10.147   5.617 -1.9207  0.8506 -0.2141
  132MOL0     H17802   7.557  10.129   5.309 -1.7326  1.8513  1.0119
  132MOL0     H17803   7.758  10.224   5.359 -0.6143  0.6073  0.0426
  132MOL0     H17804   7.653   9.871   5.402  0.9441  0.6786  0.2292
  132MOL0     H17805   7.488   9.912   5.208 -0.2698  1.1157  3.0620
  132MOL0     H17806   7.369  10.170   4.840 -2.7396  1.2848 -0.1453
  132MOL0     H17807   7.239  10.205   4.647 -0.0542  0.4185 -2.8692
  132MOL0     H17808   7.151  10.193   4.419 -4.0217  1.9782 -3.6145
  132MOL0     H17809   7.030  10.106   4.518 -2.3133 -1.6889 -1.6914
  132MOL0     H17810   7.103  10.027   4.230  0.6084 -0.0980  0.2519
  132MOL0     H17811   6.980  10.152   4.274  1.2671 -1.3573 -4.4625
  132MOL0     H17812   6.855   9.992   4.372 -0.5807  0.4442  0.7814
  132MOL0     H17813   7.002   9.875   4.384  1.2091  1.2494  0.2568
  132MOL0     H17814   6.789   9.839   4.215 -1.4498  0.7393 -2.8262
  132MOL0     H17815   6.848   9.972   4.134  0.3016 -0.6920 -1.7210
  132MOL0     H17816   7.141   9.680   4.016 -0.8858  3.0768 -6.2487
  132MOL0     H17817   7.373   9.816   4.500  4.5210  1.7699 -1.4599
  132MOL0     H17818   7.609   9.738   4.739  0.8809 -2.3266 -1.0569
  132MOL0     H17819   7.449   9.678   4.710  0.3229  0.3021 -0.7832
  132MOL0     H17820   7.570   9.733   4.579  1.6201 -1.1315  0.9283
  133MOL0     O17821   5.957   0.581   3.967  0.6030  0.1596  0.0109
  133MOL0     C17822   5.873   0.503   3.922  0.3464 -1.2062  0.7199
  133MOL0     O17823   5.906   0.396   3.842 -0.0954  0.9157  0.2608
  133MOL0     C17824   6.036   0.374   3.794  0.3652 -1.2931  0.1372
  133MOL0     C17825   6.085   0.435   3.677 -0.2841 -0.2204  0.9573
  133MOL0     C17826   6.215   0.396   3.635 -0.0765  0.0810 -0.4324
  133MOL0     C17827   6.286   0.298   3.705 -0.1065 -0.2418  0.5172
  133MOL0     O17828   6.414   0.276   3.665  0.3841 -0.2660  0.1947
  133MOL0     C17829   6.525   0.251   3.759  0.2399  0.3555 -0.5417
  133MOL0     C17830   6.656   0.237   3.689  0.5018  0.1934  0.2610
  133MOL0     C17831   6.717   0.376   3.667 -0.6822  0.0792  0.0451
  133MOL0     C17832   6.867   0.385   3.617 -0.6537 -0.3235 -0.3089
  133MOL0     C17833   6.893   0.542   3.582  0.6886  1.3342 -0.1656
  133MOL0     C17834   6.927   0.617   3.712 -0.1822 -0.4843 -1.3579
  133MOL0     C17835   6.998   0.753   3.672  0.6105 -0.0983  0.4725
  133MOL0     C17836   6.960   0.866   3.765  0.5350  0.3649  0.5134
  133MOL0     N17837   6.817   0.896   3.762 -0.3340 -0.4107 -0.2300
  133MOL0     C17838   6.718   0.867   3.846 -0.1408  0.2498 -0.3342
  133MOL0     C17839   6.615   0.935   3.803  0.9089 -0.0662  0.2816
  133MOL0     C17840   6.478   0.938   3.863  0.3801 -0.1685  0.9548
  133MOL0     C17841   6.448   1.060   3.955  0.2401 -0.3327  0.0466
  133MOL0     C17842   6.312   1.060   4.034 -0.2343 -0.7918 -0.4170
  133MOL0     C17843   6.276   0.935   4.112 -1.3059 -1.2246 -0.1214
  133MOL0     O17844   6.387   0.864   4.167  0.1253 -0.4244 -0.5324
  133MOL0     C17845   6.456   0.915   4.278  0.0431 -0.1303  0.5360
  133MOL0     C17846   6.583   0.850   4.297  0.1435  0.2074 -0.3961
  133MOL0     C17847   6.665   0.875   4.403 -0.0748  1.0442 -0.9112
  133MOL0     C17848   6.623   0.958   4.503 -0.4730 -0.5418 -0.2532
  133MOL0     C17849   6.703   0.976   4.626  0.3251  0.1055  0.5099
  133MOL0     O17850   6.667   1.077   4.706  0.2094  0.3054 -0.3474
  133MOL0     C17851   6.744   1.137   4.798  0.5199 -0.2938 -0.4373
  133MOL0     C17852   6.816   1.060   4.892 -0.1626 -0.4441  0.2812
  133MOL0     C17853   6.880   1.126   4.995 -0.2216 -0.3234  1.0495
  133MOL0     C17854   6.891   1.271   4.991 -0.6555  1.0722  0.6976
  133MOL0     O17855   6.947   1.340   5.096  0.1712  0.4036  0.5959
  133MOL0     C17856   6.977   1.273   5.218 -0.4868  0.2590 -0.5546
  133MOL0     C17857   7.057   1.377   5.307 -0.2555  0.4330  0.2115
  133MOL0     C17858   7.036   1.326   5.451 -0.5256 -0.1367 -0.1410
  133MOL0     C17859   7.155   1.359   5.535 -0.2710 -0.9938 -0.4897
  133MOL0     C17860   7.267   1.264   5.566  0.3452 -0.5583 -0.7962
  133MOL0     C17861   7.369   1.237   5.458 -0.4760  0.4559 -0.1293
  133MOL0     C17862   7.495   1.322   5.472 -0.2651  0.3595  0.3101
  133MOL0     C17863   7.585   1.303   5.350  0.3637 -0.5180 -0.0138
  133MOL0    Cl17864   7.557   1.437   5.233  0.0511 -0.3137 -0.0124
  133MOL0     C17865   6.823   1.343   4.893  0.2471 -0.2703  1.3958
  133MOL0     C17866   6.741   1.274   4.801  0.6255  0.2259 -0.5066
  133MOL0     O17867   6.785   0.889   4.650  0.4059  0.3377  0.0720
  133MOL0     C17868   6.500   1.029   4.487  0.6386 -0.0967  0.0122
  133MOL0     C17869   6.412   1.009   4.373  0.3940  0.6192 -0.0225
  133MOL0     N17870   6.654   0.999   3.686  0.8309 -0.0701 -0.5148
  133MOL0     N17871   6.775   0.978   3.666  0.6577 -0.1499 -0.1794
  133MOL0     C17872   6.236   0.228   3.817  0.6574 -0.0728  0.5667
  133MOL0     C17873   6.112   0.277   3.866  0.6580 -0.4446  0.7973
  133MOL0     C17874   5.731   0.508   3.985 -0.0192  0.2317 -0.8189
  133MOL0     C17875   5.693   0.618   4.068 -0.0192 -0.4284 -0.0128
  133MOL0     C17876   5.580   0.626   4.146  0.1927 -0.2656 -0.6800
  133MOL0     C17877   5.497   0.509   4.162 -1.0028  0.0425  0.3896
  133MOL0     O17878   5.398   0.485   4.258 -0.7487 -0.5430  0.2069
  133MOL0     C17879   5.345   0.601   4.323  0.5959  0.3825 -0.4735
  133MOL0     C17880   5.208   0.552   4.365 -0.6726  0.1669 -0.6295
  133MOL0     C17881   5.109   0.514   4.247  0.0507 -0.3934 -0.1764
  133MOL0     C17882   4.985   0.464   4.313  0.7723  0.0393 -0.3212
  133MOL0     C17883   4.880   0.436   4.209  0.5370 -1.8128  0.1913
  133MOL0     C17884   4.791   0.425   4.124 -0.6347 -0.1746  0.1283
  133MOL0     C17885   5.532   0.404   4.084  0.4543 -0.7438 -0.4179
  133MOL0     C17886   5.636   0.400   3.992  0.3050 -0.5236  0.5635
  133MOL0     C17887   5.655   0.276   3.911  0.7764 -0.5461 -0.4123
  133MOL0     H17888   6.028   0.511   3.624  0.4964 -0.7888 -0.7718
  133MOL0     H17889   6.267   0.429   3.546 -2.0036 -1.9208 -2.4314
  133MOL0     H17890   6.535   0.316   3.847  2.7119 -2.8368  1.7668
  133MOL0     H17891   6.501   0.152   3.798 -0.3240  0.3702 -0.8340
  133MOL0     H17892   6.655   0.178   3.597  3.0515  4.2311 -2.6900
  133MOL0     H17893   6.722   0.185   3.759  0.2850  0.8763  0.9989
  133MOL0     H17894   6.726   0.433   3.760 -0.3542 -1.0940  0.7516
  133MOL0     H17895   6.646   0.427   3.600 -1.7115 -4.1582 -2.4520
  133MOL0     H17896   6.948   0.356   3.685  0.0005 -0.6132 -1.1929
  133MOL0     H17897   6.887   0.322   3.530  0.7773  1.0380 -1.0306
  133MOL0     H17898   6.971   0.556   3.506 -0.0591  1.6784 -0.8862
  133MOL0     H17899   6.800   0.581   3.539 -1.4692 -0.4105  2.5698
  133MOL0     H17900   6.829   0.631   3.760  1.5179  0.4240  2.1679
  133MOL0     H17901   6.994   0.558   3.775  2.2292  1.6491 -1.7636
  133MOL0     H17902   6.960   0.789   3.575  0.6354 -2.0268 -0.2926
  133MOL0     H17903   7.105   0.735   3.678  0.7130  1.0139  4.2029
  133MOL0     H17904   6.983   0.830   3.866 -2.0203  0.6747  1.2793
  133MOL0     H17905   7.021   0.955   3.746  0.0647  0.5623 -0.1135
  133MOL0     H17906   6.718   0.800   3.932 -0.4762  2.3162  1.3442
  133MOL0     H17907   6.408   0.944   3.779  0.6622 -0.5823  0.6810
  133MOL0     H17908   6.466   0.842   3.915  2.0898 -1.1015 -0.2781
  133MOL0     H17909   6.531   1.078   4.024 -0.8240  1.7797  0.8883
  133MOL0     H17910   6.443   1.148   3.890  3.4431  1.7070  2.2666
  133MOL0     H17911   6.233   1.105   3.973  1.3714  1.4021 -1.0217
  133MOL0     H17912   6.334   1.142   4.104  2.2891 -2.6040  1.0619
  133MOL0     H17913   6.233   0.862   4.043 -1.8595  0.2900 -1.4436
  133MOL0     H17914   6.192   0.948   4.181  0.4804 -0.7990  2.1111
  133MOL0     H17915   6.613   0.778   4.223 -1.3342  0.8277 -1.6577
  133MOL0     H17916   6.760   0.823   4.405  0.5076  2.0226 -1.8379
  133MOL0     H17917   6.800   0.953   4.889 -1.1393 -0.3448  1.1827
  133MOL0     H17918   6.919   1.052   5.064  0.3563 -3.1582 -2.0699
  133MOL0     H17919   6.888   1.242   5.273  0.7464  0.3168  1.6339
  133MOL0     H17920   7.044   1.189   5.196  1.0632  1.7861 -2.0316
  133MOL0     H17921   7.159   1.372   5.268 -0.6683  0.6377 -0.9389
  133MOL0     H17922   7.031   1.483   5.299  0.1062  0.5364  0.3769
  133MOL0     H17923   6.949   1.366   5.504 -1.2360 -3.9289  1.9497
  133MOL0     H17924   7.020   1.218   5.447 -0.7634 -0.0756 -1.0005
  133MOL0     H17925   7.111   1.380   5.633  0.2370  0.2356 -0.5075
  133MOL0     H17926   7.201   1.453   5.503 -1.3079  0.3705  1.7413
  133MOL0     H17927   7.218   1.174   5.604  1.8083  0.2492  3.6151
  133MOL0     H17928   7.316   1.297   5.658  0.8517 -0.9778 -0.9092
  133MOL0     H17929   7.404   1.138   5.487  2.1290  0.9063 -1.3723
  133MOL0     H17930   7.323   1.239   5.359 -1.6375  3.1831  0.3652
  133MOL0     H17931   7.547   1.291   5.563  1.9799 -0.6767 -1.2384
  133MOL0     H17932   7.460   1.425   5.480  0.1003  0.5928 -0.8149
  133MOL0     H17933   7.685   1.311   5.394 -0.1587 -0.4440  1.2039
  133MOL0     H17934   7.577   1.206   5.300  2.3261  0.3886 -2.2773
  133MOL0     H17935   6.821   1.451   4.891 -2.2250 -0.2670  1.1747
  133MOL0     H17936   6.678   1.332   4.735 -0.0472 -0.3880 -0.4287
  133MOL0     H17937   6.477   1.107   4.558  3.0333  1.2275 -0.5567
  133MOL0     H17938   6.315   1.055   4.354  0.1052 -0.5242 -1.4889
  133MOL0     H17939   6.286   0.147   3.869  0.4132 -1.0049 -0.6058
  133MOL0     H17940   6.074   0.236   3.959 -3.6642  0.9248 -0.1266
  133MOL0     H17941   5.756   0.706   4.060  1.5459 -1.4906  0.3222
  133MOL0     H17942   5.558   0.715   4.204 -3.1583 -0.7416 -1.0244
  133MOL0     H17943   5.338   0.690   4.260 -0.0247  0.5680 -0.1486
  133MOL0     H17944   5.414   0.627   4.404  0.7838 -0.6669 -0.2780
  133MOL0     H17945   5.169   0.635   4.425  0.0957 -0.3098  0.5717
  133MOL0     H17946   5.222   0.460   4.424 -0.4027  2.1321  2.6061
  133MOL0     H17947   5.139   0.434   4.179 -0.9094  0.4093 -1.6082
  133MOL0     H17948   5.095   0.598   4.178  3.8736  0.0294 -0.6758
  133MOL0     H17949   5.012   0.378   4.376  0.4452  0.9682  1.1427
  133MOL0     H17950   4.938   0.538   4.378 -1.2762  0.9462 -2.6856
  133MOL0     H17951   4.718   0.412   4.047 -1.8214  0.2770  1.1414
  133MOL0     H17952   5.469   0.317   4.103  2.4053 -1.7744  1.9652
  133MOL0     H17953   5.563   0.217   3.910 -1.5654  2.6136  2.7687
  133MOL0     H17954   5.679   0.297   3.807 -0.9215 -1.5919 -1.0511
  133MOL0     H17955   5.744   0.223   3.947 -0.1519 -0.0515  3.0134
  134MOL0     O17956   5.421   1.464   5.112  0.1039  0.7517 -0.3417
  134MOL0     C17957   5.444   1.465   5.232  0.2412 -0.1199 -0.1351
  134MOL0     O17958   5.474   1.349   5.312 -0.2168  0.0682  0.8506
  134MOL0     C17959   5.465   1.227   5.239  0.4663  0.5476 -0.3890
  134MOL0     C17960   5.547   1.121   5.278  0.0729 -0.3289 -0.3477
  134MOL0     C17961   5.538   0.988   5.215  0.1728 -0.3437 -0.2243
  134MOL0     C17962   5.431   0.961   5.128 -0.0046 -0.3974  0.3272
  134MOL0     O17963   5.408   0.844   5.059 -0.0749  0.9838  0.0723
  134MOL0     C17964   5.436   0.723   5.135 -0.1440 -0.2879  0.5837
  134MOL0     C17965   5.375   0.607   5.054 -0.9174 -0.2051 -0.6063
  134MOL0     C17966   5.386   0.484   5.150 -0.7140  1.1438  1.1273
  134MOL0     C17967   5.324   0.349   5.092 -0.2514 -0.8939  0.0647
  134MOL0     C17968   5.292   0.254   5.208 -1.0716  0.4263 -0.0182
  134MOL0     C17969   5.248   0.109   5.171  0.7616 -0.4393  0.2759
  134MOL0     C17970   5.350   0.024   5.091 -0.3764 -0.0657  0.5218
  134MOL0     C17971   5.481  -0.022   5.149 -0.0853 -0.0723  0.4716
  134MOL0     N17972   5.492  -0.029   5.293  0.1927  0.0379  0.4083
  134MOL0     C17973   5.443  -0.128   5.380 -0.8016  0.3449  0.1177
  134MOL0     C17974   5.482  -0.090   5.508 -0.1276  0.9161  0.1964
  134MOL0     C17975   5.458  -0.162   5.633 -0.3162 -0.2264  0.0696
  134MOL0     C17976   5.572  -0.259   5.682 -0.3718  0.4339 -0.0716
  134MOL0     C17977   5.699  -0.188   5.669 -0.2145 -0.5239  1.0145
  134MOL0     C17978   5.824  -0.269   5.695  0.4932  0.4868  0.1150
  134MOL0     O17979   5.810  -0.416   5.717 -0.4387 -0.7955  1.3081
  134MOL0     C17980   5.930  -0.479   5.746  0.7999 -0.0750  0.1406
  134MOL0     C17981   6.060  -0.444   5.701 -0.6820 -0.5030 -0.6065
  134MOL0     C17982   6.171  -0.524   5.726  0.4130  0.9935  0.2840
  134MOL0     C17983   6.158  -0.640   5.791  0.9678  0.1636 -0.8386
  134MOL0     C17984   6.281  -0.715   5.819 -0.1773  0.1506  0.5885
  134MOL0     O17985   6.394  -0.694   5.740 -0.3493  0.5611 -0.2152
  134MOL0     C17986   6.506  -0.771   5.768 -0.2188  0.1790  0.2369
  134MOL0     C17987   6.599  -0.723   5.858 -0.3468 -0.0796 -0.0337
  134MOL0     C17988   6.704  -0.789   5.906 -0.2331  0.0108 -0.2945
  134MOL0     C17989   6.729  -0.912   5.850  0.5318 -0.3097 -0.7485
  134MOL0     O17990   6.841  -0.967   5.892 -0.4437  0.3950 -0.6557
  134MOL0     C17991   6.914  -1.071   5.829  0.7030  0.9513  0.4150
  134MOL0     C17992   7.065  -1.046   5.835  0.0952  0.0878 -0.5472
  134MOL0     C17993   7.130  -1.168   5.898 -0.5069  0.5689 -0.5339
  134MOL0     C17994   7.283  -1.160   5.925  0.4283  0.4822 -0.0626
  134MOL0     C17995   7.334  -1.286   5.993 -0.7915  1.0318  0.1009
  134MOL0     C17996   7.478  -1.260   6.033  0.1256 -0.2630 -1.0163
  134MOL0     C17997   7.552  -1.394   6.050 -0.1355 -1.4901 -0.1026
  134MOL0     C17998   7.675  -1.405   6.141 -0.3955  0.5337  0.5100
  134MOL0    Cl17999   7.821  -1.322   6.081  0.2147  0.0540  0.0438
  134MOL0     C18000   6.638  -0.968   5.759 -0.0445 -0.0737 -0.5910
  134MOL0     C18001   6.525  -0.896   5.721  0.5440  0.5305  0.1969
  134MOL0     O18002   6.267  -0.806   5.900 -0.3185 -0.1032  0.8761
  134MOL0     C18003   6.033  -0.686   5.837  0.6897 -0.5710 -1.0107
  134MOL0     C18004   5.919  -0.604   5.809  0.0954  0.1415 -0.9045
  134MOL0     N18005   5.557   0.031   5.489 -0.2042  1.1356  0.0619
  134MOL0     N18006   5.561   0.067   5.361 -0.4930  0.4014  0.1690
  134MOL0     C18007   5.351   1.071   5.089  0.9067 -0.1419 -0.9092
  134MOL0     C18008   5.365   1.202   5.143 -0.2182  0.2227 -0.0615
  134MOL0     C18009   5.422   1.599   5.301  0.3808 -0.1920 -1.1299
  134MOL0     C18010   5.427   1.597   5.444 -0.3593  0.7102 -0.7322
  134MOL0     C18011   5.408   1.711   5.517 -0.0914  0.8829  0.8212
  134MOL0     C18012   5.381   1.828   5.455 -0.3029  0.2766  0.1381
  134MOL0     O18013   5.360   1.927   5.538  0.7000 -0.1038  0.3413
  134MOL0     C18014   5.393   2.064   5.506 -0.7695  0.1003  0.8175
  134MOL0     C18015   5.422   2.146   5.633  0.2441 -0.0978 -0.5393
  134MOL0     C18016   5.571   2.160   5.675  0.3229 -0.3096 -0.3022
  134MOL0     C18017   5.594   2.172   5.833 -0.4727  0.1975  1.3630
  134MOL0     C18018   5.539   2.056   5.906 -0.7293 -0.0630 -0.0420
  134MOL0     C18019   5.490   1.976   5.991  0.3126 -0.5196  0.6998
  134MOL0     C18020   5.377   1.837   5.318  0.3015  0.4299 -0.8294
  134MOL0     C18021   5.391   1.720   5.240  0.7359  0.1179  0.4903
  134MOL0     C18022   5.375   1.735   5.088  0.4644 -0.5105 -0.4086
  134MOL0     H18023   5.610   1.146   5.362 -1.4037  1.5059  0.2576
  134MOL0     H18024   5.604   0.904   5.236 -0.7432 -1.2374 -0.7859
  134MOL0     H18025   5.545   0.720   5.143  0.1925  3.9438  0.2384
  134MOL0     H18026   5.395   0.721   5.237 -1.0405 -2.3514  0.2308
  134MOL0     H18027   5.416   0.585   4.955  3.8107  2.2558  0.4892
  134MOL0     H18028   5.273   0.639   5.032 -1.4998 -0.2405  1.7509
  134MOL0     H18029   5.325   0.509   5.237  0.3345  0.5156  2.0787
  134MOL0     H18030   5.489   0.475   5.186 -1.3089 -0.7946  2.5194
  134MOL0     H18031   5.234   0.380   5.038  0.8212  2.9483  0.1703
  134MOL0     H18032   5.395   0.308   5.020  0.8676 -0.4897  0.9033
  134MOL0     H18033   5.374   0.245   5.279 -1.5535  0.4182  0.5431
  134MOL0     H18034   5.219   0.299   5.276  0.6540  2.5880  0.5237
  134MOL0     H18035   5.225   0.060   5.266  1.4388  1.7795  1.6709
  134MOL0     H18036   5.147   0.107   5.129  1.3765  0.5774 -1.3556
  134MOL0     H18037   5.383   0.086   5.006  1.8466 -0.3343  1.1274
  134MOL0     H18038   5.292  -0.058   5.048 -0.1882  0.5026 -0.9008
  134MOL0     H18039   5.514  -0.120   5.114  0.9223  0.6749 -0.7567
  134MOL0     H18040   5.559   0.048   5.119 -1.3558  0.5872 -1.4905
  134MOL0     H18041   5.395  -0.219   5.347 -0.5886 -0.0076  0.7623
  134MOL0     H18042   5.427  -0.094   5.713  2.5132 -2.4080  3.3081
  134MOL0     H18043   5.367  -0.223   5.625 -0.3978 -0.4222  2.0754
  134MOL0     H18044   5.548  -0.288   5.784 -1.5710  0.9937 -0.1756
  134MOL0     H18045   5.580  -0.351   5.624 -1.9701 -0.7150  1.4259
  134MOL0     H18046   5.698  -0.096   5.727 -2.1882  1.9214 -2.5176
  134MOL0     H18047   5.717  -0.158   5.565 -0.4627  0.7156  1.3180
  134MOL0     H18048   5.867  -0.225   5.786 -1.1156  0.7892  0.7698
  134MOL0     H18049   5.901  -0.252   5.619 -2.5012 -1.6959 -3.7646
  134MOL0     H18050   6.082  -0.347   5.657  0.8350 -0.7509 -0.4436
  134MOL0     H18051   6.266  -0.502   5.678 -0.0346  1.4730 -0.4062
  134MOL0     H18052   6.582  -0.618   5.882 -0.6434 -0.0820 -0.2339
  134MOL0     H18053   6.774  -0.741   5.974  0.3350 -2.0678  0.6411
  134MOL0     H18054   6.884  -1.162   5.881  1.8908  0.2322 -0.1010
  134MOL0     H18055   6.874  -1.083   5.728  2.4690 -2.0320 -0.0812
  134MOL0     H18056   7.106  -1.025   5.736  0.0208 -2.9345 -1.3333
  134MOL0     H18057   7.085  -0.960   5.899 -3.3627  1.2066 -0.7697
  134MOL0     H18058   7.090  -1.168   6.000 -0.5516 -0.1780 -0.5496
  134MOL0     H18059   7.099  -1.258   5.846  1.4007  0.6368 -1.8842
  134MOL0     H18060   7.303  -1.069   5.984  1.0368  0.9613 -0.9870
  134MOL0     H18061   7.339  -1.150   5.832  1.4487  6.2371  0.7889
  134MOL0     H18062   7.331  -1.374   5.929  0.8032 -0.2967  1.7580
  134MOL0     H18063   7.284  -1.297   6.089  1.3779 -0.6738  1.1085
  134MOL0     H18064   7.536  -1.198   5.965  1.3636 -0.2843  0.0023
  134MOL0     H18065   7.472  -1.201   6.124  0.5361  2.1190 -2.4675
  134MOL0     H18066   7.584  -1.421   5.949  0.2033  0.3986 -0.5522
  134MOL0     H18067   7.480  -1.465   6.091 -2.5898  1.4149  1.0842
  134MOL0     H18068   7.643  -1.381   6.242 -2.1375 -1.3548  0.4690
  134MOL0     H18069   7.706  -1.510   6.146  2.1984  1.1254 -1.1837
  134MOL0     H18070   6.657  -1.073   5.737  1.3296 -1.0681  4.1725
  134MOL0     H18071   6.443  -0.943   5.668  0.5635  1.1733 -0.4159
  134MOL0     H18072   6.018  -0.777   5.894 -1.9461  1.5065  1.9466
  134MOL0     H18073   5.824  -0.625   5.858 -0.6271  4.9239  0.1785
  134MOL0     H18074   5.267   1.053   5.024  1.0245 -0.6518 -0.9235
  134MOL0     H18075   5.287   1.272   5.116 -2.7780 -2.0630  0.9387
  134MOL0     H18076   5.439   1.503   5.497 -0.2216  0.5499 -1.0456
  134MOL0     H18077   5.419   1.718   5.625 -1.7824 -0.6745  1.1361
  134MOL0     H18078   5.305   2.108   5.458  0.4899  1.0441 -0.7087
  134MOL0     H18079   5.481   2.075   5.443 -1.3915  0.2660 -0.0416
  134MOL0     H18080   5.350   2.110   5.708 -1.2983 -1.0365 -2.3778
  134MOL0     H18081   5.386   2.247   5.612 -0.1162 -0.6041 -2.6260
  134MOL0     H18082   5.608   2.241   5.611  1.5435 -0.3317  0.3446
  134MOL0     H18083   5.630   2.076   5.638 -0.2691 -0.7706 -0.2171
  134MOL0     H18084   5.696   2.204   5.856 -0.2075 -0.8201  1.6399
  134MOL0     H18085   5.545   2.266   5.863 -1.0602  0.4031 -0.1747
  134MOL0     H18086   5.446   1.937   6.080 -2.4169  3.6943  1.4906
  134MOL0     H18087   5.341   1.928   5.271 -1.6697  1.0982  1.7755
  134MOL0     H18088   5.468   1.708   5.038  1.2417  0.1378  0.6595
  134MOL0     H18089   5.298   1.666   5.052  1.0756 -1.7067  0.5475
  134MOL0     H18090   5.337   1.835   5.064  0.0182 -0.5174  0.2578
  135MOL0     O18091   0.885  11.371   9.763 -0.3335  0.2338  0.1807
  135MOL0     C18092   0.800  11.423   9.836 -0.1948  0.3808 -0.4924
  135MOL0     O18093   0.827  11.496   9.952  0.5824  0.0342 -0.2127
  135MOL0     C18094   0.955  11.489  10.003  0.4663 -0.7036  0.1667
  135MOL0     C18095   0.975  11.405  10.120 -0.2129 -0.5745 -0.4989
  135MOL0     C18096   1.106  11.398  10.172  0.3435  0.4594  0.6120
  135MOL0     C18097   1.202  11.490  10.125 -0.7952  0.7940 -1.0667
  135MOL0     O18098   1.340  11.471  10.176 -0.0706  0.1029 -0.2834
  135MOL0     C18099   1.440  11.575  10.154  1.1164 -0.7163  0.0576
  135MOL0     C18100   1.559  11.572  10.249  0.0933  0.1863  0.4953
  135MOL0     C18101   1.525  11.578  10.397 -0.0174 -0.3977  0.2447
  135MOL0     C18102   1.652  11.571  10.489  0.2508 -0.1803 -0.8696
  135MOL0     C18103   1.630  11.573  10.637  0.9614 -0.1410 -0.5263
  135MOL0     C18104   1.751  11.561  10.733 -0.2668 -0.3996  0.4873
  135MOL0     C18105   1.878  11.639  10.681  0.0393  0.0398 -0.0916
  135MOL0     C18106   1.890  11.797  10.720 -0.2386  0.6795  0.6399
  135MOL0     N18107   1.766  11.870  10.705 -0.1933 -0.1792 -0.4903
  135MOL0     C18108   1.679  11.904  10.816 -0.0418 -0.4264  0.1121
  135MOL0     C18109   1.592  11.978  10.760 -0.1053  0.2793 -0.0367
  135MOL0     C18110   1.465  12.020  10.817 -0.0113  0.0842  0.2553
  135MOL0     C18111   1.358  11.915  10.823  0.3120 -1.1268  0.9123
  135MOL0     C18112   1.214  11.983  10.841 -0.4524  0.2257 -0.2401
  135MOL0     C18113   1.110  11.877  10.885 -0.2919  0.5345  0.1548
  135MOL0     O18114   1.125  11.753  10.817  0.0603 -0.4652 -0.3514
  135MOL0     C18115   1.023  11.666  10.834 -0.0137 -0.2286  0.4929
  135MOL0     C18116   1.066  11.539  10.799 -0.5566  0.9825 -0.5225
  135MOL0     C18117   0.981  11.430  10.826 -0.1404  0.2742  0.2624
  135MOL0     C18118   0.848  11.441  10.854 -0.5278 -0.7014 -0.5260
  135MOL0     C18119   0.757  11.327  10.867 -0.5731  0.0922  0.1785
  135MOL0     O18120   0.637  11.345  10.922  0.8813  0.7741  0.2908
  135MOL0     C18121   0.560  11.240  10.937  0.8007 -0.1437 -0.9605
  135MOL0     C18122   0.589  11.133  11.021 -0.0147  0.0499  0.1253
  135MOL0     C18123   0.531  11.009  11.002 -0.2520 -0.6864 -0.0914
  135MOL0     C18124   0.423  10.999  10.913 -0.0862  0.7110 -0.9428
  135MOL0     O18125   0.351  10.880  10.892 -0.7348 -0.7766  0.3084
  135MOL0     C18126   0.396  10.754  10.952 -0.1691 -0.0243 -0.4542
  135MOL0     C18127   0.263  10.673  10.952  0.2780 -0.3537 -0.4744
  135MOL0     C18128   0.251  10.592  11.081  0.6658  0.3272  0.7385
  135MOL0     C18129   0.326  10.464  11.072  0.3044 -0.0019  0.5016
  135MOL0     C18130   0.311  10.383  11.200  0.8406  0.6312 -0.7182
  135MOL0     C18131   0.169  10.332  11.241  0.6015 -0.4526  0.3540
  135MOL0     C18132   0.096  10.255  11.121 -0.2752 -0.3466 -0.4153
  135MOL0     C18133  -0.042  10.208  11.166  0.1847 -0.2398  0.1242
  135MOL0    Cl18134  -0.136  10.344  11.223  0.3524 -0.6920 -0.0585
  135MOL0     C18135   0.387  11.106  10.838 -0.6856  1.2526 -0.5482
  135MOL0     C18136   0.461  11.225  10.841 -0.3826 -0.6133 -0.0381
  135MOL0     O18137   0.799  11.218  10.822  0.1825 -0.0286  0.3899
  135MOL0     C18138   0.809  11.576  10.891  0.0911  0.2575  0.8036
  135MOL0     C18139   0.891  11.688  10.878  0.5218 -0.3309 -0.3120
  135MOL0     N18140   1.619  11.984  10.633  0.2750  0.3878 -0.0442
  135MOL0     N18141   1.722  11.915  10.592 -0.2146  0.1496  0.8036
  135MOL0     C18142   1.179  11.571  10.023 -0.8745 -0.3984  0.8670
  135MOL0     C18143   1.056  11.570   9.956  0.2928 -0.5455 -0.3000
  135MOL0     C18144   0.658  11.412   9.787 -0.1919 -0.0538  0.3681
  135MOL0     C18145   0.573  11.523   9.755  0.2202 -0.2942 -0.1013
  135MOL0     C18146   0.442  11.499   9.709  0.0406  0.2730  0.2634
  135MOL0     C18147   0.391  11.378   9.676 -0.3610  0.2155  0.6561
  135MOL0     O18148   0.257  11.361   9.633 -0.2042 -0.1586 -0.1289
  135MOL0     C18149   0.164  11.473   9.635 -0.6433 -0.5430  0.0520
  135MOL0     C18150   0.019  11.436   9.600 -1.2168 -0.3560  0.5767
  135MOL0     C18151  -0.082  11.527   9.660  0.5196 -0.2742 -0.1840
  135MOL0     C18152  -0.067  11.679   9.620 -0.0692  0.2090 -0.1197
  135MOL0     C18153  -0.134  11.756   9.725 -0.3070  0.5919 -0.8017
  135MOL0     C18154  -0.183  11.819   9.812 -0.4781 -1.0860 -0.4090
  135MOL0     C18155   0.474  11.269   9.698 -1.1738 -0.6266  0.0350
  135MOL0     C18156   0.603  11.280   9.756 -0.3298  0.0348  0.5961
  135MOL0     C18157   0.676  11.158   9.781 -0.0607 -0.2760 -0.0942
  135MOL0     H18158   0.886  11.350  10.150 -1.0212 -0.7096 -2.9167
  135MOL0     H18159   1.122  11.323  10.249  0.1960  1.6501  1.8443
  135MOL0     H18160   1.472  11.575  10.049 -0.6767 -1.0322 -0.5306
  135MOL0     H18161   1.391  11.670  10.178 -0.0432 -1.8537  2.5743
  135MOL0     H18162   1.612  11.666  10.233  1.1453 -0.4789 -0.0295
  135MOL0     H18163   1.622  11.485  10.227 -0.1578 -0.1403  1.0364
  135MOL0     H18164   1.451  11.509  10.437 -1.0151  0.8007  0.5418
  135MOL0     H18165   1.473  11.675  10.397  0.2282 -0.1819 -2.7494
  135MOL0     H18166   1.704  11.477  10.470 -0.9666 -0.9182 -0.6532
  135MOL0     H18167   1.714  11.658  10.467  1.0361  0.1702  2.3541
  135MOL0     H18168   1.562  11.656  10.655  2.7280  1.6296 -1.6680
  135MOL0     H18169   1.571  11.483  10.655  0.6242 -0.7082 -3.8038
  135MOL0     H18170   1.726  11.602  10.832 -0.7126 -1.8028  0.9854
  135MOL0     H18171   1.761  11.453  10.748 -1.1603 -0.4325  0.9258
  135MOL0     H18172   1.894  11.620  10.574  0.7702 -1.1493  0.2128
  135MOL0     H18173   1.962  11.587  10.728  1.3861  2.5933  0.5458
  135MOL0     H18174   1.919  11.804  10.826  0.2839  0.0167  0.5467
  135MOL0     H18175   1.966  11.853  10.665 -0.6296  0.4970 -0.0947
  135MOL0     H18176   1.691  11.871  10.919  1.7732  0.8983  0.3687
  135MOL0     H18177   1.482  12.049  10.922  0.9193 -0.4741  0.2729
  135MOL0     H18178   1.419  12.105  10.767 -0.7145 -0.4171  0.0501
  135MOL0     H18179   1.356  11.858  10.729  1.1492  0.0055  0.1751
  135MOL0     H18180   1.380  11.854  10.911  0.6429 -1.3683  0.6680
  135MOL0     H18181   1.187  12.011  10.739  2.3490  4.0787 -0.1548
  135MOL0     H18182   1.219  12.073  10.904 -1.0233 -1.1056  1.8148
  135MOL0     H18183   1.010  11.922  10.884 -1.3521 -1.6682 -1.0418
  135MOL0     H18184   1.129  11.862  10.992  3.2538  0.4597 -0.3801
  135MOL0     H18185   1.157  11.515  10.746 -0.4742 -1.9599  0.7863
  135MOL0     H18186   1.031  11.336  10.801 -2.5284 -0.3995 -2.5409
  135MOL0     H18187   0.669  11.143  11.094 -0.0225  4.1416 -0.1773
  135MOL0     H18188   0.556  10.931  11.073  1.3307 -0.6218 -0.5381
  135MOL0     H18189   0.463  10.709  10.878 -0.7157  0.2375 -1.1154
  135MOL0     H18190   0.428  10.764  11.056 -1.8201 -0.8005  0.1566
  135MOL0     H18191   0.181  10.745  10.950 -0.1147 -0.7925 -0.3798
  135MOL0     H18192   0.246  10.609  10.864  0.8471 -1.6893  0.3485
  135MOL0     H18193   0.298  10.651  11.160  1.4405 -2.2068  2.2885
  135MOL0     H18194   0.145  10.578  11.106  0.1053  0.9438 -1.1369
  135MOL0     H18195   0.432  10.489  11.066  0.3659 -0.6918 -3.5113
  135MOL0     H18196   0.289  10.402  10.990 -4.4699 -0.3982  2.6162
  135MOL0     H18197   0.362  10.430  11.284  3.4912 -4.3557  0.9036
  135MOL0     H18198   0.375  10.296  11.185  0.4943  0.4751 -1.3412
  135MOL0     H18199   0.172  10.262  11.324  3.6533 -1.5186 -0.5368
  135MOL0     H18200   0.112  10.420  11.272 -0.0707 -0.2826 -1.2530
  135MOL0     H18201   0.162  10.169  11.111  0.3211 -0.8231  4.6989
  135MOL0     H18202   0.092  10.317  11.031  0.7842  0.3893  0.0190
  135MOL0     H18203  -0.111  10.145  11.110  1.7389 -1.8054 -0.1245
  135MOL0     H18204  -0.024  10.144  11.253 -2.1555 -0.9829  0.1320
  135MOL0     H18205   0.297  11.097  10.779 -0.4756 -0.4460 -0.6453
  135MOL0     H18206   0.441  11.296  10.761  0.1809  2.9358  2.7091
  135MOL0     H18207   0.703  11.600  10.897 -0.3583 -1.2278 -0.5502
  135MOL0     H18208   0.846  11.786  10.878 -5.5400 -2.6805 -0.1517
  135MOL0     H18209   1.244  11.650   9.987 -1.6140  0.9347  2.3766
  135MOL0     H18210   1.046  11.629   9.865 -1.7675  0.2003  0.3491
  135MOL0     H18211   0.598  11.627   9.772 -3.2585  0.3193  2.3064
  135MOL0     H18212   0.390  11.594   9.696  2.4939  1.7495  0.6133
  135MOL0     H18213   0.210  11.551   9.575 -0.2579  1.8022  3.1730
  135MOL0     H18214   0.168  11.521   9.733  2.2541 -1.6430  0.5777
  135MOL0     H18215   0.005  11.339   9.649 -0.9840 -0.5476  0.2680
  135MOL0     H18216  -0.002  11.436   9.493 -2.1582 -0.4115  0.7553
  135MOL0     H18217  -0.073  11.525   9.769  2.7388  0.3206 -0.3092
  135MOL0     H18218  -0.187  11.500   9.647  0.3312  0.2477  0.2275
  135MOL0     H18219   0.033  11.721   9.607  0.5210 -0.7739  1.0737
  135MOL0     H18220  -0.106  11.689   9.519 -0.2919  0.9563  0.0344
  135MOL0     H18221  -0.217  11.887   9.888 -0.8509  3.2232 -4.0121
  135MOL0     H18222   0.430  11.174   9.671  0.2598 -1.6227  1.0625
  135MOL0     H18223   0.752  11.137   9.705  0.4681 -0.2446  0.4169
  135MOL0     H18224   0.719  11.162   9.882 -0.9040  0.0101  0.2692
  135MOL0     H18225   0.599  11.081   9.787 -1.2039  0.9203  1.4980
  136MOL0     O18226   7.569   4.020   3.983  0.2200  0.3626  0.6329
  136MOL0     C18227   7.603   4.058   4.094 -0.8994 -0.1364  0.7125
  136MOL0     O18228   7.729   4.028   4.141 -0.0569 -0.5977 -0.5355
  136MOL0     C18229   7.752   3.896   4.151  0.3196 -0.8900  0.4352
  136MOL0     C18230   7.661   3.802   4.190  0.9751  0.9851  0.1026
  136MOL0     C18231   7.692   3.668   4.226  0.0222  0.5884  0.6297
  136MOL0     C18232   7.815   3.615   4.191  0.4950 -0.2186 -0.0789
  136MOL0     O18233   7.862   3.481   4.207 -0.3358  0.2305  0.0273
  136MOL0     C18234   7.823   3.408   4.330  0.7241 -0.1118  0.3649
  136MOL0     C18235   7.941   3.355   4.404  0.4528 -0.3046 -0.2043
  136MOL0     C18236   8.039   3.468   4.464  0.1223 -0.0278 -0.7434
  136MOL0     C18237   8.155   3.402   4.548  0.4561 -0.4776  0.3419
  136MOL0     C18238   8.263   3.512   4.596  0.3876  1.3279 -0.2266
  136MOL0     C18239   8.375   3.440   4.679  0.6629  0.3874  0.9753
  136MOL0     C18240   8.505   3.524   4.705  1.3144  0.2398 -0.4113
  136MOL0     C18241   8.631   3.437   4.703 -0.8714 -0.1236  0.1281
  136MOL0     N18242   8.660   3.371   4.836  0.2825  0.6054  0.3377
  136MOL0     C18243   8.564   3.309   4.909  0.9084  0.7002  0.2212
  136MOL0     C18244   8.630   3.237   5.007 -0.1164  0.0139 -0.3494
  136MOL0     C18245   8.559   3.133   5.091  0.0370  0.3705  0.3118
  136MOL0     C18246   8.535   3.179   5.229  0.3605  0.9481  0.4711
  136MOL0     C18247   8.432   3.294   5.230  0.0155  0.0579 -0.1571
  136MOL0     C18248   8.447   3.389   5.347  0.3245 -0.4160 -0.3861
  136MOL0     O18249   8.560   3.473   5.345 -0.3407 -0.2510 -0.1692
  136MOL0     C18250   8.533   3.582   5.259 -0.0367  1.0212 -0.9691
  136MOL0     C18251   8.461   3.689   5.302  0.8693 -0.7731  0.0057
  136MOL0     C18252   8.434   3.792   5.214 -0.1783  0.0987 -0.3911
  136MOL0     C18253   8.504   3.807   5.094 -0.1996 -0.1324  0.3684
  136MOL0     C18254   8.492   3.928   5.008  0.8126  0.0296 -0.4257
  136MOL0     O18255   8.372   3.991   5.013 -0.1692  0.0095  0.1488
  136MOL0     C18256   8.360   4.095   4.934  0.4055  0.6769  0.4308
  136MOL0     C18257   8.430   4.214   4.964  0.5856 -0.3204  0.0106
  136MOL0     C18258   8.418   4.324   4.877 -0.3668  0.7645 -0.4919
  136MOL0     C18259   8.355   4.320   4.750  0.5945  0.7891 -0.3986
  136MOL0     O18260   8.351   4.417   4.663 -0.3330  0.3022  1.0875
  136MOL0     C18261   8.445   4.525   4.656 -0.9604  0.9281 -1.1626
  136MOL0     C18262   8.388   4.661   4.611  0.3059  0.2522 -0.4170
  136MOL0     C18263   8.313   4.715   4.734  1.1452 -0.1985  0.8513
  136MOL0     C18264   8.241   4.851   4.711 -0.4290  0.9765  0.1641
  136MOL0     C18265   8.114   4.869   4.800 -0.3279 -0.0833 -0.1963
  136MOL0     C18266   8.137   4.888   4.949  1.5354  0.5780 -0.5658
  136MOL0     C18267   8.020   4.882   5.045  0.7897 -0.1975 -0.0321
  136MOL0     C18268   7.908   4.980   5.018 -1.2721  0.5938  0.0255
  136MOL0    Cl18269   7.789   4.984   5.152  0.5881 -0.6224 -0.0834
  136MOL0     C18270   8.269   4.201   4.737 -0.0786  0.3188 -0.3633
  136MOL0     C18271   8.267   4.094   4.829 -1.1908  0.4852 -0.2322
  136MOL0     O18272   8.590   3.957   4.940 -0.4181 -0.5372 -0.5772
  136MOL0     C18273   8.583   3.703   5.051 -0.5256  0.2248 -0.2828
  136MOL0     C18274   8.594   3.589   5.136  0.1645  0.1208 -0.1648
  136MOL0     N18275   8.764   3.270   4.982 -0.3040  0.0211  0.1859
  136MOL0     N18276   8.781   3.352   4.888  0.1913 -0.0264 -1.3111
  136MOL0     C18277   7.904   3.707   4.143 -0.2141 -0.5557 -0.1394
  136MOL0     C18278   7.884   3.842   4.131  1.0659  0.2129  0.1162
  136MOL0     C18279   7.523   4.164   4.157  1.3413 -0.7888 -0.1716
  136MOL0     C18280   7.388   4.187   4.101  0.0133 -0.1451 -0.6012
  136MOL0     C18281   7.302   4.268   4.175 -0.5423  0.3714 -0.5233
  136MOL0     C18282   7.342   4.336   4.288  0.9647  0.0492  0.1355
  136MOL0     O18283   7.245   4.426   4.345 -0.4269  0.1994 -0.6307
  136MOL0     C18284   7.302   4.548   4.416  0.7254  0.4404  0.7248
  136MOL0     C18285   7.181   4.645   4.403  1.4064 -0.8966 -0.6360
  136MOL0     C18286   7.055   4.598   4.486  0.8211 -0.3910 -1.9487
  136MOL0     C18287   6.938   4.695   4.498  0.3948  1.2553  0.7368
  136MOL0     C18288   6.970   4.810   4.586  0.1177 -0.3124 -0.3255
  136MOL0     C18289   7.017   4.902   4.644  0.2627  0.0496 -0.8803
  136MOL0     C18290   7.469   4.310   4.333 -0.2801 -0.2504  0.1301
  136MOL0     C18291   7.559   4.229   4.276 -0.4068 -0.3905  0.2486
  136MOL0     C18292   7.700   4.233   4.340 -0.4664  0.4567 -0.4952
  136MOL0     H18293   7.554   3.816   4.204  0.4782 -0.0616 -2.1993
  136MOL0     H18294   7.611   3.606   4.264  1.4157 -1.0227  1.1347
  136MOL0     H18295   7.763   3.473   4.394  3.1601  2.3180  0.4000
  136MOL0     H18296   7.758   3.328   4.295  0.6057  0.7646 -1.5565
  136MOL0     H18297   8.000   3.291   4.338  0.7480  0.4992 -0.7397
  136MOL0     H18298   7.916   3.301   4.495  2.7015  1.2295  1.4218
  136MOL0     H18299   7.973   3.532   4.524  0.4152  0.8343 -1.3036
  136MOL0     H18300   8.081   3.535   4.387  0.4167  2.8861  1.7516
  136MOL0     H18301   8.110   3.344   4.628 -1.2118 -2.8934 -2.1856
  136MOL0     H18302   8.199   3.322   4.489  2.7274  1.8344 -1.3391
  136MOL0     H18303   8.303   3.555   4.504 -1.8614  2.2595 -0.8225
  136MOL0     H18304   8.223   3.582   4.669  0.8977 -1.5583  3.0797
  136MOL0     H18305   8.325   3.404   4.770 -0.7596 -3.6807 -1.1544
  136MOL0     H18306   8.395   3.347   4.625  1.5284  1.2261 -0.2005
  136MOL0     H18307   8.481   3.568   4.802 -0.8148  3.1227 -2.1075
  136MOL0     H18308   8.515   3.606   4.633 -2.2643  1.0855 -0.1397
  136MOL0     H18309   8.631   3.363   4.622 -0.6554 -1.8068  1.5960
  136MOL0     H18310   8.709   3.513   4.695 -0.0892 -0.8153  0.8542
  136MOL0     H18311   8.459   3.295   4.885  1.4683  0.2490 -2.2649
  136MOL0     H18312   8.464   3.106   5.044  0.6293  0.5201 -1.0217
  136MOL0     H18313   8.624   3.044   5.087  2.5978  2.1021  0.8445
  136MOL0     H18314   8.487   3.097   5.283  1.5203  1.1644  1.8978
  136MOL0     H18315   8.628   3.209   5.278 -0.6346  1.1307  2.3377
  136MOL0     H18316   8.334   3.250   5.214  0.8487 -1.4057 -1.5248
  136MOL0     H18317   8.456   3.361   5.147  0.1788  0.7935  0.4685
  136MOL0     H18318   8.434   3.342   5.445 -0.8754  2.0366  0.7451
  136MOL0     H18319   8.357   3.452   5.342 -0.3371 -1.2586  0.3721
  136MOL0     H18320   8.411   3.703   5.397 -1.1321  0.3647 -1.1431
  136MOL0     H18321   8.379   3.877   5.253 -1.0841 -1.1524  1.1530
  136MOL0     H18322   8.511   4.222   5.035  0.7456 -0.4827 -0.1513
  136MOL0     H18323   8.476   4.408   4.915  0.0125 -0.3056  1.4243
  136MOL0     H18324   8.489   4.535   4.756 -0.8799  0.4804 -1.1517
  136MOL0     H18325   8.528   4.496   4.592 -1.6969 -1.8584 -0.9908
  136MOL0     H18326   8.475   4.719   4.577 -1.1326  3.3264  0.7957
  136MOL0     H18327   8.325   4.655   4.522  0.3573 -0.0980 -0.4318
  136MOL0     H18328   8.238   4.643   4.766 -0.1594  1.1772  1.0159
  136MOL0     H18329   8.378   4.732   4.820  0.6751 -0.5404  1.2819
  136MOL0     H18330   8.199   4.876   4.613  0.1072  1.5583  0.0781
  136MOL0     H18331   8.315   4.923   4.744  0.2088  0.1011  0.6810
  136MOL0     H18332   8.060   4.775   4.783  0.5397 -0.7476  0.6680
  136MOL0     H18333   8.062   4.961   4.769  2.1334  1.4801  0.0726
  136MOL0     H18334   8.191   4.801   4.988  1.0001  1.3211  1.9827
  136MOL0     H18335   8.197   4.976   4.972 -1.4261  3.7200 -3.6118
  136MOL0     H18336   8.061   4.887   5.146  0.5991  0.1797  0.0243
  136MOL0     H18337   7.971   4.785   5.032 -1.3554  0.9733 -1.3343
  136MOL0     H18338   7.958   5.078   5.015  0.1123  0.0385  2.4108
  136MOL0     H18339   7.857   4.955   4.924 -1.2140 -2.1632  0.6542
  136MOL0     H18340   8.208   4.189   4.649 -0.8694 -3.9909  0.5611
  136MOL0     H18341   8.197   4.013   4.813  1.4893 -2.0726 -0.0569
  136MOL0     H18342   8.647   3.694   4.964 -0.1873  1.1984 -0.1471
  136MOL0     H18343   8.648   3.503   5.099  1.0883  1.5143 -2.2611
  136MOL0     H18344   7.998   3.662   4.114  0.7772  0.6056  1.1284
  136MOL0     H18345   7.958   3.914   4.099  0.9429 -0.0581 -0.8025
  136MOL0     H18346   7.351   4.133   4.015 -5.3563 -1.8762  2.3554
  136MOL0     H18347   7.204   4.289   4.133 -1.0126  2.9945  1.6305
  136MOL0     H18348   7.394   4.580   4.367  0.2848 -2.7589 -2.5903
  136MOL0     H18349   7.325   4.543   4.523 -1.1898  5.4954  1.6430
  136MOL0     H18350   7.151   4.663   4.299 -1.9654  1.1560  0.5226
  136MOL0     H18351   7.209   4.745   4.438  1.3389 -1.3930  0.8818
  136MOL0     H18352   7.074   4.571   4.591 -1.2080  0.1543 -1.4079
  136MOL0     H18353   7.021   4.502   4.447 -3.4108 -0.5032  1.2212
  136MOL0     H18354   6.914   4.741   4.401  2.8742  0.1449 -0.5019
  136MOL0     H18355   6.848   4.641   4.528  1.5697 -2.6035 -1.7973
  136MOL0     H18356   7.046   4.994   4.689 -3.3988  1.2742 -0.7495
  136MOL0     H18357   7.504   4.363   4.421 -2.3371  0.8326  0.3645
  136MOL0     H18358   7.715   4.315   4.409  0.3439 -0.8749  0.9701
  136MOL0     H18359   7.735   4.140   4.387  1.1446  0.7858 -1.0070
  136MOL0     H18360   7.757   4.255   4.249 -1.8230  2.5071 -0.9040
  137MOL0     O18361   9.763   2.517   8.998 -0.0111 -1.0321  0.6622
  137MOL0     C18362   9.685   2.613   8.998  0.2091 -0.6043 -0.1524
  137MOL0     O18363   9.572   2.621   9.080 -0.1552 -0.0739 -0.4489
  137MOL0     C18364   9.555   2.543   9.188  0.2327  0.8839 -0.0018
  137MOL0     C18365   9.438   2.469   9.206 -0.0511  0.3114 -0.1869
  137MOL0     C18366   9.426   2.394   9.325  0.4614 -0.1951  0.1897
  137MOL0     C18367   9.524   2.387   9.418 -0.0256  0.6630  0.2869
  137MOL0     O18368   9.503   2.302   9.522  0.0368 -0.5145 -0.0398
  137MOL0     C18369   9.540   2.344   9.656  0.0678 -0.6999 -0.1877
  137MOL0     C18370   9.479   2.255   9.766 -0.4387  0.3476 -0.0764
  137MOL0     C18371   9.568   2.133   9.792 -0.7791 -0.2807  0.4867
  137MOL0     C18372   9.698   2.162   9.880  0.2237 -0.7134  0.6574
  137MOL0     C18373   9.809   2.048   9.867  0.0892 -0.4707  1.3865
  137MOL0     C18374   9.912   2.028   9.984  0.8352  0.7540 -0.5624
  137MOL0     C18375  10.032   1.929   9.951  0.1097  0.1909  0.7791
  137MOL0     C18376  10.104   1.867  10.077  0.0202 -0.1437  0.0676
  137MOL0     N18377  10.152   1.970  10.168 -0.6214 -0.9666 -0.6495
  137MOL0     C18378  10.286   1.981  10.212 -0.0813  0.5280  0.0050
  137MOL0     C18379  10.278   2.062  10.309  0.1752 -0.6833  0.2071
  137MOL0     C18380  10.397   2.120  10.388  0.9718 -0.4128 -0.0794
  137MOL0     C18381  10.500   2.208  10.324 -0.4008  0.5111 -0.3709
  137MOL0     C18382  10.586   2.285  10.428  0.4992 -0.6793 -0.5324
  137MOL0     C18383  10.704   2.370  10.363  0.1782 -0.2685 -0.4585
  137MOL0     O18384  10.666   2.446  10.244 -0.0691 -0.6154 -0.3634
  137MOL0     C18385  10.760   2.505  10.176 -0.7561 -0.4675 -0.3375
  137MOL0     C18386  10.719   2.562  10.053  0.8907 -0.0741  0.2898
  137MOL0     C18387  10.800   2.601   9.950 -0.3019 -0.3785 -0.2349
  137MOL0     C18388  10.938   2.614   9.977  0.3899 -0.4835 -0.9685
  137MOL0     C18389  11.031   2.661   9.873  0.2054  0.3571 -1.6311
  137MOL0     O18390  10.982   2.709   9.765 -0.5958  0.8895 -0.4618
  137MOL0     C18391  11.029   2.702   9.637 -0.9913  0.7321  0.8376
  137MOL0     C18392  10.942   2.697   9.532 -0.4153  0.1020  0.2036
  137MOL0     C18393  10.993   2.705   9.396  0.0183 -0.1625 -0.0389
  137MOL0     C18394  11.132   2.719   9.378  0.8052 -0.4258  0.5638
  137MOL0     O18395  11.186   2.732   9.248 -0.2293  1.1463  0.3966
  137MOL0     C18396  11.100   2.788   9.137 -0.1402 -0.4334 -0.5638
  137MOL0     C18397  11.182   2.811   9.016  0.4128  0.4536 -0.0124
  137MOL0     C18398  11.087   2.848   8.905 -0.1975  0.0793  0.0875
  137MOL0     C18399  11.158   2.910   8.782 -0.2377 -0.1733 -0.4552
  137MOL0     C18400  11.055   2.926   8.661 -0.3855  0.3503 -0.7713
  137MOL0     C18401  11.124   2.983   8.537  0.1759  0.5308 -0.5710
  137MOL0     C18402  11.032   3.015   8.422 -1.3011  0.1421  0.2876
  137MOL0     C18403  11.097   3.115   8.334 -0.2296 -0.4826 -1.2507
  137MOL0    Cl18404  10.978   3.155   8.214  0.2389  0.3575 -0.0109
  137MOL0     C18405  11.220   2.711   9.479  0.1134 -0.0130 -0.6307
  137MOL0     C18406  11.172   2.692   9.611 -0.2177  0.5771  0.2083
  137MOL0     O18407  11.152   2.629   9.896  0.0454  0.3778 -0.0369
  137MOL0     C18408  10.982   2.583  10.104 -0.3137 -0.4748 -0.2764
  137MOL0     C18409  10.901   2.523  10.201  0.2703 -0.1521  0.2355
  137MOL0     N18410  10.144   2.103  10.330 -1.1502  0.4019 -0.9392
  137MOL0     N18411  10.066   2.039  10.250 -0.2356 -0.1337 -0.7931
  137MOL0     C18412   9.635   2.467   9.398 -0.3877 -0.6478 -0.6277
  137MOL0     C18413   9.654   2.537   9.282  0.3592  0.2131  0.6822
  137MOL0     C18414   9.694   2.727   8.907 -0.0146 -0.3968 -0.4177
  137MOL0     C18415   9.581   2.827   8.899  0.1434 -0.3360  0.9722
  137MOL0     C18416   9.578   2.922   8.798  0.2613 -0.2035  0.1782
  137MOL0     C18417   9.694   2.938   8.720  1.1869  0.1530 -0.5719
  137MOL0     O18418   9.699   3.051   8.647  0.8360 -0.6144  0.3087
  137MOL0     C18419   9.820   3.127   8.660  0.9729  0.4073  0.0076
  137MOL0     C18420   9.785   3.277   8.652  0.5020  0.7438 -0.5213
  137MOL0     C18421   9.899   3.375   8.642  0.0773  0.3447  0.0912
  137MOL0     C18422   9.853   3.521   8.632  0.1974 -0.3646 -0.7808
  137MOL0     C18423   9.830   3.596   8.764  0.6021  0.9188 -0.5382
  137MOL0     C18424   9.805   3.668   8.860 -0.1819  0.4655 -0.1573
  137MOL0     C18425   9.796   2.844   8.727 -0.6441 -1.2629 -0.1628
  137MOL0     C18426   9.804   2.741   8.818  0.4108 -0.2409 -0.5245
  137MOL0     C18427   9.927   2.661   8.813  0.0271  0.1045 -0.5401
  137MOL0     H18428   9.363   2.470   9.128  0.3194  1.6070 -0.5442
  137MOL0     H18429   9.334   2.338   9.336  0.6454 -0.1994  1.9069
  137MOL0     H18430   9.647   2.336   9.676  0.2007 -5.0982 -1.5031
  137MOL0     H18431   9.489   2.438   9.678 -1.3627 -1.4358 -0.2488
  137MOL0     H18432   9.378   2.225   9.740  1.0976 -2.7172 -3.2564
  137MOL0     H18433   9.473   2.318   9.856 -0.6642 -0.1485  0.2594
  137MOL0     H18434   9.601   2.102   9.693  0.0768  0.3839  0.5530
  137MOL0     H18435   9.516   2.049   9.840 -2.0297 -0.4682 -1.1262
  137MOL0     H18436   9.750   2.257   9.865  2.4003 -1.7124  1.3890
  137MOL0     H18437   9.657   2.166   9.981 -1.7939 -0.9349 -0.1037
  137MOL0     H18438   9.752   1.955   9.871  0.1583 -0.4727  2.4321
  137MOL0     H18439   9.865   2.052   9.773 -2.0845 -1.3493 -0.0215
  137MOL0     H18440   9.967   2.120  10.004  3.6860 -0.5968 -1.5793
  137MOL0     H18441   9.852   1.990  10.067  0.8546  1.8186 -0.0461
  137MOL0     H18442  10.106   1.971   9.883 -0.9361 -1.1806 -1.3191
  137MOL0     H18443   9.986   1.847   9.894 -0.8361  1.8896 -0.9995
  137MOL0     H18444  10.036   1.807  10.137  0.3463 -0.5033  0.0814
  137MOL0     H18445  10.186   1.802  10.046  0.3383 -0.3652  1.2954
  137MOL0     H18446  10.368   1.929  10.162  0.1354 -1.5059  2.2764
  137MOL0     H18447  10.347   2.178  10.466 -0.2574 -0.1046 -1.0626
  137MOL0     H18448  10.440   2.032  10.437 -0.1926 -1.4090 -0.7732
  137MOL0     H18449  10.573   2.141  10.277 -0.9682  0.3133 -0.9849
  137MOL0     H18450  10.467   2.276  10.245  3.1052  2.0832 -0.6547
  137MOL0     H18451  10.639   2.220  10.498  0.7355 -3.0989 -2.8174
  137MOL0     H18452  10.526   2.357  10.484  1.0783 -0.8943  0.3805
  137MOL0     H18453  10.777   2.290  10.346  0.2021 -0.5257  0.7488
  137MOL0     H18454  10.747   2.437  10.437  0.2508 -1.8587  1.0052
  137MOL0     H18455  10.611   2.567  10.038  0.6043  4.5148  2.3093
  137MOL0     H18456  10.754   2.633   9.857  1.0783  1.1629 -0.4220
  137MOL0     H18457  10.834   2.698   9.534 -0.4907  0.2306 -1.9712
  137MOL0     H18458  10.920   2.711   9.316 -3.2306  2.2294  2.7918
  137MOL0     H18459  11.026   2.710   9.118 -0.7264  0.3020 -1.3582
  137MOL0     H18460  11.059   2.881   9.178  2.2833  1.4698 -2.1254
  137MOL0     H18461  11.256   2.888   9.038 -0.6312  2.6984 -3.4632
  137MOL0     H18462  11.244   2.726   8.987  0.0641  0.5103 -0.9795
  137MOL0     H18463  11.043   2.752   8.878  1.3005 -0.9354  1.1195
  137MOL0     H18464  11.012   2.922   8.936  0.5355  0.4622  0.9861
  137MOL0     H18465  11.244   2.849   8.753 -0.2340 -0.3967  0.0211
  137MOL0     H18466  11.193   3.009   8.812 -1.1297 -0.8174  3.1292
  137MOL0     H18467  10.985   3.003   8.694 -0.4186 -0.6826  1.8019
  137MOL0     H18468  11.009   2.832   8.629 -0.5987 -0.0509  0.6764
  137MOL0     H18469  11.174   3.075   8.570 -0.0090  0.1920  0.6926
  137MOL0     H18470  11.203   2.912   8.512 -0.5511 -1.0204  1.3706
  137MOL0     H18471  10.944   3.066   8.463 -1.2550 -1.7301  3.0039
  137MOL0     H18472  11.018   2.929   8.356 -0.2446  0.2732 -0.1186
  137MOL0     H18473  11.122   3.210   8.382  0.5559 -1.5709  0.6081
  137MOL0     H18474  11.191   3.079   8.290  1.4659  0.1767  1.5534
  137MOL0     H18475  11.326   2.717   9.456 -0.5033  1.6647 -3.6962
  137MOL0     H18476  11.246   2.699   9.691  0.5104  2.8096 -0.5870
  137MOL0     H18477  11.086   2.607  10.125 -0.1352  0.2934 -1.9442
  137MOL0     H18478  10.939   2.502  10.301 -0.4871  3.3015  1.3876
  137MOL0     H18479   9.721   2.461   9.464 -0.5419 -4.2904 -0.5407
  137MOL0     H18480   9.742   2.599   9.266 -0.0744  0.5140 -0.7306
  137MOL0     H18481   9.489   2.811   8.955 -1.3577  4.1088  0.2007
  137MOL0     H18482   9.499   2.996   8.790 -0.8665 -1.3843 -0.0033
  137MOL0     H18483   9.884   3.094   8.578  1.5569  1.0749  0.1842
  137MOL0     H18484   9.868   3.101   8.755 -4.5770 -3.1376  2.3582
  137MOL0     H18485   9.713   3.299   8.730 -1.3501  2.4108 -2.5799
  137MOL0     H18486   9.728   3.286   8.559  0.1784 -1.1928 -0.5512
  137MOL0     H18487   9.960   3.340   8.558  0.5820  1.0050  0.1817
  137MOL0     H18488   9.956   3.366   8.735 -1.7079  0.0361  1.2030
  137MOL0     H18489   9.933   3.581   8.590 -0.1010  0.1908 -0.5685
  137MOL0     H18490   9.759   3.542   8.580 -0.4483  1.2231  0.9063
  137MOL0     H18491   9.806   3.733   8.945 -2.0920  0.0442  0.2422
  137MOL0     H18492   9.878   2.860   8.657  0.5912 -1.0487  1.2598
  137MOL0     H18493   9.967   2.661   8.915 -1.0517  0.4092 -0.0934
  137MOL0     H18494   9.898   2.562   8.777  1.8433  0.6314 -3.8084
  137MOL0     H18495   9.997   2.701   8.739 -1.3405  2.2536 -0.7920
  138MOL0     O18496   0.839   2.684   6.700  0.0858 -0.1576 -0.3304
  138MOL0     C18497   0.812   2.575   6.644  0.0685  0.3327 -0.3006
  138MOL0     O18498   0.892   2.510   6.559 -0.4052 -1.5134  0.0140
  138MOL0     C18499   1.031   2.518   6.603  0.0920 -0.2664  0.2024
  138MOL0     C18500   1.068   2.461   6.721 -0.3848  0.1987  1.1776
  138MOL0     C18501   1.200   2.444   6.746 -0.0031  0.5700  0.5958
  138MOL0     C18502   1.298   2.460   6.649 -0.7712 -0.7790 -0.2614
  138MOL0     O18503   1.434   2.424   6.654 -0.1757 -0.8422  0.6784
  138MOL0     C18504   1.459   2.310   6.736 -0.5953  0.0375 -0.0765
  138MOL0     C18505   1.596   2.261   6.696  0.0118  0.2230 -1.0314
  138MOL0     C18506   1.620   2.220   6.551  0.0311 -0.3737 -0.3876
  138MOL0     C18507   1.767   2.204   6.519 -1.1649  0.1066  0.3952
  138MOL0     C18508   1.783   2.132   6.390  0.0844 -0.5702 -0.0678
  138MOL0     C18509   1.708   2.194   6.268  0.7579  0.2173  0.7770
  138MOL0     C18510   1.776   2.163   6.133 -0.4323 -0.9542 -0.3386
  138MOL0     C18511   1.908   2.246   6.116  0.7710 -1.0472  0.3644
  138MOL0     N18512   1.969   2.209   5.986  0.4968  0.0406 -0.1423
  138MOL0     C18513   2.047   2.101   5.965 -0.2835  0.0050  0.1039
  138MOL0     C18514   2.038   2.071   5.834 -0.3664 -0.5333 -0.2644
  138MOL0     C18515   2.094   1.947   5.771 -0.9636  0.1960  0.5390
  138MOL0     C18516   2.106   1.827   5.869 -0.5420  0.0796 -0.1102
  138MOL0     C18517   2.242   1.802   5.937 -0.2276  0.5603 -0.7466
  138MOL0     C18518   2.355   1.802   5.846 -1.0782 -1.1040  0.9263
  138MOL0     O18519   2.342   1.716   5.723 -0.5667  0.3155  0.0469
  138MOL0     C18520   2.442   1.701   5.630 -0.4459  0.2089 -0.2531
  138MOL0     C18521   2.573   1.734   5.645  0.4688 -0.2217  0.2726
  138MOL0     C18522   2.659   1.727   5.540 -0.4610 -0.1029 -0.1666
  138MOL0     C18523   2.613   1.676   5.419  0.5709  0.4695 -0.0208
  138MOL0     C18524   2.697   1.675   5.306  0.1982  0.1125  0.8126
  138MOL0     O18525   2.831   1.662   5.326 -0.0350  0.4540 -0.4908
  138MOL0     C18526   2.934   1.667   5.230 -1.3025 -0.2295  0.2864
  138MOL0     C18527   3.051   1.592   5.256  0.0697 -0.5509 -0.2897
  138MOL0     C18528   3.149   1.600   5.161  0.4900  0.2522 -0.1204
  138MOL0     C18529   3.140   1.670   5.047 -1.3123 -0.2779 -0.9006
  138MOL0     O18530   3.244   1.667   4.961  0.3649  0.0271 -0.0012
  138MOL0     C18531   3.196   1.653   4.824  0.1524  0.0466 -0.3440
  138MOL0     C18532   3.320   1.637   4.732 -0.1322  0.4983 -0.8726
  138MOL0     C18533   3.424   1.537   4.783  0.2602 -0.8268  0.2220
  138MOL0     C18534   3.532   1.493   4.686 -0.3493  0.0810  1.0422
  138MOL0     C18535   3.583   1.352   4.728 -0.6429 -1.4656 -0.0315
  138MOL0     C18536   3.512   1.233   4.665 -0.5747 -1.0228 -0.2095
  138MOL0     C18537   3.522   1.103   4.758 -0.5089 -0.2860 -0.4186
  138MOL0     C18538   3.396   1.006   4.726  0.6549 -0.5962  0.1300
  138MOL0    Cl18539   3.270   1.009   4.855  0.0880 -0.0157 -0.5797
  138MOL0     C18540   3.028   1.752   5.023  0.0374  1.3738  0.1988
  138MOL0     C18541   2.926   1.750   5.117  1.0364  0.6173  0.3433
  138MOL0     O18542   2.646   1.677   5.192 -0.0890 -0.6225 -0.2815
  138MOL0     C18543   2.477   1.619   5.404  0.6713  0.0087 -1.0632
  138MOL0     C18544   2.391   1.639   5.507  0.3771 -0.3063  0.0874
  138MOL0     N18545   1.958   2.168   5.780  0.3918  0.1304 -0.5821
  138MOL0     N18546   1.929   2.258   5.864 -0.4428 -0.0562  0.3117
  138MOL0     C18547   1.260   2.505   6.525  0.5271 -0.7534 -0.4234
  138MOL0     C18548   1.127   2.539   6.500  0.7035 -0.5514 -0.0630
  138MOL0     C18549   0.681   2.521   6.670  0.0094  0.9372 -0.6786
  138MOL0     C18550   0.634   2.405   6.589 -0.4257  0.1687 -1.2068
  138MOL0     C18551   0.506   2.343   6.612 -0.0678 -0.3103 -0.0071
  138MOL0     C18552   0.430   2.392   6.716  0.1730  0.1006 -0.3135
  138MOL0     O18553   0.306   2.326   6.749  0.2300 -0.3272  0.9750
  138MOL0     C18554   0.315   2.187   6.777  0.0617 -0.3644 -0.3028
  138MOL0     C18555   0.188   2.112   6.728  0.2005 -0.4160  0.5201
  138MOL0     C18556   0.181   2.091   6.574 -0.9868 -0.7400 -0.8047
  138MOL0     C18557   0.039   2.073   6.510  0.5789 -0.5164 -0.5288
  138MOL0     C18558  -0.013   1.934   6.534 -0.0754 -0.8130  0.6692
  138MOL0     C18559  -0.047   1.820   6.539 -0.6134  0.1117 -0.3805
  138MOL0     C18560   0.474   2.497   6.793  0.0892  0.2386 -0.4805
  138MOL0     C18561   0.595   2.567   6.767  1.6608 -0.3083 -0.5164
  138MOL0     C18562   0.620   2.685   6.868 -0.0843 -0.7530 -0.9280
  138MOL0     H18563   0.992   2.441   6.796 -3.8530 -0.7237 -2.2551
  138MOL0     H18564   1.233   2.412   6.845 -1.7484  0.2893  1.1245
  138MOL0     H18565   1.457   2.332   6.843  0.2985  1.7353 -0.3769
  138MOL0     H18566   1.386   2.231   6.718  2.0513 -2.9388  1.2631
  138MOL0     H18567   1.623   2.177   6.761 -1.6909  1.4415  1.3884
  138MOL0     H18568   1.659   2.347   6.718 -2.0468  1.8655 -1.1979
  138MOL0     H18569   1.588   2.295   6.478  2.8558  0.0440 -1.3127
  138MOL0     H18570   1.562   2.133   6.519  1.9202 -1.5136 -0.8813
  138MOL0     H18571   1.811   2.304   6.525 -2.3175  0.7938 -1.7742
  138MOL0     H18572   1.813   2.142   6.597 -0.5042  2.2731  1.8468
  138MOL0     H18573   1.889   2.115   6.369 -0.2778 -1.1146 -1.5896
  138MOL0     H18574   1.734   2.040   6.420 -0.3389 -1.0344 -2.0426
  138MOL0     H18575   1.605   2.159   6.257  0.4514  1.8082 -5.4368
  138MOL0     H18576   1.695   2.303   6.276  1.5630  0.3719  0.1606
  138MOL0     H18577   1.705   2.179   6.051 -3.1935  0.9777  2.2106
  138MOL0     H18578   1.804   2.058   6.138  1.4796 -0.5609 -1.7427
  138MOL0     H18579   1.858   2.343   6.112 -1.3042 -1.8321  3.6852
  138MOL0     H18580   1.985   2.249   6.193  1.0871  0.6560  0.0351
  138MOL0     H18581   2.085   2.040   6.046  0.2906 -1.5487 -1.2731
  138MOL0     H18582   2.024   1.915   5.693 -0.4842 -1.9051  0.9231
  138MOL0     H18583   2.188   1.968   5.719  0.2522 -0.2484  2.4865
  138MOL0     H18584   2.036   1.841   5.951 -0.0645  1.0566  0.1400
  138MOL0     H18585   2.064   1.739   5.819 -1.1556  1.3606 -1.9549
  138MOL0     H18586   2.240   1.708   5.994 -0.3615  1.4752  0.8233
  138MOL0     H18587   2.267   1.877   6.012  0.1911 -1.7616  1.5895
  138MOL0     H18588   2.450   1.782   5.896  1.7209 -0.3278 -3.4787
  138MOL0     H18589   2.375   1.903   5.809 -0.1982 -0.7326  2.3505
  138MOL0     H18590   2.613   1.774   5.737  0.6854  3.6935 -1.3074
  138MOL0     H18591   2.761   1.760   5.553 -1.2494  2.4471 -0.0229
  138MOL0     H18592   3.055   1.534   5.348  2.3724  1.4094  0.9471
  138MOL0     H18593   3.230   1.527   5.171  1.4969  1.3771  0.1870
  138MOL0     H18594   3.120   1.578   4.801  3.6055 -3.3828 -1.6095
  138MOL0     H18595   3.160   1.752   4.793 -1.2156 -0.9785 -2.2150
  138MOL0     H18596   3.286   1.613   4.631  0.0561 -0.9884 -0.6000
  138MOL0     H18597   3.367   1.735   4.722 -1.8843  1.1597 -3.7630
  138MOL0     H18598   3.471   1.570   4.876 -0.3868  1.6684 -0.2505
  138MOL0     H18599   3.364   1.449   4.805 -1.4915  0.7233  2.0474
  138MOL0     H18600   3.607   1.572   4.694 -0.4855  0.2790  0.4780
  138MOL0     H18601   3.513   1.482   4.579  1.6674 -2.7228  0.8533
  138MOL0     H18602   3.574   1.360   4.837 -2.1251  1.2074 -0.2402
  138MOL0     H18603   3.688   1.343   4.698 -0.5261  2.8940 -1.7061
  138MOL0     H18604   3.410   1.267   4.646  0.5007  1.3137 -2.4083
  138MOL0     H18605   3.546   1.215   4.563 -0.4750  1.9540 -0.7627
  138MOL0     H18606   3.525   1.127   4.865 -1.1677  0.9181 -0.6545
  138MOL0     H18607   3.607   1.044   4.722  0.1188  0.1440  0.3451
  138MOL0     H18608   3.341   1.040   4.639  0.0192 -1.8618  0.0155
  138MOL0     H18609   3.427   0.901   4.717 -1.1911 -1.1204 -0.5565
  138MOL0     H18610   3.021   1.823   4.941 -0.5477  1.0139 -0.0724
  138MOL0     H18611   2.841   1.814   5.093 -1.2598 -2.9681 -2.1298
  138MOL0     H18612   2.438   1.569   5.317 -1.4946 -2.9840  1.3996
  138MOL0     H18613   2.289   1.606   5.495  1.1229 -2.3783 -1.0323
  138MOL0     H18614   1.342   2.510   6.455  2.4499 -1.6083  1.6618
  138MOL0     H18615   1.094   2.557   6.398  0.0658  3.5749  0.6585
  138MOL0     H18616   0.692   2.361   6.509  1.3475  0.6070 -0.2171
  138MOL0     H18617   0.475   2.252   6.562 -1.1635 -0.1669  0.3875
  138MOL0     H18618   0.335   2.183   6.884  2.3925  1.7352 -0.5516
  138MOL0     H18619   0.403   2.135   6.738  0.2035 -1.3224  1.2176
  138MOL0     H18620   0.098   2.170   6.753  3.0994  3.7288  2.3812
  138MOL0     H18621   0.190   2.022   6.790 -1.3503 -1.0395 -0.2750
  138MOL0     H18622   0.252   2.012   6.546 -0.5157  0.4506 -3.2792
  138MOL0     H18623   0.215   2.181   6.521  0.7430 -1.1607 -0.4495
  138MOL0     H18624  -0.041   2.140   6.543  2.1623  2.4798 -2.3617
  138MOL0     H18625   0.042   2.099   6.404  0.1439  4.5642  0.4383
  138MOL0     H18626  -0.084   1.720   6.542  1.0113 -0.7028 -3.4075
  138MOL0     H18627   0.414   2.539   6.874  1.6716 -2.3462  2.2189
  138MOL0     H18628   0.643   2.774   6.809  0.2989 -0.1008  0.1868
  138MOL0     H18629   0.537   2.713   6.934  1.3453 -0.4237  0.7900
  138MOL0     H18630   0.704   2.665   6.935 -1.0665 -1.3551  0.1557
  139MOL0     O18631  10.968   9.115  10.333  0.4387 -0.5505 -0.2321
  139MOL0     C18632  10.855   9.120  10.277  0.1377 -0.5985  0.0737
  139MOL0     O18633  10.797   9.225  10.204  0.1995  0.2873 -0.1239
  139MOL0     C18634  10.869   9.339  10.213  0.2285  0.0435  0.5759
  139MOL0     C18635  10.797   9.446  10.258  0.0873 -0.6823  0.1196
  139MOL0     C18636  10.842   9.578  10.240  0.1708 -0.4668 -0.7041
  139MOL0     C18637  10.967   9.600  10.197 -0.4931  0.4800 -0.0789
  139MOL0     O18638  11.039   9.713  10.180 -0.5392 -0.1355 -0.3132
  139MOL0     C18639  11.000   9.834  10.246  0.2383 -0.2134 -0.1998
  139MOL0     C18640  11.098   9.945  10.203  0.1798 -0.1484 -0.2117
  139MOL0     C18641  11.247   9.911  10.257 -0.4605 -0.5820 -0.3699
  139MOL0     C18642  11.333  10.040  10.267  0.1983 -0.1837 -0.0848
  139MOL0     C18643  11.478  10.018  10.330  0.2024  1.5779  0.5043
  139MOL0     C18644  11.562   9.913  10.247 -0.2827  0.3423 -0.3758
  139MOL0     C18645  11.710   9.901  10.302 -0.3871 -0.2126  0.3695
  139MOL0     C18646  11.736   9.868  10.451 -0.3127  0.2003 -0.3490
  139MOL0     N18647  11.875   9.856  10.483 -0.0947  1.0146 -1.0912
  139MOL0     C18648  11.985   9.934  10.448 -0.1501  0.0539 -0.6444
  139MOL0     C18649  12.099   9.862  10.462 -0.3378 -0.2811 -0.1009
  139MOL0     C18650  12.238   9.900  10.446 -0.8820 -0.1583  0.2505
  139MOL0     C18651  12.354   9.837  10.532 -0.1359 -0.9412 -0.5086
  139MOL0     C18652  12.337   9.843  10.680 -0.8911  0.7721 -0.7684
  139MOL0     C18653  12.434   9.744  10.754  0.1170 -0.8382 -1.1475
  139MOL0     O18654  12.565   9.804  10.769 -0.4555 -0.5598  0.3268
  139MOL0     C18655  12.660   9.759  10.679 -0.0042 -0.9165  0.0821
  139MOL0     C18656  12.723   9.847  10.602 -0.2812 -0.0259 -0.1923
  139MOL0     C18657  12.821   9.797  10.511  0.6182 -0.0425 -0.4020
  139MOL0     C18658  12.856   9.666  10.494  0.3758  0.2423  0.8489
  139MOL0     C18659  12.955   9.627  10.388  0.7761 -0.1250  0.1620
  139MOL0     O18660  13.003   9.498  10.394  0.5652  0.0658 -0.0019
  139MOL0     C18661  13.101   9.457  10.300  0.2542  0.5118 -1.3193
  139MOL0     C18662  13.097   9.318  10.288  0.0591 -0.7752  0.3139
  139MOL0     C18663  13.192   9.260  10.209 -0.7777 -0.4226  0.6083
  139MOL0     C18664  13.293   9.335  10.136 -0.4173  0.1373 -0.3060
  139MOL0     O18665  13.382   9.256  10.063 -0.3053 -0.0165  0.2640
  139MOL0     C18666  13.423   9.325   9.940  0.7086  0.0871 -0.1883
  139MOL0     C18667  13.310   9.335   9.833 -0.5453 -0.4680 -1.0639
  139MOL0     C18668  13.214   9.211   9.828 -0.5628 -0.0896 -0.2377
  139MOL0     C18669  13.141   9.221   9.692  0.6741  0.7985 -0.5092
  139MOL0     C18670  13.026   9.110   9.683  0.7683 -0.6248 -0.2803
  139MOL0     C18671  13.021   9.031   9.548 -0.5039  0.6003  0.1166
  139MOL0     C18672  12.991   9.110   9.420 -1.2508 -0.6976 -0.4203
  139MOL0     C18673  12.902   9.013   9.327 -0.4845 -0.5145  0.0689
  139MOL0    Cl18674  12.859   9.099   9.171  0.0436  0.1679 -0.1814
  139MOL0     C18675  13.289   9.479  10.153 -0.9924  0.1013  0.2309
  139MOL0     C18676  13.202   9.530  10.242  0.5185  0.1909  1.0727
  139MOL0     O18677  12.995   9.713  10.309 -0.7983  0.2907  0.0179
  139MOL0     C18678  12.804   9.580  10.590 -0.4153  0.0662  0.1593
  139MOL0     C18679  12.713   9.623  10.685 -0.1383 -0.0760 -0.8350
  139MOL0     N18680  12.057   9.737  10.512 -0.1271  0.2944  0.2690
  139MOL0     N18681  11.932   9.740  10.526  0.6796  0.5577  1.0128
  139MOL0     C18682  11.041   9.491  10.159  0.6133  0.1789 -0.5215
  139MOL0     C18683  10.993   9.355  10.154 -0.2867  0.6853  0.5856
  139MOL0     C18684  10.777   8.986  10.283 -0.3698 -0.4360 -0.5393
  139MOL0     C18685  10.855   8.868  10.315  0.4198  1.0713 -0.3164
  139MOL0     C18686  10.799   8.745  10.351  0.7136 -0.7412  1.5140
  139MOL0     C18687  10.659   8.736  10.342  0.8863  0.6291 -0.4283
  139MOL0     O18688  10.604   8.612  10.378  0.1356 -0.0762 -0.4369
  139MOL0     C18689  10.470   8.584  10.387  0.4605 -0.0310 -1.0310
  139MOL0     C18690  10.414   8.512  10.269 -0.5995  0.3775 -0.7829
  139MOL0     C18691  10.484   8.370  10.265  0.2208  0.5929  0.4907
  139MOL0     C18692  10.436   8.287  10.158  0.0573  0.2694 -0.4361
  139MOL0     C18693  10.465   8.337  10.016  0.7603 -0.1371  0.3665
  139MOL0     C18694  10.484   8.363   9.896  0.8800  0.3043 -0.7874
  139MOL0     C18695  10.582   8.848  10.304  0.7807 -0.2393 -0.3561
  139MOL0     C18696  10.637   8.976  10.279 -0.5993  0.7839 -0.3111
  139MOL0     C18697  10.541   9.094  10.267 -0.1103 -0.2898 -0.8964
  139MOL0     H18698  10.699   9.436  10.302  0.4137  1.0118  1.3399
  139MOL0     H18699  10.768   9.655  10.262 -0.5239 -1.2486 -0.2539
  139MOL0     H18700  10.894   9.849  10.224 -0.8122 -1.1803  3.5119
  139MOL0     H18701  10.992   9.816  10.353 -3.5311  2.0485  0.1130
  139MOL0     H18702  11.068  10.043  10.242  2.4291  0.5803 -0.2067
  139MOL0     H18703  11.106   9.960  10.095  1.6923  0.5950 -0.0286
  139MOL0     H18704  11.303   9.842  10.193 -0.8393  0.1214 -1.4873
  139MOL0     H18705  11.244   9.862  10.355  0.8408  1.5631  0.8065
  139MOL0     H18706  11.332  10.092  10.171 -2.6096  1.0137  0.5047
  139MOL0     H18707  11.288  10.113  10.334  1.7944 -0.2090  1.0847
  139MOL0     H18708  11.525  10.116  10.341  0.3923  1.4949  0.4205
  139MOL0     H18709  11.466   9.979  10.432  2.3548  2.1499  1.0296
  139MOL0     H18710  11.523   9.811  10.239  4.5675 -1.6600 -3.0581
  139MOL0     H18711  11.568   9.955  10.146  2.5170  0.3524 -0.2766
  139MOL0     H18712  11.767   9.991  10.277 -1.4528  0.1038 -1.0244
  139MOL0     H18713  11.759   9.827  10.239  1.2555  0.9627  0.1885
  139MOL0     H18714  11.697   9.949  10.514  1.3670  0.6444  0.1615
  139MOL0     H18715  11.673   9.781  10.474 -0.3445 -0.3817 -2.4223
  139MOL0     H18716  11.981  10.037  10.413  0.5962  1.0316  1.9225
  139MOL0     H18717  12.268   9.882  10.342  1.9392  1.2480  0.6917
  139MOL0     H18718  12.231  10.005  10.475 -1.7384 -0.7649  2.4244
  139MOL0     H18719  12.364   9.732  10.501 -3.3087 -0.7257 -2.7323
  139MOL0     H18720  12.450   9.887  10.518 -0.7477  2.5448  4.8127
  139MOL0     H18721  12.232   9.819  10.699 -1.8855  3.3579 -2.5095
  139MOL0     H18722  12.343   9.947  10.715 -1.9414  0.5700  0.0700
  139MOL0     H18723  12.438   9.647  10.704 -1.8963 -1.5602 -0.0452
  139MOL0     H18724  12.395   9.721  10.854  0.8379  0.5664 -0.5098
  139MOL0     H18725  12.695   9.952  10.604  0.4641  0.3310 -3.3809
  139MOL0     H18726  12.871   9.866  10.444  1.8149 -0.8052 -0.3234
  139MOL0     H18727  13.028   9.257  10.346  0.9615 -0.8667  1.3289
  139MOL0     H18728  13.191   9.151  10.208 -3.4209 -0.4798  0.4975
  139MOL0     H18729  13.475   9.420   9.955  2.0365 -0.7064  0.4065
  139MOL0     H18730  13.504   9.269   9.893  0.4648  0.2208 -0.7780
  139MOL0     H18731  13.249   9.423   9.858  0.1764  0.4583 -2.4447
  139MOL0     H18732  13.363   9.354   9.740  0.4409 -1.3385 -0.6990
  139MOL0     H18733  13.264   9.115   9.811 -0.5722  0.1507 -1.8379
  139MOL0     H18734  13.144   9.208   9.912 -2.4918  2.4539 -1.6075
  139MOL0     H18735  13.210   9.201   9.608  2.6666  1.0874  0.9883
  139MOL0     H18736  13.099   9.321   9.677 -0.5659  0.8302  2.6124
  139MOL0     H18737  12.927   9.154   9.698  1.3991  0.3716  1.2859
  139MOL0     H18738  13.042   9.040   9.766  0.4915 -1.6237 -1.0513
  139MOL0     H18739  13.120   8.986   9.558  0.1917  2.4093  1.8987
  139MOL0     H18740  12.933   8.966   9.547 -2.3733  2.9646 -2.1634
  139MOL0     H18741  13.084   9.139   9.372  1.4743 -4.4464  2.0066
  139MOL0     H18742  12.947   9.209   9.436  0.9328  0.6991 -2.5167
  139MOL0     H18743  12.942   8.913   9.309  0.6376 -0.0243 -0.2535
  139MOL0     H18744  12.807   8.996   9.377 -0.0964  0.3841  1.1750
  139MOL0     H18745  13.369   9.535  10.106 -0.2265 -1.9108 -1.0300
  139MOL0     H18746  13.223   9.633  10.271  0.2296  1.0151 -1.4311
  139MOL0     H18747  12.840   9.477  10.580  0.8821  0.3774  1.3170
  139MOL0     H18748  12.679   9.555  10.762  2.6998 -0.1781  0.4504
  139MOL0     H18749  11.142   9.499  10.120 -0.2196 -1.1231 -3.2441
  139MOL0     H18750  11.054   9.278  10.107 -1.6098  1.5476 -2.9047
  139MOL0     H18751  10.962   8.870  10.328  0.2321  3.1807  1.5867
  139MOL0     H18752  10.862   8.659  10.371 -0.6942 -2.1571  0.1601
  139MOL0     H18753  10.413   8.676  10.405 -0.2096 -0.2373 -1.9982
  139MOL0     H18754  10.459   8.508  10.464 -0.5535  1.6407  0.5673
  139MOL0     H18755  10.428   8.568  10.175  1.3997 -0.4378 -1.0402
  139MOL0     H18756  10.306   8.496  10.273 -0.2848 -2.2849 -0.9351
  139MOL0     H18757  10.478   8.311  10.356  2.5956  2.7796  2.2024
  139MOL0     H18758  10.593   8.381  10.258  0.4017 -0.4104  1.4742
  139MOL0     H18759  10.474   8.184  10.163  3.4096  1.3983 -0.4776
  139MOL0     H18760  10.327   8.284  10.171 -0.1252  1.3528 -1.5422
  139MOL0     H18761  10.486   8.377   9.790 -0.9510 -3.8202 -1.5839
  139MOL0     H18762  10.474   8.848  10.290  0.2102  4.0595  2.0728
  139MOL0     H18763  10.436   9.064  10.255 -0.6298  2.0853 -3.1858
  139MOL0     H18764  10.553   9.162  10.352  2.7733  1.8056 -2.7969
  139MOL0     H18765  10.568   9.164  10.187  2.2446  1.4995  1.3120
  140MOL0     O18766   3.482   5.742   2.032  0.0818 -0.4948  0.3038
  140MOL0     C18767   3.563   5.673   1.972 -0.2169 -0.2136 -0.0884
  140MOL0     O18768   3.524   5.549   1.921 -0.3608 -0.1444  0.0768
  140MOL0     C18769   3.393   5.533   1.873 -0.4789  1.0616  0.6045
  140MOL0     C18770   3.340   5.399   1.868 -0.8503 -0.1704 -0.3176
  140MOL0     C18771   3.202   5.380   1.842  0.0688  0.5078 -0.2476
  140MOL0     C18772   3.115   5.485   1.796 -0.1829  0.6653 -0.0772
  140MOL0     O18773   2.987   5.461   1.748  0.3138  0.7271 -0.3242
  140MOL0     C18774   2.917   5.346   1.802 -0.4709 -0.1687 -0.8576
  140MOL0     C18775   2.776   5.307   1.751  0.4249  0.2787 -0.4545
  140MOL0     C18776   2.731   5.154   1.775 -0.7587 -0.4326  0.4484
  140MOL0     C18777   2.580   5.147   1.794  0.2836  0.1767 -0.4306
  140MOL0     C18778   2.490   5.184   1.674 -0.3475  0.7905  0.4911
  140MOL0     C18779   2.530   5.091   1.557  0.8214 -0.3301  0.2945
  140MOL0     C18780   2.463   5.132   1.433  1.3101 -0.8643  0.1358
  140MOL0     C18781   2.317   5.107   1.421  0.4169 -0.1433  0.7250
  140MOL0     N18782   2.252   5.146   1.296  0.0418 -0.0045 -0.3070
  140MOL0     C18783   2.117   5.177   1.295 -0.3790 -1.0564  0.2229
  140MOL0     C18784   2.097   5.197   1.158  0.2824  0.8984 -0.9899
  140MOL0     C18785   1.964   5.263   1.109  1.0114  0.3572 -0.0756
  140MOL0     C18786   1.888   5.185   1.007 -0.8965 -0.5535  0.4692
  140MOL0     C18787   1.767   5.266   0.948  0.2568  0.3752  0.9130
  140MOL0     C18788   1.660   5.273   1.054  0.0089 -0.0061  0.0154
  140MOL0     O18789   1.541   5.312   0.979  0.3534 -0.1305 -0.4862
  140MOL0     C18790   1.429   5.329   1.054  0.3943 -0.0734  0.5674
  140MOL0     C18791   1.418   5.421   1.157  0.5828  1.0433 -1.0127
  140MOL0     C18792   1.295   5.440   1.225 -0.7266 -0.4090 -1.5435
  140MOL0     C18793   1.187   5.358   1.184  0.2229  0.8048  0.1366
  140MOL0     C18794   1.050   5.358   1.244 -0.8699 -0.1553 -0.1171
  140MOL0     O18795   1.026   5.471   1.303  0.2068 -0.3525 -0.5479
  140MOL0     C18796   0.916   5.482   1.389  0.4265  0.6722  0.1122
  140MOL0     C18797   0.835   5.591   1.374 -0.2906 -0.1766  0.7370
  140MOL0     C18798   0.716   5.619   1.443  1.2248  0.0049 -0.4099
  140MOL0     C18799   0.683   5.547   1.550  0.5045 -0.3989 -0.1887
  140MOL0     O18800   0.575   5.592   1.638 -0.3814 -0.9388 -1.0277
  140MOL0     C18801   0.601   5.559   1.774 -0.4566  0.2155 -0.3395
  140MOL0     C18802   0.495   5.612   1.866 -1.4845  0.0434 -1.5312
  140MOL0     C18803   0.530   5.610   2.013  1.4255  0.3290 -0.0858
  140MOL0     C18804   0.546   5.466   2.070 -0.6877  0.7427 -0.1602
  140MOL0     C18805   0.626   5.479   2.209  0.3366  0.2465 -0.1850
  140MOL0     C18806   0.601   5.356   2.296  0.7859 -1.4923 -0.5455
  140MOL0     C18807   0.701   5.355   2.407  0.2466 -0.0509  0.6149
  140MOL0     C18808   0.692   5.490   2.490  0.0524 -0.3722 -0.2095
  140MOL0    Cl18809   0.821   5.481   2.622  0.0702  0.1830  0.1481
  140MOL0     C18810   0.762   5.427   1.573  0.1233 -0.3540 -0.5286
  140MOL0     C18811   0.880   5.402   1.498 -1.0960 -0.0249  0.8099
  140MOL0     O18812   0.969   5.266   1.232 -0.6010  0.3468  0.3995
  140MOL0     C18813   1.201   5.277   1.073  0.0952  1.3021  1.0051
  140MOL0     C18814   1.318   5.263   1.007 -0.7244 -0.1569 -0.1439
  140MOL0     N18815   2.220   5.174   1.092  0.2609  0.0688 -0.2989
  140MOL0     N18816   2.313   5.156   1.172 -0.2439  0.2167  0.1449
  140MOL0     C18817   3.175   5.611   1.776  0.4006  0.4507 -0.2215
  140MOL0     C18818   3.308   5.631   1.828 -0.2793  0.6708  0.1838
  140MOL0     C18819   3.710   5.717   1.977  0.9283 -0.0648  0.0235
  140MOL0     C18820   3.751   5.784   2.099  0.0379  0.1291  0.0094
  140MOL0     C18821   3.885   5.808   2.126  1.0748  0.1794  1.1662
  140MOL0     C18822   3.980   5.790   2.018 -0.0917  0.0543 -0.0539
  140MOL0     O18823   4.109   5.827   2.023 -0.3628  0.7214 -0.4740
  140MOL0     C18824   4.147   5.932   2.105  0.0071  0.0096  1.2523
  140MOL0     C18825   4.112   6.067   2.040  0.5185  0.8871 -0.9705
  140MOL0     C18826   4.174   6.096   1.902  1.0411  0.1867 -0.7048
  140MOL0     C18827   4.306   6.173   1.932  1.0320 -0.5375 -1.1999
  140MOL0     C18828   4.281   6.318   1.940  0.4447 -0.5770  0.1173
  140MOL0     C18829   4.258   6.439   1.931  0.0354 -0.7472 -0.4127
  140MOL0     C18830   3.936   5.732   1.896 -0.4479  0.0813  0.2266
  140MOL0     C18831   3.803   5.692   1.878  0.1189  0.2969  0.1112
  140MOL0     C18832   3.776   5.638   1.733  1.1614  0.3511 -0.6118
  140MOL0     H18833   3.402   5.318   1.905 -1.1554 -1.9664 -3.3981
  140MOL0     H18834   3.177   5.275   1.848 -1.4116  0.7677 -1.2070
  140MOL0     H18835   2.973   5.260   1.763 -2.0266 -0.7155 -2.0256
  140MOL0     H18836   2.935   5.360   1.909  0.4687 -2.5141 -0.6460
  140MOL0     H18837   2.772   5.328   1.644 -2.2081  1.2000 -0.2678
  140MOL0     H18838   2.708   5.373   1.806 -0.6307 -1.5914  0.6095
  140MOL0     H18839   2.769   5.126   1.874  2.2128 -2.7231 -1.1617
  140MOL0     H18840   2.775   5.092   1.697  0.2856  2.3966 -1.3420
  140MOL0     H18841   2.560   5.041   1.813 -0.3021 -0.1015 -2.3694
  140MOL0     H18842   2.540   5.199   1.881 -1.7823 -0.1923 -1.1183
  140MOL0     H18843   2.388   5.166   1.710  0.0451 -1.7699  0.4700
  140MOL0     H18844   2.513   5.283   1.633  2.0899 -0.9520 -2.7711
  140MOL0     H18845   2.637   5.091   1.537  2.4638  0.1821  6.8898
  140MOL0     H18846   2.514   4.985   1.577 -1.0782  0.4085  3.2505
  140MOL0     H18847   2.512   5.085   1.347  2.2450 -2.3462  1.4096
  140MOL0     H18848   2.467   5.238   1.408 -0.6340 -0.4678  1.3511
  140MOL0     H18849   2.314   5.002   1.450  1.5595  0.1596  2.0223
  140MOL0     H18850   2.262   5.167   1.493 -1.8034  1.4089 -2.0276
  140MOL0     H18851   2.050   5.198   1.377 -0.5481 -1.3767  0.1662
  140MOL0     H18852   1.898   5.301   1.188  0.6101  0.2081 -0.3289
  140MOL0     H18853   1.987   5.362   1.068  3.1230  1.8315  4.1064
  140MOL0     H18854   1.951   5.159   0.922 -0.8002 -1.4526  0.8120
  140MOL0     H18855   1.844   5.096   1.052  2.0926 -1.7943  1.1789
  140MOL0     H18856   1.734   5.207   0.863 -1.9158  1.1627  1.1415
  140MOL0     H18857   1.787   5.364   0.903  0.2457  0.2793  0.7016
  140MOL0     H18858   1.690   5.358   1.116  1.7867 -0.7898  0.2844
  140MOL0     H18859   1.648   5.182   1.113  0.7657  0.3954  0.8095
  140MOL0     H18860   1.513   5.467   1.181  3.0564 -1.9852 -3.9837
  140MOL0     H18861   1.293   5.514   1.304 -0.6719  0.0752 -1.9871
  140MOL0     H18862   0.862   5.664   1.298 -3.0653 -1.0352 -1.2339
  140MOL0     H18863   0.641   5.694   1.416  3.0693  1.4916 -1.6852
  140MOL0     H18864   0.603   5.450   1.775  2.7284  0.1774  0.7268
  140MOL0     H18865   0.697   5.594   1.814 -0.6168 -3.0611  3.6075
  140MOL0     H18866   0.470   5.718   1.853 -1.4066  0.7357  2.6181
  140MOL0     H18867   0.400   5.564   1.840 -1.7414 -2.0666  2.5714
  140MOL0     H18868   0.626   5.663   2.015  1.6499  0.0487 -1.7440
  140MOL0     H18869   0.441   5.657   2.055  1.1473 -0.0294 -0.2614
  140MOL0     H18870   0.585   5.392   2.000 -2.4413 -0.1184 -0.2904
  140MOL0     H18871   0.447   5.430   2.100 -0.0775 -0.7211  0.1811
  140MOL0     H18872   0.588   5.563   2.267  0.8028 -1.7981  3.3742
  140MOL0     H18873   0.733   5.491   2.189  0.2114  0.4699 -0.7515
  140MOL0     H18874   0.497   5.355   2.332  1.2412 -0.6606  0.8896
  140MOL0     H18875   0.606   5.269   2.231 -1.9385 -0.4215 -2.4057
  140MOL0     H18876   0.802   5.357   2.364 -0.2502 -1.0145 -0.6546
  140MOL0     H18877   0.685   5.270   2.474 -4.4123  0.3125  0.2714
  140MOL0     H18878   0.700   5.584   2.435 -1.3148  0.3604  0.7760
  140MOL0     H18879   0.589   5.500   2.526  0.4723  2.0449  0.5256
  140MOL0     H18880   0.752   5.361   1.658  0.5467 -0.1943 -0.3524
  140MOL0     H18881   0.938   5.312   1.514 -0.3847 -0.0264 -1.4869
  140MOL0     H18882   1.111   5.227   1.037  0.3645  1.7787 -0.3880
  140MOL0     H18883   1.320   5.202   0.917 -0.1734 -0.3298 -0.0147
  140MOL0     H18884   3.114   5.688   1.732 -1.7108  0.4091  2.3332
  140MOL0     H18885   3.331   5.737   1.839  3.7343 -0.1444  1.2092
  140MOL0     H18886   3.674   5.810   2.171 -1.5832 -1.5341 -1.0098
  140MOL0     H18887   3.915   5.860   2.217  2.6937  3.3167 -0.9594
  140MOL0     H18888   4.255   5.920   2.113  0.0307 -2.3376 -1.0135
  140MOL0     H18889   4.119   5.938   2.210  2.0486  2.3926  1.7524
  140MOL0     H18890   4.147   6.146   2.107  1.7876 -1.3545  1.2222
  140MOL0     H18891   4.004   6.082   2.034  0.8061  5.3896  1.2763
  140MOL0     H18892   4.103   6.151   1.840  1.1006  1.0763  0.0013
  140MOL0     H18893   4.191   6.000   1.851 -1.2064 -0.7266  0.1591
  140MOL0     H18894   4.360   6.150   2.024 -1.6915  0.0829  0.6726
  140MOL0     H18895   4.373   6.138   1.853 -1.1028 -1.8909 -2.5160
  140MOL0     H18896   4.228   6.542   1.926 -0.1898 -0.7904 -0.0310
  140MOL0     H18897   4.020   5.712   1.830  0.4839 -0.9025  1.6530
  140MOL0     H18898   3.731   5.538   1.742 -3.6849  2.2682 -0.5400
  140MOL0     H18899   3.708   5.700   1.674  0.7594  2.3603  1.8127
  140MOL0     H18900   3.866   5.639   1.672 -1.4021  0.2138 -4.7817
  141MOL0     O18901   9.010   8.076   8.405  0.4583  0.4306 -0.3692
  141MOL0     C18902   9.072   8.006   8.482  0.7315  0.3706 -1.1788
  141MOL0     O18903   9.026   7.897   8.547  0.4266 -0.0128 -0.5976
  141MOL0     C18904   8.887   7.878   8.550  0.9782 -0.3730  0.4428
  141MOL0     C18905   8.834   7.763   8.477 -0.0777 -0.3878  1.0336
  141MOL0     C18906   8.692   7.741   8.461 -1.2149 -0.1163  0.1436
  141MOL0     C18907   8.602   7.827   8.522 -0.2386  0.5615 -1.0158
  141MOL0     O18908   8.472   7.813   8.499  0.4050 -0.0117 -0.2729
  141MOL0     C18909   8.421   7.838   8.367 -0.7114  0.6947  0.3124
  141MOL0     C18910   8.284   7.881   8.382  0.4102 -0.5019 -0.0069
  141MOL0     C18911   8.220   7.938   8.261  0.3443 -0.0237  0.4677
  141MOL0     C18912   8.211   8.094   8.254  0.1983  0.2905 -0.6622
  141MOL0     C18913   8.177   8.133   8.110 -1.0040  0.0288  0.5882
  141MOL0     C18914   8.158   8.286   8.098 -0.0430  0.4250  0.1415
  141MOL0     C18915   8.092   8.331   7.964  0.2313  1.0700 -0.2380
  141MOL0     C18916   8.156   8.266   7.831  0.1833 -0.1827 -0.2625
  141MOL0     N18917   8.099   8.332   7.713 -0.3052  0.5666 -0.1700
  141MOL0     C18918   8.168   8.382   7.613 -0.2393  0.2082  0.0439
  141MOL0     C18919   8.076   8.438   7.536 -0.0890  0.8438  0.4829
  141MOL0     C18920   8.100   8.512   7.414  1.3396  0.2066  0.2348
  141MOL0     C18921   8.202   8.620   7.424  0.3232 -0.4019  0.2147
  141MOL0     C18922   8.148   8.734   7.522  0.2333 -1.2843 -0.5557
  141MOL0     C18923   8.258   8.830   7.561  0.1641 -0.0753  0.0818
  141MOL0     O18924   8.363   8.769   7.645  0.2793  0.3022  0.6190
  141MOL0     C18925   8.490   8.839   7.661 -0.0274 -0.7735  1.1114
  141MOL0     C18926   8.566   8.844   7.541  0.0444  0.1509 -0.8093
  141MOL0     C18927   8.684   8.918   7.535  0.7709 -0.1819  0.9123
  141MOL0     C18928   8.732   8.978   7.649 -1.0740  0.6119  0.2507
  141MOL0     C18929   8.863   9.044   7.655 -0.0166  0.4126 -0.0718
  141MOL0     O18930   8.945   9.011   7.552 -0.0586  0.2998  0.5614
  141MOL0     C18931   9.076   9.043   7.549  0.7406 -0.5631  0.4920
  141MOL0     C18932   9.120   9.136   7.459 -0.2242  0.4966 -0.2004
  141MOL0     C18933   9.245   9.189   7.457  0.2248  0.2203  0.0524
  141MOL0     C18934   9.337   9.129   7.535 -0.9761 -0.2757 -0.0848
  141MOL0     O18935   9.464   9.182   7.520 -0.1620  0.0535 -0.8625
  141MOL0     C18936   9.568   9.130   7.606  0.1392  0.6220  0.5141
  141MOL0     C18937   9.694   9.216   7.589 -0.7048 -0.1719 -0.2352
  141MOL0     C18938   9.674   9.363   7.557  0.1463 -1.0937 -0.5201
  141MOL0     C18939   9.803   9.449   7.543 -0.6309 -0.2119  0.8852
  141MOL0     C18940   9.788   9.593   7.476  0.6629  0.3052 -0.8747
  141MOL0     C18941   9.716   9.686   7.577  0.5472 -0.0150 -0.1318
  141MOL0     C18942   9.690   9.825   7.521  0.5630  1.1830  0.2688
  141MOL0     C18943   9.638   9.907   7.624  0.4269  0.4581 -0.8294
  141MOL0    Cl18944   9.472   9.848   7.694 -0.2824 -0.0176  0.8043
  141MOL0     C18945   9.303   9.023   7.625  0.0669  0.1096 -0.5042
  141MOL0     C18946   9.169   8.975   7.633 -0.1377 -0.7075 -0.0714
  141MOL0     O18947   8.895   9.100   7.763  0.1023 -0.2009  0.2532
  141MOL0     C18948   8.662   8.954   7.765 -0.4437 -0.2514  0.7607
  141MOL0     C18949   8.537   8.899   7.763  0.0997 -0.2540 -0.1853
  141MOL0     N18950   7.955   8.435   7.601 -0.3552 -0.1889  0.6577
  141MOL0     N18951   7.968   8.365   7.700 -0.7398  0.7842 -0.0308
  141MOL0     C18952   8.654   7.930   8.600 -0.0945  0.3571 -0.2687
  141MOL0     C18953   8.791   7.958   8.619 -0.9165  0.0053  0.3683
  141MOL0     C18954   9.213   8.038   8.515  0.0020  0.3632 -0.9857
  141MOL0     C18955   9.310   7.935   8.526  0.5422  0.3883 -1.3579
  141MOL0     C18956   9.444   7.952   8.571  0.1313 -0.0879 -0.0178
  141MOL0     C18957   9.489   8.083   8.572 -0.1132 -0.0120 -1.5596
  141MOL0     O18958   9.624   8.097   8.576 -0.4185 -0.6473 -0.1667
  141MOL0     C18959   9.689   8.207   8.510 -0.7173  0.0517  0.1930
  141MOL0     C18960   9.722   8.172   8.361  0.0028 -0.2038 -1.1538
  141MOL0     C18961   9.605   8.188   8.270 -0.2824  0.2688  1.1360
  141MOL0     C18962   9.637   8.218   8.120 -0.3558 -0.5270  0.4840
  141MOL0     C18963   9.688   8.090   8.058 -0.0253 -0.0557 -0.1664
  141MOL0     C18964   9.758   7.997   8.021  0.2854 -0.8897  0.9607
  141MOL0     C18965   9.388   8.184   8.555 -0.6772 -0.9256  0.7409
  141MOL0     C18966   9.257   8.166   8.540  0.3054 -0.2372  0.9082
  141MOL0     C18967   9.160   8.280   8.537 -0.0053  0.1578  0.8262
  141MOL0     H18968   8.911   7.714   8.417  1.2777  2.9559 -0.2201
  141MOL0     H18969   8.649   7.664   8.397  2.1122 -1.3468 -0.8289
  141MOL0     H18970   8.482   7.914   8.318 -1.5104  1.9365  1.2063
  141MOL0     H18971   8.426   7.746   8.306  0.2332  1.9236 -1.5724
  141MOL0     H18972   8.278   7.969   8.445 -0.1084  0.0515 -0.8087
  141MOL0     H18973   8.221   7.797   8.413  0.1726 -0.4462 -0.3328
  141MOL0     H18974   8.126   7.886   8.241  0.0923  0.5172  0.2326
  141MOL0     H18975   8.287   7.904   8.182  1.8843 -0.5593  1.9560
  141MOL0     H18976   8.123   8.124   8.312  1.5627  0.5195  1.4031
  141MOL0     H18977   8.297   8.158   8.278  1.0382  0.0459 -2.8245
  141MOL0     H18978   8.269   8.119   8.052 -0.5150  1.5984  0.9484
  141MOL0     H18979   8.095   8.072   8.072  1.5511 -3.0078 -0.5116
  141MOL0     H18980   8.106   8.327   8.185  0.2178 -3.2947  2.2348
  141MOL0     H18981   8.258   8.330   8.108  0.9412 -2.0134  2.0809
  141MOL0     H18982   8.094   8.441   7.965 -0.8679  1.0992 -0.1183
  141MOL0     H18983   7.988   8.302   7.981  0.1461  2.3668  1.9506
  141MOL0     H18984   8.264   8.285   7.834  0.1527  0.0132  3.0426
  141MOL0     H18985   8.158   8.157   7.826  0.4871 -0.1410 -1.1668
  141MOL0     H18986   8.275   8.370   7.596 -0.4450  0.9811 -2.2443
  141MOL0     H18987   8.131   8.434   7.343 -1.6378 -2.0396  1.1675
  141MOL0     H18988   8.010   8.553   7.369  1.6108  1.5623  0.8887
  141MOL0     H18989   8.293   8.574   7.463  1.5922  1.5315 -0.3155
  141MOL0     H18990   8.204   8.654   7.320 -2.6730 -2.1188 -0.5389
  141MOL0     H18991   8.108   8.696   7.617  0.4368  1.7096  0.8157
  141MOL0     H18992   8.066   8.786   7.472  1.7109 -0.0425 -1.7790
  141MOL0     H18993   8.210   8.906   7.623  1.2525  1.5172 -0.9524
  141MOL0     H18994   8.299   8.870   7.468  1.7432 -2.7422 -0.4721
  141MOL0     H18995   8.530   8.799   7.449  0.7362 -1.3467 -0.3757
  141MOL0     H18996   8.726   8.924   7.435 -3.3037 -1.7677 -1.1369
  141MOL0     H18997   9.041   9.179   7.397 -0.4737  1.8957  1.0244
  141MOL0     H18998   9.257   9.273   7.389  0.9861 -1.8207 -2.5356
  141MOL0     H18999   9.534   9.149   7.708 -2.4950 -0.9069 -0.0053
  141MOL0     H19000   9.602   9.028   7.583 -1.9360  0.1553 -0.6874
  141MOL0     H19001   9.760   9.207   7.675  0.8648  2.5097 -1.0469
  141MOL0     H19002   9.752   9.180   7.503  0.9941  2.6474 -0.3872
  141MOL0     H19003   9.625   9.369   7.459 -0.7177 -1.5989 -0.1278
  141MOL0     H19004   9.603   9.400   7.632  0.1841 -1.9167 -0.0649
  141MOL0     H19005   9.874   9.392   7.483 -1.1930  1.8536 -1.9806
  141MOL0     H19006   9.854   9.459   7.640  1.2070  3.4999 -0.2594
  141MOL0     H19007   9.728   9.580   7.386 -1.8171  3.2432  0.2009
  141MOL0     H19008   9.884   9.637   7.447  0.6622  1.2691  0.4615
  141MOL0     H19009   9.621   9.642   7.607 -0.6370  1.7612 -1.0696
  141MOL0     H19010   9.787   9.689   7.660  0.3313 -2.0269  0.1613
  141MOL0     H19011   9.633   9.829   7.428  1.7311  2.5102 -0.4231
  141MOL0     H19012   9.780   9.878   7.488  0.0271  2.3138  0.5706
  141MOL0     H19013   9.704   9.907   7.711 -1.8847 -3.2643  1.1811
  141MOL0     H19014   9.624  10.008   7.585 -0.2255  0.4417 -0.6527
  141MOL0     H19015   9.383   8.982   7.686  0.3757 -2.1610 -2.3004
  141MOL0     H19016   9.137   8.898   7.702 -0.0080 -0.2600  0.4896
  141MOL0     H19017   8.701   8.988   7.861 -0.2043  0.6689  0.3530
  141MOL0     H19018   8.485   8.891   7.858  0.4423 -1.7326 -0.0935
  141MOL0     H19019   8.576   7.992   8.644 -0.0530 -0.3669  0.8712
  141MOL0     H19020   8.817   8.039   8.686 -0.6687  0.3341 -0.1181
  141MOL0     H19021   9.277   7.833   8.512  0.0891  0.3192 -0.0201
  141MOL0     H19022   9.511   7.869   8.590  0.1563 -0.7376 -2.5088
  141MOL0     H19023   9.783   8.223   8.563 -1.9804  2.7696  1.8134
  141MOL0     H19024   9.632   8.301   8.512  0.8482  1.0773 -0.8729
  141MOL0     H19025   9.765   8.072   8.371 -3.0918 -1.3967  2.6569
  141MOL0     H19026   9.796   8.244   8.326  0.4052 -1.6979 -3.5539
  141MOL0     H19027   9.534   8.260   8.313 -2.6145 -0.1002 -1.7165
  141MOL0     H19028   9.554   8.092   8.261 -1.8822  1.2417 -1.9095
  141MOL0     H19029   9.552   8.246   8.058  2.2417  1.5123 -2.5141
  141MOL0     H19030   9.714   8.294   8.100 -1.7386  0.6408 -0.6183
  141MOL0     H19031   9.815   7.917   7.976  0.4799  1.5247 -3.7121
  141MOL0     H19032   9.421   8.288   8.548 -1.2796 -0.8319 -1.3406
  141MOL0     H19033   9.093   8.252   8.618 -2.0066  0.0285 -0.7834
  141MOL0     H19034   9.213   8.374   8.557  3.5266 -2.2330  4.3222
  141MOL0     H19035   9.112   8.277   8.439 -0.8530  1.9484  1.1535
  142MOL0     O19036   7.843   6.458   9.106  0.8433 -0.3578  0.0831
  142MOL0     C19037   7.755   6.534   9.140  0.2333 -0.1441 -0.6918
  142MOL0     O19038   7.717   6.557   9.263 -0.0047 -1.1317  0.1559
  142MOL0     C19039   7.764   6.484   9.372  0.1870  0.6238  0.5423
  142MOL0     C19040   7.737   6.542   9.494  0.3661  0.5405  0.6079
  142MOL0     C19041   7.768   6.473   9.609  0.6282 -0.2528  0.5252
  142MOL0     C19042   7.827   6.347   9.611 -0.4711 -0.2029  0.9122
  142MOL0     O19043   7.878   6.277   9.724 -0.0240 -0.3941  0.3560
  142MOL0     C19044   7.819   6.305   9.854  0.5034  0.9366 -0.0660
  142MOL0     C19045   7.912   6.241   9.958 -0.8637 -0.7755 -0.0040
  142MOL0     C19046   7.949   6.089   9.945  0.5121 -0.1401  0.2385
  142MOL0     C19047   7.834   6.007   9.984 -0.1814  1.6127  0.1376
  142MOL0     C19048   7.862   5.855   9.946 -0.6104  0.4358  0.6359
  142MOL0     C19049   7.748   5.773  10.015 -0.0035 -0.3638  0.0326
  142MOL0     C19050   7.759   5.622   9.983 -0.8763 -0.2107 -0.1224
  142MOL0     C19051   7.624   5.552   9.990  0.1700 -0.6270  0.0944
  142MOL0     N19052   7.611   5.417   9.954 -0.0053  0.7020  0.1764
  142MOL0     C19053   7.607   5.350   9.832  0.6323  0.0324 -0.1724
  142MOL0     C19054   7.661   5.230   9.847  0.2648  0.1571 -0.8637
  142MOL0     C19055   7.704   5.123   9.745 -0.6022 -0.0264 -0.5022
  142MOL0     C19056   7.861   5.118   9.716  0.2630 -0.2538 -0.0383
  142MOL0     C19057   7.905   5.244   9.636  0.5711  0.1705 -0.9365
  142MOL0     C19058   7.938   5.362   9.734  0.7644 -0.7385 -0.2528
  142MOL0     O19059   7.956   5.481   9.662  0.0492 -0.0610  0.5107
  142MOL0     C19060   8.026   5.591   9.718  0.2070 -0.3002  1.2448
  142MOL0     C19061   8.046   5.704   9.635 -0.3122  0.3159 -0.7895
  142MOL0     C19062   8.123   5.810   9.686 -0.8154 -0.3292  0.3944
  142MOL0     C19063   8.183   5.810   9.819 -0.7228  0.6698 -0.9201
  142MOL0     C19064   8.275   5.921   9.868 -0.5354  0.5478  1.3434
  142MOL0     O19065   8.357   5.914   9.981  0.8943 -0.4036 -0.1703
  142MOL0     C19066   8.475   5.980   9.993  0.6502  1.0289  0.0671
  142MOL0     C19067   8.521   6.000  10.122 -1.3325 -0.2755 -0.5763
  142MOL0     C19068   8.639   6.081  10.151 -0.0704 -0.9339  0.0685
  142MOL0     C19069   8.723   6.120  10.043 -0.6430  0.1717  0.4569
  142MOL0     O19070   8.835   6.193  10.069 -0.6950  1.0742 -0.4318
  142MOL0     C19071   8.938   6.123  10.139 -0.3972  0.3130  0.0683
  142MOL0     C19072   9.005   6.227  10.230  0.4495 -0.2992  0.2374
  142MOL0     C19073   8.923   6.284  10.347  1.1447  1.0106 -0.1802
  142MOL0     C19074   8.842   6.408  10.308  0.8995  0.1866  0.1216
  142MOL0     C19075   8.779   6.485  10.431  0.2769  0.0197 -0.5034
  142MOL0     C19076   8.654   6.414  10.482  0.2588  0.4369  0.3893
  142MOL0     C19077   8.566   6.488  10.570 -0.4406 -0.0196  0.1046
  142MOL0     C19078   8.642   6.538  10.687 -0.1338 -0.1858 -0.5258
  142MOL0    Cl19079   8.726   6.697  10.649 -0.4852  0.1037  0.2465
  142MOL0     C19080   8.681   6.088   9.918 -0.3108  0.0455 -0.2500
  142MOL0     C19081   8.565   6.018   9.882  0.4729 -0.3228 -0.3851
  142MOL0     O19082   8.286   6.006   9.774 -0.1233 -0.3700 -0.2612
  142MOL0     C19083   8.156   5.700   9.901  0.3322 -0.5308 -0.1206
  142MOL0     C19084   8.073   5.595   9.845 -1.5093 -0.9055 -0.6216
  142MOL0     N19085   7.685   5.214   9.989 -0.5669 -0.9018  0.8055
  142MOL0     N19086   7.655   5.324  10.042 -0.0238 -0.8258 -0.1818
  142MOL0     C19087   7.868   6.298   9.489 -0.2342  0.2021 -0.0896
  142MOL0     C19088   7.835   6.365   9.364 -0.0019  1.1779 -0.7139
  142MOL0     C19089   7.674   6.604   9.046 -0.3024 -0.1158 -0.1499
  142MOL0     C19090   7.562   6.546   8.991 -0.3411 -0.5294 -0.2751
  142MOL0     C19091   7.487   6.624   8.898  0.9127 -0.7333 -0.2622
  142MOL0     C19092   7.518   6.754   8.868 -0.0304  0.3157 -0.5553
  142MOL0     O19093   7.417   6.822   8.789  0.1325  0.2401  1.1888
  142MOL0     C19094   7.458   6.947   8.727  0.1750  0.0554 -0.7855
  142MOL0     C19095   7.342   6.993   8.637 -0.8947  0.4275 -0.5173
  142MOL0     C19096   7.302   6.890   8.530  0.0458 -0.2144 -0.6204
  142MOL0     C19097   7.221   6.957   8.415  0.2648  0.7965  0.2511
  142MOL0     C19098   7.090   7.000   8.469 -0.6300  0.2237 -0.1487
  142MOL0     C19099   6.977   7.034   8.498 -0.6950  0.0599  0.2856
  142MOL0     C19100   7.635   6.807   8.922  0.1952 -0.0120  0.0240
  142MOL0     C19101   7.711   6.740   9.013 -0.0669  0.4445 -0.7747
  142MOL0     C19102   7.833   6.808   9.064 -0.6540 -1.0263  0.3653
  142MOL0     H19103   7.690   6.640   9.502  0.2999  0.6546 -0.9521
  142MOL0     H19104   7.745   6.530   9.698  2.2325  2.0075 -0.4183
  142MOL0     H19105   7.811   6.413   9.872 -2.5247  0.7430  0.2897
  142MOL0     H19106   7.721   6.257   9.858 -0.9821  3.8032  0.1513
  142MOL0     H19107   7.879   6.267  10.059 -0.1624  0.0401  0.0255
  142MOL0     H19108   8.006   6.297   9.956 -1.1996 -0.1737 -2.6030
  142MOL0     H19109   8.032   6.068  10.012 -0.9115 -2.9504  1.2917
  142MOL0     H19110   7.967   6.074   9.838 -0.3531  3.0202 -0.4631
  142MOL0     H19111   7.809   6.023  10.090 -0.2247 -2.6733  0.9647
  142MOL0     H19112   7.745   6.041   9.932 -0.2363  1.1290 -0.0890
  142MOL0     H19113   7.868   5.842   9.838 -2.4063  0.7680  0.4663
  142MOL0     H19114   7.959   5.826   9.987 -0.2188  3.3791  2.0702
  142MOL0     H19115   7.740   5.774  10.124  1.4112 -0.3158  0.1480
  142MOL0     H19116   7.659   5.814   9.967  0.7229  1.8525  0.4857
  142MOL0     H19117   7.831   5.575  10.050  2.2649  1.7414 -1.8923
  142MOL0     H19118   7.796   5.618   9.881 -1.1496 -0.3200 -0.2197
  142MOL0     H19119   7.582   5.571  10.090  3.0061 -1.0095  1.4475
  142MOL0     H19120   7.564   5.605   9.915  1.8851 -0.6768 -1.3689
  142MOL0     H19121   7.577   5.402   9.741 -2.8966 -1.7580 -0.2076
  142MOL0     H19122   7.679   5.022   9.781  2.6293  0.1840  3.0918
  142MOL0     H19123   7.651   5.151   9.655  0.2603  1.4789 -0.5677
  142MOL0     H19124   7.898   5.114   9.819 -1.3359 -0.5856  0.5445
  142MOL0     H19125   7.888   5.021   9.674  1.4010 -0.7083  1.6260
  142MOL0     H19126   7.822   5.259   9.565  0.4220  0.3201 -0.7342
  142MOL0     H19127   8.000   5.223   9.585 -0.6347  1.3487 -3.9570
  142MOL0     H19128   8.031   5.341   9.787  0.9477  0.3420 -0.1152
  142MOL0     H19129   7.863   5.378   9.812  1.8454 -0.7428  0.8207
  142MOL0     H19130   8.004   5.707   9.535  0.3690  0.2734 -1.0887
  142MOL0     H19131   8.141   5.893   9.619  0.0506 -4.0751 -4.6854
  142MOL0     H19132   8.469   5.959  10.208  2.2514  0.4671  2.2438
  142MOL0     H19133   8.669   6.118  10.248 -0.9014  0.3364 -0.1303
  142MOL0     H19134   8.883   6.050  10.199 -1.7008  0.5558 -0.7914
  142MOL0     H19135   9.006   6.073  10.069  0.8822 -0.1605  1.5775
  142MOL0     H19136   9.086   6.182  10.288  0.5310 -0.6105 -0.1133
  142MOL0     H19137   9.053   6.309  10.175  2.0000 -0.2724  1.5522
  142MOL0     H19138   8.854   6.204  10.378 -1.4514  3.2961  0.2632
  142MOL0     H19139   8.991   6.309  10.429  2.6931 -0.0140 -1.1045
  142MOL0     H19140   8.764   6.369  10.241 -0.7410  0.7756  1.6249
  142MOL0     H19141   8.908   6.477  10.255  3.1907 -0.8293  1.4960
  142MOL0     H19142   8.761   6.590  10.403  2.3410  0.1887 -1.4077
  142MOL0     H19143   8.856   6.501  10.507 -0.7055 -0.5565  0.6395
  142MOL0     H19144   8.594   6.371  10.402 -0.0110 -1.8727  1.7607
  142MOL0     H19145   8.693   6.322  10.526  1.0357  0.5799  0.0202
  142MOL0     H19146   8.490   6.417  10.604  1.0443 -0.8726  1.8026
  142MOL0     H19147   8.521   6.579  10.529 -0.2293  0.6041  1.2132
  142MOL0     H19148   8.573   6.550  10.771  2.8866 -0.9594  2.3255
  142MOL0     H19149   8.721   6.466  10.713  1.1932  0.6456 -2.0367
  142MOL0     H19150   8.738   6.133   9.837  0.1296  1.6417  0.9066
  142MOL0     H19151   8.531   6.013   9.779 -3.7812 -0.4529  0.8119
  142MOL0     H19152   8.178   5.698  10.007 -1.3571 -3.2757  0.2786
  142MOL0     H19153   8.052   5.517   9.918  0.6638  0.7226  1.9214
  142MOL0     H19154   7.929   6.208   9.488  0.0425  0.3333 -3.2816
  142MOL0     H19155   7.863   6.304   9.279 -3.5842 -1.1134 -0.5004
  142MOL0     H19156   7.536   6.443   9.014  2.2116 -1.1053  0.3215
  142MOL0     H19157   7.394   6.586   8.858  0.9035 -1.6874  0.6527
  142MOL0     H19158   7.552   6.932   8.675  0.0979 -0.5968 -0.7443
  142MOL0     H19159   7.475   7.017   8.810 -0.8831  0.2565 -0.7218
  142MOL0     H19160   7.374   7.087   8.591 -0.9267 -0.9309 -3.5636
  142MOL0     H19161   7.263   7.013   8.711  0.2182  1.2163  0.4951
  142MOL0     H19162   7.246   6.806   8.572  0.5170 -1.0170 -1.5670
  142MOL0     H19163   7.394   6.850   8.486  1.1640  1.0040  0.4722
  142MOL0     H19164   7.277   7.038   8.367 -0.3524  1.9566  1.4441
  142MOL0     H19165   7.193   6.875   8.348 -0.0447  0.6538  0.5533
  142MOL0     H19166   6.883   7.077   8.524 -1.2162 -1.4442  0.9993
  142MOL0     H19167   7.661   6.908   8.892 -1.4686  0.6316  0.6455
  142MOL0     H19168   7.914   6.769   9.003  1.5378  0.8277  1.9194
  142MOL0     H19169   7.835   6.915   9.043  1.0808 -1.2742 -0.9053
  142MOL0     H19170   7.848   6.785   9.170  1.6363  1.8087  0.7898
  143MOL0     O19171  11.388   5.507   2.908  1.0975 -0.5677 -0.8806
  143MOL0     C19172  11.425   5.516   2.791 -0.9173 -0.4878  0.2941
  143MOL0     O19173  11.365   5.587   2.692 -0.0809 -0.4603  0.0099
  143MOL0     C19174  11.243   5.651   2.710 -0.5947  0.6611  0.2380
  143MOL0     C19175  11.154   5.641   2.606 -0.1666  0.6176 -0.5690
  143MOL0     C19176  11.022   5.697   2.612 -0.7959 -0.0230  0.0773
  143MOL0     C19177  10.980   5.767   2.730  0.5850  0.2888 -0.9142
  143MOL0     O19178  10.854   5.820   2.741 -0.0700  0.0357  0.4848
  143MOL0     C19179  10.796   5.819   2.870  0.1418 -0.6227  0.5978
  143MOL0     C19180  10.645   5.829   2.849 -0.5697 -0.9339  0.3603
  143MOL0     C19181  10.569   5.842   2.980  0.5241  1.2519 -0.2526
  143MOL0     C19182  10.592   5.712   3.071  0.6891 -0.4431  0.1382
  143MOL0     C19183  10.524   5.747   3.206  0.7507 -0.0457  0.1799
  143MOL0     C19184  10.373   5.748   3.207 -0.7581 -0.5114  0.0795
  143MOL0     C19185  10.321   5.782   3.345  0.0955  0.1828 -0.3028
  143MOL0     C19186  10.319   5.937   3.361 -0.1066 -0.7218  0.1742
  143MOL0     N19187  10.271   5.969   3.497  0.2795 -0.0595 -0.6580
  143MOL0     C19188  10.351   5.958   3.606 -0.2055  0.7134 -0.2687
  143MOL0     C19189  10.279   6.013   3.709  0.3848 -1.0882 -0.5549
  143MOL0     C19190  10.303   6.053   3.856 -0.4669 -0.0619  0.4175
  143MOL0     C19191  10.282   6.207   3.881 -0.1371 -0.7125  0.0510
  143MOL0     C19192  10.397   6.294   3.819 -0.1176  0.4648 -0.7824
  143MOL0     C19193  10.445   6.426   3.877  0.5716 -0.2968 -0.9085
  143MOL0     O19194  10.351   6.506   3.947 -0.1861  0.0044  0.4757
  143MOL0     C19195  10.237   6.542   3.874  0.3001  0.5278 -0.6069
  143MOL0     C19196  10.121   6.577   3.945  0.5802 -0.0717  0.5200
  143MOL0     C19197   9.995   6.608   3.881 -0.1947 -0.4192 -0.3135
  143MOL0     C19198   9.993   6.613   3.747  0.5020 -1.2067  0.7254
  143MOL0     C19199   9.856   6.644   3.671 -0.3385 -0.0447 -0.8314
  143MOL0     O19200   9.736   6.607   3.741  0.7026  0.3943  0.0723
  143MOL0     C19201   9.626   6.644   3.664  0.7393  0.8065 -1.0142
  143MOL0     C19202   9.540   6.544   3.602  0.5620  0.2550 -1.1834
  143MOL0     C19203   9.412   6.570   3.541  0.0105 -0.5123 -0.1813
  143MOL0     C19204   9.364   6.700   3.535 -1.3012 -0.0324 -0.6292
  143MOL0     O19205   9.241   6.736   3.482 -0.4850 -0.8322 -0.0985
  143MOL0     C19206   9.191   6.872   3.486 -0.5166  0.5552 -1.6799
  143MOL0     C19207   9.066   6.896   3.405  0.7510 -0.5157  0.1007
  143MOL0     C19208   8.946   6.808   3.448 -0.3511  0.4635  0.4983
  143MOL0     C19209   8.813   6.824   3.370  0.3071 -0.2662  0.3054
  143MOL0     C19210   8.734   6.946   3.414 -1.1669  0.4534  0.4311
  143MOL0     C19211   8.713   7.046   3.303  1.3610 -0.3725  0.3824
  143MOL0     C19212   8.605   6.990   3.204 -0.1660 -0.2170 -0.4473
  143MOL0     C19213   8.598   7.073   3.076 -0.1047  1.0791  0.2305
  143MOL0    Cl19214   8.516   6.970   2.942 -0.3090  0.3725 -0.2520
  143MOL0     C19215   9.447   6.795   3.603  0.0429 -0.5123  0.4238
  143MOL0     C19216   9.568   6.769   3.668 -0.3721  0.4649 -0.5594
  143MOL0     O19217   9.862   6.679   3.554 -0.2057  0.2711  0.9112
  143MOL0     C19218  10.115   6.600   3.674  0.7302 -0.7358 -0.5167
  143MOL0     C19219  10.235   6.561   3.735 -0.2415 -0.3802  0.1718
  143MOL0     N19220  10.156   6.055   3.654 -0.6224  1.0168 -0.8506
  143MOL0     N19221  10.145   6.019   3.524 -0.9237 -0.0929  0.2996
  143MOL0     C19222  11.077   5.775   2.835  0.7484  0.0686 -0.4465
  143MOL0     C19223  11.208   5.716   2.829 -0.0506  0.7723  0.5334
  143MOL0     C19224  11.537   5.428   2.757 -1.4183  0.2458 -0.9149
  143MOL0     C19225  11.573   5.315   2.834  0.9412 -0.9840  0.1411
  143MOL0     C19226  11.658   5.214   2.796  1.0205 -0.1555 -0.4633
  143MOL0     C19227  11.724   5.220   2.672  0.3734 -0.0253 -0.3878
  143MOL0     O19228  11.803   5.116   2.624 -0.3193  0.5605  0.1953
  143MOL0     C19229  11.825   4.991   2.691  0.2859  0.0085 -0.5647
  143MOL0     C19230  11.891   4.896   2.595  0.5536 -0.0317 -0.2763
  143MOL0     C19231  11.991   4.800   2.677 -0.1435  0.5130 -0.1133
  143MOL0     C19232  11.910   4.721   2.786 -0.4015  0.6191 -0.2282
  143MOL0     C19233  11.829   4.614   2.721  0.1076  0.5385  0.3681
  143MOL0     C19234  11.742   4.547   2.668  0.0623  0.1499  0.2701
  143MOL0     C19235  11.699   5.335   2.596 -0.2764 -0.1713  0.9958
  143MOL0     C19236  11.609   5.442   2.640 -0.2581  0.6224 -0.6544
  143MOL0     C19237  11.586   5.547   2.532 -0.0880  0.2061 -0.0424
  143MOL0     H19238  11.179   5.597   2.510 -0.5816 -1.8245  0.3743
  143MOL0     H19239  10.956   5.688   2.526 -1.1425  3.4204 -0.1623
  143MOL0     H19240  10.818   5.724   2.921 -0.2254  0.9774  4.0682
  143MOL0     H19241  10.828   5.908   2.925 -0.8026  1.0588 -1.4377
  143MOL0     H19242  10.617   5.740   2.792  0.1118 -0.7878 -0.2284
  143MOL0     H19243  10.623   5.910   2.778  0.2144  0.9243  2.1310
  143MOL0     H19244  10.466   5.872   2.960  0.7383  1.9514 -0.3104
  143MOL0     H19245  10.614   5.931   3.026  0.4959  1.6580 -1.0060
  143MOL0     H19246  10.538   5.625   3.031  0.1289 -1.1155  2.2107
  143MOL0     H19247  10.699   5.695   3.086  0.7406  0.4855  0.8985
  143MOL0     H19248  10.562   5.674   3.278  1.5047  0.3147  0.1621
  143MOL0     H19249  10.552   5.850   3.229 -2.9130  1.3033 -0.7917
  143MOL0     H19250  10.317   5.806   3.133  1.2394  0.8545 -0.4434
  143MOL0     H19251  10.334   5.647   3.196  0.2233 -0.9555  0.5517
  143MOL0     H19252  10.380   5.726   3.418 -2.2889 -1.3475  0.5953
  143MOL0     H19253  10.219   5.747   3.363  1.0773 -1.3147  3.2414
  143MOL0     H19254  10.418   5.972   3.331  0.0647  0.1601  1.6815
  143MOL0     H19255  10.270   5.981   3.274  1.6844  1.6982  0.3036
  143MOL0     H19256  10.453   5.925   3.622 -0.5269  0.4362  1.3786
  143MOL0     H19257  10.232   5.994   3.914  0.1598 -1.4120 -0.1608
  143MOL0     H19258  10.406   6.017   3.863 -0.7209 -0.5998  1.6283
  143MOL0     H19259  10.188   6.241   3.836  1.5025  1.9468 -1.6937
  143MOL0     H19260  10.275   6.224   3.989 -0.5840 -2.1071  0.2567
  143MOL0     H19261  10.373   6.307   3.713  0.9992 -2.4647 -1.4863
  143MOL0     H19262  10.491   6.238   3.814 -0.9104 -0.9756 -0.2178
  143MOL0     H19263  10.501   6.482   3.802  1.5679 -1.8853 -1.4139
  143MOL0     H19264  10.524   6.397   3.947  1.2544  2.8019 -0.2464
  143MOL0     H19265  10.111   6.555   4.051 -0.2547  1.1984  0.7273
  143MOL0     H19266   9.908   6.619   3.944 -2.1775  2.6329 -3.2841
  143MOL0     H19267   9.550   6.437   3.618 -1.6149  0.4284  2.5123
  143MOL0     H19268   9.340   6.498   3.503 -1.3637  1.1757 -0.9321
  143MOL0     H19269   9.164   6.901   3.588  3.2488 -0.6192 -0.1662
  143MOL0     H19270   9.264   6.952   3.465 -2.2006  2.6539 -0.0266
  143MOL0     H19271   9.020   6.991   3.435 -4.0972 -3.0173  1.7406
  143MOL0     H19272   9.088   6.898   3.298  0.9057 -3.5748 -0.0095
  143MOL0     H19273   8.980   6.704   3.439  1.0736  0.7004  2.4317
  143MOL0     H19274   8.921   6.813   3.554 -2.6745 -0.5681  0.0768
  143MOL0     H19275   8.754   6.732   3.379  3.2228 -2.3277 -0.0023
  143MOL0     H19276   8.847   6.833   3.266  1.2317 -1.0737  0.5148
  143MOL0     H19277   8.788   6.995   3.496  1.3443  0.8449 -1.3576
  143MOL0     H19278   8.644   6.914   3.467 -1.1640  0.7632  0.6257
  143MOL0     H19279   8.671   7.141   3.335 -1.4658 -2.0109  1.9725
  143MOL0     H19280   8.805   7.068   3.247  0.1170 -0.5735 -1.8795
  143MOL0     H19281   8.506   6.982   3.248 -0.5672 -1.7558 -1.5190
  143MOL0     H19282   8.631   6.889   3.168 -0.8341 -0.0708 -1.3829
  143MOL0     H19283   8.539   7.162   3.100  1.0133  1.8537  0.1531
  143MOL0     H19284   8.698   7.106   3.047  0.9977 -1.2426  1.1409
  143MOL0     H19285   9.407   6.895   3.615 -2.7759 -1.8294  3.9346
  143MOL0     H19286   9.625   6.837   3.731  1.6179 -1.8674  0.3675
  143MOL0     H19287  10.118   6.629   3.569  1.9407 -2.0514 -0.8631
  143MOL0     H19288  10.326   6.567   3.676 -0.8373 -2.9471 -1.2013
  143MOL0     H19289  11.063   5.817   2.934  4.3418 -1.9914  1.1169
  143MOL0     H19290  11.261   5.715   2.924 -1.6781 -0.1594  1.4666
  143MOL0     H19291  11.514   5.290   2.922 -2.5169 -2.5917 -2.4173
  143MOL0     H19292  11.674   5.135   2.869  1.2366  0.6004  0.3224
  143MOL0     H19293  11.730   4.955   2.731 -1.6416  0.1490 -4.5298
  143MOL0     H19294  11.895   5.005   2.773 -0.4919 -0.8796  0.2823
  143MOL0     H19295  11.954   4.951   2.524 -1.6219 -1.6063 -3.7095
  143MOL0     H19296  11.814   4.842   2.539  1.0470 -3.1437  1.8228
  143MOL0     H19297  12.071   4.853   2.729  0.8118 -2.4198  1.6277
  143MOL0     H19298  12.033   4.730   2.605 -1.5298  0.6319 -1.0809
  143MOL0     H19299  11.972   4.675   2.863 -2.9504  2.4726  3.2227
  143MOL0     H19300  11.844   4.783   2.848  0.5604 -1.0922  2.6786
  143MOL0     H19301  11.657   4.497   2.625  0.7463 -0.6789 -0.1311
  143MOL0     H19302  11.749   5.327   2.500  1.4548  0.3079  1.8120
  143MOL0     H19303  11.592   5.643   2.584  0.0173 -0.8949  2.0789
  143MOL0     H19304  11.673   5.549   2.465  0.2225  3.8032  0.2810
  143MOL0     H19305  11.492   5.518   2.483  0.0629 -0.5982  0.1175
  144MOL0     O19306   6.725   3.884   0.968  0.0203 -0.7573 -0.6024
  144MOL0     C19307   6.772   3.799   1.043  0.3055  0.6961 -0.6018
  144MOL0     O19308   6.694   3.716   1.124 -0.4998 -0.8058  0.3055
  144MOL0     C19309   6.560   3.732   1.120 -0.1742  0.5098 -1.0267
  144MOL0     C19310   6.484   3.635   1.064 -0.1492  0.0660 -0.1119
  144MOL0     C19311   6.344   3.641   1.063 -0.8505  0.2514  0.7428
  144MOL0     C19312   6.277   3.749   1.121  1.5769 -0.3984  0.1921
  144MOL0     O19313   6.136   3.767   1.132 -0.0322  0.7114  0.6299
  144MOL0     C19314   6.057   3.762   1.019  0.4653  0.5854  0.2873
  144MOL0     C19315   5.925   3.807   1.069 -0.0397  0.0461 -0.1002
  144MOL0     C19316   5.927   3.956   1.085 -0.0803  0.3648 -0.5612
  144MOL0     C19317   5.936   4.036   0.955 -0.0559 -0.3965  0.4189
  144MOL0     C19318   5.871   4.172   0.960  0.3942 -0.4506 -0.0702
  144MOL0     C19319   5.934   4.262   1.064  0.8155 -0.8964 -0.3711
  144MOL0     C19320   5.851   4.398   1.063 -0.5553  0.8010 -0.0020
  144MOL0     C19321   5.722   4.386   1.137  0.2119 -0.7418 -0.1929
  144MOL0     N19322   5.670   4.516   1.175  0.3303  0.2543 -0.0947
  144MOL0     C19323   5.594   4.608   1.106  0.1603  0.3841 -0.7710
  144MOL0     C19324   5.559   4.710   1.199  0.6926 -0.5445 -0.4842
  144MOL0     C19325   5.470   4.831   1.178  0.0528 -0.7600 -0.5035
  144MOL0     C19326   5.352   4.822   1.081  0.5800  0.8682  0.6510
  144MOL0     C19327   5.216   4.763   1.144 -0.2326 -0.2144 -0.3132
  144MOL0     C19328   5.232   4.631   1.219  1.1911 -0.6194 -0.0686
  144MOL0     O19329   5.279   4.520   1.151 -0.4648  0.8715  0.1991
  144MOL0     C19330   5.298   4.403   1.231 -0.6215  0.6488  0.1577
  144MOL0     C19331   5.374   4.299   1.176  0.2586  0.0388  0.5200
  144MOL0     C19332   5.388   4.182   1.248  0.6097 -0.5783 -0.1396
  144MOL0     C19333   5.328   4.161   1.378 -0.4986 -0.6702  0.0239
  144MOL0     C19334   5.353   4.032   1.450  0.0839 -0.3788  1.0366
  144MOL0     O19335   5.265   3.994   1.553  0.1872  0.9198  0.6888
  144MOL0     C19336   5.309   3.889   1.621 -0.0388  0.1082 -0.9415
  144MOL0     C19337   5.245   3.763   1.637 -0.1022  0.2469  0.0906
  144MOL0     C19338   5.283   3.661   1.726  0.8876 -0.0419  0.4614
  144MOL0     C19339   5.389   3.691   1.812  0.2884  0.1466 -0.2154
  144MOL0     O19340   5.411   3.594   1.903  0.7919 -0.4832  0.0727
  144MOL0     C19341   5.546   3.550   1.904  0.2680 -0.2725  0.1184
  144MOL0     C19342   5.569   3.428   1.817  0.5980  0.2534  0.1893
  144MOL0     C19343   5.547   3.302   1.905  0.1146  0.3886 -0.2643
  144MOL0     C19344   5.549   3.182   1.810  0.0026  0.0195  0.9432
  144MOL0     C19345   5.535   3.040   1.881  0.1859 -0.3056  0.1023
  144MOL0     C19346   5.533   2.936   1.769 -0.2221  0.6049  0.4505
  144MOL0     C19347   5.641   2.942   1.665  0.6197 -0.8056  0.4927
  144MOL0     C19348   5.777   2.985   1.713  0.1246 -0.3714 -0.3174
  144MOL0    Cl19349   5.901   2.867   1.773 -0.0383  0.5682  0.1476
  144MOL0     C19350   5.443   3.818   1.816 -0.0699  0.5310 -0.3603
  144MOL0     C19351   5.406   3.916   1.722  0.0400 -0.0094 -0.7805
  144MOL0     O19352   5.465   3.984   1.432 -0.7024 -0.5013 -0.5454
  144MOL0     C19353   5.263   4.276   1.434  0.5261  1.3148 -0.5657
  144MOL0     C19354   5.240   4.381   1.357 -0.0697  0.4280  0.4140
  144MOL0     N19355   5.627   4.681   1.314  0.0685 -0.2262 -0.2096
  144MOL0     N19356   5.683   4.562   1.304  0.1984 -0.1985  0.0143
  144MOL0     C19357   6.357   3.844   1.188 -0.2280 -0.0905 -0.4488
  144MOL0     C19358   6.497   3.841   1.187  0.5477  0.6061 -0.8834
  144MOL0     C19359   6.919   3.813   1.087  0.3582  0.3332 -0.0018
  144MOL0     C19360   6.949   3.779   1.225 -0.3025  0.7581 -0.3156
  144MOL0     C19361   7.070   3.789   1.280  0.4066  0.2254 -0.2951
  144MOL0     C19362   7.171   3.849   1.211 -0.2908  0.5144  1.1937
  144MOL0     O19363   7.302   3.860   1.245  0.4460 -0.2002  0.0171
  144MOL0     C19364   7.348   3.787   1.360  0.3989  0.1407  0.5150
  144MOL0     C19365   7.487   3.851   1.399  0.8822 -0.9229  0.4423
  144MOL0     C19366   7.591   3.843   1.286  0.0498  0.4301 -0.6007
  144MOL0     C19367   7.654   3.705   1.261 -0.1365  0.5192 -0.5823
  144MOL0     C19368   7.740   3.698   1.381  0.4233  0.0158  0.5395
  144MOL0     C19369   7.807   3.707   1.480 -0.1476  0.0411  0.9694
  144MOL0     C19370   7.151   3.882   1.080  0.0812 -0.2321 -0.7299
  144MOL0     C19371   7.027   3.872   1.013 -0.3853 -1.1277  0.1816
  144MOL0     C19372   7.028   3.913   0.861 -0.0331  0.4524  0.1154
  144MOL0     H19373   6.532   3.556   1.006  2.9262  2.4004 -0.9705
  144MOL0     H19374   6.292   3.560   1.012 -0.0212  1.2739 -1.8508
  144MOL0     H19375   6.094   3.813   0.930 -1.3313 -0.9707 -1.4354
  144MOL0     H19376   6.052   3.656   0.991  1.1586 -0.4242  3.5521
  144MOL0     H19377   5.900   3.749   1.159 -3.2902  0.3356 -0.7184
  144MOL0     H19378   5.852   3.789   0.990  0.6394 -2.5665 -0.2181
  144MOL0     H19379   6.008   3.979   1.154  0.2202 -1.5651 -0.2207
  144MOL0     H19380   5.829   3.989   1.121  1.2747  2.9905  0.9562
  144MOL0     H19381   6.042   4.057   0.936 -0.1660 -0.4800 -0.3277
  144MOL0     H19382   5.899   3.987   0.864  0.7839  2.5822 -1.6943
  144MOL0     H19383   5.870   4.223   0.863 -1.7357  0.8281  0.5546
  144MOL0     H19384   5.766   4.167   0.990  0.6119  0.4423  0.8884
  144MOL0     H19385   5.929   4.222   1.165 -1.6589  1.7892  0.7383
  144MOL0     H19386   6.036   4.287   1.035 -0.7472  2.6382 -3.9272
  144MOL0     H19387   5.844   4.433   0.960  0.4078  0.5114 -0.1766
  144MOL0     H19388   5.916   4.471   1.113  2.8188 -0.5688 -2.0785
  144MOL0     H19389   5.639   4.333   1.089 -1.6211 -1.0015  3.0261
  144MOL0     H19390   5.738   4.340   1.234 -0.1406 -1.3593 -0.4182
  144MOL0     H19391   5.545   4.611   1.009 -0.5140  0.6835 -0.4301
  144MOL0     H19392   5.435   4.874   1.272  1.9501  0.8851 -0.4908
  144MOL0     H19393   5.540   4.905   1.137 -0.7176  1.0438  1.2674
  144MOL0     H19394   5.326   4.920   1.041  0.9266  0.4271 -0.7293
  144MOL0     H19395   5.374   4.758   0.995 -1.0233 -0.5742  1.2399
  144MOL0     H19396   5.134   4.751   1.073 -0.2550 -3.6066  0.1266
  144MOL0     H19397   5.176   4.831   1.219  0.8990 -0.2863  0.3722
  144MOL0     H19398   5.132   4.605   1.254  0.8730  0.3553 -0.2362
  144MOL0     H19399   5.300   4.663   1.299 -1.9886  0.3530  2.4943
  144MOL0     H19400   5.404   4.306   1.072  2.0826 -1.9224  0.8369
  144MOL0     H19401   5.448   4.099   1.214  2.2534 -0.0024  1.2077
  144MOL0     H19402   5.160   3.740   1.573  1.6481 -2.2282 -1.5508
  144MOL0     H19403   5.211   3.580   1.730 -0.1069  0.7553 -0.7315
  144MOL0     H19404   5.608   3.629   1.859 -1.8698  0.4942 -1.6403
  144MOL0     H19405   5.591   3.523   2.000 -1.3603 -1.9548  0.4685
  144MOL0     H19406   5.498   3.432   1.733 -1.4033  0.4405  1.7945
  144MOL0     H19407   5.674   3.425   1.788  0.1619 -3.4012 -1.6928
  144MOL0     H19408   5.630   3.303   1.976 -0.9273  2.6681  1.0182
  144MOL0     H19409   5.452   3.308   1.958  0.6711  1.7285  0.6342
  144MOL0     H19410   5.635   3.199   1.744 -0.3863  2.3266  0.9568
  144MOL0     H19411   5.464   3.189   1.742  1.1556 -3.3545 -1.1090
  144MOL0     H19412   5.450   3.033   1.950  0.1739  0.6729  0.2007
  144MOL0     H19413   5.627   3.033   1.939  1.7811  4.2832 -1.3653
  144MOL0     H19414   5.548   2.840   1.820  0.6906 -0.5430 -1.8539
  144MOL0     H19415   5.433   2.939   1.726 -0.3011  0.4044  0.6185
  144MOL0     H19416   5.619   3.015   1.587 -0.0126 -0.9205  0.5529
  144MOL0     H19417   5.653   2.844   1.618  0.2986 -1.2291  1.2770
  144MOL0     H19418   5.827   3.016   1.621 -0.2294 -0.4014 -0.5206
  144MOL0     H19419   5.770   3.063   1.790 -0.2185 -2.0942  1.4919
  144MOL0     H19420   5.508   3.838   1.901 -1.5400 -1.8287  1.4649
  144MOL0     H19421   5.432   4.021   1.729 -0.8576  0.1562  0.5859
  144MOL0     H19422   5.231   4.274   1.537  2.1489  2.5210  0.0049
  144MOL0     H19423   5.177   4.455   1.407 -0.8809 -0.9368  1.4799
  144MOL0     H19424   6.311   3.931   1.235  3.6531  0.9506  1.8993
  144MOL0     H19425   6.549   3.922   1.237  0.7643  0.4688 -0.8876
  144MOL0     H19426   6.870   3.739   1.288  1.0347  1.5611  1.9747
  144MOL0     H19427   7.079   3.757   1.383  0.8311  0.5554 -0.2274
  144MOL0     H19428   7.365   3.684   1.330 -1.4787  0.0029 -0.2353
  144MOL0     H19429   7.279   3.786   1.445  2.9484 -1.0890  2.7017
  144MOL0     H19430   7.528   3.803   1.489 -0.4879 -1.3730  0.8443
  144MOL0     H19431   7.458   3.955   1.418  0.7867 -1.1258  1.4920
  144MOL0     H19432   7.663   3.924   1.302  0.4759 -0.5052  3.3346
  144MOL0     H19433   7.527   3.867   1.201 -0.8866  0.2543  0.0430
  144MOL0     H19434   7.588   3.618   1.259 -2.2224  2.0080  0.1704
  144MOL0     H19435   7.720   3.711   1.173 -0.8144  4.2421 -1.0165
  144MOL0     H19436   7.870   3.720   1.565  2.9225 -0.6486 -1.0459
  144MOL0     H19437   7.223   3.932   1.017 -1.0222  3.2281  0.5028
  144MOL0     H19438   7.125   3.959   0.840  1.7577 -3.3551 -0.8058
  144MOL0     H19439   7.020   3.817   0.810  0.8661 -1.0310  2.5710
  144MOL0     H19440   6.933   3.966   0.853 -0.1958  0.5368  2.0677
  145MOL0     O19441  10.073   0.540   8.127 -0.0496 -0.2078 -0.5801
  145MOL0     C19442  10.023   0.553   8.237 -0.0312 -0.1685  0.1988
  145MOL0     O19443  10.009   0.455   8.331  0.2187  0.1525  0.1990
  145MOL0     C19444  10.066   0.331   8.323 -0.5065  0.0172 -0.4216
  145MOL0     C19445   9.995   0.220   8.378  0.7575 -1.0390 -0.7039
  145MOL0     C19446  10.045   0.084   8.365  0.3263 -0.2875 -0.1172
  145MOL0     C19447  10.171   0.059   8.311 -0.2434 -0.7827  0.8322
  145MOL0     O19448  10.232  -0.063   8.307 -0.3182 -0.7105 -0.0449
  145MOL0     C19449  10.379  -0.081   8.296 -0.3325 -0.6076 -0.7954
  145MOL0     C19450  10.408  -0.205   8.214 -0.0963  0.7769 -0.7523
  145MOL0     C19451  10.305  -0.326   8.228 -0.3311 -0.3058 -0.4404
  145MOL0     C19452  10.329  -0.446   8.133  0.1835  0.3751  0.0271
  145MOL0     C19453  10.480  -0.497   8.136  0.4800  0.4451  0.2705
  145MOL0     C19454  10.508  -0.543   8.274 -0.0089  0.5861 -1.2029
  145MOL0     C19455  10.653  -0.586   8.311 -0.3669 -0.2534  0.0022
  145MOL0     C19456  10.700  -0.708   8.239  0.1450  1.0312 -0.6984
  145MOL0     N19457  10.837  -0.748   8.266  0.0062  0.1503  1.3295
  145MOL0     C19458  10.947  -0.668   8.225  0.2899  1.2847  0.2933
  145MOL0     C19459  11.054  -0.752   8.251  0.6928 -0.4600 -0.6987
  145MOL0     C19460  11.194  -0.713   8.239  0.7178  0.3305  0.9605
  145MOL0     C19461  11.254  -0.776   8.110  1.4160  0.1209 -0.7886
  145MOL0     C19462  11.389  -0.718   8.089 -0.3315  0.4261 -0.7563
  145MOL0     C19463  11.467  -0.784   7.965 -0.2588  0.5466 -0.6236
  145MOL0     O19464  11.607  -0.766   7.998 -0.5476 -0.1901  0.0414
  145MOL0     C19465  11.709  -0.836   7.929 -0.3818 -0.3498  0.0968
  145MOL0     C19466  11.842  -0.834   7.967  0.2920  0.5665  0.2217
  145MOL0     C19467  11.937  -0.921   7.912  0.3377 -0.4862  0.7966
  145MOL0     C19468  11.900  -1.012   7.821 -0.0673  0.5247  0.7084
  145MOL0     C19469  11.997  -1.116   7.770  0.3994  0.7024 -0.1518
  145MOL0     O19470  12.126  -1.118   7.818  0.5187 -0.2028 -0.6218
  145MOL0     C19471  12.215  -1.196   7.758  1.3366  0.1988 -0.6202
  145MOL0     C19472  12.210  -1.337   7.769 -0.3215  0.4505 -0.0612
  145MOL0     C19473  12.321  -1.412   7.728 -0.2126  0.5861  0.3057
  145MOL0     C19474  12.435  -1.352   7.684 -0.0573  0.3891  0.1533
  145MOL0     O19475  12.554  -1.413   7.654  0.0203 -0.1027  0.5118
  145MOL0     C19476  12.564  -1.558   7.639  0.0078 -0.7964 -0.1463
  145MOL0     C19477  12.665  -1.585   7.531  0.0269  0.3571  0.5385
  145MOL0     C19478  12.709  -1.732   7.522 -0.1708 -0.2426 -0.0180
  145MOL0     C19479  12.608  -1.825   7.453 -0.3675  0.2315  0.1217
  145MOL0     C19480  12.647  -1.980   7.425  1.0207 -0.7772 -0.1556
  145MOL0     C19481  12.773  -1.999   7.348  0.2032  0.4124  0.6042
  145MOL0     C19482  12.796  -2.149   7.302  0.2808 -0.3854  0.1034
  145MOL0     C19483  12.933  -2.156   7.238  0.4246  0.3240 -0.2872
  145MOL0    Cl19484  12.980  -2.325   7.250  0.1788 -0.5783 -0.1553
  145MOL0     C19485  12.429  -1.214   7.644  0.4380  0.1765  0.2539
  145MOL0     C19486  12.321  -1.139   7.683 -0.3341  0.0945  0.1997
  145MOL0     O19487  11.951  -1.188   7.680 -0.0521 -0.0479 -0.8498
  145MOL0     C19488  11.771  -1.006   7.773  0.1673 -0.4546 -0.7385
  145MOL0     C19489  11.675  -0.920   7.824  0.0753  0.1551 -0.0503
  145MOL0     N19490  11.008  -0.877   8.295 -0.3334 -0.0363 -0.0536
  145MOL0     N19491  10.873  -0.875   8.301  0.3645  0.0139  0.3604
  145MOL0     C19492  10.229   0.168   8.255  0.7955 -0.7254  0.0596
  145MOL0     C19493  10.187   0.298   8.263  0.2680 -0.2347  0.1496
  145MOL0     C19494   9.984   0.691   8.274  0.5222 -0.5281  0.5872
  145MOL0     C19495   9.971   0.723   8.403 -0.6695  0.7520  0.9017
  145MOL0     C19496   9.956   0.847   8.457  0.9312 -1.0662  0.0752
  145MOL0     C19497   9.957   0.954   8.373 -0.6366 -0.0534 -0.6160
  145MOL0     O19498   9.948   1.091   8.415 -0.7491  0.0595  0.2641
  145MOL0     C19499   9.921   1.126   8.554 -0.2504  1.1324  0.7581
  145MOL0     C19500  10.040   1.096   8.638  0.3901 -0.6051 -0.6891
  145MOL0     C19501  10.050   1.199   8.753 -0.0400 -0.4521 -0.7910
  145MOL0     C19502   9.940   1.154   8.848  0.2384  0.7493 -0.7670
  145MOL0     C19503   9.987   1.057   8.949  0.0144  0.0889  0.1660
  145MOL0     C19504  10.004   0.967   9.027  0.6985  0.0554  0.1083
  145MOL0     C19505   9.970   0.932   8.241  0.3651  0.0310  0.8147
  145MOL0     C19506   9.978   0.801   8.187  0.0638 -1.2296  0.6104
  145MOL0     C19507   9.999   0.800   8.037 -0.2333  0.1061  0.7134
  145MOL0     H19508   9.908   0.252   8.436  1.8501  0.5608  0.1348
  145MOL0     H19509   9.993   0.001   8.413 -1.4993 -0.5093 -2.3236
  145MOL0     H19510  10.431   0.007   8.258  0.4189  1.7741  4.7414
  145MOL0     H19511  10.411  -0.085   8.401  1.9599 -0.1592 -1.4379
  145MOL0     H19512  10.506  -0.241   8.244  0.1999  0.3997 -2.0812
  145MOL0     H19513  10.412  -0.168   8.111  1.6349  1.0126 -0.6312
  145MOL0     H19514  10.200  -0.299   8.211 -0.5419  0.3508  1.6456
  145MOL0     H19515  10.296  -0.339   8.336 -1.4080 -0.2406 -0.5149
  145MOL0     H19516  10.266  -0.531   8.162 -0.2030 -0.4894 -3.0502
  145MOL0     H19517  10.311  -0.424   8.028  1.3111 -0.0931 -0.2770
  145MOL0     H19518  10.496  -0.581   8.068  0.9329 -0.4638  1.4685
  145MOL0     H19519  10.547  -0.417   8.104 -0.2594  2.3858  3.1538
  145MOL0     H19520  10.491  -0.454   8.335 -1.6550  0.6345 -1.6895
  145MOL0     H19521  10.438  -0.625   8.293 -1.8704  1.9154 -1.9450
  145MOL0     H19522  10.649  -0.608   8.418 -1.3344 -1.3976 -0.2502
  145MOL0     H19523  10.723  -0.506   8.288 -0.8846  0.1634 -0.1300
  145MOL0     H19524  10.628  -0.785   8.268 -2.7454  4.1538  1.0281
  145MOL0     H19525  10.697  -0.687   8.132  3.4665  2.3049 -0.6751
  145MOL0     H19526  10.953  -0.565   8.191 -0.7456  2.8093  4.1400
  145MOL0     H19527  11.202  -0.604   8.238 -2.0088  0.6088 -0.3163
  145MOL0     H19528  11.253  -0.750   8.323  1.9161 -0.9089 -0.3744
  145MOL0     H19529  11.270  -0.883   8.124  1.6651 -0.0179 -2.0076
  145MOL0     H19530  11.178  -0.762   8.033 -0.6070  0.7690  1.2073
  145MOL0     H19531  11.447  -0.736   8.180 -1.5797 -2.9647 -0.4781
  145MOL0     H19532  11.375  -0.612   8.068 -2.5939  0.0233 -1.5342
  145MOL0     H19533  11.440  -0.736   7.870  0.0443  1.6279 -0.1866
  145MOL0     H19534  11.453  -0.892   7.963  1.7360 -0.0855  4.4447
  145MOL0     H19535  11.865  -0.765   8.048  2.5198  1.8703 -1.4245
  145MOL0     H19536  12.037  -0.913   7.954  1.1184  0.6236 -1.1740
  145MOL0     H19537  12.130  -1.385   7.825 -0.1466 -2.8243 -2.3170
  145MOL0     H19538  12.327  -1.516   7.759  0.4068  0.6922  0.5606
  145MOL0     H19539  12.592  -1.601   7.736 -1.3852 -1.8435 -0.1755
  145MOL0     H19540  12.468  -1.601   7.610 -0.0698  1.4959 -3.9505
  145MOL0     H19541  12.644  -1.546   7.431 -0.0740 -1.4524 -0.1930
  145MOL0     H19542  12.755  -1.528   7.554 -0.7116  0.9203  2.1929
  145MOL0     H19543  12.793  -1.733   7.452 -0.8042  0.3670 -0.8016
  145MOL0     H19544  12.745  -1.773   7.617  1.5660 -0.7852 -0.8595
  145MOL0     H19545  12.575  -1.778   7.359  1.4102 -0.3057 -0.8117
  145MOL0     H19546  12.519  -1.825   7.517 -0.7554 -2.3716 -0.2826
  145MOL0     H19547  12.579  -2.034   7.358  2.2917 -1.3017 -1.0523
  145MOL0     H19548  12.651  -2.026   7.524 -3.1513 -0.4071  0.3894
  145MOL0     H19549  12.754  -1.942   7.257  1.2607 -0.8074 -0.4172
  145MOL0     H19550  12.857  -1.968   7.412  1.4647 -0.1575 -0.7121
  145MOL0     H19551  12.717  -2.186   7.236 -1.1244  3.4455 -0.5814
  145MOL0     H19552  12.791  -2.210   7.393 -1.0782  1.3082  1.2380
  145MOL0     H19553  12.924  -2.112   7.138 -3.1823 -0.7703 -0.5949
  145MOL0     H19554  13.004  -2.087   7.285  1.1123 -0.5708 -0.0002
  145MOL0     H19555  12.514  -1.160   7.605 -1.1278  1.6800 -1.2086
  145MOL0     H19556  12.335  -1.032   7.691 -0.3579  0.0190  1.4130
  145MOL0     H19557  11.734  -1.073   7.697  0.4794  1.2934 -2.5022
  145MOL0     H19558  11.578  -0.913   7.774  1.4379  0.5205 -2.8178
  145MOL0     H19559  10.309   0.150   8.184 -2.2528 -4.9754 -2.7973
  145MOL0     H19560  10.244   0.364   8.198 -0.8257  0.5116 -0.0854
  145MOL0     H19561   9.971   0.650   8.484  4.4691  1.1950  1.6241
  145MOL0     H19562   9.941   0.855   8.564 -0.3340  1.0824 -0.2036
  145MOL0     H19563   9.833   1.077   8.598 -0.7467 -0.4478 -1.7950
  145MOL0     H19564   9.902   1.234   8.551  0.3417  1.2859  1.9385
  145MOL0     H19565  10.132   1.114   8.581  0.5915  3.0320  0.4983
  145MOL0     H19566  10.042   0.993   8.674 -2.0489 -0.6990 -0.6872
  145MOL0     H19567  10.035   1.301   8.718 -1.5618  0.3318  1.8135
  145MOL0     H19568  10.146   1.188   8.806  0.0354  1.0167 -0.5955
  145MOL0     H19569   9.905   1.242   8.902  0.7937  0.1452  0.6388
  145MOL0     H19570   9.851   1.102   8.812  0.3045 -0.2896  0.4978
  145MOL0     H19571  10.010   0.887   9.098 -1.0136  0.1502  0.4082
  145MOL0     H19572   9.977   1.016   8.171  1.2099 -1.1713 -0.6038
  145MOL0     H19573   9.920   0.736   7.996  0.5624  0.4444 -1.4760
  145MOL0     H19574   9.985   0.901   7.997  0.7816  0.4941  1.3137
  145MOL0     H19575  10.094   0.762   7.998  0.4545  1.1822  1.2985
  146MOL0     O19576   1.345   8.665   2.051 -0.7047  0.5571  0.7713
  146MOL0     C19577   1.401   8.624   2.148 -0.1727 -1.3567 -0.0839
  146MOL0     O19578   1.412   8.697   2.261 -0.0316  0.2279  0.5446
  146MOL0     C19579   1.436   8.832   2.242 -0.6091 -0.0218 -0.6969
  146MOL0     C19580   1.560   8.876   2.203 -0.8301  0.7807 -0.3242
  146MOL0     C19581   1.603   9.008   2.220 -0.1117  0.0894  0.5917
  146MOL0     C19582   1.516   9.103   2.261  0.0921  0.4736  0.7011
  146MOL0     O19583   1.557   9.225   2.291  0.6855 -0.4321  0.3469
  146MOL0     C19584   1.661   9.278   2.200  0.1548  1.2470 -0.0539
  146MOL0     C19585   1.640   9.428   2.183 -0.4737 -0.1864  0.1250
  146MOL0     C19586   1.751   9.487   2.098  0.8550 -1.2199  0.8504
  146MOL0     C19587   1.712   9.526   1.952 -0.4140  0.2291  0.2341
  146MOL0     C19588   1.836   9.531   1.870  0.8870  0.3394  0.1549
  146MOL0     C19589   1.785   9.567   1.722  0.3033 -0.2867 -0.8083
  146MOL0     C19590   1.902   9.612   1.618 -0.3967  0.7626 -0.4395
  146MOL0     C19591   1.984   9.482   1.576  0.3035 -0.0702 -0.2577
  146MOL0     N19592   2.101   9.514   1.489 -0.7748 -0.4831 -0.9288
  146MOL0     C19593   2.118   9.462   1.370 -0.8846 -0.2523 -0.3504
  146MOL0     C19594   2.211   9.530   1.306  0.5751  0.0145  0.1122
  146MOL0     C19595   2.282   9.512   1.174 -0.9847  0.2150 -0.3878
  146MOL0     C19596   2.358   9.644   1.114  0.1569  0.6035 -0.0548
  146MOL0     C19597   2.434   9.617   0.987 -0.5447 -0.3943  0.0999
  146MOL0     C19598   2.503   9.746   0.941 -0.0567 -0.0794  0.2008
  146MOL0     O19599   2.400   9.843   0.925 -1.0284 -0.6470  0.3193
  146MOL0     C19600   2.440   9.956   0.859 -0.3106 -0.1939  0.3161
  146MOL0     C19601   2.571   9.998   0.839 -0.7469 -0.3296 -0.2795
  146MOL0     C19602   2.601  10.130   0.789 -0.1243  0.1584 -0.1812
  146MOL0     C19603   2.498  10.218   0.750  0.6983 -0.8082  0.6000
  146MOL0     C19604   2.523  10.354   0.684 -0.4301  0.1716 -0.4877
  146MOL0     O19605   2.655  10.385   0.688  0.0350 -0.3661 -0.0971
  146MOL0     C19606   2.717  10.489   0.614 -0.7731  1.0163 -0.3578
  146MOL0     C19607   2.851  10.515   0.645  0.9305  0.1025  0.2748
  146MOL0     C19608   2.916  10.612   0.571 -0.2963 -0.2044  0.1256
  146MOL0     C19609   2.850  10.701   0.483  1.0132 -0.6569  0.5427
  146MOL0     O19610   2.933  10.790   0.420  0.4852  0.4190  0.3909
  146MOL0     C19611   2.912  10.826   0.278 -1.0070  0.3607 -0.9870
  146MOL0     C19612   2.966  10.722   0.188  0.0787  0.1506  0.2862
  146MOL0     C19613   2.960  10.769   0.043  0.2655  0.1389  0.3225
  146MOL0     C19614   3.048  10.681  -0.043  0.3101  0.1282 -0.0057
  146MOL0     C19615   3.000  10.538  -0.046  0.9252  1.1945  0.2365
  146MOL0     C19616   3.034  10.471  -0.179 -0.2624 -0.4218  1.2175
  146MOL0     C19617   3.003  10.319  -0.163  0.4572 -0.1037  0.6877
  146MOL0     C19618   3.042  10.249  -0.299  0.2500 -1.1774 -0.5325
  146MOL0    Cl19619   3.216  10.238  -0.301 -0.0252  0.5015  0.1760
  146MOL0     C19620   2.713  10.688   0.460 -0.1081  0.9559  0.3915
  146MOL0     C19621   2.651  10.577   0.518  0.1488  0.2946  0.6779
  146MOL0     O19622   2.432  10.421   0.638 -0.2784  0.1564  0.1577
  146MOL0     C19623   2.365  10.174   0.780 -0.2344 -0.1512 -0.1766
  146MOL0     C19624   2.338  10.046   0.831 -0.3873 -0.2248  0.1786
  146MOL0     N19625   2.236   9.631   1.398 -0.9424  0.5049  0.3172
  146MOL0     N19626   2.180   9.623   1.512  0.2359  0.2503 -0.2241
  146MOL0     C19627   1.389   9.057   2.310  0.0496  0.4253 -0.2830
  146MOL0     C19628   1.349   8.925   2.295  0.1023 -0.5690  0.2326
  146MOL0     C19629   1.461   8.483   2.156 -0.7522 -0.6741  0.6198
  146MOL0     C19630   1.525   8.446   2.279 -0.2558  0.0768  0.5447
  146MOL0     C19631   1.582   8.316   2.291  1.0387 -0.4254  0.4336
  146MOL0     C19632   1.566   8.226   2.190 -0.2953 -0.1294  0.0763
  146MOL0     O19633   1.622   8.094   2.188  0.5428 -0.1980 -0.5949
  146MOL0     C19634   1.670   8.031   2.308  0.5825 -0.1626 -0.2806
  146MOL0     C19635   1.618   7.892   2.322  1.1044 -0.1211  0.5282
  146MOL0     C19636   1.706   7.796   2.254  0.0055  0.6744  0.1211
  146MOL0     C19637   1.655   7.655   2.268 -0.2446 -0.0581  0.6638
  146MOL0     C19638   1.697   7.594   2.397 -0.2733 -1.2593 -0.8848
  146MOL0     C19639   1.740   7.546   2.500  0.3285 -0.2461 -0.5147
  146MOL0     C19640   1.512   8.257   2.067 -0.4773 -1.2714  0.4315
  146MOL0     C19641   1.461   8.386   2.048 -0.2744 -0.4266  0.2372
  146MOL0     C19642   1.409   8.422   1.914 -0.7592  0.2411  0.6771
  146MOL0     H19643   1.629   8.800   2.169  0.7446  0.6217  2.8554
  146MOL0     H19644   1.708   9.025   2.197 -0.4726 -1.2210 -2.6540
  146MOL0     H19645   1.759   9.242   2.234 -1.7172 -2.7210  1.8542
  146MOL0     H19646   1.646   9.241   2.098 -2.8962  3.1762 -0.4200
  146MOL0     H19647   1.638   9.472   2.282 -0.0060  1.3297 -0.5137
  146MOL0     H19648   1.544   9.453   2.138  0.5363  4.0560 -0.1035
  146MOL0     H19649   1.844   9.430   2.106 -0.1065 -2.6956  1.9498
  146MOL0     H19650   1.782   9.580   2.147 -2.0530  0.0798  0.4382
  146MOL0     H19651   1.637   9.456   1.915  0.0076 -0.7987  1.2587
  146MOL0     H19652   1.663   9.623   1.964 -0.5617  0.3739 -1.3434
  146MOL0     H19653   1.917   9.595   1.905  1.5858 -1.0639  1.1999
  146MOL0     H19654   1.888   9.435   1.870  2.1061  0.9634  1.3218
  146MOL0     H19655   1.727   9.482   1.684  0.7930 -1.7494  1.5453
  146MOL0     H19656   1.732   9.663   1.729 -0.5729 -0.6266 -2.2484
  146MOL0     H19657   1.976   9.683   1.657  1.9490 -0.2908 -2.6917
  146MOL0     H19658   1.862   9.675   1.537 -3.0075 -0.4082 -0.1608
  146MOL0     H19659   2.012   9.438   1.672  0.2901  1.3241  0.4111
  146MOL0     H19660   1.913   9.418   1.522  0.3549  2.6781 -3.9633
  146MOL0     H19661   2.079   9.374   1.320 -2.3684  0.2551 -0.1521
  146MOL0     H19662   2.357   9.432   1.177 -0.3567  0.8205  0.4065
  146MOL0     H19663   2.205   9.479   1.103 -0.9336 -1.4375  0.2730
  146MOL0     H19664   2.284   9.724   1.101 -0.4505 -0.1940 -1.7608
  146MOL0     H19665   2.435   9.666   1.189  1.4108 -1.9972 -0.4450
  146MOL0     H19666   2.375   9.578   0.903  1.1181  1.3599 -2.0303
  146MOL0     H19667   2.503   9.536   1.010 -1.9502 -1.2904  1.3077
  146MOL0     H19668   2.553   9.732   0.844 -1.5103  1.6212 -0.8434
  146MOL0     H19669   2.578   9.776   1.015 -2.0355  0.7240  1.9510
  146MOL0     H19670   2.656   9.934   0.860 -0.3611 -0.7732 -2.7854
  146MOL0     H19671   2.703  10.160   0.770  0.3970 -0.8066  0.9699
  146MOL0     H19672   2.906  10.462   0.722 -1.7248  0.8280  2.8722
  146MOL0     H19673   3.018  10.641   0.596 -0.3103 -1.1016  1.3125
  146MOL0     H19674   2.810  10.851   0.250 -0.4667  2.8100 -0.9878
  146MOL0     H19675   2.975  10.912   0.254  0.3205 -0.4840 -0.6839
  146MOL0     H19676   3.069  10.710   0.222 -0.0713 -1.3024  0.2850
  146MOL0     H19677   2.923  10.621   0.197  0.9424 -0.3385 -0.8714
  146MOL0     H19678   2.857  10.759   0.008  0.8680 -2.6687 -1.0272
  146MOL0     H19679   2.995  10.871   0.027 -0.0871  0.3025  0.6015
  146MOL0     H19680   3.154  10.683  -0.017  0.5816  0.0717 -1.0637
  146MOL0     H19681   3.049  10.712  -0.148  1.3852  0.4947  0.1003
  146MOL0     H19682   2.895  10.521  -0.022  0.3085  0.7329 -2.5360
  146MOL0     H19683   3.054  10.482   0.031 -1.7399  0.7240  1.8816
  146MOL0     H19684   2.977  10.515  -0.262  1.8234 -1.5191 -0.9007
  146MOL0     H19685   3.141  10.491  -0.191 -0.8891  1.6048 -3.1629
  146MOL0     H19686   2.899  10.302  -0.135 -0.0875 -0.5272 -1.3814
  146MOL0     H19687   3.067  10.269  -0.091  3.3348  0.8217 -1.0481
  146MOL0     H19688   2.999  10.148  -0.306 -0.1165 -0.9732 -1.3091
  146MOL0     H19689   3.018  10.303  -0.391  1.3582  0.7055  0.2427
  146MOL0     H19690   2.663  10.759   0.395  1.0590  1.8000  0.3985
  146MOL0     H19691   2.551  10.553   0.483  0.7213 -0.5729 -0.4049
  146MOL0     H19692   2.282  10.240   0.756 -1.3569 -0.8630  1.4591
  146MOL0     H19693   2.234  10.020   0.849  0.4684 -2.9967  1.7206
  146MOL0     H19694   1.329   9.141   2.345  0.6806 -0.0368  2.0918
  146MOL0     H19695   1.253   8.891   2.333 -0.1227 -0.7689 -0.4818
  146MOL0     H19696   1.535   8.520   2.358 -2.7837  3.9625 -2.4015
  146MOL0     H19697   1.620   8.284   2.388  0.5186 -1.3050  0.3631
  146MOL0     H19698   1.624   8.086   2.391 -0.8642  1.8469 -2.3067
  146MOL0     H19699   1.779   8.043   2.312  0.5649  0.4983 -1.4890
  146MOL0     H19700   1.512   7.888   2.294  0.7384 -1.4373  2.0131
  146MOL0     H19701   1.618   7.878   2.430 -1.6321  3.8748  1.2785
  146MOL0     H19702   1.806   7.804   2.296  0.5450 -1.1554 -0.7047
  146MOL0     H19703   1.712   7.815   2.146 -1.6294 -0.7893 -0.2754
  146MOL0     H19704   1.546   7.656   2.256 -0.1883 -0.5422  0.0735
  146MOL0     H19705   1.695   7.599   2.183  0.8055  0.6748  0.6559
  146MOL0     H19706   1.773   7.512   2.596  2.9820  1.1614 -0.8443
  146MOL0     H19707   1.496   8.186   1.986 -0.8303 -2.1803  1.2743
  146MOL0     H19708   1.425   8.348   1.835 -0.8568 -1.8417  2.4930
  146MOL0     H19709   1.302   8.446   1.915 -1.1709 -1.2626 -1.2485
  146MOL0     H19710   1.470   8.506   1.881  1.9013 -1.4017  1.0569
  147MOL0     O19711   0.356   1.540  11.008  0.0357 -0.5252 -1.1773
  147MOL0     C19712   0.257   1.487  11.073 -0.3532  0.1005  0.5729
  147MOL0     O19713   0.148   1.438  11.016  0.4275  0.6575  0.4247
  147MOL0     C19714   0.118   1.440  10.879 -0.4422 -0.4997  0.3044
  147MOL0     C19715   0.182   1.528  10.782  0.1095 -0.2067 -0.5702
  147MOL0     C19716   0.171   1.511  10.652 -0.0358 -1.4821  0.3473
  147MOL0     C19717   0.080   1.417  10.602  0.4042 -0.1069  0.3058
  147MOL0     O19718   0.063   1.366  10.474  0.9180  1.0013 -0.1954
  147MOL0     C19719   0.095   1.443  10.368  0.1859  0.3637  0.3178
  147MOL0     C19720   0.245   1.424  10.326 -0.4415  0.2566  0.2437
  147MOL0     C19721   0.279   1.283  10.280  0.1936  0.5888 -0.2811
  147MOL0     C19722   0.419   1.274  10.208 -0.6595  0.7064  0.1106
  147MOL0     C19723   0.423   1.129  10.163 -0.0734 -0.0843 -0.1018
  147MOL0     C19724   0.563   1.103  10.107  0.6211 -1.2485 -0.0926
  147MOL0     C19725   0.584   0.959  10.067 -0.3715  0.5220 -0.2588
  147MOL0     C19726   0.719   0.933   9.995 -0.1924 -0.4735 -1.0323
  147MOL0     N19727   0.719   0.988   9.858  0.3982  0.0993 -0.4040
  147MOL0     C19728   0.745   1.117   9.829  0.3486  0.0604  0.4698
  147MOL0     C19729   0.720   1.129   9.695  0.0978 -0.4036 -0.3071
  147MOL0     C19730   0.730   1.248   9.603 -0.8336 -0.1640  0.0821
  147MOL0     C19731   0.589   1.302   9.567  0.2606 -0.1197 -0.1578
  147MOL0     C19732   0.526   1.224   9.446 -1.1571  0.3977 -0.9996
  147MOL0     C19733   0.591   1.263   9.318  0.2647  0.7311 -0.3921
  147MOL0     O19734   0.581   1.392   9.269 -0.0528 -0.6952  0.4571
  147MOL0     C19735   0.698   1.450   9.223  0.2878 -1.0481 -0.5255
  147MOL0     C19736   0.800   1.502   9.305  0.9066  0.2204 -0.1689
  147MOL0     C19737   0.907   1.573   9.251  0.1403 -0.1287  0.5198
  147MOL0     C19738   0.912   1.603   9.116 -0.7140  0.7070  0.8882
  147MOL0     C19739   1.024   1.679   9.057 -0.6222  0.3613  1.0719
  147MOL0     O19740   1.111   1.727   9.145  0.4370 -0.0711  0.3156
  147MOL0     C19741   1.226   1.800   9.129  0.8639  0.4637  0.0161
  147MOL0     C19742   1.282   1.835   9.250 -0.8809  0.7332 -0.0462
  147MOL0     C19743   1.403   1.915   9.245  0.0653  1.3210  0.0405
  147MOL0     C19744   1.471   1.952   9.133  1.2746  0.5348  0.3148
  147MOL0     O19745   1.595   2.008   9.129 -0.4291  0.6999  0.3449
  147MOL0     C19746   1.666   2.067   9.241 -0.7320  0.1717  0.6052
  147MOL0     C19747   1.810   2.111   9.201  0.0452  0.6273 -0.1367
  147MOL0     C19748   1.802   2.246   9.130  0.0681 -0.8046  0.0387
  147MOL0     C19749   1.795   2.368   9.228 -0.1363 -0.1091  0.3147
  147MOL0     C19750   1.833   2.508   9.186  0.0353 -0.0132  0.2435
  147MOL0     C19751   1.769   2.612   9.289  0.8848 -0.3105  0.5637
  147MOL0     C19752   1.826   2.582   9.432  0.5667  0.2028  0.3352
  147MOL0     C19753   1.819   2.708   9.518  0.7192  0.7021 -0.2253
  147MOL0    Cl19754   1.646   2.741   9.573  0.3372 -0.4425  0.3334
  147MOL0     C19755   1.407   1.914   9.017 -0.2838 -0.5934  1.1001
  147MOL0     C19756   1.283   1.841   9.014  0.7094 -0.3791  0.3378
  147MOL0     O19757   1.027   1.689   8.928 -0.0805 -0.7175  0.1502
  147MOL0     C19758   0.801   1.559   9.029 -0.7195  0.3035 -0.7106
  147MOL0     C19759   0.701   1.485   9.081  0.2818 -0.0200 -0.5257
  147MOL0     N19760   0.695   1.000   9.639 -0.1068 -0.1857 -0.1616
  147MOL0     N19761   0.705   0.912   9.739  0.7699  0.0435 -0.6639
  147MOL0     C19762  -0.005   1.343  10.689  0.1536  0.1961 -0.3179
  147MOL0     C19763   0.030   1.349  10.826  0.4985 -0.0565 -0.4420
  147MOL0     C19764   0.263   1.499  11.222  0.5724 -0.0029 -0.3052
  147MOL0     C19765   0.389   1.524  11.277  0.3021 -0.6619 -0.2473
  147MOL0     C19766   0.420   1.520  11.412 -0.0168 -1.1700  0.2939
  147MOL0     C19767   0.319   1.493  11.500 -0.7763 -0.2752  0.6469
  147MOL0     O19768   0.355   1.497  11.636  0.1385  0.3396  0.2663
  147MOL0     C19769   0.259   1.538  11.735 -1.0813 -0.2010  0.1873
  147MOL0     C19770   0.210   1.401  11.789  0.2384  0.3479  0.6523
  147MOL0     C19771   0.318   1.323  11.870  0.1382  0.7994  0.5095
  147MOL0     C19772   0.317   1.364  12.024 -0.1249  0.9456  0.0795
  147MOL0     C19773   0.194   1.331  12.092 -0.6450 -0.1518  0.4888
  147MOL0     C19774   0.093   1.287  12.131  0.6233  0.7830 -0.3096
  147MOL0     C19775   0.191   1.488  11.447  0.5062 -1.2673  0.1044
  147MOL0     C19776   0.155   1.496  11.309 -0.3908 -0.4178  0.0441
  147MOL0     C19777   0.014   1.491  11.270  0.4366 -0.2160  0.2064
  147MOL0     H19778   0.258   1.602  10.803  1.8732 -1.6182 -1.6860
  147MOL0     H19779   0.231   1.561  10.576  1.3486 -2.7942  0.5335
  147MOL0     H19780   0.033   1.410  10.284 -1.3216 -0.5007  1.7210
  147MOL0     H19781   0.074   1.548  10.391  2.0373  0.7718  0.3529
  147MOL0     H19782   0.311   1.456  10.407  0.0162 -1.0631  0.4152
  147MOL0     H19783   0.263   1.495  10.245 -2.0340  2.0452  1.3750
  147MOL0     H19784   0.209   1.261  10.198  1.8666  0.6483 -1.7667
  147MOL0     H19785   0.269   1.208  10.359  2.3553 -1.6857 -2.0251
  147MOL0     H19786   0.413   1.346  10.126 -1.6857 -1.3436 -1.7325
  147MOL0     H19787   0.500   1.295  10.278  1.1636  0.0961 -1.7468
  147MOL0     H19788   0.405   1.058  10.244  0.1239 -0.6796 -0.5771
  147MOL0     H19789   0.355   1.125  10.078 -0.2107  3.8309 -0.3801
  147MOL0     H19790   0.561   1.170  10.021  0.2066  0.6682  1.3585
  147MOL0     H19791   0.641   1.121  10.181 -1.9246 -2.2952  3.0624
  147MOL0     H19792   0.499   0.913  10.016  0.8382 -2.4719  0.2508
  147MOL0     H19793   0.598   0.888  10.149  2.7066  1.0235 -0.2363
  147MOL0     H19794   0.805   0.968  10.054 -0.1043 -0.7784 -0.9798
  147MOL0     H19795   0.725   0.827   9.972 -0.2050 -0.4733 -1.0362
  147MOL0     H19796   0.775   1.205   9.887  0.9786 -0.0563  0.3335
  147MOL0     H19797   0.788   1.319   9.663 -1.4016 -0.9450  1.6308
  147MOL0     H19798   0.792   1.240   9.514  1.4080  0.5985  1.4857
  147MOL0     H19799   0.527   1.291   9.656  3.5409  1.5949  2.5324
  147MOL0     H19800   0.587   1.406   9.532 -1.4500  0.2428  0.8742
  147MOL0     H19801   0.420   1.251   9.442 -1.5401  0.0310  2.8443
  147MOL0     H19802   0.532   1.117   9.470 -1.4745  1.0686  2.7630
  147MOL0     H19803   0.533   1.205   9.246 -4.0337  4.0620 -0.0055
  147MOL0     H19804   0.694   1.226   9.324 -0.8755 -2.4073  2.1051
  147MOL0     H19805   0.790   1.493   9.413  1.6203 -1.1343 -0.1941
  147MOL0     H19806   0.997   1.586   9.311  1.3209 -1.4734 -0.8752
  147MOL0     H19807   1.243   1.792   9.341 -3.5953 -2.7831 -2.5800
  147MOL0     H19808   1.470   1.941   9.327  1.6403  0.4864 -0.9304
  147MOL0     H19809   1.603   2.147   9.280  0.1796 -0.4352  3.6271
  147MOL0     H19810   1.667   1.994   9.323 -0.5741 -0.0393  0.4175
  147MOL0     H19811   1.867   2.113   9.295 -1.9153  0.9747  1.0889
  147MOL0     H19812   1.843   2.028   9.137  0.2943  2.5721 -2.6440
  147MOL0     H19813   1.885   2.262   9.060  1.4969 -0.2725  1.7625
  147MOL0     H19814   1.718   2.249   9.061  2.2439  1.6797 -2.7832
  147MOL0     H19815   1.857   2.353   9.317 -0.7638  0.9288  0.9500
  147MOL0     H19816   1.688   2.379   9.244  0.2833  3.3542  1.6764
  147MOL0     H19817   1.807   2.544   9.086 -0.2472  3.4648  1.4401
  147MOL0     H19818   1.942   2.517   9.194  0.5090 -2.0692 -2.3795
  147MOL0     H19819   1.801   2.707   9.245 -1.9229 -0.6803 -2.6265
  147MOL0     H19820   1.659   2.613   9.288  0.8371  2.4927 -0.3693
  147MOL0     H19821   1.931   2.552   9.423  0.1572 -0.7450 -2.0576
  147MOL0     H19822   1.765   2.509   9.486 -0.7743  0.0270 -1.3573
  147MOL0     H19823   1.883   2.689   9.605 -2.5056 -0.7546  2.0021
  147MOL0     H19824   1.860   2.785   9.452  0.8805  2.0146  1.3566
  147MOL0     H19825   1.454   1.949   8.925 -2.4918 -0.9172 -0.2121
  147MOL0     H19826   1.232   1.814   8.921  0.1470  0.1581  0.4816
  147MOL0     H19827   0.795   1.564   8.920  0.7578  1.6410 -0.7750
  147MOL0     H19828   0.615   1.438   9.035  0.3338  0.9084 -1.6081
  147MOL0     H19829  -0.057   1.255  10.654  2.1314 -0.0128 -3.0808
  147MOL0     H19830  -0.008   1.274  10.895  2.7947  1.4810  2.7246
  147MOL0     H19831   0.478   1.548  11.220  0.1052  1.1689  0.1405
  147MOL0     H19832   0.519   1.540  11.453  1.2233  3.1094 -3.9043
  147MOL0     H19833   0.176   1.590  11.684 -1.0397 -2.2595 -2.2141
  147MOL0     H19834   0.305   1.600  11.812 -1.5384 -1.7485  1.7824
  147MOL0     H19835   0.177   1.342  11.703 -0.0510 -2.0165  2.2732
  147MOL0     H19836   0.122   1.423  11.850  0.7680  0.6666  1.3133
  147MOL0     H19837   0.419   1.342  11.831  1.0395  0.6018  2.5986
  147MOL0     H19838   0.287   1.218  11.874 -1.5404  1.2735  3.6207
  147MOL0     H19839   0.399   1.299  12.058  0.2154  0.7637 -1.0332
  147MOL0     H19840   0.353   1.467  12.036 -0.7122  1.3212 -1.2161
  147MOL0     H19841   0.005   1.244  12.176  2.3856 -3.4030 -0.4348
  147MOL0     H19842   0.101   1.493  11.508 -1.1680  0.9307 -2.3164
  147MOL0     H19843  -0.047   1.520  11.356  1.1794  2.1140  0.0279
  147MOL0     H19844  -0.015   1.544  11.179 -0.1702 -1.8271 -0.5824
  147MOL0     H19845  -0.016   1.388  11.250  1.8699 -0.1343 -3.0425
  148MOL0     O19846   8.835   4.185   6.779  0.4175 -0.2448 -0.5861
  148MOL0     C19847   8.846   4.285   6.847  0.0337 -0.0676 -0.7277
  148MOL0     O19848   8.746   4.377   6.874 -0.2607  0.0662 -0.2979
  148MOL0     C19849   8.623   4.342   6.835  0.1204  0.4726  0.8621
  148MOL0     C19850   8.546   4.450   6.784  0.3729  1.0488  1.0913
  148MOL0     C19851   8.414   4.448   6.759  0.2442  0.1396 -0.0846
  148MOL0     C19852   8.350   4.317   6.776 -0.3709  0.1165 -0.6469
  148MOL0     O19853   8.222   4.317   6.741  0.6865  1.1640  0.2423
  148MOL0     C19854   8.174   4.198   6.664 -0.2118 -0.2740 -0.5962
  148MOL0     C19855   8.025   4.213   6.645  0.1394 -0.5564 -0.2355
  148MOL0     C19856   7.946   4.192   6.770  0.9315 -0.6857 -0.5734
  148MOL0     C19857   7.795   4.166   6.744  0.0682 -0.2149 -0.3835
  148MOL0     C19858   7.713   4.205   6.863 -0.2398  0.0579 -0.4943
  148MOL0     C19859   7.580   4.141   6.859 -0.3066 -0.0259 -0.1786
  148MOL0     C19860   7.512   4.170   6.991  0.1779 -0.3149  0.1643
  148MOL0     C19861   7.477   4.037   7.070 -0.5787  0.0778  0.0445
  148MOL0     N19862   7.601   3.979   7.116 -0.0803 -0.0591  0.5326
  148MOL0     C19863   7.707   4.047   7.175  0.7600  0.4984 -0.4551
  148MOL0     C19864   7.791   3.943   7.207  0.1645  0.3087 -0.7275
  148MOL0     C19865   7.917   3.966   7.289 -0.0320 -0.4268  0.5077
  148MOL0     C19866   8.041   3.922   7.209 -0.1298 -0.0792 -0.0610
  148MOL0     C19867   8.159   4.013   7.243  0.0932 -0.6126 -0.7491
  148MOL0     C19868   8.279   4.004   7.152 -0.4089  0.6057 -0.7111
  148MOL0     O19869   8.389   4.084   7.210  0.5238  0.2802  0.8463
  148MOL0     C19870   8.512   4.030   7.209 -0.8383  0.0622  0.8230
  148MOL0     C19871   8.549   3.903   7.148  0.3109  0.7778 -0.5044
  148MOL0     C19872   8.679   3.852   7.180 -0.3507  0.4341 -0.1654
  148MOL0     C19873   8.765   3.916   7.266  0.3271 -0.2888  0.0479
  148MOL0     C19874   8.887   3.841   7.303 -1.1746  0.2085 -1.2325
  148MOL0     O19875   8.994   3.920   7.334 -0.3096  0.6161  0.1778
  148MOL0     C19876   9.110   3.878   7.395  0.5880 -0.9166  0.7103
  148MOL0     C19877   9.223   3.945   7.351  0.7952 -0.1248  0.5527
  148MOL0     C19878   9.362   3.906   7.386 -0.0846 -1.0345  0.3523
  148MOL0     C19879   9.383   3.798   7.475  0.1709 -0.0768 -0.4769
  148MOL0     O19880   9.499   3.746   7.520 -0.0783  0.0707  0.4914
  148MOL0     C19881   9.595   3.742   7.425 -0.3289 -0.0445  0.7320
  148MOL0     C19882   9.724   3.686   7.478  0.0646 -0.0191 -0.1017
  148MOL0     C19883   9.836   3.734   7.380 -0.2378 -0.2518 -0.2716
  148MOL0     C19884   9.921   3.609   7.354  0.6888 -0.2125 -0.3815
  148MOL0     C19885  10.048   3.664   7.276 -0.3002 -0.4872 -0.2846
  148MOL0     C19886  10.170   3.721   7.361  0.2490  0.4046 -0.4154
  148MOL0     C19887  10.270   3.801   7.276 -0.4146 -0.3340 -0.8011
  148MOL0     C19888  10.364   3.889   7.355 -0.4118  0.2927 -0.0226
  148MOL0    Cl19889  10.256   4.012   7.439  0.1413  0.2669 -0.0447
  148MOL0     C19890   9.256   3.731   7.506 -0.2961 -1.2399 -0.0705
  148MOL0     C19891   9.127   3.762   7.467 -0.1078 -0.9556 -0.3979
  148MOL0     O19892   8.879   3.718   7.306 -0.3065  0.5356 -0.1387
  148MOL0     C19893   8.737   4.051   7.304  0.4536  0.2788  0.4849
  148MOL0     C19894   8.613   4.101   7.276  0.4761 -0.7767  0.1913
  148MOL0     N19895   7.719   3.822   7.181  0.9452 -0.4700  0.2276
  148MOL0     N19896   7.610   3.846   7.120 -0.2282 -0.0734 -0.6536
  148MOL0     C19897   8.417   4.201   6.831 -0.7307 -0.2494 -0.3689
  148MOL0     C19898   8.553   4.219   6.861 -0.0995 -0.8033 -0.2581
  148MOL0     C19899   8.977   4.299   6.898  0.1364  0.1484 -0.4693
  148MOL0     C19900   9.085   4.300   6.810 -0.4012  0.9734 -0.9701
  148MOL0     C19901   9.212   4.300   6.859  0.0659 -0.1926  0.3005
  148MOL0     C19902   9.247   4.326   6.987 -0.4052  0.3068 -0.0601
  148MOL0     O19903   9.375   4.322   7.018  0.2464  0.2670 -0.9258
  148MOL0     C19904   9.420   4.341   7.156 -0.5102  0.5804  0.4408
  148MOL0     C19905   9.562   4.397   7.157 -0.0131  0.9953 -0.7532
  148MOL0     C19906   9.606   4.458   7.293 -0.3441 -0.1292 -0.1152
  148MOL0     C19907   9.545   4.389   7.418 -0.6438 -0.5903 -0.8556
  148MOL0     C19908   9.560   4.476   7.531 -0.0523  0.3380 -0.1699
  148MOL0     C19909   9.580   4.549   7.623 -0.9383 -0.3992 -0.0771
  148MOL0     C19910   9.135   4.337   7.077  0.9743  0.8710  0.0938
  148MOL0     C19911   9.005   4.316   7.038  1.1662  0.5082 -0.3392
  148MOL0     C19912   8.897   4.316   7.148 -0.3065  0.6071 -0.6769
  148MOL0     H19913   8.612   4.535   6.769  1.7016 -0.2174 -0.6601
  148MOL0     H19914   8.358   4.530   6.718  0.7722  1.3220  1.4550
  148MOL0     H19915   8.225   4.185   6.568  0.8756 -2.7044  0.2210
  148MOL0     H19916   8.199   4.113   6.728  0.4116 -1.8435 -2.7838
  148MOL0     H19917   7.991   4.135   6.577  3.2921 -0.5457 -2.0123
  148MOL0     H19918   8.007   4.302   6.584  0.7332  0.3588  0.8807
  148MOL0     H19919   7.967   4.274   6.839 -2.3299  1.3017 -1.7162
  148MOL0     H19920   7.969   4.100   6.823 -1.5362 -2.3893 -2.2212
  148MOL0     H19921   7.764   4.219   6.654  3.3369 -1.0437 -2.1782
  148MOL0     H19922   7.781   4.058   6.741  0.5776 -0.2936  0.0045
  148MOL0     H19923   7.763   4.170   6.954  0.2114  0.4776 -0.5756
  148MOL0     H19924   7.697   4.312   6.874 -2.4291 -0.2770  0.0214
  148MOL0     H19925   7.518   4.192   6.784  0.4909  0.4807 -0.5075
  148MOL0     H19926   7.577   4.039   6.820  2.0360 -1.2455  2.4853
  148MOL0     H19927   7.425   4.233   6.974  1.1389  0.7201 -1.1911
  148MOL0     H19928   7.569   4.234   7.059  0.5560  0.1944 -0.6169
  148MOL0     H19929   7.408   4.053   7.154 -0.0087 -1.1523  0.7769
  148MOL0     H19930   7.424   3.970   7.003  0.3159  0.4326 -1.0500
  148MOL0     H19931   7.715   4.151   7.204  0.3355 -0.0474  1.7950
  148MOL0     H19932   7.929   4.069   7.325  2.0805 -0.0333 -1.1268
  148MOL0     H19933   7.911   3.900   7.376  2.4782 -1.2184  0.1605
  148MOL0     H19934   8.064   3.820   7.242 -0.3224  0.2309  1.0768
  148MOL0     H19935   8.032   3.930   7.100  0.7120  0.9452 -0.0651
  148MOL0     H19936   8.186   3.997   7.348 -0.8536 -0.2246 -0.4344
  148MOL0     H19937   8.124   4.117   7.237  1.2631 -0.1187  0.3261
  148MOL0     H19938   8.259   4.035   7.049 -0.4806 -0.2432 -0.9543
  148MOL0     H19939   8.297   3.896   7.155 -1.4401  0.4435 -0.0572
  148MOL0     H19940   8.491   3.835   7.087  1.6581 -1.3972  0.4887
  148MOL0     H19941   8.717   3.759   7.140  0.1590  1.7556 -2.9675
  148MOL0     H19942   9.213   4.039   7.299 -1.6317  0.0574  1.2228
  148MOL0     H19943   9.433   3.976   7.343 -0.4478 -2.0411 -2.0687
  148MOL0     H19944   9.557   3.689   7.338  0.3592  1.6049 -0.6333
  148MOL0     H19945   9.608   3.841   7.380  0.7227 -1.1366 -1.5541
  148MOL0     H19946   9.731   3.729   7.578  0.2641 -0.1929 -0.0393
  148MOL0     H19947   9.718   3.578   7.495  0.4646  0.0947  0.8175
  148MOL0     H19948   9.802   3.784   7.289 -0.9180  1.5812  0.9248
  148MOL0     H19949   9.895   3.810   7.432 -2.1042 -0.9681  3.1898
  148MOL0     H19950   9.873   3.547   7.278  5.3019 -3.0934 -1.2601
  148MOL0     H19951   9.956   3.540   7.431 -0.5929 -0.5934 -0.1075
  148MOL0     H19952  10.016   3.751   7.219  2.3322 -0.6478 -2.2240
  148MOL0     H19953  10.079   3.588   7.203 -0.1355 -1.5380  0.8429
  148MOL0     H19954  10.128   3.782   7.442  1.8885  1.6320 -0.4379
  148MOL0     H19955  10.217   3.633   7.406 -1.6725 -1.6060 -2.1134
  148MOL0     H19956  10.208   3.864   7.212 -2.4687  0.0518  1.4302
  148MOL0     H19957  10.332   3.733   7.217 -1.0492 -0.7386 -1.0076
  148MOL0     H19958  10.417   3.840   7.437 -0.4603  2.2204  1.2324
  148MOL0     H19959  10.433   3.948   7.294 -1.6026 -0.0230 -1.7621
  148MOL0     H19960   9.271   3.637   7.558  2.0903 -1.0789 -0.3572
  148MOL0     H19961   9.039   3.704   7.490 -2.1796  1.3864 -1.9182
  148MOL0     H19962   8.818   4.095   7.362  1.5788  0.0359 -0.8448
  148MOL0     H19963   8.574   4.195   7.315 -0.2616 -1.7599  1.9783
  148MOL0     H19964   8.368   4.107   6.854 -0.3165 -0.1180  1.1857
  148MOL0     H19965   8.608   4.140   6.911  1.9002 -0.0254 -1.1404
  148MOL0     H19966   9.063   4.274   6.707  2.3867 -4.3873 -0.5388
  148MOL0     H19967   9.298   4.283   6.794 -0.9808 -2.0775 -0.6639
  148MOL0     H19968   9.420   4.244   7.206 -3.7233 -0.3893 -1.2159
  148MOL0     H19969   9.354   4.418   7.198 -1.9570  0.7983 -2.0973
  148MOL0     H19970   9.573   4.476   7.083 -1.3935 -1.1413 -3.4323
  148MOL0     H19971   9.622   4.310   7.127 -1.0000  0.2042 -0.4928
  148MOL0     H19972   9.577   4.563   7.306 -0.7458 -0.3296  0.7115
  148MOL0     H19973   9.714   4.455   7.311 -0.4468 -0.7217  0.4197
  148MOL0     H19974   9.436   4.384   7.418 -0.7545  1.1541 -0.2684
  148MOL0     H19975   9.598   4.296   7.439 -0.9395 -0.6411 -0.2971
  148MOL0     H19976   9.585   4.632   7.691 -1.1942  1.5510 -2.2897
  148MOL0     H19977   9.150   4.365   7.181  1.9818  2.5504 -0.4586
  148MOL0     H19978   8.933   4.261   7.235  2.0969  1.1898 -1.2232
  148MOL0     H19979   8.857   4.411   7.183  0.2903  0.6900 -0.1936
  148MOL0     H19980   8.811   4.265   7.104  0.8157 -0.9605 -1.1535
  149MOL0     O19981  10.899   8.752   4.364 -0.3407  0.0045  0.2365
  149MOL0     C19982  10.817   8.843   4.377 -1.0331  0.0122 -0.8708
  149MOL0     O19983  10.841   8.978   4.354 -0.2172  0.1733 -0.1114
  149MOL0     C19984  10.947   9.014   4.286 -0.7902  0.7758 -0.2577
  149MOL0     C19985  10.976   9.152   4.310  0.3572  0.0361 -0.4801
  149MOL0     C19986  11.068   9.217   4.233 -0.6357  0.6040  0.2114
  149MOL0     C19987  11.153   9.151   4.136  0.0711 -0.0950  0.1399
  149MOL0     O19988  11.241   9.231   4.062  0.0481 -0.0934 -0.0142
  149MOL0     C19989  11.268   9.210   3.931  0.0279 -0.0997 -0.5429
  149MOL0     C19990  11.370   9.315   3.881  0.1160 -0.3766  0.2119
  149MOL0     C19991  11.308   9.455   3.892 -0.4184 -0.6928 -0.2770
  149MOL0     C19992  11.390   9.567   3.812 -0.3962  1.0754  0.1578
  149MOL0     C19993  11.325   9.705   3.826 -0.4602  0.0702 -0.1138
  149MOL0     C19994  11.420   9.820   3.779  0.6028  0.5034 -0.0999
  149MOL0     C19995  11.412   9.824   3.624 -0.2192  0.7059  0.3241
  149MOL0     C19996  11.539   9.875   3.565  0.3971  0.0350  0.0607
  149MOL0     N19997  11.571  10.022   3.587  0.2714 -0.7947 -0.5855
  149MOL0     C19998  11.479  10.122   3.586 -0.3868 -0.1956  1.1650
  149MOL0     C19999  11.544  10.240   3.594  0.6212  0.1221  0.5770
  149MOL0     C20000  11.459  10.375   3.580 -0.5534 -0.0100 -0.3906
  149MOL0     C20001  11.316  10.380   3.639  0.0272  0.0868 -0.3497
  149MOL0     C20002  11.230  10.509   3.623  1.6067 -0.5141  0.7450
  149MOL0     C20003  11.188  10.516   3.470 -0.1406  1.0220  1.0556
  149MOL0     O20004  11.117  10.398   3.425 -0.4697  0.6224 -0.4849
  149MOL0     C20005  10.993  10.378   3.485  1.2859 -0.4417  0.3577
  149MOL0     C20006  10.931  10.255   3.457  0.5569  0.2564 -0.0336
  149MOL0     C20007  10.805  10.222   3.501  0.2997 -0.3631 -0.1493
  149MOL0     C20008  10.727  10.310   3.579 -0.0846  1.1440  0.5927
  149MOL0     C20009  10.589  10.265   3.606  0.0424  1.5988 -0.3022
  149MOL0     O20010  10.572  10.129   3.612 -0.1939 -0.0654  0.5509
  149MOL0     C20011  10.436  10.101   3.616 -0.0601 -0.2905  0.9597
  149MOL0     C20012  10.373  10.093   3.738  0.0781  0.9273 -0.8403
  149MOL0     C20013  10.234  10.071   3.734 -0.0856 -0.8660 -0.9070
  149MOL0     C20014  10.165  10.048   3.609 -0.3288  0.3940 -0.1516
  149MOL0     O20015  10.032  10.020   3.586 -1.1148 -0.4821 -0.5106
  149MOL0     C20016   9.934  10.065   3.689 -0.3991  0.2163  0.7726
  149MOL0     C20017   9.810  10.100   3.614  0.0327  0.1227 -0.3745
  149MOL0     C20018   9.829  10.247   3.558 -0.0578  0.0993 -0.0437
  149MOL0     C20019   9.713  10.299   3.474  0.2022  0.5457  0.0158
  149MOL0     C20020   9.767  10.391   3.364  0.2566  1.3497  0.5970
  149MOL0     C20021   9.658  10.462   3.296  0.2152 -0.1167  0.3871
  149MOL0     C20022   9.718  10.558   3.184 -0.4167 -0.2709 -0.1107
  149MOL0     C20023   9.605  10.623   3.103 -0.1518 -0.2893 -0.2856
  149MOL0    Cl20024   9.658  10.765   3.009  0.1945 -0.0829 -0.4051
  149MOL0     C20025  10.233  10.049   3.492  0.2059 -0.2065 -0.6040
  149MOL0     C20026  10.366  10.072   3.493 -0.4364  0.1578 -0.6919
  149MOL0     O20027  10.502  10.350   3.614  0.5609  0.3121 -0.8294
  149MOL0     C20028  10.782  10.439   3.606  0.5089  0.3166 -0.2168
  149MOL0     C20029  10.914  10.470   3.563  0.0386 -0.3014  0.4989
  149MOL0     N20030  11.678  10.216   3.596  0.0066 -0.1103 -0.8956
  149MOL0     N20031  11.695  10.082   3.588  0.1522 -0.0760 -0.1677
  149MOL0     C20032  11.117   9.015   4.107 -0.6138 -0.9110  0.8484
  149MOL0     C20033  11.017   8.946   4.177  0.2855 -0.6523  0.2644
  149MOL0     C20034  10.676   8.807   4.397 -0.0995  0.3613  0.4628
  149MOL0     C20035  10.586   8.903   4.380  0.0747 -0.5512  0.5453
  149MOL0     C20036  10.445   8.882   4.382 -0.5553 -0.3895  1.1065
  149MOL0     C20037  10.396   8.756   4.406 -0.6185 -0.5327 -0.2812
  149MOL0     O20038  10.268   8.714   4.387  1.0177 -0.4422  0.2892
  149MOL0     C20039  10.165   8.797   4.436 -0.8136 -0.6098  0.0213
  149MOL0     C20040  10.119   8.738   4.567  0.3099  0.6687 -0.4036
  149MOL0     C20041   9.970   8.683   4.556  0.3343 -0.8163 -0.1222
  149MOL0     C20042   9.886   8.711   4.669  0.0272 -0.3767  0.1512
  149MOL0     C20043   9.945   8.661   4.800  0.0245 -0.4931  0.2781
  149MOL0     C20044  10.009   8.620   4.894 -0.0957  0.0706 -0.0199
  149MOL0     C20045  10.493   8.660   4.434  0.3123  0.7606 -0.0625
  149MOL0     C20046  10.627   8.681   4.433  0.8042 -0.2963 -0.9458
  149MOL0     C20047  10.706   8.563   4.486  0.6679 -0.7707 -1.1062
  149MOL0     H20048  10.930   9.220   4.382  0.9552  0.0590 -0.1132
  149MOL0     H20049  11.082   9.323   4.250 -0.4910  0.8076 -1.0940
  149MOL0     H20050  11.316   9.112   3.926  1.3337  0.1712  3.3807
  149MOL0     H20051  11.177   9.209   3.871 -0.0335 -1.1073 -0.4377
  149MOL0     H20052  11.406   9.289   3.782 -2.0637 -1.9503 -0.2431
  149MOL0     H20053  11.461   9.322   3.941  2.3001  0.8963 -2.9929
  149MOL0     H20054  11.311   9.486   3.997 -1.4724 -0.6179 -0.2625
  149MOL0     H20055  11.203   9.470   3.867  0.3500  0.4968 -3.1446
  149MOL0     H20056  11.492   9.565   3.853 -0.6789 -4.9523  1.6170
  149MOL0     H20057  11.401   9.534   3.708 -0.3808  2.4197 -0.2874
  149MOL0     H20058  11.234   9.709   3.766 -0.0903  2.7779 -0.6185
  149MOL0     H20059  11.297   9.724   3.930 -0.6988 -0.4930 -0.0702
  149MOL0     H20060  11.382   9.912   3.824 -3.4766  1.3977 -4.5793
  149MOL0     H20061  11.521   9.799   3.817 -0.6857 -3.1549  1.8114
  149MOL0     H20062  11.320   9.875   3.595 -1.7060 -1.8981  0.2356
  149MOL0     H20063  11.411   9.723   3.581 -0.3698  1.7078 -2.2483
  149MOL0     H20064  11.620   9.825   3.619  1.8685  2.6156  0.3785
  149MOL0     H20065  11.537   9.849   3.458  2.9957 -0.8822  0.1690
  149MOL0     H20066  11.372  10.117   3.572  0.0132 -2.0545 -2.7519
  149MOL0     H20067  11.517  10.462   3.614 -0.2642 -0.1424 -0.5468
  149MOL0     H20068  11.450  10.388   3.472  1.3393 -2.4906 -0.9221
  149MOL0     H20069  11.256  10.294   3.608  0.4709 -0.3903  0.1070
  149MOL0     H20070  11.325  10.381   3.748  4.7234  0.3234 -0.5320
  149MOL0     H20071  11.279  10.605   3.641 -0.6974  0.4697  2.1878
  149MOL0     H20072  11.146  10.506   3.693 -0.7225  1.4941 -1.7209
  149MOL0     H20073  11.281  10.513   3.412  0.8463 -1.8498  2.5783
  149MOL0     H20074  11.125  10.604   3.451 -2.7413 -0.5969  1.6349
  149MOL0     H20075  10.985  10.187   3.392  0.5590 -0.3394  0.5872
  149MOL0     H20076  10.766  10.125   3.471  1.5985 -0.9660  0.0199
  149MOL0     H20077  10.439  10.106   3.823 -0.3420  0.3355 -0.4141
  149MOL0     H20078  10.171  10.050   3.819  0.5928  1.5438  0.2961
  149MOL0     H20079   9.926   9.983   3.762 -0.7021 -0.0661  0.4272
  149MOL0     H20080   9.970  10.146   3.753  3.0542 -0.8868  0.4336
  149MOL0     H20081   9.800  10.012   3.549 -3.3148 -2.0130  2.6831
  149MOL0     H20082   9.733  10.089   3.690  0.7103 -0.9998  0.1903
  149MOL0     H20083   9.839  10.322   3.637 -2.8075  3.1302 -2.2907
  149MOL0     H20084   9.921  10.259   3.500  1.1566 -4.6106  0.4630
  149MOL0     H20085   9.644  10.354   3.539 -2.6553 -1.8354 -0.7716
  149MOL0     H20086   9.665  10.208   3.437 -0.1442  1.5943 -2.3109
  149MOL0     H20087   9.816  10.321   3.296 -1.3327  0.7433  0.0322
  149MOL0     H20088   9.839  10.460   3.409  0.5736  0.5578  1.3463
  149MOL0     H20089   9.578  10.402   3.252 -2.8944  0.3995  4.6851
  149MOL0     H20090   9.608  10.522   3.374 -0.2963 -1.7120  1.3394
  149MOL0     H20091   9.784  10.501   3.118  0.3227 -0.2731  0.6175
  149MOL0     H20092   9.778  10.641   3.223 -1.6292  0.6520 -0.1462
  149MOL0     H20093   9.582  10.540   3.035  2.3913 -0.1027 -1.4656
  149MOL0     H20094   9.513  10.647   3.158 -0.2318 -2.1680  0.4685
  149MOL0     H20095  10.192  10.038   3.392  2.8247 -0.6371 -1.7214
  149MOL0     H20096  10.411  10.096   3.397  0.2804  1.2607 -0.1079
  149MOL0     H20097  10.709  10.509   3.646  1.8219  1.2038  0.7081
  149MOL0     H20098  10.957  10.565   3.591  1.5672 -0.5498 -0.8567
  149MOL0     H20099  11.168   8.976   4.019 -1.4660 -1.8737  0.7633
  149MOL0     H20100  11.000   8.839   4.165 -3.4797 -0.1837  0.1855
  149MOL0     H20101  10.616   9.005   4.355  0.3867 -1.0913 -1.4614
  149MOL0     H20102  10.368   8.958   4.378 -0.7477 -0.6221  0.0475
  149MOL0     H20103  10.083   8.803   4.364 -1.8437 -0.0219  1.1998
  149MOL0     H20104  10.201   8.898   4.457  2.6313 -1.4236 -1.3705
  149MOL0     H20105  10.114   8.819   4.639  0.1835  0.4185 -0.1275
  149MOL0     H20106  10.185   8.664   4.613  1.8238  2.2382  0.0342
  149MOL0     H20107   9.988   8.578   4.531 -0.5899 -0.0178 -5.3266
  149MOL0     H20108   9.919   8.724   4.468  1.3858 -0.3680 -0.5471
  149MOL0     H20109   9.876   8.820   4.679 -2.1084 -0.6202  1.2123
  149MOL0     H20110   9.784   8.677   4.653 -0.1318 -0.1362  0.6193
  149MOL0     H20111  10.071   8.598   4.978  0.7256  1.4937 -0.2067
  149MOL0     H20112  10.459   8.558   4.454  0.2137  1.1358  1.8357
  149MOL0     H20113  10.690   8.473   4.426  3.7617 -1.2656 -1.3944
  149MOL0     H20114  10.813   8.577   4.504  0.5140 -1.2658  0.2425
  149MOL0     H20115  10.667   8.540   4.585 -1.6326  2.6854 -1.0567
  150MOL0     O20116   2.173   2.126   8.766 -0.3073 -0.6087  0.7630
  150MOL0     C20117   2.103   2.223   8.747  0.0576  0.6473 -0.3070
  150MOL0     O20118   2.146   2.345   8.723  0.4967  0.5210 -0.0078
  150MOL0     C20119   2.282   2.364   8.708 -0.1110  0.6297 -0.4925
  150MOL0     C20120   2.367   2.311   8.610 -0.0270  0.2560 -0.1108
  150MOL0     C20121   2.507   2.339   8.611  0.4043  0.0682  0.4247
  150MOL0     C20122   2.551   2.438   8.701 -0.9453  0.0211 -0.0705
  150MOL0     O20123   2.684   2.497   8.701  0.6853 -0.0374 -0.0820
  150MOL0     C20124   2.788   2.423   8.630  0.6076  0.2856 -0.0074
  150MOL0     C20125   2.926   2.461   8.671 -0.1608 -0.7473 -0.4412
  150MOL0     C20126   3.032   2.428   8.558 -1.1890  0.2308  0.7375
  150MOL0     C20127   3.176   2.416   8.612 -0.4707  0.7306 -0.0213
  150MOL0     C20128   3.273   2.357   8.502  0.8268  0.5759  0.3693
  150MOL0     C20129   3.420   2.365   8.543 -1.0450 -0.2449 -0.6486
  150MOL0     C20130   3.481   2.512   8.526 -0.0089  0.0879 -0.4479
  150MOL0     C20131   3.622   2.537   8.576  0.0158  1.0771  0.4528
  150MOL0     N20132   3.657   2.674   8.548  0.1569  0.4946  0.2478
  150MOL0     C20133   3.677   2.770   8.642 -0.2092  0.1299  0.0688
  150MOL0     C20134   3.719   2.883   8.578  0.0815 -0.0541  0.8477
  150MOL0     C20135   3.759   3.003   8.656  0.0029 -0.7071 -1.0068
  150MOL0     C20136   3.787   3.118   8.556 -0.6321  0.0012  0.5161
  150MOL0     C20137   3.929   3.133   8.492 -0.8296  1.1695 -0.1990
  150MOL0     C20138   4.055   3.123   8.587  0.0280  0.0619 -0.3294
  150MOL0     O20139   4.052   3.247   8.655 -0.3933  0.0649  0.9743
  150MOL0     C20140   4.134   3.344   8.617 -0.8458 -0.6754 -0.2892
  150MOL0     C20141   4.207   3.353   8.498  0.1388  0.4252 -0.2992
  150MOL0     C20142   4.305   3.457   8.473 -0.0035 -0.3973 -0.4820
  150MOL0     C20143   4.337   3.551   8.574 -0.2088 -1.1339  0.0370
  150MOL0     C20144   4.435   3.657   8.540  0.6293  0.1210 -0.2311
  150MOL0     O20145   4.486   3.664   8.416  0.3467  0.2749  0.3703
  150MOL0     C20146   4.574   3.770   8.387 -0.5634  0.4060 -0.1615
  150MOL0     C20147   4.521   3.873   8.321  0.6810  0.1955 -0.0835
  150MOL0     C20148   4.613   3.979   8.285  0.4679 -0.0589  0.6454
  150MOL0     C20149   4.752   3.958   8.304 -0.5473  0.1247  0.1006
  150MOL0     O20150   4.848   4.042   8.247 -0.1579  0.4759 -0.4261
  150MOL0     C20151   4.847   4.043   8.106  0.3987  0.0357  0.5812
  150MOL0     C20152   4.877   3.902   8.046 -0.1658  0.2149 -0.5632
  150MOL0     C20153   4.898   3.918   7.897 -0.0940  0.3316  0.3767
  150MOL0     C20154   5.048   3.935   7.867  0.7385  0.6793  0.3891
  150MOL0     C20155   5.055   3.919   7.712  0.2096  0.4169 -0.8986
  150MOL0     C20156   5.205   3.913   7.683  0.6394 -0.2448  0.2213
  150MOL0     C20157   5.196   3.886   7.535 -0.6327  0.4809  0.5312
  150MOL0     C20158   5.329   3.868   7.466 -0.7904  0.4540 -0.4313
  150MOL0    Cl20159   5.443   3.770   7.574 -0.0164  0.0343 -0.0152
  150MOL0     C20160   4.803   3.848   8.361 -0.1689  0.4592 -0.5565
  150MOL0     C20161   4.707   3.756   8.414 -0.6352  0.5495 -0.0517
  150MOL0     O20162   4.442   3.744   8.623  0.0676 -0.1345  0.6605
  150MOL0     C20163   4.270   3.537   8.693 -0.7071 -0.0760 -0.3392
  150MOL0     C20164   4.173   3.439   8.716  0.1279  0.0904  0.0342
  150MOL0     N20165   3.710   2.855   8.441  0.9226  0.0878 -1.0448
  150MOL0     N20166   3.676   2.732   8.426 -0.7625 -0.5493 -0.0239
  150MOL0     C20167   2.463   2.496   8.797  0.1003 -0.4363  0.2265
  150MOL0     C20168   2.331   2.458   8.797 -0.5545 -0.2977 -0.4743
  150MOL0     C20169   1.959   2.196   8.747  0.0476 -0.3752  0.9070
  150MOL0     C20170   1.871   2.295   8.696  0.0091 -0.0068 -0.4300
  150MOL0     C20171   1.733   2.272   8.700 -0.3268  0.2204  0.1860
  150MOL0     C20172   1.673   2.159   8.750 -1.0583  0.2891  0.4277
  150MOL0     O20173   1.539   2.126   8.741 -0.2421 -0.7002  0.3011
  150MOL0     C20174   1.456   2.241   8.769 -0.0424  0.5352  0.5335
  150MOL0     C20175   1.321   2.203   8.801  0.0030 -0.1075  0.1604
  150MOL0     C20176   1.242   2.105   8.708  0.5998 -0.0851 -0.0878
  150MOL0     C20177   1.239   2.144   8.560  0.2402 -0.1603  0.2474
  150MOL0     C20178   1.145   2.062   8.483  0.0158  0.1372 -0.2537
  150MOL0     C20179   1.081   1.977   8.427 -0.2309  0.6182  0.1458
  150MOL0     C20180   1.762   2.063   8.799 -0.0918  0.1013 -0.0946
  150MOL0     C20181   1.902   2.075   8.801  0.4243  0.4820  0.0804
  150MOL0     C20182   1.980   1.950   8.845  1.2032  0.2236 -0.5414
  150MOL0     H20183   2.309   2.251   8.541 -2.4110  0.4447  1.5840
  150MOL0     H20184   2.569   2.299   8.531  0.5162 -0.8780  0.9670
  150MOL0     H20185   2.760   2.317   8.640 -2.4079  1.0813  1.0428
  150MOL0     H20186   2.774   2.452   8.525 -0.0684  3.3210  0.8501
  150MOL0     H20187   2.951   2.394   8.754 -3.2176 -0.1233  1.1258
  150MOL0     H20188   2.939   2.566   8.699 -1.8742 -0.0997 -1.8936
  150MOL0     H20189   3.027   2.499   8.475  1.4764 -2.1817 -1.6959
  150MOL0     H20190   3.007   2.333   8.511 -0.5057  0.2422  0.3375
  150MOL0     H20191   3.214   2.515   8.637  1.9472 -0.4403  1.1664
  150MOL0     H20192   3.172   2.355   8.703 -0.4009  0.8603  0.0675
  150MOL0     H20193   3.247   2.253   8.478  4.9484 -0.0838 -2.4228
  150MOL0     H20194   3.270   2.427   8.418  3.3770  2.6709  1.8825
  150MOL0     H20195   3.436   2.322   8.642 -1.4769  0.0484 -0.4455
  150MOL0     H20196   3.488   2.310   8.478  0.3525 -0.3121  0.8208
  150MOL0     H20197   3.411   2.580   8.575  1.5691  1.8933 -0.6095
  150MOL0     H20198   3.477   2.556   8.426  1.5187  1.9360  0.2489
  150MOL0     H20199   3.622   2.513   8.683  0.1797  2.6596  0.8200
  150MOL0     H20200   3.696   2.474   8.526 -0.5291 -0.2388  1.2199
  150MOL0     H20201   3.666   2.761   8.750 -0.9487 -3.7810 -0.1600
  150MOL0     H20202   3.677   3.028   8.724 -0.1977  3.3092 -2.5088
  150MOL0     H20203   3.846   2.981   8.719 -1.5850 -1.9017  0.9329
  150MOL0     H20204   3.712   3.117   8.477 -0.6319 -2.0150  0.4877
  150MOL0     H20205   3.773   3.211   8.612  0.4984  0.3222  0.2968
  150MOL0     H20206   3.940   3.228   8.439  0.0393  0.4239 -1.4142
  150MOL0     H20207   3.932   3.053   8.417  1.0678  0.5707  0.4544
  150MOL0     H20208   4.137   3.100   8.518 -2.2637 -0.0630 -3.2086
  150MOL0     H20209   4.044   3.041   8.659  2.9097 -0.8950 -0.8460
  150MOL0     H20210   4.174   3.286   8.420  1.9559  0.1629 -0.9036
  150MOL0     H20211   4.329   3.479   8.370  1.9064  3.2861  0.5543
  150MOL0     H20212   4.415   3.881   8.298  0.9425 -1.2567 -1.9686
  150MOL0     H20213   4.568   4.068   8.242  0.2251 -1.5057 -2.3617
  150MOL0     H20214   4.755   4.075   8.055  0.2325  1.9016  1.9196
  150MOL0     H20215   4.931   4.103   8.070  1.1369 -2.1597 -1.5969
  150MOL0     H20216   4.963   3.856   8.095  1.0469  2.2534 -0.6897
  150MOL0     H20217   4.779   3.852   8.051 -1.0901  1.9740 -0.4616
  150MOL0     H20218   4.856   3.826   7.854 -1.0420  0.1044  1.7207
  150MOL0     H20219   4.834   3.991   7.848  1.4957  0.4637 -1.6218
  150MOL0     H20220   5.094   3.849   7.914 -2.3260  0.0058  2.4436
  150MOL0     H20221   5.083   4.033   7.900  1.8438 -0.4161  2.6314
  150MOL0     H20222   5.018   4.006   7.657  1.4747  2.1396  0.8484
  150MOL0     H20223   5.010   3.823   7.682  2.0592 -0.4845 -0.9200
  150MOL0     H20224   5.255   4.001   7.724  0.4791 -0.0422 -0.0104
  150MOL0     H20225   5.255   3.831   7.735  4.8385  2.7842  1.4840
  150MOL0     H20226   5.141   3.962   7.478  0.8957  1.3722  0.1899
  150MOL0     H20227   5.135   3.797   7.523  0.6383 -0.9784  3.7916
  150MOL0     H20228   5.322   3.815   7.370  0.8329 -0.6014 -0.0100
  150MOL0     H20229   5.370   3.966   7.443 -0.2783  0.2395 -0.4387
  150MOL0     H20230   4.909   3.852   8.381 -0.1668  0.2014 -0.5053
  150MOL0     H20231   4.738   3.664   8.462 -1.1964  0.7228  0.6538
  150MOL0     H20232   4.298   3.615   8.763 -0.1793 -0.7407  0.2067
  150MOL0     H20233   4.122   3.432   8.812 -3.0240 -1.4972 -1.6057
  150MOL0     H20234   2.497   2.563   8.875  0.2175  1.0212 -1.0316
  150MOL0     H20235   2.262   2.494   8.873 -0.8785 -2.4071  0.3069
  150MOL0     H20236   1.913   2.387   8.657  1.1772  0.7433  2.3191
  150MOL0     H20237   1.670   2.335   8.638 -3.2315 -1.5795  1.1269
  150MOL0     H20238   1.432   2.290   8.674  0.4519 -0.2573 -0.0138
  150MOL0     H20239   1.498   2.327   8.823 -3.0780  2.8614 -0.5450
  150MOL0     H20240   1.260   2.293   8.818 -1.8205 -1.6021  2.1196
  150MOL0     H20241   1.325   2.162   8.903  0.7665  0.9320  0.5666
  150MOL0     H20242   1.138   2.108   8.742 -0.5835  1.4079 -3.4167
  150MOL0     H20243   1.291   2.007   8.714  1.4243  0.3258  0.0655
  150MOL0     H20244   1.195   2.244   8.557 -3.3177 -1.5946 -0.9712
  150MOL0     H20245   1.339   2.149   8.516  0.2840  2.5310  0.4425
  150MOL0     H20246   1.015   1.910   8.376  0.3639  0.2461 -0.1444
  150MOL0     H20247   1.711   1.977   8.841  0.2993 -0.6361 -1.0891
  150MOL0     H20248   2.037   1.958   8.938 -0.9747  0.2453  0.8904
  150MOL0     H20249   1.909   1.867   8.851 -1.5269  2.2980 -1.6522
  150MOL0     H20250   2.054   1.910   8.776  3.1030 -2.2806  2.6499
  151MOL0     O20251   3.335   8.261   1.768  0.8115 -0.4024 -0.0480
  151MOL0     C20252   3.306   8.211   1.656  0.7960 -0.0926  0.4205
  151MOL0     O20253   3.396   8.179   1.554 -0.7035 -0.1029 -0.1267
  151MOL0     C20254   3.532   8.218   1.562 -0.4590  0.5690  0.2876
  151MOL0     C20255   3.619   8.201   1.675  0.0107  0.3352  0.0901
  151MOL0     C20256   3.754   8.239   1.664 -1.1230  0.1385 -0.0235
  151MOL0     C20257   3.811   8.279   1.539  0.5000  0.3499 -0.8473
  151MOL0     O20258   3.940   8.306   1.515  0.1795 -0.4114  0.3810
  151MOL0     C20259   3.989   8.428   1.582 -0.8771  0.5141 -0.0343
  151MOL0     C20260   4.135   8.453   1.518  0.1450 -0.9084  0.7891
  151MOL0     C20261   4.245   8.375   1.578 -0.7921  0.1265  0.6573
  151MOL0     C20262   4.376   8.463   1.617 -0.9693 -0.2630 -0.2659
  151MOL0     C20263   4.482   8.384   1.699  0.3138 -0.2839 -0.4112
  151MOL0     C20264   4.604   8.464   1.749  0.1830 -1.0069 -0.6832
  151MOL0     C20265   4.725   8.370   1.771  0.0621  0.5373 -0.8609
  151MOL0     C20266   4.846   8.443   1.825 -1.3074  0.1524  0.7370
  151MOL0     N20267   4.963   8.353   1.803 -0.1198 -0.3060  0.7279
  151MOL0     C20268   4.973   8.231   1.861  0.1851  0.2030 -0.5223
  151MOL0     C20269   5.076   8.172   1.799 -0.1276  0.5053 -0.8411
  151MOL0     C20270   5.116   8.024   1.816  0.6287  0.9895 -0.0710
  151MOL0     C20271   5.030   7.919   1.729 -0.1314 -0.4026 -0.5360
  151MOL0     C20272   4.989   7.955   1.581 -0.7222 -0.1141  0.6697
  151MOL0     C20273   4.934   7.839   1.510  0.8199 -0.0819 -0.5635
  151MOL0     O20274   4.921   7.886   1.373  0.5803  0.0455 -0.3182
  151MOL0     C20275   4.797   7.906   1.310 -0.2318  0.9652  0.0950
  151MOL0     C20276   4.761   7.843   1.188 -1.4388  0.3735 -0.0793
  151MOL0     C20277   4.635   7.859   1.133 -0.4014 -0.2712  0.0889
  151MOL0     C20278   4.537   7.947   1.195 -0.4187  0.2446  0.2700
  151MOL0     C20279   4.406   7.971   1.122  0.1962 -0.7509 -1.0421
  151MOL0     O20280   4.340   8.085   1.156 -0.6260 -0.0361  0.0048
  151MOL0     C20281   4.207   8.098   1.135 -0.0102 -0.8463  0.1492
  151MOL0     C20282   4.130   8.115   1.248 -0.3232  0.1833 -0.6634
  151MOL0     C20283   3.987   8.139   1.236  0.4516 -0.3304 -0.0349
  151MOL0     C20284   3.934   8.152   1.111 -0.9448  0.1762  0.4323
  151MOL0     O20285   3.803   8.157   1.103  0.0208  0.3158  0.6309
  151MOL0     C20286   3.750   8.023   1.097  0.5355 -0.6923  0.9823
  151MOL0     C20287   3.600   8.032   1.122  0.2195  0.2177 -0.0737
  151MOL0     C20288   3.521   8.098   0.994  0.2071  0.1656  0.1624
  151MOL0     C20289   3.374   8.092   1.022  0.6510  0.5092  0.2317
  151MOL0     C20290   3.300   8.158   0.909 -0.7413 -0.1442 -0.3310
  151MOL0     C20291   3.317   8.067   0.780 -0.1004  0.2125  0.0547
  151MOL0     C20292   3.214   8.102   0.672  0.4429 -0.6330 -0.6195
  151MOL0     C20293   3.241   8.046   0.535 -0.0748  0.9633  0.3629
  151MOL0    Cl20294   3.101   8.103   0.429  0.3386  0.1798 -0.0752
  151MOL0     C20295   4.019   8.148   0.994  0.2107  0.1023 -0.1010
  151MOL0     C20296   4.149   8.107   1.009 -0.0865 -0.7275  0.2754
  151MOL0     O20297   4.368   7.883   1.044  1.0204 -0.2717 -0.4359
  151MOL0     C20298   4.576   7.999   1.321  0.2362 -0.7036 -0.7199
  151MOL0     C20299   4.693   7.974   1.380 -0.0307 -1.1285 -0.1014
  151MOL0     N20300   5.105   8.253   1.684 -0.2233  0.1577  0.0318
  151MOL0     N20301   5.037   8.360   1.687 -0.5730 -0.0291  0.1352
  151MOL0     C20302   3.720   8.298   1.436  0.1513  0.2221 -1.2766
  151MOL0     C20303   3.584   8.266   1.449 -0.0092  0.7192  0.0818
  151MOL0     C20304   3.163   8.188   1.617 -0.1584 -0.2086 -0.3450
  151MOL0     C20305   3.127   8.234   1.491 -0.0343  0.0155 -0.1865
  151MOL0     C20306   2.987   8.233   1.459 -0.6358  0.6136 -0.4643
  151MOL0     C20307   2.898   8.195   1.556 -0.7451 -0.6739 -0.1533
  151MOL0     O20308   2.769   8.185   1.528 -0.8051 -0.0518  0.4742
  151MOL0     C20309   2.701   8.309   1.498 -1.1481 -1.0739 -0.8630
  151MOL0     C20310   2.651   8.375   1.626 -0.1244  0.1483 -1.0432
  151MOL0     C20311   2.538   8.308   1.696  0.4433 -0.4713  0.0986
  151MOL0     C20312   2.449   8.394   1.780 -0.4356 -0.5661 -0.1701
  151MOL0     C20313   2.398   8.519   1.715 -0.9664  0.4437  0.0610
  151MOL0     C20314   2.370   8.616   1.651  0.1342 -0.9082  1.2286
  151MOL0     C20315   2.942   8.140   1.678 -0.1305  0.7568  0.5435
  151MOL0     C20316   3.068   8.157   1.723 -0.9843  0.3193 -0.1814
  151MOL0     C20317   3.114   8.116   1.860 -0.1878 -0.0833 -0.1144
  151MOL0     H20318   3.568   8.152   1.758 -1.6090 -0.6429 -1.4095
  151MOL0     H20319   3.816   8.227   1.753 -0.9641 -3.7123 -0.4567
  151MOL0     H20320   3.922   8.512   1.561 -1.6295  0.1855  1.0112
  151MOL0     H20321   4.009   8.407   1.687  3.0241 -2.6263 -1.1165
  151MOL0     H20322   4.166   8.558   1.511 -3.2248  0.1352 -1.5423
  151MOL0     H20323   4.132   8.434   1.410  1.8381  4.3223 -0.4847
  151MOL0     H20324   4.274   8.304   1.500  0.1759  0.6333  0.5487
  151MOL0     H20325   4.221   8.304   1.658  0.8013 -3.2090 -1.5707
  151MOL0     H20326   4.426   8.517   1.536 -0.5547  1.4250  1.0359
  151MOL0     H20327   4.336   8.552   1.666  1.9903 -0.2403  2.4029
  151MOL0     H20328   4.429   8.342   1.784  2.7679  0.4687  1.6158
  151MOL0     H20329   4.525   8.303   1.638  0.0764 -0.3684 -0.4661
  151MOL0     H20330   4.632   8.551   1.690  1.2146 -0.2375  0.8935
  151MOL0     H20331   4.588   8.503   1.850  3.1690  0.3031 -0.6258
  151MOL0     H20332   4.741   8.304   1.685 -0.0398 -0.9222  0.2090
  151MOL0     H20333   4.694   8.307   1.854  0.6657  1.8985  0.4413
  151MOL0     H20334   4.860   8.537   1.772 -0.9317 -0.5644 -0.4866
  151MOL0     H20335   4.828   8.462   1.931 -3.0627  1.3690  0.2547
  151MOL0     H20336   4.921   8.187   1.945  2.4698 -2.8207 -0.4963
  151MOL0     H20337   5.221   8.016   1.787 -0.1107  0.6525 -2.9928
  151MOL0     H20338   5.119   7.994   1.922  1.9316  2.5704  0.3835
  151MOL0     H20339   5.092   7.833   1.704 -0.3879  0.0623 -3.0761
  151MOL0     H20340   4.941   7.892   1.787 -0.7924  3.1672  0.3933
  151MOL0     H20341   5.085   7.982   1.538  1.2250 -2.6242  3.0859
  151MOL0     H20342   4.927   8.045   1.569  2.3516  1.8411 -2.4617
  151MOL0     H20343   4.837   7.825   1.557  1.6968 -0.4368  1.2201
  151MOL0     H20344   4.989   7.745   1.523  1.1715  0.3987  1.8543
  151MOL0     H20345   4.833   7.774   1.146 -0.7215  0.9992  0.0993
  151MOL0     H20346   4.622   7.805   1.040  1.7999  0.1418 -0.5306
  151MOL0     H20347   4.168   8.125   1.349 -0.2136  0.6848 -0.7535
  151MOL0     H20348   3.927   8.145   1.327  1.4832  1.4397  0.5938
  151MOL0     H20349   3.769   7.981   0.998 -0.6836 -1.1635  0.9332
  151MOL0     H20350   3.794   7.955   1.170 -1.0657  0.1584  2.8593
  151MOL0     H20351   3.563   7.928   1.123 -1.3493  0.7399  0.7333
  151MOL0     H20352   3.577   8.071   1.222  2.2881 -3.3199  2.0006
  151MOL0     H20353   3.554   8.200   0.970 -1.9085  0.5418 -1.4818
  151MOL0     H20354   3.549   8.035   0.908  1.7872  2.5019 -1.1489
  151MOL0     H20355   3.347   8.145   1.114 -0.1396  0.8875 -0.2064
  151MOL0     H20356   3.351   7.986   1.034  1.0149  0.1793 -1.7057
  151MOL0     H20357   3.337   8.258   0.885 -0.5717 -0.8329 -3.2945
  151MOL0     H20358   3.194   8.165   0.937 -0.9836 -1.3579 -0.8869
  151MOL0     H20359   3.415   8.087   0.735  1.2650 -5.7269 -0.3805
  151MOL0     H20360   3.311   7.959   0.795  2.3841 -0.0109 -0.0375
  151MOL0     H20361   3.223   8.206   0.638 -0.2854  1.3165  4.3677
  151MOL0     H20362   3.113   8.082   0.707  1.7075 -1.7628  2.8219
  151MOL0     H20363   3.338   8.080   0.497 -0.3694  0.3360 -1.0126
  151MOL0     H20364   3.242   7.937   0.540 -1.3625  0.7450 -2.3381
  151MOL0     H20365   3.980   8.160   0.894 -0.2630  3.8673  0.4025
  151MOL0     H20366   4.208   8.089   0.919 -1.9110 -0.4282 -1.0297
  151MOL0     H20367   4.509   8.066   1.373 -2.3385 -3.9455  0.4626
  151MOL0     H20368   4.713   8.018   1.477 -4.3413 -0.4035  0.6504
  151MOL0     H20369   3.760   8.334   1.342 -0.5103 -1.4339 -2.2262
  151MOL0     H20370   3.522   8.282   1.362 -0.8387 -1.5770  0.1800
  151MOL0     H20371   3.189   8.267   1.408  1.5723 -6.4449 -2.1370
  151MOL0     H20372   2.951   8.251   1.359 -2.2298 -3.1986 -0.7293
  151MOL0     H20373   2.615   8.289   1.432 -1.6791 -0.4366 -0.3815
  151MOL0     H20374   2.768   8.384   1.454 -1.6993  0.1469  0.3055
  151MOL0     H20375   2.623   8.474   1.587  0.4682 -0.3054 -2.6842
  151MOL0     H20376   2.732   8.386   1.698  1.4382 -3.5764 -2.0139
  151MOL0     H20377   2.588   8.237   1.761  2.2232 -0.7880 -1.5176
  151MOL0     H20378   2.469   8.258   1.627 -0.8739 -0.8690  1.6350
  151MOL0     H20379   2.365   8.340   1.824 -0.2064  1.5214  3.1899
  151MOL0     H20380   2.519   8.415   1.862 -1.1806 -0.3187  0.4130
  151MOL0     H20381   2.349   8.700   1.588  0.8096 -1.0033  0.8663
  151MOL0     H20382   2.863   8.110   1.746 -0.5935 -0.2816 -0.4248
  151MOL0     H20383   3.209   8.061   1.854 -0.5952 -0.6884 -1.3510
  151MOL0     H20384   3.136   8.205   1.920 -0.6873  0.6618 -1.0031
  151MOL0     H20385   3.036   8.064   1.915  0.5480 -1.5862 -0.4272
  152MOL0     O20386   3.326   4.254   7.761  0.2149  0.3895 -0.0220
  152MOL0     C20387   3.303   4.296   7.871 -0.0423 -0.4233 -0.1239
  152MOL0     O20388   3.349   4.255   7.997  1.0630 -0.3871  0.0378
  152MOL0     C20389   3.409   4.140   8.023 -0.4336  0.2601  0.8442
  152MOL0     C20390   3.478   4.127   8.150  0.3233 -0.0089 -0.6550
  152MOL0     C20391   3.548   4.009   8.187  0.7776 -1.0047  0.7642
  152MOL0     C20392   3.545   3.896   8.111  0.7051  0.0734 -0.5605
  152MOL0     O20393   3.606   3.790   8.164  0.4503  0.8769 -0.4536
  152MOL0     C20394   3.744   3.782   8.151 -0.5135 -0.3881 -0.2675
  152MOL0     C20395   3.829   3.870   8.236 -0.7220  0.0611 -0.8520
  152MOL0     C20396   3.975   3.846   8.222 -0.1101 -0.1381  0.3971
  152MOL0     C20397   4.054   3.946   8.307 -0.2597 -0.0681 -0.2541
  152MOL0     C20398   4.053   4.089   8.262 -1.0438 -0.3522  0.5294
  152MOL0     C20399   4.127   4.107   8.126  0.0401  0.2009 -0.5285
  152MOL0     C20400   4.149   4.254   8.080  0.8176 -0.6078  0.2800
  152MOL0     C20401   4.262   4.268   7.979 -1.0584 -0.3321 -0.4838
  152MOL0     N20402   4.396   4.282   8.035  0.5986 -0.1469 -0.8064
  152MOL0     C20403   4.430   4.380   8.124  0.1384 -0.1017 -0.2928
  152MOL0     C20404   4.564   4.355   8.140  0.3943  0.9751 -0.2178
  152MOL0     C20405   4.671   4.420   8.224  0.3630  0.3982  0.0959
  152MOL0     C20406   4.720   4.336   8.344 -0.1293 -0.1323 -0.2762
  152MOL0     C20407   4.773   4.425   8.460  0.2478 -0.0812  0.7562
  152MOL0     C20408   4.916   4.481   8.449  0.7369  1.0389  0.5235
  152MOL0     O20409   4.927   4.573   8.340 -1.2412  0.6678 -0.1515
  152MOL0     C20410   5.041   4.566   8.263  0.2291 -0.3109 -0.1013
  152MOL0     C20411   5.122   4.453   8.238 -0.3140  0.4716  0.7297
  152MOL0     C20412   5.240   4.455   8.171 -0.4689  0.1783 -0.5690
  152MOL0     C20413   5.296   4.580   8.132 -0.7002 -0.5143  1.3852
  152MOL0     C20414   5.431   4.585   8.053 -0.2243  0.0427 -0.7464
  152MOL0     O20415   5.489   4.457   8.039  0.5614 -0.1883 -1.3893
  152MOL0     C20416   5.615   4.439   7.985  0.9030  0.3127 -0.2880
  152MOL0     C20417   5.730   4.520   7.996  0.2687  0.7601  0.8345
  152MOL0     C20418   5.847   4.483   7.928  0.9470  0.2118  0.9563
  152MOL0     C20419   5.866   4.373   7.848  0.3933  0.4632 -0.0026
  152MOL0     O20420   5.983   4.313   7.797  0.3301  0.0557 -0.0608
  152MOL0     C20421   6.092   4.396   7.800  0.5025 -0.6680  0.2088
  152MOL0     C20422   6.217   4.340   7.752 -0.5569 -0.0294 -0.1965
  152MOL0     C20423   6.336   4.426   7.793 -0.3419 -0.0844 -0.0647
  152MOL0     C20424   6.458   4.341   7.766 -0.4227 -0.7360 -0.0538
  152MOL0     C20425   6.576   4.388   7.860 -1.3844 -0.3905  0.3921
  152MOL0     C20426   6.714   4.316   7.834  0.9145 -0.3730 -0.1264
  152MOL0     C20427   6.842   4.398   7.870 -0.0045  0.5859  0.8700
  152MOL0     C20428   6.968   4.326   7.818  0.1359  0.8502 -0.4307
  152MOL0    Cl20429   7.120   4.424   7.810 -0.0416 -0.0514  0.0925
  152MOL0     C20430   5.751   4.297   7.833 -0.2861  0.1803 -0.8863
  152MOL0     C20431   5.632   4.328   7.896 -0.7263  0.7150  0.4872
  152MOL0     O20432   5.490   4.689   8.042  0.2629  1.1046  0.3611
  152MOL0     C20433   5.234   4.702   8.177  0.6829 -0.2689  0.7288
  152MOL0     C20434   5.098   4.688   8.231 -0.0613 -0.5679 -0.3621
  152MOL0     N20435   4.606   4.269   8.051 -0.1402 -0.3813  0.6873
  152MOL0     N20436   4.501   4.224   7.989 -0.7532  0.0977  0.2788
  152MOL0     C20437   3.479   3.905   7.988 -0.2079  0.3559  0.0030
  152MOL0     C20438   3.411   4.026   7.941  0.4586 -0.0094  0.7738
  152MOL0     C20439   3.207   4.414   7.864 -0.9179 -1.3064 -0.6197
  152MOL0     C20440   3.146   4.455   7.980  0.1833  0.6037  0.4469
  152MOL0     C20441   3.058   4.560   7.987  0.1523 -0.1796 -0.0783
  152MOL0     C20442   3.022   4.642   7.879  0.1086 -0.4893  0.3167
  152MOL0     O20443   2.925   4.743   7.869 -0.4977  0.0200  0.4533
  152MOL0     C20444   2.889   4.811   7.985  0.4017  0.3709 -0.4040
  152MOL0     C20445   2.750   4.760   8.036 -0.0764 -0.1585  0.6150
  152MOL0     C20446   2.712   4.818   8.176 -0.4969  0.2129 -0.9264
  152MOL0     C20447   2.573   4.783   8.202 -0.2292  0.5354  0.3396
  152MOL0     C20448   2.551   4.815   8.345  0.4347 -0.2342 -0.2671
  152MOL0     C20449   2.526   4.835   8.465 -0.3096 -0.0551  0.1378
  152MOL0     C20450   3.102   4.614   7.757 -0.1742  0.4496 -0.1707
  152MOL0     C20451   3.204   4.510   7.751 -0.4063 -0.2870 -0.2847
  152MOL0     C20452   3.263   4.471   7.606  0.8102  1.2813  0.3838
  152MOL0     H20453   3.484   4.212   8.217  2.9781  0.1811 -1.0325
  152MOL0     H20454   3.582   4.016   8.290  2.4073 -1.5606  0.2915
  152MOL0     H20455   3.763   3.678   8.181 -1.2783 -0.2306  0.8239
  152MOL0     H20456   3.773   3.794   8.046  5.2873 -5.8772  0.0441
  152MOL0     H20457   3.804   3.855   8.341 -1.3148  1.1823 -0.8137
  152MOL0     H20458   3.818   3.973   8.199  0.2073  0.7018  0.5763
  152MOL0     H20459   3.997   3.852   8.115 -0.9334  0.3702  0.2541
  152MOL0     H20460   3.999   3.741   8.243  0.7430 -0.5583 -2.2866
  152MOL0     H20461   4.020   3.934   8.410 -0.6737 -3.4287 -0.6443
  152MOL0     H20462   4.161   3.924   8.312 -0.1250  0.3985 -0.8781
  152MOL0     H20463   3.951   4.126   8.258 -1.5323 -1.7306 -1.2597
  152MOL0     H20464   4.100   4.155   8.335 -1.8472  2.6297 -1.4883
  152MOL0     H20465   4.224   4.056   8.132 -1.1804 -2.3683 -1.4156
  152MOL0     H20466   4.074   4.058   8.044  2.6662  0.3903 -2.4844
  152MOL0     H20467   4.154   4.316   8.170  1.2132  1.3968 -1.0566
  152MOL0     H20468   4.057   4.287   8.030 -0.1080 -1.1247  1.5944
  152MOL0     H20469   4.256   4.191   7.902 -0.1782  1.0086 -1.9614
  152MOL0     H20470   4.230   4.361   7.933 -2.5250 -1.3060 -1.4962
  152MOL0     H20471   4.354   4.440   8.173 -0.7719  0.1706 -1.9369
  152MOL0     H20472   4.756   4.449   8.162 -0.1905 -1.7949 -1.8182
  152MOL0     H20473   4.626   4.514   8.259  0.0645  1.0174 -1.8349
  152MOL0     H20474   4.645   4.262   8.376 -0.1074  0.1703  0.4947
  152MOL0     H20475   4.801   4.272   8.307 -2.8347 -4.1737  0.1212
  152MOL0     H20476   4.765   4.367   8.553 -0.5387 -0.1003  0.6789
  152MOL0     H20477   4.706   4.506   8.489  1.6583  0.8450  1.5426
  152MOL0     H20478   4.983   4.394   8.448  1.6461  1.7154 -0.8908
  152MOL0     H20479   4.935   4.531   8.544  0.2016  1.5517  0.3645
  152MOL0     H20480   5.095   4.354   8.274 -0.9522  1.1439  2.1668
  152MOL0     H20481   5.288   4.361   8.146  0.8266  0.6041  0.2179
  152MOL0     H20482   5.722   4.608   8.058 -0.8080  0.9882  0.3936
  152MOL0     H20483   5.934   4.547   7.940 -0.1859  2.0170 -0.0179
  152MOL0     H20484   6.075   4.479   7.730  2.5268 -0.6354 -0.3085
  152MOL0     H20485   6.110   4.441   7.898  1.6957 -1.5975  0.4275
  152MOL0     H20486   6.233   4.238   7.790  2.0567  0.4809  0.2844
  152MOL0     H20487   6.208   4.327   7.644 -2.7615 -0.9389  0.0432
  152MOL0     H20488   6.336   4.522   7.741 -0.7513 -0.4164 -0.7039
  152MOL0     H20489   6.320   4.441   7.900 -2.3639  1.6130 -0.5411
  152MOL0     H20490   6.482   4.360   7.662 -0.0421  0.1614  0.1903
  152MOL0     H20491   6.443   4.237   7.795 -0.1034 -1.2470 -1.6302
  152MOL0     H20492   6.557   4.380   7.967  1.0736 -0.2688  0.8919
  152MOL0     H20493   6.595   4.495   7.843 -1.8514 -0.3939 -0.1933
  152MOL0     H20494   6.713   4.217   7.880  0.1437 -0.4781 -0.3598
  152MOL0     H20495   6.716   4.298   7.726 -1.1500 -0.7715 -0.1386
  152MOL0     H20496   6.838   4.401   7.979 -1.6816 -0.4119  0.8817
  152MOL0     H20497   6.841   4.490   7.811 -1.6229  0.0320 -0.0472
  152MOL0     H20498   6.984   4.241   7.885 -1.3102  0.7007 -0.2377
  152MOL0     H20499   6.940   4.287   7.719  1.0771 -1.0289  0.0005
  152MOL0     H20500   5.753   4.210   7.767 -1.3837 -1.2772  0.9040
  152MOL0     H20501   5.553   4.253   7.893  0.2758 -0.4362  1.7872
  152MOL0     H20502   5.285   4.793   8.149  0.2877  0.0815  1.1167
  152MOL0     H20503   5.051   4.786   8.228  1.1448  0.0004 -1.0445
  152MOL0     H20504   3.484   3.816   7.926 -2.1821  0.4722 -0.3861
  152MOL0     H20505   3.351   4.014   7.851  4.8324 -0.4552 -2.4202
  152MOL0     H20506   3.167   4.411   8.077 -2.5059 -1.1082  0.3406
  152MOL0     H20507   3.024   4.571   8.090 -1.9845  0.6346 -0.8281
  152MOL0     H20508   2.884   4.919   7.967 -2.1403  0.3759  0.0693
  152MOL0     H20509   2.963   4.793   8.064 -1.1621  0.0311  1.0283
  152MOL0     H20510   2.751   4.651   8.039 -1.4508 -0.2288 -0.5124
  152MOL0     H20511   2.688   4.798   7.955  2.7252  2.2194 -0.6152
  152MOL0     H20512   2.720   4.925   8.196 -5.0847  0.6764 -0.4858
  152MOL0     H20513   2.765   4.754   8.247 -2.7097  0.2680  0.8995
  152MOL0     H20514   2.496   4.829   8.139  0.4420 -0.1237 -0.9971
  152MOL0     H20515   2.568   4.674   8.188  1.4102  0.5033 -0.1974
  152MOL0     H20516   2.518   4.860   8.569  1.7447 -0.2422  0.3867
  152MOL0     H20517   3.103   4.682   7.672 -2.0803 -1.4207 -1.7743
  152MOL0     H20518   3.363   4.429   7.593 -0.3466 -0.5643 -4.9408
  152MOL0     H20519   3.197   4.399   7.558  2.1981  0.2077  0.0417
  152MOL0     H20520   3.241   4.556   7.540  0.3437 -0.8837 -2.4358
  153MOL0     O20521   5.481   1.623   7.086  0.0864  0.8928 -0.6664
  153MOL0     C20522   5.382   1.656   7.018 -0.2967 -0.2114  0.6813
  153MOL0     O20523   5.387   1.777   6.946 -0.3047  0.3464  0.3880
  153MOL0     C20524   5.497   1.862   6.931 -0.0131  0.2818  0.0877
  153MOL0     C20525   5.630   1.825   6.959 -0.2499  0.1079 -0.2040
  153MOL0     C20526   5.731   1.925   6.957  0.1099  0.1500 -0.7851
  153MOL0     C20527   5.704   2.058   6.925 -0.5435 -1.0971  0.0951
  153MOL0     O20528   5.815   2.145   6.925  0.8360  0.4244 -0.2228
  153MOL0     C20529   5.824   2.266   6.849 -0.2793 -0.3767 -0.6839
  153MOL0     C20530   5.961   2.327   6.843 -0.5447  0.2560  0.0348
  153MOL0     C20531   6.058   2.239   6.755 -0.1277  0.5849  0.1609
  153MOL0     C20532   6.208   2.264   6.775 -0.6815  0.3750  0.1523
  153MOL0     C20533   6.287   2.171   6.685  0.3487 -0.0248 -1.1390
  153MOL0     C20534   6.440   2.195   6.693 -0.0747  0.2435  0.0092
  153MOL0     C20535   6.532   2.085   6.630  0.0438  0.3118  0.5163
  153MOL0     C20536   6.526   1.959   6.716  0.6608 -0.3568 -0.2802
  153MOL0     N20537   6.586   1.981   6.840  0.1650  0.1825  0.8191
  153MOL0     C20538   6.518   2.017   6.954 -0.5479 -0.3808 -0.2409
  153MOL0     C20539   6.611   2.001   7.054 -0.5043  0.0588 -0.7823
  153MOL0     C20540   6.568   2.041   7.192 -0.7374  1.4264 -0.6958
  153MOL0     C20541   6.518   1.912   7.263  0.2327  0.3791 -0.2775
  153MOL0     C20542   6.422   1.946   7.386 -0.1749  1.2563 -0.2111
  153MOL0     C20543   6.445   1.823   7.486  0.2661 -0.8494 -0.0505
  153MOL0     O20544   6.418   1.695   7.431  1.1490  0.0961  0.0996
  153MOL0     C20545   6.357   1.604   7.514  0.0033 -1.2120  0.1395
  153MOL0     C20546   6.289   1.497   7.452 -0.1284  0.2769  0.1896
  153MOL0     C20547   6.236   1.394   7.533 -0.2379  0.4502 -0.6693
  153MOL0     C20548   6.255   1.395   7.677 -0.9257  0.4701 -0.6768
  153MOL0     C20549   6.192   1.273   7.748 -0.1561 -0.6680 -0.2776
  153MOL0     O20550   6.097   1.208   7.681  0.3107 -0.1160  0.7633
  153MOL0     C20551   6.018   1.100   7.727 -0.4824 -0.4674  0.9327
  153MOL0     C20552   5.916   1.072   7.642 -0.5786 -0.0322  0.8292
  153MOL0     C20553   5.829   0.974   7.665 -1.0035 -0.3750  0.4365
  153MOL0     C20554   5.839   0.894   7.780 -0.0576  0.7606 -0.0612
  153MOL0     O20555   5.732   0.805   7.803 -0.0640 -0.3986  0.5090
  153MOL0     C20556   5.663   0.849   7.916  0.0680  0.9575 -0.7629
  153MOL0     C20557   5.518   0.806   7.919 -0.3621 -0.0427  0.2438
  153MOL0     C20558   5.456   0.830   7.775  0.0537 -0.2945 -0.1422
  153MOL0     C20559   5.306   0.799   7.781  0.4115  0.0203  0.2044
  153MOL0     C20560   5.250   0.790   7.634  0.2552  0.2427  0.0827
  153MOL0     C20561   5.264   0.919   7.557  0.0482 -0.1077 -1.1515
  153MOL0     C20562   5.153   0.942   7.453 -0.8466 -0.0653 -0.3151
  153MOL0     C20563   5.148   0.833   7.343 -0.3794  0.3727 -0.7004
  153MOL0    Cl20564   5.075   0.893   7.186  0.3241  0.2424  0.5185
  153MOL0     C20565   5.954   0.914   7.871  0.7190  0.5921 -0.0643
  153MOL0     C20566   6.035   1.025   7.845  0.6265  0.1658 -0.4277
  153MOL0     O20567   6.211   1.266   7.868 -0.7682  0.2973 -0.5212
  153MOL0     C20568   6.318   1.508   7.735  0.1185  0.0667  0.0555
  153MOL0     C20569   6.373   1.602   7.652  0.8018  0.0584 -0.5510
  153MOL0     N20570   6.719   1.939   6.996  0.5432 -0.3152  0.6367
  153MOL0     N20571   6.703   1.925   6.875 -0.5416 -0.5845 -0.0696
  153MOL0     C20572   5.574   2.091   6.886  0.9236 -0.6774 -0.7534
  153MOL0     C20573   5.475   2.000   6.898 -0.3770 -0.8316  0.9765
  153MOL0     C20574   5.296   1.547   6.979  0.5516  0.9753 -0.5807
  153MOL0     C20575   5.228   1.466   7.082  0.2340  1.2823 -0.0868
  153MOL0     C20576   5.131   1.375   7.047  0.1131 -0.3719  0.7349
  153MOL0     C20577   5.100   1.359   6.911  0.1373 -0.0290 -0.1994
  153MOL0     O20578   4.999   1.270   6.883  0.0660 -0.5095  0.3843
  153MOL0     C20579   5.024   1.164   6.797  0.0758  0.1352  0.1369
  153MOL0     C20580   4.933   1.042   6.830  0.6510 -0.3648 -0.3287
  153MOL0     C20581   4.787   1.087   6.865 -0.4813 -0.2069 -0.5750
  153MOL0     C20582   4.694   0.971   6.878 -0.1521  0.5295 -0.1347
  153MOL0     C20583   4.558   1.028   6.892  0.8954  0.3999  0.1847
  153MOL0     C20584   4.447   1.073   6.900 -0.3735  0.4371  0.4383
  153MOL0     C20585   5.160   1.444   6.814 -0.2916 -0.2303  0.7352
  153MOL0     C20586   5.248   1.540   6.848 -0.0709  0.3293  0.4719
  153MOL0     C20587   5.295   1.632   6.736 -0.6282 -0.0963  0.0646
  153MOL0     H20588   5.657   1.720   6.967  0.6280  0.2158 -1.4404
  153MOL0     H20589   5.831   1.900   6.990 -0.1090 -0.2826 -0.4306
  153MOL0     H20590   5.814   2.247   6.742 -3.0331 -2.8401 -0.0850
  153MOL0     H20591   5.745   2.327   6.894 -1.6321 -2.9220  0.5892
  153MOL0     H20592   5.991   2.338   6.947  0.7182  1.1136 -0.3968
  153MOL0     H20593   5.960   2.427   6.797  1.8540  0.6638  0.7240
  153MOL0     H20594   6.030   2.242   6.649  3.5534 -2.4988 -1.1418
  153MOL0     H20595   6.044   2.135   6.785 -1.5828  0.3864 -1.0828
  153MOL0     H20596   6.236   2.368   6.759  0.5967  0.5462  2.9306
  153MOL0     H20597   6.225   2.247   6.882  1.5442  0.6020 -0.1173
  153MOL0     H20598   6.258   2.068   6.709 -1.4176  0.9664  1.3836
  153MOL0     H20599   6.257   2.190   6.582 -1.7839  1.7525 -0.2632
  153MOL0     H20600   6.457   2.290   6.642  3.0598  0.2600  0.9163
  153MOL0     H20601   6.471   2.212   6.796  3.2567 -0.0449 -0.8210
  153MOL0     H20602   6.638   2.114   6.623 -0.1484  0.7614 -0.9490
  153MOL0     H20603   6.494   2.057   6.531  0.1221  1.9459 -0.0020
  153MOL0     H20604   6.424   1.919   6.722  1.0414 -1.3053  0.1604
  153MOL0     H20605   6.588   1.888   6.661  1.1120  0.7942 -1.2998
  153MOL0     H20606   6.416   2.048   6.975 -0.5089 -0.1687 -0.3649
  153MOL0     H20607   6.640   2.100   7.251 -0.6925  2.8370 -2.1081
  153MOL0     H20608   6.484   2.110   7.183  0.4069  3.1950  1.2132
  153MOL0     H20609   6.472   1.846   7.189  1.6960  0.4350 -1.2689
  153MOL0     H20610   6.601   1.858   7.308  1.1720  1.9299 -0.0957
  153MOL0     H20611   6.317   1.951   7.355 -1.5688  0.2675  3.7033
  153MOL0     H20612   6.446   2.041   7.435  1.9814 -0.2910  2.0162
  153MOL0     H20613   6.387   1.852   7.575  1.1050 -1.5702  0.7542
  153MOL0     H20614   6.551   1.816   7.510  0.3199 -3.0185 -0.7410
  153MOL0     H20615   6.279   1.487   7.345 -0.1470 -0.2858  0.2405
  153MOL0     H20616   6.186   1.310   7.486  2.0144 -2.0990  1.1933
  153MOL0     H20617   5.899   1.139   7.558 -2.4824 -0.2796  0.9707
  153MOL0     H20618   5.761   0.949   7.584 -1.1613 -0.7852  0.6950
  153MOL0     H20619   5.713   0.803   8.001 -0.4943  3.7432  1.2068
  153MOL0     H20620   5.657   0.958   7.927 -1.6433  0.7248  1.0484
  153MOL0     H20621   5.509   0.706   7.962  3.1401 -0.5889 -0.0263
  153MOL0     H20622   5.464   0.872   7.987  0.1574 -1.1569  1.7908
  153MOL0     H20623   5.481   0.934   7.755  1.8377 -0.4504  1.0333
  153MOL0     H20624   5.503   0.761   7.704 -0.8989 -1.1485  0.0283
  153MOL0     H20625   5.261   0.880   7.839 -0.0718 -1.3976  1.8942
  153MOL0     H20626   5.286   0.703   7.830 -1.8371  0.1640 -0.3322
  153MOL0     H20627   5.145   0.760   7.642  0.6294 -2.2348 -2.7109
  153MOL0     H20628   5.302   0.708   7.584  0.0749  0.6032 -0.7159
  153MOL0     H20629   5.268   1.012   7.615  0.6780 -0.6774 -0.2695
  153MOL0     H20630   5.362   0.914   7.510  1.5560 -0.1039  1.8221
  153MOL0     H20631   5.185   1.035   7.404 -1.4163 -0.1923 -0.9481
  153MOL0     H20632   5.054   0.953   7.498 -0.3606  3.0375  0.2269
  153MOL0     H20633   5.252   0.804   7.324 -0.1531  2.1186 -2.5151
  153MOL0     H20634   5.093   0.748   7.382  0.7034  0.6978  1.6860
  153MOL0     H20635   5.965   0.872   7.970 -1.6203  2.6179  1.1699
  153MOL0     H20636   6.116   1.049   7.913 -2.3078  1.1850  3.0261
  153MOL0     H20637   6.318   1.518   7.843  0.3165 -2.4431  0.3541
  153MOL0     H20638   6.430   1.678   7.705  2.2349 -1.2876 -0.0752
  153MOL0     H20639   5.541   2.188   6.848 -0.3796 -0.6864  0.2849
  153MOL0     H20640   5.376   2.045   6.890  1.6479  4.0602 -0.1213
  153MOL0     H20641   5.247   1.488   7.187  1.1413 -2.3394  0.6524
  153MOL0     H20642   5.078   1.316   7.121  0.5713 -1.4931  0.1930
  153MOL0     H20643   5.123   1.122   6.818 -0.1829 -0.8064 -0.4602
  153MOL0     H20644   5.034   1.197   6.694 -1.8207  1.4479  0.3317
  153MOL0     H20645   4.979   0.999   6.920  2.9991  1.2614 -0.6641
  153MOL0     H20646   4.937   0.957   6.761 -0.3420 -1.8992  1.3995
  153MOL0     H20647   4.740   1.155   6.793 -2.4643 -0.4208  0.4712
  153MOL0     H20648   4.776   1.141   6.960 -0.2934 -0.3444 -0.4741
  153MOL0     H20649   4.686   0.908   6.789  3.6846  0.0747 -0.3316
  153MOL0     H20650   4.723   0.908   6.963  3.3006  0.2725 -1.3372
  153MOL0     H20651   4.357   1.130   6.916  1.6434  3.5483  1.5833
  153MOL0     H20652   5.159   1.416   6.709 -0.3499 -1.4942  1.0571
  153MOL0     H20653   5.258   1.606   6.637  3.1262 -0.9598 -1.2881
  153MOL0     H20654   5.264   1.735   6.755  2.5245  0.6088  2.0795
  153MOL0     H20655   5.404   1.627   6.737 -0.6329 -2.9637 -1.9287
  154MOL0     O20656   1.534   7.696   4.835  0.6625  0.2855  0.1298
  154MOL0     C20657   1.535   7.777   4.740  1.6040 -0.7429 -0.2527
  154MOL0     O20658   1.632   7.795   4.653  0.3561  0.4973 -0.0328
  154MOL0     C20659   1.733   7.705   4.661  0.4866 -0.4298  0.8343
  154MOL0     C20660   1.750   7.608   4.559 -0.0637  0.7148 -0.1088
  154MOL0     C20661   1.864   7.528   4.571  0.0918 -0.3289 -0.1263
  154MOL0     C20662   1.965   7.543   4.664 -0.0521  0.0155  0.2445
  154MOL0     O20663   2.084   7.478   4.647 -0.3553  0.6167  0.0892
  154MOL0     C20664   2.153   7.433   4.763  0.2726  0.1621 -0.4342
  154MOL0     C20665   2.290   7.382   4.733 -0.4087  0.1580  0.0344
  154MOL0     C20666   2.298   7.254   4.651  1.0766 -0.0611 -0.7470
  154MOL0     C20667   2.444   7.226   4.607 -0.5282 -0.2478 -0.4068
  154MOL0     C20668   2.425   7.109   4.513  0.7760 -0.3470  0.8876
  154MOL0     C20669   2.555   7.073   4.443 -0.2455 -0.1242  0.7299
  154MOL0     C20670   2.521   6.980   4.318  0.6923 -0.8950 -0.0688
  154MOL0     C20671   2.624   6.979   4.206  0.2706  0.9040  0.5294
  154MOL0     N20672   2.588   6.908   4.082 -0.2324  0.5918 -0.0784
  154MOL0     C20673   2.672   6.851   3.985  0.2318  1.0383 -0.2892
  154MOL0     C20674   2.593   6.801   3.890 -0.4553 -0.1064  0.5673
  154MOL0     C20675   2.666   6.713   3.782 -0.3349 -0.6029 -0.4395
  154MOL0     C20676   2.580   6.596   3.750 -0.0081 -0.1594 -0.4738
  154MOL0     C20677   2.487   6.615   3.636  1.0282 -0.1004 -0.3969
  154MOL0     C20678   2.379   6.512   3.625  0.5534  1.6252 -1.3650
  154MOL0     O20679   2.439   6.393   3.568 -0.6493  0.5137 -0.1333
  154MOL0     C20680   2.458   6.372   3.437  0.5214 -0.2070  0.4142
  154MOL0     C20681   2.438   6.471   3.338  0.8473  0.6148 -0.2691
  154MOL0     C20682   2.477   6.451   3.207 -0.9270  0.5094 -0.3738
  154MOL0     C20683   2.528   6.326   3.170  0.2096 -0.3055 -0.1414
  154MOL0     C20684   2.566   6.315   3.031 -0.5846  0.1507  0.6419
  154MOL0     O20685   2.549   6.424   2.942 -0.7596  1.1350  0.0665
  154MOL0     C20686   2.598   6.409   2.815 -0.0670 -0.9278  0.5252
  154MOL0     C20687   2.734   6.431   2.786 -0.4326 -0.6325 -0.2502
  154MOL0     C20688   2.775   6.416   2.654 -0.8750  0.0995 -0.3597
  154MOL0     C20689   2.680   6.390   2.559  0.2521 -0.9335 -0.6284
  154MOL0     O20690   2.702   6.381   2.427 -0.3316  0.3064 -0.1211
  154MOL0     C20691   2.819   6.443   2.387 -0.1360 -0.2559  0.1846
  154MOL0     C20692   2.829   6.444   2.234 -0.0267 -0.2719 -0.1197
  154MOL0     C20693   2.736   6.548   2.177 -0.4585 -0.6719 -0.5067
  154MOL0     C20694   2.768   6.555   2.029  0.1927  0.2290 -0.3088
  154MOL0     C20695   2.697   6.676   1.967 -0.2379  0.3673 -1.0912
  154MOL0     C20696   2.544   6.661   1.971  0.1223 -0.2386  1.2681
  154MOL0     C20697   2.471   6.737   1.851 -0.5856  0.4981 -0.7056
  154MOL0     C20698   2.328   6.792   1.888 -0.1550 -0.4379 -0.6174
  154MOL0    Cl20699   2.346   6.937   1.985  0.0505 -0.0389 -0.2722
  154MOL0     C20700   2.541   6.396   2.588  0.7973  0.2368  0.7753
  154MOL0     C20701   2.501   6.390   2.715  1.0642  1.0114 -0.3899
  154MOL0     O20702   2.615   6.204   2.999  0.4477 -0.2936  0.4046
  154MOL0     C20703   2.528   6.216   3.259  0.6018 -0.3851 -0.1268
  154MOL0     C20704   2.499   6.247   3.396 -0.4852 -0.6535  0.2376
  154MOL0     N20705   2.466   6.836   3.917 -0.2600 -0.3313 -0.3112
  154MOL0     N20706   2.462   6.903   4.033 -0.3761  0.0769  0.7714
  154MOL0     C20707   1.953   7.656   4.753  0.3836  0.1496 -0.0251
  154MOL0     C20708   1.833   7.734   4.753 -0.1833  0.4140 -0.1305
  154MOL0     C20709   1.407   7.861   4.721  0.3733 -0.5676 -0.7349
  154MOL0     C20710   1.382   7.916   4.594 -0.5954 -0.0828  0.7965
  154MOL0     C20711   1.279   8.006   4.566 -0.6117  0.6514  0.3548
  154MOL0     C20712   1.189   8.035   4.664 -0.3329 -0.5446 -1.1983
  154MOL0     O20713   1.080   8.103   4.622  0.5052 -0.2543 -1.2156
  154MOL0     C20714   0.979   8.145   4.714 -0.2650 -0.9381  0.2272
  154MOL0     C20715   0.864   8.228   4.648  0.3095  0.5574 -0.0148
  154MOL0     C20716   0.892   8.380   4.653 -0.0036  0.3549 -0.5196
  154MOL0     C20717   0.794   8.474   4.585  0.7605 -0.1035  0.2531
  154MOL0     C20718   0.653   8.457   4.629 -0.2918 -0.1594 -0.0046
  154MOL0     C20719   0.538   8.446   4.668  0.1371 -0.7470  0.2726
  154MOL0     C20720   1.216   7.981   4.792  0.1162 -0.6615  0.0401
  154MOL0     C20721   1.323   7.895   4.830 -0.0500  0.2866  0.7759
  154MOL0     C20722   1.333   7.849   4.976  0.6586 -0.7656 -0.6353
  154MOL0     H20723   1.679   7.607   4.478  0.2662  5.3241 -0.7015
  154MOL0     H20724   1.879   7.459   4.489  0.5698 -1.7982  1.1342
  154MOL0     H20725   2.165   7.514   4.835  0.6851 -0.5304  0.2814
  154MOL0     H20726   2.088   7.358   4.809 -2.8025  3.0229  0.3198
  154MOL0     H20727   2.339   7.368   4.830 -0.5455  1.2840  0.2704
  154MOL0     H20728   2.344   7.454   4.671 -2.7623  2.3045  0.3442
  154MOL0     H20729   2.255   7.286   4.556  0.1937  1.8167  0.2336
  154MOL0     H20730   2.251   7.173   4.707  0.5450  1.4091  1.0295
  154MOL0     H20731   2.492   7.313   4.559  3.1068 -1.8632 -0.0758
  154MOL0     H20732   2.498   7.194   4.697 -1.4761  2.9824  1.5107
  154MOL0     H20733   2.374   7.024   4.560 -0.2428 -1.1677 -1.5432
  154MOL0     H20734   2.354   7.139   4.436 -1.5725 -3.8301  1.4089
  154MOL0     H20735   2.604   7.167   4.417 -0.6701 -0.0905  0.0145
  154MOL0     H20736   2.623   7.016   4.507  1.4407  0.9870 -0.0155
  154MOL0     H20737   2.420   7.006   4.285  0.5173  2.7494  2.6797
  154MOL0     H20738   2.519   6.884   4.370 -1.5708  0.0146  1.7359
  154MOL0     H20739   2.640   7.081   4.170  1.1254  0.9307  0.9555
  154MOL0     H20740   2.714   6.929   4.244 -0.3803  1.0606  2.3724
  154MOL0     H20741   2.779   6.836   3.979 -0.0407 -0.6972 -1.3888
  154MOL0     H20742   2.683   6.767   3.688 -2.9731 -2.6425 -2.2763
  154MOL0     H20743   2.763   6.681   3.821  0.0346  1.0039  0.0174
  154MOL0     H20744   2.642   6.512   3.715 -3.1726 -2.8786 -0.1409
  154MOL0     H20745   2.528   6.564   3.841  1.0050  0.8120  0.4744
  154MOL0     H20746   2.531   6.625   3.536 -0.6640 -0.6002 -1.2300
  154MOL0     H20747   2.441   6.713   3.654 -0.1804 -0.8955  0.9856
  154MOL0     H20748   2.306   6.552   3.555 -0.7824  0.3658 -0.7355
  154MOL0     H20749   2.323   6.488   3.716  3.5578 -1.3216 -0.0764
  154MOL0     H20750   2.411   6.572   3.367  0.9537  1.5703 -3.1591
  154MOL0     H20751   2.474   6.536   3.140 -0.5468  0.8016 -0.0251
  154MOL0     H20752   2.797   6.448   2.873 -0.1865  1.7204 -0.8275
  154MOL0     H20753   2.882   6.416   2.633 -0.9521 -3.4985 -1.4847
  154MOL0     H20754   2.828   6.542   2.433 -3.6618 -0.9545  2.8202
  154MOL0     H20755   2.904   6.378   2.409  0.2030  0.0678 -0.1666
  154MOL0     H20756   2.932   6.459   2.201 -0.0278  0.4259  0.1802
  154MOL0     H20757   2.780   6.352   2.198 -4.1570  1.0427  1.5269
  154MOL0     H20758   2.631   6.519   2.186 -0.7176  0.0554 -1.0661
  154MOL0     H20759   2.744   6.647   2.223 -0.2435 -1.1227  0.4675
  154MOL0     H20760   2.733   6.461   1.986  0.9998  0.3716 -1.3182
  154MOL0     H20761   2.877   6.562   2.020  0.1449 -0.1016 -1.2377
  154MOL0     H20762   2.738   6.687   1.866  2.1097  1.6424 -0.0759
  154MOL0     H20763   2.737   6.758   2.028  1.2708 -2.0376  1.3817
  154MOL0     H20764   2.524   6.555   1.954 -2.3099  0.5623 -1.8158
  154MOL0     H20765   2.512   6.679   2.074  1.2777  1.6844  1.3547
  154MOL0     H20766   2.465   6.668   1.767 -1.2964 -1.2822  0.7428
  154MOL0     H20767   2.533   6.814   1.804 -1.3418  0.8630 -1.1126
  154MOL0     H20768   2.280   6.832   1.798  2.2289  3.8923 -0.2310
  154MOL0     H20769   2.282   6.709   1.943  2.9912 -2.5707 -0.9738
  154MOL0     H20770   2.465   6.408   2.512  1.6734 -1.6795 -0.4848
  154MOL0     H20771   2.397   6.375   2.745  2.4108 -1.3611  3.9680
  154MOL0     H20772   2.556   6.115   3.232  1.9141 -0.3191  0.8591
  154MOL0     H20773   2.495   6.178   3.480 -0.8573 -1.6826 -0.6125
  154MOL0     H20774   2.031   7.694   4.818  1.7487 -1.0973 -0.8631
  154MOL0     H20775   1.833   7.822   4.817  0.3900 -0.5907  1.3284
  154MOL0     H20776   1.459   7.894   4.522 -0.9873  1.2147 -0.0412
  154MOL0     H20777   1.278   8.051   4.467  0.3150  0.8701  0.4327
  154MOL0     H20778   1.006   8.208   4.800 -2.4050  0.4486 -0.0475
  154MOL0     H20779   0.937   8.056   4.761  1.0591 -1.9539 -0.4600
  154MOL0     H20780   0.776   8.206   4.710 -0.3651  0.9701 -0.8167
  154MOL0     H20781   0.846   8.197   4.545  5.6028 -1.4638 -0.6335
  154MOL0     H20782   0.990   8.405   4.610  0.3121 -1.2639 -0.7773
  154MOL0     H20783   0.910   8.402   4.759  0.8653 -0.2534 -0.5315
  154MOL0     H20784   0.819   8.579   4.598 -1.9544  0.8003 -1.0122
  154MOL0     H20785   0.802   8.458   4.477 -1.7491  2.0102 -0.3595
  154MOL0     H20786   0.440   8.432   4.708 -0.6715  0.0316 -1.3388
  154MOL0     H20787   1.144   8.005   4.869  0.5085  0.5225  0.0687
  154MOL0     H20788   1.271   7.910   5.043  0.5906 -2.3456  0.8194
  154MOL0     H20789   1.295   7.746   4.984 -2.7019  0.1254 -2.8787
  154MOL0     H20790   1.434   7.862   5.016 -0.2677  4.2739  0.7098
  155MOL0     O20791   8.435   2.077   1.325  0.2093  0.1978 -0.8816
  155MOL0     C20792   8.527   2.106   1.250 -0.2628  0.8847  0.5844
  155MOL0     O20793   8.559   2.234   1.216 -0.2228 -0.8078 -0.1289
  155MOL0     C20794   8.473   2.335   1.266 -0.8713  0.5744 -0.2060
  155MOL0     C20795   8.396   2.407   1.176  0.0557  0.4662 -0.2421
  155MOL0     C20796   8.326   2.520   1.218  0.2407  0.7634 -0.2603
  155MOL0     C20797   8.324   2.551   1.351  0.4643  1.2336 -0.8537
  155MOL0     O20798   8.247   2.659   1.391 -0.1651 -0.8498 -1.0479
  155MOL0     C20799   8.142   2.626   1.491 -0.4287  0.1644 -0.5469
  155MOL0     C20800   8.041   2.539   1.422 -1.3353 -0.5516  0.0906
  155MOL0     C20801   7.941   2.622   1.340 -0.2767 -0.0201  0.1495
  155MOL0     C20802   7.836   2.680   1.424 -0.6933 -0.6838 -0.3682
  155MOL0     C20803   7.727   2.756   1.337 -0.7812 -0.3906 -0.2829
  155MOL0     C20804   7.597   2.784   1.410 -0.2118 -0.2817 -0.1901
  155MOL0     C20805   7.581   2.929   1.466 -0.5194 -0.3825 -0.0628
  155MOL0     C20806   7.446   2.961   1.531 -0.0196 -0.1310 -0.3888
  155MOL0     N20807   7.339   2.924   1.445  0.1472 -0.3725  0.8192
  155MOL0     C20808   7.324   2.973   1.310  1.2603  0.2597 -0.7557
  155MOL0     C20809   7.207   2.917   1.264 -0.3336  0.6612  0.1351
  155MOL0     C20810   7.144   2.911   1.133 -0.1611  0.5249  0.1252
  155MOL0     C20811   7.003   2.958   1.154 -0.3942 -0.0797 -0.3187
  155MOL0     C20812   6.908   2.872   1.062 -0.1732  0.0752  0.1934
  155MOL0     C20813   6.767   2.941   1.029 -0.7471 -0.9589 -0.3076
  155MOL0     O20814   6.688   2.840   0.967  0.2578  0.5378  0.0435
  155MOL0     C20815   6.554   2.856   1.002  0.1550  0.8971 -0.4307
  155MOL0     C20816   6.492   2.743   1.052 -0.5351  0.4618 -0.2168
  155MOL0     C20817   6.356   2.740   1.086  0.3321  0.2777  0.5386
  155MOL0     C20818   6.277   2.852   1.069 -0.2032 -0.0918 -1.0504
  155MOL0     C20819   6.140   2.844   1.103 -0.1501 -0.0573 -0.2732
  155MOL0     O20820   6.104   2.763   1.210 -0.1018 -0.3973 -0.0666
  155MOL0     C20821   5.970   2.720   1.214 -1.1072  0.4549 -1.2270
  155MOL0     C20822   5.898   2.679   1.098  0.0962 -0.1120 -0.7380
  155MOL0     C20823   5.761   2.637   1.089 -0.1170  0.2916  0.1594
  155MOL0     C20824   5.690   2.631   1.205  0.7499  0.0238 -0.4597
  155MOL0     O20825   5.556   2.609   1.193  0.2287  0.6983  0.3576
  155MOL0     C20826   5.479   2.628   1.314 -0.3891  0.2231  0.2752
  155MOL0     C20827   5.333   2.617   1.287  0.6665 -0.3567  0.0151
  155MOL0     C20828   5.251   2.559   1.404 -1.4546 -0.5615  0.2485
  155MOL0     C20829   5.246   2.631   1.541 -0.0341 -0.2584  0.6969
  155MOL0     C20830   5.122   2.595   1.630 -0.3405  0.8883  0.3229
  155MOL0     C20831   5.116   2.681   1.751 -1.4810  1.0182 -0.3350
  155MOL0     C20832   5.196   2.629   1.875 -0.3970 -0.9501  0.3591
  155MOL0     C20833   5.202   2.737   1.984  0.1032  0.5480 -0.0291
  155MOL0    Cl20834   5.033   2.776   2.047  0.5264  0.3309  0.7140
  155MOL0     C20835   5.754   2.660   1.326 -0.5485  0.0405  0.2100
  155MOL0     C20836   5.892   2.708   1.328  0.6738 -0.8154  0.0913
  155MOL0     O20837   6.054   2.908   1.028  0.0386  0.3081 -1.1654
  155MOL0     C20838   6.340   2.966   1.009  0.2759  0.2469  0.8305
  155MOL0     C20839   6.477   2.969   0.975  0.4043 -0.6265 -0.2769
  155MOL0     N20840   7.163   2.832   1.370 -0.7053  0.4178  0.2206
  155MOL0     N20841   7.241   2.837   1.470 -0.3306 -0.3507  0.0914
  155MOL0     C20842   8.410   2.489   1.444 -0.4322  0.2075  0.0038
  155MOL0     C20843   8.484   2.377   1.402 -0.1400  0.5955  0.1051
  155MOL0     C20844   8.619   1.999   1.200  0.2629  0.0350  0.9471
  155MOL0     C20845   8.673   2.014   1.068 -0.8295  0.7359  0.3973
  155MOL0     C20846   8.745   1.912   1.009 -0.0059 -0.5122  0.3737
  155MOL0     C20847   8.756   1.790   1.067 -0.1603 -0.2064  0.9365
  155MOL0     O20848   8.824   1.697   0.993 -0.0709  0.1943 -0.6313
  155MOL0     C20849   8.810   1.554   1.035 -0.1940 -0.3668  0.0691
  155MOL0     C20850   8.858   1.468   0.930 -0.0031  0.2029 -0.1574
  155MOL0     C20851   8.770   1.459   0.807  0.3912 -0.2259  0.0279
  155MOL0     C20852   8.673   1.348   0.806  0.2276  1.3352  0.6883
  155MOL0     C20853   8.606   1.344   0.673  0.5936 -0.0359  0.2658
  155MOL0     C20854   8.538   1.336   0.569  1.0640 -0.9170 -1.4160
  155MOL0     C20855   8.702   1.766   1.196  0.5821 -0.6577  1.0173
  155MOL0     C20856   8.635   1.874   1.262 -0.1387 -0.0535  0.2076
  155MOL0     C20857   8.599   1.852   1.404  0.2043 -0.2962 -0.8517
  155MOL0     H20858   8.400   2.380   1.071  1.7273  0.1101 -0.1063
  155MOL0     H20859   8.247   2.566   1.159  0.9604  0.3409 -1.5773
  155MOL0     H20860   8.189   2.573   1.574 -1.6379  0.2801  0.2242
  155MOL0     H20861   8.112   2.719   1.538  3.8504  0.7678  1.4901
  155MOL0     H20862   7.990   2.479   1.497 -0.4438  0.4000  1.5195
  155MOL0     H20863   8.095   2.476   1.351 -2.5382  0.6711 -2.0230
  155MOL0     H20864   7.902   2.561   1.258 -0.5506 -1.7468  1.5161
  155MOL0     H20865   7.998   2.708   1.304  0.2104 -0.5200 -0.2975
  155MOL0     H20866   7.779   2.605   1.479  1.4192 -1.9431  0.2261
  155MOL0     H20867   7.875   2.754   1.495 -1.2983 -1.3782  0.7108
  155MOL0     H20868   7.773   2.850   1.304  0.0739 -0.9270 -0.6767
  155MOL0     H20869   7.716   2.688   1.251  1.6527 -2.4246  0.8774
  155MOL0     H20870   7.514   2.765   1.341  0.8932  3.5405 -2.8836
  155MOL0     H20871   7.595   2.713   1.493 -0.0134 -0.1221 -0.0492
  155MOL0     H20872   7.589   3.001   1.384 -1.8393 -1.8262 -1.5394
  155MOL0     H20873   7.662   2.947   1.538  0.9018 -2.7665 -0.9370
  155MOL0     H20874   7.447   2.900   1.622  0.6961 -0.3861 -0.5575
  155MOL0     H20875   7.449   3.068   1.551  2.4264  0.5933 -3.6821
  155MOL0     H20876   7.387   3.043   1.256 -0.5384  2.9116  0.3402
  155MOL0     H20877   7.187   2.963   1.047  1.8446 -1.7203 -0.3573
  155MOL0     H20878   7.136   2.808   1.099  2.0554  0.8227 -1.5500
  155MOL0     H20879   6.980   2.959   1.261  2.4087  1.6932  0.3655
  155MOL0     H20880   7.006   3.062   1.122  0.2205 -0.6457 -2.2128
  155MOL0     H20881   6.887   2.782   1.119  0.6908  1.2381  2.4901
  155MOL0     H20882   6.965   2.836   0.976  2.5875 -0.9403  2.3048
  155MOL0     H20883   6.780   3.026   0.961 -1.7749 -1.7099 -1.4990
  155MOL0     H20884   6.719   2.962   1.125 -1.5653 -0.7354 -0.7581
  155MOL0     H20885   6.551   2.655   1.075  0.6589  1.7397  2.0986
  155MOL0     H20886   6.310   2.646   1.114 -0.9945 -0.0709 -2.4059
  155MOL0     H20887   5.963   2.677   1.011 -1.2186 -0.9347 -1.7233
  155MOL0     H20888   5.716   2.607   0.995  1.2254  0.1245 -0.4463
  155MOL0     H20889   5.517   2.562   1.393  0.9528  0.4851 -0.1324
  155MOL0     H20890   5.495   2.731   1.348  0.6356 -0.0276  0.6000
  155MOL0     H20891   5.301   2.719   1.266  0.0527  0.4169  3.9559
  155MOL0     H20892   5.307   2.561   1.196  0.2453 -0.9796  0.5066
  155MOL0     H20893   5.147   2.566   1.372 -1.7338  0.2369  1.2710
  155MOL0     H20894   5.289   2.457   1.416 -2.2553 -0.8100  0.7892
  155MOL0     H20895   5.259   2.739   1.526 -1.2050 -0.3727 -1.6200
  155MOL0     H20896   5.329   2.599   1.605  2.0973  0.9332 -1.3071
  155MOL0     H20897   5.114   2.487   1.650 -0.7114  0.8194 -0.1880
  155MOL0     H20898   5.034   2.609   1.568  1.5309 -2.5942 -3.6034
  155MOL0     H20899   5.157   2.777   1.717  0.6646 -0.7820 -3.3691
  155MOL0     H20900   5.010   2.682   1.776 -2.1071 -3.3390 -2.0140
  155MOL0     H20901   5.300   2.604   1.852 -0.8509  0.3521 -3.8209
  155MOL0     H20902   5.144   2.540   1.910 -2.4858  0.0878  0.0082
  155MOL0     H20903   5.259   2.700   2.070 -0.8189  2.4142  1.4764
  155MOL0     H20904   5.258   2.822   1.944  1.6911 -0.6543 -0.5017
  155MOL0     H20905   5.702   2.672   1.421  2.6331  1.9465  1.8711
  155MOL0     H20906   5.937   2.746   1.419  1.2671 -2.2034  0.3975
  155MOL0     H20907   6.274   3.049   0.987 -1.3071 -0.5710  2.2372
  155MOL0     H20908   6.523   3.050   0.920 -1.7923  1.1494  0.3515
  155MOL0     H20909   8.418   2.524   1.546 -1.4265 -1.1528  0.5877
  155MOL0     H20910   8.542   2.308   1.463 -0.6070 -1.4936 -1.6714
  155MOL0     H20911   8.664   2.106   1.011 -1.3018  3.4253  4.3867
  155MOL0     H20912   8.779   1.928   0.908 -0.9265 -3.1468 -0.4369
  155MOL0     H20913   8.704   1.530   1.047 -1.2445  4.1396  1.6679
  155MOL0     H20914   8.865   1.536   1.128  0.9575 -2.4918 -0.9355
  155MOL0     H20915   8.859   1.360   0.950 -0.6512  0.1916 -0.1800
  155MOL0     H20916   8.964   1.489   0.909  1.2841 -5.3503 -0.7511
  155MOL0     H20917   8.834   1.464   0.718  0.9358 -0.6890  0.3882
  155MOL0     H20918   8.713   1.552   0.796  0.1817 -0.5547 -2.0359
  155MOL0     H20919   8.726   1.255   0.831 -0.4790  1.4402  2.7950
  155MOL0     H20920   8.606   1.355   0.892 -2.4179  2.7100 -1.3109
  155MOL0     H20921   8.470   1.307   0.491  0.2421 -1.9101 -0.3687
  155MOL0     H20922   8.709   1.676   1.256 -0.5903 -1.6308 -0.2234
  155MOL0     H20923   8.490   1.861   1.414  0.3026  2.3118 -1.5678
  155MOL0     H20924   8.634   1.754   1.439  0.0218 -0.4926 -1.2127
  155MOL0     H20925   8.657   1.922   1.465  1.9191 -1.0525 -1.5514
  156MOL0     O20926   8.615   5.080   3.904  0.8789  0.5202 -0.2023
  156MOL0     C20927   8.650   4.967   3.862  0.0536  1.4297  0.6376
  156MOL0     O20928   8.781   4.937   3.827  0.6420  0.0950 -0.0887
  156MOL0     C20929   8.874   5.037   3.797  0.8694  0.0671 -1.3318
  156MOL0     C20930   8.846   5.150   3.716  0.4356 -0.1745 -0.7641
  156MOL0     C20931   8.953   5.242   3.683  0.0748 -0.4052 -0.2293
  156MOL0     C20932   9.083   5.230   3.725  0.4709 -0.2659 -0.6424
  156MOL0     O20933   9.174   5.324   3.693  0.2656  0.0499 -0.7170
  156MOL0     C20934   9.293   5.264   3.649 -0.0064  0.0521  0.0730
  156MOL0     C20935   9.380   5.358   3.557  0.7258 -0.5361 -0.3452
  156MOL0     C20936   9.308   5.407   3.431  0.4834  0.3244 -0.6297
  156MOL0     C20937   9.260   5.555   3.437  1.4458 -1.0803  0.4667
  156MOL0     C20938   9.177   5.570   3.314 -0.7985  0.0279  0.3578
  156MOL0     C20939   9.111   5.711   3.307 -0.0734  0.7651  0.5859
  156MOL0     C20940   9.039   5.732   3.175  0.2323 -0.0218 -0.5644
  156MOL0     C20941   8.940   5.632   3.137  0.3575 -0.2034 -0.3633
  156MOL0     N20942   8.821   5.635   3.224  0.5331 -0.1308 -0.0277
  156MOL0     C20943   8.795   5.569   3.347 -0.2311  0.1428 -0.0132
  156MOL0     C20944   8.661   5.575   3.362 -0.1953  0.4918  0.1627
  156MOL0     C20945   8.547   5.531   3.457  0.1357 -1.4227  0.2030
  156MOL0     C20946   8.608   5.491   3.590  0.3933  0.4957 -0.6595
  156MOL0     C20947   8.496   5.455   3.688  0.9028 -0.1381 -0.5160
  156MOL0     C20948   8.390   5.352   3.644 -1.1398  0.1328 -0.1289
  156MOL0     O20949   8.283   5.407   3.570 -0.3339  0.3341  0.8445
  156MOL0     C20950   8.183   5.324   3.517 -1.0195 -1.2364 -0.1243
  156MOL0     C20951   8.060   5.383   3.493  0.0490  0.6745 -0.3076
  156MOL0     C20952   7.952   5.314   3.445  0.2794 -0.0440 -0.1109
  156MOL0     C20953   7.971   5.180   3.401  0.2886  0.5109 -0.2323
  156MOL0     C20954   7.862   5.105   3.353 -0.1436  0.5563 -0.3012
  156MOL0     O20955   7.739   5.161   3.352  0.3350  0.2192  0.4691
  156MOL0     C20956   7.628   5.085   3.331 -0.0007  0.4867  0.6627
  156MOL0     C20957   7.587   4.989   3.422 -0.4623 -0.5720  0.3317
  156MOL0     C20958   7.461   4.937   3.419 -0.5196  0.0683  0.0741
  156MOL0     C20959   7.369   4.981   3.323 -0.4607 -0.4250  0.0744
  156MOL0     O20960   7.238   4.934   3.326 -0.4324 -0.3124 -0.0866
  156MOL0     C20961   7.157   4.970   3.431 -0.6319 -1.3639 -0.0161
  156MOL0     C20962   7.044   4.860   3.446  0.4642 -0.1268 -1.3058
  156MOL0     C20963   6.914   4.915   3.526  0.4455 -0.4198  0.0891
  156MOL0     C20964   6.807   4.801   3.543 -0.0983  0.1287  1.1899
  156MOL0     C20965   6.720   4.818   3.669  0.0633 -0.3374  0.4305
  156MOL0     C20966   6.805   4.808   3.808 -1.0363  0.1398 -0.3003
  156MOL0     C20967   6.734   4.709   3.901  0.2608  0.3891 -0.5226
  156MOL0     C20968   6.780   4.708   4.046 -0.1423 -0.2746  0.0231
  156MOL0    Cl20969   6.717   4.855   4.121 -0.0654 -0.0484 -0.6332
  156MOL0     C20970   7.416   5.050   3.211  0.7376  0.2923 -0.6978
  156MOL0     C20971   7.545   5.105   3.217 -0.6406  0.0863  0.1292
  156MOL0     O20972   7.885   4.990   3.313  0.2645 -0.1946  0.6134
  156MOL0     C20973   8.092   5.115   3.422  0.8061  0.2483 -0.6361
  156MOL0     C20974   8.189   5.186   3.491 -0.2253  0.1674  0.1515
  156MOL0     N20975   8.618   5.643   3.250 -0.0464  1.0653  0.6930
  156MOL0     N20976   8.707   5.685   3.174  0.3501 -0.1654  0.4276
  156MOL0     C20977   9.106   5.116   3.801 -0.9449  0.4563 -0.6649
  156MOL0     C20978   9.009   5.030   3.848  0.5932  1.5395  0.1948
  156MOL0     C20979   8.536   4.878   3.805 -0.4415 -0.2643  0.2651
  156MOL0     C20980   8.420   4.943   3.755 -0.1851  0.2728  0.2641
  156MOL0     C20981   8.311   4.873   3.705 -0.0053  0.1282 -0.1316
  156MOL0     C20982   8.313   4.729   3.713 -0.8725 -0.2801 -0.1920
  156MOL0     O20983   8.202   4.659   3.659 -0.8156  0.1631  0.3695
  156MOL0     C20984   8.212   4.519   3.645 -0.1538  0.4588 -0.1201
  156MOL0     C20985   8.120   4.458   3.534 -1.3377 -0.4400 -0.2377
  156MOL0     C20986   7.966   4.483   3.547 -0.0219  0.6301 -0.7473
  156MOL0     C20987   7.935   4.630   3.515 -0.0625  0.0810  0.9715
  156MOL0     C20988   7.787   4.644   3.495 -0.5738 -0.4261 -1.2532
  156MOL0     C20989   7.669   4.645   3.461 -0.2028  0.8188 -1.3244
  156MOL0     C20990   8.427   4.665   3.760  1.4899 -0.9988  0.1078
  156MOL0     C20991   8.539   4.739   3.800 -0.4373  0.2128  0.0958
  156MOL0     C20992   8.646   4.662   3.867  0.9426 -0.1741  0.9486
  156MOL0     H20993   8.744   5.164   3.682 -0.1267  0.0935  0.9116
  156MOL0     H20994   8.937   5.334   3.628 -0.8069 -0.4238 -0.0180
  156MOL0     H20995   9.345   5.247   3.744  1.9041 -0.1823 -0.9541
  156MOL0     H20996   9.276   5.169   3.599 -1.1770 -0.8054  1.9754
  156MOL0     H20997   9.465   5.302   3.517  0.0568 -0.1498 -2.4528
  156MOL0     H20998   9.427   5.443   3.609 -0.1510  1.7114 -2.9887
  156MOL0     H20999   9.223   5.344   3.404 -1.8348  1.7860  2.6166
  156MOL0     H21000   9.389   5.401   3.357 -0.6199 -1.2425 -1.7737
  156MOL0     H21001   9.214   5.561   3.536  5.0954  0.8577  2.2639
  156MOL0     H21002   9.334   5.636   3.443  1.5540 -1.1887  0.6136
  156MOL0     H21003   9.227   5.550   3.220 -0.9033  1.3117  0.0194
  156MOL0     H21004   9.093   5.500   3.329 -0.4150 -0.9429 -1.7718
  156MOL0     H21005   9.050   5.724   3.397  1.2063 -2.2741  2.0360
  156MOL0     H21006   9.189   5.788   3.295 -1.3795  1.8774 -1.4335
  156MOL0     H21007   9.104   5.754   3.090 -2.8324  1.7322 -2.6813
  156MOL0     H21008   8.993   5.829   3.200 -0.9120 -1.0134  1.4566
  156MOL0     H21009   8.914   5.662   3.035 -1.3852 -1.8653 -0.4660
  156MOL0     H21010   8.978   5.529   3.137  0.5358 -0.1381 -0.4411
  156MOL0     H21011   8.877   5.538   3.411 -0.2922 -1.0337 -0.4752
  156MOL0     H21012   8.479   5.615   3.472  1.8433  0.1684 -0.5947
  156MOL0     H21013   8.478   5.458   3.413 -1.9481  1.2538 -1.2951
  156MOL0     H21014   8.674   5.406   3.571 -0.9058 -0.4845 -0.9318
  156MOL0     H21015   8.666   5.571   3.637 -0.2560 -0.7253  2.4960
  156MOL0     H21016   8.447   5.542   3.733  0.3166  0.3044 -1.9768
  156MOL0     H21017   8.542   5.422   3.782 -1.9402 -1.6431  0.4604
  156MOL0     H21018   8.346   5.313   3.736 -3.0031 -0.6264 -1.2858
  156MOL0     H21019   8.444   5.271   3.593  0.0031  0.8495 -0.0930
  156MOL0     H21020   8.055   5.491   3.501 -2.7731  0.8539 -2.6868
  156MOL0     H21021   7.859   5.366   3.426  1.4474  0.5875 -6.1322
  156MOL0     H21022   7.657   4.977   3.504  0.4105 -1.1456 -0.4827
  156MOL0     H21023   7.434   4.857   3.486  0.6692 -2.6451 -2.4661
  156MOL0     H21024   7.210   4.982   3.525 -1.8629  1.6351  0.3929
  156MOL0     H21025   7.110   5.065   3.405 -0.9538 -0.3604  3.6834
  156MOL0     H21026   7.017   4.839   3.342 -0.3750  1.4700 -1.4438
  156MOL0     H21027   7.078   4.774   3.504  1.7813  2.3751  1.9549
  156MOL0     H21028   6.946   4.940   3.628  0.6745  0.4818 -0.1940
  156MOL0     H21029   6.874   4.998   3.467  0.8509 -0.4243 -0.1981
  156MOL0     H21030   6.864   4.709   3.555 -1.5901 -1.0587 -0.3098
  156MOL0     H21031   6.742   4.779   3.458  0.1027  4.3971 -0.3070
  156MOL0     H21032   6.649   4.735   3.669 -2.4467  1.6116  3.4226
  156MOL0     H21033   6.657   4.908   3.665 -1.3711 -1.3231 -0.3402
  156MOL0     H21034   6.902   4.770   3.775 -0.5461  0.7395  0.4245
  156MOL0     H21035   6.829   4.909   3.843  0.5535  0.3405 -1.8456
  156MOL0     H21036   6.763   4.616   3.852  3.7348 -0.0967  2.0592
  156MOL0     H21037   6.627   4.729   3.908  0.9729  4.4950  2.5395
  156MOL0     H21038   6.746   4.612   4.085  1.6329 -1.3860 -0.9925
  156MOL0     H21039   6.889   4.697   4.050  0.3323  3.0478 -1.2095
  156MOL0     H21040   7.351   5.055   3.123  0.5576 -0.3788 -0.6085
  156MOL0     H21041   7.574   5.168   3.133  0.7640 -1.1150 -0.3270
  156MOL0     H21042   8.106   5.011   3.396 -0.8955 -0.3617  0.7008
  156MOL0     H21043   8.274   5.125   3.518 -1.1974 -1.6875 -0.8240
  156MOL0     H21044   9.202   5.087   3.842 -0.8540 -2.6227 -2.7391
  156MOL0     H21045   9.030   4.936   3.899  2.5920  1.2969 -0.9541
  156MOL0     H21046   8.412   5.050   3.739 -2.4573 -0.2503 -3.2843
  156MOL0     H21047   8.231   4.930   3.661  0.7211  1.2497 -0.0317
  156MOL0     H21048   8.193   4.464   3.737  1.7743 -1.1558 -0.6205
  156MOL0     H21049   8.311   4.492   3.606 -1.3500 -0.2440 -2.9347
  156MOL0     H21050   8.142   4.352   3.522  0.0043 -0.4580  1.8802
  156MOL0     H21051   8.153   4.509   3.443 -1.8958  1.4889  0.5838
  156MOL0     H21052   7.943   4.458   3.652  0.2883 -0.7597 -0.9858
  156MOL0     H21053   7.912   4.416   3.479 -2.8846  1.4381  0.5743
  156MOL0     H21054   7.980   4.689   3.595  2.9969 -1.5820  0.6310
  156MOL0     H21055   7.968   4.666   3.418 -3.1074  0.2320 -0.1386
  156MOL0     H21056   7.564   4.640   3.439 -0.3240 -0.4875 -0.5607
  156MOL0     H21057   8.427   4.556   3.766  2.3544 -0.9970  0.2701
  156MOL0     H21058   8.627   4.555   3.854  1.0803 -0.6775  4.2097
  156MOL0     H21059   8.743   4.686   3.821  1.4658 -0.6818  1.7536
  156MOL0     H21060   8.648   4.690   3.972  1.4682  0.3456  0.8077
  157MOL0     O21061   6.631   9.591   9.131 -0.5386 -0.5757 -0.7219
  157MOL0     C21062   6.576   9.506   9.210 -0.5941 -0.0092  0.5232
  157MOL0     O21063   6.637   9.434   9.306 -0.0483  0.1466 -0.2639
  157MOL0     C21064   6.765   9.481   9.337 -0.7544  0.5143  0.0711
  157MOL0     C21065   6.876   9.462   9.255  0.0350 -0.4529  1.0348
  157MOL0     C21066   7.003   9.489   9.310 -0.3281  0.3175  0.1038
  157MOL0     C21067   7.011   9.545   9.438  0.3355 -0.0477 -0.6166
  157MOL0     O21068   7.128   9.584   9.493  0.0226  0.9145  0.8019
  157MOL0     C21069   7.172   9.516   9.609  0.6051 -0.0431 -0.4686
  157MOL0     C21070   7.262   9.608   9.683  0.3453  0.8701 -0.7204
  157MOL0     C21071   7.184   9.718   9.755 -0.3634 -0.2092 -0.2969
  157MOL0     C21072   7.118   9.653   9.887 -0.0229 -0.0879 -0.3713
  157MOL0     C21073   7.018   9.749   9.958  1.4127  0.6900  0.9634
  157MOL0     C21074   7.012   9.727  10.106  0.2901  1.5268 -0.2113
  157MOL0     C21075   6.905   9.812  10.185 -0.5528  0.4852  0.1736
  157MOL0     C21076   6.903   9.781  10.336  0.2452  0.1646  0.3121
  157MOL0     N21077   6.816   9.671  10.372 -0.2662  0.3613 -0.1921
  157MOL0     C21078   6.691   9.672  10.419  0.1634  0.9684  0.5470
  157MOL0     C21079   6.650   9.537  10.434 -0.0244 -0.7705 -0.3296
  157MOL0     C21080   6.519   9.492  10.494  0.1107 -0.8710  0.3971
  157MOL0     C21081   6.461   9.350  10.455 -0.9371 -0.1084 -0.3986
  157MOL0     C21082   6.316   9.333  10.497 -0.3063 -0.0143  0.2644
  157MOL0     C21083   6.276   9.190  10.470  0.3619  0.5668 -0.3352
  157MOL0     O21084   6.238   9.167  10.330  0.7400 -0.4479  0.0113
  157MOL0     C21085   6.173   9.047  10.308 -0.0610  0.8220 -0.4205
  157MOL0     C21086   6.184   8.938  10.399  0.3643 -0.4449  0.2098
  157MOL0     C21087   6.135   8.807  10.364 -0.7234  0.5957 -0.1032
  157MOL0     C21088   6.042   8.793  10.263  0.3044  1.5231  0.4833
  157MOL0     C21089   5.970   8.671  10.229  0.2306  0.2514 -0.0735
  157MOL0     O21090   5.885   8.674  10.125  0.3412 -0.1711  0.2175
  157MOL0     C21091   5.774   8.588  10.115  0.0650  0.5371  0.1863
  157MOL0     C21092   5.740   8.509  10.006  0.5413  0.8039 -0.3438
  157MOL0     C21093   5.628   8.415  10.008 -0.1070  0.2212 -0.4921
  157MOL0     C21094   5.557   8.415  10.122  0.3314  0.4959  0.7993
  157MOL0     O21095   5.447   8.337  10.148 -0.1683  0.4761  0.5149
  157MOL0     C21096   5.361   8.299  10.043 -0.2432  0.2789  0.3844
  157MOL0     C21097   5.271   8.175  10.083 -0.7577  0.2517 -0.2644
  157MOL0     C21098   5.157   8.215  10.179  0.4356  0.5407 -0.4418
  157MOL0     C21099   5.087   8.086  10.234 -0.4620  0.6300 -0.1703
  157MOL0     C21100   5.150   8.049  10.373  1.2885  0.3241  0.0117
  157MOL0     C21101   5.035   8.058  10.477 -0.2680  0.6061  0.7293
  157MOL0     C21102   4.942   7.922  10.469 -0.3934 -0.5136  0.4952
  157MOL0     C21103   4.838   7.916  10.574  0.8357  0.0335  0.1804
  157MOL0    Cl21104   4.906   7.883  10.745  0.5951  0.2920 -0.2334
  157MOL0     C21105   5.587   8.490  10.233 -0.1495 -0.2131  0.0220
  157MOL0     C21106   5.690   8.584  10.225  0.4166  0.9700  0.0123
  157MOL0     O21107   5.999   8.572  10.296 -0.6157  0.6489  0.1546
  157MOL0     C21108   6.024   8.903  10.180  0.0529  0.2102 -0.0332
  157MOL0     C21109   6.091   9.029  10.198 -0.1565 -0.0715  0.6695
  157MOL0     N21110   6.756   9.457  10.386  0.2446  1.0251  0.5085
  157MOL0     N21111   6.855   9.532  10.355  0.0306 -0.7967  0.3183
  157MOL0     C21112   6.898   9.580   9.506  0.7709 -0.0813  0.4744
  157MOL0     C21113   6.765   9.546   9.460  0.1451 -0.5357 -0.1339
  157MOL0     C21114   6.444   9.470   9.189  0.2116  0.4068  0.5412
  157MOL0     C21115   6.415   9.363   9.101  0.0404  0.3672  0.3596
  157MOL0     C21116   6.284   9.328   9.084 -0.5599 -0.5098 -0.1711
  157MOL0     C21117   6.181   9.386   9.150  0.0014 -0.3159  0.7250
  157MOL0     O21118   6.056   9.359   9.121  0.3730  0.0428 -0.2743
  157MOL0     C21119   5.979   9.290   9.222 -0.3847  0.6928  0.5191
  157MOL0     C21120   6.006   9.134   9.226 -0.2914 -0.0778  0.3533
  157MOL0     C21121   5.948   9.067   9.097 -0.6491  0.5066 -0.3622
  157MOL0     C21122   5.966   8.916   9.103 -0.2448  0.3831  0.0918
  157MOL0     C21123   5.877   8.854   9.010  0.8119 -0.1565 -0.2922
  157MOL0     C21124   5.815   8.803   8.926  0.1613  0.1731  0.3864
  157MOL0     C21125   6.206   9.489   9.243 -0.3749 -0.6545 -0.4107
  157MOL0     C21126   6.342   9.524   9.271 -1.1659  0.8255 -0.1791
  157MOL0     C21127   6.378   9.612   9.397  0.3403  1.0967  0.9356
  157MOL0     H21128   6.873   9.428   9.152  5.4270  1.8674 -0.2191
  157MOL0     H21129   7.092   9.460   9.254 -0.5365  0.8950 -0.5485
  157MOL0     H21130   7.081   9.487   9.663  1.0456 -1.0543 -0.2296
  157MOL0     H21131   7.223   9.423   9.582  0.2375 -0.1497 -0.8028
  157MOL0     H21132   7.338   9.649   9.616  2.2139  2.6773  2.2451
  157MOL0     H21133   7.319   9.548   9.755 -0.4546  1.9773  0.9179
  157MOL0     H21134   7.099   9.747   9.694  0.5160  2.3020 -0.4581
  157MOL0     H21135   7.248   9.802   9.785  2.0597 -2.1214  0.1973
  157MOL0     H21136   7.058   9.568   9.855 -0.5016 -0.5859  1.6893
  157MOL0     H21137   7.195   9.621   9.958  0.4492  2.3136  0.2909
  157MOL0     H21138   7.058   9.850   9.955 -0.3441  1.7044  5.2662
  157MOL0     H21139   6.923   9.742   9.903  1.3236  0.4041  1.1492
  157MOL0     H21140   6.996   9.622  10.132  5.0808  0.5394 -0.3391
  157MOL0     H21141   7.112   9.756  10.138  0.9424  1.4942 -2.0878
  157MOL0     H21142   6.807   9.808  10.137 -0.0758  0.2225 -0.7961
  157MOL0     H21143   6.946   9.913  10.174  0.9264  0.0952  1.7289
  157MOL0     H21144   7.002   9.748  10.370 -0.5765 -0.2341  2.4768
  157MOL0     H21145   6.878   9.871  10.394 -3.1229 -1.1591  1.0951
  157MOL0     H21146   6.629   9.759  10.439 -0.1593  0.5578  1.3750
  157MOL0     H21147   6.532   9.494  10.602  0.5172 -0.4942  0.3411
  157MOL0     H21148   6.433   9.557  10.472 -1.1631 -2.8892 -1.0385
  157MOL0     H21149   6.457   9.346  10.346 -2.7114 -2.5458 -0.3074
  157MOL0     H21150   6.530   9.271  10.486 -1.2111 -0.9810 -1.9342
  157MOL0     H21151   6.259   9.417  10.456 -1.4072 -1.7271 -1.9025
  157MOL0     H21152   6.314   9.354  10.605 -0.9238  0.4393  0.1692
  157MOL0     H21153   6.185   9.163  10.525  0.1426  1.7908 -0.0566
  157MOL0     H21154   6.359   9.130  10.509 -1.0396  0.6397  3.1074
  157MOL0     H21155   6.248   8.942  10.486  1.7102  3.2447 -0.7269
  157MOL0     H21156   6.159   8.723  10.429 -0.8238 -0.2905 -1.1757
  157MOL0     H21157   5.797   8.518   9.914 -0.8576 -1.2434 -1.4997
  157MOL0     H21158   5.598   8.354   9.924 -1.4613 -0.4313  0.4322
  157MOL0     H21159   5.305   8.384  10.003  2.6609  1.3759 -1.6931
  157MOL0     H21160   5.414   8.270   9.952 -4.0402  0.8316 -2.2558
  157MOL0     H21161   5.237   8.127   9.991 -0.2173 -0.3222 -0.1724
  157MOL0     H21162   5.334   8.091  10.113 -1.0278 -0.4046 -1.4650
  157MOL0     H21163   5.194   8.271  10.266  0.1030  0.4786 -0.2610
  157MOL0     H21164   5.086   8.275  10.121  0.8847  0.2246 -1.3405
  157MOL0     H21165   5.093   7.995  10.175  3.2789  0.5400  0.1190
  157MOL0     H21166   4.980   8.108  10.241 -0.3372  1.4154 -0.5845
  157MOL0     H21167   5.236   8.103  10.414 -0.6812  1.3838  3.2269
  157MOL0     H21168   5.170   7.942  10.370 -2.3398 -0.4832 -0.6056
  157MOL0     H21169   5.090   8.031  10.568  3.3615  2.2573 -0.7942
  157MOL0     H21170   4.989   8.156  10.479 -0.0847  0.7066  0.2425
  157MOL0     H21171   5.013   7.840  10.482  0.0306 -0.6355 -2.0405
  157MOL0     H21172   4.892   7.909  10.372 -0.0157  1.2943  0.0133
  157MOL0     H21173   4.780   8.008  10.570  1.8979  0.6783 -1.0750
  157MOL0     H21174   4.771   7.836  10.541  3.4983 -1.0882 -3.0440
  157MOL0     H21175   5.519   8.496  10.317  0.2684  1.0752  0.2954
  157MOL0     H21176   5.717   8.649  10.308  0.8972  3.5399 -2.0492
  157MOL0     H21177   5.956   8.904  10.096  0.3764  0.6822 -0.2977
  157MOL0     H21178   6.054   9.113  10.140 -0.7246 -1.1815 -0.6422
  157MOL0     H21179   6.918   9.651   9.586 -0.1327 -1.2652  1.8034
  157MOL0     H21180   6.675   9.561   9.519  0.7972  0.2601  0.7116
  157MOL0     H21181   6.499   9.328   9.041 -2.1715  1.4562 -3.7084
  157MOL0     H21182   6.264   9.245   9.018  1.6561 -1.9481  0.8594
  157MOL0     H21183   5.873   9.306   9.199 -0.4937  0.6457  0.9904
  157MOL0     H21184   5.987   9.319   9.327 -1.3107 -3.4910  1.9674
  157MOL0     H21185   5.964   9.084   9.315  1.2271 -2.9973 -0.4492
  157MOL0     H21186   6.113   9.116   9.228  0.1057  1.9858  1.9340
  157MOL0     H21187   6.002   9.115   9.015 -2.0671 -0.4896 -1.9467
  157MOL0     H21188   5.840   9.084   9.101 -0.4960  1.5463 -0.4183
  157MOL0     H21189   6.071   8.899   9.081 -0.5589  1.1946 -2.2730
  157MOL0     H21190   5.942   8.889   9.207  0.1722  1.3301  0.4447
  157MOL0     H21191   5.747   8.750   8.862 -0.0701  0.8634  0.0494
  157MOL0     H21192   6.124   9.532   9.298  0.2279 -0.2256  0.1694
  157MOL0     H21193   6.296   9.683   9.409 -0.9398  0.4915 -2.8702
  157MOL0     H21194   6.367   9.545   9.483 -2.7212  1.2779  0.7895
  157MOL0     H21195   6.477   9.660   9.393  2.0339 -2.1721  0.0643
  158MOL0     O21196   9.563  10.188   5.404 -0.2850 -0.1102  0.2308
  158MOL0     C21197   9.449  10.196   5.454 -0.6357 -0.0801 -1.3203
  158MOL0     O21198   9.419  10.134   5.574 -0.1063  0.4906 -0.4016
  158MOL0     C21199   9.503  10.104   5.678  0.2839 -0.4534  1.0733
  158MOL0     C21200   9.477   9.988   5.754  0.4176  0.0068 -0.3252
  158MOL0     C21201   9.555   9.960   5.863  0.5876 -0.4398  0.0947
  158MOL0     C21202   9.653  10.049   5.912  0.2583 -0.1803  1.0061
  158MOL0     O21203   9.738  10.007   6.014 -0.6418  0.9714 -0.2193
  158MOL0     C21204   9.850   9.926   5.983 -0.4278 -0.4975  0.9122
  158MOL0     C21205   9.914   9.878   6.111 -0.2354 -0.2327  0.3972
  158MOL0     C21206   9.971   9.728   6.094  0.2766 -0.4379 -0.2561
  158MOL0     C21207  10.123   9.733   6.044  0.4369  0.2322 -0.5994
  158MOL0     C21208  10.168   9.587   6.003  1.1615 -1.1436 -0.7187
  158MOL0     C21209  10.183   9.501   6.121 -0.3913 -0.6088  0.2577
  158MOL0     C21210  10.283   9.379   6.097  1.1301  0.3055  1.2175
  158MOL0     C21211  10.226   9.244   6.036 -0.0873 -1.1223  0.3857
  158MOL0     N21212  10.105   9.186   6.098  0.0689 -0.2759 -0.3755
  158MOL0     C21213  10.085   9.169   6.234 -0.0056 -0.7632  0.2353
  158MOL0     C21214   9.969   9.105   6.227 -0.0128 -0.6093 -0.1234
  158MOL0     C21215   9.889   9.039   6.342  0.2888  0.3416  0.1113
  158MOL0     C21216   9.923   9.084   6.487  0.4401  0.1980  0.3475
  158MOL0     C21217  10.045   9.004   6.536  0.9674 -0.6082 -0.5864
  158MOL0     C21218  10.128   9.090   6.628  0.3317 -0.6604  0.3188
  158MOL0     O21219  10.207   9.189   6.552 -0.1668  0.3329  0.6857
  158MOL0     C21220  10.343   9.208   6.583  0.7021 -0.4181  0.9210
  158MOL0     C21221  10.428   9.243   6.475  0.5962 -0.1778  0.4596
  158MOL0     C21222  10.568   9.241   6.490  0.3313 -0.9904 -0.3197
  158MOL0     C21223  10.628   9.211   6.612  0.4072  0.6879  0.1623
  158MOL0     C21224  10.776   9.218   6.626 -0.2193 -0.0466 -0.5369
  158MOL0     O21225  10.841   9.213   6.504  0.1386 -0.2022  0.6962
  158MOL0     C21226  10.974   9.197   6.497 -0.3845  0.5763  0.1277
  158MOL0     C21227  11.027   9.091   6.418 -0.8305  0.3716 -0.1890
  158MOL0     C21228  11.167   9.083   6.397  0.3889 -0.0139  0.2813
  158MOL0     C21229  11.249   9.179   6.445  0.2320 -0.6922 -0.4375
  158MOL0     O21230  11.379   9.164   6.429 -0.6613  0.1657  0.3466
  158MOL0     C21231  11.475   9.265   6.484  0.4675 -0.3834 -0.8852
  158MOL0     C21232  11.616   9.231   6.444  0.5351 -0.4101  0.0689
  158MOL0     C21233  11.713   9.329   6.507  0.6971  0.2819 -0.1735
  158MOL0     C21234  11.854   9.294   6.466 -0.0550 -0.1651  0.7484
  158MOL0     C21235  11.937   9.407   6.528  0.4006  0.5121  0.3981
  158MOL0     C21236  12.083   9.386   6.502 -0.1364 -0.4571 -0.4127
  158MOL0     C21237  12.169   9.500   6.548  1.1324 -0.0360 -0.1090
  158MOL0     C21238  12.311   9.477   6.534  0.3071  0.4133 -0.0117
  158MOL0    Cl21239  12.369   9.345   6.632 -0.2839  0.1424 -0.6408
  158MOL0     C21240  11.193   9.278   6.530  0.3452  0.0573  0.1505
  158MOL0     C21241  11.053   9.287   6.549 -0.6095 -0.6618  0.1439
  158MOL0     O21242  10.826   9.191   6.738 -0.1493 -0.3385 -0.1544
  158MOL0     C21243  10.532   9.181   6.721 -0.1021 -0.4163  0.3883
  158MOL0     C21244  10.387   9.188   6.704 -0.5053 -0.8517 -0.4054
  158MOL0     N21245   9.920   9.094   6.101  0.4303  0.2064 -0.2054
  158MOL0     N21246   9.994   9.145   6.017 -1.2167  0.1780 -0.5469
  158MOL0     C21247   9.680  10.163   5.839  0.5009  0.5477 -0.6974
  158MOL0     C21248   9.603  10.190   5.725 -0.5372  0.1861  1.4830
  158MOL0     C21249   9.339  10.253   5.374 -0.7169 -0.0664  0.5952
  158MOL0     C21250   9.211  10.185   5.389  0.3305 -0.1880 -0.2541
  158MOL0     C21251   9.106  10.224   5.309  0.6915 -0.3833  0.2934
  158MOL0     C21252   9.117  10.324   5.213 -0.6134 -0.1285  0.1885
  158MOL0     O21253   9.003  10.371   5.138  0.2500 -0.0503 -0.3257
  158MOL0     C21254   8.880  10.411   5.208 -0.3556 -0.7883  0.2618
  158MOL0     C21255   8.883  10.569   5.226 -0.5112 -0.0746  0.3487
  158MOL0     C21256   8.760  10.617   5.277  0.3294  0.7212 -0.6170
  158MOL0     C21257   8.637  10.596   5.186 -0.2832  0.9293  0.3476
  158MOL0     C21258   8.655  10.634   5.046 -0.0193 -0.3104 -0.6709
  158MOL0     C21259   8.667  10.682   4.935  0.3073  0.4962 -0.5974
  158MOL0     C21260   9.248  10.398   5.202 -0.3826  0.2533  0.2664
  158MOL0     C21261   9.357  10.364   5.283  0.2735  0.2757 -0.0137
  158MOL0     C21262   9.492  10.434   5.243  0.6104 -0.2513 -0.0672
  158MOL0     H21263   9.407   9.908   5.729  0.3483  0.4849 -1.7079
  158MOL0     H21264   9.546   9.878   5.934 -0.2130  2.4192  3.6345
  158MOL0     H21265   9.807   9.846   5.921 -0.6681  1.6399 -1.8895
  158MOL0     H21266   9.921   9.985   5.924  0.2006 -2.9038 -0.8947
  158MOL0     H21267   9.831   9.889   6.183 -2.5155 -3.5627 -1.4462
  158MOL0     H21268  10.000   9.941   6.133 -0.7085 -0.2739  2.6153
  158MOL0     H21269   9.895   9.674   6.036 -2.6025 -0.5124  3.2640
  158MOL0     H21270   9.980   9.674   6.189  0.9392 -1.6581 -0.9704
  158MOL0     H21271  10.124   9.795   5.954 -0.1052  0.0798 -0.7111
  158MOL0     H21272  10.197   9.761   6.119 -0.5145 -4.1951  2.3853
  158MOL0     H21273  10.094   9.534   5.943  0.5144 -2.1881  0.9451
  158MOL0     H21274  10.255   9.609   5.941  0.1583  2.0159 -1.2276
  158MOL0     H21275  10.236   9.572   6.185  1.7325 -0.9021 -1.0773
  158MOL0     H21276  10.088   9.469   6.165  1.0872 -3.1477  1.8811
  158MOL0     H21277  10.313   9.358   6.200  0.2411 -1.8512  1.0938
  158MOL0     H21278  10.379   9.407   6.052  1.8148 -1.3748  1.5731
  158MOL0     H21279  10.203   9.251   5.930  2.9094 -1.3097 -0.3696
  158MOL0     H21280  10.296   9.160   6.047  0.6053 -1.2136 -3.5009
  158MOL0     H21281  10.148   9.188   6.320 -0.8131 -0.7210  0.8387
  158MOL0     H21282   9.782   9.057   6.327  0.6002  2.1314 -0.1411
  158MOL0     H21283   9.902   8.930   6.339  2.7999  0.5944 -1.2914
  158MOL0     H21284   9.941   9.192   6.483 -0.5630  0.3494 -1.4073
  158MOL0     H21285   9.835   9.090   6.552  1.4562  0.8530  1.6996
  158MOL0     H21286  10.113   8.976   6.454 -1.1693 -1.5711 -2.1203
  158MOL0     H21287  10.011   8.909   6.577 -1.2888 -0.2627 -1.5244
  158MOL0     H21288  10.194   9.016   6.673  1.5423 -0.4603 -1.0523
  158MOL0     H21289  10.067   9.138   6.705 -0.7947 -1.0427 -0.3118
  158MOL0     H21290  10.397   9.273   6.376  3.4165 -2.8990 -1.4231
  158MOL0     H21291  10.621   9.283   6.405  1.1758 -0.7289  0.3238
  158MOL0     H21292  10.969   9.015   6.367 -1.7346  0.4893  0.6437
  158MOL0     H21293  11.209   9.004   6.337  1.0269  0.6668 -0.1790
  158MOL0     H21294  11.440   9.363   6.449  0.1012  0.9011  2.6421
  158MOL0     H21295  11.457   9.266   6.592 -1.8368 -1.8886 -1.1949
  158MOL0     H21296  11.633   9.127   6.474 -2.4033 -0.4097  2.2550
  158MOL0     H21297  11.618   9.230   6.335 -0.4096  2.1064 -0.0382
  158MOL0     H21298  11.694   9.432   6.477  0.4786  0.0883 -0.7040
  158MOL0     H21299  11.696   9.311   6.614 -1.3002 -1.7528 -0.7596
  158MOL0     H21300  11.867   9.293   6.357 -1.0127  0.3654  0.6122
  158MOL0     H21301  11.888   9.194   6.494  2.6064  0.2086 -0.8493
  158MOL0     H21302  11.916   9.411   6.636  0.4831 -0.5675  0.4683
  158MOL0     H21303  11.903   9.506   6.500  1.8543  0.9061 -0.0850
  158MOL0     H21304  12.109   9.298   6.561  0.0946  0.0732  0.2843
  158MOL0     H21305  12.102   9.378   6.394 -0.5094 -0.0657 -0.5127
  158MOL0     H21306  12.138   9.510   6.652  0.7792  0.7176 -0.2863
  158MOL0     H21307  12.142   9.587   6.487 -0.9278  0.1145  0.9544
  158MOL0     H21308  12.324   9.461   6.426  1.1510  2.0261 -0.1800
  158MOL0     H21309  12.360   9.573   6.553  0.9851 -0.1453  1.1559
  158MOL0     H21310  11.260   9.347   6.581  2.0090 -1.0037 -0.5158
  158MOL0     H21311  11.012   9.378   6.593  0.9878  1.1998 -1.9363
  158MOL0     H21312  10.581   9.149   6.813 -1.8089 -0.9454  1.1550
  158MOL0     H21313  10.326   9.160   6.789 -0.4114 -2.5175 -0.8548
  158MOL0     H21314   9.761  10.226   5.873 -1.2118  2.4963 -0.0278
  158MOL0     H21315   9.612  10.285   5.674 -1.1557 -1.6372 -2.3774
  158MOL0     H21316   9.198  10.095   5.449 -3.2114 -0.2097 -0.8282
  158MOL0     H21317   9.013  10.172   5.328  0.9525 -1.7660 -1.8279
  158MOL0     H21318   8.878  10.370   5.309 -2.1060  0.9136  0.9860
  158MOL0     H21319   8.791  10.372   5.158 -1.9522 -0.8459  2.9527
  158MOL0     H21320   8.911  10.623   5.135  1.7675 -1.9181 -0.1496
  158MOL0     H21321   8.964  10.587   5.298  0.5525 -0.3056 -0.7480
  158MOL0     H21322   8.773  10.722   5.301 -2.9260  0.7257  1.9783
  158MOL0     H21323   8.735  10.572   5.374 -2.2809 -1.6551 -2.2226
  158MOL0     H21324   8.613  10.490   5.177  0.2998  0.9525 -2.3360
  158MOL0     H21325   8.542  10.638   5.219 -0.1996  0.7280  0.8411
  158MOL0     H21326   8.669  10.745   4.849 -0.7714  1.7500  0.2573
  158MOL0     H21327   9.256  10.476   5.128 -1.4369  1.7891  1.6934
  158MOL0     H21328   9.497  10.504   5.160 -1.5078  0.1338  0.0689
  158MOL0     H21329   9.525  10.485   5.334 -1.1137 -1.6488  1.4371
  158MOL0     H21330   9.569  10.360   5.222 -0.8584 -2.0214  0.4611
  159MOL0     O21331   8.139  10.968   8.062 -0.2892 -0.1393 -0.5090
  159MOL0     C21332   8.155  10.976   8.183  0.8399  0.3535  0.0063
  159MOL0     O21333   8.049  10.961   8.273 -0.3318  0.7525 -0.3124
  159MOL0     C21334   7.925  10.930   8.232  0.9926 -0.0175 -0.1336
  159MOL0     C21335   7.850  11.023   8.158 -0.4939 -0.1969  0.8517
  159MOL0     C21336   7.718  11.014   8.122  0.1504  0.1883 -0.4673
  159MOL0     C21337   7.646  10.896   8.151  0.3074  0.3316 -0.2740
  159MOL0     O21338   7.517  10.858   8.111 -0.4678  0.3043 -0.1873
  159MOL0     C21339   7.409  10.940   8.131 -0.4788 -1.1244 -0.8818
  159MOL0     C21340   7.314  10.902   8.244  0.4068 -0.8953  0.3270
  159MOL0     C21341   7.237  10.781   8.192  0.4878 -1.2066  0.8314
  159MOL0     C21342   7.184  10.711   8.314  0.4575  0.0306 -0.0121
  159MOL0     C21343   7.103  10.590   8.269  0.2592  0.3788 -0.5885
  159MOL0     C21344   7.184  10.470   8.217  0.4760 -0.4222 -0.0466
  159MOL0     C21345   7.105  10.334   8.206 -0.1497  0.2049  0.3055
  159MOL0     C21346   7.172  10.200   8.252  0.5547  0.3987  0.0966
  159MOL0     N21347   7.258  10.162   8.137  0.0119 -0.2689  0.5298
  159MOL0     C21348   7.234  10.082   8.022  0.3164  0.1621  0.2315
  159MOL0     C21349   7.364  10.067   7.975  0.2399 -0.5629  0.0951
  159MOL0     C21350   7.402  10.005   7.843 -0.2634  0.6009 -0.5347
  159MOL0     C21351   7.491   9.870   7.836  0.1874  0.7487 -0.0521
  159MOL0     C21352   7.636   9.874   7.895  0.0365 -0.2407 -0.9052
  159MOL0     C21353   7.722   9.990   7.853 -0.0565 -1.0354 -0.4222
  159MOL0     O21354   7.858   9.983   7.900  0.1681 -0.4991 -0.2305
  159MOL0     C21355   7.962  10.015   7.810 -0.4014 -0.6817 -0.2414
  159MOL0     C21356   8.073   9.937   7.826  0.2913 -0.8439 -0.2366
  159MOL0     C21357   8.189   9.959   7.759 -0.1124  0.1086  0.9480
  159MOL0     C21358   8.188  10.049   7.652  0.6100 -0.8085  0.3616
  159MOL0     C21359   8.315  10.102   7.605  0.2016  0.3449  0.7796
  159MOL0     O21360   8.313  10.211   7.528 -0.9668 -0.0034 -0.3891
  159MOL0     C21361   8.424  10.274   7.493 -0.4580 -0.3948  0.7465
  159MOL0     C21362   8.544  10.214   7.453  1.4303  0.2252  0.1405
  159MOL0     C21363   8.654  10.298   7.412  0.3484  0.1530 -0.4444
  159MOL0     C21364   8.647  10.439   7.405  0.6242  1.0860 -0.3789
  159MOL0     O21365   8.750  10.507   7.361  0.0356 -0.1337  0.5257
  159MOL0     C21366   8.764  10.650   7.336 -0.7109 -0.2297  0.1467
  159MOL0     C21367   8.908  10.667   7.301 -0.2706  0.1595 -0.3883
  159MOL0     C21368   8.997  10.723   7.406  0.1819 -0.1931 -0.6291
  159MOL0     C21369   9.134  10.659   7.384 -0.9333  0.1706  1.0996
  159MOL0     C21370   9.245  10.745   7.437 -0.7819 -1.5021 -0.8966
  159MOL0     C21371   9.393  10.697   7.429 -0.2730  0.4263  0.6810
  159MOL0     C21372   9.500  10.802   7.477  0.4345  0.8338  0.2919
  159MOL0     C21373   9.648  10.759   7.463  0.1381 -0.0425  0.2216
  159MOL0    Cl21374   9.682  10.655   7.327 -0.2470  0.0632 -0.0441
  159MOL0     C21375   8.520  10.494   7.438 -0.2707 -0.0854 -0.1679
  159MOL0     C21376   8.419  10.417   7.480 -0.0438 -0.3859  0.4934
  159MOL0     O21377   8.418  10.045   7.642 -0.2536 -0.3230 -0.4523
  159MOL0     C21378   8.067  10.112   7.633 -0.1263 -0.0340 -0.3488
  159MOL0     C21379   7.952  10.098   7.710 -0.3577  0.5636 -0.0090
  159MOL0     N21380   7.452  10.128   8.059 -0.8015 -0.0996  0.3691
  159MOL0     N21381   7.388  10.182   8.152  0.1924 -0.0227 -0.0361
  159MOL0     C21382   7.713  10.804   8.240 -0.5171  0.7430 -0.5333
  159MOL0     C21383   7.852  10.821   8.283  0.1118 -0.0374 -0.8936
  159MOL0     C21384   8.279  11.041   8.224 -0.7318  0.4242  0.0234
  159MOL0     C21385   8.292  11.094   8.353 -0.2839 -0.1468  1.0290
  159MOL0     C21386   8.402  11.172   8.397  0.1060 -0.4157 -0.3277
  159MOL0     C21387   8.509  11.186   8.311 -0.2386 -0.0159  0.2994
  159MOL0     O21388   8.616  11.258   8.358 -0.1977 -0.0671  0.2763
  159MOL0     C21389   8.724  11.298   8.278  0.0768 -0.0099 -0.2357
  159MOL0     C21390   8.822  11.178   8.273  1.1100  0.6829  1.1217
  159MOL0     C21391   8.929  11.205   8.169  0.5781 -0.3573 -0.2582
  159MOL0     C21392   9.024  11.329   8.195  0.7774 -0.5556 -0.4882
  159MOL0     C21393   9.149  11.320   8.117 -0.4693  0.7010  0.8957
  159MOL0     C21394   9.248  11.302   8.056 -0.1060  0.2289  0.8460
  159MOL0     C21395   8.511  11.112   8.193  0.2022  1.2559  0.4220
  159MOL0     C21396   8.394  11.043   8.141 -0.6819 -0.1658  0.5863
  159MOL0     C21397   8.405  10.963   8.014 -0.4178  0.6495 -0.1212
  159MOL0     H21398   7.905  11.109   8.121 -1.7589  0.8800  1.4175
  159MOL0     H21399   7.665  11.090   8.065 -0.7659  0.3418  0.5538
  159MOL0     H21400   7.440  11.043   8.150 -0.2342 -1.6848  2.2629
  159MOL0     H21401   7.354  10.945   8.036 -4.4197  2.2274  1.2319
  159MOL0     H21402   7.253  10.990   8.266  1.2456  0.0834 -1.0915
  159MOL0     H21403   7.378  10.877   8.329  2.0549 -1.6891 -1.0605
  159MOL0     H21404   7.287  10.706   8.129 -0.9169 -0.6547 -1.0119
  159MOL0     H21405   7.153  10.806   8.127  1.1038  0.3755  0.5995
  159MOL0     H21406   7.265  10.678   8.380  0.2596  1.3373  0.9104
  159MOL0     H21407   7.121  10.778   8.372 -0.6847 -2.2016  1.4634
  159MOL0     H21408   7.050  10.559   8.360  4.2983 -0.6534  1.6972
  159MOL0     H21409   7.030  10.628   8.197 -2.4331 -0.3647  1.5538
  159MOL0     H21410   7.220  10.488   8.115  1.9459 -2.3382  0.0663
  159MOL0     H21411   7.262  10.458   8.292  1.0509  0.5687 -0.4649
  159MOL0     H21412   7.064  10.328   8.105  2.9683 -0.1331 -1.0260
  159MOL0     H21413   7.020  10.352   8.273  0.4408  4.3303  0.2316
  159MOL0     H21414   7.232  10.229   8.339 -0.1058  2.9705 -0.2111
  159MOL0     H21415   7.093  10.130   8.280  0.9971  0.7207  2.2800
  159MOL0     H21416   7.137  10.059   7.980 -0.2435  1.7413  0.6181
  159MOL0     H21417   7.319   9.989   7.774  0.4080  1.4685 -1.5753
  159MOL0     H21418   7.460  10.080   7.788 -1.8071  2.0470 -0.2650
  159MOL0     H21419   7.438   9.790   7.889  1.7842  0.4998  1.2533
  159MOL0     H21420   7.494   9.827   7.736  0.1057 -1.1951  0.7289
  159MOL0     H21421   7.676   9.778   7.861 -1.7444 -2.1306  1.8947
  159MOL0     H21422   7.626   9.875   8.004  1.9864 -0.3045 -0.6945
  159MOL0     H21423   7.677  10.085   7.882  2.0994 -0.2920  0.7555
  159MOL0     H21424   7.727   9.991   7.744  1.7283 -3.4118 -0.4548
  159MOL0     H21425   8.083   9.861   7.903 -0.7898 -1.9023 -1.1203
  159MOL0     H21426   8.280   9.904   7.782 -1.1796 -2.0030  0.3727
  159MOL0     H21427   8.563  10.107   7.457 -2.4817 -0.6035  0.4765
  159MOL0     H21428   8.751  10.255   7.389  0.4569  1.1419 -2.0722
  159MOL0     H21429   8.690  10.662   7.256 -0.1849  0.0481 -0.3027
  159MOL0     H21430   8.735  10.712   7.422  1.1381 -0.7418  1.2025
  159MOL0     H21431   8.941  10.571   7.261 -5.2821 -2.0835  0.1193
  159MOL0     H21432   8.898  10.737   7.217 -5.8275  1.7265  1.1988
  159MOL0     H21433   8.999  10.830   7.379 -1.8125 -0.0285 -0.2743
  159MOL0     H21434   8.950  10.703   7.502  0.2188 -1.4075 -0.8522
  159MOL0     H21435   9.146  10.635   7.278  0.9817  0.9351  1.1095
  159MOL0     H21436   9.136  10.567   7.443 -1.4062 -0.6516 -0.1086
  159MOL0     H21437   9.237  10.743   7.546  2.0577  2.0176 -0.4335
  159MOL0     H21438   9.229  10.848   7.403  0.1480 -0.3905  1.7217
  159MOL0     H21439   9.413  10.606   7.486 -0.9350 -2.3034 -3.0409
  159MOL0     H21440   9.415  10.671   7.325  0.9417  0.2032  0.9795
  159MOL0     H21441   9.491  10.821   7.585  0.6529  1.6652  0.1675
  159MOL0     H21442   9.481  10.899   7.431  1.1447 -0.7283 -3.7282
  159MOL0     H21443   9.716  10.844   7.472  0.6777 -0.6674  3.4575
  159MOL0     H21444   9.664  10.709   7.559  0.2913 -0.6495 -0.1166
  159MOL0     H21445   8.515  10.601   7.418 -0.0241 -0.0389  0.0211
  159MOL0     H21446   8.325  10.473   7.481 -0.7161 -1.4872  0.8800
  159MOL0     H21447   8.069  10.199   7.568  2.2338  1.9887  2.2243
  159MOL0     H21448   7.855  10.147   7.708  0.1139  1.5971  1.1007
  159MOL0     H21449   7.661  10.711   8.259  0.0378  0.2144 -1.4766
  159MOL0     H21450   7.907  10.750   8.345  3.3549  0.9172 -2.4478
  159MOL0     H21451   8.199  11.111   8.408  0.1336 -0.0129  1.7072
  159MOL0     H21452   8.414  11.237   8.483 -0.1374  1.1051 -1.3966
  159MOL0     H21453   8.789  11.369   8.329 -1.5725 -2.2877  5.8823
  159MOL0     H21454   8.694  11.330   8.178  1.1417 -1.1256 -0.9470
  159MOL0     H21455   8.780  11.085   8.232  0.5067  0.5612  2.0001
  159MOL0     H21456   8.840  11.154   8.378 -1.8724  1.3557  1.8752
  159MOL0     H21457   8.881  11.220   8.072 -1.4249 -2.4234  0.3065
  159MOL0     H21458   8.982  11.109   8.173  1.2754  0.0380  0.1003
  159MOL0     H21459   8.973  11.418   8.157 -1.2128 -2.3612 -2.3708
  159MOL0     H21460   9.044  11.352   8.300  1.4086  0.0632 -0.7370
  159MOL0     H21461   9.324  11.273   7.987 -0.1033 -0.9763  1.3370
  159MOL0     H21462   8.591  11.116   8.119  2.2069  1.4030  2.4996
  159MOL0     H21463   8.508  10.965   7.979 -0.2950  1.3210  0.2620
  159MOL0     H21464   8.381  10.859   8.039 -0.6019  0.9739  1.1621
  159MOL0     H21465   8.344  11.008   7.935  1.5773  2.4889 -0.6908
  160MOL0     O21466   2.058   6.487   3.634  0.0788 -0.6751 -0.1989
  160MOL0     C21467   1.939   6.468   3.618  0.3333 -0.8172 -0.6177
  160MOL0     O21468   1.876   6.442   3.495  0.9446  1.0301  0.6395
  160MOL0     C21469   1.942   6.406   3.377  0.3309  0.1461  0.7150
  160MOL0     C21470   1.868   6.446   3.263 -0.0880  0.7284  0.0058
  160MOL0     C21471   1.933   6.427   3.140 -0.3313  0.0738 -0.5505
  160MOL0     C21472   2.049   6.352   3.118  0.5291  0.0806 -0.0915
  160MOL0     O21473   2.091   6.320   2.997 -0.3447 -0.8005  0.0638
  160MOL0     C21474   2.119   6.180   2.978 -0.6500  0.5460  0.2843
  160MOL0     C21475   2.267   6.167   2.930 -0.4782 -0.6497  0.1493
  160MOL0     C21476   2.332   6.022   2.915  1.2145 -0.6158  0.3963
  160MOL0     C21477   2.342   5.981   2.759  0.4544  0.6269  0.0926
  160MOL0     C21478   2.391   5.838   2.743 -0.0796  0.5096  0.1976
  160MOL0     C21479   2.413   5.801   2.603  0.0135 -0.2394 -1.3712
  160MOL0     C21480   2.474   5.665   2.591  0.2678  0.3363 -0.1221
  160MOL0     C21481   2.542   5.651   2.456  0.3535  0.5957  0.0940
  160MOL0     N21482   2.654   5.551   2.456 -0.3834 -0.4392 -0.2012
  160MOL0     C21483   2.781   5.553   2.514 -0.0935 -0.2605  0.0567
  160MOL0     C21484   2.829   5.427   2.499 -0.7674 -0.7541  0.4160
  160MOL0     C21485   2.962   5.374   2.551  0.0032 -0.4300 -0.0384
  160MOL0     C21486   3.073   5.408   2.453 -0.1424  0.1122  0.4496
  160MOL0     C21487   3.209   5.348   2.504  0.5787 -0.0063  0.0126
  160MOL0     C21488   3.290   5.450   2.585  0.5918  0.6233  0.8937
  160MOL0     O21489   3.202   5.542   2.659  0.4879 -0.3115 -0.3282
  160MOL0     C21490   3.256   5.644   2.730  0.8127 -0.0303 -0.2444
  160MOL0     C21491   3.398   5.665   2.730 -0.1826 -0.4591 -0.1882
  160MOL0     C21492   3.447   5.774   2.812  0.7379 -0.3881 -0.2890
  160MOL0     C21493   3.354   5.857   2.893 -0.7131 -0.4418  1.1492
  160MOL0     C21494   3.402   5.976   2.970  0.0583 -0.6280 -0.5440
  160MOL0     O21495   3.537   5.994   2.998 -0.0431  0.3010  0.0302
  160MOL0     C21496   3.586   6.113   3.044  0.3445 -0.1914  1.0230
  160MOL0     C21497   3.706   6.140   2.992  0.0032  0.9626 -0.8275
  160MOL0     C21498   3.777   6.261   3.028 -1.3408  0.8506  0.3833
  160MOL0     C21499   3.715   6.354   3.112  0.8129 -0.6640 -0.8750
  160MOL0     O21500   3.780   6.471   3.148  0.5313 -0.8785  0.2115
  160MOL0     C21501   3.922   6.494   3.104  1.1066  0.4791 -0.3515
  160MOL0     C21502   3.964   6.631   3.157  1.2082 -0.3644  1.0778
  160MOL0     C21503   3.949   6.650   3.307 -0.0178 -1.1835 -0.6124
  160MOL0     C21504   3.996   6.774   3.376  0.0238 -0.5453 -1.0009
  160MOL0     C21505   3.882   6.876   3.405 -0.7024  0.4140  0.1061
  160MOL0     C21506   3.792   6.834   3.528 -0.1417  0.5346  0.9749
  160MOL0     C21507   3.660   6.912   3.516 -0.2164 -0.0279  0.4987
  160MOL0     C21508   3.548   6.827   3.437  0.3639  0.4040 -1.3541
  160MOL0    Cl21509   3.383   6.843   3.518 -0.2893  0.0688  0.1864
  160MOL0     C21510   3.588   6.328   3.165 -0.4539 -0.3326 -0.4359
  160MOL0     C21511   3.527   6.206   3.135  0.5355 -0.1027  0.1487
  160MOL0     O21512   3.313   6.060   2.980  0.1702  1.0008  0.2955
  160MOL0     C21513   3.218   5.833   2.889 -0.3800 -0.2686  0.5396
  160MOL0     C21514   3.174   5.737   2.806  0.5610  0.1018  0.7231
  160MOL0     N21515   2.745   5.359   2.428 -0.1989 -0.2149  0.3592
  160MOL0     N21516   2.639   5.431   2.400 -0.4921 -0.2447 -0.1543
  160MOL0     C21517   2.114   6.314   3.238  0.3041 -0.4734  0.7211
  160MOL0     C21518   2.058   6.335   3.359 -1.0420 -0.1051  0.0028
  160MOL0     C21519   1.842   6.487   3.733 -0.2766  0.0418 -0.3893
  160MOL0     C21520   1.720   6.424   3.739 -0.0173  0.2246 -0.5611
  160MOL0     C21521   1.627   6.440   3.836 -0.1563  0.2532  0.4338
  160MOL0     C21522   1.663   6.508   3.953  0.0672  0.5671 -0.4312
  160MOL0     O21523   1.580   6.518   4.067 -0.0176 -0.1308  0.3824
  160MOL0     C21524   1.436   6.533   4.048  0.5106 -0.5897 -0.2281
  160MOL0     C21525   1.421   6.669   4.097  0.6665 -0.3837  0.4974
  160MOL0     C21526   1.528   6.773   4.054 -0.1614  1.2599 -0.4396
  160MOL0     C21527   1.480   6.907   4.098  0.0292 -1.9126 -0.1731
  160MOL0     C21528   1.506   6.924   4.239  0.0417  0.5592 -0.7592
  160MOL0     C21529   1.504   6.950   4.362 -0.0948 -0.3184  0.0416
  160MOL0     C21530   1.789   6.567   3.957  0.0952 -0.5925  0.3335
  160MOL0     C21531   1.875   6.565   3.848 -0.1205  0.2184  1.2808
  160MOL0     C21532   1.990   6.657   3.864  0.5893 -0.2511  0.7668
  160MOL0     H21533   1.774   6.499   3.251  0.7058  2.5941  1.5567
  160MOL0     H21534   1.881   6.470   3.055 -1.0536  0.5221  0.1012
  160MOL0     H21535   2.113   6.116   3.066  0.9017  0.7876  0.5810
  160MOL0     H21536   2.047   6.137   2.907 -3.2471  0.1570  2.9561
  160MOL0     H21537   2.319   6.223   3.008  0.0581 -0.9233 -0.0081
  160MOL0     H21538   2.292   6.226   2.841  1.9774  0.8984  1.7522
  160MOL0     H21539   2.281   5.944   2.974 -0.2768  1.0375  1.3858
  160MOL0     H21540   2.435   6.025   2.951  0.3494 -1.3088  3.1759
  160MOL0     H21541   2.242   5.995   2.718  0.6943  1.9673 -0.0785
  160MOL0     H21542   2.420   6.046   2.718  0.8793  0.7803  1.1161
  160MOL0     H21543   2.488   5.813   2.787 -0.1492 -0.8653 -0.3945
  160MOL0     H21544   2.313   5.769   2.776  0.0886  0.1583 -0.1353
  160MOL0     H21545   2.315   5.813   2.557  0.5409  4.6293 -1.7439
  160MOL0     H21546   2.473   5.878   2.553  0.8126  1.3425  1.7959
  160MOL0     H21547   2.393   5.591   2.598 -0.0805  0.4923 -2.0317
  160MOL0     H21548   2.548   5.640   2.667 -0.9118 -2.1756  0.3267
  160MOL0     H21549   2.460   5.626   2.388 -0.5150  1.3561  0.8420
  160MOL0     H21550   2.586   5.747   2.427  0.4643  1.1591  1.9974
  160MOL0     H21551   2.817   5.640   2.567 -2.2167  0.6978  0.0100
  160MOL0     H21552   2.977   5.425   2.647  0.8769 -1.2870  0.2910
  160MOL0     H21553   2.946   5.267   2.567 -0.8374 -0.2618  0.3586
  160MOL0     H21554   3.054   5.381   2.348 -2.7029 -1.3369  1.1868
  160MOL0     H21555   3.107   5.510   2.435  1.0909 -0.3524  0.0390
  160MOL0     H21556   3.266   5.330   2.412 -0.6689  3.9603 -1.7691
  160MOL0     H21557   3.197   5.250   2.550 -0.3185 -0.3782 -0.9649
  160MOL0     H21558   3.352   5.511   2.519 -1.5348  1.3998 -0.5016
  160MOL0     H21559   3.352   5.398   2.658  2.2647 -0.6742 -1.3335
  160MOL0     H21560   3.467   5.592   2.689  0.3437 -1.4095  2.1886
  160MOL0     H21561   3.554   5.785   2.830  0.3888  1.2508  1.0605
  160MOL0     H21562   3.758   6.076   2.921 -0.9598  1.4602 -2.0146
  160MOL0     H21563   3.875   6.258   2.982 -1.7013  0.6450 -0.3922
  160MOL0     H21564   3.991   6.418   3.143  1.1005  0.8182  0.3325
  160MOL0     H21565   3.913   6.501   2.995 -1.0773  3.1914 -0.1065
  160MOL0     H21566   4.062   6.663   3.121  1.8594  1.0165  3.7670
  160MOL0     H21567   3.894   6.704   3.115  0.2481 -0.7654  1.9461
  160MOL0     H21568   3.844   6.637   3.336 -0.3939  1.1321 -0.7581
  160MOL0     H21569   4.010   6.572   3.353  3.1696  2.3180  1.7537
  160MOL0     H21570   4.064   6.822   3.305  1.4872 -1.3449 -0.1856
  160MOL0     H21571   4.047   6.760   3.471  0.6293  3.2559 -0.6125
  160MOL0     H21572   3.823   6.897   3.316  1.3084  1.3909 -1.0623
  160MOL0     H21573   3.930   6.971   3.429  0.6059  0.4437 -2.3219
  160MOL0     H21574   3.777   6.726   3.514 -1.7636  0.9070 -0.5974
  160MOL0     H21575   3.852   6.849   3.617  0.6290  3.4606  0.0580
  160MOL0     H21576   3.677   7.018   3.497  2.2145 -0.5225 -0.5887
  160MOL0     H21577   3.621   6.916   3.618 -0.1883 -1.1590  0.5671
  160MOL0     H21578   3.538   6.850   3.331 -0.6917 -3.4000 -2.2265
  160MOL0     H21579   3.560   6.718   3.441 -3.7518 -0.1624  0.6356
  160MOL0     H21580   3.535   6.392   3.233 -0.2807  0.0249 -0.6363
  160MOL0     H21581   3.435   6.176   3.185 -0.4956 -1.8675 -2.5483
  160MOL0     H21582   3.146   5.888   2.948  0.4410  2.3525 -0.7332
  160MOL0     H21583   3.068   5.718   2.790  0.4490  1.3438 -0.1569
  160MOL0     H21584   2.203   6.253   3.230  0.1757 -0.4472 -1.7879
  160MOL0     H21585   2.111   6.298   3.446  1.3163  1.1221 -0.8338
  160MOL0     H21586   1.683   6.367   3.655  1.7469 -1.2626 -0.3835
  160MOL0     H21587   1.526   6.399   3.842 -0.8817  1.7644 -0.7192
  160MOL0     H21588   1.383   6.458   4.108 -0.9934  0.2248 -0.5069
  160MOL0     H21589   1.406   6.524   3.943 -0.0363  0.9553 -0.2271
  160MOL0     H21590   1.424   6.668   4.207  0.7889  1.0165  0.5227
  160MOL0     H21591   1.328   6.719   4.071  0.1548 -1.8485 -0.6213
  160MOL0     H21592   1.534   6.765   3.945  2.9038  0.1824 -0.2969
  160MOL0     H21593   1.628   6.755   4.093 -0.0582  1.5658 -0.5540
  160MOL0     H21594   1.537   6.990   4.054 -1.1617  0.8958  3.0327
  160MOL0     H21595   1.378   6.929   4.067  0.6414 -2.4232 -2.7051
  160MOL0     H21596   1.513   6.961   4.469  1.6346 -3.2737  0.3057
  160MOL0     H21597   1.827   6.619   4.044 -3.3152 -0.8691  2.1514
  160MOL0     H21598   2.084   6.600   3.859 -0.6614 -2.3846 -2.8370
  160MOL0     H21599   1.997   6.717   3.772  0.2226 -1.4732 -0.0910
  160MOL0     H21600   1.984   6.721   3.952  0.7765 -2.0092  2.1117
  161MOL0     O21601   0.502   2.836   2.585 -0.4208 -0.0264  0.6108
  161MOL0     C21602   0.442   2.934   2.634  0.5510 -0.3866  0.5848
  161MOL0     O21603   0.444   2.974   2.768 -0.2078  0.4060  0.3415
  161MOL0     C21604   0.453   2.879   2.871 -0.1877  0.3161  0.7092
  161MOL0     C21605   0.419   2.745   2.874  0.2959  0.6176 -0.9931
  161MOL0     C21606   0.422   2.670   2.995  0.5392  0.5071  0.6017
  161MOL0     C21607   0.465   2.726   3.116  0.4689  0.6728 -0.6124
  161MOL0     O21608   0.474   2.660   3.236  0.9191 -0.6801  0.7584
  161MOL0     C21609   0.483   2.514   3.229  0.2933 -0.0650  0.3740
  161MOL0     C21610   0.532   2.473   3.362 -0.6771 -0.1510  0.2709
  161MOL0     C21611   0.498   2.325   3.380 -0.2772  0.3514 -0.0807
  161MOL0     C21612   0.484   2.287   3.524  0.5599 -0.0488  0.0655
  161MOL0     C21613   0.477   2.137   3.535  0.4338 -1.3243  0.0889
  161MOL0     C21614   0.563   2.082   3.642  0.4637  0.7153 -0.1676
  161MOL0     C21615   0.717   2.108   3.631  0.3184  0.0834  0.5132
  161MOL0     C21616   0.784   2.087   3.768  0.9113  0.2735  0.1676
  161MOL0     N21617   0.738   2.174   3.881  0.7740  0.5366 -0.0162
  161MOL0     C21618   0.760   2.309   3.912 -0.0932  1.0150 -0.5592
  161MOL0     C21619   0.722   2.324   4.040 -0.6622 -0.0395  0.5286
  161MOL0     C21620   0.726   2.446   4.119 -0.6854 -0.0917  0.9627
  161MOL0     C21621   0.808   2.413   4.247 -0.4394  0.4418  0.0802
  161MOL0     C21622   0.831   2.546   4.320 -0.8048  0.3094  0.0729
  161MOL0     C21623   0.936   2.543   4.423 -0.0387 -0.0104  0.7773
  161MOL0     O21624   0.932   2.427   4.502 -0.1538  0.0833 -0.4226
  161MOL0     C21625   0.996   2.429   4.623  0.3101 -0.0494 -0.0044
  161MOL0     C21626   0.956   2.329   4.706  0.5647 -0.3722 -0.1217
  161MOL0     C21627   1.023   2.317   4.826  1.1236  0.1415  0.5811
  161MOL0     C21628   1.117   2.414   4.866 -0.4979  1.3889  0.4648
  161MOL0     C21629   1.170   2.430   5.004  1.1903 -0.0597 -0.0073
  161MOL0     O21630   1.227   2.549   5.031 -0.0894  0.2806  0.0770
  161MOL0     C21631   1.248   2.601   5.160 -0.1202  0.4708 -0.2498
  161MOL0     C21632   1.372   2.654   5.187  0.9390 -0.2654  0.9115
  161MOL0     C21633   1.402   2.717   5.310 -0.8235 -0.1420 -0.1128
  161MOL0     C21634   1.317   2.703   5.421 -0.3728 -0.3522  0.0002
  161MOL0     O21635   1.335   2.751   5.548  0.3174 -0.3394  0.2561
  161MOL0     C21636   1.469   2.772   5.603  0.4030  0.6655  0.2901
  161MOL0     C21637   1.447   2.817   5.744  1.4413 -0.3644 -0.5964
  161MOL0     C21638   1.574   2.875   5.808  0.9279  0.3585  0.1077
  161MOL0     C21639   1.618   3.015   5.749 -0.1623 -0.2608  0.1755
  161MOL0     C21640   1.757   3.072   5.783  0.0951 -0.5261 -0.4764
  161MOL0     C21641   1.786   3.094   5.922 -1.2311 -0.4060 -1.2434
  161MOL0     C21642   1.703   3.209   5.989 -0.7329  0.0405  0.6263
  161MOL0     C21643   1.788   3.269   6.092 -0.3779  1.0283  1.1481
  161MOL0    Cl21644   1.920   3.377   6.020 -0.2337  0.2122  0.0941
  161MOL0     C21645   1.191   2.643   5.392 -0.0827  0.1183 -0.2562
  161MOL0     C21646   1.164   2.582   5.262  0.6570 -0.9058 -1.2400
  161MOL0     O21647   1.166   2.338   5.085  0.5168  0.1553  0.0126
  161MOL0     C21648   1.166   2.501   4.767 -0.2529 -0.0328 -0.5626
  161MOL0     C21649   1.109   2.502   4.648  0.3205  0.8780 -1.0511
  161MOL0     N21650   0.671   2.203   4.092 -0.0126 -0.3009  0.1569
  161MOL0     N21651   0.689   2.114   4.001 -0.2580 -0.7591 -0.6047
  161MOL0     C21652   0.512   2.864   3.115 -1.0935  0.2912  0.3030
  161MOL0     C21653   0.499   2.938   2.993  0.2300  0.0218 -0.6914
  161MOL0     C21654   0.375   3.036   2.539  0.0063  0.1950  0.4710
  161MOL0     C21655   0.312   2.969   2.435 -0.0761  0.0702  0.3572
  161MOL0     C21656   0.257   3.038   2.325  0.2696  0.1268  0.3823
  161MOL0     C21657   0.247   3.172   2.330 -0.1466  0.2346 -0.5381
  161MOL0     O21658   0.176   3.247   2.231 -0.5014  0.2339 -1.1968
  161MOL0     C21659   0.073   3.183   2.165 -0.3685  0.4425 -0.2762
  161MOL0     C21660  -0.004   3.282   2.082 -0.7123  0.5623 -0.0632
  161MOL0     C21661  -0.095   3.379   2.161 -0.0785  0.6453  0.1607
  161MOL0     C21662  -0.142   3.492   2.069 -0.5682  0.3761 -0.1207
  161MOL0     C21663  -0.232   3.431   1.974  0.2944  1.7836  1.0893
  161MOL0     C21664  -0.304   3.360   1.910  0.3958 -0.0025 -0.4320
  161MOL0     C21665   0.308   3.246   2.429  0.1338  0.7176 -0.4316
  161MOL0     C21666   0.371   3.178   2.538 -0.0802 -0.0691 -0.1996
  161MOL0     C21667   0.425   3.263   2.650  0.0227  0.0114  0.3763
  161MOL0     H21668   0.383   2.694   2.785 -2.6950  0.2176  0.3432
  161MOL0     H21669   0.388   2.567   2.993  0.6642  0.4429  1.3719
  161MOL0     H21670   0.381   2.475   3.217 -0.5195  1.3834  2.1128
  161MOL0     H21671   0.551   2.482   3.149  0.7691  0.7247  0.4636
  161MOL0     H21672   0.490   2.531   3.445 -0.7713  0.9954 -0.5524
  161MOL0     H21673   0.640   2.493   3.368 -0.1279 -2.2227 -1.6995
  161MOL0     H21674   0.574   2.260   3.335 -1.3484 -1.7926  1.0923
  161MOL0     H21675   0.405   2.302   3.327 -0.5687  0.0640  0.5593
  161MOL0     H21676   0.573   2.324   3.577  0.7721 -1.2361  0.5802
  161MOL0     H21677   0.394   2.330   3.569 -1.6834 -3.6364 -0.5463
  161MOL0     H21678   0.376   2.098   3.555  0.0480 -0.7393 -0.6834
  161MOL0     H21679   0.514   2.095   3.441  0.4261 -0.6220 -0.2344
  161MOL0     H21680   0.530   2.109   3.743  0.7809  0.5833 -0.0266
  161MOL0     H21681   0.555   1.973   3.635  2.2643  0.2764  2.6273
  161MOL0     H21682   0.736   2.211   3.598 -0.2496 -0.3920 -1.4747
  161MOL0     H21683   0.771   2.045   3.560  0.4680  0.1490  0.5683
  161MOL0     H21684   0.769   1.982   3.794 -0.7233 -0.5324 -3.3316
  161MOL0     H21685   0.893   2.098   3.769  1.0705 -1.1058  1.3086
  161MOL0     H21686   0.808   2.381   3.847 -0.8690  2.5935  0.5387
  161MOL0     H21687   0.794   2.515   4.069 -1.5262  0.9966  1.2677
  161MOL0     H21688   0.630   2.497   4.130 -2.2214 -2.6887  0.4576
  161MOL0     H21689   0.751   2.340   4.306  1.1466  0.8793  2.2715
  161MOL0     H21690   0.907   2.378   4.217 -0.6438  1.1578 -1.5286
  161MOL0     H21691   0.736   2.577   4.364 -2.2411  0.1529 -2.6879
  161MOL0     H21692   0.864   2.615   4.242 -0.0507 -0.4507 -0.2988
  161MOL0     H21693   0.934   2.632   4.487 -1.6472  0.3119  0.3180
  161MOL0     H21694   1.034   2.541   4.374  0.4294  0.8271  1.6445
  161MOL0     H21695   0.873   2.270   4.666 -1.6186  0.7949  2.3916
  161MOL0     H21696   0.997   2.238   4.896 -1.9823  1.4614  1.0841
  161MOL0     H21697   1.446   2.667   5.109  0.0118 -0.9736 -0.1179
  161MOL0     H21698   1.498   2.767   5.320 -1.4017  1.0822 -0.5150
  161MOL0     H21699   1.531   2.682   5.594  1.4947  1.4756 -0.6016
  161MOL0     H21700   1.525   2.844   5.542  1.1908 -0.0981  0.0929
  161MOL0     H21701   1.369   2.894   5.746  0.3875 -1.3580 -1.3522
  161MOL0     H21702   1.404   2.736   5.803 -1.6032  2.0293  0.8065
  161MOL0     H21703   1.556   2.890   5.915 -0.2421 -0.3175  0.0321
  161MOL0     H21704   1.657   2.805   5.803 -1.5829 -3.2065  2.7226
  161MOL0     H21705   1.553   3.101   5.764  1.6135  0.9926  1.0868
  161MOL0     H21706   1.629   2.995   5.642 -2.7964  2.7117 -0.8117
  161MOL0     H21707   1.788   3.156   5.721  1.8671 -0.6771  0.1487
  161MOL0     H21708   1.829   2.994   5.756 -0.8139 -1.1579 -1.1551
  161MOL0     H21709   1.776   3.004   5.982 -2.1277 -0.1053 -0.9200
  161MOL0     H21710   1.891   3.125   5.925 -0.2877 -3.2381  2.7026
  161MOL0     H21711   1.621   3.152   6.034 -3.9103 -0.9703 -5.3484
  161MOL0     H21712   1.669   3.288   5.921  1.6231  2.5180  2.1648
  161MOL0     H21713   1.718   3.325   6.156 -0.5708 -0.4498  2.2930
  161MOL0     H21714   1.828   3.189   6.155  1.5667  1.3273  0.3538
  161MOL0     H21715   1.119   2.632   5.472  2.1429  3.0154  2.3815
  161MOL0     H21716   1.067   2.534   5.248  0.7741 -1.2660 -0.8135
  161MOL0     H21717   1.259   2.552   4.789  0.0944  0.3354 -2.7169
  161MOL0     H21718   1.163   2.557   4.572  1.4812  0.4247 -0.5913
  161MOL0     H21719   0.574   2.908   3.193  1.3538 -0.2987 -1.1826
  161MOL0     H21720   0.527   3.043   2.987  0.6848 -0.1945 -3.4075
  161MOL0     H21721   0.304   2.861   2.440 -0.3287  0.1324  1.5778
  161MOL0     H21722   0.218   2.966   2.254 -0.4084  1.0883 -0.2436
  161MOL0     H21723   0.010   3.131   2.238  1.7735 -0.8779  0.7188
  161MOL0     H21724   0.123   3.105   2.107  2.2020  1.2346  0.7529
  161MOL0     H21725  -0.066   3.224   2.013  0.0463 -0.4589  0.0861
  161MOL0     H21726   0.068   3.333   2.017 -0.1828 -3.9903 -3.5332
  161MOL0     H21727  -0.042   3.419   2.249 -0.8405  0.5257  0.6783
  161MOL0     H21728  -0.180   3.319   2.194  0.4750  0.4785  1.3799
  161MOL0     H21729  -0.201   3.562   2.128  2.6249  2.3281  1.0269
  161MOL0     H21730  -0.058   3.545   2.023 -0.7891 -0.3280 -1.3829
  161MOL0     H21731  -0.359   3.277   1.870 -1.8705  0.3183  1.7296
  161MOL0     H21732   0.305   3.354   2.436 -0.5476  0.6221  1.4165
  161MOL0     H21733   0.505   3.217   2.709 -3.0707 -1.9080  3.4735
  161MOL0     H21734   0.470   3.351   2.604  1.5081  0.6312  2.8081
  161MOL0     H21735   0.342   3.275   2.721  2.1195 -1.2911  3.2367
  162MOL0     O21736   9.325   8.290  10.426  0.0260 -0.2090 -0.5022
  162MOL0     C21737   9.447   8.271  10.429  0.1892  0.4696 -0.9308
  162MOL0     O21738   9.530   8.276  10.542 -0.4687  0.6796 -0.4954
  162MOL0     C21739   9.500   8.331  10.661  1.0116 -0.3056 -0.0500
  162MOL0     C21740   9.615   8.319  10.750  0.6123  0.5906  0.2040
  162MOL0     C21741   9.602   8.354  10.883 -0.5461  0.5911  0.0598
  162MOL0     C21742   9.489   8.408  10.926  0.3488  0.0364 -0.8347
  162MOL0     O21743   9.483   8.432  11.063  0.2776 -0.3257 -0.1663
  162MOL0     C21744   9.376   8.504  11.114 -0.4778  0.1665 -0.4574
  162MOL0     C21745   9.395   8.524  11.258  0.2714 -0.0170  0.0122
  162MOL0     C21746   9.453   8.663  11.297 -1.1238 -0.2098  1.0824
  162MOL0     C21747   9.429   8.687  11.442  0.1009  0.2849  0.4146
  162MOL0     C21748   9.512   8.812  11.493  0.4844  0.0912 -0.0835
  162MOL0     C21749   9.462   8.866  11.632 -0.6667 -0.3181 -0.4250
  162MOL0     C21750   9.555   8.984  11.672  0.0137 -0.5057  0.4360
  162MOL0     C21751   9.495   9.063  11.783  0.3842  0.5763  1.0260
  162MOL0     N21752   9.580   9.176  11.822 -0.6676  0.5137 -0.1053
  162MOL0     C21753   9.688   9.163  11.905 -0.1778 -0.3287  0.3889
  162MOL0     C21754   9.702   9.288  11.967 -0.5586  0.1043 -0.2177
  162MOL0     C21755   9.782   9.336  12.087  0.1277 -0.0661  0.4354
  162MOL0     C21756   9.934   9.319  12.052 -0.2075  0.1802 -0.0635
  162MOL0     C21757   9.966   9.366  11.911  0.8645  0.3882 -0.2991
  162MOL0     C21758  10.114   9.395  11.890 -1.0230  0.1399 -0.9085
  162MOL0     O21759  10.158   9.421  11.757 -0.6982  0.1735  0.2793
  162MOL0     C21760  10.293   9.419  11.739 -0.2144 -0.5598  0.0286
  162MOL0     C21761  10.382   9.453  11.847 -0.0090 -0.4592  0.1916
  162MOL0     C21762  10.517   9.439  11.829 -0.1431  0.0821 -0.4371
  162MOL0     C21763  10.562   9.374  11.715 -0.1935  0.8237 -0.6814
  162MOL0     C21764  10.711   9.347  11.703 -0.2758 -0.5375  1.5948
  162MOL0     O21765  10.748   9.246  11.614  0.0794 -0.3217 -0.1782
  162MOL0     C21766  10.870   9.188  11.616 -0.4769  0.7057 -0.1227
  162MOL0     C21767  10.887   9.052  11.602 -0.0613  0.4385 -0.7194
  162MOL0     C21768  11.014   8.988  11.588 -0.1386 -0.0403  0.6340
  162MOL0     C21769  11.130   9.064  11.572 -0.6352 -0.2068  0.0449
  162MOL0     O21770  11.238   8.998  11.545 -0.2472 -0.1930 -0.4218
  162MOL0     C21771  11.355   9.077  11.512 -0.2952 -1.0217 -0.0411
  162MOL0     C21772  11.480   9.006  11.531 -0.0028  0.4661  1.0178
  162MOL0     C21773  11.461   8.859  11.471 -0.0807  0.7314 -0.7668
  162MOL0     C21774  11.597   8.794  11.440 -0.2496  0.4057 -0.1561
  162MOL0     C21775  11.700   8.803  11.542  0.0641  0.2035 -0.3470
  162MOL0     C21776  11.831   8.721  11.531  0.4085 -0.1729 -0.1616
  162MOL0     C21777  11.816   8.568  11.513 -0.0871 -0.3280 -0.2015
  162MOL0     C21778  11.938   8.484  11.485  0.0150 -0.1387  0.8119
  162MOL0    Cl21779  11.855   8.328  11.491  0.1246 -0.1758 -0.0798
  162MOL0     C21780  11.114   9.202  11.606 -0.5565  1.0314  0.7697
  162MOL0     C21781  10.988   9.258  11.613  0.3698 -0.4486  0.1991
  162MOL0     O21782  10.790   9.411  11.775  1.1504  0.1372 -0.2310
  162MOL0     C21783  10.479   9.335  11.610 -1.2015  0.7369  0.6014
  162MOL0     C21784  10.348   9.358  11.622  0.8474 -1.2956  0.5674
  162MOL0     N21785   9.597   9.371  11.926  0.3123 -0.4146 -0.4883
  162MOL0     N21786   9.540   9.304  11.829 -0.2246  0.5642  0.4535
  162MOL0     C21787   9.377   8.429  10.840  0.2264  0.2335  0.0279
  162MOL0     C21788   9.378   8.388  10.708 -0.2615 -0.3947  0.1686
  162MOL0     C21789   9.506   8.245  10.305 -0.3456 -1.5125  0.1328
  162MOL0     C21790   9.628   8.170  10.304  0.5204  0.5362  0.3679
  162MOL0     C21791   9.693   8.140  10.187 -0.3320 -0.4437 -0.3120
  162MOL0     C21792   9.643   8.201  10.067  0.2013  0.7507  0.5544
  162MOL0     O21793   9.719   8.175   9.952 -0.8279  0.1851 -0.4567
  162MOL0     C21794   9.800   8.290   9.910 -0.2120 -0.3724 -0.0975
  162MOL0     C21795   9.937   8.295   9.981  0.5338  0.0205  0.1724
  162MOL0     C21796  10.018   8.418   9.980 -0.0797  0.5019  0.0851
  162MOL0     C21797  10.025   8.489   9.838  0.1364 -0.1729 -1.2762
  162MOL0     C21798  10.108   8.418   9.743  0.8601 -0.1889  0.5747
  162MOL0     C21799  10.188   8.378   9.652  0.7949 -0.5945  0.5254
  162MOL0     C21800   9.525   8.277  10.064 -0.3406 -1.3429  0.5672
  162MOL0     C21801   9.458   8.311  10.185  0.3884  0.4491  0.4267
  162MOL0     C21802   9.341   8.401  10.168  1.0477 -0.6925 -0.9873
  162MOL0     H21803   9.699   8.267  10.705 -0.2521 -0.9624  0.3098
  162MOL0     H21804   9.680   8.329  10.955  2.7142  0.9289 -3.0718
  162MOL0     H21805   9.372   8.599  11.059  1.5679  2.1866  2.5221
  162MOL0     H21806   9.276   8.459  11.115 -1.0140  0.9776  3.5915
  162MOL0     H21807   9.457   8.442  11.297 -0.1258  0.6885  2.2791
  162MOL0     H21808   9.300   8.518  11.312 -1.1773  1.8589 -2.1804
  162MOL0     H21809   9.417   8.745  11.235  1.2192  1.9119  2.3305
  162MOL0     H21810   9.559   8.652  11.270 -1.3295 -0.5949  0.4092
  162MOL0     H21811   9.324   8.704  11.467  0.6505  2.5946  1.4203
  162MOL0     H21812   9.469   8.595  11.485 -0.2310  0.6168  1.4776
  162MOL0     H21813   9.619   8.791  11.489 -0.0796 -4.0304  1.0521
  162MOL0     H21814   9.492   8.894  11.424  1.2667 -1.6377 -2.5333
  162MOL0     H21815   9.360   8.908  11.632  0.2473  2.2680  2.5938
  162MOL0     H21816   9.474   8.799  11.717 -1.0571  1.1516  0.8310
  162MOL0     H21817   9.547   9.054  11.589  0.8306 -0.8094  0.0949
  162MOL0     H21818   9.657   8.946  11.690  0.2447 -0.0853  0.0316
  162MOL0     H21819   9.396   9.104  11.760  1.7113  3.3862 -0.1484
  162MOL0     H21820   9.488   9.003  11.874 -1.3941  1.6591  1.6586
  162MOL0     H21821   9.757   9.080  11.915  0.2604 -0.2502 -1.4869
  162MOL0     H21822   9.760   9.436  12.125  0.4932  0.4074 -0.5797
  162MOL0     H21823   9.753   9.268  12.168 -1.3877 -1.5686 -1.2662
  162MOL0     H21824   9.994   9.375  12.124 -1.8953  0.3419  1.2736
  162MOL0     H21825   9.953   9.212  12.062 -0.9308  0.1199  0.7256
  162MOL0     H21826   9.911   9.460  11.905 -0.8382  0.0666  4.8803
  162MOL0     H21827   9.920   9.287  11.851  1.4318  0.3207 -0.6539
  162MOL0     H21828  10.167   9.307  11.928 -2.0109 -0.5625 -1.0974
  162MOL0     H21829  10.139   9.479  11.956 -0.6193 -0.0771 -0.7800
  162MOL0     H21830  10.357   9.500  11.941  1.5517  0.4741  0.1724
  162MOL0     H21831  10.576   9.475  11.913  0.7752  3.4698 -2.3534
  162MOL0     H21832  10.797   8.992  11.595  0.9208 -1.0778 -0.8479
  162MOL0     H21833  11.027   8.880  11.579  4.7236  0.5273 -3.0665
  162MOL0     H21834  11.345   9.120  11.411  3.4520 -2.3645 -1.1283
  162MOL0     H21835  11.356   9.166  11.575 -3.9600 -1.2130  0.5539
  162MOL0     H21836  11.561   9.050  11.471 -1.2454 -0.5048 -1.5365
  162MOL0     H21837  11.520   8.989  11.631 -1.0136  0.2199  1.3894
  162MOL0     H21838  11.395   8.805  11.539 -3.6180  1.0132 -3.6682
  162MOL0     H21839  11.401   8.854  11.379  2.0864 -0.8266 -2.2019
  162MOL0     H21840  11.644   8.837  11.351 -1.8613 -2.2578 -2.4879
  162MOL0     H21841  11.581   8.685  11.433  0.5634  0.2356  0.5334
  162MOL0     H21842  11.654   8.781  11.639 -0.3114  1.3488 -0.2467
  162MOL0     H21843  11.728   8.908  11.554  1.7476 -0.0918 -1.3454
  162MOL0     H21844  11.879   8.768  11.444 -2.5015  2.3699 -0.5839
  162MOL0     H21845  11.896   8.730  11.618  1.8666 -2.3861 -0.9267
  162MOL0     H21846  11.758   8.534  11.426  3.3054 -2.3574 -1.8644
  162MOL0     H21847  11.784   8.535  11.612  2.7226  1.6850  1.5156
  162MOL0     H21848  11.984   8.508  11.389  1.2217  0.1125  1.4325
  162MOL0     H21849  12.019   8.492  11.558  1.6115 -0.0893 -0.8890
  162MOL0     H21850  11.190   9.280  11.602 -0.6751  1.1455  0.7305
  162MOL0     H21851  10.994   9.366  11.622  2.4684 -0.6046  1.2256
  162MOL0     H21852  10.520   9.287  11.521 -0.5580  0.8513  0.8264
  162MOL0     H21853  10.266   9.335  11.554  0.9993  0.9174 -0.4528
  162MOL0     H21854   9.293   8.487  10.876  0.3338  0.1211  0.4747
  162MOL0     H21855   9.284   8.403  10.656 -0.9978 -1.8517  1.0238
  162MOL0     H21856   9.674   8.137  10.397  0.7600  1.3335  0.5356
  162MOL0     H21857   9.790   8.093  10.193 -0.2239 -0.0994  4.0795
  162MOL0     H21858   9.741   8.379   9.935 -1.2643 -1.8511  3.3068
  162MOL0     H21859   9.803   8.286   9.801 -4.1083  0.9234 -0.3900
  162MOL0     H21860   9.998   8.217   9.935  1.3590  1.2009 -0.7776
  162MOL0     H21861   9.935   8.272  10.088 -0.2931  1.3639  0.4607
  162MOL0     H21862  10.122   8.408  10.013 -0.2894  0.6922  0.8158
  162MOL0     H21863   9.962   8.475  10.055  1.8817  0.1069  1.9564
  162MOL0     H21864   9.927   8.507   9.792 -1.5092 -2.0595  1.2344
  162MOL0     H21865  10.071   8.587   9.852 -1.1192  0.1665  0.9897
  162MOL0     H21866  10.243   8.332   9.572  0.6244 -2.2131  1.3085
  162MOL0     H21867   9.484   8.318   9.972  1.1712  0.8401  0.7963
  162MOL0     H21868   9.339   8.464  10.079 -0.5490 -1.0819 -1.2460
  162MOL0     H21869   9.239   8.368  10.187  0.0302  3.9282  3.6766
  162MOL0     H21870   9.355   8.477  10.245 -1.1765 -0.3236 -0.8806
  163MOL0     O21871   1.249   6.543   8.056 -0.5632 -0.3232  0.1036
  163MOL0     C21872   1.341   6.537   7.977 -0.4577  0.8074  0.1478
  163MOL0     O21873   1.475   6.559   8.006  0.1701  0.4243 -0.5332
  163MOL0     C21874   1.522   6.498   8.125  0.0860 -0.8413  0.9904
  163MOL0     C21875   1.554   6.367   8.120 -0.2789  0.6049 -0.7559
  163MOL0     C21876   1.597   6.303   8.233 -0.0621  0.3042  0.3124
  163MOL0     C21877   1.618   6.376   8.352 -1.3765  0.1476  1.4789
  163MOL0     O21878   1.688   6.339   8.459  0.2773  0.1423 -0.6881
  163MOL0     C21879   1.727   6.203   8.464 -0.9048  0.2028 -0.4863
  163MOL0     C21880   1.841   6.181   8.574  0.3419  0.1044  0.0996
  163MOL0     C21881   1.801   6.056   8.668  0.3245 -1.0766  0.6729
  163MOL0     C21882   1.693   6.086   8.769 -0.6369 -0.3936 -0.3652
  163MOL0     C21883   1.563   6.017   8.744 -0.4648  0.5793 -0.0824
  163MOL0     C21884   1.456   6.049   8.840 -0.2138 -0.0019 -0.8589
  163MOL0     C21885   1.492   5.979   8.973  0.3578 -0.2077  0.0065
  163MOL0     C21886   1.392   6.012   9.086  0.1275  0.3873  0.3927
  163MOL0     N21887   1.247   5.985   9.045 -1.0872 -0.4899 -0.0965
  163MOL0     C21888   1.163   6.064   8.982 -0.0197 -0.6970 -0.7378
  163MOL0     C21889   1.052   5.991   8.943 -0.4883  0.3840  0.6584
  163MOL0     C21890   0.927   6.043   8.882  0.2708 -0.3271  0.7692
  163MOL0     C21891   0.927   6.050   8.733 -0.6834 -0.0740 -0.8090
  163MOL0     C21892   0.929   5.912   8.662  0.2737  0.7452  0.2377
  163MOL0     C21893   0.800   5.832   8.698  0.3804  0.4712  0.1191
  163MOL0     O21894   0.791   5.727   8.617 -0.2124 -0.3677 -0.0070
  163MOL0     C21895   0.769   5.750   8.482  0.6282 -0.1593  1.1436
  163MOL0     C21896   0.738   5.877   8.421 -0.6869 -0.1568  0.6625
  163MOL0     C21897   0.706   5.874   8.285 -0.0190 -0.5028 -0.2858
  163MOL0     C21898   0.709   5.757   8.211 -1.2128 -0.4535  0.7570
  163MOL0     C21899   0.666   5.756   8.069 -0.4586 -0.6456  0.1736
  163MOL0     O21900   0.624   5.867   8.005  0.3235 -0.1170  0.0614
  163MOL0     C21901   0.591   5.873   7.870  0.4865 -0.1225  0.4660
  163MOL0     C21902   0.619   5.792   7.761 -0.6262  0.5570  1.3516
  163MOL0     C21903   0.573   5.815   7.633  0.0016  0.0907 -0.0864
  163MOL0     C21904   0.493   5.927   7.598  0.8226  0.9165  0.6667
  163MOL0     O21905   0.464   5.944   7.461 -0.0883  0.5423  0.3627
  163MOL0     C21906   0.385   6.057   7.430 -0.0198 -0.5100  0.1189
  163MOL0     C21907   0.376   6.054   7.276  0.9565  0.2925 -1.4074
  163MOL0     C21908   0.503   6.125   7.217  0.0995 -0.4577  0.0498
  163MOL0     C21909   0.528   6.082   7.064 -0.1715 -0.1288 -0.2077
  163MOL0     C21910   0.652   6.149   6.999  0.1620  0.1967 -0.9242
  163MOL0     C21911   0.654   6.294   7.012 -0.6601 -0.5661 -0.1705
  163MOL0     C21912   0.547   6.374   6.934  0.1475 -0.1605 -0.3304
  163MOL0     C21913   0.540   6.531   6.957 -1.0953  1.3834 -0.5804
  163MOL0    Cl21914   0.445   6.616   6.843  0.6444 -0.5138  0.0033
  163MOL0     C21915   0.455   6.012   7.710 -0.0619  1.5519 -0.0411
  163MOL0     C21916   0.507   5.982   7.844  0.2939  0.3610  0.0459
  163MOL0     O21917   0.694   5.647   8.016 -0.2066 -1.1660  0.2618
  163MOL0     C21918   0.744   5.640   8.278  0.5211  0.4738  0.0209
  163MOL0     C21919   0.775   5.631   8.409  0.3923 -0.6255  0.5074
  163MOL0     N21920   1.077   5.860   8.975  0.6371  0.0708 -1.2116
  163MOL0     N21921   1.189   5.862   9.040  0.5313  0.2576  0.8684
  163MOL0     C21922   1.574   6.507   8.353 -0.0343 -0.5015  0.6653
  163MOL0     C21923   1.534   6.574   8.240  0.5800  0.5449  0.3227
  163MOL0     C21924   1.311   6.508   7.832 -1.1498  0.2769 -0.6857
  163MOL0     C21925   1.413   6.437   7.760 -0.5967 -0.2150 -0.5785
  163MOL0     C21926   1.393   6.387   7.636  0.1368 -0.4944 -0.5580
  163MOL0     C21927   1.272   6.411   7.570 -0.3568  0.3389  0.0184
  163MOL0     O21928   1.270   6.342   7.452 -0.4137  0.6723  0.6197
  163MOL0     C21929   1.164   6.379   7.363 -0.7708 -0.8829 -0.4253
  163MOL0     C21930   1.185   6.341   7.213  1.1893 -1.0883 -0.5582
  163MOL0     C21931   1.208   6.190   7.190  0.0400 -0.3436 -0.8063
  163MOL0     C21932   1.235   6.157   7.045  0.3997 -0.1009 -0.3517
  163MOL0     C21933   1.137   6.215   6.958 -0.0679 -0.3170  0.0428
  163MOL0     C21934   1.057   6.278   6.902 -0.4294 -0.6623 -0.1958
  163MOL0     C21935   1.166   6.481   7.642 -0.0964 -0.0532  0.2652
  163MOL0     C21936   1.183   6.527   7.769  0.2521  0.0920 -0.5966
  163MOL0     C21937   1.052   6.572   7.833 -0.5323  0.0069  0.1601
  163MOL0     H21938   1.567   6.312   8.028  1.3690  0.9900 -0.7779
  163MOL0     H21939   1.600   6.195   8.234 -5.0491 -0.1328  3.6156
  163MOL0     H21940   1.645   6.135   8.490  1.3548 -2.6992 -0.4489
  163MOL0     H21941   1.772   6.169   8.371 -0.1402 -0.7541  0.2126
  163MOL0     H21942   1.845   6.275   8.631 -0.8728 -0.7392  1.6444
  163MOL0     H21943   1.939   6.169   8.526  0.1172 -1.6214  0.0271
  163MOL0     H21944   1.895   6.032   8.718  0.8938 -0.6705 -0.1927
  163MOL0     H21945   1.758   5.974   8.609  1.3605 -1.4051  0.3603
  163MOL0     H21946   1.743   6.049   8.859 -1.2840  0.5150  0.3928
  163MOL0     H21947   1.680   6.195   8.776  1.8965  0.0108 -0.9246
  163MOL0     H21948   1.531   6.039   8.642 -0.4415  0.1971 -0.1741
  163MOL0     H21949   1.578   5.910   8.759 -1.3572  0.4278 -0.2138
  163MOL0     H21950   1.448   6.158   8.840  1.9232  0.1968 -1.0098
  163MOL0     H21951   1.366   6.003   8.800 -0.8077 -0.9661  1.3913
  163MOL0     H21952   1.594   6.003   9.005 -0.1614  1.4682  0.5131
  163MOL0     H21953   1.498   5.873   8.950 -2.5174  0.2701 -3.9894
  163MOL0     H21954   1.406   5.943   9.169 -0.7896 -1.9258 -1.2600
  163MOL0     H21955   1.408   6.115   9.119  3.4703 -0.0752  0.4782
  163MOL0     H21956   1.172   6.172   8.973  0.8770 -0.7494 -0.5513
  163MOL0     H21957   0.855   5.976   8.930  0.1837 -2.4561 -2.0593
  163MOL0     H21958   0.901   6.140   8.925  0.0350  1.6384 -3.3445
  163MOL0     H21959   0.840   6.111   8.709 -1.4889 -0.7867  0.2642
  163MOL0     H21960   1.009   6.109   8.690 -0.7817 -0.1368 -1.0881
  163MOL0     H21961   1.023   5.859   8.681 -0.8239 -0.3466  3.1652
  163MOL0     H21962   0.933   5.943   8.557  1.2228 -0.8702 -0.2409
  163MOL0     H21963   0.715   5.901   8.691  0.9925  1.4714  1.8249
  163MOL0     H21964   0.816   5.804   8.802  4.7119  0.9121 -0.2230
  163MOL0     H21965   0.725   5.967   8.481 -0.0049  1.5526 -1.5792
  163MOL0     H21966   0.670   5.970   8.249  3.6938  2.3012  2.7108
  163MOL0     H21967   0.674   5.700   7.776 -3.0706 -1.2465  0.0491
  163MOL0     H21968   0.616   5.745   7.562  1.2872  0.5481  0.2124
  163MOL0     H21969   0.285   6.054   7.474 -1.1325  2.3070 -1.9097
  163MOL0     H21970   0.442   6.140   7.471 -1.5827  1.2544 -1.1246
  163MOL0     H21971   0.374   5.954   7.231 -1.1896  0.1665 -1.0984
  163MOL0     H21972   0.288   6.110   7.245  0.5693  1.5612  1.6645
  163MOL0     H21973   0.492   6.234   7.222 -0.6615 -0.5518  0.6144
  163MOL0     H21974   0.584   6.099   7.286 -1.4049  1.9543  2.9918
  163MOL0     H21975   0.441   6.111   7.004 -1.6530 -1.2594  1.3101
  163MOL0     H21976   0.534   5.974   7.049  0.4345 -0.5255  2.5121
  163MOL0     H21977   0.655   6.122   6.893 -2.0241 -2.5989 -0.4039
  163MOL0     H21978   0.740   6.103   7.044  1.0126  1.7653 -0.9125
  163MOL0     H21979   0.640   6.324   7.116 -0.7683 -0.6010 -0.1751
  163MOL0     H21980   0.748   6.335   6.976 -1.0262  1.5793  1.0941
  163MOL0     H21981   0.450   6.339   6.970  0.0823  0.5876  0.2457
  163MOL0     H21982   0.562   6.363   6.826  3.3722 -0.5038  0.0659
  163MOL0     H21983   0.503   6.544   7.059 -0.3280  2.1371 -0.3892
  163MOL0     H21984   0.641   6.573   6.951 -0.2091 -0.2116  1.6463
  163MOL0     H21985   0.390   6.098   7.696 -1.9258  0.7239  2.6524
  163MOL0     H21986   0.493   6.049   7.929  1.2255  1.2510 -0.4773
  163MOL0     H21987   0.755   5.549   8.220  0.4225  0.1684  0.4742
  163MOL0     H21988   0.797   5.537   8.459  0.8006  0.3335  2.2326
  163MOL0     H21989   1.562   6.565   8.444  0.0449 -3.3716  2.6291
  163MOL0     H21990   1.510   6.679   8.253 -2.1276 -0.1182  1.4438
  163MOL0     H21991   1.513   6.418   7.799 -0.5935 -2.3693 -1.5029
  163MOL0     H21992   1.472   6.332   7.585  0.5410 -0.1926 -0.2672
  163MOL0     H21993   1.162   6.488   7.374  2.6341 -0.8377  1.1892
  163MOL0     H21994   1.070   6.339   7.401 -0.5746 -0.8191  0.1408
  163MOL0     H21995   1.268   6.399   7.170  1.3003 -1.0537 -0.2968
  163MOL0     H21996   1.094   6.368   7.159  1.0803 -0.3547 -0.0266
  163MOL0     H21997   1.115   6.144   7.226  0.6284 -1.2312 -0.3638
  163MOL0     H21998   1.292   6.143   7.243  2.0474 -1.8860 -4.9238
  163MOL0     H21999   1.338   6.181   7.017 -0.7296  2.9533 -2.3998
  163MOL0     H22000   1.227   6.048   7.040  3.0078 -0.3837  0.0736
  163MOL0     H22001   0.989   6.330   6.837 -0.9058  0.8788  1.4422
  163MOL0     H22002   1.073   6.479   7.586  1.1878  1.5633 -2.0592
  163MOL0     H22003   1.000   6.478   7.852  3.5803 -2.8305 -1.1623
  163MOL0     H22004   1.059   6.613   7.935 -0.3107  0.6457 -0.1038
  163MOL0     H22005   0.991   6.640   7.772 -0.7794  0.2539  0.6725
  164MOL0     O22006   0.831   4.327   1.907 -0.4224 -0.0373  0.2521
  164MOL0     C22007   0.838   4.444   1.854  0.3834  0.7304 -0.6547
  164MOL0     O22008   0.876   4.562   1.918 -0.6312  0.1896  0.0223
  164MOL0     C22009   0.932   4.554   2.043 -0.5067  0.8567  0.7663
  164MOL0     C22010   0.868   4.479   2.150  0.1424 -0.5500 -0.9338
  164MOL0     C22011   0.941   4.478   2.269  1.1515 -0.5450 -0.0442
  164MOL0     C22012   1.061   4.544   2.282 -0.0322  1.3811  0.6023
  164MOL0     O22013   1.125   4.527   2.407 -0.3826  0.0971 -0.4198
  164MOL0     C22014   1.218   4.630   2.446 -0.4882  0.0535 -0.4778
  164MOL0     C22015   1.378   4.611   2.441 -0.7309 -0.9454 -0.3827
  164MOL0     C22016   1.447   4.746   2.475  0.2619 -0.9316 -0.1126
  164MOL0     C22017   1.450   4.777   2.625 -0.0099 -0.8529  0.0012
  164MOL0     C22018   1.558   4.710   2.707  0.0779  0.8575 -0.7870
  164MOL0     C22019   1.540   4.733   2.854  0.4089 -0.0753  0.3848
  164MOL0     C22020   1.429   4.642   2.930  0.3767  0.3392  0.5313
  164MOL0     C22021   1.437   4.679   3.080 -0.6639  0.4052  0.2425
  164MOL0     N22022   1.339   4.608   3.164  0.1833  0.8140 -0.8223
  164MOL0     C22023   1.349   4.480   3.211 -0.3728 -0.0643 -0.1052
  164MOL0     C22024   1.237   4.466   3.281 -0.8804  0.7474 -0.1727
  164MOL0     C22025   1.190   4.348   3.372 -0.4303  0.4397 -0.1464
  164MOL0     C22026   1.060   4.292   3.324 -0.1542  0.0077 -0.5667
  164MOL0     C22027   1.097   4.163   3.245 -0.4469  0.5083 -0.2856
  164MOL0     C22028   1.119   4.036   3.326 -1.0068  0.0922 -0.5957
  164MOL0     O22029   1.021   4.013   3.424 -0.2920 -0.4622 -0.0352
  164MOL0     C22030   0.989   3.879   3.441  0.7523 -0.2125 -0.0874
  164MOL0     C22031   0.874   3.857   3.516 -0.2017  0.3925 -0.0086
  164MOL0     C22032   0.834   3.725   3.550 -0.4212 -0.0428 -0.1703
  164MOL0     C22033   0.907   3.614   3.504 -0.1761  0.2426  0.4003
  164MOL0     C22034   0.858   3.480   3.521 -0.7778  0.2992  0.5486
  164MOL0     O22035   0.733   3.460   3.577 -0.3207  0.5535 -0.4264
  164MOL0     C22036   0.651   3.353   3.556  0.4191  0.0436 -0.0590
  164MOL0     C22037   0.532   3.342   3.634 -0.4620 -0.4469  0.4919
  164MOL0     C22038   0.447   3.228   3.623 -0.7219 -0.6431 -0.2395
  164MOL0     C22039   0.464   3.130   3.522  0.9871 -0.6928  0.6692
  164MOL0     O22040   0.365   3.031   3.524  0.0592 -0.3212  1.1454
  164MOL0     C22041   0.394   2.922   3.440 -0.2232  0.6538  0.3714
  164MOL0     C22042   0.308   2.808   3.486  0.2583 -0.6727  0.9182
  164MOL0     C22043   0.177   2.795   3.419 -0.4531 -0.1439  0.0812
  164MOL0     C22044   0.061   2.879   3.476 -0.3120  0.7941 -0.8337
  164MOL0     C22045  -0.076   2.825   3.449 -0.7272  0.5403  1.4245
  164MOL0     C22046  -0.183   2.921   3.495 -0.0202  0.0453  0.6371
  164MOL0     C22047  -0.326   2.860   3.489 -1.0281  0.2060 -1.2246
  164MOL0     C22048  -0.412   2.965   3.553  0.4654 -0.2528 -0.3199
  164MOL0    Cl22049  -0.394   2.936   3.730  0.5017 -0.1646 -0.3358
  164MOL0     C22050   0.569   3.148   3.439 -0.6831 -0.2097  0.4891
  164MOL0     C22051   0.669   3.248   3.458 -0.8310  0.0568 -0.0505
  164MOL0     O22052   0.936   3.396   3.472 -0.1220 -0.0880  0.2402
  164MOL0     C22053   1.030   3.636   3.432 -0.3950  0.0963 -0.3137
  164MOL0     C22054   1.072   3.769   3.411  0.6346 -0.0352 -0.0913
  164MOL0     N22055   1.159   4.583   3.257 -0.2540 -0.2605  0.3526
  164MOL0     N22056   1.219   4.672   3.189 -0.9770  0.1381  0.5990
  164MOL0     C22057   1.116   4.618   2.175 -1.2432 -0.1654 -1.0890
  164MOL0     C22058   1.044   4.622   2.059 -0.2088 -0.8332 -0.9580
  164MOL0     C22059   0.781   4.455   1.717 -1.2120 -0.4667  0.2675
  164MOL0     C22060   0.811   4.570   1.644  0.0969 -0.0180 -0.6075
  164MOL0     C22061   0.769   4.593   1.513 -0.0346 -0.6328 -0.8224
  164MOL0     C22062   0.689   4.490   1.456 -0.8742  0.2013 -0.0199
  164MOL0     O22063   0.637   4.517   1.333 -0.5812 -0.6222  0.1387
  164MOL0     C22064   0.531   4.614   1.340 -0.2389  0.2754 -0.0693
  164MOL0     C22065   0.408   4.545   1.285 -0.3545  0.0911  0.1554
  164MOL0     C22066   0.412   4.484   1.148  0.0027 -0.7282 -1.2052
  164MOL0     C22067   0.385   4.581   1.029 -0.8973  0.4810  0.2668
  164MOL0     C22068   0.492   4.603   0.930 -0.0584 -0.2650 -0.6797
  164MOL0     C22069   0.577   4.617   0.842 -0.3118  0.1354 -0.5994
  164MOL0     C22070   0.656   4.375   1.526 -0.2424  0.1493 -0.1530
  164MOL0     C22071   0.702   4.351   1.655  1.6363  0.1522 -0.0389
  164MOL0     C22072   0.671   4.212   1.718  0.6177 -0.0772 -0.6833
  164MOL0     H22073   0.771   4.431   2.148  0.2333 -1.0115  1.7638
  164MOL0     H22074   0.899   4.428   2.355 -2.0546  1.3305 -0.3538
  164MOL0     H22075   1.199   4.719   2.385 -0.9792 -1.0661 -2.0214
  164MOL0     H22076   1.195   4.656   2.550  0.6627  0.9434 -0.4210
  164MOL0     H22077   1.405   4.586   2.337  1.4041 -2.2218  0.4178
  164MOL0     H22078   1.399   4.533   2.514 -2.0780 -0.9414  0.0435
  164MOL0     H22079   1.398   4.828   2.423 -0.2002 -0.9281  0.3266
  164MOL0     H22080   1.552   4.725   2.452  0.3502 -0.5106 -0.1078
  164MOL0     H22081   1.467   4.884   2.638  1.4769 -1.2100  1.2846
  164MOL0     H22082   1.356   4.745   2.671  0.6298 -2.0894  0.4896
  164MOL0     H22083   1.557   4.603   2.688  1.4184  0.5582  0.6445
  164MOL0     H22084   1.653   4.751   2.672  1.6137 -1.5610  0.3026
  164MOL0     H22085   1.643   4.709   2.882  1.4870  1.6302 -1.7624
  164MOL0     H22086   1.510   4.835   2.881 -0.4627 -0.5638  1.3252
  164MOL0     H22087   1.445   4.535   2.913 -1.5669  0.1022 -0.1424
  164MOL0     H22088   1.333   4.667   2.884  0.6472  0.6282  0.1193
  164MOL0     H22089   1.540   4.670   3.117 -1.0223 -1.3732  0.8707
  164MOL0     H22090   1.420   4.787   3.078  1.5658  0.8018 -1.7669
  164MOL0     H22091   1.432   4.414   3.191  0.1849  0.6790 -0.2527
  164MOL0     H22092   1.271   4.275   3.384  3.6117  4.8030  2.5272
  164MOL0     H22093   1.175   4.388   3.472  2.7666 -0.8345  0.9772
  164MOL0     H22094   1.004   4.270   3.415 -0.7557 -4.0128 -1.7435
  164MOL0     H22095   1.005   4.355   3.252 -0.8416 -0.9129 -0.8650
  164MOL0     H22096   1.193   4.176   3.193 -0.1116 -2.4557 -0.5884
  164MOL0     H22097   1.032   4.129   3.164  0.3719 -1.3971 -0.2071
  164MOL0     H22098   1.212   4.035   3.384 -1.1662 -0.1958 -0.3404
  164MOL0     H22099   1.117   3.956   3.251 -2.9873  1.0543 -1.6313
  164MOL0     H22100   0.815   3.938   3.557  0.6859  1.0124  0.0695
  164MOL0     H22101   0.742   3.712   3.606 -1.8539  0.3681 -2.3366
  164MOL0     H22102   0.516   3.423   3.704  4.3123  1.7826 -0.5632
  164MOL0     H22103   0.354   3.209   3.675 -1.4255 -1.7247 -1.8099
  164MOL0     H22104   0.360   2.951   3.340  0.0444  1.0836  0.4027
  164MOL0     H22105   0.499   2.890   3.437 -0.1921  0.7627  0.2805
  164MOL0     H22106   0.367   2.720   3.458  0.4996 -0.0396 -0.6546
  164MOL0     H22107   0.286   2.817   3.593 -2.4468  3.3859  0.2184
  164MOL0     H22108   0.181   2.801   3.310  1.3342  2.6523  0.1790
  164MOL0     H22109   0.146   2.691   3.423 -0.4003 -0.4942 -4.2887
  164MOL0     H22110   0.060   2.977   3.427  1.4312  0.3253 -1.9167
  164MOL0     H22111   0.062   2.885   3.585 -0.1814  2.2472 -0.8909
  164MOL0     H22112  -0.080   2.726   3.496  1.7242 -1.3590 -1.8171
  164MOL0     H22113  -0.093   2.802   3.343 -1.9077 -1.1641  1.9366
  164MOL0     H22114  -0.156   2.934   3.601 -1.5156 -4.3056  1.7822
  164MOL0     H22115  -0.180   3.017   3.443  3.1903  1.0256  2.3417
  164MOL0     H22116  -0.329   2.759   3.531  0.3208  0.0298 -1.4991
  164MOL0     H22117  -0.352   2.841   3.384  1.2798 -0.3835 -1.7330
  164MOL0     H22118  -0.380   3.060   3.509 -0.5207 -1.1161 -3.0804
  164MOL0     H22119  -0.519   2.959   3.531 -0.0707 -1.5632  2.1904
  164MOL0     H22120   0.599   3.087   3.355  0.6268  2.3824 -1.0773
  164MOL0     H22121   0.753   3.267   3.393 -0.5896  2.1524  0.7924
  164MOL0     H22122   1.088   3.550   3.400 -1.3351 -0.4449 -0.6278
  164MOL0     H22123   1.171   3.791   3.374  0.5036  1.7074  0.5148
  164MOL0     H22124   1.212   4.667   2.185 -0.4533 -2.1624  2.5922
  164MOL0     H22125   1.072   4.677   1.970 -1.9817 -0.7089 -1.4856
  164MOL0     H22126   0.873   4.647   1.689  0.1252  0.4919 -1.4885
  164MOL0     H22127   0.791   4.694   1.478  2.2893 -0.5852  0.5326
  164MOL0     H22128   0.548   4.699   1.274 -1.5186 -0.4156 -1.3332
  164MOL0     H22129   0.507   4.645   1.443  0.7582 -3.9161  1.6594
  164MOL0     H22130   0.322   4.613   1.291 -0.0052  0.4574  1.3528
  164MOL0     H22131   0.398   4.467   1.361 -1.2892  0.7408  0.7292
  164MOL0     H22132   0.324   4.420   1.154 -0.6923  0.3120  0.9396
  164MOL0     H22133   0.502   4.422   1.143 -1.1001 -2.4025 -0.9290
  164MOL0     H22134   0.294   4.552   0.977 -2.5621  1.9049  2.2259
  164MOL0     H22135   0.361   4.680   1.069 -2.2476  0.4996 -0.5554
  164MOL0     H22136   0.664   4.642   0.785 -1.4119  2.8111 -1.2791
  164MOL0     H22137   0.607   4.296   1.470  0.1582 -0.7907  0.7864
  164MOL0     H22138   0.617   4.134   1.664 -1.7895  0.3041  1.0058
  164MOL0     H22139   0.769   4.171   1.744  0.4439  1.6635  3.6835
  164MOL0     H22140   0.618   4.225   1.813  0.7003  0.4546 -0.7082
  165MOL0     O22141   1.710   1.345   4.721  0.4507 -0.1252 -0.4298
  165MOL0     C22142   1.755   1.458   4.704  0.1835 -0.0836 -0.3365
  165MOL0     O22143   1.891   1.482   4.726 -0.1367 -0.1687 -0.1669
  165MOL0     C22144   1.986   1.387   4.741  0.6704  1.1352 -0.6284
  165MOL0     C22145   1.965   1.268   4.822  0.5208  0.3201  0.2110
  165MOL0     C22146   2.064   1.164   4.819  0.3322  0.7545 -0.8390
  165MOL0     C22147   2.175   1.177   4.744 -0.6635  0.6005  0.2719
  165MOL0     O22148   2.282   1.095   4.746  0.7021  0.9125 -0.5394
  165MOL0     C22149   2.296   0.985   4.842  0.1037  0.2369 -0.0738
  165MOL0     C22150   2.341   1.028   4.978 -0.0766 -0.1029 -0.9016
  165MOL0     C22151   2.340   0.933   5.092 -1.1740  0.0137  0.0630
  165MOL0     C22152   2.467   0.848   5.080 -0.2053  0.8732  0.6777
  165MOL0     C22153   2.446   0.720   5.005  0.0495 -0.5719  0.0066
  165MOL0     C22154   2.377   0.610   5.073  0.2812 -0.2234 -0.3099
  165MOL0     C22155   2.468   0.532   5.166 -0.2173  0.1967 -0.2875
  165MOL0     C22156   2.379   0.435   5.239  0.1781 -0.2326 -0.1705
  165MOL0     N22157   2.293   0.494   5.338 -0.2107  0.2066 -0.7537
  165MOL0     C22158   2.302   0.624   5.383 -0.5260  0.6138  0.3770
  165MOL0     C22159   2.232   0.611   5.501  0.8564 -0.4962 -0.5679
  165MOL0     C22160   2.237   0.718   5.603  1.2209  0.5420 -0.6159
  165MOL0     C22161   2.334   0.674   5.706  0.2024 -0.3820 -0.5332
  165MOL0     C22162   2.346   0.763   5.832 -0.7792  0.4536 -0.1608
  165MOL0     C22163   2.288   0.907   5.814 -0.3715  0.4833  0.8043
  165MOL0     O22164   2.294   0.984   5.937 -0.3693  0.0594 -0.1660
  165MOL0     C22165   2.416   1.027   5.984  0.0569  1.1120 -0.6605
  165MOL0     C22166   2.539   1.035   5.913 -0.3788 -0.3787 -0.2284
  165MOL0     C22167   2.653   1.092   5.978 -0.3366  0.2121 -0.3245
  165MOL0     C22168   2.648   1.135   6.110 -0.0125  0.1956 -0.4055
  165MOL0     C22169   2.763   1.209   6.168  0.3659 -0.0466  0.0344
  165MOL0     O22170   2.735   1.296   6.273 -0.1307  0.3190 -0.1470
  165MOL0     C22171   2.827   1.387   6.321  0.3588  0.0781 -0.5706
  165MOL0     C22172   2.781   1.511   6.368 -0.3303  0.8249 -0.8069
  165MOL0     C22173   2.876   1.599   6.432  0.4021  0.1193 -0.0827
  165MOL0     C22174   3.012   1.571   6.437  0.3081  0.5007 -0.1441
  165MOL0     O22175   3.093   1.665   6.489  0.4477 -0.1734  0.2647
  165MOL0     C22176   3.222   1.675   6.428 -0.2739 -0.3195 -0.0833
  165MOL0     C22177   3.284   1.803   6.478 -0.8887 -0.5048  0.3294
  165MOL0     C22178   3.331   1.791   6.626  0.2617  0.3701 -1.1054
  165MOL0     C22179   3.365   1.924   6.695  0.5478  0.0929  0.0690
  165MOL0     C22180   3.298   1.920   6.844  0.2176 -0.1980 -0.7725
  165MOL0     C22181   3.374   2.024   6.934  1.1605 -0.3518  0.3259
  165MOL0     C22182   3.303   2.031   7.073  0.8125  0.8161 -0.0065
  165MOL0     C22183   3.179   2.120   7.063  0.6626 -0.0120 -0.3009
  165MOL0    Cl22184   3.136   2.172   7.228  1.1567  0.4224 -0.4335
  165MOL0     C22185   3.056   1.442   6.388  0.2328  0.1955  0.9025
  165MOL0     C22186   2.961   1.354   6.330 -0.5399  0.8082 -0.6772
  165MOL0     O22187   2.866   1.195   6.113  0.0789 -0.7156  0.1123
  165MOL0     C22188   2.525   1.127   6.185 -0.6135 -0.2770 -0.1669
  165MOL0     C22189   2.415   1.063   6.120  0.1363  0.4787  0.7313
  165MOL0     N22190   2.174   0.488   5.519  0.4532  0.4053 -0.6209
  165MOL0     N22191   2.210   0.415   5.411  0.0869  0.7596  0.6608
  165MOL0     C22192   2.180   1.284   4.653 -0.7206 -0.1997 -0.3109
  165MOL0     C22193   2.093   1.392   4.657  0.1796 -0.6504  0.3065
  165MOL0     C22194   1.655   1.565   4.669 -0.4487 -1.0087 -0.2142
  165MOL0     C22195   1.716   1.689   4.655  0.5677 -0.8511  1.1582
  165MOL0     C22196   1.642   1.809   4.654 -0.2361 -0.2077  0.4965
  165MOL0     C22197   1.501   1.813   4.637 -0.1080  0.4459  0.9486
  165MOL0     O22198   1.413   1.921   4.625 -0.0661 -0.2021 -0.3311
  165MOL0     C22199   1.464   2.053   4.628  0.6249  0.3028  0.5641
  165MOL0     C22200   1.350   2.158   4.586  0.8357  0.2921  0.0965
  165MOL0     C22201   1.218   2.110   4.547  0.2225  1.1631 -0.2068
  165MOL0     C22202   1.207   2.046   4.401  0.2794 -0.0854 -0.6058
  165MOL0     C22203   1.074   2.069   4.351  0.2287 -0.1117  0.0158
  165MOL0     C22204   0.969   2.100   4.296  0.2197  1.6990 -0.2463
  165MOL0     C22205   1.444   1.688   4.630 -0.1353  0.7335 -0.6603
  165MOL0     C22206   1.510   1.568   4.652 -0.1152  0.3459 -0.2459
  165MOL0     C22207   1.439   1.437   4.643  1.0730 -0.3566 -0.1633
  165MOL0     H22208   1.883   1.251   4.892  0.0954 -0.7935 -0.5241
  165MOL0     H22209   2.053   1.083   4.890  3.9502  1.0216  0.2277
  165MOL0     H22210   2.200   0.932   4.845  1.5434 -2.5871 -0.6459
  165MOL0     H22211   2.371   0.913   4.809  0.0247 -1.5813  3.2981
  165MOL0     H22212   2.290   1.121   5.005  3.3858  1.8645 -0.5477
  165MOL0     H22213   2.442   1.070   4.978  0.6960 -1.7430  1.3786
  165MOL0     H22214   2.251   0.870   5.093 -1.1244 -0.0563  0.0722
  165MOL0     H22215   2.341   0.981   5.191 -1.1718 -0.2134  0.1726
  165MOL0     H22216   2.554   0.901   5.038  0.9620 -3.1001 -2.5393
  165MOL0     H22217   2.499   0.805   5.175 -3.0352 -3.3574 -0.0237
  165MOL0     H22218   2.398   0.741   4.909  2.9957  0.2879 -1.4097
  165MOL0     H22219   2.546   0.688   4.975  1.0653  0.4378  2.1316
  165MOL0     H22220   2.295   0.659   5.127  2.2764  0.6678  2.1004
  165MOL0     H22221   2.343   0.540   4.996  0.0879  0.6259 -1.0109
  165MOL0     H22222   2.517   0.594   5.241 -1.0944  3.7530 -2.4393
  165MOL0     H22223   2.544   0.475   5.111  1.5195  4.2598 -2.5079
  165MOL0     H22224   2.319   0.381   5.165 -0.1054  0.3905 -0.4031
  165MOL0     H22225   2.439   0.363   5.295 -0.8631 -1.6646 -0.8482
  165MOL0     H22226   2.365   0.706   5.349  1.4072 -1.3780 -1.1300
  165MOL0     H22227   2.249   0.819   5.563  0.8403  1.0765  0.5700
  165MOL0     H22228   2.143   0.714   5.659  1.7366 -2.5423  0.2188
  165MOL0     H22229   2.328   0.572   5.744 -1.0993 -0.4327 -0.8124
  165MOL0     H22230   2.431   0.664   5.657 -0.3234 -0.3548 -1.6195
  165MOL0     H22231   2.452   0.772   5.856 -0.4641 -0.8709 -0.9466
  165MOL0     H22232   2.295   0.714   5.916  0.4844 -0.5146  0.0655
  165MOL0     H22233   2.180   0.903   5.797 -0.5407 -0.1836  1.8806
  165MOL0     H22234   2.341   0.956   5.732 -1.3128 -2.1242 -1.5214
  165MOL0     H22235   2.536   1.000   5.811  0.4503 -3.0487  0.5720
  165MOL0     H22236   2.744   1.095   5.919  0.3633  2.5629  0.7280
  165MOL0     H22237   2.677   1.540   6.354 -0.4820  0.2911 -0.8252
  165MOL0     H22238   2.844   1.699   6.460  0.3390 -0.0277  0.3670
  165MOL0     H22239   3.287   1.591   6.451  2.3467  0.9726 -2.1117
  165MOL0     H22240   3.201   1.675   6.320 -0.2599 -1.3999 -0.0962
  165MOL0     H22241   3.357   1.835   6.403  1.1001 -1.1601  1.8613
  165MOL0     H22242   3.206   1.879   6.481 -2.9222 -2.4936  2.1209
  165MOL0     H22243   3.245   1.749   6.679  0.7270  1.3411  0.5028
  165MOL0     H22244   3.423   1.736   6.647 -0.2604  0.4834  1.9609
  165MOL0     H22245   3.318   1.998   6.629 -1.5864 -1.1902  0.0514
  165MOL0     H22246   3.474   1.933   6.706  1.1202 -1.3073 -3.1815
  165MOL0     H22247   3.301   1.822   6.893 -3.1148  1.4180  3.2481
  165MOL0     H22248   3.193   1.949   6.843 -0.0957 -1.1455  1.0780
  165MOL0     H22249   3.481   2.013   6.955  1.4092  1.4237  0.1318
  165MOL0     H22250   3.357   2.119   6.883 -0.4205  0.4590  2.2401
  165MOL0     H22251   3.380   2.072   7.138  2.2150 -0.5670 -0.7480
  165MOL0     H22252   3.267   1.935   7.112 -3.1907  1.3999 -1.7294
  165MOL0     H22253   3.198   2.214   7.010 -0.0163  0.3191  0.0295
  165MOL0     H22254   3.097   2.071   7.008 -0.2019  0.1505  0.8049
  165MOL0     H22255   3.156   1.404   6.405  0.6440  0.5374 -0.5976
  165MOL0     H22256   3.008   1.260   6.302  2.0316  2.4531 -2.3185
  165MOL0     H22257   2.513   1.162   6.287 -2.2464  1.0257 -0.7606
  165MOL0     H22258   2.317   1.041   6.161  0.7983 -3.0555  0.7234
  165MOL0     H22259   2.251   1.295   4.572  0.4400 -1.0384  0.5556
  165MOL0     H22260   2.123   1.475   4.595  1.3265 -2.5303 -1.7982
  165MOL0     H22261   1.823   1.705   4.646  0.4908 -1.2930 -0.8292
  165MOL0     H22262   1.703   1.898   4.650 -0.3356 -0.1609  0.0212
  165MOL0     H22263   1.540   2.063   4.549  0.1304 -0.7496 -0.0665
  165MOL0     H22264   1.505   2.091   4.722 -4.5593  3.4950  1.9367
  165MOL0     H22265   1.383   2.230   4.510  0.0780  1.6912  1.0417
  165MOL0     H22266   1.331   2.206   4.683  0.9499 -0.6511  0.5981
  165MOL0     H22267   1.149   2.194   4.555 -2.5129 -0.8769 -0.6880
  165MOL0     H22268   1.198   2.029   4.618  0.0420 -0.3147 -1.8571
  165MOL0     H22269   1.274   2.097   4.331 -1.2753  0.6577 -1.6198
  165MOL0     H22270   1.226   1.939   4.400  0.5889 -0.3101  4.1494
  165MOL0     H22271   0.870   2.108   4.256  0.3515 -2.0406 -1.7195
  165MOL0     H22272   1.340   1.683   4.601 -0.0688 -4.0182 -0.8766
  165MOL0     H22273   1.496   1.363   4.586  0.0988 -2.0189  0.9463
  165MOL0     H22274   1.412   1.397   4.741 -2.1085 -1.0626 -1.1977
  165MOL0     H22275   1.341   1.436   4.595  0.1076 -1.6552  1.6999
  166MOL0     O22276   3.048   4.931   2.821 -0.5298  0.0394  0.1592
  166MOL0     C22277   2.949   4.970   2.762 -0.9078 -0.4109  0.1345
  166MOL0     O22278   2.888   4.908   2.653  0.2398 -0.2764 -0.0208
  166MOL0     C22279   2.970   4.817   2.575 -0.4527  0.1100 -1.7786
  166MOL0     C22280   2.905   4.719   2.508 -0.1760 -0.2902 -0.0909
  166MOL0     C22281   2.971   4.622   2.428  0.8223 -0.0831 -0.1464
  166MOL0     C22282   3.107   4.621   2.414  0.0353  1.1573 -0.0267
  166MOL0     O22283   3.193   4.538   2.348 -0.3436  0.6231 -0.0979
  166MOL0     C22284   3.136   4.426   2.279  0.3960 -0.6959 -0.0504
  166MOL0     C22285   3.235   4.366   2.185 -0.2055  0.2387  0.5003
  166MOL0     C22286   3.372   4.330   2.255 -0.7917  0.3367 -0.8964
  166MOL0     C22287   3.464   4.245   2.167 -0.3571  0.3986 -0.2169
  166MOL0     C22288   3.576   4.200   2.252  0.0887 -0.2490 -0.1026
  166MOL0     C22289   3.672   4.128   2.153 -0.5170  1.0864  0.4766
  166MOL0     C22290   3.791   4.057   2.221  0.2959  1.0363 -0.3708
  166MOL0     C22291   3.760   3.914   2.281  0.2426  0.2772  0.5449
  166MOL0     N22292   3.705   3.818   2.179  0.1539 -0.1123  0.5740
  166MOL0     C22293   3.573   3.788   2.154 -0.4474 -0.5938 -0.3503
  166MOL0     C22294   3.575   3.696   2.055 -0.8238  0.1599  0.3947
  166MOL0     C22295   3.471   3.613   1.994  0.2668 -0.0136 -0.4340
  166MOL0     C22296   3.432   3.644   1.847  0.4215  1.0109  0.8996
  166MOL0     C22297   3.352   3.774   1.813 -0.4883  0.4904  0.7728
  166MOL0     C22298   3.440   3.898   1.817 -0.1507  0.0378  0.7438
  166MOL0     O22299   3.375   4.018   1.761 -0.3073  0.4404  0.0172
  166MOL0     C22300   3.266   4.078   1.818  0.5105  0.6338 -0.7360
  166MOL0     C22301   3.230   4.202   1.757  0.1653  0.6749 -0.5234
  166MOL0     C22302   3.118   4.275   1.812 -0.7120  0.8620  0.0582
  166MOL0     C22303   3.042   4.222   1.916 -0.3234  0.5128 -0.2001
  166MOL0     C22304   2.925   4.298   1.972 -0.2272 -0.3695  1.0422
  166MOL0     O22305   2.834   4.220   2.034  0.1211  0.4328  0.1194
  166MOL0     C22306   2.724   4.285   2.081  0.1670  0.4384 -0.9782
  166MOL0     C22307   2.613   4.300   1.999 -0.3909  0.1492  0.8248
  166MOL0     C22308   2.492   4.359   2.044 -0.1089  0.2206  0.5219
  166MOL0     C22309   2.484   4.414   2.173  0.0366 -0.0466 -0.4944
  166MOL0     O22310   2.385   4.493   2.222  0.4297 -0.6678 -0.9814
  166MOL0     C22311   2.252   4.459   2.176 -1.4613 -0.7074  0.0686
  166MOL0     C22312   2.142   4.538   2.229 -0.1235  0.6941 -0.1573
  166MOL0     C22313   2.011   4.547   2.143  0.3776  0.2198  0.6541
  166MOL0     C22314   1.931   4.421   2.145  0.4579  0.2441  0.3819
  166MOL0     C22315   1.837   4.420   2.273 -0.4721 -0.6368  0.3118
  166MOL0     C22316   1.791   4.283   2.305 -0.2832 -0.1115 -0.2662
  166MOL0     C22317   1.709   4.265   2.432  0.5886 -0.7526  0.4577
  166MOL0     C22318   1.559   4.276   2.386 -0.0924  0.5506 -0.3301
  166MOL0    Cl22319   1.451   4.215   2.512 -0.1218  0.3433 -0.0006
  166MOL0     C22320   2.594   4.398   2.255  0.3420  0.8407 -0.5837
  166MOL0     C22321   2.715   4.335   2.209 -0.7675 -0.2814 -0.0240
  166MOL0     O22322   2.909   4.417   1.943 -0.0224  0.0916 -0.2021
  166MOL0     C22323   3.078   4.093   1.969  0.3738 -0.7136 -0.0876
  166MOL0     C22324   3.186   4.034   1.927 -0.0773  0.1351  0.2692
  166MOL0     N22325   3.709   3.683   2.018  0.1691  0.1066  0.1768
  166MOL0     N22326   3.782   3.750   2.096 -0.0528  0.1910 -0.3052
  166MOL0     C22327   3.173   4.726   2.474 -0.7573 -1.0624 -0.0576
  166MOL0     C22328   3.113   4.823   2.556 -0.5025 -0.0041 -0.8205
  166MOL0     C22329   2.877   5.091   2.816 -0.1714 -0.7514  0.0154
  166MOL0     C22330   2.768   5.131   2.732  1.0622 -0.0831 -0.8423
  166MOL0     C22331   2.687   5.228   2.762 -0.2013 -0.7145  0.0122
  166MOL0     C22332   2.708   5.310   2.877  0.3095  0.3364  0.1845
  166MOL0     O22333   2.613   5.398   2.915  0.1901  0.3690  0.2231
  166MOL0     C22334   2.640   5.486   3.025 -0.2552  0.2078 -0.1263
  166MOL0     C22335   2.528   5.569   3.053 -0.0877 -0.8425  0.3846
  166MOL0     C22336   2.429   5.508   3.146  0.4235 -0.2409  0.4919
  166MOL0     C22337   2.332   5.424   3.076  0.0323 -0.0114  0.2498
  166MOL0     C22338   2.233   5.495   2.995 -0.0408 -0.5284 -0.8324
  166MOL0     C22339   2.144   5.561   2.946  0.0383 -0.2517 -0.2819
  166MOL0     C22340   2.834   5.295   2.943 -0.3156 -0.6466 -0.5924
  166MOL0     C22341   2.916   5.178   2.921 -0.3208  0.1773 -0.0206
  166MOL0     C22342   3.038   5.158   3.003  0.7598  0.4948  0.2590
  166MOL0     H22343   2.797   4.720   2.523  0.0314  2.0447  1.8002
  166MOL0     H22344   2.897   4.551   2.393 -0.9279  1.2311  0.7376
  166MOL0     H22345   3.087   4.346   2.334  1.1630 -0.4938  0.9550
  166MOL0     H22346   3.062   4.473   2.213 -1.1787  0.5299  2.4575
  166MOL0     H22347   3.256   4.440   2.107 -0.8764 -2.6799 -2.6690
  166MOL0     H22348   3.187   4.288   2.126  0.8324  1.4558 -2.0891
  166MOL0     H22349   3.353   4.278   2.349 -0.5625 -0.3848 -1.2485
  166MOL0     H22350   3.428   4.423   2.272 -0.7990 -0.0553  1.8010
  166MOL0     H22351   3.411   4.158   2.128  2.6926 -0.8137 -2.0575
  166MOL0     H22352   3.497   4.304   2.081 -0.5019 -1.2651 -1.4667
  166MOL0     H22353   3.633   4.279   2.303  3.1723 -1.7098 -1.0443
  166MOL0     H22354   3.537   4.123   2.320  2.5361 -2.9256 -1.5077
  166MOL0     H22355   3.617   4.051   2.099 -2.4248  0.7537  2.7388
  166MOL0     H22356   3.697   4.202   2.077 -1.2497  1.3599  0.4929
  166MOL0     H22357   3.828   4.128   2.296  4.4721  0.3853 -1.6115
  166MOL0     H22358   3.864   4.037   2.143  2.5149  0.8306  1.6350
  166MOL0     H22359   3.854   3.870   2.313  0.9309  1.6142  0.4427
  166MOL0     H22360   3.689   3.922   2.364 -1.3897 -0.3545 -0.7298
  166MOL0     H22361   3.491   3.811   2.221 -0.1895 -0.5952 -0.0321
  166MOL0     H22362   3.512   3.512   2.004 -2.0621 -0.8951  1.0511
  166MOL0     H22363   3.380   3.627   2.053  1.5913  2.4635  1.2612
  166MOL0     H22364   3.517   3.637   1.779 -1.0264 -0.6032 -0.8748
  166MOL0     H22365   3.370   3.560   1.814  2.2276 -0.3257  0.7157
  166MOL0     H22366   3.269   3.786   1.884  0.8717 -0.7986  2.7157
  166MOL0     H22367   3.302   3.749   1.719 -1.9729 -0.5622  1.7978
  166MOL0     H22368   3.532   3.886   1.759 -0.0847  4.7654 -0.5474
  166MOL0     H22369   3.485   3.919   1.915  1.4381 -2.9581  0.7745
  166MOL0     H22370   3.288   4.250   1.679  0.0815 -1.0814 -1.7370
  166MOL0     H22371   3.077   4.362   1.762 -2.7515 -0.6920 -1.1373
  166MOL0     H22372   2.617   4.248   1.904 -2.5678  0.8058  0.3079
  166MOL0     H22373   2.422   4.374   1.962  0.1714 -2.8441 -0.4002
  166MOL0     H22374   2.253   4.485   2.070 -0.1940  1.2301  0.5103
  166MOL0     H22375   2.230   4.354   2.200 -1.0081 -1.1409 -1.3358
  166MOL0     H22376   2.132   4.506   2.333 -0.3247 -2.7850 -1.1114
  166MOL0     H22377   2.192   4.636   2.228  2.6217 -0.5918  0.9448
  166MOL0     H22378   1.962   4.627   2.199 -0.4578 -1.8682  3.0792
  166MOL0     H22379   2.027   4.587   2.043 -2.2845 -1.7765 -0.7028
  166MOL0     H22380   2.003   4.339   2.140  0.5093  0.3276 -0.3416
  166MOL0     H22381   1.870   4.409   2.055  3.2401 -0.1929 -1.5705
  166MOL0     H22382   1.754   4.490   2.277  0.2714  0.2507  4.0462
  166MOL0     H22383   1.892   4.449   2.364 -2.5877 -2.9349  2.4773
  166MOL0     H22384   1.731   4.237   2.226 -1.6821  0.9187  0.1454
  166MOL0     H22385   1.884   4.232   2.331 -0.5545  1.0720  3.8388
  166MOL0     H22386   1.720   4.342   2.509 -1.6362 -1.4226  1.5224
  166MOL0     H22387   1.732   4.164   2.466 -0.8493 -1.0414  0.6544
  166MOL0     H22388   1.543   4.383   2.373  0.6491  0.6805 -0.2635
  166MOL0     H22389   1.530   4.216   2.299 -0.0042  0.0871 -0.0391
  166MOL0     H22390   2.592   4.440   2.355 -0.2276 -1.9933  0.6979
  166MOL0     H22391   2.803   4.327   2.271 -1.9985 -0.2413  1.8040
  166MOL0     H22392   3.016   4.047   2.045 -2.7639  0.9864 -1.4049
  166MOL0     H22393   3.218   3.946   1.983  2.4495  1.3788  0.9242
  166MOL0     H22394   3.280   4.740   2.474 -0.8694  0.1483  2.0596
  166MOL0     H22395   3.180   4.893   2.604 -0.1482  1.1521 -2.9091
  166MOL0     H22396   2.746   5.085   2.637 -0.9872 -0.6297 -0.1513
  166MOL0     H22397   2.602   5.235   2.694  0.1480 -0.5060 -0.4033
  166MOL0     H22398   2.715   5.557   2.989  0.1977  0.0007  0.3894
  166MOL0     H22399   2.680   5.438   3.114  0.5177  1.3465  0.1641
  166MOL0     H22400   2.475   5.600   2.963  1.0631 -5.1870 -2.0656
  166MOL0     H22401   2.569   5.656   3.107 -1.5617 -0.7571  1.4158
  166MOL0     H22402   2.367   5.583   3.197 -1.0528  0.4126 -2.1197
  166MOL0     H22403   2.473   5.448   3.227 -5.5336 -1.9323  2.9971
  166MOL0     H22404   2.381   5.355   3.006  0.2168 -0.1543  0.5180
  166MOL0     H22405   2.277   5.366   3.152 -1.9793  0.8587 -0.4780
  166MOL0     H22406   2.067   5.617   2.897 -0.7009 -1.1597 -0.1843
  166MOL0     H22407   2.864   5.361   3.024 -0.5732  1.4960 -2.1856
  166MOL0     H22408   3.133   5.140   2.952  1.9927 -1.0457  2.8466
  166MOL0     H22409   3.047   5.250   3.062 -1.2002  1.7299 -1.2502
  166MOL0     H22410   3.025   5.077   3.075 -3.8664 -0.5454 -1.3870
  167MOL0     O22411  10.906   5.004   0.255  0.5343 -0.4920  0.2467
  167MOL0     C22412  10.975   5.048   0.164  0.1708  0.3344 -0.4037
  167MOL0     O22413  10.964   5.009   0.039  0.1185 -0.4037 -0.4068
  167MOL0     C22414  10.883   4.899   0.017  0.4590  0.7416  0.0190
  167MOL0     C22415  10.748   4.919   0.003  0.0086  0.1564 -0.2257
  167MOL0     C22416  10.655   4.812  -0.004  0.2401 -0.2527  0.8695
  167MOL0     C22417  10.715   4.683  -0.015  0.7406 -0.2080  0.3047
  167MOL0     O22418  10.629   4.580  -0.030  0.3097  0.0708  0.4442
  167MOL0     C22419  10.683   4.445  -0.038  0.5550  0.0426  0.0911
  167MOL0     C22420  10.567   4.347  -0.068 -0.6139 -0.3293  0.0493
  167MOL0     C22421  10.501   4.302   0.070  0.3303 -0.0490  0.0583
  167MOL0     C22422  10.380   4.212   0.041  0.3130  0.5970  0.2079
  167MOL0     C22423  10.282   4.181   0.162 -0.3481  1.0726 -0.3954
  167MOL0     C22424  10.145   4.151   0.119 -0.3075 -0.1385 -1.1200
  167MOL0     C22425  10.053   4.268   0.112  0.1506 -0.2226  0.5399
  167MOL0     C22426   9.906   4.230   0.060 -0.5987  0.3807  0.8432
  167MOL0     N22427   9.911   4.190  -0.082 -0.0436  0.0849  0.2048
  167MOL0     C22428   9.961   4.256  -0.182 -0.8113 -1.0213  0.2046
  167MOL0     C22429   9.935   4.181  -0.290 -0.6792  0.3664  0.7891
  167MOL0     C22430   9.960   4.226  -0.435 -0.2821 -0.1103 -0.8034
  167MOL0     C22431  10.020   4.372  -0.451  0.1477  0.1956  0.5489
  167MOL0     C22432   9.981   4.437  -0.589 -0.7226 -0.0728  0.3851
  167MOL0     C22433  10.043   4.365  -0.702 -0.2697  0.3605  0.1342
  167MOL0     O22434   9.989   4.422  -0.823 -0.4804  0.3007  1.3893
  167MOL0     C22435  10.026   4.360  -0.938 -0.1367  0.4349  0.5041
  167MOL0     C22436  10.090   4.232  -0.957  0.8731  0.5263  1.1228
  167MOL0     C22437  10.115   4.178  -1.091 -0.3004  0.4125 -0.0934
  167MOL0     C22438  10.089   4.250  -1.205 -0.8535  0.1505  0.1898
  167MOL0     C22439  10.123   4.192  -1.343 -0.1792  0.2008 -0.8410
  167MOL0     O22440  10.211   4.089  -1.343  0.1197 -0.6730 -0.1802
  167MOL0     C22441  10.258   4.019  -1.457  0.1246 -0.8464  0.2605
  167MOL0     C22442  10.209   4.008  -1.586 -0.6463  0.9288  0.1944
  167MOL0     C22443  10.269   3.923  -1.679 -0.7033  0.3992  1.1827
  167MOL0     C22444  10.399   3.858  -1.659  0.5148 -0.2330  0.1591
  167MOL0     O22445  10.468   3.787  -1.760  0.4687 -0.0417 -0.1429
  167MOL0     C22446  10.518   3.879  -1.859  0.0831 -0.8222  0.0317
  167MOL0     C22447  10.622   3.811  -1.945  1.7270 -0.1713 -0.1232
  167MOL0     C22448  10.723   3.904  -2.025 -0.4945  0.0704  0.4365
  167MOL0     C22449  10.796   3.822  -2.124 -0.2858  0.2197  0.4152
  167MOL0     C22450  10.896   3.915  -2.201 -0.5966  0.1014 -0.0931
  167MOL0     C22451  11.036   3.898  -2.149 -0.2853 -0.6687 -0.7281
  167MOL0     C22452  11.133   3.982  -2.225  0.0003  0.0647  0.3597
  167MOL0     C22453  11.270   3.981  -2.148  0.5905 -0.4514 -1.0521
  167MOL0    Cl22454  11.343   4.130  -2.204  0.2215 -0.2557 -0.4540
  167MOL0     C22455  10.449   3.880  -1.531 -0.1745  0.6428 -0.6997
  167MOL0     C22456  10.381   3.956  -1.428 -0.3838 -0.1262  0.2148
  167MOL0     O22457  10.068   4.237  -1.444  0.1991 -0.4311  0.0344
  167MOL0     C22458  10.024   4.370  -1.185  0.4226 -0.9109 -0.0302
  167MOL0     C22459   9.999   4.426  -1.058  0.1683 -0.5546  0.0086
  167MOL0     N22460   9.872   4.063  -0.250 -0.7825 -0.2637 -1.0648
  167MOL0     N22461   9.868   4.067  -0.120 -0.6326  0.6335 -0.8238
  167MOL0     C22462  10.854   4.662  -0.001 -0.3011 -0.0764 -0.2151
  167MOL0     C22463  10.944   4.771   0.014  1.0785  0.5695  0.3789
  167MOL0     C22464  11.046   5.178   0.189  0.1089 -0.2555 -0.4034
  167MOL0     C22465  11.029   5.226   0.321  0.6937  0.4844  0.1711
  167MOL0     C22466  11.082   5.358   0.354 -0.3901  0.4323 -0.1774
  167MOL0     C22467  11.153   5.428   0.258 -0.1645  0.3750 -0.0614
  167MOL0     O22468  11.200   5.557   0.291 -0.2990 -0.4220  0.3750
  167MOL0     C22469  11.322   5.593   0.226  0.3137 -0.4883  0.3114
  167MOL0     C22470  11.290   5.688   0.114  0.4101  0.2034  0.8975
  167MOL0     C22471  11.398   5.691   0.002  0.1491 -0.4610  0.1635
  167MOL0     C22472  11.353   5.778  -0.111  0.6591  0.1384 -0.4114
  167MOL0     C22473  11.460   5.816  -0.203 -1.3668  0.7436  0.8175
  167MOL0     C22474  11.548   5.843  -0.281 -0.0847 -0.4830 -0.0434
  167MOL0     C22475  11.176   5.364   0.135 -0.7605  1.2138  0.3912
  167MOL0     C22476  11.132   5.236   0.098 -0.7344  0.1294  0.6065
  167MOL0     C22477  11.175   5.172  -0.034  0.4746  0.1789 -0.3354
  167MOL0     H22478  10.694   5.012   0.011 -2.7873 -1.0957 -2.5802
  167MOL0     H22479  10.546   4.813  -0.003  0.0196 -4.2820 -0.3012
  167MOL0     H22480  10.766   4.434  -0.108  2.9577  2.5413  2.2987
  167MOL0     H22481  10.728   4.413   0.057 -0.8626 -1.9906  0.1588
  167MOL0     H22482  10.612   4.254  -0.105 -2.5975 -1.4840  0.4326
  167MOL0     H22483  10.493   4.387  -0.137  0.5766 -3.3402 -3.2917
  167MOL0     H22484  10.466   4.391   0.122 -2.3450 -1.8147  1.4775
  167MOL0     H22485  10.568   4.248   0.138  1.8055  0.0234 -1.2787
  167MOL0     H22486  10.316   4.265  -0.029  1.0925 -1.0321 -1.8534
  167MOL0     H22487  10.421   4.128  -0.017  0.4666  1.0503 -0.3554
  167MOL0     H22488  10.322   4.092   0.211 -1.4329  0.9448  0.2983
  167MOL0     H22489  10.273   4.270   0.225  2.4440  0.8303  0.4676
  167MOL0     H22490  10.139   4.103   0.021  0.0290 -1.1307 -0.6718
  167MOL0     H22491  10.104   4.085   0.196 -3.1003  1.2839 -1.2625
  167MOL0     H22492  10.094   4.332   0.033  1.9401 -2.7038 -0.6988
  167MOL0     H22493  10.051   4.324   0.206  1.2298 -1.0641  1.0913
  167MOL0     H22494   9.875   4.146   0.122 -1.1673 -1.2545 -1.5401
  167MOL0     H22495   9.831   4.308   0.075  0.5397  1.0577  3.7196
  167MOL0     H22496  10.003   4.354  -0.165  0.8806 -1.7077  0.1911
  167MOL0     H22497  10.033   4.156  -0.476  3.5614  3.2333 -0.3798
  167MOL0     H22498   9.861   4.222  -0.482 -0.8533  1.9550  0.0852
  167MOL0     H22499   9.967   4.423  -0.370 -0.9992 -1.9452  1.2265
  167MOL0     H22500  10.125   4.381  -0.422  0.3156 -2.2328  0.8867
  167MOL0     H22501  10.017   4.540  -0.588 -0.9436 -0.0005  1.0010
  167MOL0     H22502   9.873   4.427  -0.608 -1.5584 -5.1616  5.2257
  167MOL0     H22503  10.010   4.262  -0.687  2.1347 -0.1207  2.8104
  167MOL0     H22504  10.152   4.369  -0.705  0.0353 -2.7258  2.5874
  167MOL0     H22505  10.122   4.169  -0.873 -0.0767 -0.7611  0.5607
  167MOL0     H22506  10.163   4.080  -1.095  2.2392  1.4862  1.4010
  167MOL0     H22507  10.116   4.061  -1.609 -0.4517  0.2023 -2.5284
  167MOL0     H22508  10.205   3.911  -1.766 -1.4816 -0.6685  1.8812
  167MOL0     H22509  10.447   3.930  -1.925  3.3645  4.2938 -0.1128
  167MOL0     H22510  10.573   3.958  -1.807  0.6643 -0.0974 -1.6171
  167MOL0     H22511  10.680   3.738  -1.888  0.4615 -3.2847 -2.4862
  167MOL0     H22512  10.566   3.744  -2.011  0.5624 -0.3087  0.9533
  167MOL0     H22513  10.676   3.989  -2.076  0.6535 -0.6898 -2.0021
  167MOL0     H22514  10.793   3.944  -1.950  0.2401  0.8171 -0.6253
  167MOL0     H22515  10.719   3.784  -2.191 -0.6275 -1.4734  1.6907
  167MOL0     H22516  10.839   3.730  -2.083 -3.0141 -1.0391  0.6704
  167MOL0     H22517  10.867   4.021  -2.195  0.2570  0.3159  0.4956
  167MOL0     H22518  10.887   3.893  -2.308 -0.5528  2.1278 -0.5680
  167MOL0     H22519  11.037   3.925  -2.043  0.5846  0.1249 -0.9257
  167MOL0     H22520  11.065   3.794  -2.136 -1.1278 -0.7316  1.0077
  167MOL0     H22521  11.083   4.079  -2.227  1.0372  0.6034  0.0152
  167MOL0     H22522  11.149   3.947  -2.328 -0.0669 -0.0985  0.4036
  167MOL0     H22523  11.255   4.001  -2.041  2.7582 -1.2064 -0.5514
  167MOL0     H22524  11.331   3.892  -2.165  1.2592  0.0183 -1.1704
  167MOL0     H22525  10.544   3.833  -1.505 -0.2537 -0.2952 -2.0161
  167MOL0     H22526  10.431   3.957  -1.331 -0.8695 -0.6432  0.4782
  167MOL0     H22527   9.997   4.432  -1.270 -1.6835 -0.7127  0.7076
  167MOL0     H22528   9.951   4.523  -1.059 -1.5590 -1.2400  3.1079
  167MOL0     H22529  10.894   4.561  -0.001  0.9445  0.3962  0.3714
  167MOL0     H22530  11.048   4.747   0.033  0.3638 -3.7699 -0.0231
  167MOL0     H22531  10.965   5.180   0.395 -0.8127  1.3672 -0.5540
  167MOL0     H22532  11.061   5.406   0.449 -2.4257 -1.0841  0.2336
  167MOL0     H22533  11.379   5.506   0.194  1.8446  0.9816 -1.1614
  167MOL0     H22534  11.389   5.650   0.292 -0.4657 -0.5732  1.1885
  167MOL0     H22535  11.270   5.785   0.162 -1.8898 -1.0476  2.6673
  167MOL0     H22536  11.199   5.655   0.064  0.7689 -2.7455  1.9810
  167MOL0     H22537  11.419   5.595  -0.047 -1.6855  0.0054 -1.6890
  167MOL0     H22538  11.490   5.740   0.033  0.0417 -0.2321  0.1199
  167MOL0     H22539  11.275   5.717  -0.158  0.3300 -0.9342  1.3963
  167MOL0     H22540  11.303   5.866  -0.070  1.0292  0.1117  0.1025
  167MOL0     H22541  11.618   5.866  -0.359  0.8020 -1.1821  0.5278
  167MOL0     H22542  11.241   5.412   0.063 -2.7086  2.1382 -0.8241
  167MOL0     H22543  11.104   5.163  -0.116 -2.1257 -1.2765  1.9010
  167MOL0     H22544  11.274   5.197  -0.074  0.3185 -2.0601 -2.3810
  167MOL0     H22545  11.195   5.068  -0.007  1.1462  0.4145  0.0939
  168MOL0     O22546   1.494   8.279   0.155 -0.3325 -0.1681  0.5691
  168MOL0     C22547   1.471   8.321   0.037  0.3001  0.1348  0.5584
  168MOL0     O22548   1.510   8.249  -0.082  0.0648 -0.0072  0.5373
  168MOL0     C22549   1.552   8.116  -0.085  0.0298  0.6144 -0.1585
  168MOL0     C22550   1.577   8.080  -0.217 -0.6349  0.7187 -0.3485
  168MOL0     C22551   1.609   7.953  -0.237  0.8181 -0.2432 -0.5690
  168MOL0     C22552   1.597   7.858  -0.138 -1.4724 -0.9190 -0.7361
  168MOL0     O22553   1.611   7.725  -0.184 -0.1279 -0.3702 -0.8677
  168MOL0     C22554   1.626   7.613  -0.094 -0.0211 -0.0050 -0.0734
  168MOL0     C22555   1.698   7.499  -0.163 -0.4509 -0.1214 -0.1687
  168MOL0     C22556   1.846   7.535  -0.168 -0.5568  0.3941  0.5995
  168MOL0     C22557   1.933   7.414  -0.204  0.1843  0.2954 -0.5443
  168MOL0     C22558   1.955   7.324  -0.075  0.5859 -0.0118 -0.3101
  168MOL0     C22559   2.017   7.201  -0.127  1.2605  0.7442  0.7654
  168MOL0     C22560   2.024   7.094  -0.013  0.0985  0.0883  0.6737
  168MOL0     C22561   2.096   6.966  -0.059 -0.6287  0.3539  0.3764
  168MOL0     N22562   2.102   6.865   0.049  0.6061  0.5227  0.8113
  168MOL0     C22563   2.191   6.861   0.156  0.1072  0.6027  0.5574
  168MOL0     C22564   2.191   6.726   0.198  0.9604  0.1899  0.2837
  168MOL0     C22565   2.276   6.671   0.313 -0.4038  0.8136  0.2472
  168MOL0     C22566   2.403   6.615   0.253  0.3147  0.0779 -0.3477
  168MOL0     C22567   2.382   6.490   0.169  0.3135 -0.3336 -0.0556
  168MOL0     C22568   2.283   6.403   0.241 -0.6561  0.7815 -0.5131
  168MOL0     O22569   2.326   6.352   0.365 -0.2890 -0.0815  0.1665
  168MOL0     C22570   2.420   6.255   0.362 -0.0206  0.9787 -0.4083
  168MOL0     C22571   2.441   6.143   0.270 -0.3490 -0.5515 -1.0048
  168MOL0     C22572   2.552   6.060   0.271  0.8109  0.7590 -0.7852
  168MOL0     C22573   2.650   6.074   0.378  0.4322 -0.4115 -0.1555
  168MOL0     C22574   2.768   5.994   0.389  0.5090  0.8230 -0.4664
  168MOL0     O22575   2.851   6.018   0.483 -0.2139 -0.5512  0.4895
  168MOL0     C22576   2.965   5.935   0.479 -0.5010  0.6509  0.3363
  168MOL0     C22577   3.071   5.971   0.407 -0.1126 -0.2878 -0.1955
  168MOL0     C22578   3.192   5.901   0.393 -0.0229  0.0445  0.3261
  168MOL0     C22579   3.219   5.795   0.475 -0.3276  0.4052  0.6551
  168MOL0     O22580   3.331   5.727   0.437  0.4936  0.4256 -0.3036
  168MOL0     C22581   3.358   5.610   0.519 -0.1486  0.3771 -0.5286
  168MOL0     C22582   3.486   5.537   0.461  1.0503 -0.6105  0.4717
  168MOL0     C22583   3.530   5.428   0.551  0.4246 -0.1904 -0.3045
  168MOL0     C22584   3.668   5.370   0.515 -0.5565  0.1924  0.4772
  168MOL0     C22585   3.724   5.274   0.613 -0.4978  0.3827 -0.5009
  168MOL0     C22586   3.854   5.215   0.559 -1.1300 -0.0326  0.2228
  168MOL0     C22587   3.903   5.106   0.655 -0.3418 -0.1900  0.2137
  168MOL0     C22588   4.054   5.065   0.651  0.3320 -0.0765  0.0770
  168MOL0    Cl22589   4.174   5.205   0.685 -0.3845 -0.0793  0.2945
  168MOL0     C22590   3.119   5.756   0.555  1.0643 -0.4644 -0.8390
  168MOL0     C22591   2.987   5.823   0.559  0.6735  0.1623  0.1800
  168MOL0     O22592   2.785   5.902   0.307 -0.2732 -0.8927 -0.9824
  168MOL0     C22593   2.630   6.173   0.473  0.8844 -1.2407 -1.0375
  168MOL0     C22594   2.514   6.263   0.470  0.0277 -0.3844  0.1673
  168MOL0     N22595   2.097   6.657   0.121  0.1284 -0.3932 -0.3056
  168MOL0     N22596   2.052   6.737   0.037 -0.4257  0.6295 -0.5415
  168MOL0     C22597   1.573   7.895  -0.009  0.8681 -1.2479 -0.1796
  168MOL0     C22598   1.550   8.030   0.026 -0.3103  0.4883  0.7093
  168MOL0     C22599   1.407   8.456   0.027  0.3350 -0.4843  0.0540
  168MOL0     C22600   1.396   8.520  -0.096  0.2546  0.0539  0.1759
  168MOL0     C22601   1.330   8.639  -0.116 -0.4203  0.9716  0.4611
  168MOL0     C22602   1.259   8.697  -0.016  0.1111 -0.2507 -0.0264
  168MOL0     O22603   1.181   8.803  -0.046  0.5436  0.0929 -0.3795
  168MOL0     C22604   1.101   8.863   0.059  0.0742  0.7082  0.0873
  168MOL0     C22605   1.031   8.972  -0.011 -0.1006 -0.2187  0.7141
  168MOL0     C22606   1.135   9.083  -0.028 -0.0136 -0.4765 -0.0473
  168MOL0     C22607   1.088   9.217  -0.068  0.8130  0.3533 -0.4196
  168MOL0     C22608   1.207   9.299  -0.080  0.3939 -0.3888 -0.0383
  168MOL0     C22609   1.304   9.366  -0.113  0.2264 -0.0414  0.6076
  168MOL0     C22610   1.277   8.644   0.118 -0.7658 -0.0095  0.4484
  168MOL0     C22611   1.347   8.524   0.141 -0.5095  0.2581 -0.5849
  168MOL0     C22612   1.350   8.474   0.286 -0.0665 -1.0187 -0.1516
  168MOL0     H22613   1.566   8.157  -0.293 -2.2486  0.4938 -0.3821
  168MOL0     H22614   1.624   7.921  -0.340 -0.2313 -0.6515 -0.6037
  168MOL0     H22615   1.687   7.645  -0.009 -1.7288 -0.3908  1.3764
  168MOL0     H22616   1.524   7.587  -0.064 -0.6928  2.5180  0.0467
  168MOL0     H22617   1.657   7.482  -0.263  0.8335 -2.1520 -0.3965
  168MOL0     H22618   1.684   7.403  -0.113 -2.7518  0.4963  0.4901
  168MOL0     H22619   1.887   7.562  -0.070  0.6492 -0.3276  0.3231
  168MOL0     H22620   1.851   7.615  -0.242 -1.8411 -1.5385 -1.7099
  168MOL0     H22621   1.875   7.366  -0.283  1.3226  0.5778 -1.5855
  168MOL0     H22622   2.029   7.435  -0.252  0.7689  0.4842  0.6824
  168MOL0     H22623   2.027   7.362  -0.003 -0.1332  0.1545  0.3265
  168MOL0     H22624   1.863   7.300  -0.022  0.1694  2.5452  0.2457
  168MOL0     H22625   1.941   7.172  -0.200 -1.2548  2.6731  2.4412
  168MOL0     H22626   2.117   7.220  -0.168  1.0422 -1.5084 -1.0181
  168MOL0     H22627   1.921   7.058  -0.006  0.4350 -0.8900  0.7316
  168MOL0     H22628   2.064   7.131   0.083  0.6278  1.9832 -0.2254
  168MOL0     H22629   2.049   6.923  -0.148  1.4598  0.6747 -0.9685
  168MOL0     H22630   2.200   6.987  -0.087  0.0930 -1.5506  1.4356
  168MOL0     H22631   2.251   6.944   0.191 -0.4686  1.3676 -0.2176
  168MOL0     H22632   2.307   6.752   0.380  2.0009 -0.7687  1.1754
  168MOL0     H22633   2.230   6.593   0.373  1.2089 -0.6173 -0.3064
  168MOL0     H22634   2.458   6.694   0.201 -3.0932  0.6425 -3.4777
  168MOL0     H22635   2.465   6.586   0.338  0.7078 -1.2750 -1.0544
  168MOL0     H22636   2.479   6.439   0.167 -0.7450 -2.7029  2.4004
  168MOL0     H22637   2.358   6.516   0.066  2.2080 -2.4220 -1.0868
  168MOL0     H22638   2.254   6.319   0.176 -2.5446 -2.4259  3.9121
  168MOL0     H22639   2.185   6.452   0.251 -0.5516  0.9468 -0.2955
  168MOL0     H22640   2.360   6.128   0.200 -0.7532 -0.4886 -0.5553
  168MOL0     H22641   2.559   5.981   0.197 -1.5762 -1.2927  0.9742
  168MOL0     H22642   3.052   6.058   0.346 -0.9834  0.7061  1.4476
  168MOL0     H22643   3.266   5.940   0.323  4.1841 -0.0838  4.1928
  168MOL0     H22644   3.384   5.643   0.620 -0.1151 -4.1844  1.2049
  168MOL0     H22645   3.277   5.536   0.519  0.5834 -0.4370 -0.6501
  168MOL0     H22646   3.464   5.505   0.359 -0.2590 -0.2831  0.6343
  168MOL0     H22647   3.558   5.618   0.446 -1.7966  1.9026 -0.8580
  168MOL0     H22648   3.538   5.467   0.653  0.6468  0.2448 -0.4900
  168MOL0     H22649   3.456   5.347   0.543 -0.4238  0.6353 -1.0413
  168MOL0     H22650   3.742   5.450   0.504  0.0536 -0.4716 -0.4120
  168MOL0     H22651   3.665   5.317   0.419  0.4398 -2.5682  1.8446
  168MOL0     H22652   3.658   5.192   0.644  1.6449 -1.0249  0.6174
  168MOL0     H22653   3.748   5.328   0.706 -1.0837 -2.2509  1.2820
  168MOL0     H22654   3.847   5.175   0.458  2.5332  0.9031 -0.5815
  168MOL0     H22655   3.932   5.292   0.556 -3.6296  2.6645  0.1536
  168MOL0     H22656   3.847   5.017   0.625 -0.6268  0.2969 -0.7300
  168MOL0     H22657   3.888   5.145   0.756  0.3638 -0.0603  0.2773
  168MOL0     H22658   4.082   4.991   0.726  0.8752 -0.5174 -0.5479
  168MOL0     H22659   4.059   5.025   0.549 -0.4669  0.0389 -0.0119
  168MOL0     H22660   3.132   5.668   0.617  1.8729  0.1939 -0.0544
  168MOL0     H22661   2.905   5.775   0.611  1.0147 -0.6677 -0.0285
  168MOL0     H22662   2.688   6.196   0.562  2.2294  0.0626 -2.1904
  168MOL0     H22663   2.502   6.352   0.531 -0.8551  1.3765 -2.4209
  168MOL0     H22664   1.552   7.823   0.070  2.0509  0.2372  1.5739
  168MOL0     H22665   1.520   8.054   0.128 -1.7397 -2.4986  1.1100
  168MOL0     H22666   1.444   8.459  -0.173 -1.2403 -2.5730  1.1949
  168MOL0     H22667   1.314   8.671  -0.218  2.1933 -0.3115 -0.4399
  168MOL0     H22668   1.164   8.902   0.139 -1.0675  1.6522  0.5617
  168MOL0     H22669   1.022   8.802   0.106  1.6077 -0.4912  1.1971
  168MOL0     H22670   0.951   9.013   0.052  0.5813 -1.4765  2.4558
  168MOL0     H22671   0.989   8.943  -0.108  0.8424  0.0673  0.2138
  168MOL0     H22672   1.213   9.053  -0.098  2.4350  1.2827  1.7285
  168MOL0     H22673   1.190   9.084   0.066 -0.0451 -3.6814  0.0865
  168MOL0     H22674   1.059   9.201  -0.172  3.2887  0.2382 -1.1774
  168MOL0     H22675   1.014   9.272  -0.010  0.1783  1.1205 -1.8909
  168MOL0     H22676   1.397   9.416  -0.132 -2.0657  4.4011 -0.2609
  168MOL0     H22677   1.227   8.683   0.206  2.9852  2.3716  1.8211
  168MOL0     H22678   1.308   8.373   0.291  0.7996 -1.7035 -4.0887
  168MOL0     H22679   1.452   8.465   0.323  1.3241  2.2825 -2.7276
  168MOL0     H22680   1.293   8.534   0.358  3.0600  1.7966  0.2165
  169MOL0     O22681   2.862   3.509   6.930 -0.7008  0.0979 -0.0288
  169MOL0     C22682   2.868   3.387   6.943 -0.1011 -0.2449  0.0346
  169MOL0     O22683   2.863   3.298   6.833  1.4968 -0.3934 -0.2204
  169MOL0     C22684   2.881   3.338   6.702  0.1059  0.4170  0.5906
  169MOL0     C22685   2.799   3.282   6.605  0.9036 -0.3145  0.3275
  169MOL0     C22686   2.818   3.303   6.470 -0.5490  0.3473  0.1058
  169MOL0     C22687   2.902   3.407   6.426  0.3246 -0.4008 -0.7059
  169MOL0     O22688   2.906   3.440   6.294  0.0146  0.2023 -0.1794
  169MOL0     C22689   3.030   3.462   6.230  0.2264  0.0535 -0.1218
  169MOL0     C22690   3.083   3.322   6.192  0.4335 -0.5186  0.9323
  169MOL0     C22691   3.217   3.334   6.116 -0.7602  0.4125 -1.0352
  169MOL0     C22692   3.252   3.217   6.027 -0.1493  0.1294  0.3851
  169MOL0     C22693   3.390   3.240   5.953 -0.8503 -0.5738  1.1655
  169MOL0     C22694   3.430   3.109   5.879  1.0389  0.0359 -0.9176
  169MOL0     C22695   3.556   3.130   5.800 -0.3839 -0.4490 -0.0223
  169MOL0     C22696   3.602   2.993   5.752  0.6661 -0.4870  0.0838
  169MOL0     N22697   3.704   3.002   5.643  0.3365  0.0280  0.1265
  169MOL0     C22698   3.824   2.937   5.630  0.8970  0.0614 -0.9335
  169MOL0     C22699   3.854   2.945   5.497  0.0332  0.6868  0.3868
  169MOL0     C22700   3.972   2.873   5.433  0.4515 -0.2286  0.8623
  169MOL0     C22701   3.927   2.813   5.295 -0.8244  0.0139  0.4266
  169MOL0     C22702   4.058   2.756   5.235 -0.1592 -0.5598  0.0766
  169MOL0     C22703   4.043   2.714   5.084  0.6496 -1.2430  0.4715
  169MOL0     O22704   3.960   2.806   5.007  0.2306  0.0739 -0.3152
  169MOL0     C22705   3.900   2.753   4.888  0.0251 -0.5353  0.9449
  169MOL0     C22706   3.961   2.666   4.793  0.7024 -0.7948  0.4793
  169MOL0     C22707   3.891   2.632   4.674 -0.2029  1.3243 -0.5626
  169MOL0     C22708   3.757   2.669   4.661 -0.2426 -0.2395  0.3760
  169MOL0     C22709   3.671   2.608   4.558 -0.5473  0.3148  0.0427
  169MOL0     O22710   3.568   2.676   4.511  0.3542  0.7868 -0.3052
  169MOL0     C22711   3.466   2.598   4.451 -0.3465 -0.4391  0.1202
  169MOL0     C22712   3.381   2.513   4.531  0.0269  0.3986 -0.6085
  169MOL0     C22713   3.264   2.451   4.463 -0.4278  0.2097 -0.3433
  169MOL0     C22714   3.237   2.477   4.328 -1.4718 -0.2216  0.6618
  169MOL0     O22715   3.117   2.420   4.294  0.1243 -0.6850  0.3064
  169MOL0     C22716   3.099   2.373   4.159 -0.2020  0.7180  0.3869
  169MOL0     C22717   2.980   2.277   4.162  0.0677  0.1227  0.1027
  169MOL0     C22718   2.933   2.222   4.027  0.0550 -0.4410  0.8178
  169MOL0     C22719   2.822   2.115   4.031  0.8976  0.0126  0.0632
  169MOL0     C22720   2.777   2.079   3.888 -0.9004 -0.2183 -1.2035
  169MOL0     C22721   2.674   1.960   3.894 -0.7049 -0.7400  0.2490
  169MOL0     C22722   2.623   1.916   3.759  0.1157  1.0162 -0.6255
  169MOL0     C22723   2.522   1.805   3.774 -0.1282 -0.2306 -0.0556
  169MOL0    Cl22724   2.589   1.662   3.857 -0.1604  0.2566 -0.0727
  169MOL0     C22725   3.309   2.566   4.250 -0.1105  0.3585  0.1746
  169MOL0     C22726   3.427   2.624   4.307  0.4756  0.2043 -0.1165
  169MOL0     O22727   3.690   2.490   4.552 -0.2976  0.3726  0.3724
  169MOL0     C22728   3.708   2.769   4.750 -0.0574  0.5615 -0.7766
  169MOL0     C22729   3.785   2.813   4.858 -0.1546  0.2992  0.3717
  169MOL0     N22730   3.770   3.033   5.439  0.6591  0.6010 -0.0801
  169MOL0     N22731   3.676   3.064   5.519  0.5495  0.1673  0.2034
  169MOL0     C22732   2.971   3.483   6.526  0.1038 -0.1310 -1.0603
  169MOL0     C22733   2.960   3.444   6.663 -0.1008  0.5188  0.1212
  169MOL0     C22734   2.862   3.332   7.079 -0.9302 -0.1851  0.8811
  169MOL0     C22735   2.810   3.201   7.088  0.5197 -0.5712  0.2590
  169MOL0     C22736   2.786   3.145   7.211 -0.7381  1.2197  0.9165
  169MOL0     C22737   2.808   3.207   7.326 -0.4516  1.4884 -0.4400
  169MOL0     O22738   2.797   3.144   7.449 -0.0133 -0.0582 -0.1912
  169MOL0     C22739   2.737   3.013   7.445 -0.6667 -0.1526  0.8697
  169MOL0     C22740   2.713   2.968   7.588 -0.2130  0.1287  0.0623
  169MOL0     C22741   2.849   2.920   7.635  0.5388 -0.6304 -0.5109
  169MOL0     C22742   2.864   2.900   7.790  0.4498  0.4929 -0.4522
  169MOL0     C22743   2.999   2.841   7.815 -0.6081  0.2548  0.0785
  169MOL0     C22744   3.103   2.783   7.847  0.2443 -0.3272  0.6551
  169MOL0     C22745   2.845   3.339   7.326  0.1563 -0.6761  0.0791
  169MOL0     C22746   2.880   3.403   7.200 -0.0213  0.3367 -0.5934
  169MOL0     C22747   2.934   3.545   7.206  0.0036  0.1211 -0.1750
  169MOL0     H22748   2.728   3.214   6.649  0.1678  0.1168 -0.1729
  169MOL0     H22749   2.756   3.260   6.393 -1.5926  2.5533 -0.3757
  169MOL0     H22750   2.991   3.516   6.143 -2.4875  0.0237  0.9782
  169MOL0     H22751   3.107   3.523   6.279 -1.1005 -0.1425  2.3835
  169MOL0     H22752   3.016   3.273   6.121  4.2052 -1.2366 -2.4764
  169MOL0     H22753   3.091   3.258   6.281  1.2676  0.6773  1.7514
  169MOL0     H22754   3.303   3.353   6.181  0.4528  2.4924 -3.0724
  169MOL0     H22755   3.205   3.421   6.050 -2.6824 -0.0217 -1.3308
  169MOL0     H22756   3.251   3.127   6.090 -0.1335  1.7900  2.8811
  169MOL0     H22757   3.172   3.204   5.954  3.0793  0.7039 -3.6431
  169MOL0     H22758   3.385   3.319   5.878  2.3105 -0.5237  0.8799
  169MOL0     H22759   3.468   3.268   6.025  2.3728  0.4221 -2.3658
  169MOL0     H22760   3.448   3.027   5.950 -1.2571  0.1206 -0.1471
  169MOL0     H22761   3.345   3.079   5.817  1.1344 -0.8093 -0.6560
  169MOL0     H22762   3.632   3.190   5.851  0.2539  1.6589 -3.1873
  169MOL0     H22763   3.513   3.192   5.720 -1.9305  1.1108  1.9090
  169MOL0     H22764   3.628   2.944   5.846 -0.6231 -0.2413  0.5910
  169MOL0     H22765   3.518   2.935   5.711  0.2440 -0.7939  1.3291
  169MOL0     H22766   3.854   2.876   5.714  1.1393  2.9137  1.2387
  169MOL0     H22767   4.052   2.948   5.427 -0.9915  1.2524 -0.7887
  169MOL0     H22768   4.001   2.785   5.492 -2.2782 -2.8559 -1.3791
  169MOL0     H22769   3.847   2.742   5.313 -0.6908  0.1996  1.8290
  169MOL0     H22770   3.886   2.894   5.233 -0.5155  2.2973  2.9888
  169MOL0     H22771   4.109   2.679   5.294 -0.9030 -1.9432 -1.0227
  169MOL0     H22772   4.117   2.848   5.226 -0.8558 -0.2710 -2.3247
  169MOL0     H22773   4.007   2.611   5.076  1.4569 -1.5268  0.3759
  169MOL0     H22774   4.144   2.725   5.041 -0.5447 -0.5890 -2.4229
  169MOL0     H22775   4.064   2.638   4.811  0.9213  0.1132  0.6723
  169MOL0     H22776   3.944   2.591   4.589 -1.5562  0.3320 -0.9680
  169MOL0     H22777   3.402   2.494   4.636 -2.5262  0.5601 -0.0094
  169MOL0     H22778   3.190   2.390   4.513  1.2030 -2.0600 -0.5478
  169MOL0     H22779   3.077   2.452   4.086 -3.0079  0.3664  0.7601
  169MOL0     H22780   3.188   2.311   4.140 -1.0547 -0.2194 -0.6863
  169MOL0     H22781   3.006   2.190   4.223 -3.7689 -0.4038  1.2639
  169MOL0     H22782   2.896   2.334   4.203 -0.7881 -0.1722 -1.1758
  169MOL0     H22783   2.901   2.314   3.978  2.3394  0.6685  1.2408
  169MOL0     H22784   3.025   2.185   3.980 -0.2378 -1.3656  0.9471
  169MOL0     H22785   2.730   2.159   4.072 -1.0622 -0.8013 -3.0526
  169MOL0     H22786   2.867   2.032   4.086 -1.4518 -1.6449 -0.3290
  169MOL0     H22787   2.862   2.056   3.824  0.1120 -1.5945  0.5526
  169MOL0     H22788   2.727   2.168   3.848  0.3922  0.3972 -1.5126
  169MOL0     H22789   2.733   1.886   3.948  1.3425  1.9698  1.9875
  169MOL0     H22790   2.584   1.992   3.947  0.0799 -0.2408  1.3031
  169MOL0     H22791   2.694   1.888   3.681  0.1897 -0.3942 -0.0740
  169MOL0     H22792   2.560   1.999   3.723 -1.9514 -0.3516 -0.3388
  169MOL0     H22793   2.435   1.848   3.825  0.7865  4.3039 -1.8032
  169MOL0     H22794   2.503   1.774   3.671  1.4202  0.9330 -0.7210
  169MOL0     H22795   3.273   2.597   4.153  0.7923  0.4208 -0.1428
  169MOL0     H22796   3.473   2.701   4.245 -0.6547  0.3199 -0.8557
  169MOL0     H22797   3.605   2.800   4.735  0.1518  1.1426 -1.0764
  169MOL0     H22798   3.753   2.895   4.922 -1.5756  1.3495 -1.5736
  169MOL0     H22799   3.029   3.570   6.497 -0.6102  0.1719 -1.6262
  169MOL0     H22800   3.010   3.501   6.740  2.0889 -1.1391  0.0492
  169MOL0     H22801   2.787   3.137   7.003  0.8899  0.7656 -0.8753
  169MOL0     H22802   2.761   3.040   7.201  0.3570  0.9713  0.6535
  169MOL0     H22803   2.803   2.944   7.392  2.5155  0.8072  3.2293
  169MOL0     H22804   2.642   3.009   7.392 -0.7576 -1.7295  1.0920
  169MOL0     H22805   2.630   2.900   7.606 -0.9769  1.4594  1.9524
  169MOL0     H22806   2.675   3.052   7.647 -1.9546 -0.0808 -0.6973
  169MOL0     H22807   2.928   2.993   7.617 -0.0623 -0.6546 -3.9255
  169MOL0     H22808   2.874   2.829   7.580  2.0379  1.2511 -3.1979
  169MOL0     H22809   2.860   2.997   7.839 -1.9282  1.3497 -2.1363
  169MOL0     H22810   2.793   2.829   7.834  1.0791  0.4321  0.4928
  169MOL0     H22811   3.199   2.741   7.869  1.6996  2.9267  1.1234
  169MOL0     H22812   2.861   3.399   7.415  0.5676 -0.1892 -0.3159
  169MOL0     H22813   2.983   3.590   7.293 -3.3329  1.7562  1.0692
  169MOL0     H22814   3.010   3.564   7.130 -1.4253  1.3538 -1.3665
  169MOL0     H22815   2.848   3.610   7.187  0.7140  0.8704 -0.9386
  170MOL0     O22816   8.922   5.939   2.890 -0.9508  0.5776 -0.3169
  170MOL0     C22817   8.832   6.019   2.888  0.1109 -0.5340 -0.4075
  170MOL0     O22818   8.823   6.127   2.971 -0.7849  0.0017 -0.5294
  170MOL0     C22819   8.902   6.134   3.088 -0.1469  0.6367 -0.0419
  170MOL0     C22820   9.040   6.162   3.078 -0.0487 -0.8154  0.5425
  170MOL0     C22821   9.123   6.157   3.181 -0.3048  0.7996  0.4283
  170MOL0     C22822   9.067   6.141   3.311 -0.3489  0.5508 -0.0699
  170MOL0     O22823   9.136   6.147   3.437  0.5332  0.3023 -0.4099
  170MOL0     C22824   9.281   6.145   3.444 -0.2786 -0.7625 -1.0988
  170MOL0     C22825   9.337   6.176   3.587 -0.3165 -0.1666 -0.2848
  170MOL0     C22826   9.366   6.046   3.657 -0.6952  0.1764 -0.6107
  170MOL0     C22827   9.515   6.002   3.667  0.6314  0.2258 -0.2234
  170MOL0     C22828   9.504   5.858   3.742  0.5751 -0.3959  1.0660
  170MOL0     C22829   9.640   5.792   3.783 -0.5908 -0.5650 -0.2532
  170MOL0     C22830   9.610   5.647   3.795  0.5095  0.4520 -0.3530
  170MOL0     C22831   9.730   5.557   3.790 -0.5395  0.1955  0.7652
  170MOL0     N22832   9.694   5.415   3.808  0.3432 -0.7381  0.3648
  170MOL0     C22833   9.703   5.359   3.936 -0.1239  1.1072  0.3398
  170MOL0     C22834   9.644   5.229   3.918 -0.7420 -0.0096 -0.6555
  170MOL0     C22835   9.637   5.108   4.002  0.5829  0.8246 -0.3174
  170MOL0     C22836   9.772   5.083   4.073  0.8433 -0.0968 -0.4719
  170MOL0     C22837   9.815   5.183   4.177 -0.0447  0.1303 -0.2392
  170MOL0     C22838   9.953   5.137   4.241  0.1400 -0.2244 -0.2080
  170MOL0     O22839   9.925   5.023   4.338  0.3995  0.6148  0.3765
  170MOL0     C22840  10.016   4.977   4.428 -1.1945  0.3688  0.3041
  170MOL0     C22841   9.995   4.878   4.525  0.1664  0.3911  0.5253
  170MOL0     C22842  10.096   4.823   4.611  1.0211  0.3303  0.1024
  170MOL0     C22843  10.227   4.878   4.594 -0.3864 -0.1726  0.5798
  170MOL0     C22844  10.336   4.831   4.686  0.1375 -1.0302  0.5233
  170MOL0     O22845  10.459   4.879   4.648  1.3650 -0.3401 -0.1364
  170MOL0     C22846  10.568   4.841   4.715 -0.4546  0.1114  0.1132
  170MOL0     C22847  10.603   4.886   4.842 -0.2394 -1.0853 -1.3363
  170MOL0     C22848  10.717   4.834   4.895  0.6175 -0.0776  0.2150
  170MOL0     C22849  10.787   4.723   4.838  0.5198 -0.1098  0.8021
  170MOL0     O22850  10.904   4.677   4.896 -0.2831  0.1069  0.1958
  170MOL0     C22851  10.945   4.544   4.864  0.0083  0.1887 -0.4660
  170MOL0     C22852  11.057   4.504   4.961 -0.2472 -1.6498 -0.8623
  170MOL0     C22853  11.184   4.588   4.938  0.5062 -0.0110  0.4792
  170MOL0     C22854  11.308   4.534   4.998  0.0784 -0.5300 -0.6072
  170MOL0     C22855  11.437   4.614   4.972 -0.0492 -0.0127 -0.2696
  170MOL0     C22856  11.448   4.750   5.038  0.2580 -0.4344 -0.1735
  170MOL0     C22857  11.557   4.839   4.971 -0.7434  1.2029  0.0729
  170MOL0     C22858  11.590   4.974   5.046 -0.1595 -0.0253 -0.0268
  170MOL0    Cl22859  11.608   5.095   4.905  0.3768  0.5483  0.2412
  170MOL0     C22860  10.748   4.678   4.711  0.0383  0.0227  0.8615
  170MOL0     C22861  10.641   4.740   4.650  0.6565 -0.3927 -0.2681
  170MOL0     O22862  10.306   4.743   4.766  0.0697  0.1851 -0.2599
  170MOL0     C22863  10.251   4.974   4.502  0.6235 -0.0018  0.7045
  170MOL0     C22864  10.151   5.015   4.408 -1.2738  0.4056  0.4159
  170MOL0     N22865   9.602   5.225   3.787 -0.3976  0.5555  0.4467
  170MOL0     N22866   9.626   5.332   3.720 -0.0563  0.2057  0.1376
  170MOL0     C22867   8.935   6.101   3.323  0.7617  0.0033 -0.4435
  170MOL0     C22868   8.857   6.080   3.207  0.5982 -0.0350  0.2056
  170MOL0     C22869   8.735   6.003   2.778  0.6295 -0.1592  0.6095
  170MOL0     C22870   8.782   6.003   2.644 -0.1264  0.4508  1.1266
  170MOL0     C22871   8.693   5.982   2.531 -0.4259  0.5701 -1.0375
  170MOL0     C22872   8.559   5.985   2.549  0.2599 -0.8677 -0.2865
  170MOL0     O22873   8.483   5.975   2.438 -0.3632 -0.4346 -0.6133
  170MOL0     C22874   8.338   5.941   2.440 -0.9734  0.4722 -0.1432
  170MOL0     C22875   8.314   5.858   2.306 -0.1892  0.3561 -0.2114
  170MOL0     C22876   8.346   5.937   2.170  0.6783 -0.5770  0.6472
  170MOL0     C22877   8.248   6.061   2.152  0.4651  0.8131 -0.1559
  170MOL0     C22878   8.266   6.098   2.011  0.5064 -0.9876 -0.4428
  170MOL0     C22879   8.250   6.131   1.898 -1.3523 -0.6678  0.8713
  170MOL0     C22880   8.512   6.003   2.677 -0.7379 -0.3163 -0.3637
  170MOL0     C22881   8.595   5.998   2.795  0.3853 -0.1845 -0.4541
  170MOL0     C22882   8.529   5.990   2.927 -0.1274  0.0263 -0.0633
  170MOL0     H22883   9.084   6.171   2.979  0.5393 -5.3243  0.1860
  170MOL0     H22884   9.223   6.198   3.165  0.0927  1.0179  2.9426
  170MOL0     H22885   9.295   6.040   3.418 -0.7431 -1.6408  1.7829
  170MOL0     H22886   9.325   6.213   3.370 -0.9635  1.7031  0.6167
  170MOL0     H22887   9.270   6.235   3.650 -1.0000 -2.5075  1.3511
  170MOL0     H22888   9.431   6.230   3.576  0.6147 -0.7572  3.4496
  170MOL0     H22889   9.300   5.970   3.613 -0.1538 -0.0672 -1.0076
  170MOL0     H22890   9.325   6.052   3.758  1.3789 -1.1853  0.3866
  170MOL0     H22891   9.534   6.000   3.559 -2.7400  0.0665 -0.9151
  170MOL0     H22892   9.577   6.079   3.716  1.9299 -0.6955 -0.3681
  170MOL0     H22893   9.450   5.880   3.835  1.3456  0.7132  1.2564
  170MOL0     H22894   9.449   5.782   3.686 -0.3373  1.3406 -0.4628
  170MOL0     H22895   9.713   5.816   3.706 -1.7975 -0.3924 -1.3783
  170MOL0     H22896   9.681   5.827   3.878 -1.8791 -4.7525  2.1192
  170MOL0     H22897   9.561   5.606   3.706  0.5637  0.7361 -0.5126
  170MOL0     H22898   9.547   5.625   3.881  1.6318 -0.1868  0.3348
  170MOL0     H22899   9.789   5.571   3.699 -3.3917 -0.4529 -1.3387
  170MOL0     H22900   9.790   5.582   3.878 -1.5579 -1.7074  2.0879
  170MOL0     H22901   9.741   5.406   4.026  0.1141  1.1481  0.2168
  170MOL0     H22902   9.553   5.121   4.071  0.4199 -0.0762 -0.3293
  170MOL0     H22903   9.608   5.019   3.946 -1.2147  0.0526  1.7020
  170MOL0     H22904   9.757   4.990   4.130  0.0439  0.8030  0.8347
  170MOL0     H22905   9.856   5.070   4.004 -0.6316 -2.3659 -1.9872
  170MOL0     H22906   9.731   5.194   4.247  0.2380 -0.2595  0.1671
  170MOL0     H22907   9.825   5.287   4.144  0.5320 -0.2208 -1.1895
  170MOL0     H22908   9.978   5.221   4.306 -1.2617 -0.0145  0.0840
  170MOL0     H22909  10.033   5.126   4.167  1.7061 -0.8124  1.5083
  170MOL0     H22910   9.893   4.855   4.552  0.8606 -2.6639  0.9713
  170MOL0     H22911  10.071   4.749   4.686  0.0682  0.2945 -0.2353
  170MOL0     H22912  10.551   4.956   4.907 -2.1450 -2.3648 -1.4036
  170MOL0     H22913  10.759   4.881   4.983  0.0819  2.8719 -0.9550
  170MOL0     H22914  10.857   4.479   4.869 -0.1393  0.4609  2.9954
  170MOL0     H22915  10.992   4.555   4.766  0.7208  2.5750  0.0910
  170MOL0     H22916  11.022   4.524   5.063  0.4651  2.4212 -1.2378
  170MOL0     H22917  11.093   4.402   4.946  1.0280 -1.2682 -0.4952
  170MOL0     H22918  11.202   4.595   4.830 -1.9897  0.7413  0.0280
  170MOL0     H22919  11.161   4.690   4.970  3.5822  0.5196  1.3280
  170MOL0     H22920  11.334   4.439   4.950  5.3602  0.0657  0.4159
  170MOL0     H22921  11.291   4.517   5.105  0.7841  2.1008  0.0040
  170MOL0     H22922  11.442   4.623   4.863 -1.2348 -1.1743 -0.4425
  170MOL0     H22923  11.523   4.554   5.006  2.7412  2.7059 -1.9837
  170MOL0     H22924  11.352   4.802   5.042  0.7092  0.3508  2.2425
  170MOL0     H22925  11.481   4.736   5.141  2.5827  1.6526 -0.5242
  170MOL0     H22926  11.523   4.876   4.874  0.5347  1.7759 -0.1840
  170MOL0     H22927  11.647   4.777   4.970  0.2309  2.5153  1.4548
  170MOL0     H22928  11.493   5.004   5.086  0.4663 -0.5511  2.0069
  170MOL0     H22929  11.674   4.992   5.114  1.6041  0.4175 -2.2030
  170MOL0     H22930  10.814   4.611   4.656 -0.0459  0.6690 -0.0316
  170MOL0     H22931  10.614   4.713   4.548 -3.3046 -3.2475  1.2891
  170MOL0     H22932  10.353   5.007   4.483  0.1593  0.3375 -1.5777
  170MOL0     H22933  10.176   5.074   4.321  2.3427  2.9226  2.8837
  170MOL0     H22934   8.902   6.084   3.425  4.3824 -1.0718  0.6860
  170MOL0     H22935   8.757   6.050   3.238  0.2992  0.6939 -0.0103
  170MOL0     H22936   8.887   6.018   2.620 -0.9216  1.4388 -2.2782
  170MOL0     H22937   8.725   5.993   2.428  0.0331  2.9335 -0.6784
  170MOL0     H22938   8.280   6.033   2.427 -0.1845  1.2969  1.8268
  170MOL0     H22939   8.313   5.881   2.527  2.2969  1.1137  1.3893
  170MOL0     H22940   8.211   5.824   2.294  0.0461  0.0701 -1.7659
  170MOL0     H22941   8.371   5.765   2.308  1.9263  1.4480 -2.9371
  170MOL0     H22942   8.326   5.872   2.084 -0.5452 -0.6520  0.9737
  170MOL0     H22943   8.453   5.961   2.165  0.3650  0.9890  0.9308
  170MOL0     H22944   8.144   6.033   2.171  1.1754 -1.1680  1.1222
  170MOL0     H22945   8.279   6.137   2.224  1.6822 -0.6130  0.8805
  170MOL0     H22946   8.245   6.183   1.804 -0.1682  0.5627  1.4585
  170MOL0     H22947   8.405   6.011   2.687 -0.7204 -1.5515  1.1009
  170MOL0     H22948   8.469   6.079   2.948  0.5253  0.1178  1.5842
  170MOL0     H22949   8.447   5.918   2.926 -1.2365  1.2444 -0.5359
  170MOL0     H22950   8.601   5.979   3.008  1.1006  3.7387 -0.4513
  171MOL0     O22951   2.410   0.446   1.915 -0.1097 -0.4865  0.1690
  171MOL0     C22952   2.514   0.378   1.915  0.0567 -0.0378  0.1634
  171MOL0     O22953   2.617   0.392   1.822 -0.0053  0.2583 -0.7543
  171MOL0     C22954   2.636   0.509   1.754  1.2351  1.0337  0.0623
  171MOL0     C22955   2.603   0.639   1.792  0.2088  0.4900  0.7217
  171MOL0     C22956   2.640   0.752   1.720  0.4114  0.2782  0.5861
  171MOL0     C22957   2.709   0.741   1.600  0.7926 -0.1565 -0.0574
  171MOL0     O22958   2.760   0.846   1.525 -0.2136 -0.0226 -0.5143
  171MOL0     C22959   2.676   0.970   1.525  0.3691  0.5294  0.7757
  171MOL0     C22960   2.554   0.966   1.433 -0.1142 -0.5904  0.1908
  171MOL0     C22961   2.603   0.933   1.292 -0.5624 -0.0198 -0.5614
  171MOL0     C22962   2.487   0.924   1.192 -0.0915  0.2366 -0.2149
  171MOL0     C22963   2.540   0.870   1.049  0.7186 -0.2821 -0.4944
  171MOL0     C22964   2.432   0.854   0.936 -0.3826 -0.1656 -0.2757
  171MOL0     C22965   2.298   0.778   0.976 -0.8965  0.2132 -0.5571
  171MOL0     C22966   2.345   0.634   1.023  0.1300 -0.1126  0.4537
  171MOL0     N22967   2.233   0.549   1.057 -0.5807 -0.0399 -0.1968
  171MOL0     C22968   2.120   0.576   1.136 -0.6249  0.4393 -0.0059
  171MOL0     C22969   2.053   0.461   1.171 -0.7831 -0.5995 -0.4436
  171MOL0     C22970   1.928   0.439   1.255  0.3411 -0.7451 -0.0713
  171MOL0     C22971   1.951   0.328   1.357  0.1704  0.1513 -0.0590
  171MOL0     C22972   1.986   0.187   1.302  1.0855 -0.0533 -0.9662
  171MOL0     C22973   1.946   0.092   1.413  0.3494  0.2876 -0.0326
  171MOL0     O22974   1.968  -0.046   1.359 -0.5050 -0.0434  0.2131
  171MOL0     C22975   1.862  -0.116   1.310  0.6057 -0.3182  0.0343
  171MOL0     C22976   1.857  -0.134   1.175  0.1867 -0.8851 -0.4893
  171MOL0     C22977   1.754  -0.197   1.114  0.2931 -0.4003  0.0483
  171MOL0     C22978   1.655  -0.263   1.183  1.0869 -0.6209 -0.1453
  171MOL0     C22979   1.549  -0.353   1.124 -0.4769  0.4077 -0.5230
  171MOL0     O22980   1.538  -0.336   0.990  0.1092  0.5981  0.3187
  171MOL0     C22981   1.436  -0.405   0.928 -0.8489 -0.3371 -0.0243
  171MOL0     C22982   1.315  -0.340   0.920 -0.1999  0.4945  0.7579
  171MOL0     C22983   1.205  -0.397   0.857 -0.4615  0.0269 -1.3351
  171MOL0     C22984   1.222  -0.517   0.792  0.4257  0.4491 -0.5389
  171MOL0     O22985   1.111  -0.550   0.719  0.0585  0.5777 -0.3210
  171MOL0     C22986   1.135  -0.630   0.601  0.3246 -0.3721 -0.1075
  171MOL0     C22987   1.095  -0.774   0.622 -0.1145 -0.2394 -0.3910
  171MOL0     C22988   0.989  -0.802   0.514 -0.0912  0.2815  0.1249
  171MOL0     C22989   0.929  -0.942   0.538 -0.2788 -0.1314  1.1035
  171MOL0     C22990   0.794  -0.926   0.612 -0.3297  0.4193 -0.6624
  171MOL0     C22991   0.723  -1.073   0.619 -0.5098 -0.5100 -0.2003
  171MOL0     C22992   0.762  -1.168   0.492 -0.2809 -0.5237 -0.7718
  171MOL0     C22993   0.660  -1.278   0.486 -0.4294  0.5057 -0.5426
  171MOL0    Cl22994   0.686  -1.401   0.618  0.0551 -0.2935  0.3721
  171MOL0     C22995   1.335  -0.587   0.804  0.1446  1.3776  1.1603
  171MOL0     C22996   1.447  -0.534   0.874  0.8066 -0.8104  0.8272
  171MOL0     O22997   1.473  -0.414   1.201  0.5640  0.3471 -0.3693
  171MOL0     C22998   1.657  -0.251   1.324 -0.8218  0.0874 -0.0334
  171MOL0     C22999   1.774  -0.188   1.385 -0.2295  0.0559  0.2890
  171MOL0     N23000   2.114   0.362   1.095  0.5051  0.2578 -0.7699
  171MOL0     N23001   2.214   0.415   1.034  0.0353 -0.1497 -0.0879
  171MOL0     C23002   2.726   0.615   1.552 -0.2956 -0.3756 -0.4622
  171MOL0     C23003   2.701   0.502   1.627 -0.2844  0.2937  0.4063
  171MOL0     C23004   2.512   0.256   2.009  0.0350  0.3561  1.0899
  171MOL0     C23005   2.395   0.226   2.078  0.2316  0.1176  0.7414
  171MOL0     C23006   2.370   0.110   2.157 -0.2420 -0.2900 -0.3679
  171MOL0     C23007   2.469   0.017   2.162 -0.0036 -0.4984 -0.1596
  171MOL0     O23008   2.465  -0.096   2.235  0.6551  0.2817 -0.6755
  171MOL0     C23009   2.369  -0.103   2.340 -0.7348  0.2068  0.8816
  171MOL0     C23010   2.356  -0.242   2.386  0.3231  0.2507  0.5791
  171MOL0     C23011   2.494  -0.297   2.430  0.4205  0.9606  0.0726
  171MOL0     C23012   2.475  -0.431   2.476 -0.3065  0.2462 -0.3740
  171MOL0     C23013   2.604  -0.506   2.458  0.9481 -0.0898 -0.0179
  171MOL0     C23014   2.697  -0.579   2.429  0.6654 -0.6262 -0.1647
  171MOL0     C23015   2.598   0.046   2.093  0.4754 -0.8128  0.8998
  171MOL0     C23016   2.622   0.175   2.028  0.7688  0.1538  0.9339
  171MOL0     C23017   2.754   0.191   1.953 -0.6912 -0.6905 -0.8775
  171MOL0     H23018   2.553   0.651   1.888  0.6390 -3.5606  1.6525
  171MOL0     H23019   2.610   0.848   1.762 -1.5480  0.0691 -0.2361
  171MOL0     H23020   2.636   1.003   1.621 -2.3065 -2.3249  0.7999
  171MOL0     H23021   2.742   1.053   1.499  4.2487 -1.9490  1.7969
  171MOL0     H23022   2.501   1.062   1.432  2.1800  0.7834  1.2226
  171MOL0     H23023   2.479   0.889   1.448 -0.9525  0.1230 -0.2378
  171MOL0     H23024   2.664   0.843   1.283  1.2051  1.3477 -5.5334
  171MOL0     H23025   2.659   1.014   1.244 -0.8362  0.9361  0.6550
  171MOL0     H23026   2.422   0.841   1.224 -0.8226  0.3517 -1.3208
  171MOL0     H23027   2.424   1.013   1.184 -2.1493 -1.1716 -0.5868
  171MOL0     H23028   2.612   0.942   1.009  1.5061 -0.1931  1.0105
  171MOL0     H23029   2.588   0.771   1.053  0.2180 -0.6104 -2.0381
  171MOL0     H23030   2.404   0.953   0.899  2.0130  1.1104  1.1259
  171MOL0     H23031   2.484   0.790   0.863  0.6584  2.2430 -1.7734
  171MOL0     H23032   2.225   0.767   0.895 -0.7926 -3.3507 -0.3236
  171MOL0     H23033   2.245   0.830   1.056 -1.6180  0.4850 -1.2013
  171MOL0     H23034   2.394   0.589   0.936 -4.8049  0.6292 -3.1402
  171MOL0     H23035   2.415   0.638   1.106  4.1147  3.1159 -2.6567
  171MOL0     H23036   2.089   0.679   1.147 -1.2158  0.3102 -0.4073
  171MOL0     H23037   1.910   0.535   1.304  1.6040 -0.1329 -0.7329
  171MOL0     H23038   1.848   0.406   1.189  1.1822 -0.2158 -1.3937
  171MOL0     H23039   2.018   0.361   1.437  0.7183  4.2982 -1.9439
  171MOL0     H23040   1.850   0.318   1.397 -0.5353  0.4886 -1.6479
  171MOL0     H23041   2.095   0.179   1.298  1.0985  0.6976 -3.0740
  171MOL0     H23042   1.935   0.171   1.207  0.7797 -2.3105 -0.4878
  171MOL0     H23043   1.843   0.105   1.448  0.3846  1.5485 -0.3836
  171MOL0     H23044   2.004   0.109   1.505 -2.7396  2.7192  1.6508
  171MOL0     H23045   1.931  -0.097   1.105  0.9434  0.9712  1.1979
  171MOL0     H23046   1.764  -0.205   1.007 -0.5341  1.1652 -0.1745
  171MOL0     H23047   1.316  -0.238   0.959  0.5017  1.0378 -0.6165
  171MOL0     H23048   1.113  -0.341   0.854 -0.0416  1.0992  1.7529
  171MOL0     H23049   1.073  -0.576   0.528 -0.7860  1.6855  2.1865
  171MOL0     H23050   1.239  -0.630   0.569  0.0478 -0.3704 -1.0390
  171MOL0     H23051   1.181  -0.840   0.611  0.5656  0.3756  1.0421
  171MOL0     H23052   1.039  -0.782   0.715 -1.6114 -2.0576 -1.3718
  171MOL0     H23053   0.912  -0.724   0.511 -0.5385 -0.1701 -1.0292
  171MOL0     H23054   1.031  -0.797   0.413 -5.1208  2.0726 -2.2634
  171MOL0     H23055   0.979  -1.006   0.612 -0.0266  1.8630  2.7646
  171MOL0     H23056   0.924  -0.989   0.440  3.5270  0.8543  0.2529
  171MOL0     H23057   0.727  -0.848   0.575  2.9437  3.7631 -0.1221
  171MOL0     H23058   0.800  -0.894   0.717 -1.1946  1.6148 -0.9536
  171MOL0     H23059   0.741  -1.135   0.708  0.5037 -0.5785 -0.4351
  171MOL0     H23060   0.619  -1.044   0.603  0.0875  2.5940  0.7620
  171MOL0     H23061   0.863  -1.210   0.491 -0.8555 -2.2202 -3.9900
  171MOL0     H23062   0.755  -1.122   0.393  0.8751 -1.2690 -1.2161
  171MOL0     H23063   0.561  -1.238   0.509 -0.8338 -2.1741  3.2303
  171MOL0     H23064   0.691  -1.330   0.395  5.1917 -1.0523  1.8529
  171MOL0     H23065   1.323  -0.688   0.765 -2.7365  1.9131  0.4271
  171MOL0     H23066   1.543  -0.583   0.878  1.2780 -0.1910 -1.3228
  171MOL0     H23067   1.583  -0.290   1.393  0.9675  1.7416  3.0332
  171MOL0     H23068   1.790  -0.192   1.492  0.9315  3.3320  0.3590
  171MOL0     H23069   2.775   0.610   1.456  1.3136  3.1812  0.0189
  171MOL0     H23070   2.743   0.406   1.598 -1.0218  0.4016 -1.0928
  171MOL0     H23071   2.303   0.284   2.075  0.2758  0.1731 -2.6927
  171MOL0     H23072   2.271   0.096   2.197 -0.6647  1.2223 -0.8429
  171MOL0     H23073   2.271  -0.061   2.313  0.8531  4.5329  1.1385
  171MOL0     H23074   2.407  -0.034   2.415  3.4273 -1.6350  0.7026
  171MOL0     H23075   2.309  -0.300   2.305 -0.5930 -0.0232  1.2849
  171MOL0     H23076   2.290  -0.237   2.473  1.2884 -2.3000  1.5561
  171MOL0     H23077   2.534  -0.247   2.518 -0.5310  1.6804  0.1095
  171MOL0     H23078   2.569  -0.300   2.350  3.5836 -4.5667  2.6372
  171MOL0     H23079   2.439  -0.433   2.579  0.4727 -1.8754 -0.0881
  171MOL0     H23080   2.397  -0.480   2.416  1.3687 -0.5094 -2.0526
  171MOL0     H23081   2.774  -0.645   2.393 -0.9463 -1.2717 -2.7504
  171MOL0     H23082   2.675  -0.030   2.095 -0.4128 -1.7125  1.9328
  171MOL0     H23083   2.831   0.144   2.014 -0.3270  1.0323  0.0388
  171MOL0     H23084   2.744   0.141   1.856 -1.4216 -2.6650  0.1574
  171MOL0     H23085   2.786   0.295   1.949  0.3714 -0.8974  1.0874
  172MOL0     O23086   1.974   7.682   6.836  0.6432  0.1850 -0.4126
  172MOL0     C23087   1.911   7.579   6.819  0.4561  0.0286 -0.3249
  172MOL0     O23088   1.889   7.478   6.913 -0.1700 -0.1468  0.3683
  172MOL0     C23089   1.959   7.485   7.033  1.6992  0.4801 -0.0389
  172MOL0     C23090   2.001   7.607   7.099  0.1471  0.7967  0.3708
  172MOL0     C23091   2.075   7.584   7.221 -0.2169 -0.1059  0.1611
  172MOL0     C23092   2.130   7.463   7.262  0.2015  0.6868  0.5154
  172MOL0     O23093   2.204   7.451   7.380 -0.1873 -0.4384  1.0177
  172MOL0     C23094   2.336   7.397   7.360  0.6365  0.2383 -0.1328
  172MOL0     C23095   2.361   7.333   7.497 -0.1889 -0.2659 -0.6094
  172MOL0     C23096   2.514   7.299   7.499  0.6014  0.3311  0.2775
  172MOL0     C23097   2.605   7.421   7.528  0.7020  0.5705  0.1431
  172MOL0     C23098   2.752   7.381   7.572  0.0926  0.3340 -0.6810
  172MOL0     C23099   2.854   7.492   7.569  0.8314 -0.1329  0.0395
  172MOL0     C23100   3.000   7.474   7.617  0.3535 -0.4171  0.6069
  172MOL0     C23101   3.021   7.417   7.758  0.7627 -0.4865  0.2822
  172MOL0     N23102   3.163   7.412   7.792 -0.3757 -0.0280 -1.1555
  172MOL0     C23103   3.235   7.296   7.793  0.1230 -0.4927  0.2227
  172MOL0     C23104   3.360   7.332   7.797 -0.8886  0.2871 -0.0081
  172MOL0     C23105   3.487   7.249   7.777 -0.0183 -0.3650 -0.0944
  172MOL0     C23106   3.594   7.278   7.886  0.1374 -0.0572 -0.0528
  172MOL0     C23107   3.553   7.274   8.035 -0.0483 -0.4504  1.2368
  172MOL0     C23108   3.451   7.156   8.061 -1.0342 -0.2311 -0.2979
  172MOL0     O23109   3.494   7.026   8.006  0.2959 -0.1605  0.0651
  172MOL0     C23110   3.591   6.965   8.074 -0.1071  0.1371 -0.2036
  172MOL0     C23111   3.649   7.000   8.190 -0.4049  0.2979 -0.9063
  172MOL0     C23112   3.752   6.922   8.244 -1.0824 -0.6797 -0.0253
  172MOL0     C23113   3.801   6.810   8.181 -0.9240  0.5580 -0.9968
  172MOL0     C23114   3.925   6.743   8.227  0.4396  0.8362 -0.4995
  172MOL0     O23115   4.002   6.691   8.118  0.1552  0.2527  0.7700
  172MOL0     C23116   4.095   6.597   8.137 -0.2340 -0.7670  0.4017
  172MOL0     C23117   4.216   6.632   8.195 -0.5721  0.8277 -0.3790
  172MOL0     C23118   4.322   6.542   8.200 -0.0104  0.0797  0.3233
  172MOL0     C23119   4.303   6.408   8.158 -0.6978 -0.1365  0.4062
  172MOL0     O23120   4.405   6.315   8.155 -0.1500  0.3294 -0.3317
  172MOL0     C23121   4.537   6.360   8.139  0.6240 -1.2578 -0.8399
  172MOL0     C23122   4.609   6.229   8.127  0.6984  0.1363  0.5846
  172MOL0     C23123   4.578   6.161   7.989 -0.1907  0.1378 -0.5803
  172MOL0     C23124   4.644   6.022   7.998 -0.7876  0.5885 -0.5564
  172MOL0     C23125   4.626   5.933   7.877 -0.3577  0.4455  0.1203
  172MOL0     C23126   4.689   5.797   7.904  0.1614  0.5321 -0.2282
  172MOL0     C23127   4.698   5.709   7.780 -0.3780 -0.3186 -0.0752
  172MOL0     C23128   4.736   5.562   7.800  0.8955  0.7700 -0.3323
  172MOL0    Cl23129   4.907   5.544   7.751  0.5806 -0.0128  0.5016
  172MOL0     C23130   4.178   6.367   8.111 -0.7019 -0.3103  0.2815
  172MOL0     C23131   4.086   6.471   8.087 -1.3245 -0.0533 -0.4712
  172MOL0     O23132   3.947   6.714   8.345 -0.7158  0.5813 -0.2355
  172MOL0     C23133   3.733   6.773   8.062  0.7459 -0.3466 -0.3399
  172MOL0     C23134   3.626   6.851   8.007  0.2502  0.8197 -0.0852
  172MOL0     N23135   3.356   7.468   7.816 -0.2434  0.2548 -0.3091
  172MOL0     N23136   3.238   7.521   7.814 -0.2688 -0.5042 -0.3927
  172MOL0     C23137   2.077   7.346   7.202 -0.1276  0.5182  0.2892
  172MOL0     C23138   2.004   7.366   7.080 -1.3960 -0.5039 -0.4454
  172MOL0     C23139   1.841   7.563   6.689 -0.5098 -0.2492  0.1697
  172MOL0     C23140   1.909   7.619   6.585  0.5875 -0.3157 -0.6921
  172MOL0     C23141   1.855   7.624   6.458  0.3889  0.5765  0.6313
  172MOL0     C23142   1.721   7.578   6.433  0.0458  0.7484 -0.3903
  172MOL0     O23143   1.657   7.574   6.310 -0.1644 -0.8275  0.1461
  172MOL0     C23144   1.730   7.620   6.193  0.3635  0.2104 -0.1255
  172MOL0     C23145   1.814   7.503   6.153 -0.1304 -0.2702 -0.5841
  172MOL0     C23146   1.893   7.536   6.029 -0.0173 -0.1298 -0.6968
  172MOL0     C23147   1.995   7.425   5.986  0.2965  0.3952  1.6684
  172MOL0     C23148   1.933   7.294   5.952  0.3651  0.6885  0.7897
  172MOL0     C23149   1.903   7.180   5.924  0.8526 -0.3754  0.3023
  172MOL0     C23150   1.649   7.511   6.542 -0.1339  0.0931  0.8895
  172MOL0     C23151   1.709   7.499   6.669  0.7080  0.5342 -0.4560
  172MOL0     C23152   1.637   7.433   6.779 -1.1616 -0.6597  0.8259
  172MOL0     H23153   1.973   7.705   7.064 -0.4957  0.7058  0.6110
  172MOL0     H23154   2.097   7.670   7.283 -2.2976  1.9266 -1.6789
  172MOL0     H23155   2.339   7.315   7.288  0.9597 -0.0022  0.1498
  172MOL0     H23156   2.408   7.473   7.330  3.5296 -2.8432 -1.6213
  172MOL0     H23157   2.303   7.242   7.518  0.3775  0.0898  3.2083
  172MOL0     H23158   2.354   7.410   7.574  1.4878 -1.2666  0.6226
  172MOL0     H23159   2.545   7.250   7.406  2.5701  0.0568  1.0450
  172MOL0     H23160   2.532   7.224   7.576  2.9975  2.5496  2.0315
  172MOL0     H23161   2.628   7.480   7.439  3.2755 -0.9339 -0.2864
  172MOL0     H23162   2.559   7.494   7.596  0.9168  0.4612  0.4073
  172MOL0     H23163   2.747   7.349   7.677  0.4885 -0.8268 -1.0029
  172MOL0     H23164   2.786   7.297   7.511  2.9254  1.0718 -0.2578
  172MOL0     H23165   2.865   7.525   7.466 -0.5988  0.0012 -0.0904
  172MOL0     H23166   2.821   7.577   7.630  3.7999  2.3626 -1.5357
  172MOL0     H23167   3.046   7.573   7.611 -0.6441  0.1213  1.6118
  172MOL0     H23168   3.052   7.404   7.549  2.7289  1.3943  0.4237
  172MOL0     H23169   2.971   7.488   7.825 -0.8631  0.3943 -1.7640
  172MOL0     H23170   2.987   7.313   7.765 -0.8449 -0.1242 -1.4390
  172MOL0     H23171   3.208   7.192   7.777  1.3702 -0.5921 -1.6127
  172MOL0     H23172   3.470   7.141   7.778  2.4745 -0.8412 -1.0502
  172MOL0     H23173   3.534   7.281   7.683  1.6275  0.2353  0.8894
  172MOL0     H23174   3.680   7.212   7.875  0.6099  0.1293  2.1482
  172MOL0     H23175   3.620   7.384   7.876  0.1959 -0.0206  0.4426
  172MOL0     H23176   3.506   7.372   8.052 -2.2231 -0.7957 -1.9092
  172MOL0     H23177   3.644   7.256   8.092 -1.0384 -5.2164  1.7339
  172MOL0     H23178   3.354   7.171   8.013  0.2537  1.1638 -2.6390
  172MOL0     H23179   3.420   7.173   8.165 -2.1169  2.4052 -0.9680
  172MOL0     H23180   3.607   7.086   8.242  0.2421 -0.8131  1.5631
  172MOL0     H23181   3.792   6.969   8.333  0.4826 -1.4436 -0.2942
  172MOL0     H23182   4.227   6.733   8.233  0.7233  0.2401  0.8816
  172MOL0     H23183   4.411   6.572   8.253 -0.4736  2.5926 -0.2090
  172MOL0     H23184   4.551   6.423   8.051  0.9715 -2.5523 -1.7445
  172MOL0     H23185   4.574   6.422   8.221 -1.6406  1.2273 -1.5474
  172MOL0     H23186   4.717   6.245   8.138  1.0480 -1.9156  0.6394
  172MOL0     H23187   4.573   6.155   8.199 -1.3677 -0.9884 -1.4640
  172MOL0     H23188   4.474   6.146   7.957 -0.8558 -1.0193  1.9098
  172MOL0     H23189   4.623   6.225   7.913  0.7553  2.5733  1.8868
  172MOL0     H23190   4.592   5.968   8.078 -1.0052  1.3646 -0.1626
  172MOL0     H23191   4.749   6.024   8.027 -0.5116 -2.7476 -0.9534
  172MOL0     H23192   4.687   5.976   7.797 -0.5304  1.5127  0.5506
  172MOL0     H23193   4.520   5.920   7.854  0.2802 -0.7606 -2.6286
  172MOL0     H23194   4.784   5.818   7.954 -0.0173  0.1470  0.2813
  172MOL0     H23195   4.626   5.742   7.974  1.4490 -0.4199  0.2239
  172MOL0     H23196   4.786   5.741   7.722  1.0329 -3.3759  0.1828
  172MOL0     H23197   4.622   5.721   7.702  0.3868  0.7070 -0.7001
  172MOL0     H23198   4.730   5.546   7.908  1.7397  0.9757 -0.2456
  172MOL0     H23199   4.683   5.484   7.745  2.3649 -2.7479  2.8035
  172MOL0     H23200   4.146   6.267   8.083  1.1214 -1.0609  0.7449
  172MOL0     H23201   4.007   6.443   8.018 -0.2491 -0.2431 -1.6590
  172MOL0     H23202   3.770   6.686   8.010  1.0073 -0.3592 -0.1378
  172MOL0     H23203   3.584   6.819   7.913  2.7722  1.1571 -1.4015
  172MOL0     H23204   2.111   7.250   7.239  1.2933  0.7353 -0.4064
  172MOL0     H23205   1.967   7.275   7.035  0.1680 -2.4580  1.9931
  172MOL0     H23206   2.010   7.658   6.587 -0.6477  3.1871  0.3954
  172MOL0     H23207   1.916   7.668   6.379 -0.0204  1.8859  1.0116
  172MOL0     H23208   1.793   7.708   6.214 -1.2762  1.1723  1.0372
  172MOL0     H23209   1.660   7.649   6.113 -0.9128  2.5222  1.7048
  172MOL0     H23210   1.751   7.414   6.139  0.0718 -0.1458 -2.5822
  172MOL0     H23211   1.885   7.493   6.236 -2.1340  2.9345  1.7381
  172MOL0     H23212   1.950   7.629   6.036 -0.2294 -0.0011 -0.6740
  172MOL0     H23213   1.825   7.546   5.944  0.1349 -3.4159 -1.3363
  172MOL0     H23214   2.043   7.456   5.893 -0.4803 -3.3115 -0.1805
  172MOL0     H23215   2.079   7.404   6.053  1.5811 -3.2473 -0.7671
  172MOL0     H23216   1.870   7.083   5.893 -4.7492  1.4489 -0.4567
  172MOL0     H23217   1.549   7.467   6.540  0.7102 -1.9646  1.5223
  172MOL0     H23218   1.628   7.503   6.862 -2.0711 -1.8304  1.7463
  172MOL0     H23219   1.532   7.415   6.754 -0.6859 -2.5473 -0.0130
  172MOL0     H23220   1.683   7.340   6.814 -2.0634 -2.4382 -2.3389
  173MOL0     O23221  10.833   4.544   7.230 -0.0962 -0.2059  0.1697
  173MOL0     C23222  10.749   4.557   7.140 -0.5195  0.1993 -0.2200
  173MOL0     O23223  10.768   4.639   7.026 -0.1472  0.5384 -0.7553
  173MOL0     C23224  10.887   4.702   7.005 -0.5130 -0.6989  0.0161
  173MOL0     C23225  10.882   4.840   6.966 -0.3903  0.6070  0.2422
  173MOL0     C23226  11.002   4.914   6.959  0.1765 -0.3506  0.4682
  173MOL0     C23227  11.129   4.869   7.004 -0.2294  0.1212 -1.3879
  173MOL0     O23228  11.246   4.937   7.003  0.4202  1.0326 -0.6541
  173MOL0     C23229  11.262   5.028   6.886  0.0065 -0.4819 -0.4181
  173MOL0     C23230  11.389   5.111   6.917  1.2561  0.5689  0.0600
  173MOL0     C23231  11.526   5.037   6.927  1.0766  0.1146  0.2861
  173MOL0     C23232  11.618   5.088   7.041  0.5050 -0.9043 -0.0798
  173MOL0     C23233  11.586   5.049   7.183 -0.2313 -1.0542  0.7246
  173MOL0     C23234  11.556   4.904   7.214 -0.1582  0.2749  0.4755
  173MOL0     C23235  11.532   4.874   7.363 -0.1715  1.2225  0.5382
  173MOL0     C23236  11.394   4.923   7.413 -0.1523  0.2389 -0.1691
  173MOL0     N23237  11.356   4.887   7.550 -0.0037  0.2088 -0.6237
  173MOL0     C23238  11.347   4.764   7.615  0.0057 -0.4610  0.7318
  173MOL0     C23239  11.340   4.799   7.750 -1.0427 -0.5328 -0.0232
  173MOL0     C23240  11.367   4.685   7.846  0.4046 -0.1910 -0.7004
  173MOL0     C23241  11.476   4.712   7.947 -0.9689  0.6106  0.6606
  173MOL0     C23242  11.617   4.742   7.887  0.8501  0.0851  0.3332
  173MOL0     C23243  11.710   4.790   7.996  0.2034  0.0999  0.2009
  173MOL0     O23244  11.758   4.678   8.069  0.3016 -0.5809 -0.6202
  173MOL0     C23245  11.829   4.716   8.184  0.0089  0.3274  0.2164
  173MOL0     C23246  11.804   4.807   8.283  0.4718 -0.0195  0.0802
  173MOL0     C23247  11.892   4.837   8.379 -0.7844 -0.3745 -0.0744
  173MOL0     C23248  12.016   4.770   8.392 -0.1990 -0.8941  0.3772
  173MOL0     C23249  12.122   4.805   8.493 -0.6411 -0.3106  0.8205
  173MOL0     O23250  12.229   4.718   8.514 -0.3900 -0.2575  0.0629
  173MOL0     C23251  12.304   4.720   8.629 -0.1212  0.0364  0.1113
  173MOL0     C23252  12.391   4.610   8.634 -0.0822 -0.9868  0.4726
  173MOL0     C23253  12.488   4.584   8.739 -0.0596 -1.5107  0.2379
  173MOL0     C23254  12.496   4.684   8.835 -0.1480  0.3867 -0.2155
  173MOL0     O23255  12.589   4.661   8.933  0.0232  0.6593  0.2164
  173MOL0     C23256  12.708   4.748   8.942  1.3629 -0.5216 -0.7097
  173MOL0     C23257  12.698   4.851   9.056 -0.2150  0.5573 -0.1398
  173MOL0     C23258  12.743   4.786   9.192 -0.0827  0.1822 -0.3486
  173MOL0     C23259  12.684   4.866   9.313  0.5720 -0.0848  0.2401
  173MOL0     C23260  12.738   4.809   9.445 -0.1767 -0.6593  0.0388
  173MOL0     C23261  12.877   4.860   9.483  0.8259 -0.2128 -0.2931
  173MOL0     C23262  12.936   4.775   9.586 -0.0741  0.2782  0.2345
  173MOL0     C23263  13.020   4.851   9.691  0.9118  0.1736  0.2631
  173MOL0    Cl23264  13.134   4.749   9.771 -0.6317  0.0956 -0.3608
  173MOL0     C23265  12.411   4.792   8.830 -0.0454  0.3980 -0.1706
  173MOL0     C23266  12.305   4.818   8.739 -0.2435  0.0692  0.8705
  173MOL0     O23267  12.085   4.892   8.567  0.0241 -0.4576 -0.4543
  173MOL0     C23268  12.043   4.678   8.297 -1.0633 -0.9499 -0.2870
  173MOL0     C23269  11.948   4.645   8.195 -0.4625 -0.5615  0.0905
  173MOL0     N23270  11.326   4.935   7.765 -0.9005  0.0348  0.7578
  173MOL0     N23271  11.333   4.984   7.645 -0.0218  0.2700 -0.0778
  173MOL0     C23272  11.132   4.728   7.024  0.4401  0.3125 -0.1735
  173MOL0     C23273  11.013   4.652   7.042 -0.3168  0.1018  0.4247
  173MOL0     C23274  10.624   4.493   7.165 -0.1923  0.0003  0.5442
  173MOL0     C23275  10.510   4.535   7.097  0.7613  0.6811 -0.5317
  173MOL0     C23276  10.388   4.467   7.113  0.4427  0.7657  0.3974
  173MOL0     C23277  10.373   4.365   7.201  0.0218 -0.0787  0.4117
  173MOL0     O23278  10.259   4.289   7.212  0.3431 -0.1353  1.1638
  173MOL0     C23279  10.146   4.319   7.133  0.5389 -0.2997  0.3685
  173MOL0     C23280  10.041   4.207   7.162  0.0429  0.0881  0.2351
  173MOL0     C23281   9.977   4.209   7.304  0.2108  0.5879  0.2607
  173MOL0     C23282   9.908   4.071   7.319 -0.2547  0.1697 -0.0421
  173MOL0     C23283   9.860   4.059   7.460  0.1307  0.1747  0.3959
  173MOL0     C23284   9.833   4.037   7.571  0.4223  0.0458 -0.3565
  173MOL0     C23285  10.481   4.328   7.279 -0.1133 -0.4470 -0.5951
  173MOL0     C23286  10.608   4.385   7.262 -0.0326 -1.0895 -0.9912
  173MOL0     C23287  10.708   4.332   7.361  0.0155  0.7880  0.7141
  173MOL0     H23288  10.795   4.883   6.916  0.9153  2.1136 -0.8603
  173MOL0     H23289  10.977   5.019   6.949  1.2383 -0.1035  0.3102
  173MOL0     H23290  11.290   4.969   6.798  2.2046  0.4773 -0.4279
  173MOL0     H23291  11.174   5.092   6.880  0.4389  0.5086  2.2830
  173MOL0     H23292  11.370   5.166   7.010  3.3327  2.3911 -0.4981
  173MOL0     H23293  11.407   5.190   6.843  0.4801  1.3343  0.6533
  173MOL0     H23294  11.561   5.032   6.823 -0.6389  0.1388 -0.3290
  173MOL0     H23295  11.496   4.934   6.948 -2.5721  0.7369 -1.1098
  173MOL0     H23296  11.720   5.054   7.022  1.9457  3.0634 -0.4095
  173MOL0     H23297  11.620   5.197   7.037  0.6058 -0.8919  0.2800
  173MOL0     H23298  11.668   5.088   7.243 -0.3661  1.9125 -0.8543
  173MOL0     H23299  11.498   5.100   7.222 -0.8984 -2.2169  0.8064
  173MOL0     H23300  11.474   4.857   7.160  2.9817 -3.7203 -1.2972
  173MOL0     H23301  11.642   4.845   7.181 -0.8285  1.1367 -3.2038
  173MOL0     H23302  11.624   4.910   7.410 -0.6854  0.7821  1.9568
  173MOL0     H23303  11.541   4.767   7.385 -1.6743  1.3295  1.8874
  173MOL0     H23304  11.389   5.031   7.397 -0.7591  0.0869 -1.1452
  173MOL0     H23305  11.316   4.877   7.351 -0.9969 -0.5074  1.3985
  173MOL0     H23306  11.372   4.665   7.580  2.9591  0.4531 -0.0681
  173MOL0     H23307  11.274   4.670   7.902 -1.3590 -0.3254 -3.4704
  173MOL0     H23308  11.397   4.599   7.786  3.0748  0.4990 -0.4818
  173MOL0     H23309  11.454   4.798   8.011  1.0807 -0.0024  2.3014
  173MOL0     H23310  11.491   4.622   8.007  0.7192  0.4068  0.0076
  173MOL0     H23311  11.607   4.825   7.816 -0.4217  1.8614  2.4203
  173MOL0     H23312  11.659   4.659   7.829  0.7033  1.1848 -1.4248
  173MOL0     H23313  11.667   4.867   8.060 -1.8326 -1.5043  0.8803
  173MOL0     H23314  11.787   4.855   7.954  0.6473  0.2537  1.2237
  173MOL0     H23315  11.719   4.874   8.274 -1.0086 -1.9822 -1.1058
  173MOL0     H23316  11.867   4.916   8.449 -0.2644  1.7875 -2.1967
  173MOL0     H23317  12.376   4.536   8.555  1.1792  0.1355 -0.8675
  173MOL0     H23318  12.549   4.495   8.745  0.7211 -1.1509 -1.6694
  173MOL0     H23319  12.796   4.688   8.967  1.0993 -0.2700  0.9028
  173MOL0     H23320  12.734   4.803   8.851 -2.9856  1.4031 -1.0275
  173MOL0     H23321  12.763   4.936   9.034  1.6662 -0.6218  0.6573
  173MOL0     H23322  12.592   4.880   9.052 -0.5744 -0.7593 -3.1353
  173MOL0     H23323  12.699   4.687   9.205 -4.3614  2.1421  2.4479
  173MOL0     H23324  12.853   4.787   9.197  0.1327  1.1065 -3.2485
  173MOL0     H23325  12.579   4.837   9.322  1.4916 -4.8012 -1.5903
  173MOL0     H23326  12.699   4.975   9.313  0.9563  0.0070 -3.7765
  173MOL0     H23327  12.744   4.700   9.449  4.0389 -0.5457  0.9394
  173MOL0     H23328  12.674   4.846   9.526  1.1952 -0.6386  1.1575
  173MOL0     H23329  12.938   4.849   9.393  1.2833  0.7152 -0.1077
  173MOL0     H23330  12.875   4.962   9.522 -0.2611 -0.6558  0.8705
  173MOL0     H23331  13.012   4.711   9.540 -0.7428 -1.9616  2.0516
  173MOL0     H23332  12.858   4.712   9.629 -1.5595  1.1885 -1.0283
  173MOL0     H23333  13.078   4.932   9.645 -0.6685  1.3635  0.2737
  173MOL0     H23334  12.949   4.904   9.755 -0.8996 -0.2694 -1.2799
  173MOL0     H23335  12.414   4.866   8.910 -0.4061 -0.4855  0.6681
  173MOL0     H23336  12.246   4.909   8.743 -1.3511 -0.4922 -1.3744
  173MOL0     H23337  12.139   4.628   8.295 -1.7965 -2.4288 -0.3539
  173MOL0     H23338  11.983   4.574   8.121  0.3410 -0.6512  0.5488
  173MOL0     H23339  11.222   4.674   7.052  0.3691 -0.1179 -0.7395
  173MOL0     H23340  11.021   4.545   7.057 -3.8453 -0.3643 -0.1179
  173MOL0     H23341  10.504   4.625   7.037  3.4873  0.8289 -0.6832
  173MOL0     H23342  10.311   4.497   7.043  0.2437  1.0776  0.7461
  173MOL0     H23343  10.165   4.327   7.026 -1.2597  2.6555  0.1563
  173MOL0     H23344  10.113   4.420   7.162  0.3869  0.2171 -1.4816
  173MOL0     H23345  10.076   4.109   7.129 -2.1380  0.3227 -3.2781
  173MOL0     H23346   9.964   4.222   7.086  0.8050  1.0284 -0.3834
  173MOL0     H23347   9.902   4.286   7.326 -0.1555 -0.4655  3.0768
  173MOL0     H23348  10.054   4.217   7.382  2.2181 -0.0999 -1.5298
  173MOL0     H23349   9.825   4.066   7.248 -1.1536 -0.7185  1.0414
  173MOL0     H23350   9.981   3.992   7.296  0.6364  1.2123 -0.8809
  173MOL0     H23351   9.817   4.016   7.675  1.8868 -0.3685 -0.1978
  173MOL0     H23352  10.485   4.246   7.349  1.8066 -0.6595 -0.9033
  173MOL0     H23353  10.745   4.408   7.430 -1.3237 -0.0660  2.4507
  173MOL0     H23354  10.664   4.263   7.434 -1.1924  3.1586  2.3597
  173MOL0     H23355  10.797   4.281   7.322 -0.8118  0.5544 -0.9593
  174MOL0     O23356   6.184   7.125   9.320  0.7232  0.4129  0.0420
  174MOL0     C23357   6.284   7.092   9.256  0.3902 -0.4430 -0.3620
  174MOL0     O23358   6.284   7.016   9.147 -0.8758  0.1564  0.4554
  174MOL0     C23359   6.164   6.975   9.091  0.5455 -0.8370 -0.7270
  174MOL0     C23360   6.051   7.061   9.062  0.0273  0.8334 -0.1821
  174MOL0     C23361   5.929   7.014   9.013 -0.2998 -0.0036 -0.1394
  174MOL0     C23362   5.927   6.879   8.968  0.0218  0.6460 -0.3047
  174MOL0     O23363   5.805   6.833   8.916  0.3704  0.3587 -0.6961
  174MOL0     C23364   5.807   6.736   8.807  0.5975 -0.4183 -0.1040
  174MOL0     C23365   5.662   6.680   8.773 -0.0886  0.7160 -0.5944
  174MOL0     C23366   5.543   6.774   8.746  0.7185 -0.3761 -0.3904
  174MOL0     C23367   5.555   6.828   8.603  0.0518 -0.3802 -0.2735
  174MOL0     C23368   5.463   6.932   8.552 -1.2395  0.5828 -0.6014
  174MOL0     C23369   5.310   6.905   8.570  0.4323  1.2772  0.3343
  174MOL0     C23370   5.267   6.791   8.483  0.1934  0.4723  0.9779
  174MOL0     C23371   5.114   6.762   8.498  0.7362  0.1967  0.4311
  174MOL0     N23372   5.029   6.864   8.429  0.3001 -0.7826 -1.0501
  174MOL0     C23373   5.001   6.864   8.295 -0.0617 -0.0890  0.2336
  174MOL0     C23374   4.933   6.980   8.272 -0.4258 -0.4068  0.0370
  174MOL0     C23375   4.883   7.032   8.142  0.1607  0.4072  0.6689
  174MOL0     C23376   4.786   7.153   8.145 -0.1590  1.6478  0.2836
  174MOL0     C23377   4.753   7.202   8.005 -0.2804  0.0734  0.4302
  174MOL0     C23378   4.680   7.331   7.993  0.5662  0.0765 -0.4826
  174MOL0     O23379   4.761   7.453   8.014 -0.4991  0.6155  0.8791
  174MOL0     C23380   4.761   7.506   8.144 -0.9271 -0.7763  0.1080
  174MOL0     C23381   4.882   7.531   8.204  0.5014 -0.5498 -0.7146
  174MOL0     C23382   4.886   7.566   8.338 -0.4084 -0.6481 -0.1174
  174MOL0     C23383   4.770   7.597   8.412 -1.0089 -1.3627 -0.0041
  174MOL0     C23384   4.769   7.637   8.555  1.0552  0.5268 -0.3687
  174MOL0     O23385   4.639   7.644   8.624 -0.2247 -0.7287  0.6346
  174MOL0     C23386   4.631   7.638   8.760 -0.6666 -0.1834 -0.3985
  174MOL0     C23387   4.701   7.546   8.842  0.1324  0.8634  0.1655
  174MOL0     C23388   4.676   7.544   8.989 -0.7465  0.0984  0.6163
  174MOL0     C23389   4.575   7.638   9.044 -0.3548 -0.4772 -0.1665
  174MOL0     O23390   4.549   7.655   9.174 -0.3242 -0.4196 -0.1363
  174MOL0     C23391   4.639   7.604   9.274  0.6025 -0.2409  0.7115
  174MOL0     C23392   4.773   7.697   9.269 -0.0058  0.1466 -0.0834
  174MOL0     C23393   4.861   7.675   9.398 -0.8747 -0.9925 -0.2844
  174MOL0     C23394   4.857   7.538   9.484  0.0598 -0.4168  0.6445
  174MOL0     C23395   4.985   7.528   9.570  0.1096  0.1141 -0.9653
  174MOL0     C23396   4.966   7.563   9.721  0.1728  0.2800 -0.6358
  174MOL0     C23397   4.935   7.707   9.763  0.7913 -0.7005 -0.9718
  174MOL0     C23398   4.947   7.731   9.913 -0.2036 -0.2224  0.6252
  174MOL0    Cl23399   4.970   7.900   9.966  0.4891  0.2957  0.0086
  174MOL0     C23400   4.519   7.727   8.955 -0.7504 -0.1049 -0.4378
  174MOL0     C23401   4.539   7.726   8.817  1.1207 -0.2436  0.3960
  174MOL0     O23402   4.875   7.631   8.617  0.2658 -0.3316 -1.0696
  174MOL0     C23403   4.642   7.579   8.355 -0.6074  0.4400 -0.2398
  174MOL0     C23404   4.646   7.542   8.219 -0.1642  0.1483  0.5156
  174MOL0     N23405   4.911   7.046   8.391  0.0054 -0.1718 -0.4605
  174MOL0     N23406   4.971   6.974   8.479  0.4298  0.1070 -0.1895
  174MOL0     C23407   6.040   6.796   8.996 -0.0433  0.4107 -0.0515
  174MOL0     C23408   6.157   6.844   9.054  0.1004 -0.7763 -0.0317
  174MOL0     C23409   6.418   7.121   9.315  0.9284 -0.5517 -0.4877
  174MOL0     C23410   6.421   7.205   9.430 -0.5913  0.0897  0.7241
  174MOL0     C23411   6.534   7.211   9.509 -0.2445  0.1941 -0.8063
  174MOL0     C23412   6.660   7.146   9.474  0.7991  0.6899  0.0494
  174MOL0     O23413   6.770   7.138   9.552 -0.4530 -0.2543 -0.6730
  174MOL0     C23414   6.763   7.201   9.685  0.8069  0.7316 -0.4477
  174MOL0     C23415   6.898   7.179   9.751  0.0052  0.0086 -0.2201
  174MOL0     C23416   6.932   7.021   9.777 -0.0103  0.1382  1.7929
  174MOL0     C23417   6.850   6.980   9.894  0.7554  0.7840 -0.8911
  174MOL0     C23418   6.894   7.045  10.019  0.7436  0.9740 -0.3055
  174MOL0     C23419   6.929   7.092  10.129  0.6144  0.4389  1.1293
  174MOL0     C23420   6.657   7.076   9.353  0.3056  0.0568 -0.3447
  174MOL0     C23421   6.548   7.069   9.268  0.1640  0.5216  0.1583
  174MOL0     C23422   6.564   6.995   9.136  0.1852  0.5282 -1.3089
  174MOL0     H23423   6.054   7.166   9.092 -4.5589  0.0707  4.3567
  174MOL0     H23424   5.838   7.072   9.006 -0.5969 -0.5318 -0.7180
  174MOL0     H23425   5.840   6.787   8.717  0.7216 -2.6837 -1.4035
  174MOL0     H23426   5.885   6.661   8.820  2.2329  1.2309  0.0933
  174MOL0     H23427   5.639   6.621   8.863 -1.2695 -0.2841 -1.5026
  174MOL0     H23428   5.661   6.610   8.689 -1.2738  0.7944 -0.6637
  174MOL0     H23429   5.557   6.852   8.822 -2.2878 -0.2544  0.1823
  174MOL0     H23430   5.444   6.730   8.764 -0.2318  1.3269 -1.2020
  174MOL0     H23431   5.659   6.863   8.595 -0.3572  1.5465  1.8424
  174MOL0     H23432   5.545   6.746   8.531 -1.6768 -1.3600  1.0085
  174MOL0     H23433   5.485   7.026   8.604 -1.2645  1.5089 -2.1775
  174MOL0     H23434   5.483   6.951   8.446  0.3650 -0.4033 -0.5125
  174MOL0     H23435   5.295   6.874   8.674  1.8758  0.6903  0.3898
  174MOL0     H23436   5.260   6.998   8.539  0.5070  1.1127 -0.2984
  174MOL0     H23437   5.316   6.697   8.510  0.5782 -0.2512 -1.9803
  174MOL0     H23438   5.293   6.811   8.379  0.2292 -4.0745 -0.0811
  174MOL0     H23439   5.107   6.664   8.451 -1.6855 -1.0348  3.0468
  174MOL0     H23440   5.088   6.744   8.603 -0.7204 -2.7994 -0.3351
  174MOL0     H23441   5.030   6.786   8.226 -0.5120 -0.6837  0.7103
  174MOL0     H23442   4.963   7.081   8.086 -0.5675  0.3182 -0.4872
  174MOL0     H23443   4.847   6.954   8.075  2.1309 -1.6352  1.8288
  174MOL0     H23444   4.700   7.112   8.200  0.6875  1.0799  1.2199
  174MOL0     H23445   4.829   7.237   8.200  0.7775  1.4562 -0.1427
  174MOL0     H23446   4.708   7.125   7.942 -3.2048  0.6516  1.6493
  174MOL0     H23447   4.846   7.224   7.952 -0.1329  1.3591  1.1835
  174MOL0     H23448   4.598   7.331   8.065  0.6481  0.6754 -0.3909
  174MOL0     H23449   4.636   7.342   7.893 -0.9188  0.0603  0.1446
  174MOL0     H23450   4.973   7.527   8.145 -0.4643  2.7720 -2.7106
  174MOL0     H23451   4.982   7.586   8.384  0.3039  0.6041 -2.0357
  174MOL0     H23452   4.780   7.481   8.803  1.1793  0.4086  2.8182
  174MOL0     H23453   4.738   7.485   9.054 -2.2144  1.1371  3.1233
  174MOL0     H23454   4.585   7.629   9.365 -2.7218  0.4366 -1.2767
  174MOL0     H23455   4.660   7.497   9.264  1.9214  0.0233  0.3842
  174MOL0     H23456   4.835   7.675   9.182 -0.1683 -1.4024  0.1581
  174MOL0     H23457   4.742   7.802   9.267  0.9124  0.4448 -2.5603
  174MOL0     H23458   4.962   7.687   9.356 -1.8776  2.0082 -2.2379
  174MOL0     H23459   4.850   7.759   9.467 -0.4537 -2.1853  1.2698
  174MOL0     H23460   4.879   7.462   9.409 -0.2584 -0.8494  0.9862
  174MOL0     H23461   4.763   7.537   9.541 -0.4845  1.5415 -0.1362
  174MOL0     H23462   5.064   7.595   9.535  1.9179 -2.1104 -1.4556
  174MOL0     H23463   5.021   7.424   9.575 -3.6377 -1.2842  0.2511
  174MOL0     H23464   4.881   7.505   9.761 -0.7267  2.6212  1.1297
  174MOL0     H23465   5.054   7.522   9.771 -0.1559  1.2544  0.8362
  174MOL0     H23466   4.837   7.732   9.722  0.1766  1.4529  1.4997
  174MOL0     H23467   4.988   7.782   9.704 -3.6094  2.9729 -0.8321
  174MOL0     H23468   4.849   7.709   9.956 -0.1625  0.4294  1.0744
  174MOL0     H23469   5.028   7.667   9.950 -0.7872 -0.3699  1.6885
  174MOL0     H23470   4.463   7.804   9.007  0.5269 -0.4127  1.4695
  174MOL0     H23471   4.476   7.791   8.758  0.0817 -1.7857 -0.2504
  174MOL0     H23472   4.548   7.593   8.407  0.6562 -0.2202  2.3857
  174MOL0     H23473   4.551   7.544   8.166 -0.9140 -1.7288  1.6969
  174MOL0     H23474   6.039   6.691   8.969  1.4726 -0.0601  1.5362
  174MOL0     H23475   6.236   6.779   9.090 -0.4800 -1.6483 -0.3109
  174MOL0     H23476   6.325   7.243   9.463 -1.1267 -0.3865 -0.2719
  174MOL0     H23477   6.533   7.288   9.586  0.9026  0.3282 -0.9077
  174MOL0     H23478   6.694   7.143   9.747  3.3697  0.8482  2.7473
  174MOL0     H23479   6.730   7.305   9.685  2.0703  1.1935  1.8913
  174MOL0     H23480   6.895   7.230   9.847  0.7998 -0.3400 -0.0042
  174MOL0     H23481   6.970   7.227   9.685  1.3127  0.1211  1.2427
  174MOL0     H23482   7.040   7.015   9.796  0.4917 -0.4617 -0.8011
  174MOL0     H23483   6.900   6.969   9.686 -1.7723  0.9163  1.9329
  174MOL0     H23484   6.742   6.975   9.880  0.8627 -1.8420 -1.2185
  174MOL0     H23485   6.880   6.875   9.899  0.7724  0.7396 -1.7040
  174MOL0     H23486   6.956   7.104  10.232 -0.3987 -1.3134  1.6358
  174MOL0     H23487   6.749   7.032   9.316 -0.4913 -2.4198  0.4438
  174MOL0     H23488   6.523   7.061   9.059 -2.1708  0.5644 -0.1331
  174MOL0     H23489   6.671   6.975   9.125  0.4481  0.4819  0.9427
  174MOL0     H23490   6.506   6.902   9.143  2.1324 -0.7269 -1.3210
  175MOL0     O23491   8.985   9.608   4.262  0.5733  0.4456 -0.6280
  175MOL0     C23492   9.015   9.579   4.381 -0.3214  0.2429  1.1614
  175MOL0     O23493   8.949   9.487   4.461 -0.0173  0.6678 -0.0998
  175MOL0     C23494   8.834   9.429   4.424  0.4039  0.2787  0.0814
  175MOL0     C23495   8.828   9.289   4.439  0.6647 -0.3325  0.2406
  175MOL0     C23496   8.707   9.217   4.425 -0.0766 -0.8190  0.0891
  175MOL0     C23497   8.594   9.287   4.398 -0.0163 -0.1500  0.4771
  175MOL0     O23498   8.485   9.211   4.363  0.8015  0.7948 -0.5439
  175MOL0     C23499   8.356   9.277   4.349 -0.4852  0.6524  0.5007
  175MOL0     C23500   8.242   9.184   4.369 -0.8997  0.5597  0.2552
  175MOL0     C23501   8.108   9.253   4.373  0.4050  0.5087  0.1761
  175MOL0     C23502   8.000   9.137   4.365  0.1491  0.5476  0.5732
  175MOL0     C23503   7.859   9.193   4.368  0.3268 -0.3548  0.3374
  175MOL0     C23504   7.748   9.086   4.341  0.1979  0.1749  0.2037
  175MOL0     C23505   7.601   9.132   4.351 -0.8835  0.5476 -0.1945
  175MOL0     C23506   7.515   9.003   4.339  0.7766 -0.4875  0.7305
  175MOL0     N23507   7.492   8.942   4.476 -0.0577 -0.4573 -0.0446
  175MOL0     C23508   7.580   8.848   4.522  0.3963 -0.0071  0.0866
  175MOL0     C23509   7.553   8.832   4.657 -0.0452 -0.7366 -0.8043
  175MOL0     C23510   7.626   8.752   4.765 -0.2284 -0.3822  0.7468
  175MOL0     C23511   7.523   8.685   4.842  0.2245  0.5894 -0.2854
  175MOL0     C23512   7.584   8.586   4.942 -0.4447 -0.4779  0.1316
  175MOL0     C23513   7.488   8.486   5.009 -0.1911  0.9982  0.6565
  175MOL0     O23514   7.523   8.346   5.006  1.3873 -0.0327  0.4455
  175MOL0     C23515   7.636   8.317   5.081 -0.5308 -0.2991  0.3989
  175MOL0     C23516   7.641   8.290   5.216 -0.6485 -0.0875 -0.7582
  175MOL0     C23517   7.754   8.270   5.285 -0.4751  0.4879  0.4155
  175MOL0     C23518   7.873   8.262   5.215 -0.0108  0.2364 -1.5766
  175MOL0     C23519   7.991   8.246   5.299 -0.4928 -0.4708 -0.7488
  175MOL0     O23520   7.973   8.197   5.428 -0.6145  0.3257 -0.6211
  175MOL0     C23521   8.079   8.157   5.507 -0.9086 -0.8098  0.3239
  175MOL0     C23522   8.078   8.037   5.570 -0.4593 -0.4561  0.0934
  175MOL0     C23523   8.181   7.983   5.654  0.2401 -0.5876  0.4127
  175MOL0     C23524   8.284   8.062   5.679 -0.5554  0.2303 -0.8232
  175MOL0     O23525   8.395   8.031   5.752 -0.3919  0.2293 -0.5056
  175MOL0     C23526   8.417   7.900   5.801  0.4446 -0.2310  0.9777
  175MOL0     C23527   8.557   7.900   5.860  0.0366 -0.3147 -0.0101
  175MOL0     C23528   8.599   7.774   5.936 -0.0331  0.4347 -0.5265
  175MOL0     C23529   8.547   7.766   6.079  0.1515 -0.3807  0.3171
  175MOL0     C23530   8.590   7.629   6.137 -0.8448 -0.4914  0.3213
  175MOL0     C23531   8.531   7.602   6.274 -0.2167  0.4639 -0.6851
  175MOL0     C23532   8.601   7.476   6.332  0.0943 -0.5019  0.2949
  175MOL0     C23533   8.525   7.400   6.443  1.0371 -0.2854 -0.4710
  175MOL0    Cl23534   8.513   7.507   6.589  0.3893 -0.7444  0.1184
  175MOL0     C23535   8.291   8.184   5.615 -0.0792 -0.2235  0.4774
  175MOL0     C23536   8.195   8.234   5.526 -0.0138  1.0579 -0.7915
  175MOL0     O23537   8.099   8.272   5.247 -0.7753 -0.3091 -0.0337
  175MOL0     C23538   7.875   8.275   5.075  1.5397 -0.7867 -0.1634
  175MOL0     C23539   7.754   8.300   5.009 -0.2174 -0.2178  0.8554
  175MOL0     N23540   7.460   8.924   4.688 -0.1331 -0.0349 -0.7891
  175MOL0     N23541   7.426   8.988   4.586  0.3669 -0.8530 -0.4769
  175MOL0     C23542   8.603   9.427   4.363  0.6723  0.2700 -0.0714
  175MOL0     C23543   8.719   9.498   4.386  0.3848 -0.3727 -0.4839
  175MOL0     C23544   9.121   9.670   4.440  0.1763 -0.3921  0.4188
  175MOL0     C23545   9.110   9.715   4.576 -0.4431  0.2630  0.8349
  175MOL0     C23546   9.205   9.803   4.627  0.7176 -0.7093  0.4595
  175MOL0     C23547   9.305   9.869   4.555  0.1509  0.6330 -0.3051
  175MOL0     O23548   9.402   9.946   4.627  0.0185 -0.3636 -0.2519
  175MOL0     C23549   9.489  10.028   4.546  0.4398 -0.4738 -0.0933
  175MOL0     C23550   9.600  10.074   4.642  0.9601 -0.5230  0.6555
  175MOL0     C23551   9.549  10.150   4.764  0.3910  0.4201 -0.9186
  175MOL0     C23552   9.669  10.193   4.848  0.0879  0.1444 -0.6827
  175MOL0     C23553   9.735  10.315   4.800 -0.3676 -0.0747 -1.8789
  175MOL0     C23554   9.805  10.416   4.766  0.0535  0.8444 -0.2585
  175MOL0     C23555   9.319   9.831   4.417 -0.5548  0.8946 -0.0846
  175MOL0     C23556   9.232   9.732   4.356  0.2868 -0.6687 -0.0456
  175MOL0     C23557   9.270   9.690   4.217  0.7104 -0.0413 -0.2870
  175MOL0     H23558   8.927   9.251   4.457  1.0890 -0.5073 -2.1646
  175MOL0     H23559   8.693   9.110   4.425  3.1856 -1.3690 -2.1920
  175MOL0     H23560   8.353   9.355   4.425 -1.9743  2.0242 -0.8812
  175MOL0     H23561   8.340   9.323   4.251  2.5994 -1.2237 -1.0396
  175MOL0     H23562   8.248   9.134   4.466 -2.8626  0.6606  0.4758
  175MOL0     H23563   8.250   9.113   4.287 -2.6362  0.7004 -0.0763
  175MOL0     H23564   8.094   9.312   4.282  2.4397 -0.5839 -0.9509
  175MOL0     H23565   8.093   9.301   4.470 -1.0940 -0.2625  0.3588
  175MOL0     H23566   8.005   9.088   4.268  0.3476 -0.3055  1.0063
  175MOL0     H23567   8.017   9.062   4.443 -2.0795 -1.4889 -0.7523
  175MOL0     H23568   7.849   9.263   4.451  0.0921  0.6451 -0.5068
  175MOL0     H23569   7.862   9.263   4.284  1.6534 -0.6063  0.1495
  175MOL0     H23570   7.769   9.025   4.252  0.0765  0.8728 -0.3075
  175MOL0     H23571   7.770   9.012   4.419 -2.7045  0.7509  1.6811
  175MOL0     H23572   7.588   9.203   4.268 -0.2782  2.7704  1.5191
  175MOL0     H23573   7.576   9.187   4.442  1.5988  0.6953  0.4437
  175MOL0     H23574   7.412   9.031   4.313  1.4536  2.1377  0.6628
  175MOL0     H23575   7.553   8.937   4.260 -2.0645 -3.3426  1.5565
  175MOL0     H23576   7.661   8.803   4.466  3.2395  3.0315  1.4305
  175MOL0     H23577   7.694   8.677   4.723  2.3341  1.1000  2.0623
  175MOL0     H23578   7.693   8.815   4.823  0.1937  0.6692 -0.8199
  175MOL0     H23579   7.461   8.763   4.888 -0.3759 -0.1779  0.2379
  175MOL0     H23580   7.447   8.637   4.780 -0.0722  5.7978 -4.6990
  175MOL0     H23581   7.634   8.648   5.017 -0.3293  1.3513 -1.3688
  175MOL0     H23582   7.654   8.526   4.884 -0.8487 -0.9197  0.0961
  175MOL0     H23583   7.388   8.498   4.967 -0.7838 -0.3731  1.5845
  175MOL0     H23584   7.474   8.493   5.117 -3.4155  3.1640  0.2320
  175MOL0     H23585   7.548   8.291   5.274  1.1209 -1.8812  2.3784
  175MOL0     H23586   7.757   8.261   5.393  0.2689 -0.6958  0.3204
  175MOL0     H23587   7.992   7.971   5.560  1.7256 -3.1991 -3.6257
  175MOL0     H23588   8.179   7.886   5.703  1.3577  0.5698  2.9737
  175MOL0     H23589   8.330   7.891   5.868 -3.2470  1.4860 -3.0735
  175MOL0     H23590   8.406   7.825   5.722  0.9654  2.2754 -1.6387
  175MOL0     H23591   8.619   7.899   5.770 -0.2515  0.4931 -0.2229
  175MOL0     H23592   8.580   7.993   5.910 -1.0432  0.0124 -0.0893
  175MOL0     H23593   8.569   7.685   5.881 -1.5227  0.7046 -0.2073
  175MOL0     H23594   8.707   7.781   5.943 -0.1716  1.3406  1.5374
  175MOL0     H23595   8.439   7.773   6.060  0.4702 -1.3850 -2.2068
  175MOL0     H23596   8.584   7.855   6.129 -0.8047  0.3616 -0.2586
  175MOL0     H23597   8.699   7.630   6.137 -0.6927 -1.4867 -3.3835
  175MOL0     H23598   8.567   7.544   6.072 -0.1046 -0.8674  0.5440
  175MOL0     H23599   8.558   7.685   6.339  3.0173 -1.1651  0.2457
  175MOL0     H23600   8.422   7.589   6.274 -0.0851 -1.1584 -2.5956
  175MOL0     H23601   8.701   7.497   6.370 -0.4658  1.9041  0.5593
  175MOL0     H23602   8.604   7.403   6.251  3.2267  1.1329 -1.2089
  175MOL0     H23603   8.426   7.381   6.400 -0.4794  3.0883  1.1326
  175MOL0     H23604   8.580   7.309   6.467 -0.3620 -0.6420  1.6685
  175MOL0     H23605   8.372   8.254   5.633  0.0736  0.2290 -1.6547
  175MOL0     H23606   8.222   8.335   5.494  1.3236  1.0709  0.2880
  175MOL0     H23607   7.963   8.268   5.011  0.8371  0.8165 -1.4004
  175MOL0     H23608   7.755   8.294   4.900 -1.4211  1.0148  0.7496
  175MOL0     H23609   8.520   9.488   4.328  0.4454  0.0620  0.1045
  175MOL0     H23610   8.735   9.601   4.359 -1.2965  0.3175  0.9771
  175MOL0     H23611   9.038   9.658   4.635 -0.4797 -0.7247 -0.1444
  175MOL0     H23612   9.177   9.826   4.729 -3.6314  0.0652 -0.7015
  175MOL0     H23613   9.447  10.118   4.501  0.2122 -2.4361 -4.3174
  175MOL0     H23614   9.531   9.973   4.461 -0.4406 -1.1719 -0.0962
  175MOL0     H23615   9.663  10.129   4.571 -2.2196 -0.3732 -2.2979
  175MOL0     H23616   9.652   9.982   4.671 -0.6376 -2.1623 -1.3086
  175MOL0     H23617   9.487  10.080   4.820  0.4040 -0.2657 -1.7371
  175MOL0     H23618   9.489  10.238   4.739  0.1124  0.5579  0.2041
  175MOL0     H23619   9.626  10.216   4.946 -2.4185 -0.8438 -1.4711
  175MOL0     H23620   9.744  10.114   4.857  0.1862  0.4630  2.5503
  175MOL0     H23621   9.865  10.500   4.740  0.5224 -0.3493 -3.4711
  175MOL0     H23622   9.401   9.868   4.355 -0.3571 -1.7631 -1.5566
  175MOL0     H23623   9.251   9.583   4.202  2.0923 -0.0217 -2.6853
  175MOL0     H23624   9.204   9.747   4.151 -0.2268 -0.4157  0.3009
  175MOL0     H23625   9.374   9.720   4.206  0.8813 -0.4898  0.0876
  176MOL0     O23626   9.769   6.390   9.739 -0.0578 -0.5461  0.3632
  176MOL0     C23627   9.704   6.316   9.816 -0.6894  0.5338 -0.0414
  176MOL0     O23628   9.582   6.343   9.868  0.5581 -0.2376  0.2578
  176MOL0     C23629   9.524   6.246   9.945 -0.1306 -0.5806  0.5876
  176MOL0     C23630   9.397   6.194   9.902 -0.8032 -0.2356 -0.4853
  176MOL0     C23631   9.336   6.098   9.977 -0.1395 -0.3025  0.2158
  176MOL0     C23632   9.390   6.063  10.100 -0.0398  0.0320  0.3523
  176MOL0     O23633   9.317   5.966  10.159 -0.1181  1.1128  0.3205
  176MOL0     C23634   9.376   5.893  10.262  0.4509  1.0846 -0.2289
  176MOL0     C23635   9.266   5.796  10.321 -0.7174  0.1470 -0.2161
  176MOL0     C23636   9.188   5.724  10.217 -0.0228  0.8994  0.1135
  176MOL0     C23637   9.101   5.607  10.280 -0.9484 -0.1399  0.6824
  176MOL0     C23638   8.983   5.651  10.367  1.0987 -0.7499  0.1947
  176MOL0     C23639   8.902   5.535  10.403  1.2443  0.0188 -0.0132
  176MOL0     C23640   8.763   5.565  10.478 -0.4981 -0.0286  0.1665
  176MOL0     C23641   8.687   5.435  10.517  0.3713 -0.8682 -0.8481
  176MOL0     N23642   8.562   5.464  10.584 -0.5684 -0.4910  0.2263
  176MOL0     C23643   8.439   5.479  10.532  1.0296  0.1773  0.0610
  176MOL0     C23644   8.341   5.433  10.607 -0.2441 -0.4394 -0.1425
  176MOL0     C23645   8.191   5.437  10.592 -0.1538  0.7150  0.3944
  176MOL0     C23646   8.138   5.470  10.449 -0.5629 -0.0320 -0.2927
  176MOL0     C23647   8.153   5.624  10.420  0.2075  0.5825  0.0444
  176MOL0     C23648   8.102   5.655  10.281 -0.1565 -0.1184  0.2027
  176MOL0     O23649   7.979   5.737  10.281  0.7623  0.5629 -0.2793
  176MOL0     C23650   7.988   5.868  10.332  0.5004 -0.3672  0.3157
  176MOL0     C23651   7.869   5.918  10.389  1.3133  0.4509  0.1816
  176MOL0     C23652   7.858   6.050  10.442 -0.7115 -0.1524  0.2044
  176MOL0     C23653   7.978   6.116  10.456 -0.4586 -0.3696 -0.5016
  176MOL0     C23654   7.988   6.255  10.528  0.5082 -0.5497  0.1238
  176MOL0     O23655   7.867   6.302  10.583 -0.4825  0.3219  0.1578
  176MOL0     C23656   7.854   6.419  10.658  0.1957 -0.5851  0.4368
  176MOL0     C23657   7.963   6.471  10.737 -0.5854 -0.2904 -0.1511
  176MOL0     C23658   7.952   6.595  10.806 -0.3690 -0.2320 -0.3176
  176MOL0     C23659   7.840   6.679  10.783  1.1308  0.1212 -0.6225
  176MOL0     O23660   7.845   6.799  10.847  0.1195 -0.0139 -0.4974
  176MOL0     C23661   7.726   6.884  10.846  0.7995  1.1910 -0.6246
  176MOL0     C23662   7.754   7.018  10.895 -0.4006 -0.1340  0.9092
  176MOL0     C23663   7.621   7.090  10.911 -0.3477 -1.1241  0.5634
  176MOL0     C23664   7.634   7.235  10.935 -0.7169  1.0065 -0.0734
  176MOL0     C23665   7.723   7.270  11.057 -0.5731  0.6557 -0.1970
  176MOL0     C23666   7.711   7.423  11.069  0.1550  0.3666 -0.3832
  176MOL0     C23667   7.810   7.478  11.177 -0.7093 -0.3301  0.5895
  176MOL0     C23668   7.757   7.556  11.291 -0.3075 -0.2061  0.0412
  176MOL0    Cl23669   7.903   7.587  11.379  0.4572  0.0878 -0.9158
  176MOL0     C23670   7.739   6.625  10.705  0.7164  0.1052 -0.7147
  176MOL0     C23671   7.741   6.501  10.646 -0.2218 -0.8296 -0.0097
  176MOL0     O23672   8.101   6.314  10.538 -0.0349 -0.5290  0.1703
  176MOL0     C23673   8.097   6.071  10.401 -0.1601  0.5446  0.2359
  176MOL0     C23674   8.102   5.955  10.330 -0.4762  0.7559 -0.3015
  176MOL0     N23675   8.401   5.404  10.728  0.3647 -0.6697  0.2954
  176MOL0     N23676   8.530   5.406  10.705 -0.2152 -0.0274 -0.1591
  176MOL0     C23677   9.504   6.121  10.157  0.1712 -0.7198  0.2101
  176MOL0     C23678   9.581   6.215  10.071 -0.3587  0.9784 -0.2081
  176MOL0     C23679   9.782   6.186   9.835  0.6078  0.3154  0.7468
  176MOL0     C23680   9.713   6.066   9.810  1.2826  0.1879 -0.2787
  176MOL0     C23681   9.777   5.946   9.792  0.6236 -0.3896 -0.9931
  176MOL0     C23682   9.913   5.930   9.813 -0.5872 -0.3659 -1.1573
  176MOL0     O23683   9.972   5.807   9.788 -0.0978  0.3696  0.7115
  176MOL0     C23684  10.105   5.785   9.826 -1.2382  0.4378 -2.0999
  176MOL0     C23685  10.196   5.836   9.715 -0.7398 -0.0278  0.2544
  176MOL0     C23686  10.337   5.884   9.753  0.1066  1.1278 -0.3405
  176MOL0     C23687  10.426   5.763   9.790 -1.4051  0.3263  0.8814
  176MOL0     C23688  10.484   5.697   9.669  0.3209 -0.0692 -0.4632
  176MOL0     C23689  10.517   5.641   9.571 -0.4895 -0.4541  0.6152
  176MOL0     C23690   9.982   6.046   9.849 -0.5702 -0.8706 -0.7798
  176MOL0     C23691   9.917   6.175   9.862  0.3657  0.4036 -0.6774
  176MOL0     C23692  10.009   6.288   9.916  0.7390  0.2293  0.0926
  176MOL0     H23693   9.353   6.238   9.813 -2.3600 -0.3186  0.1933
  176MOL0     H23694   9.238   6.062   9.949 -1.1399  2.3352  0.0535
  176MOL0     H23695   9.460   5.848  10.208 -2.7874 -2.9171 -2.5456
  176MOL0     H23696   9.407   5.951  10.350 -3.6453 -0.2274  2.3544
  176MOL0     H23697   9.194   5.865  10.367  0.5237  0.8889  0.6789
  176MOL0     H23698   9.302   5.727  10.398 -2.6645  0.3901  1.0006
  176MOL0     H23699   9.255   5.679  10.143  1.0989  0.1517  1.5207
  176MOL0     H23700   9.112   5.786  10.170 -0.8066 -0.6549 -0.7688
  176MOL0     H23701   9.074   5.549  10.191  0.9161 -1.4149  0.9005
  176MOL0     H23702   9.170   5.541  10.333  2.6389  0.8235 -2.3917
  176MOL0     H23703   9.033   5.688  10.457  2.0382  0.2562 -0.7112
  176MOL0     H23704   8.921   5.727  10.318  2.7447 -0.1709 -1.0909
  176MOL0     H23705   8.869   5.488  10.310 -5.5703 -0.4367  2.1191
  176MOL0     H23706   8.965   5.472  10.467  3.7556  1.4007 -0.9771
  176MOL0     H23707   8.694   5.633  10.427  0.1033  0.5505  0.1105
  176MOL0     H23708   8.778   5.623  10.569 -1.3144  0.4096  0.0395
  176MOL0     H23709   8.661   5.383  10.425 -2.1204 -1.0069 -0.1418
  176MOL0     H23710   8.757   5.378  10.579  0.1138  1.0066  1.2947
  176MOL0     H23711   8.420   5.495  10.426  1.8536 -0.4972 -0.2001
  176MOL0     H23712   8.162   5.336  10.621  1.7780 -0.8117 -2.4735
  176MOL0     H23713   8.145   5.507  10.662  1.2848  1.9516  0.1831
  176MOL0     H23714   8.187   5.411  10.371 -0.5609 -0.5765  0.1125
  176MOL0     H23715   8.032   5.444  10.452 -1.1135  2.0717  0.8412
  176MOL0     H23716   8.256   5.660  10.419  0.3556  0.1679 -0.6536
  176MOL0     H23717   8.096   5.685  10.491 -1.7453 -0.7499 -0.3062
  176MOL0     H23718   8.079   5.562  10.228 -1.6572  0.8588 -0.9592
  176MOL0     H23719   8.183   5.707  10.229  0.9359 -4.6375 -3.1943
  176MOL0     H23720   7.784   5.851  10.388  0.7247  1.1532 -1.7631
  176MOL0     H23721   7.770   6.113  10.450 -0.0760  0.8331 -0.3049
  176MOL0     H23722   8.052   6.414  10.760 -1.5125 -1.0135  1.8021
  176MOL0     H23723   8.033   6.645  10.858 -1.9618  2.2084 -0.0225
  176MOL0     H23724   7.683   6.885  10.745 -0.6722 -0.6840 -0.0751
  176MOL0     H23725   7.645   6.840  10.905 -1.6813  1.4442 -3.5795
  176MOL0     H23726   7.796   7.010  10.995 -3.1900  0.7382  2.2349
  176MOL0     H23727   7.817   7.074  10.824 -3.4922  0.7466 -1.3666
  176MOL0     H23728   7.559   7.083  10.821  0.6032  1.1698 -0.3403
  176MOL0     H23729   7.574   7.049  11.001  0.0662 -2.2493  0.2849
  176MOL0     H23730   7.532   7.271  10.955 -0.6525  0.7442  0.7628
  176MOL0     H23731   7.673   7.290  10.849 -2.0192 -0.3651 -1.6238
  176MOL0     H23732   7.826   7.246  11.030 -1.4648 -2.5046 -1.2330
  176MOL0     H23733   7.689   7.218  11.148 -1.7965  2.7932  0.6385
  176MOL0     H23734   7.715   7.471  10.971 -0.0320  2.0596  0.3989
  176MOL0     H23735   7.610   7.449  11.103  0.3168  5.3606 -2.8555
  176MOL0     H23736   7.872   7.555  11.130 -0.7193  0.9909  2.6301
  176MOL0     H23737   7.882   7.400  11.203  1.1194  0.6582 -1.1866
  176MOL0     H23738   7.714   7.650  11.256 -0.2598  0.3364  1.4092
  176MOL0     H23739   7.684   7.505  11.355  2.4616 -0.4088  3.2953
  176MOL0     H23740   7.655   6.690  10.680  1.0528  0.9614  0.3319
  176MOL0     H23741   7.654   6.474  10.587 -1.1068  2.1376 -0.2180
  176MOL0     H23742   8.190   6.126  10.410 -0.7043  1.8398 -1.4677
  176MOL0     H23743   8.191   5.924  10.277 -1.2584 -1.7892 -0.2333
  176MOL0     H23744   9.550   6.098  10.253  1.5306 -1.8435 -0.6773
  176MOL0     H23745   9.672   6.264  10.103  0.3971 -0.3592 -0.2646
  176MOL0     H23746   9.610   6.068   9.776  1.5174 -0.1850 -1.0341
  176MOL0     H23747   9.724   5.862   9.748  0.2475 -0.5595 -0.2282
  176MOL0     H23748  10.134   5.679   9.832  2.2654  1.3826  1.3156
  176MOL0     H23749  10.131   5.829   9.922 -1.8512 -0.0030 -1.7264
  176MOL0     H23750  10.146   5.917   9.661 -1.5081  1.1897  2.6456
  176MOL0     H23751  10.215   5.752   9.648  1.3656 -0.6460  1.5179
  176MOL0     H23752  10.324   5.950   9.839 -0.6353  0.9540 -0.3176
  176MOL0     H23753  10.393   5.941   9.678  0.8916  0.7072 -0.0844
  176MOL0     H23754  10.512   5.793   9.851  1.9976  0.6569 -3.5922
  176MOL0     H23755  10.373   5.686   9.847  0.9959  0.3833  3.4234
  176MOL0     H23756  10.539   5.607   9.472 -0.4977  1.7277 -0.1994
  176MOL0     H23757  10.085   6.040   9.882  0.6324  3.0234 -3.0395
  176MOL0     H23758  10.014   6.299  10.025  0.1116  0.5330  0.0980
  176MOL0     H23759  10.106   6.283   9.867  1.1422  0.4345  0.8637
  176MOL0     H23760   9.971   6.384   9.880  1.3764  0.5982  0.3928
  177MOL0     O23761   2.117   7.392   6.393 -0.6300 -0.7015 -0.7536
  177MOL0     C23762   2.198   7.393   6.309  0.2358  0.4347  1.0155
  177MOL0     O23763   2.249   7.495   6.247  0.1632 -0.6608  0.4545
  177MOL0     C23764   2.235   7.614   6.315 -0.2925  0.2935 -0.5341
  177MOL0     C23765   2.329   7.666   6.405 -1.1177  0.4692  0.2393
  177MOL0     C23766   2.309   7.787   6.465  0.3052 -0.1785 -0.0180
  177MOL0     C23767   2.202   7.863   6.431 -0.1669  0.5865 -0.7754
  177MOL0     O23768   2.195   7.983   6.486  0.3308 -0.5488  0.4789
  177MOL0     C23769   2.087   8.022   6.566  0.4700  0.0867 -0.4780
  177MOL0     C23770   2.102   8.171   6.614  0.0229  0.9964 -0.5523
  177MOL0     C23771   2.008   8.215   6.726 -1.0067 -0.5685 -0.0915
  177MOL0     C23772   2.054   8.347   6.800  0.1437 -0.2140  0.4378
  177MOL0     C23773   1.959   8.374   6.909  0.7284  0.3796  0.9041
  177MOL0     C23774   2.008   8.474   7.013  0.4646  0.1313  0.4096
  177MOL0     C23775   1.901   8.507   7.113 -0.3556  0.2016 -0.3639
  177MOL0     C23776   1.865   8.395   7.220 -0.4188  0.4575  0.6322
  177MOL0     N23777   1.748   8.425   7.292  0.8298  0.8965  0.3673
  177MOL0     C23778   1.733   8.468   7.422 -0.0559 -0.3351  0.5588
  177MOL0     C23779   1.605   8.475   7.451 -0.3651  0.3237  0.2017
  177MOL0     C23780   1.557   8.530   7.586 -0.3993 -0.0065  0.6606
  177MOL0     C23781   1.438   8.625   7.565 -0.5957  0.1924  0.6051
  177MOL0     C23782   1.405   8.712   7.676  0.2905 -0.1226  0.1672
  177MOL0     C23783   1.341   8.849   7.639  0.3429  0.3587  0.1420
  177MOL0     O23784   1.271   8.884   7.758 -0.1687  0.6334  0.4598
  177MOL0     C23785   1.214   9.004   7.766  1.1969  0.0107 -0.4649
  177MOL0     C23786   1.154   9.076   7.656 -0.5334  0.3476 -0.4009
  177MOL0     C23787   1.103   9.206   7.681 -0.9546 -0.4828  0.2291
  177MOL0     C23788   1.089   9.246   7.811  0.3305 -0.7999  0.2258
  177MOL0     C23789   1.026   9.384   7.836  0.2399  0.9591 -0.6670
  177MOL0     O23790   1.008   9.411   7.968 -0.7589 -0.0847 -0.8810
  177MOL0     C23791   0.942   9.532   8.002  0.2433  0.0916  0.6152
  177MOL0     C23792   0.809   9.525   8.045  0.8058  0.1645  0.6253
  177MOL0     C23793   0.734   9.640   8.073  0.3560  0.0711 -0.0179
  177MOL0     C23794   0.796   9.757   8.094  0.0225  0.4964 -0.3933
  177MOL0     O23795   0.716   9.850   8.155  0.2568 -0.5328  0.5859
  177MOL0     C23796   0.776   9.972   8.198 -0.2177 -0.8701 -0.0450
  177MOL0     C23797   0.694  10.076   8.286 -0.1947  0.3277  1.1726
  177MOL0     C23798   0.605   9.990   8.377  0.0347  0.3680  0.0167
  177MOL0     C23799   0.547  10.072   8.498 -0.0990 -1.0616 -0.0289
  177MOL0     C23800   0.470   9.980   8.587 -0.2254 -0.7781  0.2174
  177MOL0     C23801   0.334   9.932   8.548  0.2913  0.0185  0.6867
  177MOL0     C23802   0.257   9.866   8.671 -0.1310 -1.1748  0.4103
  177MOL0     C23803   0.115   9.875   8.611 -1.0147  0.8880 -1.0658
  177MOL0    Cl23804  -0.004   9.835   8.740 -0.2970 -0.5582 -0.4129
  177MOL0     C23805   0.938   9.763   8.076 -0.0190 -0.4772  0.4837
  177MOL0     C23806   1.011   9.645   8.025  1.0619 -0.5594  0.0854
  177MOL0     O23807   0.998   9.459   7.742  0.0044  0.0545 -0.2951
  177MOL0     C23808   1.138   9.174   7.924 -1.2344 -0.2937  0.1026
  177MOL0     C23809   1.200   9.054   7.896  0.7022 -0.1517  0.4229
  177MOL0     N23810   1.530   8.436   7.341 -0.5731  0.2612  0.3229
  177MOL0     N23811   1.619   8.417   7.248  0.3084  0.4045 -0.3214
  177MOL0     C23812   2.111   7.815   6.336  0.4637  0.3024 -0.0797
  177MOL0     C23813   2.133   7.693   6.275 -0.3441  0.0152  0.2480
  177MOL0     C23814   2.229   7.267   6.242  0.4547  0.0167 -0.5112
  177MOL0     C23815   2.131   7.171   6.220  0.8209 -0.1513  0.5836
  177MOL0     C23816   2.171   7.052   6.155  0.1118  0.0803  0.2897
  177MOL0     C23817   2.298   7.016   6.121  0.4938 -0.6790  0.4922
  177MOL0     O23818   2.309   6.893   6.067  0.0289  0.4079  0.4946
  177MOL0     C23819   2.447   6.838   6.053  0.1290  0.5760  0.2998
  177MOL0     C23820   2.451   6.711   6.134  0.6816  0.1603  0.1677
  177MOL0     C23821   2.443   6.730   6.286  0.8973 -0.4822  0.3317
  177MOL0     C23822   2.295   6.707   6.345 -0.2343 -0.1265 -0.3278
  177MOL0     C23823   2.294   6.647   6.475 -0.2368  0.6433  0.0390
  177MOL0     C23824   2.292   6.607   6.593  0.2156  0.3850  0.3022
  177MOL0     C23825   2.394   7.114   6.152 -0.0439  0.0209  0.1458
  177MOL0     C23826   2.363   7.236   6.201 -0.2180  0.3493 -1.4002
  177MOL0     C23827   2.479   7.326   6.228 -1.3803 -0.4147  0.5007
  177MOL0     H23828   2.423   7.613   6.416 -1.0518  0.5354 -0.0122
  177MOL0     H23829   2.383   7.829   6.532 -1.0568  1.0183  0.7850
  177MOL0     H23830   1.994   8.012   6.509  0.8385 -0.9042 -0.9234
  177MOL0     H23831   2.089   7.949   6.647  2.5192  1.0594  0.4066
  177MOL0     H23832   2.100   8.246   6.535 -4.3670 -1.4468 -3.1665
  177MOL0     H23833   2.197   8.189   6.666 -1.1007  2.5951  1.0642
  177MOL0     H23834   2.007   8.140   6.805 -0.2727 -1.2536 -0.7095
  177MOL0     H23835   1.909   8.225   6.680 -1.2143  0.3452  0.5344
  177MOL0     H23836   2.159   8.335   6.828  0.4618 -0.1652 -0.6806
  177MOL0     H23837   2.056   8.427   6.726  1.8669  2.6586  3.3323
  177MOL0     H23838   1.862   8.402   6.866  2.2839  4.4992 -0.3855
  177MOL0     H23839   1.945   8.277   6.958  0.1130  0.4773  0.9275
  177MOL0     H23840   2.095   8.434   7.067 -2.2219 -2.5934  3.1778
  177MOL0     H23841   2.025   8.568   6.960 -1.1860  0.3518  0.2190
  177MOL0     H23842   1.810   8.546   7.067 -0.2558  2.9014  1.4583
  177MOL0     H23843   1.931   8.593   7.174 -1.2958  0.4268 -0.2035
  177MOL0     H23844   1.861   8.304   7.159  1.9670  0.8298 -0.1512
  177MOL0     H23845   1.953   8.387   7.283  1.3130  0.8358 -1.6106
  177MOL0     H23846   1.815   8.494   7.488 -1.8941  0.5466  2.6290
  177MOL0     H23847   1.525   8.461   7.664  0.7238 -0.3760  0.8032
  177MOL0     H23848   1.638   8.576   7.642  0.5512 -2.0274  1.0578
  177MOL0     H23849   1.472   8.695   7.487 -1.5827 -0.8558 -0.8192
  177MOL0     H23850   1.356   8.560   7.533  0.7396 -0.3207 -2.1302
  177MOL0     H23851   1.498   8.743   7.724 -0.2771  0.2710  1.0257
  177MOL0     H23852   1.342   8.656   7.746  1.0892  0.5602  1.4691
  177MOL0     H23853   1.274   8.841   7.553 -0.6348  2.6195  0.6220
  177MOL0     H23854   1.419   8.923   7.621  0.4661 -0.3243 -2.6903
  177MOL0     H23855   1.161   9.037   7.555  2.9820 -0.3950 -0.0056
  177MOL0     H23856   1.074   9.254   7.588 -0.1848 -2.4074 -1.0877
  177MOL0     H23857   0.752   9.434   8.062  0.3860  0.2254 -0.3776
  177MOL0     H23858   0.629   9.618   8.092  1.1220 -3.1433  1.0830
  177MOL0     H23859   0.868   9.956   8.254  0.3507  1.8604 -0.0434
  177MOL0     H23860   0.813  10.037   8.118 -0.4844  0.0610  0.5788
  177MOL0     H23861   0.756  10.135   8.354 -0.8077  1.6518  0.6051
  177MOL0     H23862   0.633  10.133   8.216  0.1886 -2.3157 -1.5288
  177MOL0     H23863   0.528   9.943   8.315  0.2720  1.3409 -1.0312
  177MOL0     H23864   0.670   9.916   8.426 -0.3920 -0.2544 -0.3385
  177MOL0     H23865   0.476  10.150   8.471 -0.8877 -2.1960 -1.4402
  177MOL0     H23866   0.622  10.127   8.555 -1.1950  0.0740  0.3423
  177MOL0     H23867   0.470  10.037   8.681  0.3853 -2.1274  1.0507
  177MOL0     H23868   0.535   9.895   8.605  0.1403 -0.6786 -0.6035
  177MOL0     H23869   0.276  10.018   8.513 -1.8741  0.3065  4.4740
  177MOL0     H23870   0.349   9.852   8.475 -0.6050 -0.2414  0.7769
  177MOL0     H23871   0.267   9.919   8.765  2.7841  0.1741 -0.5322
  177MOL0     H23872   0.298   9.767   8.694 -1.5364 -1.6514  0.9283
  177MOL0     H23873   0.091   9.971   8.563 -1.4106  1.0051 -0.6368
  177MOL0     H23874   0.109   9.801   8.531 -0.4566  0.0970 -0.3852
  177MOL0     H23875   0.989   9.852   8.109 -1.1469  0.6181 -0.6007
  177MOL0     H23876   1.118   9.646   8.004  0.8889  1.0316 -0.9525
  177MOL0     H23877   1.130   9.221   8.021  1.0050  2.3946 -0.8640
  177MOL0     H23878   1.235   8.994   7.979 -3.1010 -3.0080  0.2571
  177MOL0     H23879   2.025   7.874   6.304  0.3639 -0.3673 -1.0885
  177MOL0     H23880   2.060   7.654   6.205  0.0193 -0.1128 -0.0645
  177MOL0     H23881   2.028   7.190   6.248  0.8009 -1.1086  1.1861
  177MOL0     H23882   2.092   6.983   6.128  0.0213  0.2688  0.0670
  177MOL0     H23883   2.533   6.903   6.071 -0.0233  1.0251 -0.5461
  177MOL0     H23884   2.463   6.800   5.952  0.6249 -0.0204  0.5993
  177MOL0     H23885   2.541   6.651   6.116  1.2339  1.0198  0.0190
  177MOL0     H23886   2.360   6.655   6.112 -1.1655  1.4932  3.6682
  177MOL0     H23887   2.466   6.832   6.318  0.0805 -1.0602  3.0160
  177MOL0     H23888   2.526   6.685   6.340  0.4694 -0.5392  0.9658
  177MOL0     H23889   2.235   6.798   6.336  2.1949  1.4914 -1.3514
  177MOL0     H23890   2.242   6.640   6.277 -1.8572  1.0473 -0.2550
  177MOL0     H23891   2.300   6.573   6.694 -0.4637 -0.2875  0.1419
  177MOL0     H23892   2.498   7.084   6.150 -0.0022  0.1439  0.3739
  177MOL0     H23893   2.571   7.272   6.253  0.8875  3.7985  2.3655
  177MOL0     H23894   2.501   7.388   6.140  2.7562 -1.6880  0.4249
  177MOL0     H23895   2.453   7.394   6.310 -2.2180  1.4365 -1.2082
  178MOL0     O23896   0.145   1.730   0.968 -0.2231 -0.1209  0.1736
  178MOL0     C23897   0.197   1.622   0.952 -0.3620 -0.5987  1.0812
  178MOL0     O23898   0.133   1.512   0.922 -0.3135 -0.1820 -0.4879
  178MOL0     C23899  -0.003   1.519   0.949 -0.1562 -0.3972  0.3528
  178MOL0     C23900  -0.074   1.529   1.066  0.4424  0.0379 -0.7542
  178MOL0     C23901  -0.217   1.506   1.066  0.2077  0.0103 -0.1416
  178MOL0     C23902  -0.292   1.511   0.946  0.2283  0.3633 -0.5015
  178MOL0     O23903  -0.433   1.505   0.930  0.2682  0.0619  0.5167
  178MOL0     C23904  -0.505   1.535   1.052 -0.3851 -0.4947 -0.4352
  178MOL0     C23905  -0.657   1.532   1.016 -0.4521  0.6867 -0.3778
  178MOL0     C23906  -0.713   1.393   1.000 -0.4877 -0.1440  0.2965
  178MOL0     C23907  -0.757   1.304   1.117 -0.5248 -0.1640 -0.0095
  178MOL0     C23908  -0.820   1.180   1.051  0.4742 -0.3802  0.1458
  178MOL0     C23909  -0.933   1.124   1.130 -0.8502  0.0806 -0.0828
  178MOL0     C23910  -0.885   1.096   1.274  1.0905  0.1906 -0.5131
  178MOL0     C23911  -0.981   1.005   1.351  0.6698 -0.4984  0.4310
  178MOL0     N23912  -1.101   1.094   1.390  0.2704  0.4701 -0.1730
  178MOL0     C23913  -1.224   1.089   1.326  0.0892  0.7639 -0.0173
  178MOL0     C23914  -1.310   1.171   1.400 -0.3742  0.2956 -0.5007
  178MOL0     C23915  -1.456   1.199   1.390 -1.0397 -0.6662  0.0334
  178MOL0     C23916  -1.491   1.195   1.239 -0.8570 -0.1873  0.3529
  178MOL0     C23917  -1.650   1.209   1.234 -0.2037 -1.1302 -0.7189
  178MOL0     C23918  -1.728   1.092   1.287 -0.1773  0.3048  0.3302
  178MOL0     O23919  -1.859   1.149   1.290  0.8638  1.1378 -0.1587
  178MOL0     C23920  -1.964   1.085   1.360  0.3800 -0.1145 -0.2589
  178MOL0     C23921  -1.947   0.991   1.466 -0.2354  0.6542  0.6234
  178MOL0     C23922  -2.061   0.928   1.529  0.4404 -0.3918  0.6388
  178MOL0     C23923  -2.196   0.965   1.488 -1.0263  0.3092 -0.3378
  178MOL0     C23924  -2.316   0.911   1.556  0.9105 -0.3549 -0.0426
  178MOL0     O23925  -2.447   0.940   1.508 -0.5180 -0.4987  0.2656
  178MOL0     C23926  -2.558   0.885   1.564  1.1868 -0.1101  0.3721
  178MOL0     C23927  -2.670   0.850   1.482 -0.8159 -0.0720 -0.2043
  178MOL0     C23928  -2.803   0.828   1.541  0.2490  0.1018  0.2573
  178MOL0     C23929  -2.814   0.840   1.681  0.5055 -0.5415  0.7985
  178MOL0     O23930  -2.936   0.835   1.747  0.1124 -0.7551  0.9322
  178MOL0     C23931  -3.058   0.809   1.682  0.5459  0.2318 -0.0140
  178MOL0     C23932  -3.164   0.825   1.790  0.3765  0.0482 -0.8779
  178MOL0     C23933  -3.308   0.790   1.745 -0.0478  0.0858  0.1168
  178MOL0     C23934  -3.401   0.763   1.865  1.2375  0.3314  0.3162
  178MOL0     C23935  -3.542   0.730   1.812  0.0861  0.3724  0.8642
  178MOL0     C23936  -3.553   0.579   1.807  0.4869 -0.5449 -0.0645
  178MOL0     C23937  -3.594   0.534   1.945 -0.1430  0.3751 -0.3486
  178MOL0     C23938  -3.616   0.388   1.926  0.0048  0.4401 -0.0896
  178MOL0    Cl23939  -3.631   0.302   2.086  0.3363 -0.0889 -0.0119
  178MOL0     C23940  -2.703   0.869   1.763  0.5849  0.4470 -0.3024
  178MOL0     C23941  -2.579   0.893   1.708 -0.1454  0.0029  0.4497
  178MOL0     O23942  -2.295   0.829   1.647 -0.0010 -0.3610 -0.3178
  178MOL0     C23943  -2.205   1.053   1.382 -0.1698 -0.1421  0.3060
  178MOL0     C23944  -2.097   1.122   1.322  0.8822 -0.4435 -1.3642
  178MOL0     N23945  -1.230   1.222   1.505 -0.2023  0.3628  1.0725
  178MOL0     N23946  -1.109   1.185   1.487  0.6638  0.0032 -0.7158
  178MOL0     C23947  -0.215   1.506   0.828  0.8014  0.1203 -0.0954
  178MOL0     C23948  -0.074   1.503   0.832  0.5527 -0.8910  0.3179
  178MOL0     C23949   0.341   1.625   0.953 -0.0662 -0.3288  0.3319
  178MOL0     C23950   0.415   1.529   0.871 -0.3505  0.1346 -1.1088
  178MOL0     C23951   0.552   1.523   0.890  0.7923 -0.1701  0.9829
  178MOL0     C23952   0.632   1.599   0.968 -0.5204 -0.4788 -0.4002
  178MOL0     O23953   0.769   1.584   0.944 -0.3043 -0.1940  1.3005
  178MOL0     C23954   0.859   1.691   0.980  0.8711  0.7842 -0.4513
  178MOL0     C23955   1.006   1.669   0.932  0.3783  1.0311  0.1348
  178MOL0     C23956   1.074   1.542   0.971 -1.1139 -0.2170  0.2104
  178MOL0     C23957   1.170   1.560   1.095  0.1894 -0.1844  0.4845
  178MOL0     C23958   1.265   1.455   1.114  0.0006  0.3086 -0.1015
  178MOL0     C23959   1.350   1.367   1.121  0.0645  0.1627  0.5000
  178MOL0     C23960   0.562   1.690   1.051  0.7177  0.1341 -0.3674
  178MOL0     C23961   0.422   1.704   1.048 -0.2149  0.7248  0.5567
  178MOL0     C23962   0.361   1.777   1.161 -1.0469  0.0657  0.1575
  178MOL0     H23963  -0.012   1.519   1.154 -0.4786 -0.6917 -0.1574
  178MOL0     H23964  -0.266   1.485   1.160 -1.2611  1.2885 -0.5759
  178MOL0     H23965  -0.473   1.469   1.133 -1.4890 -0.2377  0.2308
  178MOL0     H23966  -0.485   1.642   1.070 -1.2372 -0.5284  0.8208
  178MOL0     H23967  -0.669   1.596   0.928 -0.3815 -0.7541 -1.4854
  178MOL0     H23968  -0.717   1.577   1.095  1.3757 -0.6760  1.9109
  178MOL0     H23969  -0.639   1.333   0.947 -0.5924 -1.1408  1.2462
  178MOL0     H23970  -0.799   1.400   0.933  0.1601 -2.0784 -0.7875
  178MOL0     H23971  -0.671   1.281   1.180  1.1450 -0.5376 -2.2780
  178MOL0     H23972  -0.833   1.365   1.167  0.9392  1.0732  0.7711
  178MOL0     H23973  -0.862   1.200   0.952 -3.8424 -0.3028  1.7968
  178MOL0     H23974  -0.743   1.103   1.033  1.0130  0.2195 -0.1609
  178MOL0     H23975  -1.018   1.192   1.139  0.7142  1.8868  2.1436
  178MOL0     H23976  -0.968   1.035   1.076  2.6653 -0.0992 -2.4003
  178MOL0     H23977  -0.858   1.188   1.326  0.1968  0.9526 -1.3859
  178MOL0     H23978  -0.786   1.049   1.281 -0.2155 -2.5779  1.2279
  178MOL0     H23979  -1.016   0.928   1.282 -3.2962  1.6112 -0.2157
  178MOL0     H23980  -0.945   0.963   1.445  1.5843 -1.7414 -0.4573
  178MOL0     H23981  -1.253   1.034   1.238 -1.2480  0.0822  0.8158
  178MOL0     H23982  -1.516   1.130   1.450 -1.0047 -2.9204 -2.3455
  178MOL0     H23983  -1.479   1.302   1.421  3.1011  1.2135 -2.2641
  178MOL0     H23984  -1.443   1.272   1.178  0.9805 -0.1807  1.7073
  178MOL0     H23985  -1.464   1.098   1.196 -0.9470 -0.3715  0.7006
  178MOL0     H23986  -1.683   1.234   1.132  0.5687  1.1063 -0.4741
  178MOL0     H23987  -1.667   1.296   1.297  1.7631 -1.2041 -0.0318
  178MOL0     H23988  -1.684   1.061   1.382  0.7349 -1.3062 -0.5854
  178MOL0     H23989  -1.724   1.003   1.223  0.8400 -2.1991  3.6349
  178MOL0     H23990  -1.848   0.961   1.496 -1.1251 -3.6660 -0.1624
  178MOL0     H23991  -2.050   0.861   1.614 -0.8624 -0.7821  0.5205
  178MOL0     H23992  -2.651   0.852   1.375 -0.6376  2.1048 -0.1836
  178MOL0     H23993  -2.885   0.797   1.478 -0.2545  1.6703  0.0904
  178MOL0     H23994  -3.084   0.893   1.618 -2.9580  1.7868  3.0488
  178MOL0     H23995  -3.063   0.720   1.619  3.0463  0.7405 -1.0593
  178MOL0     H23996  -3.142   0.768   1.881 -3.5670  2.1282  1.6569
  178MOL0     H23997  -3.149   0.927   1.827  1.1757  0.0385 -1.1493
  178MOL0     H23998  -3.350   0.875   1.691  1.0709  0.9545  0.5747
  178MOL0     H23999  -3.314   0.697   1.688 -3.9455 -1.2486  2.3302
  178MOL0     H24000  -3.413   0.852   1.928 -0.8393  0.2571  0.1155
  178MOL0     H24001  -3.363   0.682   1.928  1.0751  0.0593  0.0709
  178MOL0     H24002  -3.555   0.775   1.713 -0.7199  2.5171  1.8919
  178MOL0     H24003  -3.626   0.771   1.868  0.1885  1.1314  0.4775
  178MOL0     H24004  -3.623   0.550   1.729 -1.1556 -2.5436  1.9968
  178MOL0     H24005  -3.461   0.537   1.766 -0.2223 -0.3522 -1.9182
  178MOL0     H24006  -3.689   0.582   1.971 -0.9953  1.2765 -4.3030
  178MOL0     H24007  -3.522   0.563   2.021 -1.8984  1.6873  0.9085
  178MOL0     H24008  -3.719   0.386   1.888  0.7785  1.9731 -2.4253
  178MOL0     H24009  -3.549   0.332   1.861 -2.2517 -1.5519 -0.8738
  178MOL0     H24010  -2.720   0.863   1.871  2.3325 -1.7766 -0.0738
  178MOL0     H24011  -2.497   0.924   1.772 -1.7596  0.8522  2.2108
  178MOL0     H24012  -2.309   1.067   1.357 -0.2274 -2.2087 -0.8244
  178MOL0     H24013  -2.103   1.201   1.247 -0.1512  1.3516  0.5279
  178MOL0     H24014  -0.262   1.502   0.731 -0.1698 -0.2002  0.3747
  178MOL0     H24015  -0.027   1.497   0.734  0.0312 -0.8637  0.0579
  178MOL0     H24016   0.367   1.450   0.814 -2.4428  0.8006 -0.3382
  178MOL0     H24017   0.602   1.452   0.824 -1.3755  0.4165 -1.4412
  178MOL0     H24018   0.858   1.697   1.090 -0.6030 -0.8360 -0.3327
  178MOL0     H24019   0.803   1.778   0.946 -0.2281  0.2045 -0.1611
  178MOL0     H24020   1.073   1.751   0.962  0.6090  0.1985  2.0061
  178MOL0     H24021   0.986   1.655   0.826 -0.6878 -2.3176  0.6798
  178MOL0     H24022   1.133   1.501   0.888 -1.6458  0.1141 -0.3370
  178MOL0     H24023   1.005   1.460   0.993 -0.2835 -0.9701  0.0743
  178MOL0     H24024   1.230   1.651   1.096 -0.2422  0.1051  1.8991
  178MOL0     H24025   1.104   1.559   1.183 -2.1156 -0.7513 -1.1550
  178MOL0     H24026   1.433   1.300   1.130  2.3831  2.6144 -1.4715
  178MOL0     H24027   0.618   1.753   1.120  0.8067  1.6580 -1.7780
  178MOL0     H24028   0.270   1.730   1.200 -2.1894  1.0155 -1.2339
  178MOL0     H24029   0.435   1.777   1.241  2.4719 -3.6760 -2.6372
  178MOL0     H24030   0.334   1.881   1.145  2.4486  1.1767  0.6936
  179MOL0     O24031   2.181  10.553   4.164 -0.1557  0.4738 -0.1171
  179MOL0     C24032   2.237  10.465   4.096  0.2272 -0.2779 -0.1056
  179MOL0     O24033   2.327  10.489   3.994  0.0820 -0.3268  0.6128
  179MOL0     C24034   2.316  10.599   3.915 -0.8841 -0.2001  0.0434
  179MOL0     C24035   2.199  10.642   3.848  0.8828 -0.8480 -0.3614
  179MOL0     C24036   2.197  10.756   3.769 -0.4455  0.1322  0.7833
  179MOL0     C24037   2.311  10.832   3.743  0.5277 -0.1989  0.5702
  179MOL0     O24038   2.315  10.951   3.667 -0.0332 -0.5997 -0.8440
  179MOL0     C24039   2.193  10.985   3.594  0.0897  0.7549 -0.5567
  179MOL0     C24040   2.195  11.106   3.500  0.8157  0.1796 -0.5004
  179MOL0     C24041   2.276  11.219   3.565 -0.3741 -0.2281 -0.0933
  179MOL0     C24042   2.280  11.340   3.467 -0.1043 -0.5355  0.3980
  179MOL0     C24043   2.368  11.443   3.522 -0.4452 -0.2411 -0.1987
  179MOL0     C24044   2.361  11.571   3.430  0.8251  0.1771  0.6784
  179MOL0     C24045   2.459  11.680   3.488  0.5292 -0.9104  0.9804
  179MOL0     C24046   2.388  11.782   3.577 -0.1505 -0.9201  0.0462
  179MOL0     N24047   2.428  11.926   3.575  0.4169  1.1229 -0.0155
  179MOL0     C24048   2.417  12.016   3.468 -0.7557  0.1855  0.3427
  179MOL0     C24049   2.449  12.138   3.518 -0.1594 -0.4959 -1.5814
  179MOL0     C24050   2.455  12.262   3.446 -0.1014 -0.2299  0.4972
  179MOL0     C24051   2.597  12.273   3.387 -1.0792  0.6468 -0.5060
  179MOL0     C24052   2.610  12.390   3.295 -0.2554 -0.1967 -0.7370
  179MOL0     C24053   2.743  12.395   3.199 -0.1087  0.2376 -0.1160
  179MOL0     O24054   2.729  12.512   3.112  0.8078  0.6360  1.0015
  179MOL0     C24055   2.777  12.482   2.982  0.6815  0.1224  0.2658
  179MOL0     C24056   2.884  12.548   2.924 -0.3080 -0.2832 -0.1810
  179MOL0     C24057   2.919  12.534   2.794 -0.4469 -0.7917 -0.7383
  179MOL0     C24058   2.845  12.455   2.708  0.3681  1.7522 -0.4160
  179MOL0     C24059   2.863  12.461   2.565  0.6595 -0.0376  0.8298
  179MOL0     O24060   2.774  12.388   2.486 -0.3833 -0.0400 -0.6334
  179MOL0     C24061   2.751  12.431   2.356  0.2407 -0.2741  0.0840
  179MOL0     C24062   2.652  12.524   2.337  0.9235 -0.2888 -0.0752
  179MOL0     C24063   2.621  12.563   2.206 -1.3122  0.6492 -0.1563
  179MOL0     C24064   2.683  12.509   2.093 -0.1100 -0.4274  0.4325
  179MOL0     O24065   2.653  12.563   1.968  0.1713  0.1636  0.2970
  179MOL0     C24066   2.628  12.704   1.950  0.2435  0.2579 -1.3630
  179MOL0     C24067   2.695  12.750   1.821  0.5326 -1.0073  0.5998
  179MOL0     C24068   2.847  12.733   1.845  0.8305 -0.2507  0.1674
  179MOL0     C24069   2.920  12.742   1.704 -0.5204  0.3185  0.1543
  179MOL0     C24070   3.059  12.673   1.707  0.9566  0.5643 -1.3208
  179MOL0     C24071   3.134  12.685   1.573 -0.6128 -0.1946  0.8365
  179MOL0     C24072   3.086  12.575   1.478 -0.8394  0.2261  0.7450
  179MOL0     C24073   3.167  12.572   1.355 -0.4129 -0.2750  0.4581
  179MOL0    Cl24074   3.334  12.518   1.401  0.0551  0.0451 -0.2714
  179MOL0     C24075   2.782  12.411   2.119  0.0505  0.0151 -0.6714
  179MOL0     C24076   2.815  12.374   2.248 -0.2083  0.2508 -0.7199
  179MOL0     O24077   2.947  12.540   2.525 -0.5747  0.0636  0.1327
  179MOL0     C24078   2.743  12.370   2.760 -0.4043 -0.4799  0.3206
  179MOL0     C24079   2.714  12.392   2.897 -0.1476  0.0528  0.8187
  179MOL0     N24080   2.492  12.120   3.646  0.5900 -0.1036  0.3514
  179MOL0     N24081   2.463  12.001   3.684  0.2347 -0.3305 -0.3686
  179MOL0     C24082   2.428  10.790   3.798 -0.0710  0.2534 -0.0353
  179MOL0     C24083   2.434  10.671   3.875 -0.6995 -0.4067  0.2031
  179MOL0     C24084   2.196  10.315   4.125 -0.1097 -0.1897  0.0796
  179MOL0     C24085   2.238  10.223   4.023  0.8379 -0.4296  0.1952
  179MOL0     C24086   2.203  10.092   4.007  0.3692 -0.4050 -0.1361
  179MOL0     C24087   2.125  10.033   4.109  0.5680  0.2346  0.2377
  179MOL0     O24088   2.072   9.905   4.103  0.2199 -0.0841  0.2546
  179MOL0     C24089   2.152   9.802   4.041  0.6211  0.1464 -0.0711
  179MOL0     C24090   2.295   9.774   4.099  0.8948 -0.3215 -0.6907
  179MOL0     C24091   2.299   9.738   4.252  0.3773  0.1052 -0.1411
  179MOL0     C24092   2.430   9.781   4.320  0.7331  0.9333 -0.0793
  179MOL0     C24093   2.454   9.922   4.349 -0.2197 -0.9139 -0.9968
  179MOL0     C24094   2.465  10.052   4.368  0.5092  1.5424  0.5913
  179MOL0     C24095   2.088  10.118   4.217 -1.1378 -0.0860 -0.4044
  179MOL0     C24096   2.113  10.257   4.226  0.6562  0.4692  0.3172
  179MOL0     C24097   2.043  10.332   4.333 -0.1505  1.6220  0.8164
  179MOL0     H24098   2.109  10.591   3.882  2.5207 -1.5187  3.4165
  179MOL0     H24099   2.101  10.784   3.727 -1.0470 -1.2463  1.1743
  179MOL0     H24100   2.161  10.895   3.540 -2.3879  0.4940  1.1884
  179MOL0     H24101   2.118  11.009   3.669  1.8276 -0.2708  1.6145
  179MOL0     H24102   2.102  11.160   3.481 -0.2881 -0.9859  1.3929
  179MOL0     H24103   2.237  11.078   3.402 -2.2413 -2.5268 -1.1911
  179MOL0     H24104   2.377  11.190   3.594  1.5820  2.0978 -3.7945
  179MOL0     H24105   2.235  11.247   3.663  0.9250 -1.6420  0.9055
  179MOL0     H24106   2.313  11.314   3.366  3.2500 -2.5635  1.8163
  179MOL0     H24107   2.181  11.385   3.459  0.5390  0.7347 -0.8636
  179MOL0     H24108   2.324  11.472   3.618 -1.1070 -1.5817 -0.0680
  179MOL0     H24109   2.465  11.397   3.541 -1.0623 -1.9205 -0.9165
  179MOL0     H24110   2.391  11.527   3.335 -1.6794 -0.9342  0.3320
  179MOL0     H24111   2.255  11.598   3.424 -0.2746 -3.3164  1.8260
  179MOL0     H24112   2.500  11.725   3.397 -2.8528 -2.2958 -1.4410
  179MOL0     H24113   2.544  11.638   3.543  2.4396  1.5455  0.0924
  179MOL0     H24114   2.280  11.774   3.563 -0.5366 -5.2755  3.4417
  179MOL0     H24115   2.405  11.749   3.680  0.1355  2.7135  1.2770
  179MOL0     H24116   2.389  12.000   3.364 -3.5585 -0.8890  1.1820
  179MOL0     H24117   2.394  12.253   3.356  1.7042  3.0573 -1.2258
  179MOL0     H24118   2.408  12.340   3.507 -1.3025  0.1943 -0.9052
  179MOL0     H24119   2.672  12.278   3.466 -1.8456 -2.0661  0.5269
  179MOL0     H24120   2.629  12.186   3.329  2.4469  2.7143 -1.9284
  179MOL0     H24121   2.596  12.485   3.346 -2.4799 -1.5213  1.3016
  179MOL0     H24122   2.532  12.372   3.221 -0.4438  1.5095 -0.9904
  179MOL0     H24123   2.743  12.298   3.149  0.4224  0.9392 -1.5162
  179MOL0     H24124   2.832  12.389   3.263  1.1069 -0.9832 -1.8307
  179MOL0     H24125   2.944  12.611   2.989 -2.0523 -1.3974  2.6890
  179MOL0     H24126   3.015  12.579   2.769 -1.4326  2.2930  0.5071
  179MOL0     H24127   2.587  12.557   2.417  1.4925 -1.6750  0.9923
  179MOL0     H24128   2.549  12.644   2.200 -0.1900  1.6317 -0.9253
  179MOL0     H24129   2.519  12.719   1.946  0.1574  1.1076  1.7856
  179MOL0     H24130   2.662  12.769   2.031 -1.6486  0.8222 -0.9660
  179MOL0     H24131   2.661  12.678   1.745 -0.1110  1.2079 -1.3123
  179MOL0     H24132   2.667  12.849   1.784  0.7467 -0.9677  0.5452
  179MOL0     H24133   2.898  12.814   1.898  1.6928  0.2698 -1.3789
  179MOL0     H24134   2.862  12.635   1.890 -0.8115 -0.1928  0.9219
  179MOL0     H24135   2.920  12.845   1.668 -3.2062  0.5102  0.4902
  179MOL0     H24136   2.852  12.685   1.640 -1.2718 -0.1452  1.3235
  179MOL0     H24137   3.042  12.567   1.728 -0.0449  1.0147  0.2590
  179MOL0     H24138   3.105  12.724   1.791 -2.2832  1.0256  0.3365
  179MOL0     H24139   3.122  12.782   1.524 -4.0120 -1.7373 -1.7284
  179MOL0     H24140   3.241  12.674   1.596 -0.6878 -0.0459  1.2711
  179MOL0     H24141   2.984  12.597   1.445 -0.7584 -4.0863 -3.3588
  179MOL0     H24142   3.097  12.475   1.520  2.7170  1.1430  2.3499
  179MOL0     H24143   3.129  12.503   1.279  2.1839 -0.7766 -0.4506
  179MOL0     H24144   3.178  12.668   1.304  0.3377 -1.5556 -1.8810
  179MOL0     H24145   2.832  12.373   2.030  3.1336  1.8693  0.0951
  179MOL0     H24146   2.882  12.289   2.255 -2.6123 -1.6546  1.2077
  179MOL0     H24147   2.696  12.294   2.698 -0.4929  0.9828 -1.5041
  179MOL0     H24148   2.632  12.328   2.928 -0.0522  0.1052  1.1842
  179MOL0     H24149   2.522  10.842   3.783  0.3815  0.0792  1.9228
  179MOL0     H24150   2.530  10.634   3.911  1.5313  2.2125 -2.5981
  179MOL0     H24151   2.302  10.267   3.947  0.2492  2.9357  1.4609
  179MOL0     H24152   2.238  10.035   3.921 -0.6185 -3.6606  1.4327
  179MOL0     H24153   2.167   9.831   3.937 -1.8317 -2.8814 -1.4449
  179MOL0     H24154   2.104   9.704   4.049  0.1282  0.2900 -1.1843
  179MOL0     H24155   2.361   9.860   4.082  0.8981 -0.4819 -1.5611
  179MOL0     H24156   2.334   9.691   4.041 -1.1478 -0.5025 -1.9189
  179MOL0     H24157   2.270   9.633   4.268  1.6720 -0.8322 -3.2496
  179MOL0     H24158   2.224   9.795   4.308  1.1359  0.5886  0.3987
  179MOL0     H24159   2.422   9.721   4.412 -3.9036 -2.0454 -2.0180
  179MOL0     H24160   2.514   9.741   4.263 -0.0214  0.6154 -0.9998
  179MOL0     H24161   2.485  10.156   4.380  3.2359  1.1325  0.2345
  179MOL0     H24162   2.028  10.070   4.294 -2.3807  2.1961  0.1154
  179MOL0     H24163   2.016  10.256   4.407 -1.2172  3.5302  2.4601
  179MOL0     H24164   2.100  10.416   4.373  0.4997  1.9418 -0.7038
  179MOL0     H24165   1.953  10.372   4.287 -0.9171 -1.0139 -0.1438
  180MOL0     O24166  11.353  10.495   0.633  0.0951  0.2732  0.0703
  180MOL0     C24167  11.344  10.601   0.693 -0.0156 -0.3091 -0.2096
  180MOL0     O24168  11.351  10.719   0.643  0.2303  0.7076  0.1907
  180MOL0     C24169  11.367  10.721   0.509 -0.3013  0.6716  0.0160
  180MOL0     C24170  11.276  10.665   0.406  0.1327  0.0540  0.2932
  180MOL0     C24171  11.309  10.688   0.276  0.0079 -0.0098  0.2732
  180MOL0     C24172  11.419  10.767   0.232 -0.0209 -0.4830  0.0297
  180MOL0     O24173  11.445  10.784   0.098 -0.0370 -0.3355  0.1010
  180MOL0     C24174  11.556  10.871   0.050  0.1538 -0.3642 -0.0016
  180MOL0     C24175  11.587  10.849  -0.100 -0.0701 -0.3590 -0.6930
  180MOL0     C24176  11.513  10.946  -0.186  0.2470 -0.1234 -0.0055
  180MOL0     C24177  11.522  10.926  -0.328 -0.1799  0.2132  0.3502
  180MOL0     C24178  11.404  11.008  -0.394  0.8712 -0.3082 -0.2064
  180MOL0     C24179  11.406  11.002  -0.545  0.4857  0.1236 -0.6893
  180MOL0     C24180  11.344  10.879  -0.579  0.0825 -0.3064  0.4027
  180MOL0     C24181  11.338  10.884  -0.730 -0.1421  0.5663  0.2471
  180MOL0     N24182  11.462  10.879  -0.811 -0.0354  0.3712  0.2859
  180MOL0     C24183  11.569  10.796  -0.793  0.2019 -0.0212 -0.1317
  180MOL0     C24184  11.668  10.848  -0.864  0.1919 -0.3556 -0.3170
  180MOL0     C24185  11.803  10.791  -0.906  0.2367 -0.3764 -0.5974
  180MOL0     C24186  11.798  10.732  -1.047  0.1633  0.4476  0.9698
  180MOL0     C24187  11.701  10.612  -1.073  0.8431  0.3027  0.2192
  180MOL0     C24188  11.731  10.487  -0.988  0.7094 -0.3353  0.6727
  180MOL0     O24189  11.685  10.502  -0.852  0.7101  0.3929 -0.0274
  180MOL0     C24190  11.646  10.393  -0.783  0.4694  0.3107 -0.4568
  180MOL0     C24191  11.511  10.359  -0.782  0.0280 -1.0483 -0.3165
  180MOL0     C24192  11.468  10.228  -0.752 -0.4334 -0.3266 -0.4866
  180MOL0     C24193  11.558  10.133  -0.698  0.3902 -0.0021  0.1572
  180MOL0     C24194  11.507  10.003  -0.652  0.1393 -0.3338  0.0262
  180MOL0     O24195  11.601   9.903  -0.657 -0.3352 -0.5064 -0.1811
  180MOL0     C24196  11.585   9.784  -0.599  0.3040  0.1317 -0.5807
  180MOL0     C24197  11.519   9.764  -0.473  0.7555 -0.6133  0.5096
  180MOL0     C24198  11.521   9.637  -0.415  0.1527  0.9777  0.5772
  180MOL0     C24199  11.598   9.538  -0.467  0.1419  0.2655  0.4146
  180MOL0     O24200  11.618   9.421  -0.398 -0.2295 -0.8778 -0.5955
  180MOL0     C24201  11.509   9.376  -0.316 -0.3169 -0.1683  0.1251
  180MOL0     C24202  11.523   9.227  -0.276  0.6058 -0.7564  0.1880
  180MOL0     C24203  11.663   9.170  -0.255  0.4012 -0.6616 -0.2860
  180MOL0     C24204  11.743   9.237  -0.142  0.0152  0.5179 -1.0022
  180MOL0     C24205  11.890   9.178  -0.116  0.3119 -0.2381 -0.4137
  180MOL0     C24206  11.994   9.163  -0.231  0.1832 -0.6283  0.6011
  180MOL0     C24207  12.120   9.109  -0.181 -0.2973  0.9580 -0.7801
  180MOL0     C24208  12.227   9.094  -0.289  0.2282  0.8912 -0.2041
  180MOL0    Cl24209  12.322   9.237  -0.317 -0.2065  0.0558  0.1240
  180MOL0     C24210  11.663   9.549  -0.587 -0.1933 -0.1055  0.7120
  180MOL0     C24211  11.653   9.675  -0.650  0.6719 -0.5139  0.4566
  180MOL0     O24212  11.388   9.991  -0.629 -0.1507  0.4699  0.6119
  180MOL0     C24213  11.695  10.168  -0.696  0.0049 -0.5447 -0.4120
  180MOL0     C24214  11.737  10.292  -0.740 -0.6208 -0.4143  0.5893
  180MOL0     N24215  11.617  10.968  -0.919 -0.1496 -0.6870  0.3194
  180MOL0     N24216  11.502  10.990  -0.881  0.5085  0.2568 -0.2157
  180MOL0     C24217  11.506  10.828   0.335  1.4308  0.0992  0.5622
  180MOL0     C24218  11.475  10.799   0.470 -0.9353 -0.9478  0.0289
  180MOL0     C24219  11.334  10.607   0.840 -1.2826 -0.3919 -0.8979
  180MOL0     C24220  11.410  10.697   0.910  0.2878  0.9483  0.6247
  180MOL0     C24221  11.411  10.696   1.042  0.7360 -0.1654 -0.5850
  180MOL0     C24222  11.328  10.612   1.122 -0.0026 -0.1683 -0.3585
  180MOL0     O24223  11.318  10.614   1.262  0.8372  0.1342 -0.8807
  180MOL0     C24224  11.375  10.729   1.329 -0.0886  0.1717  0.0997
  180MOL0     C24225  11.283  10.855   1.312  0.2225  1.2869 -0.2737
  180MOL0     C24226  11.200  10.892   1.444 -1.4847 -0.0331  0.4164
  180MOL0     C24227  11.105  10.780   1.475  0.2777  1.1727  0.1486
  180MOL0     C24228  11.038  10.821   1.597  0.1327 -0.1890  0.9338
  180MOL0     C24229  10.979  10.874   1.693 -0.0044 -0.3111  0.3714
  180MOL0     C24230  11.256  10.518   1.050  0.3460 -0.2007 -0.4529
  180MOL0     C24231  11.254  10.521   0.910 -1.0480  0.2128  0.1281
  180MOL0     C24232  11.165  10.417   0.841  0.3628 -0.2009 -0.4883
  180MOL0     H24233  11.191  10.607   0.440 -0.1265  0.7409  0.8530
  180MOL0     H24234  11.262  10.637   0.193  2.6550 -3.2258  0.5526
  180MOL0     H24235  11.547  10.978   0.073 -4.5656 -0.3086 -0.9594
  180MOL0     H24236  11.644  10.833   0.103 -0.2425 -0.4759  0.5904
  180MOL0     H24237  11.552  10.748  -0.120 -0.4904 -0.3346 -0.0994
  180MOL0     H24238  11.696  10.857  -0.111 -0.4698  4.0948 -4.2547
  180MOL0     H24239  11.535  11.053  -0.180  2.1985 -0.3447 -1.7844
  180MOL0     H24240  11.415  10.949  -0.139 -1.3077 -3.8890 -2.5287
  180MOL0     H24241  11.623  10.958  -0.354  1.4401 -3.6742  1.1634
  180MOL0     H24242  11.520  10.820  -0.354  0.6313  0.4054 -0.5214
  180MOL0     H24243  11.310  10.969  -0.355  1.0781  2.5798  3.8111
  180MOL0     H24244  11.416  11.115  -0.374  4.1174 -0.4269 -0.9646
  180MOL0     H24245  11.342  11.081  -0.584  2.0957  1.8719  0.0609
  180MOL0     H24246  11.508  11.031  -0.573 -0.1742  6.1432  1.6121
  180MOL0     H24247  11.250  10.856  -0.529  1.6090 -5.2842  1.5914
  180MOL0     H24248  11.413  10.798  -0.551  2.5928  0.2740 -3.3274
  180MOL0     H24249  11.284  10.792  -0.753 -0.1523 -0.3046  3.3702
  180MOL0     H24250  11.275  10.969  -0.760  0.8614  0.8428 -1.1589
  180MOL0     H24251  11.561  10.699  -0.745 -1.2099  0.8125  1.4605
  180MOL0     H24252  11.875  10.873  -0.903 -1.7900  1.5412  3.5341
  180MOL0     H24253  11.848  10.714  -0.842 -2.0924 -0.2463  1.3427
  180MOL0     H24254  11.765  10.810  -1.116  2.0575 -0.1406 -0.6907
  180MOL0     H24255  11.896  10.701  -1.082 -0.3598  0.5783 -0.6830
  180MOL0     H24256  11.706  10.573  -1.175 -0.6751 -1.5514  0.7880
  180MOL0     H24257  11.606  10.661  -1.051  1.7932  0.7490  3.9551
  180MOL0     H24258  11.839  10.479  -0.978  1.1265  2.9245 -0.2099
  180MOL0     H24259  11.684  10.397  -1.027 -0.9874  0.0644  1.6681
  180MOL0     H24260  11.438  10.423  -0.830 -1.1767 -1.2525  1.1591
  180MOL0     H24261  11.363  10.199  -0.749 -0.1112 -1.4533  0.6186
  180MOL0     H24262  11.459   9.837  -0.420  1.5744  1.8290 -1.7164
  180MOL0     H24263  11.479   9.609  -0.319 -1.6082 -1.8474 -0.8768
  180MOL0     H24264  11.530   9.437  -0.228  0.1441 -0.1823  0.0272
  180MOL0     H24265  11.411   9.403  -0.356 -0.7262 -0.5860  0.8200
  180MOL0     H24266  11.460   9.221  -0.187  0.2915 -1.7297 -0.0889
  180MOL0     H24267  11.465   9.168  -0.348  0.0421  2.0044 -1.8113
  180MOL0     H24268  11.661   9.069  -0.214  1.2792 -1.2539 -1.6197
  180MOL0     H24269  11.710   9.155  -0.353  0.4699 -2.6014 -0.0050
  180MOL0     H24270  11.689   9.221  -0.048 -1.9639  1.3727 -1.9529
  180MOL0     H24271  11.754   9.345  -0.154 -0.1035  0.6056 -0.3533
  180MOL0     H24272  11.870   9.080  -0.070  0.1926 -0.2881 -0.5712
  180MOL0     H24273  11.937   9.239  -0.039  0.4894 -0.9085  0.0246
  180MOL0     H24274  11.956   9.104  -0.315 -0.7880 -2.9629  2.5463
  180MOL0     H24275  12.014   9.262  -0.273  1.9663  0.4399  3.6238
  180MOL0     H24276  12.101   9.018  -0.124 -1.3788  1.8569  0.3524
  180MOL0     H24277  12.155   9.181  -0.107  0.3851  1.3018 -1.4193
  180MOL0     H24278  12.296   9.017  -0.253  2.1096  0.9519 -3.3032
  180MOL0     H24279  12.177   9.052  -0.377 -0.3139 -0.8777  0.8995
  180MOL0     H24280  11.731   9.473  -0.624 -0.2537  1.4356 -3.0847
  180MOL0     H24281  11.699   9.688  -0.748  0.2189  1.2558  0.4422
  180MOL0     H24282  11.772  10.099  -0.663  0.4368  0.7889  1.5429
  180MOL0     H24283  11.843  10.314  -0.745 -0.7454  0.5291  1.5743
  180MOL0     H24284  11.586  10.896   0.309 -0.3050  1.2944 -2.1606
  180MOL0     H24285  11.532  10.840   0.552  2.6064 -3.8268 -0.7546
  180MOL0     H24286  11.484  10.767   0.873  4.2106 -1.9906  2.1264
  180MOL0     H24287  11.473  10.772   1.089  0.7471 -0.1971 -0.5483
  180MOL0     H24288  11.475  10.751   1.292  0.2378 -1.0194  0.2210
  180MOL0     H24289  11.387  10.717   1.437 -0.5130 -1.1063  0.0297
  180MOL0     H24290  11.218  10.839   1.226  0.7035  1.5322 -0.6859
  180MOL0     H24291  11.347  10.941   1.294 -0.8317  2.5029  1.4436
  180MOL0     H24292  11.138  10.978   1.416 -4.3487 -2.1707 -0.3336
  180MOL0     H24293  11.272  10.918   1.522 -0.1461  1.1788 -1.1744
  180MOL0     H24294  11.021  10.764   1.407  0.7335  0.3446 -0.2397
  180MOL0     H24295  11.158  10.684   1.479  3.4844  2.5513 -3.4435
  180MOL0     H24296  10.928  10.930   1.768 -0.1508  0.4922 -0.3177
  180MOL0     H24297  11.190  10.450   1.103  1.6804 -1.0047  0.2561
  180MOL0     H24298  11.215  10.325   0.808 -0.4416 -0.2119 -1.7361
  180MOL0     H24299  11.085  10.400   0.913  0.7218  2.2497  0.5878
  180MOL0     H24300  11.098  10.460   0.766 -0.5913 -0.8737 -0.0395
  181MOL0     O24301   2.745   5.809   2.970 -0.1241 -0.9939  0.7404
  181MOL0     C24302   2.791   5.911   3.020  0.2139  0.1825  0.8217
  181MOL0     O24303   2.799   5.944   3.154  0.6168  0.7823 -1.1272
  181MOL0     C24304   2.784   5.837   3.243  0.6314  1.2268  0.7952
  181MOL0     C24305   2.852   5.705   3.237 -0.6739 -0.9633 -2.0737
  181MOL0     C24306   2.809   5.605   3.317  0.8876  0.5459 -1.0278
  181MOL0     C24307   2.703   5.626   3.409 -0.7190  0.5509 -0.2740
  181MOL0     O24308   2.649   5.527   3.490 -0.1795  0.4014  0.5182
  181MOL0     C24309   2.741   5.417   3.531 -0.1159  0.4600 -0.0589
  181MOL0     C24310   2.679   5.351   3.650  0.1448 -0.2074  0.5070
  181MOL0     C24311   2.745   5.215   3.671 -0.5276 -0.1773 -0.5455
  181MOL0     C24312   2.680   5.138   3.786  0.5187  0.1151 -0.2780
  181MOL0     C24313   2.767   5.007   3.792  0.4798  0.4635 -0.7374
  181MOL0     C24314   2.709   4.906   3.890  0.0607 -0.2221 -0.3827
  181MOL0     C24315   2.729   4.957   4.041 -0.2665  0.3463 -0.4188
  181MOL0     C24316   2.756   4.837   4.133  0.0835  0.3737  0.7568
  181MOL0     N24317   2.756   4.879   4.278  0.5505 -0.1006  0.0498
  181MOL0     C24318   2.648   4.950   4.333 -0.5722  0.4851  0.1600
  181MOL0     C24319   2.671   4.948   4.467 -0.2072  0.5842  0.2977
  181MOL0     C24320   2.584   4.998   4.572 -0.8286  0.5377  0.2977
  181MOL0     C24321   2.466   4.904   4.600  0.3186  0.2242  0.2653
  181MOL0     C24322   2.509   4.781   4.681  0.7088 -0.0448  0.8552
  181MOL0     C24323   2.404   4.679   4.685  0.3241  0.8321 -0.0812
  181MOL0     O24324   2.271   4.727   4.718 -0.4564  0.4325 -0.4357
  181MOL0     C24325   2.261   4.752   4.853 -0.1923 -0.6298  0.2467
  181MOL0     C24326   2.251   4.886   4.900 -0.1007  0.6247 -0.1845
  181MOL0     C24327   2.241   4.908   5.035 -0.7528  0.4527  0.0332
  181MOL0     C24328   2.245   4.803   5.130 -0.8069  0.7173  0.0168
  181MOL0     C24329   2.236   4.829   5.275 -0.4457  0.8159 -0.0211
  181MOL0     O24330   2.229   4.958   5.326 -0.0590 -0.6014  0.1680
  181MOL0     C24331   2.194   4.990   5.452 -1.3094 -0.3262  0.1414
  181MOL0     C24332   2.146   4.907   5.557 -0.6124 -0.5192  0.8992
  181MOL0     C24333   2.147   4.958   5.689  0.6016  0.6340  0.7004
  181MOL0     C24334   2.164   5.086   5.726 -0.1062 -0.1313  0.0634
  181MOL0     O24335   2.126   5.132   5.853  0.7092  0.4951 -0.3269
  181MOL0     C24336   2.221   5.227   5.908  0.1317 -0.3210  0.5714
  181MOL0     C24337   2.168   5.247   6.045 -0.1490 -0.0117 -0.2951
  181MOL0     C24338   2.239   5.155   6.145  0.7727 -0.4584  0.4548
  181MOL0     C24339   2.194   5.010   6.141  0.4615 -0.5521 -0.0999
  181MOL0     C24340   2.286   4.927   6.236  0.7682  0.0898  0.0426
  181MOL0     C24341   2.203   4.808   6.293 -1.1539 -0.2196 -0.0155
  181MOL0     C24342   2.283   4.728   6.396  0.2646  0.4982 -0.0212
  181MOL0     C24343   2.433   4.694   6.354 -0.1992 -1.0392 -0.1907
  181MOL0    Cl24344   2.425   4.615   6.196  0.0690 -0.1063  0.4619
  181MOL0     C24345   2.197   5.172   5.618 -1.1819 -0.1132 -0.3318
  181MOL0     C24346   2.219   5.121   5.484  0.0613  0.1610 -0.4250
  181MOL0     O24347   2.246   4.724   5.343 -0.3044 -0.1625 -0.9348
  181MOL0     C24348   2.260   4.669   5.081  0.1370  0.3676  1.0549
  181MOL0     C24349   2.261   4.651   4.939 -0.4929 -0.2413  0.4276
  181MOL0     N24350   2.796   4.889   4.482  0.6556  1.3344  0.2197
  181MOL0     N24351   2.842   4.844   4.368  0.3924 -0.3506  0.0433
  181MOL0     C24352   2.652   5.751   3.429 -0.8659  0.1314 -0.3003
  181MOL0     C24353   2.685   5.854   3.342  0.1267  0.2932  0.0776
  181MOL0     C24354   2.869   6.012   2.937 -0.2345 -0.3500 -0.0858
  181MOL0     C24355   2.954   6.095   3.012  0.2527  0.9103  0.1972
  181MOL0     C24356   3.020   6.199   2.961  0.3621 -0.3706 -0.3581
  181MOL0     C24357   3.009   6.220   2.826 -0.9376 -0.0693 -0.3989
  181MOL0     O24358   3.076   6.332   2.767 -0.1330 -0.5428 -0.3966
  181MOL0     C24359   3.219   6.328   2.765  0.6476  0.4836  0.1036
  181MOL0     C24360   3.293   6.441   2.694  0.3257  0.3810  0.3629
  181MOL0     C24361   3.239   6.472   2.550 -0.3571 -0.2736 -0.6362
  181MOL0     C24362   3.249   6.337   2.462 -0.2461 -0.4224  0.4819
  181MOL0     C24363   3.198   6.362   2.324 -0.2649 -0.8428 -0.0465
  181MOL0     C24364   3.187   6.405   2.211 -0.2532 -0.0869  0.3705
  181MOL0     C24365   2.938   6.131   2.747 -0.5707  0.3842  0.0340
  181MOL0     C24366   2.862   6.026   2.805  0.1815 -0.2703 -0.3799
  181MOL0     C24367   2.774   5.956   2.707  0.2354  0.3690  1.0377
  181MOL0     H24368   2.933   5.684   3.168  0.1276  1.1366 -1.8672
  181MOL0     H24369   2.860   5.510   3.303  2.3826  0.9593  1.0822
  181MOL0     H24370   2.747   5.355   3.441 -1.1709  0.1182  0.0847
  181MOL0     H24371   2.843   5.448   3.554  0.9790 -1.4978 -1.9429
  181MOL0     H24372   2.573   5.330   3.639 -0.3925  3.2863 -4.1759
  181MOL0     H24373   2.683   5.419   3.736 -1.7100 -2.7046  2.7283
  181MOL0     H24374   2.849   5.239   3.692 -0.2004 -2.2676  0.5612
  181MOL0     H24375   2.744   5.165   3.573  1.7714 -1.1010 -0.1513
  181MOL0     H24376   2.689   5.193   3.880  0.3670 -1.1582  0.5191
  181MOL0     H24377   2.574   5.115   3.770  0.6429 -0.7318  0.0179
  181MOL0     H24378   2.773   4.953   3.697  3.6580 -0.4239 -0.1705
  181MOL0     H24379   2.873   5.018   3.816  0.5982 -1.0236 -0.4476
  181MOL0     H24380   2.604   4.886   3.866  1.2342 -2.8833 -4.1603
  181MOL0     H24381   2.773   4.818   3.878  2.6373  1.5416 -0.3313
  181MOL0     H24382   2.638   5.014   4.063 -0.7783 -1.4664  2.7877
  181MOL0     H24383   2.804   5.037   4.044 -1.0367  1.1273 -1.3199
  181MOL0     H24384   2.677   4.763   4.114  0.3966  0.3746 -0.5856
  181MOL0     H24385   2.854   4.807   4.095  0.3678  1.6776  0.4081
  181MOL0     H24386   2.559   4.991   4.286 -0.9289 -4.4508 -4.5622
  181MOL0     H24387   2.636   5.019   4.666  1.8701 -5.2431  0.4763
  181MOL0     H24388   2.542   5.092   4.534  0.4788  0.5224 -1.2723
  181MOL0     H24389   2.396   4.959   4.664 -2.5058  0.5636 -2.8223
  181MOL0     H24390   2.424   4.871   4.504  3.4090 -0.2160 -1.0441
  181MOL0     H24391   2.505   4.799   4.789  2.6393  1.5374  0.7272
  181MOL0     H24392   2.604   4.732   4.658  1.2194 -0.7155  3.9490
  181MOL0     H24393   2.425   4.593   4.749 -0.9894 -1.2458 -2.2804
  181MOL0     H24394   2.403   4.637   4.584  2.9635  0.5462 -0.0504
  181MOL0     H24395   2.247   4.968   4.829  0.2489 -0.6185 -1.6944
  181MOL0     H24396   2.239   5.011   5.069 -2.5682  0.1078  1.1165
  181MOL0     H24397   2.115   4.805   5.539  1.9989 -1.3560  0.7289
  181MOL0     H24398   2.115   4.899   5.774  2.2641  2.0445  2.3904
  181MOL0     H24399   2.322   5.187   5.910  0.6682  0.8881  3.9482
  181MOL0     H24400   2.214   5.323   5.855  0.8710 -1.1220 -1.0367
  181MOL0     H24401   2.179   5.352   6.076 -0.3660  0.5571 -2.0252
  181MOL0     H24402   2.061   5.228   6.060  0.3324 -1.2899  2.0054
  181MOL0     H24403   2.346   5.167   6.126  0.5109  3.3679  0.6128
  181MOL0     H24404   2.224   5.188   6.248 -2.8174  2.8185 -0.8794
  181MOL0     H24405   2.193   4.959   6.044  0.5877  0.4628 -0.6482
  181MOL0     H24406   2.094   5.015   6.185  1.2360 -0.2329  1.7083
  181MOL0     H24407   2.325   4.989   6.317  0.3158  0.1026  0.2532
  181MOL0     H24408   2.376   4.907   6.177  0.8789  1.6590 -0.3556
  181MOL0     H24409   2.110   4.847   6.334 -0.7414  1.4332 -0.5587
  181MOL0     H24410   2.185   4.733   6.216  1.2389 -2.7450  1.6998
  181MOL0     H24411   2.224   4.638   6.418  0.3140  0.2590 -0.8189
  181MOL0     H24412   2.286   4.789   6.487 -2.0695  1.8844 -0.7920
  181MOL0     H24413   2.493   4.786   6.357 -0.9619 -0.4086 -2.1367
  181MOL0     H24414   2.470   4.620   6.425 -2.1473 -1.0770  0.8317
  181MOL0     H24415   2.213   5.279   5.618  0.8972 -0.3815 -0.5174
  181MOL0     H24416   2.263   5.197   5.420  0.8745  2.4867  2.6689
  181MOL0     H24417   2.251   4.579   5.140  1.5549 -0.7395 -0.3095
  181MOL0     H24418   2.258   4.552   4.895 -0.0029 -0.4867  0.9242
  181MOL0     H24419   2.591   5.771   3.517  2.0622  0.9985  1.6872
  181MOL0     H24420   2.632   5.948   3.345 -0.5703 -0.0381 -1.1979
  181MOL0     H24421   2.966   6.077   3.118 -0.1900 -2.3550 -0.1944
  181MOL0     H24422   3.083   6.273   3.010 -0.4569 -0.6516  1.1606
  181MOL0     H24423   3.234   6.233   2.713  1.4510  1.2770 -1.1527
  181MOL0     H24424   3.259   6.323   2.867  1.6264 -2.7939 -0.3153
  181MOL0     H24425   3.390   6.393   2.676  0.0653 -0.3826  0.9694
  181MOL0     H24426   3.315   6.532   2.751  0.3737 -1.0585  2.7571
  181MOL0     H24427   3.306   6.547   2.506 -0.3246  1.0516  1.5522
  181MOL0     H24428   3.137   6.511   2.556 -1.1718 -2.3607 -0.1571
  181MOL0     H24429   3.357   6.319   2.458 -0.1270  0.3791 -0.6866
  181MOL0     H24430   3.190   6.255   2.504  0.4705 -1.1728  0.0590
  181MOL0     H24431   3.181   6.440   2.110 -0.0196  1.0285  0.7306
  181MOL0     H24432   2.945   6.141   2.639  3.2648 -2.2285 -0.1532
  181MOL0     H24433   2.824   5.873   2.656 -0.0133  0.0321  1.3353
  181MOL0     H24434   2.683   5.922   2.758 -1.5236  1.8103 -0.9344
  181MOL0     H24435   2.743   6.029   2.632  0.1522  0.6996  1.3930
  182MOL0     O24436   8.704   1.748   5.704  0.4549 -0.0561 -0.0979
  182MOL0     C24437   8.738   1.627   5.695 -0.3749 -0.6367  0.3344
  182MOL0     O24438   8.665   1.531   5.654 -0.7597 -0.0723  0.3755
  182MOL0     C24439   8.530   1.535   5.615 -0.3695 -0.6486 -0.0318
  182MOL0     C24440   8.469   1.640   5.556 -0.5674  0.0002  0.4075
  182MOL0     C24441   8.341   1.632   5.498  0.1671 -0.3573 -0.5807
  182MOL0     C24442   8.265   1.516   5.510  0.9539  0.0379  0.6612
  182MOL0     O24443   8.134   1.516   5.454  0.3184 -0.1672 -0.5150
  182MOL0     C24444   8.061   1.394   5.462 -0.2197  0.0136 -0.0667
  182MOL0     C24445   7.975   1.384   5.589  0.2669  0.6979  0.2216
  182MOL0     C24446   7.874   1.497   5.596  0.5328 -0.1985  0.0610
  182MOL0     C24447   7.770   1.471   5.703 -0.1886 -0.3990  0.1683
  182MOL0     C24448   7.653   1.565   5.680 -0.0862 -0.8996  0.2349
  182MOL0     C24449   7.528   1.522   5.748 -0.1333 -0.1223 -0.8429
  182MOL0     C24450   7.410   1.614   5.723 -0.5363  0.7092 -0.3879
  182MOL0     C24451   7.285   1.586   5.822 -0.3149 -0.0497  0.4159
  182MOL0     N24452   7.161   1.662   5.784 -0.2505  0.2419 -0.1163
  182MOL0     C24453   7.102   1.680   5.657 -1.2403 -0.5249 -0.4719
  182MOL0     C24454   6.992   1.753   5.677  0.5272 -0.4834 -0.0304
  182MOL0     C24455   6.884   1.796   5.578  0.6881 -0.5747 -0.5952
  182MOL0     C24456   6.840   1.688   5.480 -0.3647  0.1470  0.8387
  182MOL0     C24457   6.725   1.739   5.395  0.1763  0.2447  0.4068
  182MOL0     C24458   6.667   1.620   5.330 -0.3088 -0.1248 -0.6747
  182MOL0     O24459   6.576   1.674   5.234  0.1507  0.2543  0.0135
  182MOL0     C24460   6.515   1.596   5.141 -0.5614  0.1854 -0.2361
  182MOL0     C24461   6.541   1.467   5.120  0.0150  1.1446 -0.0602
  182MOL0     C24462   6.460   1.389   5.033  0.7404  0.4149 -0.4629
  182MOL0     C24463   6.359   1.450   4.960 -0.2722 -0.0369  0.3364
  182MOL0     C24464   6.270   1.369   4.876  0.3699 -0.6543  0.2712
  182MOL0     O24465   6.252   1.239   4.911 -0.7265 -0.0692  0.0004
  182MOL0     C24466   6.169   1.155   4.827 -0.4379  0.2456 -0.3995
  182MOL0     C24467   6.233   1.044   4.782 -0.4578 -0.5809 -0.4342
  182MOL0     C24468   6.180   0.970   4.683  0.0606  0.2357  0.4174
  182MOL0     C24469   6.035   0.980   4.650  0.3693  0.3576 -0.4824
  182MOL0     O24470   5.991   0.894   4.553  0.4998  0.0636 -0.4737
  182MOL0     C24471   5.852   0.907   4.516  0.4050  0.6265  0.1789
  182MOL0     C24472   5.833   0.831   4.387  0.0085  0.2072  0.6188
  182MOL0     C24473   5.866   0.678   4.381  0.1356 -1.1396  0.0680
  182MOL0     C24474   6.002   0.654   4.302 -0.0448 -0.0263  0.2004
  182MOL0     C24475   6.082   0.524   4.327 -0.8145 -0.7948  0.5093
  182MOL0     C24476   6.232   0.525   4.294 -0.1255  0.8600 -0.7019
  182MOL0     C24477   6.249   0.503   4.137  0.1668  0.6232  0.0569
  182MOL0     C24478   6.396   0.501   4.091  0.0526  0.7190 -0.9019
  182MOL0    Cl24479   6.474   0.357   4.142  0.4107 -0.4322 -0.2515
  182MOL0     C24480   5.963   1.079   4.727  0.5286  0.3903  0.6391
  182MOL0     C24481   6.032   1.169   4.807 -0.1577 -0.3619  0.2567
  182MOL0     O24482   6.200   1.427   4.787 -0.5178 -0.9040  0.1378
  182MOL0     C24483   6.341   1.595   4.973  0.3150  0.5115 -1.3047
  182MOL0     C24484   6.417   1.662   5.067  0.7553  0.8693 -0.8135
  182MOL0     N24485   6.978   1.774   5.807  0.1926  0.9823 -0.4825
  182MOL0     N24486   7.073   1.720   5.871  0.1897  0.5925 -0.1015
  182MOL0     C24487   8.320   1.410   5.575 -1.1561  0.4976 -0.4188
  182MOL0     C24488   8.454   1.424   5.631  0.7408  0.1890  0.4552
  182MOL0     C24489   8.876   1.598   5.741 -0.1595  0.0520 -0.2767
  182MOL0     C24490   8.969   1.705   5.726 -0.0367 -0.0029 -0.5239
  182MOL0     C24491   9.097   1.691   5.778 -0.2427 -0.0512  0.2405
  182MOL0     C24492   9.141   1.573   5.833  0.0623 -0.8128 -0.3855
  182MOL0     O24493   9.265   1.562   5.890 -0.7640 -0.2700 -0.0632
  182MOL0     C24494   9.276   1.626   6.017  0.0584 -0.1100  0.0118
  182MOL0     C24495   9.383   1.551   6.095  0.1145 -0.4816 -0.3705
  182MOL0     C24496   9.522   1.573   6.031  0.0977  0.1047 -0.1252
  182MOL0     C24497   9.641   1.521   6.108  0.2073  0.2157  0.3552
  182MOL0     C24498   9.632   1.556   6.249 -0.1075 -0.7430  0.2969
  182MOL0     C24499   9.621   1.584   6.367 -0.2814  0.4066  0.0314
  182MOL0     C24500   9.051   1.467   5.830  0.2358 -0.0304 -0.7871
  182MOL0     C24501   8.914   1.472   5.796 -0.2958  0.3496  0.3539
  182MOL0     C24502   8.827   1.357   5.823 -0.1686  0.1556  0.3865
  182MOL0     H24503   8.515   1.738   5.546 -1.9214  0.6020 -0.0674
  182MOL0     H24504   8.286   1.702   5.436 -1.8619 -0.9519  0.4803
  182MOL0     H24505   8.000   1.399   5.372  1.0057  1.2280 -0.8730
  182MOL0     H24506   8.117   1.299   5.460 -1.2206 -0.6672 -4.0027
  182MOL0     H24507   8.032   1.397   5.682 -0.6578 -2.6868  1.3990
  182MOL0     H24508   7.917   1.292   5.596 -0.1363  0.9088 -0.3056
  182MOL0     H24509   7.818   1.506   5.503 -2.7499 -2.3513  1.6406
  182MOL0     H24510   7.936   1.583   5.623  0.3220 -0.0064 -0.0653
  182MOL0     H24511   7.733   1.368   5.699 -2.4091  0.2469  1.9999
  182MOL0     H24512   7.804   1.487   5.806 -2.2785  0.4129  0.7642
  182MOL0     H24513   7.674   1.664   5.722 -1.6750 -1.4267  2.4490
  182MOL0     H24514   7.636   1.578   5.573  1.0446 -0.3695  0.0936
  182MOL0     H24515   7.500   1.418   5.729  1.7438 -1.0167  0.8783
  182MOL0     H24516   7.563   1.523   5.852  3.9847 -0.7526 -2.0298
  182MOL0     H24517   7.376   1.598   5.621 -0.2654  0.5977 -0.4625
  182MOL0     H24518   7.436   1.719   5.738  0.4324  0.3309  0.7337
  182MOL0     H24519   7.261   1.481   5.805 -0.0914  0.0706 -0.7305
  182MOL0     H24520   7.319   1.600   5.925  1.5783  0.8085 -0.2682
  182MOL0     H24521   7.132   1.656   5.556  1.4210  3.6068 -0.9016
  182MOL0     H24522   6.802   1.834   5.640  1.0265  2.3985 -1.8133
  182MOL0     H24523   6.906   1.887   5.523  0.7786 -0.7417 -0.8376
  182MOL0     H24524   6.916   1.656   5.408 -2.4009  0.9526 -1.7963
  182MOL0     H24525   6.798   1.607   5.540  0.4351  0.4022  1.7768
  182MOL0     H24526   6.757   1.815   5.323  0.7351  2.9655  3.3002
  182MOL0     H24527   6.652   1.784   5.463  0.8701  0.9841  0.6697
  182MOL0     H24528   6.611   1.564   5.404 -1.1795  2.6641  0.9226
  182MOL0     H24529   6.741   1.554   5.284  0.0963  0.9585 -1.6325
  182MOL0     H24530   6.625   1.418   5.170 -0.9481  1.1022  1.6035
  182MOL0     H24531   6.490   1.285   5.022 -0.4441 -0.0485  0.4810
  182MOL0     H24532   6.321   1.006   4.832  0.1468 -2.2073 -2.5455
  182MOL0     H24533   6.234   0.895   4.625 -2.5106 -2.1232  0.8590
  182MOL0     H24534   5.784   0.866   4.591  0.0771  0.2632 -0.3089
  182MOL0     H24535   5.823   1.012   4.507 -1.6266  0.1832  1.0383
  182MOL0     H24536   5.727   0.839   4.361  0.5458 -0.4534 -2.0544
  182MOL0     H24537   5.897   0.888   4.320  0.8620 -1.7003 -0.2687
  182MOL0     H24538   5.872   0.653   4.487 -2.1982 -1.4675  0.1751
  182MOL0     H24539   5.788   0.623   4.327  1.2788  0.2560 -3.3027
  182MOL0     H24540   6.066   0.737   4.332 -0.5942 -0.3042  2.3398
  182MOL0     H24541   5.982   0.669   4.196 -1.2465  0.3881  0.4663
  182MOL0     H24542   6.033   0.444   4.270  2.6584 -1.3077 -2.0961
  182MOL0     H24543   6.069   0.492   4.431  1.5742  0.1702  1.1784
  182MOL0     H24544   6.280   0.619   4.320  0.7999  0.1037  0.4654
  182MOL0     H24545   6.284   0.445   4.348  1.0227  1.9942 -0.0774
  182MOL0     H24546   6.189   0.576   4.082  0.5274  0.3335 -0.7333
  182MOL0     H24547   6.202   0.410   4.104 -0.6660  0.3506  1.8680
  182MOL0     H24548   6.402   0.512   3.982 -2.9996  2.6444 -0.9869
  182MOL0     H24549   6.444   0.591   4.133  1.1033 -0.0528 -0.3931
  182MOL0     H24550   5.857   1.087   4.702  0.6913  3.9436  0.6135
  182MOL0     H24551   5.988   1.260   4.845 -1.3825  0.3912 -2.6865
  182MOL0     H24552   6.262   1.649   4.921 -0.1346  0.7251 -0.4178
  182MOL0     H24553   6.393   1.766   5.088  3.2305  1.2009  0.7937
  182MOL0     H24554   8.279   1.314   5.602  1.2514 -0.3064  0.6804
  182MOL0     H24555   8.500   1.334   5.671  1.7362  1.6134  2.6855
  182MOL0     H24556   8.954   1.799   5.674  0.6014 -0.1923 -1.0709
  182MOL0     H24557   9.154   1.783   5.774 -3.2693  1.9223 -0.5349
  182MOL0     H24558   9.177   1.631   6.064 -0.9721  1.3479 -2.1730
  182MOL0     H24559   9.315   1.727   6.000  3.1056 -0.9507  1.2667
  182MOL0     H24560   9.356   1.445   6.099  0.6890 -0.6101  0.3641
  182MOL0     H24561   9.385   1.596   6.195 -0.5659 -4.2611  1.5246
  182MOL0     H24562   9.519   1.678   6.001  0.0895  0.1777  0.1318
  182MOL0     H24563   9.518   1.521   5.934 -0.7114 -0.0920  0.0085
  182MOL0     H24564   9.634   1.412   6.101 -0.3448  0.3011 -0.7209
  182MOL0     H24565   9.735   1.556   6.065 -0.4869  1.0371 -0.5352
  182MOL0     H24566   9.594   1.591   6.470  1.1286  2.3808  0.3325
  182MOL0     H24567   9.099   1.377   5.865 -0.7016  0.9511  3.6769
  182MOL0     H24568   8.734   1.377   5.876  0.2594  1.9080  0.5351
  182MOL0     H24569   8.803   1.326   5.721  4.4791 -0.1800 -0.8438
  182MOL0     H24570   8.880   1.276   5.875  1.2477  1.5866  1.2880
  183MOL0     O24571   3.086  10.340   1.310 -0.5246 -0.4313  0.0577
  183MOL0     C24572   2.984  10.318   1.383 -0.0903  0.5454  0.0846
  183MOL0     O24573   2.991  10.270   1.516 -0.2775 -0.0919  0.3437
  183MOL0     C24574   3.115  10.276   1.566 -0.6743  0.1237 -0.4694
  183MOL0     C24575   3.187  10.164   1.625 -0.8926 -0.3032 -0.3520
  183MOL0     C24576   3.315  10.181   1.673 -0.0232 -0.8660  0.0694
  183MOL0     C24577   3.373  10.306   1.674 -0.4334 -0.5229  0.4655
  183MOL0     O24578   3.502  10.319   1.717  0.0328  0.4603  0.8423
  183MOL0     C24579   3.580  10.433   1.674  0.4020 -0.7652  0.5134
  183MOL0     C24580   3.718  10.396   1.698 -0.4242 -0.7807  0.2397
  183MOL0     C24581   3.803  10.520   1.663 -0.7460  0.0433  0.3953
  183MOL0     C24582   3.951  10.490   1.674  0.0821 -0.0284  0.8075
  183MOL0     C24583   4.045  10.605   1.693 -0.2717 -0.9517 -1.2220
  183MOL0     C24584   4.097  10.656   1.564 -0.1975  0.2676 -0.1420
  183MOL0     C24585   4.210  10.762   1.576  0.1939  0.3775 -0.0297
  183MOL0     C24586   4.220  10.835   1.436 -0.1395  0.0835 -0.4035
  183MOL0     N24587   4.307  10.955   1.449 -0.7905  1.2672  0.3072
  183MOL0     C24588   4.307  11.050   1.551 -0.2247 -0.4543  0.4828
  183MOL0     C24589   4.378  11.158   1.504  1.0033  0.6913 -0.8814
  183MOL0     C24590   4.393  11.298   1.552  0.6396 -0.3391 -0.3944
  183MOL0     C24591   4.538  11.346   1.537 -0.3922  0.5707 -0.0366
  183MOL0     C24592   4.579  11.469   1.618 -0.3772 -0.7051  0.0700
  183MOL0     C24593   4.718  11.519   1.569  0.2475  0.4348  0.0216
  183MOL0     O24594   4.798  11.408   1.590 -0.3774 -0.0519 -0.4487
  183MOL0     C24595   4.934  11.414   1.580 -0.6208 -0.2421  1.0006
  183MOL0     C24596   5.014  11.508   1.515 -0.3681  0.1184  0.7414
  183MOL0     C24597   5.149  11.478   1.489  0.0626 -0.2187 -0.0516
  183MOL0     C24598   5.211  11.364   1.526  0.4742  0.1592 -0.4385
  183MOL0     C24599   5.353  11.342   1.492  0.4094 -0.4905 -0.4723
  183MOL0     O24600   5.442  11.448   1.475 -0.0123  0.0992  0.2176
  183MOL0     C24601   5.576  11.408   1.468  1.1561  0.2529  0.3428
  183MOL0     C24602   5.676  11.460   1.548  0.1139  0.1599 -0.7850
  183MOL0     C24603   5.810  11.432   1.528  0.3642 -0.0305 -0.0435
  183MOL0     C24604   5.849  11.338   1.435  0.0238 -0.1277  0.3800
  183MOL0     O24605   5.984  11.301   1.408  0.3197 -0.2079  0.2974
  183MOL0     C24606   6.073  11.337   1.505 -0.4210  1.0533 -0.4484
  183MOL0     C24607   6.206  11.278   1.468  0.4911  0.1928 -0.1117
  183MOL0     C24608   6.271  11.217   1.600  0.6056  0.2320  0.8822
  183MOL0     C24609   6.245  11.070   1.610 -0.3746  0.1759  0.3651
  183MOL0     C24610   6.317  11.023   1.737  0.2220  0.5603 -0.3523
  183MOL0     C24611   6.284  10.874   1.755  0.8998  0.9527 -0.6994
  183MOL0     C24612   6.359  10.775   1.669  0.8383  0.3613  0.4226
  183MOL0     C24613   6.319  10.635   1.699  0.0483 -0.0338  0.7047
  183MOL0    Cl24614   6.424  10.523   1.610 -0.2614  0.3121  0.1573
  183MOL0     C24615   5.747  11.282   1.350  0.1716 -0.6735 -0.6035
  183MOL0     C24616   5.608  11.323   1.364  0.1844  0.0929 -0.5288
  183MOL0     O24617   5.385  11.225   1.487  0.2813  0.2688  0.7082
  183MOL0     C24618   5.131  11.270   1.586  0.3741 -0.1659 -0.7939
  183MOL0     C24619   4.994  11.299   1.620 -0.4343  0.4432 -0.7511
  183MOL0     N24620   4.445  11.116   1.391 -0.6280  0.0990  0.2976
  183MOL0     N24621   4.415  10.986   1.368  0.2049  0.2430 -0.4445
  183MOL0     C24622   3.292  10.419   1.651 -0.2817  0.3279 -0.1530
  183MOL0     C24623   3.166  10.407   1.593 -0.5046  0.3568  0.1263
  183MOL0     C24624   2.858  10.311   1.320 -0.2607 -0.1026  0.5440
  183MOL0     C24625   2.763  10.219   1.370  0.7272 -0.1138 -0.0910
  183MOL0     C24626   2.643  10.197   1.304  0.1720  0.7472  1.5648
  183MOL0     C24627   2.601  10.277   1.189  0.3616 -0.8096 -0.6751
  183MOL0     O24628   2.473  10.281   1.141  0.6442 -0.7113  0.2106
  183MOL0     C24629   2.400  10.159   1.154 -0.1252 -0.4981  1.2204
  183MOL0     C24630   2.318  10.159   1.288 -0.1549 -0.1091 -0.0978
  183MOL0     C24631   2.266  10.011   1.302  1.0784 -0.0307  0.4065
  183MOL0     C24632   2.144   9.975   1.210  0.2320  0.4702  0.9125
  183MOL0     C24633   2.050  10.089   1.171 -0.1690 -0.3875 -0.0013
  183MOL0     C24634   1.987  10.187   1.116  0.7317  0.3119 -0.2394
  183MOL0     C24635   2.695  10.373   1.151  0.7175 -0.0426  0.0056
  183MOL0     C24636   2.820  10.390   1.206  0.3593 -0.0479  1.4321
  183MOL0     C24637   2.906  10.513   1.154 -0.3361  0.3472  0.0235
  183MOL0     H24638   3.140  10.066   1.619  1.2370 -1.6412  2.4496
  183MOL0     H24639   3.381  10.097   1.689  1.2853  0.1798  0.3833
  183MOL0     H24640   3.569  10.449   1.566  0.2830 -0.2218  0.6050
  183MOL0     H24641   3.551  10.525   1.725  1.1358  0.9861 -2.0251
  183MOL0     H24642   3.743  10.304   1.644  0.7685 -0.9606  1.0567
  183MOL0     H24643   3.708  10.369   1.804 -0.5153 -2.5792 -0.1968
  183MOL0     H24644   3.785  10.602   1.734  1.1500  1.8988 -1.1433
  183MOL0     H24645   3.779  10.551   1.561 -0.0476 -0.1061  0.1782
  183MOL0     H24646   3.969  10.435   1.767  4.2497  3.5808  2.4672
  183MOL0     H24647   3.978  10.425   1.590 -5.7340 -1.2875 -0.5035
  183MOL0     H24648   4.004  10.686   1.755  0.6799 -1.5903  0.3201
  183MOL0     H24649   4.125  10.564   1.756  0.1234 -0.0336 -1.1094
  183MOL0     H24650   4.138  10.568   1.515 -2.5718 -0.2350 -1.3666
  183MOL0     H24651   4.022  10.691   1.493  0.5470 -1.6228 -1.9590
  183MOL0     H24652   4.305  10.714   1.603  0.6065  1.0778 -0.1983
  183MOL0     H24653   4.192  10.834   1.656  0.9559  0.3742  0.1569
  183MOL0     H24654   4.268  10.767   1.365  1.1253 -0.5656  1.0166
  183MOL0     H24655   4.120  10.862   1.400 -0.0938 -0.8217 -1.2622
  183MOL0     H24656   4.244  11.050   1.639  1.5308 -1.3872  1.8075
  183MOL0     H24657   4.330  11.368   1.497 -1.6890  0.2679  2.7615
  183MOL0     H24658   4.366  11.302   1.658  1.5067  3.4615 -0.1909
  183MOL0     H24659   4.611  11.265   1.552  0.3046  0.7952 -1.9846
  183MOL0     H24660   4.557  11.369   1.432  1.8400 -1.0704 -0.0718
  183MOL0     H24661   4.576  11.454   1.726 -0.7710 -0.7246  0.0564
  183MOL0     H24662   4.504  11.546   1.598 -0.6514 -1.1402 -0.6093
  183MOL0     H24663   4.740  11.613   1.620  0.6811  0.0402  0.5710
  183MOL0     H24664   4.715  11.527   1.460 -0.0691 -0.7981 -0.0781
  183MOL0     H24665   4.969  11.597   1.475  2.5756  0.2449 -2.8514
  183MOL0     H24666   5.206  11.562   1.450  2.1135 -2.1639 -1.4777
  183MOL0     H24667   5.648  11.539   1.617  0.5792  0.6815 -1.1824
  183MOL0     H24668   5.890  11.488   1.576  1.1613  2.9409 -4.3018
  183MOL0     H24669   6.087  11.445   1.501  1.4800  0.8221 -1.2536
  183MOL0     H24670   6.032  11.304   1.601 -0.4015  0.6510 -0.5753
  183MOL0     H24671   6.194  11.195   1.397 -0.9699 -1.4482  1.9000
  183MOL0     H24672   6.270  11.353   1.421 -1.9020  2.8655  0.6308
  183MOL0     H24673   6.379  11.223   1.583  0.3313  0.5037 -0.9267
  183MOL0     H24674   6.237  11.273   1.688  1.7378 -0.7822  2.0080
  183MOL0     H24675   6.270  11.014   1.519  0.4510  1.4630 -0.2324
  183MOL0     H24676   6.137  11.056   1.615 -0.3393 -0.0101  0.6354
  183MOL0     H24677   6.300  11.078   1.830  2.1626 -1.1167  1.0698
  183MOL0     H24678   6.425  11.034   1.723  1.2954 -0.1490  5.1075
  183MOL0     H24679   6.309  10.839   1.856  0.3365 -0.3643 -0.9981
  183MOL0     H24680   6.177  10.856   1.748  1.3419 -2.0235 -0.8677
  183MOL0     H24681   6.466  10.796   1.678  0.5575  2.6915 -0.9450
  183MOL0     H24682   6.332  10.805   1.567  1.2121  2.9102  1.0025
  183MOL0     H24683   6.336  10.615   1.805  1.9285 -1.6382  0.1760
  183MOL0     H24684   6.215  10.611   1.676  0.2604 -0.4524  0.1743
  183MOL0     H24685   5.775  11.203   1.280 -2.1672 -1.7901 -0.3634
  183MOL0     H24686   5.522  11.295   1.303 -4.3446  3.6037  3.4678
  183MOL0     H24687   5.186  11.182   1.616  2.1125  1.2828  0.5288
  183MOL0     H24688   4.929  11.219   1.657 -0.4984  0.7339 -0.2246
  183MOL0     H24689   3.319  10.523   1.668 -1.0124  0.4327  0.3652
  183MOL0     H24690   3.111  10.496   1.563  1.4013  1.6295  0.2715
  183MOL0     H24691   2.786  10.173   1.465  3.0153  1.8272  0.3995
  183MOL0     H24692   2.575  10.133   1.359 -0.8810 -0.8029 -1.3283
  183MOL0     H24693   2.469  10.074   1.151 -0.5937 -0.9268  2.2085
  183MOL0     H24694   2.325  10.157   1.074  0.6837  0.0434  0.4242
  183MOL0     H24695   2.236  10.229   1.305  1.3418  1.2794  1.8567
  183MOL0     H24696   2.382  10.189   1.371  1.2654  3.7531 -2.3162
  183MOL0     H24697   2.215  10.015   1.399 -3.3824  0.5676 -1.7470
  183MOL0     H24698   2.348   9.938   1.295  0.5780 -0.4262 -3.2303
  183MOL0     H24699   2.180   9.928   1.117 -0.2231 -2.3452  2.0504
  183MOL0     H24700   2.077   9.906   1.263  0.4706 -1.8302 -1.5553
  183MOL0     H24701   1.952  10.258   1.044 -0.9270 -2.5239 -2.4569
  183MOL0     H24702   2.664  10.440   1.072  0.4012  0.5280  0.6033
  183MOL0     H24703   2.833  10.589   1.123  0.3873  0.4018 -1.6553
  183MOL0     H24704   2.964  10.561   1.233  0.5269  1.0959 -1.0384
  183MOL0     H24705   2.976  10.483   1.076  1.0039  1.2915  0.8302
  184MOL0     O24706   7.301   6.615   2.638  0.1536 -0.5693 -0.4803
  184MOL0     C24707   7.360   6.672   2.545 -1.4160 -0.4088 -0.0783
  184MOL0     O24708   7.403   6.801   2.561  0.3168  0.4838  0.1612
  184MOL0     C24709   7.421   6.855   2.689  1.2598 -0.7715 -0.5417
  184MOL0     C24710   7.371   6.975   2.725  0.2080 -0.2513 -0.3569
  184MOL0     C24711   7.392   7.031   2.857  0.6052 -0.7749  0.4132
  184MOL0     C24712   7.467   6.964   2.948  0.5421 -0.1690 -0.3349
  184MOL0     O24713   7.489   7.022   3.071  0.0495 -0.7689 -0.9872
  184MOL0     C24714   7.635   7.066   3.096 -0.2089 -0.1727 -0.6625
  184MOL0     C24715   7.678   7.023   3.239 -0.4219  0.3538 -0.3515
  184MOL0     C24716   7.613   7.093   3.365  0.0303 -0.4037 -0.1092
  184MOL0     C24717   7.678   7.043   3.490 -0.0493 -0.1306 -1.0160
  184MOL0     C24718   7.739   7.151   3.578 -0.3820  0.9263 -0.4670
  184MOL0     C24719   7.813   7.093   3.694 -0.0168  0.3695  0.9739
  184MOL0     C24720   7.874   7.193   3.792 -0.5285  1.2553  0.3095
  184MOL0     C24721   7.770   7.268   3.878 -1.1816  0.4242  0.2025
  184MOL0     N24722   7.806   7.313   4.016 -0.6869 -0.1527 -0.5911
  184MOL0     C24723   7.795   7.252   4.146  0.5773 -0.3748 -0.1718
  184MOL0     C24724   7.835   7.349   4.230 -0.3841 -0.0361  0.3724
  184MOL0     C24725   7.841   7.352   4.373 -0.1846  1.0178  0.1793
  184MOL0     C24726   7.707   7.397   4.445 -0.8024  0.7520  0.3603
  184MOL0     C24727   7.740   7.410   4.593 -0.4458  0.3131 -0.0836
  184MOL0     C24728   7.809   7.288   4.657 -0.7198  0.1372 -1.0807
  184MOL0     O24729   7.780   7.278   4.795 -0.7943  0.6508 -0.9548
  184MOL0     C24730   7.837   7.168   4.858  0.0409 -0.0435  0.3687
  184MOL0     C24731   7.777   7.129   4.976 -0.5410  0.3384 -0.2114
  184MOL0     C24732   7.816   7.005   5.035 -1.1671 -0.2398 -0.4116
  184MOL0     C24733   7.924   6.934   4.976 -0.3440  0.2864 -0.1697
  184MOL0     C24734   7.959   6.802   5.032  0.2375  0.0447  0.5867
  184MOL0     O24735   8.060   6.734   4.974  0.6784 -0.7251  0.7728
  184MOL0     C24736   8.174   6.709   5.037 -0.0407  1.1011  0.0790
  184MOL0     C24737   8.189   6.710   5.176 -0.1364 -0.0263 -0.4727
  184MOL0     C24738   8.303   6.665   5.243  0.5118 -0.4628 -0.3364
  184MOL0     C24739   8.406   6.622   5.165  0.0670 -0.1383 -0.9546
  184MOL0     O24740   8.521   6.605   5.245  1.5438  1.0346 -0.1206
  184MOL0     C24741   8.660   6.606   5.192 -0.7873  0.2327  0.2094
  184MOL0     C24742   8.784   6.568   5.281  0.2983 -0.1614 -0.7481
  184MOL0     C24743   8.804   6.419   5.334  0.4423  0.0885  0.8059
  184MOL0     C24744   8.941   6.406   5.394 -0.0740 -0.2525  0.3288
  184MOL0     C24745   8.950   6.263   5.461  0.0932  0.6529 -0.9843
  184MOL0     C24746   9.006   6.157   5.359  0.6949 -0.0311  0.7170
  184MOL0     C24747   8.938   6.012   5.368  0.0107  0.3069 -0.8506
  184MOL0     C24748   8.979   5.950   5.500  0.2838 -0.0548 -0.2026
  184MOL0    Cl24749   9.126   5.859   5.453  0.6073  0.0980  0.0941
  184MOL0     C24750   8.395   6.604   5.029 -0.4647  0.3452  0.7523
  184MOL0     C24751   8.287   6.654   4.965 -0.2305  0.2837 -0.0586
  184MOL0     O24752   7.898   6.767   5.133 -0.2696  0.0407  0.9012
  184MOL0     C24753   7.985   6.974   4.858 -1.1281 -0.6497 -0.1510
  184MOL0     C24754   7.956   7.099   4.804  0.6163  0.7759  1.0820
  184MOL0     N24755   7.862   7.464   4.158 -0.2099 -0.4394  0.2800
  184MOL0     N24756   7.846   7.440   4.036 -0.5907  0.3165  1.6028
  184MOL0     C24757   7.516   6.837   2.914 -0.2448 -0.2754  0.0800
  184MOL0     C24758   7.486   6.783   2.785  0.2202  0.6551  0.3159
  184MOL0     C24759   7.360   6.617   2.405  0.0029  0.6657  0.7209
  184MOL0     C24760   7.370   6.704   2.298 -1.2828 -0.9925 -1.1057
  184MOL0     C24761   7.378   6.654   2.171 -0.1594 -0.1932  0.1266
  184MOL0     C24762   7.374   6.523   2.141  0.5599 -0.2667  0.5563
  184MOL0     O24763   7.372   6.492   2.002 -0.8765  0.0590 -0.0812
  184MOL0     C24764   7.327   6.364   1.966 -0.4262 -0.3280  0.0200
  184MOL0     C24765   7.303   6.344   1.817 -0.4367  0.2745  0.1527
  184MOL0     C24766   7.225   6.208   1.777  0.5528 -0.6842 -0.0741
  184MOL0     C24767   7.206   6.211   1.629  0.3440 -0.1308 -0.4611
  184MOL0     C24768   7.329   6.182   1.568 -0.2085  0.3477  0.0097
  184MOL0     C24769   7.430   6.137   1.512 -0.1498 -0.4798 -0.5718
  184MOL0     C24770   7.359   6.432   2.251  0.7460  0.7300 -0.7134
  184MOL0     C24771   7.357   6.480   2.384 -0.4504  0.7566 -0.6670
  184MOL0     C24772   7.370   6.376   2.492  0.1149  0.2441 -0.1932
  184MOL0     H24773   7.304   7.019   2.652  0.8735 -1.8261 -2.0010
  184MOL0     H24774   7.349   7.128   2.883  0.2860 -1.3337  2.1471
  184MOL0     H24775   7.695   7.022   3.016 -1.5605 -1.9344 -0.7691
  184MOL0     H24776   7.646   7.174   3.091  0.1080 -0.2206 -1.0459
  184MOL0     H24777   7.787   7.040   3.238 -0.5741  1.3771 -0.2953
  184MOL0     H24778   7.671   6.914   3.251 -1.4547  0.6348  1.9114
  184MOL0     H24779   7.508   7.062   3.367 -0.1517  0.2431  1.2052
  184MOL0     H24780   7.613   7.202   3.360 -2.2612 -0.2641  1.6380
  184MOL0     H24781   7.599   6.992   3.546 -0.1135 -2.4568 -3.0282
  184MOL0     H24782   7.752   6.965   3.472  0.1483  0.2881 -2.1319
  184MOL0     H24783   7.812   7.214   3.525  0.2264  0.9182  0.3404
  184MOL0     H24784   7.656   7.212   3.616  0.2648  0.7433  1.3659
  184MOL0     H24785   7.748   7.032   3.757 -0.5638  0.1387  0.2072
  184MOL0     H24786   7.895   7.031   3.656  1.3853  2.1018  1.0735
  184MOL0     H24787   7.929   7.269   3.736 -2.0340  2.3001  0.2046
  184MOL0     H24788   7.955   7.141   3.844 -1.7488 -2.7583 -1.3645
  184MOL0     H24789   7.750   7.363   3.827 -0.3097  1.1928  1.2334
  184MOL0     H24790   7.681   7.205   3.885  0.1634 -1.4887  0.8251
  184MOL0     H24791   7.757   7.153   4.172 -1.4421  0.7439  1.4134
  184MOL0     H24792   7.880   7.260   4.417  0.6736  0.9177 -0.7652
  184MOL0     H24793   7.923   7.422   4.388  1.9783 -1.6478  1.7475
  184MOL0     H24794   7.682   7.495   4.402  2.0261  2.5488  2.4036
  184MOL0     H24795   7.640   7.314   4.422  0.2716 -0.3067  0.9300
  184MOL0     H24796   7.641   7.426   4.638 -0.5690 -3.4343  1.3718
  184MOL0     H24797   7.794   7.503   4.611  1.0459 -0.2888 -1.2600
  184MOL0     H24798   7.916   7.308   4.645 -0.4295 -0.6634 -0.0072
  184MOL0     H24799   7.784   7.194   4.607 -1.3466  0.2939 -1.0605
  184MOL0     H24800   7.712   7.194   5.034  0.0600  0.6680  0.0998
  184MOL0     H24801   7.777   6.972   5.130 -2.3951 -1.4061 -1.2937
  184MOL0     H24802   8.115   6.764   5.234  0.5679 -1.4708  1.9525
  184MOL0     H24803   8.313   6.673   5.350  2.7059  2.5320 -0.6228
  184MOL0     H24804   8.664   6.530   5.114 -1.4525 -1.0791  1.4052
  184MOL0     H24805   8.686   6.703   5.148  0.0117  0.9464  2.1452
  184MOL0     H24806   8.871   6.571   5.215  2.1042 -1.3443  1.4235
  184MOL0     H24807   8.809   6.646   5.354 -0.9077  0.0743 -0.5714
  184MOL0     H24808   8.729   6.398   5.411 -0.2618  2.7800  0.9382
  184MOL0     H24809   8.788   6.359   5.243 -4.3491  1.3630  0.5319
  184MOL0     H24810   8.945   6.494   5.458 -2.4086  1.7252 -2.0273
  184MOL0     H24811   9.023   6.419   5.323  1.4939 -0.5777  2.0048
  184MOL0     H24812   8.855   6.242   5.510 -1.0509  1.1100 -2.8899
  184MOL0     H24813   9.023   6.266   5.542 -1.4747 -0.0607  0.5147
  184MOL0     H24814   8.990   6.191   5.256 -3.4479  0.1799  1.2881
  184MOL0     H24815   9.115   6.155   5.368  0.8499 -1.4552 -0.9719
  184MOL0     H24816   8.972   5.940   5.293  0.4813  0.2627 -0.5973
  184MOL0     H24817   8.829   6.017   5.371 -0.0769 -1.5228  0.6591
  184MOL0     H24818   8.981   6.035   5.569  0.4202 -0.2587  0.0464
  184MOL0     H24819   8.913   5.868   5.531  2.3863 -2.0012 -0.5975
  184MOL0     H24820   8.478   6.559   4.976 -1.7784 -0.7752 -0.4485
  184MOL0     H24821   8.290   6.648   4.856  3.2332 -1.0613 -0.0158
  184MOL0     H24822   8.064   6.920   4.809 -1.1673 -0.0795 -0.8669
  184MOL0     H24823   8.020   7.146   4.730  2.9402  2.5614  3.9693
  184MOL0     H24824   7.568   6.774   2.986 -0.1767 -0.2786  0.0287
  184MOL0     H24825   7.533   6.688   2.763 -1.2698 -0.2301  0.8116
  184MOL0     H24826   7.389   6.807   2.323  0.5173 -2.0154  2.3670
  184MOL0     H24827   7.391   6.725   2.090  1.3474  0.4040  0.8570
  184MOL0     H24828   7.233   6.354   2.019  0.5055 -1.4033  1.5427
  184MOL0     H24829   7.391   6.281   1.996 -0.1533  0.1023  0.6634
  184MOL0     H24830   7.401   6.360   1.770 -0.9115 -0.0183 -0.9605
  184MOL0     H24831   7.245   6.427   1.777 -0.0796  0.7982  0.7164
  184MOL0     H24832   7.127   6.207   1.824  0.0071 -2.3151 -1.1896
  184MOL0     H24833   7.271   6.118   1.819  3.4156  1.3433  1.5122
  184MOL0     H24834   7.127   6.142   1.597 -0.1625  0.6780 -1.0069
  184MOL0     H24835   7.180   6.307   1.584  1.2419  0.8874  1.1045
  184MOL0     H24836   7.516   6.096   1.461  3.6844  1.9597  3.2758
  184MOL0     H24837   7.349   6.325   2.234 -2.0721  1.0544 -1.4785
  184MOL0     H24838   7.414   6.282   2.458  0.9851  0.1907  1.0045
  184MOL0     H24839   7.443   6.417   2.564 -3.0848  1.2599  2.7498
  184MOL0     H24840   7.287   6.352   2.558 -0.3060  0.2643 -0.7100
  185MOL0     O24841   5.046   7.233  10.444  0.9003 -0.6250 -0.0509
  185MOL0     C24842   5.092   7.180  10.549  0.9163 -0.6808  0.0274
  185MOL0     O24843   5.113   7.044  10.561 -0.0229  0.2841  0.0713
  185MOL0     C24844   5.077   6.954  10.462 -0.3165  0.0949  0.0042
  185MOL0     C24845   4.991   6.967  10.353 -0.2529  0.4067 -0.0242
  185MOL0     C24846   4.974   6.858  10.262 -1.4823 -0.4547 -0.0582
  185MOL0     C24847   5.035   6.740  10.281 -0.8372 -0.6835  1.1375
  185MOL0     O24848   5.028   6.634  10.201 -0.1101  0.4402  0.0153
  185MOL0     C24849   4.917   6.602  10.114  0.0857 -0.2322  0.3422
  185MOL0     C24850   4.818   6.527  10.201  0.1802  0.5397  0.9400
  185MOL0     C24851   4.855   6.381  10.242  0.4026  0.6053  0.2613
  185MOL0     C24852   4.767   6.341  10.363  0.8329  1.1147 -0.8050
  185MOL0     C24853   4.797   6.186  10.403 -0.1787 -0.2461  0.2487
  185MOL0     C24854   4.777   6.084  10.290  0.2382 -0.1026  0.2293
  185MOL0     C24855   4.653   6.084  10.210 -0.1549  0.2332  0.0687
  185MOL0     C24856   4.538   6.035  10.307  0.4470  0.2949  0.3702
  185MOL0     N24857   4.524   5.890  10.331 -0.3683  0.0300 -0.9186
  185MOL0     C24858   4.483   5.798  10.245 -0.2967  0.4286  1.0923
  185MOL0     C24859   4.464   5.682  10.310 -0.0049 -1.0849  0.3852
  185MOL0     C24860   4.395   5.556  10.267  0.8158  0.9123 -0.2082
  185MOL0     C24861   4.250   5.559  10.255 -0.1209 -0.3839  0.5644
  185MOL0     C24862   4.188   5.594  10.390  0.5901  0.4954 -0.0424
  185MOL0     C24863   4.038   5.553  10.387 -0.6591  0.6606  0.3117
  185MOL0     O24864   3.980   5.591  10.514  0.3838 -0.0747  0.2653
  185MOL0     C24865   3.862   5.528  10.545  0.7496 -0.6329 -0.9478
  185MOL0     C24866   3.776   5.595  10.626  0.6866 -0.0390  0.9523
  185MOL0     C24867   3.654   5.543  10.666 -0.3151 -0.2419 -0.1372
  185MOL0     C24868   3.621   5.405  10.641 -0.9502  0.9319 -0.0967
  185MOL0     C24869   3.508   5.333  10.702 -0.6169 -0.3086  0.6864
  185MOL0     O24870   3.429   5.411  10.772  0.1869 -0.8683 -0.2055
  185MOL0     C24871   3.307   5.369  10.804 -1.2210  0.3252 -0.6089
  185MOL0     C24872   3.293   5.281  10.913 -0.4556 -0.1984  0.2880
  185MOL0     C24873   3.171   5.236  10.953  0.5719 -0.4421  0.3682
  185MOL0     C24874   3.052   5.275  10.888 -0.2585  0.1193 -0.4515
  185MOL0     O24875   2.942   5.241  10.963  0.1637  0.0538  0.5738
  185MOL0     C24876   2.825   5.316  10.938  0.5276  0.5134  0.4868
  185MOL0     C24877   2.695   5.259  11.009 -1.0856 -0.3607 -0.1063
  185MOL0     C24878   2.706   5.215  11.157 -0.6574  0.3489  0.2446
  185MOL0     C24879   2.642   5.076  11.190  0.3711  0.5634  0.1440
  185MOL0     C24880   2.704   5.025  11.321 -0.7283  0.0535 -1.1951
  185MOL0     C24881   2.617   4.932  11.404  0.2195 -0.0686 -0.1772
  185MOL0     C24882   2.566   4.809  11.323 -0.6884  0.1739  0.3570
  185MOL0     C24883   2.469   4.721  11.398 -0.2299 -0.1489 -0.4545
  185MOL0    Cl24884   2.317   4.830  11.410  0.0324 -0.3849  0.3339
  185MOL0     C24885   3.062   5.361  10.786  0.5896  0.3837  0.3427
  185MOL0     C24886   3.184   5.402  10.743  0.0865  0.6580  0.1055
  185MOL0     O24887   3.484   5.215  10.666  0.6551  0.4057 -0.3331
  185MOL0     C24888   3.706   5.342  10.562 -0.4832  0.7129 -0.1033
  185MOL0     C24889   3.827   5.397  10.517  0.4407 -0.6104  0.7253
  185MOL0     N24890   4.491   5.715  10.442 -0.1226  0.5229  0.2161
  185MOL0     N24891   4.536   5.832  10.450 -0.0936  0.2518  0.3299
  185MOL0     C24892   5.122   6.723  10.384  0.0489  0.6600  0.1029
  185MOL0     C24893   5.145   6.827  10.475 -1.3626 -1.3812  0.1911
  185MOL0     C24894   5.095   7.266  10.672  0.3220  0.3333  0.5315
  185MOL0     C24895   5.037   7.395  10.661  0.5788  0.0640  0.9948
  185MOL0     C24896   5.028   7.475  10.773  0.2007  0.2277  0.0434
  185MOL0     C24897   5.075   7.431  10.904 -1.9696  0.6844 -0.0907
  185MOL0     O24898   5.086   7.508  11.015 -0.4389 -0.1018  0.0150
  185MOL0     C24899   5.032   7.644  11.015  1.1824 -0.2902  1.0817
  185MOL0     C24900   5.059   7.706  11.150  0.3523 -0.1099  0.1606
  185MOL0     C24901   5.207   7.764  11.158 -0.2975 -0.0402 -0.2771
  185MOL0     C24902   5.221   7.894  11.076  0.3213 -0.5825 -0.8198
  185MOL0     C24903   5.232   8.006  11.166 -0.1062 -0.0328  0.6256
  185MOL0     C24904   5.224   8.105  11.240  0.2328  0.0340  0.0597
  185MOL0     C24905   5.127   7.301  10.913  0.3020  0.1850  0.1773
  185MOL0     C24906   5.140   7.216  10.798  0.0329  0.4173  0.4542
  185MOL0     C24907   5.178   7.076  10.825  0.4310 -0.1453 -1.1534
  185MOL0     H24908   4.943   7.063  10.336  0.0963  0.1511 -2.8499
  185MOL0     H24909   4.913   6.880  10.175  2.7517  1.9680 -2.7529
  185MOL0     H24910   4.873   6.684  10.055 -0.7269 -1.6784 -1.1333
  185MOL0     H24911   4.941   6.530  10.036 -4.6597 -2.3324  0.4617
  185MOL0     H24912   4.725   6.516  10.144  0.2922  1.3796  0.5802
  185MOL0     H24913   4.798   6.581  10.294 -0.9736  0.4047  0.7868
  185MOL0     H24914   4.958   6.374  10.277  0.6928  2.1537 -0.1976
  185MOL0     H24915   4.845   6.326  10.148  1.2095  1.9819 -0.6747
  185MOL0     H24916   4.798   6.403  10.448  2.1190 -1.1779  0.4978
  185MOL0     H24917   4.660   6.346  10.341  0.7178 -1.2299 -1.0838
  185MOL0     H24918   4.905   6.194  10.423 -0.3172  0.0082  0.9341
  185MOL0     H24919   4.746   6.161  10.496 -0.8350 -0.8117 -0.2597
  185MOL0     H24920   4.857   6.110  10.220 -0.0880 -0.7318 -0.3803
  185MOL0     H24921   4.795   5.984  10.329  0.8057 -0.8025 -1.7271
  185MOL0     H24922   4.659   6.013  10.126  0.0667  0.6602 -0.2838
  185MOL0     H24923   4.633   6.181  10.164 -1.2230 -2.3419 -5.8666
  185MOL0     H24924   4.539   6.085  10.404 -5.4642 -2.6515  2.4212
  185MOL0     H24925   4.447   6.075  10.262  1.6752  1.7810 -0.9177
  185MOL0     H24926   4.479   5.819  10.139  1.9426 -0.0706  0.8731
  185MOL0     H24927   4.444   5.514  10.178 -0.2885 -1.6427  0.3004
  185MOL0     H24928   4.413   5.485  10.348  0.6471  3.1950  1.9749
  185MOL0     H24929   4.229   5.635  10.179  2.8557  1.1853  1.1673
  185MOL0     H24930   4.212   5.466  10.212 -0.1163  1.5100 -4.1451
  185MOL0     H24931   4.197   5.702  10.406  0.0958  0.2231  2.3231
  185MOL0     H24932   4.235   5.533  10.468  2.6869  1.5392 -0.4022
  185MOL0     H24933   4.031   5.446  10.364  4.1377 -0.2579  1.8578
  185MOL0     H24934   3.987   5.609  10.308  1.6457 -0.4079 -2.1090
  185MOL0     H24935   3.798   5.698  10.656  0.2580  0.0197  1.0672
  185MOL0     H24936   3.580   5.596  10.724  1.3829  0.9070  1.0815
  185MOL0     H24937   3.378   5.261  10.977  1.2111  0.5342 -1.6258
  185MOL0     H24938   3.163   5.173  11.041  0.0772 -1.8456 -0.6331
  185MOL0     H24939   2.844   5.412  10.986  1.5729  1.6579 -2.0799
  185MOL0     H24940   2.802   5.331  10.832  0.4469  0.1767  0.4534
  185MOL0     H24941   2.622   5.341  11.006 -0.0847  0.8880  3.7901
  185MOL0     H24942   2.657   5.181  10.943  0.0873 -0.7172 -0.3715
  185MOL0     H24943   2.812   5.209  11.183 -0.5387  0.1801 -0.2574
  185MOL0     H24944   2.662   5.294  11.219  0.1170  0.9745  0.0149
  185MOL0     H24945   2.644   5.006  11.107  1.1138  3.6797 -2.6980
  185MOL0     H24946   2.539   5.105  11.211  0.5031  0.8958  0.3557
  185MOL0     H24947   2.714   5.114  11.384  1.0215 -1.7170  1.2240
  185MOL0     H24948   2.804   4.989  11.295  1.2703  2.5498  2.2062
  185MOL0     H24949   2.667   4.891  11.492 -1.3021  0.6325  1.0775
  185MOL0     H24950   2.534   4.988  11.448  1.5914  0.0445  2.4314
  185MOL0     H24951   2.646   4.740  11.293 -2.1951 -1.0543 -1.0347
  185MOL0     H24952   2.514   4.846  11.234  0.3408  0.6769 -0.0544
  185MOL0     H24953   2.460   4.638  11.328 -0.8374  0.3247 -0.9481
  185MOL0     H24954   2.512   4.680  11.490  1.7877 -0.5923 -1.5612
  185MOL0     H24955   2.970   5.386  10.735  1.4089 -1.3110 -2.1766
  185MOL0     H24956   3.197   5.464  10.656  1.1401  0.9188  0.4247
  185MOL0     H24957   3.708   5.236  10.536 -0.5898  0.9910 -1.2917
  185MOL0     H24958   3.901   5.327  10.481 -0.0359 -0.5798 -0.3653
  185MOL0     H24959   5.189   6.637  10.380 -0.9987 -0.1662 -3.9071
  185MOL0     H24960   5.221   6.820  10.552  0.6656 -0.7789 -1.6382
  185MOL0     H24961   4.991   7.436  10.572 -1.0126  1.6620  2.4585
  185MOL0     H24962   4.983   7.574  10.770  0.4045  0.3071 -0.5921
  185MOL0     H24963   4.923   7.631  11.014  1.4666 -3.5042  1.5828
  185MOL0     H24964   5.059   7.706  10.929 -1.2498  0.6378  0.8968
  185MOL0     H24965   5.048   7.631  11.228  1.6817 -0.5085 -0.0088
  185MOL0     H24966   4.990   7.788  11.172 -1.8779 -1.7174 -0.5490
  185MOL0     H24967   5.271   7.683  11.121  1.2146  1.2048 -0.4462
  185MOL0     H24968   5.213   7.790  11.264  2.0452 -1.7408  0.0877
  185MOL0     H24969   5.302   7.888  11.002  1.4677 -4.4845  0.5119
  185MOL0     H24970   5.124   7.910  11.029 -3.6068 -4.0939  4.9132
  185MOL0     H24971   5.220   8.192  11.301 -1.6519  2.5271 -3.2862
  185MOL0     H24972   5.164   7.264  11.007  1.9895  1.2931 -0.0042
  185MOL0     H24973   5.098   7.004  10.806 -0.0839 -0.9272  3.0647
  185MOL0     H24974   5.263   7.034  10.769  0.1546 -2.7791  0.2397
  185MOL0     H24975   5.210   7.068  10.929 -0.3816  0.5289 -0.8478
  186MOL0     O24976   4.539   9.937   6.333  0.4170  0.4337  0.6201
  186MOL0     C24977   4.451   9.975   6.255  0.6312 -0.5668 -1.5667
  186MOL0     O24978   4.337   9.902   6.237  0.3966 -1.1169  0.5273
  186MOL0     C24979   4.314   9.794   6.319 -1.2680 -0.3073 -0.6460
  186MOL0     C24980   4.375   9.664   6.297 -0.4457 -0.7997  0.7068
  186MOL0     C24981   4.340   9.549   6.368 -0.3861 -0.0837 -0.0461
  186MOL0     C24982   4.239   9.563   6.461  1.2585  0.6845 -0.2708
  186MOL0     O24983   4.193   9.464   6.546  0.6722  0.1507  0.2953
  186MOL0     C24984   4.280   9.398   6.636 -0.4594  0.6796  0.2137
  186MOL0     C24985   4.191   9.333   6.740 -0.3265 -0.2122 -1.1173
  186MOL0     C24986   4.072   9.251   6.680 -0.4563  0.3129  0.5196
  186MOL0     C24987   3.948   9.339   6.649 -0.4592  0.2273  0.3209
  186MOL0     C24988   3.822   9.266   6.625 -0.5645  0.7609 -0.8180
  186MOL0     C24989   3.709   9.352   6.573  0.3024  0.0700  0.4366
  186MOL0     C24990   3.672   9.472   6.663 -0.7865  0.1028 -0.5416
  186MOL0     C24991   3.602   9.430   6.788  0.6016 -0.4420  0.4320
  186MOL0     N24992   3.470   9.392   6.771  0.8392  0.3097  1.0335
  186MOL0     C24993   3.429   9.258   6.767  0.9487 -0.0938  0.9784
  186MOL0     C24994   3.296   9.262   6.752  0.4119 -0.0664 -0.3491
  186MOL0     C24995   3.204   9.144   6.759  0.0890 -0.0902 -0.5708
  186MOL0     C24996   3.163   9.109   6.903 -0.5645 -0.3004  0.4419
  186MOL0     C24997   3.068   9.220   6.964 -0.4317  0.0675 -0.2117
  186MOL0     C24998   3.021   9.163   7.098  0.6074 -0.1200 -0.6980
  186MOL0     O24999   2.910   9.070   7.091  0.2581  0.3589  0.5561
  186MOL0     C25000   2.914   8.934   7.129  0.7475 -0.6060  0.1936
  186MOL0     C25001   2.865   8.844   7.049  0.6059  0.0218  0.5259
  186MOL0     C25002   2.878   8.713   7.084  0.0834  0.8208  0.3202
  186MOL0     C25003   2.952   8.668   7.198 -0.3980 -0.3920  0.2508
  186MOL0     C25004   2.963   8.530   7.235  0.4284 -0.0644  0.6551
  186MOL0     O25005   2.982   8.501   7.370 -0.2985 -0.4298 -0.2266
  186MOL0     C25006   2.948   8.371   7.398  0.0060 -0.6121  0.6163
  186MOL0     C25007   3.037   8.264   7.379 -0.5823  0.1995 -0.6863
  186MOL0     C25008   3.001   8.132   7.416 -0.0565  0.3506 -0.1734
  186MOL0     C25009   2.893   8.107   7.492 -0.1454 -0.3067  0.7011
  186MOL0     O25010   2.853   7.980   7.540 -0.3923 -0.1938 -0.5458
  186MOL0     C25011   2.847   7.871   7.446 -0.7583  0.0282 -0.3955
  186MOL0     C25012   2.703   7.845   7.410  0.4781 -0.2280 -0.8772
  186MOL0     C25013   2.616   7.824   7.535  0.1495 -0.0851  0.4999
  186MOL0     C25014   2.469   7.810   7.496  0.4000  0.1241  0.4720
  186MOL0     C25015   2.387   7.762   7.619  0.3310 -0.2661 -0.8099
  186MOL0     C25016   2.356   7.866   7.727 -0.3715  0.1556  0.5336
  186MOL0     C25017   2.248   7.821   7.825  0.7388 -0.3620 -0.0839
  186MOL0     C25018   2.185   7.929   7.916  0.6484  0.9097 -0.2884
  186MOL0    Cl25019   2.324   8.021   7.996  0.0781  0.0529 -0.1041
  186MOL0     C25020   2.807   8.212   7.506  0.7774 -0.1080 -0.8569
  186MOL0     C25021   2.828   8.340   7.458  0.3408 -0.0829  1.1160
  186MOL0     O25022   2.942   8.446   7.148  0.1559  0.8227  0.4909
  186MOL0     C25023   2.997   8.765   7.287  0.2764 -0.1502  0.2128
  186MOL0     C25024   2.974   8.895   7.254  0.4079  0.4542 -0.4137
  186MOL0     N25025   3.252   9.391   6.724  0.5784 -0.0213  0.1289
  186MOL0     N25026   3.353   9.470   6.751  0.9081 -0.6370 -0.3823
  186MOL0     C25027   4.193   9.694   6.497  0.3028 -0.4434  0.3097
  186MOL0     C25028   4.224   9.801   6.420 -0.2294  0.0891  0.2151
  186MOL0     C25029   4.458  10.109   6.200 -0.7477 -0.8452  0.2010
  186MOL0     C25030   4.569  10.156   6.141 -0.0082 -0.5134  0.7405
  186MOL0     C25031   4.564  10.285   6.072  0.1085 -0.0314  0.5515
  186MOL0     C25032   4.453  10.365   6.068  0.4735  0.6329 -0.5824
  186MOL0     O25033   4.437  10.496   6.006 -0.4927 -1.0991 -0.2485
  186MOL0     C25034   4.547  10.548   5.932  0.0734 -0.7122  0.4637
  186MOL0     C25035   4.557  10.487   5.791 -0.3734 -0.0544  0.0080
  186MOL0     C25036   4.464  10.548   5.689 -0.5017 -0.4908  0.4405
  186MOL0     C25037   4.484  10.694   5.655  0.4655  0.5093  0.6288
  186MOL0     C25038   4.405  10.730   5.538  0.6647 -0.6381 -0.3286
  186MOL0     C25039   4.334  10.749   5.443  0.7814 -0.5622  0.1057
  186MOL0     C25040   4.349  10.324   6.148  0.0687  0.1495  0.5852
  186MOL0     C25041   4.342  10.196   6.205  0.8134  0.6122 -0.2135
  186MOL0     C25042   4.220  10.171   6.299  0.0427  0.4005  0.8583
  186MOL0     H25043   4.454   9.655   6.223  1.4081  0.1060  2.4927
  186MOL0     H25044   4.404   9.461   6.360 -1.5129 -0.9036 -0.3245
  186MOL0     H25045   4.321   9.317   6.574 -0.8830  0.7723 -0.1994
  186MOL0     H25046   4.358   9.458   6.682  1.1301 -0.3174 -1.0702
  186MOL0     H25047   4.150   9.410   6.806 -0.1227  0.6689 -1.9977
  186MOL0     H25048   4.256   9.273   6.805  0.6283 -0.2655 -2.1053
  186MOL0     H25049   4.058   9.163   6.743  1.6932 -1.0983 -0.8521
  186MOL0     H25050   4.120   9.223   6.586  3.2810  1.5607  1.8807
  186MOL0     H25051   3.940   9.402   6.738 -0.2168 -1.2294  1.4295
  186MOL0     H25052   3.952   9.419   6.576 -0.6382  1.0916  1.2320
  186MOL0     H25053   3.832   9.170   6.574  0.5557  1.6749 -2.4267
  186MOL0     H25054   3.802   9.230   6.726  5.3092 -0.3438  0.3082
  186MOL0     H25055   3.734   9.381   6.470 -0.2872 -0.6387  0.0883
  186MOL0     H25056   3.627   9.280   6.562  0.2731  0.1479  0.1248
  186MOL0     H25057   3.605   9.542   6.612  1.3356  1.1915 -1.9652
  186MOL0     H25058   3.767   9.522   6.683 -0.7390 -0.7598  1.5766
  186MOL0     H25059   3.658   9.352   6.839  1.7118  0.0574  0.0054
  186MOL0     H25060   3.593   9.518   6.853 -2.1145 -2.0662  2.4758
  186MOL0     H25061   3.494   9.171   6.772  0.0681 -0.6917  2.7981
  186MOL0     H25062   3.120   9.168   6.692 -0.1586  1.7013  0.3174
  186MOL0     H25063   3.257   9.054   6.725  1.1065  1.4252 -3.2911
  186MOL0     H25064   3.114   9.011   6.904 -2.9762  0.7653  3.5160
  186MOL0     H25065   3.252   9.105   6.966  0.7352  0.4203 -1.2683
  186MOL0     H25066   2.982   9.222   6.895  0.5176 -0.7802 -1.4773
  186MOL0     H25067   3.107   9.322   6.964  0.9836 -0.3052 -3.8978
  186MOL0     H25068   2.991   9.256   7.147 -2.9206  1.5164 -5.2930
  186MOL0     H25069   3.102   9.114   7.154 -0.3233 -0.7802  0.0939
  186MOL0     H25070   2.822   8.859   6.950  1.3014 -2.0407 -0.1434
  186MOL0     H25071   2.838   8.637   7.017 -2.8591  0.0704  2.6958
  186MOL0     H25072   3.123   8.289   7.319  0.4332  1.1453  1.0910
  186MOL0     H25073   3.062   8.049   7.383 -1.0259 -1.0484  1.3466
  186MOL0     H25074   2.883   7.895   7.346  1.4588 -0.7677  0.1525
  186MOL0     H25075   2.899   7.782   7.485 -0.6609  1.4497  3.0740
  186MOL0     H25076   2.663   7.937   7.366 -0.1812  1.8359  3.5632
  186MOL0     H25077   2.685   7.757   7.347  0.7972  0.2621 -1.6700
  186MOL0     H25078   2.649   7.734   7.586  2.0792  0.2306 -0.0924
  186MOL0     H25079   2.620   7.908   7.605 -0.3287  1.4748 -1.2437
  186MOL0     H25080   2.464   7.732   7.420  1.6576  0.6504 -0.1989
  186MOL0     H25081   2.441   7.907   7.454 -0.6734 -0.0660  0.7266
  186MOL0     H25082   2.436   7.672   7.656  0.7637 -1.2049 -3.4270
  186MOL0     H25083   2.289   7.728   7.584  0.5601 -0.6370 -1.0959
  186MOL0     H25084   2.442   7.895   7.788 -0.5965  0.9029  0.5045
  186MOL0     H25085   2.313   7.953   7.677 -0.7636 -1.4754 -2.1597
  186MOL0     H25086   2.285   7.747   7.896 -0.2712  2.3238  3.5051
  186MOL0     H25087   2.170   7.782   7.758  0.9470 -0.3453 -0.3396
  186MOL0     H25088   2.130   8.005   7.859  3.9636  2.4635 -1.7227
  186MOL0     H25089   2.111   7.890   7.986  0.4722  2.1502  0.2381
  186MOL0     H25090   2.715   8.205   7.564 -0.0732  2.7756 -1.7119
  186MOL0     H25091   2.746   8.411   7.454  0.5662  0.2561  2.1459
  186MOL0     H25092   3.045   8.748   7.383 -0.4771  0.6490  0.7527
  186MOL0     H25093   3.010   8.976   7.317  1.4308 -0.1223 -0.2381
  186MOL0     H25094   4.124   9.701   6.580  0.0031  2.5168 -0.0679
  186MOL0     H25095   4.181   9.898   6.440  0.9239  0.1247  2.9526
  186MOL0     H25096   4.667  10.110   6.142 -0.5921 -2.0235 -1.9086
  186MOL0     H25097   4.653  10.324   6.023 -0.4041 -0.6097 -0.8669
  186MOL0     H25098   4.636  10.516   5.988 -1.1117 -2.8593  1.2552
  186MOL0     H25099   4.552  10.657   5.930  1.4631 -0.7526  0.6614
  186MOL0     H25100   4.540  10.379   5.792 -1.5340  0.0930  1.9598
  186MOL0     H25101   4.660  10.513   5.767 -0.9077  4.5673  1.6470
  186MOL0     H25102   4.362  10.552   5.729 -0.1470 -2.2215  1.6285
  186MOL0     H25103   4.481  10.482   5.604  1.2008  0.0220  0.3504
  186MOL0     H25104   4.456  10.747   5.746  0.3144 -0.1433  0.9657
  186MOL0     H25105   4.589  10.712   5.630  0.1698  3.5967  1.1879
  186MOL0     H25106   4.275  10.761   5.354 -1.9101 -2.2880  1.5308
  186MOL0     H25107   4.266  10.394   6.151  3.0440  3.9880  2.1311
  186MOL0     H25108   4.162  10.090   6.254  4.1228 -1.8385 -0.9417
  186MOL0     H25109   4.248  10.131   6.397 -1.9404 -2.4220  0.4054
  186MOL0     H25110   4.158  10.261   6.303 -0.5126  0.1829 -1.4449
  187MOL0     O25111   2.245   3.183  11.088  0.1323  0.0715 -0.0643
  187MOL0     C25112   2.275   3.294  11.115 -0.3899  0.6710  0.0232
  187MOL0     O25113   2.387   3.340  11.163 -0.0991  0.4610  0.2828
  187MOL0     C25114   2.491   3.243  11.194 -0.8915 -0.9637 -0.8959
  187MOL0     C25115   2.515   3.246  11.322  0.0139 -0.7670 -0.0252
  187MOL0     C25116   2.621   3.179  11.377  0.1899  0.1853  0.1166
  187MOL0     C25117   2.704   3.093  11.302  1.3329  0.5364  0.2533
  187MOL0     O25118   2.803   3.017  11.350 -0.5579 -0.0509  0.5627
  187MOL0     C25119   2.829   3.020  11.496 -0.6974  0.2175  0.3260
  187MOL0     C25120   2.718   2.936  11.577  0.2327  0.9137  0.0230
  187MOL0     C25121   2.775   2.914  11.713  0.0654  0.2350 -0.6210
  187MOL0     C25122   2.815   3.053  11.786 -0.3782  0.1881  0.7546
  187MOL0     C25123   2.702   3.141  11.825  0.1114 -0.4977  0.0854
  187MOL0     C25124   2.758   3.269  11.887 -0.2725  0.2231  0.3231
  187MOL0     C25125   2.641   3.359  11.928  0.3449  0.1804  1.0614
  187MOL0     C25126   2.678   3.465  12.024  0.2922 -0.2637 -0.3738
  187MOL0     N25127   2.564   3.552  12.046 -0.3217 -0.2763 -0.6725
  187MOL0     C25128   2.458   3.534  12.128 -0.1620 -0.1957 -0.4165
  187MOL0     C25129   2.392   3.649  12.133  0.1101  0.4348 -0.0512
  187MOL0     C25130   2.264   3.672  12.208  0.3945  0.0780 -0.4831
  187MOL0     C25131   2.267   3.679  12.360  0.4296 -0.4323  0.8733
  187MOL0     C25132   2.378   3.776  12.407  0.6078 -0.9259  0.5346
  187MOL0     C25133   2.463   3.714  12.520 -0.6796 -0.3189 -0.2721
  187MOL0     O25134   2.385   3.624  12.604 -0.4068 -0.5697 -0.0957
  187MOL0     C25135   2.425   3.609  12.733 -0.4856  0.4657 -0.1292
  187MOL0     C25136   2.348   3.655  12.835  0.2850  0.9936  0.4464
  187MOL0     C25137   2.380   3.640  12.965 -1.0236 -0.2396 -0.2597
  187MOL0     C25138   2.500   3.573  12.997 -0.1669  0.3805 -0.3246
  187MOL0     C25139   2.531   3.535  13.138 -0.6933  0.1961 -0.5393
  187MOL0     O25140   2.452   3.602  13.239 -0.4027 -0.1828 -0.6466
  187MOL0     C25141   2.480   3.585  13.372  0.4913  0.8871  0.3527
  187MOL0     C25142   2.563   3.484  13.434 -0.0893  0.0051  0.1604
  187MOL0     C25143   2.582   3.487  13.566  0.3307  0.3151 -0.3649
  187MOL0     C25144   2.526   3.583  13.651 -0.0626  0.3472  0.3758
  187MOL0     O25145   2.552   3.588  13.781 -0.6335 -0.3046 -0.2657
  187MOL0     C25146   2.630   3.494  13.848 -0.5812 -0.2375 -1.1099
  187MOL0     C25147   2.649   3.559  13.983  0.2411  0.0435 -0.2934
  187MOL0     C25148   2.606   3.458  14.101  0.2093 -1.1640 -0.3938
  187MOL0     C25149   2.720   3.371  14.132  0.6744 -0.4381 -0.3275
  187MOL0     C25150   2.687   3.268  14.243  0.1382  1.0739  0.4090
  187MOL0     C25151   2.796   3.154  14.261  0.4961 -0.0013  0.9439
  187MOL0     C25152   2.944   3.189  14.256  0.0376 -0.1980 -1.1530
  187MOL0     C25153   2.990   3.277  14.367  0.0929 -0.1540 -0.2392
  187MOL0    Cl25154   3.016   3.184  14.519 -0.0128 -0.1206 -0.0965
  187MOL0     C25155   2.448   3.677  13.594  0.9133  0.2969  0.2888
  187MOL0     C25156   2.421   3.681  13.455 -0.1922 -0.0292 -0.0684
  187MOL0     O25157   2.627   3.452  13.153  0.2973  0.2489  0.5663
  187MOL0     C25158   2.590   3.542  12.886  1.1961 -1.2750  0.4421
  187MOL0     C25159   2.545   3.544  12.757  0.5089  0.4147 -0.3776
  187MOL0     N25160   2.470   3.751  12.067 -0.4010  0.9008 -0.1369
  187MOL0     N25161   2.564   3.686  12.012  0.7973  0.6241 -0.0150
  187MOL0     C25162   2.677   3.088  11.164  0.4413 -0.4944 -0.3912
  187MOL0     C25163   2.563   3.164  11.111  0.0531  0.3875  0.4547
  187MOL0     C25164   2.174   3.399  11.086 -0.5052 -0.2025 -0.2174
  187MOL0     C25165   2.077   3.384  10.978 -0.1690  0.0664 -0.0409
  187MOL0     C25166   1.977   3.473  10.952  0.4584 -0.3440  0.1314
  187MOL0     C25167   1.970   3.591  11.024  0.2877 -0.3174 -0.4788
  187MOL0     O25168   1.869   3.683  11.003  0.2273 -0.0511 -0.1341
  187MOL0     C25169   1.733   3.639  10.977 -0.9102  0.9525 -0.5421
  187MOL0     C25170   1.641   3.765  10.970 -0.6135 -0.1843 -0.0628
  187MOL0     C25171   1.649   3.853  11.094 -0.0391  0.5319  0.5478
  187MOL0     C25172   1.522   3.922  11.134  0.4412 -0.4132 -1.0745
  187MOL0     C25173   1.411   3.937  11.043  0.0945  0.6629 -0.0181
  187MOL0     C25174   1.316   3.956  10.970 -0.8988  0.6155  0.6698
  187MOL0     C25175   2.063   3.615  11.127  0.0002 -0.1410 -0.3612
  187MOL0     C25176   2.167   3.525  11.160  0.0025  0.5227 -0.6774
  187MOL0     C25177   2.259   3.559  11.278 -0.0427  0.3273  0.2502
  187MOL0     H25178   2.458   3.314  11.385 -0.6605 -2.6522  1.5177
  187MOL0     H25179   2.651   3.173  11.481  2.4745 -2.8346 -0.5579
  187MOL0     H25180   2.930   2.989  11.524 -0.0358  1.5774 -0.4520
  187MOL0     H25181   2.836   3.126  11.521  1.4705  1.1369 -3.4092
  187MOL0     H25182   2.700   2.845  11.520  1.2254  1.4224 -1.1475
  187MOL0     H25183   2.618   2.976  11.595 -2.0398 -3.1997 -1.9795
  187MOL0     H25184   2.864   2.851  11.707 -3.1217 -4.5864 -3.1389
  187MOL0     H25185   2.703   2.866  11.780  0.7041  0.3202  0.1477
  187MOL0     H25186   2.855   3.015  11.881 -0.5216  0.2791  0.8523
  187MOL0     H25187   2.896   3.097  11.727 -1.0358  1.1798  0.5708
  187MOL0     H25188   2.646   3.174  11.737  0.9234  1.9693  0.3949
  187MOL0     H25189   2.649   3.098  11.910 -0.8139  2.4427  1.1343
  187MOL0     H25190   2.819   3.251  11.976 -0.1134  0.3061  0.2315
  187MOL0     H25191   2.816   3.322  11.811 -0.5285  0.0229 -0.0176
  187MOL0     H25192   2.557   3.303  11.969 -1.1424 -1.1981 -3.2875
  187MOL0     H25193   2.610   3.404  11.833  3.6750  0.3913 -0.0460
  187MOL0     H25194   2.710   3.419  12.118  0.0847 -0.3853 -0.3620
  187MOL0     H25195   2.762   3.526  11.990  0.7887 -0.1238  1.0207
  187MOL0     H25196   2.426   3.445  12.181  1.2137  0.4798  1.6826
  187MOL0     H25197   2.215   3.762  12.172 -0.0816 -0.7408 -1.9934
  187MOL0     H25198   2.202   3.583  12.191 -1.0279  0.6810  1.2840
  187MOL0     H25199   2.169   3.716  12.392 -0.0380  0.5207 -1.4771
  187MOL0     H25200   2.288   3.575  12.387  1.0869 -0.4397  0.3623
  187MOL0     H25201   2.322   3.861  12.447 -2.2464 -1.9595 -0.9460
  187MOL0     H25202   2.439   3.804  12.321 -1.2748  0.3503 -0.4618
  187MOL0     H25203   2.529   3.784  12.571 -0.1586  0.5176 -1.9915
  187MOL0     H25204   2.535   3.651  12.466  0.3834 -0.5147  1.2987
  187MOL0     H25205   2.262   3.718  12.816  0.4533  0.8899 -0.7350
  187MOL0     H25206   2.321   3.680  13.047 -2.3425  1.0679 -1.7494
  187MOL0     H25207   2.600   3.394  13.387  0.2914  0.9150 -1.3464
  187MOL0     H25208   2.629   3.400  13.611  2.4136  0.1209 -2.7254
  187MOL0     H25209   2.573   3.401  13.843 -0.4795 -0.2805 -1.5063
  187MOL0     H25210   2.719   3.476  13.786  1.7522  0.9978  1.6662
  187MOL0     H25211   2.755   3.586  13.990  0.0183  1.0250 -0.6146
  187MOL0     H25212   2.588   3.649  13.999  0.7677  0.1209  1.4580
  187MOL0     H25213   2.566   3.515  14.186 -1.3208 -3.8665  0.8070
  187MOL0     H25214   2.535   3.392  14.052 -0.7293  2.8801 -5.3201
  187MOL0     H25215   2.805   3.434  14.157 -1.1750  1.5021  1.5400
  187MOL0     H25216   2.754   3.321  14.040 -1.7027  0.0226 -1.5513
  187MOL0     H25217   2.585   3.231  14.224  0.3402 -1.0953  2.9176
  187MOL0     H25218   2.680   3.313  14.342  0.7078  0.5053  0.7124
  187MOL0     H25219   2.769   3.096  14.350  1.9621  0.2965  1.6087
  187MOL0     H25220   2.782   3.081  14.180  2.1283 -0.6808  1.2411
  187MOL0     H25221   2.954   3.237  14.159 -4.6322  4.5310  0.2601
  187MOL0     H25222   3.011   3.104  14.274  0.4482  0.5260  1.0696
  187MOL0     H25223   3.087   3.319  14.341  0.6889 -0.3902  1.4361
  187MOL0     H25224   2.928   3.363  14.395  2.3319  1.1443  1.0159
  187MOL0     H25225   2.379   3.738  13.652 -1.4525 -2.0299  0.1259
  187MOL0     H25226   2.348   3.755  13.422 -1.4011 -0.6187  1.1978
  187MOL0     H25227   2.687   3.495  12.901  1.5651 -1.3007 -1.7170
  187MOL0     H25228   2.602   3.507  12.673  0.4551 -0.1856 -0.1535
  187MOL0     H25229   2.726   3.022  11.093 -0.0685 -0.0665 -1.1501
  187MOL0     H25230   2.531   3.147  11.009 -1.3998 -0.8623  1.0912
  187MOL0     H25231   2.072   3.288  10.928  1.5010  1.0972 -2.3860
  187MOL0     H25232   1.896   3.446  10.884  0.3954  0.0062  0.0588
  187MOL0     H25233   1.698   3.553  11.034  1.8990 -1.4565 -2.1132
  187MOL0     H25234   1.728   3.600  10.874 -0.1786 -1.8402  0.3732
  187MOL0     H25235   1.540   3.725  10.958  1.4369 -5.1519 -5.2286
  187MOL0     H25236   1.667   3.815  10.877  0.4910  0.0769  0.3665
  187MOL0     H25237   1.723   3.929  11.067  1.0043 -1.2084 -1.7983
  187MOL0     H25238   1.694   3.799  11.177  0.7754  0.0926 -0.1735
  187MOL0     H25239   1.484   3.878  11.227 -0.3628 -0.2426 -1.3108
  187MOL0     H25240   1.549   4.022  11.171 -0.1617 -0.1030 -1.4461
  187MOL0     H25241   1.225   3.979  10.920 -0.6214  1.9875  0.7568
  187MOL0     H25242   2.055   3.713  11.173 -2.6124  0.1323 -1.2604
  187MOL0     H25243   2.215   3.642  11.334 -1.3501 -0.5129  0.5003
  187MOL0     H25244   2.252   3.469  11.340  0.8373  0.7291  0.9629
  187MOL0     H25245   2.362   3.583  11.248  0.9850  3.0792  4.9587
  188MOL0     O25246   7.518   6.137   9.997  0.4515 -0.8470 -0.5123
  188MOL0     C25247   7.429   6.226   9.998  0.1968  0.2835 -0.2947
  188MOL0     O25248   7.453   6.357  10.013  0.6402 -0.0603 -0.1555
  188MOL0     C25249   7.560   6.402  10.092  0.2618 -0.8977  0.9546
  188MOL0     C25250   7.633   6.507  10.040 -0.6220  0.4083 -0.0491
  188MOL0     C25251   7.743   6.562  10.111  0.5334 -0.0177  0.6098
  188MOL0     C25252   7.777   6.509  10.235  0.0875  0.0774 -0.2040
  188MOL0     O25253   7.878   6.548  10.319  0.6498  0.7101  0.4067
  188MOL0     C25254   7.983   6.616  10.257 -1.3117 -0.5655  0.3325
  188MOL0     C25255   8.077   6.657  10.373 -0.4332  0.4153 -0.3445
  188MOL0     C25256   8.203   6.734  10.331 -0.5683 -0.8318 -0.0633
  188MOL0     C25257   8.252   6.824  10.445  0.5697  0.9369  0.1551
  188MOL0     C25258   8.388   6.896  10.417  0.4034 -0.2750  0.3918
  188MOL0     C25259   8.410   6.983  10.542 -1.0239 -1.3591  0.0847
  188MOL0     C25260   8.539   7.053  10.542  0.4117 -0.6181 -0.2382
  188MOL0     C25261   8.541   7.180  10.635  0.1613  0.1434 -0.7459
  188MOL0     N25262   8.669   7.250  10.641  0.4427 -0.2797 -0.7949
  188MOL0     C25263   8.737   7.276  10.756  1.3028 -0.4559  0.2388
  188MOL0     C25264   8.851   7.338  10.713  0.0815  0.4407 -0.0953
  188MOL0     C25265   8.951   7.385  10.810 -0.2521 -0.4482 -0.1468
  188MOL0     C25266   8.981   7.537  10.805  0.2653 -0.0391 -0.2407
  188MOL0     C25267   9.097   7.577  10.893 -0.2535  0.0112 -1.0152
  188MOL0     C25268   9.030   7.654  11.011 -0.4481  0.1099 -0.1569
  188MOL0     O25269   9.134   7.702  11.103 -0.1047 -0.5433 -0.1256
  188MOL0     C25270   9.132   7.818  11.167  0.5201 -0.4320 -0.3489
  188MOL0     C25271   9.003   7.876  11.193 -0.3071 -0.1207 -0.7421
  188MOL0     C25272   8.986   7.971  11.293  0.1074  0.1922 -0.1626
  188MOL0     C25273   9.095   8.019  11.364 -0.5295  0.4006  0.6996
  188MOL0     C25274   9.094   8.106  11.478  0.3643 -0.0479 -0.1907
  188MOL0     O25275   9.212   8.161  11.505 -0.8627 -0.4618  0.5335
  188MOL0     C25276   9.247   8.237  11.612 -0.6863  0.3888  0.3908
  188MOL0     C25277   9.196   8.221  11.741  0.0052  0.3226 -0.6696
  188MOL0     C25278   9.259   8.276  11.850  0.1955 -0.0967  0.3024
  188MOL0     C25279   9.365   8.358  11.834 -0.5190 -0.3032 -0.3801
  188MOL0     O25280   9.405   8.424  11.952 -0.1815 -0.4848  0.0975
  188MOL0     C25281   9.510   8.518  11.935 -0.4395  0.2528 -0.0230
  188MOL0     C25282   9.558   8.556  12.078  0.2036  0.7510  0.8575
  188MOL0     C25283   9.693   8.614  12.076 -0.7056  0.4983  0.4147
  188MOL0     C25284   9.730   8.652  12.224  0.5661 -0.4637  0.8144
  188MOL0     C25285   9.870   8.702  12.234  0.2208  0.2576  0.8828
  188MOL0     C25286   9.915   8.713  12.379 -0.4148  1.3697  0.4527
  188MOL0     C25287  10.057   8.756  12.398 -0.1748 -0.3675 -0.8311
  188MOL0     C25288  10.075   8.852  12.518 -0.0810 -0.5242  0.1119
  188MOL0    Cl25289  10.087   8.759  12.664  0.5488  0.2099 -0.1122
  188MOL0     C25290   9.421   8.363  11.713  0.2158  1.5195  0.0598
  188MOL0     C25291   9.371   8.305  11.597  1.2932  0.1835 -0.0129
  188MOL0     O25292   8.989   8.130  11.537  0.2767  0.9435  0.2190
  188MOL0     C25293   9.226   7.977  11.323  0.2045  0.9640 -0.5514
  188MOL0     C25294   9.245   7.874  11.227  0.8291  0.8314 -0.3486
  188MOL0     N25295   8.846   7.337  10.578 -0.1809 -0.3826  0.1739
  188MOL0     N25296   8.738   7.297  10.533  0.7793 -0.0866  0.1519
  188MOL0     C25297   7.698   6.406  10.282 -0.2822  0.5353 -0.1777
  188MOL0     C25298   7.598   6.341  10.208  0.8923 -0.2273 -0.2066
  188MOL0     C25299   7.284   6.188  10.000  0.2828  0.7123 -0.3291
  188MOL0     C25300   7.187   6.282  10.048  0.3292 -0.4160  0.1529
  188MOL0     C25301   7.052   6.244  10.088 -0.8287  0.0695 -0.1425
  188MOL0     C25302   7.006   6.113  10.075  0.8452  0.2856  0.1632
  188MOL0     O25303   6.889   6.073  10.135  0.5577  0.7024 -0.0737
  188MOL0     C25304   6.819   5.952  10.082 -0.9126 -0.5048 -0.2134
  188MOL0     C25305   6.706   5.916  10.171  0.2032  0.5415  0.3989
  188MOL0     C25306   6.606   6.035  10.159  1.0518 -0.2869  0.5348
  188MOL0     C25307   6.479   5.989  10.233 -0.2121 -0.0797 -0.1700
  188MOL0     C25308   6.398   5.891  10.156  0.2323  0.3788 -0.6883
  188MOL0     C25309   6.334   5.801  10.096 -0.3231 -1.0305 -0.1684
  188MOL0     C25310   7.102   6.027  10.016  1.0950 -0.3409 -0.2058
  188MOL0     C25311   7.231   6.062   9.965 -0.7773 -0.1720 -0.0027
  188MOL0     C25312   7.320   5.951   9.902  0.1420 -0.3257 -0.4573
  188MOL0     H25313   7.617   6.550   9.942 -3.4088 -0.0321  0.1395
  188MOL0     H25314   7.795   6.648  10.070 -1.3981  0.5655 -0.7729
  188MOL0     H25315   8.040   6.543  10.198  1.6424 -1.8884  4.3244
  188MOL0     H25316   7.967   6.704  10.195  3.2917  1.8787  2.0980
  188MOL0     H25317   8.108   6.571  10.434  0.0676 -0.4460 -1.7758
  188MOL0     H25318   8.024   6.719  10.446  1.3379  0.7598  0.6945
  188MOL0     H25319   8.185   6.795  10.242 -1.4002 -0.1830  0.5364
  188MOL0     H25320   8.285   6.668  10.300 -1.7668 -2.1425 -0.5521
  188MOL0     H25321   8.180   6.901  10.474  2.8654  2.5278  1.9833
  188MOL0     H25322   8.263   6.758  10.532  0.7721 -1.0950 -1.3362
  188MOL0     H25323   8.460   6.814  10.408 -0.9585 -1.6838  1.7880
  188MOL0     H25324   8.392   6.958  10.327  2.9382 -0.2963  0.4117
  188MOL0     H25325   8.319   7.045  10.545 -1.7245 -2.3731  0.2887
  188MOL0     H25326   8.412   6.916  10.628  1.2942 -2.7277 -0.9457
  188MOL0     H25327   8.558   7.078  10.437  0.5788 -1.2171 -0.3529
  188MOL0     H25328   8.615   6.983  10.578  1.7279  1.4637  1.2818
  188MOL0     H25329   8.462   7.248  10.602  1.3932  1.2551 -1.5127
  188MOL0     H25330   8.507   7.149  10.734 -1.4948  0.7645 -1.1002
  188MOL0     H25331   8.713   7.238  10.855 -0.5519 -0.7174 -0.2795
  188MOL0     H25332   8.933   7.361  10.915 -0.9390 -0.1330 -0.1841
  188MOL0     H25333   9.045   7.339  10.777 -1.3030 -1.6488 -1.6169
  188MOL0     H25334   8.995   7.577  10.704  0.4488 -4.1538 -2.0335
  188MOL0     H25335   8.886   7.583  10.834 -0.2631 -0.6064 -1.0486
  188MOL0     H25336   9.175   7.639  10.848 -3.3847  2.8618 -3.0016
  188MOL0     H25337   9.131   7.487  10.945  0.2979  3.3025  5.2746
  188MOL0     H25338   8.965   7.594  11.076 -3.2493  1.8079 -1.2200
  188MOL0     H25339   8.961   7.726  10.967 -0.0689 -0.8752 -2.5246
  188MOL0     H25340   8.917   7.819  11.155  0.9934 -3.3175  0.7413
  188MOL0     H25341   8.883   7.991  11.319  0.1325  1.4735 -0.9806
  188MOL0     H25342   9.105   8.164  11.756  1.1143 -1.1281  0.8411
  188MOL0     H25343   9.218   8.275  11.950 -0.9189  2.4109 -0.0578
  188MOL0     H25344   9.595   8.486  11.874  0.6057  4.8072 -1.3931
  188MOL0     H25345   9.474   8.611  11.890 -3.1361 -0.1783  1.0414
  188MOL0     H25346   9.486   8.622  12.127 -1.1725 -0.6505  0.8049
  188MOL0     H25347   9.562   8.458  12.127  3.3682 -0.1062 -0.8315
  188MOL0     H25348   9.766   8.538  12.046  0.4306  1.2238  1.2584
  188MOL0     H25349   9.699   8.702  12.011 -0.4057  1.0865  1.2276
  188MOL0     H25350   9.705   8.578  12.301  0.2329  2.1259  3.3860
  188MOL0     H25351   9.671   8.744  12.240  1.2082  0.5384 -1.9972
  188MOL0     H25352   9.878   8.801  12.188 -2.5994  0.5633  0.9082
  188MOL0     H25353   9.931   8.623  12.190  1.3435  1.5982 -0.0719
  188MOL0     H25354   9.841   8.775  12.430 -0.7845  2.6810 -1.5229
  188MOL0     H25355   9.903   8.615  12.426  0.7522 -0.6148 -2.9447
  188MOL0     H25356  10.103   8.815  12.317  1.3138 -0.2414  0.0559
  188MOL0     H25357  10.120   8.667  12.405  1.4552  0.8198  1.3392
  188MOL0     H25358  10.168   8.905  12.497 -0.3241  1.1129  2.6941
  188MOL0     H25359   9.987   8.918  12.517 -0.1599 -0.6309 -0.1077
  188MOL0     H25360   9.516   8.411  11.692  1.2709 -0.6310 -0.3383
  188MOL0     H25361   9.413   8.296  11.497 -0.3878 -3.3751 -0.5382
  188MOL0     H25362   9.320   8.009  11.367 -0.4144  3.7848 -1.0419
  188MOL0     H25363   9.339   7.820  11.228  0.8350  0.7596 -1.7230
  188MOL0     H25364   7.725   6.360  10.377 -0.6378 -0.8635 -0.7271
  188MOL0     H25365   7.562   6.249  10.253  2.1434  0.1631  1.7116
  188MOL0     H25366   7.224   6.379  10.081 -1.9786  0.1063  1.4419
  188MOL0     H25367   7.014   6.321  10.153  0.2751  0.3767  0.1679
  188MOL0     H25368   6.893   5.871  10.074 -0.2368 -0.0479  1.0647
  188MOL0     H25369   6.787   5.976   9.980 -1.2154  1.6883  0.3419
  188MOL0     H25370   6.743   5.899  10.273  1.6779  1.1150 -0.0111
  188MOL0     H25371   6.658   5.821  10.149 -0.2988  1.0175 -0.6137
  188MOL0     H25372   6.579   6.058  10.056  1.7202  0.3663  0.4986
  188MOL0     H25373   6.637   6.127  10.210  1.8847 -0.2168 -0.0779
  188MOL0     H25374   6.502   5.934  10.325 -0.5932 -1.7432 -1.0479
  188MOL0     H25375   6.407   6.069  10.249  0.5269  0.3935  0.9622
  188MOL0     H25376   6.273   5.733  10.040  0.4307 -2.5624  0.8217
  188MOL0     H25377   7.070   5.925   9.996  1.6190 -0.4120 -0.7158
  188MOL0     H25378   7.377   5.986   9.816 -3.0477  1.3605 -2.0959
  188MOL0     H25379   7.388   5.902   9.972  0.8025  0.6418 -0.4082
  188MOL0     H25380   7.252   5.878   9.858 -0.8640 -0.4291  1.1591
  189MOL0     O25381   4.813   0.341   1.424  0.0534  0.0379 -0.5499
  189MOL0     C25382   4.719   0.327   1.351  0.2600  0.3467  0.4828
  189MOL0     O25383   4.736   0.278   1.224 -0.0297 -0.2199  1.0064
  189MOL0     C25384   4.842   0.201   1.177  0.3263 -0.0568  0.2281
  189MOL0     C25385   4.964   0.247   1.147  0.2358  0.1736 -0.0796
  189MOL0     C25386   5.073   0.166   1.115 -0.2104 -0.9683  0.7637
  189MOL0     C25387   5.045   0.028   1.100 -0.0939  1.2402  0.6733
  189MOL0     O25388   5.130  -0.076   1.061 -0.1019 -0.0675 -0.0949
  189MOL0     C25389   5.256  -0.032   1.007 -0.1608  0.1358  0.3138
  189MOL0     C25390   5.352  -0.020   1.133 -0.4555  0.7502 -0.2584
  189MOL0     C25391   5.459   0.093   1.094  0.0099  0.3513  0.4064
  189MOL0     C25392   5.585   0.029   1.044  0.7822 -0.5315 -1.3433
  189MOL0     C25393   5.572  -0.020   0.892  0.1224  0.0008 -0.2002
  189MOL0     C25394   5.713  -0.037   0.820  0.9643  0.5232  0.2892
  189MOL0     C25395   5.771  -0.172   0.859 -0.2030 -0.1407 -0.1278
  189MOL0     C25396   5.918  -0.148   0.809 -0.0112 -0.6956  0.6867
  189MOL0     N25397   6.010  -0.262   0.839  0.1183 -0.1233  1.0632
  189MOL0     C25398   6.079  -0.285   0.955 -0.0153 -0.9626 -0.0262
  189MOL0     C25399   6.141  -0.404   0.952 -0.2018 -0.1478  0.1218
  189MOL0     C25400   6.227  -0.469   1.055  0.6748  0.6506  0.2940
  189MOL0     C25401   6.375  -0.464   1.028  0.3500 -0.3468  0.8746
  189MOL0     C25402   6.431  -0.315   1.041 -0.0436 -0.0080 -0.2716
  189MOL0     C25403   6.406  -0.244   1.182  0.3073  0.6258  0.8981
  189MOL0     O25404   6.475  -0.114   1.169 -0.2688  0.4494 -0.0724
  189MOL0     C25405   6.437  -0.029   1.066  0.5896  0.6395  0.3159
  189MOL0     C25406   6.309  -0.023   1.018  0.3487 -0.2885 -0.4891
  189MOL0     C25407   6.286   0.066   0.916  0.1575 -0.4544 -0.6302
  189MOL0     C25408   6.386   0.143   0.855  0.5628 -0.3335 -0.5705
  189MOL0     C25409   6.355   0.228   0.741  0.4130  0.7464  1.1985
  189MOL0     O25410   6.454   0.319   0.700  0.3390  0.4990 -0.0934
  189MOL0     C25411   6.447   0.393   0.581  0.9835  1.1364 -0.4602
  189MOL0     C25412   6.557   0.436   0.511 -0.2220 -0.8541  0.7127
  189MOL0     C25413   6.546   0.522   0.402 -0.4539 -0.1594 -0.5046
  189MOL0     C25414   6.422   0.584   0.373 -0.2811 -0.7692  0.2405
  189MOL0     O25415   6.392   0.669   0.263 -0.1667 -0.2659 -0.7745
  189MOL0     C25416   6.483   0.675   0.160  0.0019 -0.7928 -0.1458
  189MOL0     C25417   6.428   0.762   0.051 -0.8716 -0.6505  0.1835
  189MOL0     C25418   6.484   0.750  -0.093  1.1902  0.2997 -0.1523
  189MOL0     C25419   6.476   0.893  -0.159 -0.0178  0.2271 -0.7433
  189MOL0     C25420   6.559   0.912  -0.284 -0.5862  0.0710  0.2386
  189MOL0     C25421   6.540   0.798  -0.388 -0.4769  0.2360 -0.6023
  189MOL0     C25422   6.648   0.814  -0.500 -0.1153 -0.3896 -0.3309
  189MOL0     C25423   6.668   0.681  -0.586 -0.2168 -1.0089  0.9282
  189MOL0    Cl25424   6.776   0.689  -0.718  0.2446 -0.3897 -0.5697
  189MOL0     C25425   6.313   0.551   0.453  0.0703 -0.2914  1.5475
  189MOL0     C25426   6.325   0.466   0.558  0.2608 -0.2321 -0.1550
  189MOL0     O25427   6.251   0.200   0.682  0.4301 -0.6798  0.9132
  189MOL0     C25428   6.513   0.146   0.921 -0.6718  1.3761 -0.2115
  189MOL0     C25429   6.538   0.049   1.016 -0.2774  0.2590  0.2852
  189MOL0     N25430   6.126  -0.441   0.824  0.7360 -0.1053  0.0567
  189MOL0     N25431   6.038  -0.362   0.758  0.1705  0.7694 -0.4051
  189MOL0     C25432   4.919  -0.012   1.125  0.4872  0.9747 -0.5046
  189MOL0     C25433   4.815   0.071   1.173 -1.2099  0.2755 -0.3677
  189MOL0     C25434   4.573   0.331   1.393 -0.2824  0.6680 -0.9461
  189MOL0     C25435   4.485   0.224   1.354 -0.0077 -0.4581  0.3878
  189MOL0     C25436   4.350   0.226   1.380 -0.1946  0.6424  0.0385
  189MOL0     C25437   4.291   0.331   1.440 -0.1361  0.1398 -0.9488
  189MOL0     O25438   4.152   0.323   1.456 -0.3260 -0.5681 -1.1812
  189MOL0     C25439   4.087   0.433   1.527 -0.5329  0.2584  0.0305
  189MOL0     C25440   3.941   0.413   1.521  0.0686 -0.6532 -0.2428
  189MOL0     C25441   3.909   0.291   1.592  0.6016  0.5704  0.0351
  189MOL0     C25442   3.766   0.269   1.589  0.0630  0.5703 -0.1711
  189MOL0     C25443   3.730   0.152   1.667  0.0626 -0.2388 -0.1435
  189MOL0     C25444   3.700   0.054   1.740  0.4228 -0.1757 -0.6529
  189MOL0     C25445   4.376   0.439   1.490 -0.9326 -0.2242  0.2390
  189MOL0     C25446   4.516   0.434   1.469  0.6137 -0.7567  0.4663
  189MOL0     C25447   4.597   0.545   1.529  0.4037 -0.4755 -0.2131
  189MOL0     H25448   4.980   0.351   1.171 -0.8845 -0.1122  2.2198
  189MOL0     H25449   5.175   0.204   1.111  0.0853 -1.8052 -0.0310
  189MOL0     H25450   5.297  -0.093   0.926  2.3736 -0.6816  2.0782
  189MOL0     H25451   5.244   0.068   0.966 -1.1668  0.1394  0.5841
  189MOL0     H25452   5.395  -0.120   1.142 -0.9383  0.7145  2.5166
  189MOL0     H25453   5.306   0.001   1.230  2.7079 -1.3583  1.8699
  189MOL0     H25454   5.474   0.164   1.176 -2.0225  0.4976  0.6837
  189MOL0     H25455   5.419   0.156   1.015 -1.5586  1.4315  2.0035
  189MOL0     H25456   5.670   0.096   1.057  0.3088 -0.5513  3.8176
  189MOL0     H25457   5.607  -0.054   1.111 -0.7352  0.4290  0.4180
  189MOL0     H25458   5.509  -0.109   0.886  1.4497 -0.9459 -0.3061
  189MOL0     H25459   5.533   0.063   0.832 -0.3025 -0.7432 -0.9760
  189MOL0     H25460   5.697  -0.023   0.713  2.3165 -1.3295 -0.2210
  189MOL0     H25461   5.779   0.044   0.854  5.3247 -1.4644 -2.4816
  189MOL0     H25462   5.721  -0.261   0.819 -2.2219  1.5510 -1.6036
  189MOL0     H25463   5.779  -0.172   0.968 -0.4766  2.5776 -0.0453
  189MOL0     H25464   5.910  -0.130   0.701  1.6779 -1.8866  0.3183
  189MOL0     H25465   5.963  -0.060   0.857  0.4575 -1.1263  1.0549
  189MOL0     H25466   6.069  -0.219   1.041 -0.5133 -0.4366 -0.4732
  189MOL0     H25467   6.206  -0.433   1.156 -0.9763  1.5862 -0.3352
  189MOL0     H25468   6.206  -0.575   1.068  3.6312 -0.1544 -0.7813
  189MOL0     H25469   6.438  -0.532   1.085  4.1463 -0.3874 -2.8383
  189MOL0     H25470   6.386  -0.499   0.925 -3.2348  0.6974 -0.0092
  189MOL0     H25471   6.383  -0.258   0.961 -1.2853 -2.1104 -1.1390
  189MOL0     H25472   6.537  -0.321   1.012 -0.9170  0.1520 -4.0525
  189MOL0     H25473   6.451  -0.299   1.265  0.2104  0.3348  0.7628
  189MOL0     H25474   6.302  -0.235   1.215  0.8058  2.3508  2.1192
  189MOL0     H25475   6.225  -0.070   1.068 -0.5869  0.2784 -1.4828
  189MOL0     H25476   6.186   0.074   0.874 -0.8174 -1.5524  1.2920
  189MOL0     H25477   6.654   0.391   0.531  1.0881  0.2604 -2.4367
  189MOL0     H25478   6.637   0.535   0.344  0.5155  2.3779  1.3568
  189MOL0     H25479   6.576   0.718   0.200 -0.2505 -1.7479  1.5670
  189MOL0     H25480   6.516   0.576   0.128  4.1011  0.2096  0.3013
  189MOL0     H25481   6.320   0.746   0.049 -0.9564 -0.0309 -0.9666
  189MOL0     H25482   6.450   0.861   0.092 -2.1756  0.1256 -0.9314
  189MOL0     H25483   6.592   0.731  -0.085  1.3211  1.2277  0.4424
  189MOL0     H25484   6.431   0.668  -0.142  0.2493  1.2763 -0.8107
  189MOL0     H25485   6.505   0.970  -0.088 -0.8027 -1.1518  1.1562
  189MOL0     H25486   6.372   0.901  -0.192 -0.3017  1.2543  0.3474
  189MOL0     H25487   6.666   0.932  -0.270 -0.7401  1.9246 -0.9302
  189MOL0     H25488   6.514   0.991  -0.345  1.1187 -1.8729 -3.9604
  189MOL0     H25489   6.564   0.709  -0.330  0.0538  1.4713  1.1640
  189MOL0     H25490   6.440   0.777  -0.427 -0.3252 -4.9606  1.0858
  189MOL0     H25491   6.750   0.843  -0.472  0.3067 -0.6194 -1.5782
  189MOL0     H25492   6.616   0.893  -0.569 -3.2580 -1.0374  0.2691
  189MOL0     H25493   6.693   0.600  -0.518  4.1797 -1.2566 -0.6722
  189MOL0     H25494   6.565   0.672  -0.622 -1.7887  1.4442  4.2362
  189MOL0     H25495   6.214   0.589   0.427  0.6314 -0.5139 -1.1747
  189MOL0     H25496   6.233   0.441   0.610 -0.9583  3.4278 -0.2616
  189MOL0     H25497   6.595   0.202   0.878  1.4611  0.8413  2.8644
  189MOL0     H25498   6.638   0.054   1.057 -0.6028  1.3172  0.9691
  189MOL0     H25499   4.885  -0.114   1.114  0.1874  0.1528  5.0568
  189MOL0     H25500   4.716   0.036   1.202 -0.6623  0.4990  2.0016
  189MOL0     H25501   4.531   0.142   1.300  0.1372 -1.5962  2.1564
  189MOL0     H25502   4.287   0.145   1.348  0.3698 -0.7724  2.2473
  189MOL0     H25503   4.109   0.530   1.480  1.9747  1.1710  2.7430
  189MOL0     H25504   4.127   0.449   1.628 -0.0453  0.3314 -0.1706
  189MOL0     H25505   3.911   0.396   1.417 -0.7155 -0.7263 -0.0128
  189MOL0     H25506   3.886   0.494   1.569  1.4800 -0.0939  0.5048
  189MOL0     H25507   3.943   0.303   1.695  3.1806  1.3839 -0.8149
  189MOL0     H25508   3.947   0.202   1.541  0.3755 -0.1439  1.0890
  189MOL0     H25509   3.709   0.352   1.631  0.9374  0.6624  0.8759
  189MOL0     H25510   3.727   0.267   1.487  1.6577  0.4775 -0.8083
  189MOL0     H25511   3.686  -0.035   1.798  1.0208  0.4251  0.4344
  189MOL0     H25512   4.341   0.513   1.562 -1.4228 -0.4972  0.2859
  189MOL0     H25513   4.628   0.624   1.460 -2.1989  0.1793 -0.7434
  189MOL0     H25514   4.537   0.598   1.603 -0.4798 -2.8101  0.8264
  189MOL0     H25515   4.679   0.492   1.578 -1.9706 -1.8022  2.6541
  190MOL0     O25516   3.469   3.182   9.399  0.3137 -0.2393  0.3823
  190MOL0     C25517   3.533   3.162   9.501 -0.3083 -0.1954 -0.1068
  190MOL0     O25518   3.647   3.083   9.510 -0.7927 -0.4265 -0.6624
  190MOL0     C25519   3.728   3.032   9.406 -0.4361  0.5975 -0.0706
  190MOL0     C25520   3.795   2.918   9.432 -0.0755  0.3610  0.1627
  190MOL0     C25521   3.874   2.874   9.325 -1.0897 -0.2016 -0.7993
  190MOL0     C25522   3.890   2.938   9.203 -0.2407 -0.1642 -0.0749
  190MOL0     O25523   3.967   2.892   9.099 -1.0539 -0.9640  0.9820
  190MOL0     C25524   4.106   2.934   9.092  0.5875  0.8320  0.4909
  190MOL0     C25525   4.138   2.960   8.944  0.8460  0.0734 -0.7896
  190MOL0     C25526   4.285   2.994   8.917 -0.5830  0.9886 -0.3605
  190MOL0     C25527   4.325   2.972   8.775  1.0705  0.8468  0.8271
  190MOL0     C25528   4.472   2.954   8.753 -0.2283 -0.1608 -0.2696
  190MOL0     C25529   4.516   2.935   8.612  1.0717 -0.6816 -0.5246
  190MOL0     C25530   4.497   3.076   8.529  0.8116 -0.7009  0.1371
  190MOL0     C25531   4.535   3.064   8.387  0.0104 -0.0913 -0.0483
  190MOL0     N25532   4.405   3.028   8.321 -0.0272 -0.5563 -0.1426
  190MOL0     C25533   4.340   3.108   8.228  0.2190 -0.2375  0.2926
  190MOL0     C25534   4.214   3.049   8.218 -0.3579  0.4554 -0.5742
  190MOL0     C25535   4.086   3.102   8.168 -0.2575  0.8984  0.5664
  190MOL0     C25536   4.074   3.078   8.014  0.1232  0.5911 -0.3103
  190MOL0     C25537   3.992   2.951   7.991 -0.4872  0.3301 -0.4606
  190MOL0     C25538   4.054   2.823   8.046  0.4836  0.3164  0.6801
  190MOL0     O25539   3.997   2.713   7.958  0.1811  0.2888 -0.1352
  190MOL0     C25540   3.868   2.676   7.981 -0.1819  0.2048  1.0210
  190MOL0     C25541   3.786   2.721   8.082  0.8198 -0.1693 -0.2949
  190MOL0     C25542   3.650   2.690   8.100  0.1981  0.2127  0.2513
  190MOL0     C25543   3.605   2.584   8.014 -0.2954  0.0291  0.4676
  190MOL0     C25544   3.464   2.525   8.038 -0.6745 -0.4658  0.1595
  190MOL0     O25545   3.448   2.396   7.997 -0.1248 -0.7360 -1.0260
  190MOL0     C25546   3.334   2.330   8.033  0.3817 -0.0908 -0.4638
  190MOL0     C25547   3.246   2.297   7.938  0.6215  0.5183  0.6748
  190MOL0     C25548   3.122   2.232   7.963 -1.0284  0.1491  0.5537
  190MOL0     C25549   3.090   2.193   8.101 -0.0091  0.1095  0.5718
  190MOL0     O25550   2.974   2.130   8.144  0.7071  0.3198  0.7620
  190MOL0     C25551   2.928   2.026   8.059  0.9454  0.1198 -0.1699
  190MOL0     C25552   2.865   1.914   8.141 -0.1946  1.0686 -1.4484
  190MOL0     C25553   2.740   1.961   8.222 -0.1131  0.9895  0.0324
  190MOL0     C25554   2.699   1.875   8.343 -0.4160 -0.5599  0.5863
  190MOL0     C25555   2.823   1.859   8.440  0.2156  0.5899 -0.3592
  190MOL0     C25556   2.900   1.971   8.504 -0.1781 -1.0421  0.5217
  190MOL0     C25557   3.000   1.946   8.614 -0.1321 -0.0620  0.3699
  190MOL0     C25558   3.055   2.081   8.667  1.1425  0.3679  0.6486
  190MOL0    Cl25559   3.194   2.067   8.782 -0.1598  0.4985 -0.0861
  190MOL0     C25560   3.186   2.225   8.199 -0.2290 -0.4859  0.4438
  190MOL0     C25561   3.308   2.292   8.159  0.5975 -0.4997 -0.1604
  190MOL0     O25562   3.391   2.586   8.123 -0.3855 -0.7858 -0.0188
  190MOL0     C25563   3.692   2.526   7.920  0.3410 -0.2346 -0.0002
  190MOL0     C25564   3.814   2.577   7.899 -0.3528  0.1093  0.3092
  190MOL0     N25565   4.209   2.935   8.305  0.0974 -0.4467 -0.0403
  190MOL0     N25566   4.325   2.918   8.355 -0.5059 -0.5434 -0.9504
  190MOL0     C25567   3.813   3.048   9.186  0.8198 -0.4918 -0.7309
  190MOL0     C25568   3.727   3.091   9.282 -0.7168 -0.5217 -1.3403
  190MOL0     C25569   3.483   3.232   9.633  0.2017  0.4201  0.5741
  190MOL0     C25570   3.579   3.270   9.724 -0.4262  0.6957 -1.1173
  190MOL0     C25571   3.543   3.340   9.837 -0.1540  1.5773  0.0046
  190MOL0     C25572   3.408   3.374   9.869 -0.1223  0.3446  0.3170
  190MOL0     O25573   3.385   3.430   9.990 -0.7147 -0.1197 -0.0827
  190MOL0     C25574   3.256   3.464  10.035 -0.2158 -0.7880  0.5625
  190MOL0     C25575   3.253   3.538  10.168  0.4637  0.1274 -0.7952
  190MOL0     C25576   3.276   3.690  10.179 -0.1594 -0.1660  0.3554
  190MOL0     C25577   3.242   3.746  10.317 -0.4748  0.1385 -0.3279
  190MOL0     C25578   3.372   3.737  10.397  1.0351 -0.3034 -0.0609
  190MOL0     C25579   3.480   3.727  10.452  0.0791  0.2542 -0.3660
  190MOL0     C25580   3.313   3.336   9.773  0.0183 -0.6856  1.1061
  190MOL0     C25581   3.344   3.269   9.647  0.4710 -0.2531  0.4155
  190MOL0     C25582   3.232   3.248   9.551 -0.3853  0.0137 -0.6330
  190MOL0     H25583   3.807   2.862   9.525  2.4297  0.9079  0.2290
  190MOL0     H25584   3.938   2.788   9.341  0.4406  0.9200 -0.6786
  190MOL0     H25585   4.136   3.016   9.158  4.4588 -0.4839  0.5955
  190MOL0     H25586   4.161   2.844   9.121 -0.7731 -0.7916 -1.6130
  190MOL0     H25587   4.077   3.050   8.932 -1.8672 -1.3753  1.0843
  190MOL0     H25588   4.107   2.872   8.886 -1.1542 -0.2439  0.6464
  190MOL0     H25589   4.338   2.924   8.982 -0.4303  1.7253  0.3347
  190MOL0     H25590   4.321   3.091   8.952 -0.6574  0.3205  1.7195
  190MOL0     H25591   4.276   2.886   8.728  2.9386 -0.0630  0.4689
  190MOL0     H25592   4.296   3.061   8.719 -1.4604 -0.1713  0.3754
  190MOL0     H25593   4.521   3.042   8.795  0.6983 -0.7306 -0.1321
  190MOL0     H25594   4.509   2.866   8.807  1.7494 -2.5880 -4.9791
  190MOL0     H25595   4.621   2.905   8.620  0.8103 -1.1804  1.5828
  190MOL0     H25596   4.465   2.847   8.572  0.1877 -1.8203  2.8254
  190MOL0     H25597   4.565   3.146   8.578 -1.3430  2.4223 -1.0704
  190MOL0     H25598   4.395   3.114   8.526  1.2226  0.3348 -2.4594
  190MOL0     H25599   4.564   3.161   8.348 -2.6635  0.0593 -1.9918
  190MOL0     H25600   4.609   2.985   8.371 -1.2345 -1.0288 -1.5880
  190MOL0     H25601   4.369   3.194   8.168 -1.3198  1.4787  1.8588
  190MOL0     H25602   3.998   3.054   8.210  0.4420  1.0046  2.2161
  190MOL0     H25603   4.094   3.210   8.182 -0.9653  1.3581 -2.0756
  190MOL0     H25604   4.024   3.170   7.981 -2.9122  0.0929  2.3571
  190MOL0     H25605   4.172   3.082   7.966 -0.0738 -0.3197 -0.8076
  190MOL0     H25606   3.979   2.941   7.882 -1.5183  1.0590 -0.4241
  190MOL0     H25607   3.891   2.979   8.023 -0.9976  0.3015 -1.9219
  190MOL0     H25608   4.016   2.825   8.149 -0.2131  0.3819  0.4321
  190MOL0     H25609   4.163   2.817   8.041  0.6958  2.9665  0.6909
  190MOL0     H25610   3.826   2.789   8.156  3.3347 -1.1140 -0.6798
  190MOL0     H25611   3.578   2.728   8.172 -2.6933  0.1905 -2.4294
  190MOL0     H25612   3.259   2.328   7.834  0.1351  4.5835  1.6376
  190MOL0     H25613   3.051   2.202   7.887  1.5275 -3.3249 -0.7079
  190MOL0     H25614   2.849   2.061   7.992  1.8450  1.2229 -0.6868
  190MOL0     H25615   3.014   1.982   8.008  1.4255 -5.1969  4.2210
  190MOL0     H25616   2.825   1.839   8.073 -2.7012 -0.8743  1.8519
  190MOL0     H25617   2.927   1.859   8.212 -2.8917 -1.4773 -0.8864
  190MOL0     H25618   2.764   2.059   8.265  0.9979  0.7985 -0.1375
  190MOL0     H25619   2.657   1.967   8.151 -1.3754  1.0534  1.4413
  190MOL0     H25620   2.659   1.777   8.314 -3.4714  0.4304  1.1846
  190MOL0     H25621   2.610   1.917   8.390  0.0924  1.6427 -0.2876
  190MOL0     H25622   2.902   1.790   8.408 -0.3870 -0.0725 -0.4353
  190MOL0     H25623   2.778   1.802   8.522  2.3991 -3.4783 -1.7259
  190MOL0     H25624   2.951   2.021   8.420  0.8658  1.3569  2.4633
  190MOL0     H25625   2.831   2.045   8.547 -0.6109 -1.6019  0.7951
  190MOL0     H25626   3.081   1.891   8.566 -0.0300  0.3941  0.0104
  190MOL0     H25627   2.952   1.893   8.696  1.1905  0.5209  1.5443
  190MOL0     H25628   3.088   2.149   8.588 -0.2078  0.6677  0.3094
  190MOL0     H25629   2.975   2.126   8.728  0.8739  1.0640 -0.1878
  190MOL0     H25630   3.164   2.209   8.305 -2.5696  0.0971  0.1096
  190MOL0     H25631   3.383   2.323   8.231 -0.6287 -0.5655  1.1945
  190MOL0     H25632   3.665   2.436   7.866 -0.8639 -0.2658  0.6162
  190MOL0     H25633   3.863   2.527   7.815 -0.6629  0.7021 -0.2365
  190MOL0     H25634   3.812   3.105   9.094 -0.9918  3.0916  1.2687
  190MOL0     H25635   3.669   3.179   9.254 -1.1765 -0.0919  0.7332
  190MOL0     H25636   3.685   3.249   9.714 -0.5116 -1.6505  1.4577
  190MOL0     H25637   3.630   3.369   9.896  0.1084  1.5350 -0.3618
  190MOL0     H25638   3.188   3.378  10.035 -2.5530  0.9721  1.4249
  190MOL0     H25639   3.206   3.517   9.953  0.6580  4.1945  2.8958
  190MOL0     H25640   3.321   3.489  10.238 -1.7972  0.2764  1.6410
  190MOL0     H25641   3.164   3.517  10.227  2.5122  0.4938  2.6942
  190MOL0     H25642   3.194   3.732  10.119 -0.1244 -1.5234 -0.7092
  190MOL0     H25643   3.378   3.713  10.147 -0.6038  0.9498 -0.3014
  190MOL0     H25644   3.201   3.846  10.302  0.2794  0.4080 -0.6433
  190MOL0     H25645   3.164   3.691  10.371  1.4854  0.6301  3.3390
  190MOL0     H25646   3.572   3.721  10.506  0.0293 -0.9722 -0.3874
  190MOL0     H25647   3.212   3.356   9.805 -0.1309 -1.5074  1.1513
  190MOL0     H25648   3.153   3.290   9.614  1.1825  3.1379 -0.5538
  190MOL0     H25649   3.222   3.311   9.462  1.1763  1.0266 -0.1248
  190MOL0     H25650   3.218   3.142   9.526 -1.0354 -0.2398  0.6899
  191MOL0     O25651  10.845   6.079   5.253 -0.3366  0.0495 -0.1909
  191MOL0     C25652  10.921   6.020   5.333  0.8520 -0.3759 -1.1232
  191MOL0     O25653  11.030   6.085   5.395  0.4184 -0.0540  0.0945
  191MOL0     C25654  11.079   6.206   5.360  0.3531  0.3471 -0.8070
  191MOL0     C25655  11.060   6.268   5.233 -0.0550 -1.0151 -0.1318
  191MOL0     C25656  11.131   6.387   5.195 -0.4161  0.3315  0.4836
  191MOL0     C25657  11.210   6.445   5.293 -0.4316  0.0174 -1.1374
  191MOL0     O25658  11.266   6.573   5.291 -0.6658 -0.5816 -0.9380
  191MOL0     C25659  11.378   6.599   5.208  0.2378  0.2241 -0.6239
  191MOL0     C25660  11.484   6.682   5.289  1.2400 -0.0479  0.1055
  191MOL0     C25661  11.535   6.608   5.413 -0.1858  0.3374 -0.0678
  191MOL0     C25662  11.664   6.670   5.464 -0.4314 -0.2092 -0.0493
  191MOL0     C25663  11.744   6.572   5.564 -1.3904  0.6057  0.1260
  191MOL0     C25664  11.660   6.509   5.681  0.0039  0.7641  0.3177
  191MOL0     C25665  11.565   6.385   5.649 -0.5447  0.3891 -0.3591
  191MOL0     C25666  11.559   6.293   5.780  0.4010  1.7932  0.1750
  191MOL0     N25667  11.538   6.158   5.745  0.5674 -0.1223  0.1744
  191MOL0     C25668  11.600   6.068   5.656  0.5205 -0.2436 -0.3048
  191MOL0     C25669  11.556   5.944   5.692  0.2170 -0.2282  0.2358
  191MOL0     C25670  11.639   5.818   5.644  0.5110  0.1279 -0.4539
  191MOL0     C25671  11.765   5.808   5.719  0.3345 -0.7222 -0.1753
  191MOL0     C25672  11.859   5.713   5.646  0.2341 -0.5552 -0.5013
  191MOL0     C25673  11.989   5.709   5.718  0.3632  0.1287 -0.5140
  191MOL0     O25674  11.963   5.653   5.844  0.2810  0.2849 -0.0845
  191MOL0     C25675  12.075   5.593   5.897  0.9428  0.3635 -0.8371
  191MOL0     C25676  12.211   5.629   5.886  0.0387  0.2442 -0.9302
  191MOL0     C25677  12.303   5.556   5.943 -0.0664  0.7282 -0.5131
  191MOL0     C25678  12.279   5.438   6.014  0.6799  0.0698  0.6775
  191MOL0     C25679  12.389   5.357   6.071  0.1827  0.3578 -0.4375
  191MOL0     O25680  12.361   5.254   6.158  0.5305 -0.2928  0.4581
  191MOL0     C25681  12.447   5.145   6.188 -1.0885 -0.8973  0.7185
  191MOL0     C25682  12.383   5.028   6.209  0.2941 -0.4868  0.2228
  191MOL0     C25683  12.455   4.917   6.250 -0.7929  0.2872  0.2556
  191MOL0     C25684  12.595   4.934   6.272 -0.1154  0.3712  0.3968
  191MOL0     O25685  12.660   4.824   6.334 -0.0350 -0.1412  0.2877
  191MOL0     C25686  12.799   4.819   6.327 -0.6495 -1.2525  0.0801
  191MOL0     C25687  12.866   4.684   6.369 -0.2561  0.7365  0.6859
  191MOL0     C25688  12.855   4.678   6.518 -0.1078  0.5848  0.2055
  191MOL0     C25689  12.940   4.548   6.554  1.1555  1.3196 -0.3848
  191MOL0     C25690  12.908   4.494   6.701 -0.5998  1.0159 -0.3853
  191MOL0     C25691  12.959   4.357   6.732  0.4481  1.0032  1.1688
  191MOL0     C25692  12.870   4.247   6.654  0.1021  0.8925 -0.6830
  191MOL0     C25693  12.944   4.118   6.670  0.0637 -0.2027  0.7677
  191MOL0    Cl25694  12.944   4.056   6.834  0.2684  0.1080 -0.0906
  191MOL0     C25695  12.662   5.052   6.234  1.0009  0.2741  0.7604
  191MOL0     C25696  12.585   5.162   6.208 -0.0139 -0.5271  0.0963
  191MOL0     O25697  12.493   5.381   6.019  0.0364 -0.0870 -0.1107
  191MOL0     C25698  12.150   5.392   6.016 -0.1775 -0.3213 -0.4472
  191MOL0     C25699  12.049   5.468   5.962 -0.8341  0.3577  0.9587
  191MOL0     N25700  11.457   5.962   5.790  0.1216  0.0332 -0.5523
  191MOL0     N25701  11.446   6.093   5.817  0.7590  0.3941  0.5768
  191MOL0     C25702  11.203   6.395   5.426 -0.0774 -0.0172 -0.1359
  191MOL0     C25703  11.148   6.274   5.453 -0.3256 -0.3479 -0.4874
  191MOL0     C25704  10.873   5.891   5.390 -0.3317 -0.4798  0.8788
  191MOL0     C25705  10.733   5.857   5.374 -0.7773 -0.9737  0.0196
  191MOL0     C25706  10.683   5.737   5.429  0.3562 -0.7593 -0.2946
  191MOL0     C25707  10.768   5.644   5.487  0.5590  0.4101  0.3907
  191MOL0     O25708  10.702   5.536   5.546 -0.1901 -0.2050 -0.2935
  191MOL0     C25709  10.777   5.450   5.632 -0.0214 -0.9710  0.5898
  191MOL0     C25710  10.689   5.331   5.683 -0.2724 -0.1609  0.7270
  191MOL0     C25711  10.658   5.244   5.553 -1.0265  0.1023 -0.9920
  191MOL0     C25712  10.553   5.136   5.593 -0.2810  0.6800 -0.6444
  191MOL0     C25713  10.592   5.058   5.709  0.2391 -0.1358  0.1333
  191MOL0     C25714  10.621   5.006   5.811  0.6534 -0.7913  0.2840
  191MOL0     C25715  10.903   5.672   5.489  0.9915 -0.3072  0.4580
  191MOL0     C25716  10.958   5.800   5.459  0.1592  0.1412  0.3506
  191MOL0     C25717  11.098   5.832   5.482  0.4072  0.0061  0.0245
  191MOL0     H25718  10.997   6.223   5.157  2.0898 -2.1960 -1.3224
  191MOL0     H25719  11.119   6.440   5.101  1.7381  2.3281  1.2517
  191MOL0     H25720  11.426   6.502   5.191  2.5180  1.3823 -1.1105
  191MOL0     H25721  11.346   6.652   5.118  1.4300 -1.1528 -1.9115
  191MOL0     H25722  11.436   6.774   5.324 -0.2011 -0.8020  0.2022
  191MOL0     H25723  11.574   6.702   5.231 -0.1158  2.6031 -1.2629
  191MOL0     H25724  11.548   6.505   5.377  0.4843  0.6296 -0.7061
  191MOL0     H25725  11.452   6.612   5.483 -0.4289 -1.6734 -0.1912
  191MOL0     H25726  11.729   6.686   5.378 -2.0931 -0.5975 -1.4379
  191MOL0     H25727  11.627   6.765   5.503 -2.1106  0.3334 -2.6878
  191MOL0     H25728  11.795   6.498   5.502 -0.0008  1.8370 -0.2807
  191MOL0     H25729  11.822   6.635   5.608 -0.9097 -0.9073  1.5467
  191MOL0     H25730  11.724   6.488   5.768  1.8022  0.3344 -1.0347
  191MOL0     H25731  11.592   6.590   5.707  0.8323  2.0552 -1.3764
  191MOL0     H25732  11.620   6.338   5.568  0.4582  1.5392 -0.3664
  191MOL0     H25733  11.462   6.404   5.615  0.7114  0.6812 -4.5563
  191MOL0     H25734  11.655   6.289   5.832  0.4870 -2.6737 -0.0012
  191MOL0     H25735  11.481   6.335   5.844 -0.7627 -1.6710  1.2065
  191MOL0     H25736  11.680   6.095   5.587 -0.2161 -2.3040 -2.0670
  191MOL0     H25737  11.582   5.729   5.675  1.6798 -0.4549  0.0876
  191MOL0     H25738  11.657   5.830   5.537  3.2438 -2.1349 -0.3639
  191MOL0     H25739  11.812   5.903   5.745 -0.6142 -0.4008  0.4339
  191MOL0     H25740  11.736   5.781   5.821 -1.0785  1.2773  0.0184
  191MOL0     H25741  11.872   5.749   5.544 -1.9034  3.5584  0.4691
  191MOL0     H25742  11.823   5.610   5.654  2.9985 -1.5527  0.0515
  191MOL0     H25743  12.029   5.810   5.731 -1.4966  0.7277  0.8236
  191MOL0     H25744  12.061   5.656   5.655  2.0277  0.3541  1.1130
  191MOL0     H25745  12.226   5.721   5.831 -1.4954  1.2668  0.3131
  191MOL0     H25746  12.403   5.598   5.937  0.2728 -0.2621 -2.4330
  191MOL0     H25747  12.275   5.026   6.216  0.1677 -3.1150 -1.1019
  191MOL0     H25748  12.408   4.826   6.286  1.0458 -1.1845 -0.8645
  191MOL0     H25749  12.833   4.850   6.228 -3.0668  1.8690  0.0659
  191MOL0     H25750  12.833   4.900   6.392  0.3387  0.6384 -2.5971
  191MOL0     H25751  12.806   4.605   6.322 -0.2493 -0.4388  2.5354
  191MOL0     H25752  12.965   4.682   6.323 -0.7246  0.8096 -0.3509
  191MOL0     H25753  12.898   4.766   6.566  0.0482  0.1420  0.9013
  191MOL0     H25754  12.750   4.669   6.548 -0.2375  1.2431 -0.0298
  191MOL0     H25755  13.045   4.571   6.532  1.4086 -1.5041 -2.8127
  191MOL0     H25756  12.909   4.475   6.479  0.8164  1.0501  0.0148
  191MOL0     H25757  12.800   4.486   6.713 -0.2634 -1.9200  1.6570
  191MOL0     H25758  12.937   4.571   6.774  1.3211  0.4044 -0.4305
  191MOL0     H25759  13.065   4.345   6.708 -0.1683  0.9030 -1.9124
  191MOL0     H25760  12.952   4.352   6.841  1.2917  0.4003  1.2021
  191MOL0     H25761  12.862   4.273   6.548  2.6288  1.0508 -0.8948
  191MOL0     H25762  12.766   4.249   6.686  0.3108  1.6705 -0.0158
  191MOL0     H25763  12.904   4.037   6.607  0.5162 -0.5951  0.9799
  191MOL0     H25764  13.048   4.124   6.639  0.5344 -1.5132  1.9706
  191MOL0     H25765  12.770   5.059   6.244  1.6034 -2.4579 -2.2906
  191MOL0     H25766  12.627   5.258   6.178 -1.8980  2.2063  4.9990
  191MOL0     H25767  12.119   5.301   6.067 -0.8673 -0.1494 -0.5461
  191MOL0     H25768  11.944   5.438   5.960 -2.0285  3.9872 -1.4914
  191MOL0     H25769  11.243   6.465   5.499 -0.0737  2.2471 -2.1709
  191MOL0     H25770  11.161   6.227   5.550  0.3940 -1.8830 -1.2981
  191MOL0     H25771  10.662   5.919   5.320 -0.5917 -0.8239 -0.0533
  191MOL0     H25772  10.580   5.710   5.410 -0.4194 -0.0818  2.4972
  191MOL0     H25773  10.806   5.510   5.719 -0.6816  0.0007  0.1520
  191MOL0     H25774  10.872   5.416   5.589  1.7932  3.9119  0.1390
  191MOL0     H25775  10.603   5.371   5.738 -0.0574 -2.0012  2.5099
  191MOL0     H25776  10.749   5.272   5.752  2.6959  2.3410  0.5263
  191MOL0     H25777  10.748   5.200   5.508 -0.6913  1.5787 -1.7970
  191MOL0     H25778  10.614   5.301   5.471 -0.1520  3.2054  0.5399
  191MOL0     H25779  10.455   5.182   5.607  1.5017  3.8228  3.2284
  191MOL0     H25780  10.558   5.067   5.508  0.1565 -0.6869  0.4533
  191MOL0     H25781  10.669   4.951   5.888  4.2821  2.5596  0.7492
  191MOL0     H25782  10.975   5.603   5.531  2.1513  1.0916  0.8608
  191MOL0     H25783  11.120   5.931   5.524  2.0074 -0.6471  0.8075
  191MOL0     H25784  11.146   5.760   5.548 -1.4320  0.4763  1.9868
  191MOL0     H25785  11.137   5.836   5.380  1.0769  0.1765  0.2839
  192MOL0     O25786   2.911   0.059   9.410  0.1779  0.2706 -0.7144
  192MOL0     C25787   2.963   0.171   9.401 -0.0936  0.8620 -0.0765
  192MOL0     O25788   2.920   0.290   9.442  0.3294 -0.3394  1.0648
  192MOL0     C25789   2.803   0.299   9.526 -0.3533 -0.2456 -0.1851
  192MOL0     C25790   2.820   0.341   9.660  0.1155  0.8487 -0.5483
  192MOL0     C25791   2.703   0.342   9.744 -0.0476 -0.1754 -0.9510
  192MOL0     C25792   2.571   0.303   9.700  0.7750 -0.0614  0.7128
  192MOL0     O25793   2.463   0.285   9.774  0.2106  0.1149  0.2298
  192MOL0     C25794   2.482   0.214   9.892 -0.2449  0.2937  0.0318
  192MOL0     C25795   2.340   0.201   9.953 -0.6721  0.4037 -0.4590
  192MOL0     C25796   2.243   0.088   9.909  0.2493  0.8200  0.2215
  192MOL0     C25797   2.131   0.081  10.017 -0.2351 -0.0220 -0.8658
  192MOL0     C25798   2.012   0.015   9.953  0.7303  0.7761  0.2984
  192MOL0     C25799   1.899   0.008  10.043 -0.1735  0.6367  0.3112
  192MOL0     C25800   1.779  -0.041   9.957  0.9414 -0.3736 -0.2020
  192MOL0     C25801   1.713   0.066   9.865  0.2857 -0.1904 -0.4909
  192MOL0     N25802   1.607   0.003   9.788 -0.0007 -0.3911 -0.4965
  192MOL0     C25803   1.491   0.062   9.755  0.4095  1.3873 -0.1056
  192MOL0     C25804   1.419  -0.025   9.685  0.3363  0.8453 -0.9947
  192MOL0     C25805   1.295   0.010   9.614  0.8816  0.4703 -0.3580
  192MOL0     C25806   1.182  -0.096   9.611  0.2961 -1.2736  0.2011
  192MOL0     C25807   1.232  -0.219   9.530 -0.2879 -0.0172  0.7550
  192MOL0     C25808   1.114  -0.304   9.466  0.7912  0.3152  0.2658
  192MOL0     O25809   1.072  -0.218   9.360  0.1976 -0.0291 -0.0494
  192MOL0     C25810   0.985  -0.272   9.269  0.6762 -0.6883  0.5655
  192MOL0     C25811   1.028  -0.330   9.154 -0.9720  0.2344 -0.5214
  192MOL0     C25812   0.945  -0.378   9.056 -0.0280 -0.4247 -0.1316
  192MOL0     C25813   0.800  -0.357   9.068 -0.0529  0.3640  0.5782
  192MOL0     C25814   0.707  -0.395   8.967  0.2559  0.0302  0.5954
  192MOL0     O25815   0.580  -0.356   8.980  0.0615  0.7314 -0.0874
  192MOL0     C25816   0.489  -0.411   8.892 -0.0811  1.2451 -0.0806
  192MOL0     C25817   0.454  -0.547   8.900 -0.3682 -0.3455  0.5477
  192MOL0     C25818   0.358  -0.594   8.815  0.0954  0.7666 -0.4456
  192MOL0     C25819   0.292  -0.516   8.718  0.6411 -0.9615 -0.5200
  192MOL0     O25820   0.180  -0.567   8.654  1.0345 -1.0173 -0.2932
  192MOL0     C25821   0.207  -0.621   8.525  0.6688  0.1510  1.2820
  192MOL0     C25822   0.267  -0.509   8.429  1.2513 -0.3943 -0.0287
  192MOL0     C25823   0.295  -0.564   8.286  0.5449  0.2314  0.3287
  192MOL0     C25824   0.357  -0.460   8.186 -0.3032 -0.8139  0.5538
  192MOL0     C25825   0.275  -0.337   8.139 -0.3594  0.2273 -0.3908
  192MOL0     C25826   0.131  -0.371   8.093 -0.8357  0.3098 -1.3545
  192MOL0     C25827   0.072  -0.256   8.002 -0.0513 -0.0303 -0.5071
  192MOL0     C25828  -0.042  -0.304   7.918  0.0532  0.0425 -0.3558
  192MOL0    Cl25829  -0.181  -0.333   8.012  0.2736 -0.5039 -0.0173
  192MOL0     C25830   0.322  -0.381   8.714 -1.2527 -0.4482  0.0810
  192MOL0     C25831   0.430  -0.330   8.795  0.3742 -0.0640  0.4348
  192MOL0     O25832   0.755  -0.467   8.883  0.4326  0.5084 -0.1689
  192MOL0     C25833   0.760  -0.308   9.190  0.5003 -0.8903 -0.0852
  192MOL0     C25834   0.847  -0.260   9.291  0.5228 -1.0859  0.6811
  192MOL0     N25835   1.496  -0.137   9.661  0.0011  0.3488 -0.2623
  192MOL0     N25836   1.616  -0.109   9.721 -0.7356  0.8818  0.6134
  192MOL0     C25837   2.558   0.273   9.559  0.7431  0.2981  0.2991
  192MOL0     C25838   2.676   0.261   9.473  0.2120  1.0681  0.5992
  192MOL0     C25839   3.088   0.176   9.319 -1.0257  0.0981 -0.5155
  192MOL0     C25840   3.112   0.288   9.235 -0.8743  0.4870 -0.4482
  192MOL0     C25841   3.220   0.283   9.140  0.8120 -0.1965 -0.2443
  192MOL0     C25842   3.321   0.190   9.157  0.3703  0.3637 -0.0701
  192MOL0     O25843   3.446   0.187   9.091  0.7632  0.5758 -1.0591
  192MOL0     C25844   3.492   0.318   9.049 -0.3817 -0.9219  0.8799
  192MOL0     C25845   3.645   0.316   9.010 -0.9661 -0.7685 -1.0216
  192MOL0     C25846   3.700   0.460   9.001 -0.5126  0.2654 -0.1921
  192MOL0     C25847   3.784   0.496   9.119  1.0631 -0.4553 -1.0329
  192MOL0     C25848   3.851   0.625   9.100 -0.0434  0.4802 -0.5555
  192MOL0     C25849   3.913   0.731   9.087 -0.1403  0.1285 -0.0077
  192MOL0     C25850   3.296   0.079   9.243 -0.7160 -0.2324  0.6472
  192MOL0     C25851   3.190   0.072   9.323  0.2274  0.2049  0.2183
  192MOL0     C25852   3.168  -0.052   9.410 -0.0380  0.3188  0.7436
  192MOL0     H25853   2.916   0.368   9.703  1.7056  0.7587 -3.7769
  192MOL0     H25854   2.712   0.375   9.847 -0.1888 -1.5817 -0.4640
  192MOL0     H25855   2.535   0.121   9.875 -2.2335 -0.4886 -2.4843
  192MOL0     H25856   2.536   0.279   9.962 -1.7072  2.4424 -0.7329
  192MOL0     H25857   2.285   0.296   9.955 -0.8832  0.3089  2.3899
  192MOL0     H25858   2.356   0.175  10.058  1.3785  3.5177  0.1341
  192MOL0     H25859   2.294  -0.008   9.896 -3.1224 -1.2514  0.8979
  192MOL0     H25860   2.197   0.107   9.811 -0.5416  0.3637  0.4928
  192MOL0     H25861   2.156   0.061  10.122 -1.3958 -0.3840 -0.6503
  192MOL0     H25862   2.109   0.188  10.018  0.5088  0.1631 -2.1538
  192MOL0     H25863   1.984   0.067   9.861 -1.5063 -3.2213 -1.5071
  192MOL0     H25864   2.042  -0.086   9.924 -0.2595  0.7158 -0.5519
  192MOL0     H25865   1.919  -0.064  10.124  2.9860  0.1448 -0.7699
  192MOL0     H25866   1.871   0.109  10.075 -3.1334  0.4577 -1.3537
  192MOL0     H25867   1.696  -0.082  10.016  1.1006 -2.8298 -1.5539
  192MOL0     H25868   1.803  -0.129   9.897 -2.9340 -2.4840  0.9825
  192MOL0     H25869   1.680   0.150   9.926 -0.9609 -0.3590 -0.8985
  192MOL0     H25870   1.788   0.099   9.792  1.0127 -1.3013 -0.2837
  192MOL0     H25871   1.465   0.165   9.778 -0.3371  0.5905  3.1063
  192MOL0     H25872   1.268   0.106   9.659  4.5629  1.2164  0.5334
  192MOL0     H25873   1.327   0.029   9.512  0.6978 -2.8359 -1.1601
  192MOL0     H25874   1.156  -0.128   9.712  2.3909  0.2095  1.2862
  192MOL0     H25875   1.095  -0.049   9.565 -0.0311 -0.5848  1.4881
  192MOL0     H25876   1.290  -0.290   9.590  1.0617 -1.8135 -2.4503
  192MOL0     H25877   1.308  -0.191   9.457  1.9360 -0.5408  2.7333
  192MOL0     H25878   1.032  -0.319   9.536 -2.0908  2.6426 -2.3122
  192MOL0     H25879   1.149  -0.404   9.440  0.0095 -0.1870  1.0912
  192MOL0     H25880   1.137  -0.329   9.156 -0.9509  2.2824  0.3409
  192MOL0     H25881   0.997  -0.416   8.969  1.4355  1.0874  0.0258
  192MOL0     H25882   0.505  -0.623   8.958  1.6231  0.0433 -0.5873
  192MOL0     H25883   0.331  -0.698   8.832  2.7108  0.2650  1.2623
  192MOL0     H25884   0.278  -0.704   8.538 -1.7779 -2.2289  0.3795
  192MOL0     H25885   0.124  -0.675   8.479  0.7616 -0.6111  1.9913
  192MOL0     H25886   0.191  -0.429   8.429  1.8468  0.2745 -2.7449
  192MOL0     H25887   0.358  -0.465   8.470  0.9066  2.4680 -2.0272
  192MOL0     H25888   0.368  -0.641   8.310  2.6427  1.7989 -0.7426
  192MOL0     H25889   0.207  -0.615   8.246 -1.5940  3.6663  0.1879
  192MOL0     H25890   0.379  -0.513   8.093 -1.3477 -1.6790  0.7863
  192MOL0     H25891   0.454  -0.424   8.221 -1.0033 -0.0585  1.7579
  192MOL0     H25892   0.324  -0.285   8.057  0.6629  2.2055  1.3761
  192MOL0     H25893   0.281  -0.274   8.228  0.7936 -2.7758  1.8359
  192MOL0     H25894   0.118  -0.462   8.034 -0.7193  0.4090 -1.5331
  192MOL0     H25895   0.068  -0.391   8.180  0.3340  2.5309  0.0940
  192MOL0     H25896   0.155  -0.222   7.940  2.9680 -2.9922  1.5693
  192MOL0     H25897   0.045  -0.179   8.074  4.6840  1.1516  0.3571
  192MOL0     H25898  -0.074  -0.222   7.854 -2.7270  2.5239  3.7632
  192MOL0     H25899  -0.011  -0.396   7.868 -1.9893 -1.5678  1.1657
  192MOL0     H25900   0.285  -0.310   8.640  2.3690 -1.1191 -2.6447
  192MOL0     H25901   0.476  -0.233   8.778 -0.5850  0.1100 -1.4125
  192MOL0     H25902   0.658  -0.272   9.201  1.7696  3.1903 -0.2108
  192MOL0     H25903   0.825  -0.223   9.391  3.9935 -1.9830  1.9184
  192MOL0     H25904   2.469   0.240   9.507 -0.0606  1.8213  0.6849
  192MOL0     H25905   2.670   0.218   9.373  0.5584  0.2677  0.9065
  192MOL0     H25906   3.047   0.375   9.242  0.0253  1.0742  1.2158
  192MOL0     H25907   3.211   0.358   9.062 -3.7815  0.6767  0.7990
  192MOL0     H25908   3.469   0.395   9.124  0.9113 -1.4188  1.8203
  192MOL0     H25909   3.442   0.344   8.955  2.8631  0.1336 -0.7116
  192MOL0     H25910   3.665   0.275   8.910 -1.2146 -0.1485 -1.3253
  192MOL0     H25911   3.712   0.263   9.079  1.2102  0.5438 -2.0212
  192MOL0     H25912   3.627   0.540   8.981  1.3621  1.8223 -1.1007
  192MOL0     H25913   3.766   0.464   8.914  0.1720 -0.7670  0.2617
  192MOL0     H25914   3.719   0.504   9.206  1.7461 -0.2436 -0.5305
  192MOL0     H25915   3.860   0.418   9.133 -2.2564 -4.1209 -1.3899
  192MOL0     H25916   3.977   0.812   9.060  0.5871 -0.6327 -0.6103
  192MOL0     H25917   3.361  -0.007   9.255 -1.0339 -1.2316 -3.3691
  192MOL0     H25918   3.145  -0.024   9.513 -1.6246 -0.3698  0.5951
  192MOL0     H25919   3.086  -0.112   9.370 -1.4134  2.3014  0.4780
  192MOL0     H25920   3.250  -0.125   9.417 -1.1383 -0.9389  1.0852
  193MOL0     O25921   4.163   4.660   7.758  0.2149  0.3552 -0.5343
  193MOL0     C25922   4.169   4.781   7.728 -0.0191 -0.2509 -0.0341
  193MOL0     O25923   4.245   4.875   7.791  0.4649 -0.2493  0.6484
  193MOL0     C25924   4.368   4.833   7.845 -0.9615 -0.3579 -0.1755
  193MOL0     C25925   4.384   4.737   7.948 -1.5783  0.5316 -0.9139
  193MOL0     C25926   4.516   4.729   8.000  0.6812  0.6933 -0.2239
  193MOL0     C25927   4.628   4.778   7.933  0.2400  0.5416 -0.7636
  193MOL0     O25928   4.755   4.751   7.992 -0.1673  0.6433 -0.0421
  193MOL0     C25929   4.832   4.648   7.927 -0.0914 -0.2365  0.1780
  193MOL0     C25930   4.919   4.700   7.818 -0.2417 -0.2296  0.7279
  193MOL0     C25931   5.025   4.793   7.868  1.0761 -0.4348  0.4945
  193MOL0     C25932   5.112   4.841   7.745 -0.2250  0.1079  0.4746
  193MOL0     C25933   5.239   4.895   7.797 -0.5458 -0.6159 -0.1293
  193MOL0     C25934   5.340   4.885   7.682 -0.1693  0.6308 -0.8048
  193MOL0     C25935   5.475   4.951   7.702 -0.1558 -1.1170 -0.3826
  193MOL0     C25936   5.541   4.906   7.841  0.6363  0.6948  0.7441
  193MOL0     N25937   5.682   4.952   7.862 -0.0306  0.5369 -0.4235
  193MOL0     C25938   5.715   5.072   7.918  0.6077  0.5523  1.0580
  193MOL0     C25939   5.842   5.088   7.880 -0.6520 -0.3041  0.5298
  193MOL0     C25940   5.921   5.214   7.906  0.4250  0.2868 -0.8397
  193MOL0     C25941   5.968   5.228   8.052 -0.1840 -0.1135  1.1526
  193MOL0     C25942   6.062   5.352   8.083 -0.3458  0.0220  0.7931
  193MOL0     C25943   6.007   5.484   8.032  0.0791  1.4553 -0.3442
  193MOL0     O25944   6.113   5.572   8.021  0.0230 -0.3815 -0.1526
  193MOL0     C25945   6.098   5.695   7.965  0.8829 -0.2382 -0.8462
  193MOL0     C25946   6.147   5.807   8.034  0.1282  0.7739 -0.0818
  193MOL0     C25947   6.136   5.930   7.981  0.1592 -0.3000  0.3230
  193MOL0     C25948   6.060   5.947   7.863  0.7776 -0.4122  0.6217
  193MOL0     C25949   6.045   6.091   7.820 -0.4425  0.6335 -0.8886
  193MOL0     O25950   6.115   6.186   7.885 -0.4366  0.4605  0.4760
  193MOL0     C25951   6.183   6.290   7.828  0.0830  0.1437  0.9266
  193MOL0     C25952   6.245   6.362   7.933 -0.1893 -0.5339 -0.1607
  193MOL0     C25953   6.315   6.474   7.891 -0.0103 -0.0915 -0.4943
  193MOL0     C25954   6.338   6.505   7.758 -0.3519 -0.3619  0.7035
  193MOL0     O25955   6.402   6.620   7.727  0.5652 -0.5543  0.2365
  193MOL0     C25956   6.542   6.600   7.727 -0.0087  0.1986  0.3101
  193MOL0     C25957   6.591   6.548   7.600 -1.4946  0.6544  1.1267
  193MOL0     C25958   6.602   6.645   7.479  0.2998  0.2266  0.2712
  193MOL0     C25959   6.710   6.595   7.382  0.5477 -0.2986 -1.0348
  193MOL0     C25960   6.759   6.721   7.309 -0.1111 -0.2532  0.0206
  193MOL0     C25961   6.696   6.741   7.165 -0.5163  0.7243 -0.2663
  193MOL0     C25962   6.748   6.863   7.083  0.3343  0.7610 -0.7528
  193MOL0     C25963   6.788   6.984   7.160 -0.2472  0.2330  0.0670
  193MOL0    Cl25964   6.661   7.049   7.266 -0.2031 -0.7432 -0.3730
  193MOL0     C25965   6.271   6.436   7.660  0.6835 -0.3524 -0.2028
  193MOL0     C25966   6.198   6.324   7.695  0.5858 -0.6185  1.0162
  193MOL0     O25967   5.967   6.107   7.729  0.1195  0.5677  0.0881
  193MOL0     C25968   6.004   5.840   7.791 -0.9519  0.2179 -0.4288
  193MOL0     C25969   6.032   5.709   7.842 -0.2430 -0.2181 -1.1397
  193MOL0     N25970   5.885   4.987   7.809 -0.4190 -0.2909  1.4056
  193MOL0     N25971   5.790   4.902   7.799  0.2848 -0.8020 -0.2698
  193MOL0     C25972   4.619   4.863   7.829 -0.2435  0.5077  0.7476
  193MOL0     C25973   4.489   4.896   7.791  0.9463  0.7103 -0.0106
  193MOL0     C25974   4.086   4.814   7.607  0.5631  1.0040 -0.3283
  193MOL0     C25975   3.979   4.911   7.614  0.7925  0.2201 -0.2494
  193MOL0     C25976   3.898   4.949   7.510 -0.6598  0.7536  0.3915
  193MOL0     C25977   3.918   4.880   7.394  0.9318  0.0108  0.9460
  193MOL0     O25978   3.849   4.908   7.275 -0.2257 -0.6849 -0.1232
  193MOL0     C25979   3.834   5.040   7.233  0.2731  0.0152 -0.9807
  193MOL0     C25980   3.684   5.071   7.233 -0.3059 -0.2378 -0.3753
  193MOL0     C25981   3.607   4.995   7.110  0.3463 -0.4819 -0.1700
  193MOL0     C25982   3.483   5.061   7.050 -1.0538  0.6002 -0.4802
  193MOL0     C25983   3.384   5.073   7.158  0.5384 -0.2906  0.7584
  193MOL0     C25984   3.302   5.079   7.242 -0.2185  0.2204 -0.7587
  193MOL0     C25985   4.020   4.779   7.381  0.8144  0.0295 -1.1555
  193MOL0     C25986   4.105   4.750   7.482 -0.9764  0.1297 -0.4545
  193MOL0     C25987   4.223   4.670   7.454  0.7319 -0.2892  0.5794
  193MOL0     H25988   4.295   4.697   7.994  0.6562 -1.5366  1.9930
  193MOL0     H25989   4.530   4.670   8.090  3.0435  2.3025  0.5707
  193MOL0     H25990   4.903   4.613   8.002 -0.1004  0.8040  0.6988
  193MOL0     H25991   4.763   4.570   7.895 -2.3073  1.7710 -0.2809
  193MOL0     H25992   4.858   4.762   7.751  2.5578 -1.2085 -3.0341
  193MOL0     H25993   4.974   4.621   7.766  2.8068  0.0475  3.2424
  193MOL0     H25994   5.083   4.749   7.950  2.1593 -0.1300 -0.0830
  193MOL0     H25995   4.978   4.885   7.904  1.9751 -0.3878  1.6258
  193MOL0     H25996   5.142   4.757   7.682 -0.4095  0.8119 -0.5740
  193MOL0     H25997   5.056   4.914   7.686 -1.7172  1.4285  3.3325
  193MOL0     H25998   5.233   4.998   7.832  0.7772  0.5297 -3.0023
  193MOL0     H25999   5.284   4.834   7.876  2.5079  0.3566 -1.0188
  193MOL0     H26000   5.354   4.778   7.667 -1.5541  0.6707 -2.5947
  193MOL0     H26001   5.296   4.931   7.593 -0.3092 -1.1178 -1.6673
  193MOL0     H26002   5.464   5.060   7.695  1.6578 -0.9575 -1.3676
  193MOL0     H26003   5.548   4.921   7.627  0.8003 -1.8077  0.7804
  193MOL0     H26004   5.488   4.936   7.932 -0.1463 -1.5689  1.1075
  193MOL0     H26005   5.556   4.798   7.849  0.6922  0.6759  0.4086
  193MOL0     H26006   5.662   5.147   7.975  3.2173  2.9346  0.5705
  193MOL0     H26007   6.002   5.217   7.832  0.4624  0.9317 -0.7810
  193MOL0     H26008   5.858   5.294   7.864  1.3984  0.3784 -2.1928
  193MOL0     H26009   5.881   5.209   8.116 -1.0905  0.4703  0.1181
  193MOL0     H26010   6.030   5.139   8.067  1.9552  0.7814 -1.5959
  193MOL0     H26011   6.155   5.342   8.027  0.3398 -0.7688  2.0324
  193MOL0     H26012   6.086   5.367   8.189  1.6780 -1.5111  0.6027
  193MOL0     H26013   5.934   5.526   8.101 -1.4079 -1.3781 -0.0710
  193MOL0     H26014   5.961   5.476   7.933 -2.8334 -4.9033  1.0299
  193MOL0     H26015   6.201   5.793   8.127  0.5457  3.2248  0.1178
  193MOL0     H26016   6.180   6.015   8.032 -1.4050  2.3302 -2.3402
  193MOL0     H26017   6.237   6.332   8.036 -0.9105  0.2565  0.0275
  193MOL0     H26018   6.372   6.535   7.961 -2.3379  3.1044 -1.1925
  193MOL0     H26019   6.605   6.688   7.737  2.1979 -0.4992 -4.8143
  193MOL0     H26020   6.567   6.524   7.803  0.4421 -1.0193 -1.0070
  193MOL0     H26021   6.693   6.519   7.627 -1.6916 -1.1245  0.1420
  193MOL0     H26022   6.538   6.453   7.587 -0.6173  0.2367  0.4362
  193MOL0     H26023   6.509   6.659   7.423  1.6216  4.9535 -1.1466
  193MOL0     H26024   6.626   6.739   7.529  1.5102 -0.6052  1.3156
  193MOL0     H26025   6.673   6.528   7.305 -1.7221  0.7378 -0.9176
  193MOL0     H26026   6.800   6.554   7.430  0.7418  0.0235 -1.1161
  193MOL0     H26027   6.868   6.709   7.304  0.3657  3.1376 -0.4477
  193MOL0     H26028   6.739   6.807   7.374 -0.2725 -2.3633  2.9691
  193MOL0     H26029   6.702   6.654   7.099 -1.9319  0.9835 -0.7746
  193MOL0     H26030   6.591   6.747   7.197  0.2767 -2.7678  4.2099
  193MOL0     H26031   6.667   6.894   7.017 -0.3427  2.1468  0.6491
  193MOL0     H26032   6.839   6.843   7.025  0.1437 -3.1049  0.0046
  193MOL0     H26033   6.876   6.961   7.221 -1.2539 -0.9013  1.1479
  193MOL0     H26034   6.831   7.058   7.092  0.4147  3.7304  3.9323
  193MOL0     H26035   6.279   6.468   7.557  2.4048  0.7492  0.2273
  193MOL0     H26036   6.154   6.259   7.620  2.2309 -1.3587  0.6504
  193MOL0     H26037   5.969   5.847   7.689  0.6265 -1.1150 -1.0874
  193MOL0     H26038   6.009   5.624   7.779  1.4987 -1.1723 -0.5645
  193MOL0     H26039   4.700   4.904   7.770 -1.5059  0.0272 -1.4564
  193MOL0     H26040   4.471   4.962   7.706 -0.9812  2.7832  1.8877
  193MOL0     H26041   3.961   4.958   7.711  0.0289  0.9215 -0.7226
  193MOL0     H26042   3.817   5.022   7.511 -1.2745  0.1388 -1.2561
  193MOL0     H26043   3.882   5.052   7.135 -1.3409  1.2657 -1.6691
  193MOL0     H26044   3.876   5.119   7.296  2.7394  0.5593 -3.1236
  193MOL0     H26045   3.673   5.178   7.215  1.3312 -0.0287 -0.2870
  193MOL0     H26046   3.653   5.058   7.337  2.9119  2.2155  1.0873
  193MOL0     H26047   3.581   4.893   7.139 -0.5023  0.1499  1.4098
  193MOL0     H26048   3.680   4.975   7.031  0.2812  0.2396 -0.4145
  193MOL0     H26049   3.521   5.157   7.014 -0.8180  1.0789  0.9741
  193MOL0     H26050   3.442   5.003   6.966 -2.7881 -1.9858  1.9619
  193MOL0     H26051   3.224   5.093   7.314 -2.1717 -4.5725 -1.5046
  193MOL0     H26052   4.036   4.734   7.283  0.1786  0.9807 -1.7262
  193MOL0     H26053   4.299   4.683   7.531 -0.6039  0.8091  1.7638
  193MOL0     H26054   4.198   4.564   7.461  0.9058 -0.3401  0.4462
  193MOL0     H26055   4.267   4.699   7.358 -2.7926 -1.4185 -1.5746
  194MOL0     O26056   6.002   1.543   6.563  0.1832 -0.1793 -0.7451
  194MOL0     C26057   5.904   1.607   6.528  0.8960  0.1388 -0.1501
  194MOL0     O26058   5.775   1.563   6.545 -0.3662 -0.5187  0.6233
  194MOL0     C26059   5.746   1.488   6.649 -0.6643  0.3477  0.0301
  194MOL0     C26060   5.756   1.536   6.777 -0.3560  0.7324 -0.5265
  194MOL0     C26061   5.710   1.446   6.881 -0.0194  0.0561 -0.4431
  194MOL0     C26062   5.667   1.314   6.870 -0.8955 -0.4387  0.2336
  194MOL0     O26063   5.649   1.242   6.983 -0.4228 -0.2399  0.1060
  194MOL0     C26064   5.509   1.211   6.985  0.2077  0.3775 -0.1878
  194MOL0     C26065   5.467   1.111   7.101  0.0476 -0.4198  0.4906
  194MOL0     C26066   5.591   1.032   7.143  0.6275 -0.0062 -0.0270
  194MOL0     C26067   5.565   0.956   7.287 -0.3026  0.2850  0.3140
  194MOL0     C26068   5.641   0.828   7.327  1.5140 -0.5734 -0.0294
  194MOL0     C26069   5.792   0.852   7.309 -0.2974  0.7430  0.3295
  194MOL0     C26070   5.876   0.746   7.373 -1.0035 -0.5310 -0.1849
  194MOL0     C26071   5.845   0.600   7.364 -0.2088 -0.1507  0.4206
  194MOL0     N26072   5.930   0.524   7.459  0.1431 -0.1287 -0.3913
  194MOL0     C26073   5.934   0.390   7.449  0.2758  0.1196  0.7187
  194MOL0     C26074   5.987   0.345   7.569  0.8159 -0.3566  0.2576
  194MOL0     C26075   6.003   0.207   7.621 -0.8015 -0.1882  0.8195
  194MOL0     C26076   6.116   0.151   7.524  0.3219  0.0424  0.2880
  194MOL0     C26077   6.148  -0.009   7.555 -0.0997  0.2146  0.7113
  194MOL0     C26078   6.241  -0.034   7.676 -0.6866  0.0361  0.4356
  194MOL0     O26079   6.376   0.006   7.637  0.5049 -0.4452 -0.1905
  194MOL0     C26080   6.450   0.040   7.745 -0.2652 -0.4955  0.6395
  194MOL0     C26081   6.470  -0.019   7.869  0.5263  0.5817 -0.0102
  194MOL0     C26082   6.568   0.030   7.961 -0.4989  0.1126  0.4164
  194MOL0     C26083   6.627   0.155   7.936 -0.0511 -0.1828  0.0999
  194MOL0     C26084   6.724   0.215   8.035  0.3191 -0.0068 -0.4972
  194MOL0     O26085   6.766   0.344   8.023 -0.0265 -0.9420  0.0019
  194MOL0     C26086   6.837   0.389   8.130 -0.2829 -0.2698 -0.6423
  194MOL0     C26087   6.772   0.448   8.243  0.0325 -0.7726  0.4614
  194MOL0     C26088   6.847   0.522   8.336 -0.2350 -0.2907 -0.3507
  194MOL0     C26089   6.990   0.505   8.344 -0.0875 -0.5578  0.4494
  194MOL0     O26090   7.047   0.577   8.445  0.5076 -0.3702  0.1199
  194MOL0     C26091   7.187   0.570   8.465  0.0636 -0.0638  0.9497
  194MOL0     C26092   7.230   0.660   8.575  0.3675 -0.5131 -0.5816
  194MOL0     C26093   7.375   0.648   8.599 -0.4825 -0.2881  0.1201
  194MOL0     C26094   7.422   0.739   8.712 -0.1054  0.1358  0.2682
  194MOL0     C26095   7.571   0.730   8.728 -1.1837  0.4469  0.1645
  194MOL0     C26096   7.604   0.813   8.858  0.2643 -0.3250  0.5874
  194MOL0     C26097   7.756   0.851   8.849  0.1552  0.6106 -0.2793
  194MOL0     C26098   7.850   0.729   8.856  1.7719  0.3147 -0.1926
  194MOL0    Cl26099   7.989   0.781   8.941 -0.1720 -0.2626 -0.1287
  194MOL0     C26100   7.051   0.436   8.244 -0.1941 -0.1546  0.5478
  194MOL0     C26101   6.974   0.370   8.132  0.1198  0.8029 -0.6126
  194MOL0     O26102   6.742   0.144   8.134 -0.1018  0.5964 -0.0012
  194MOL0     C26103   6.592   0.226   7.822 -0.4613 -0.5169  0.2173
  194MOL0     C26104   6.497   0.170   7.730  0.4094  0.8223  0.2547
  194MOL0     N26105   6.020   0.454   7.644  0.1250 -0.0672 -0.2775
  194MOL0     N26106   5.975   0.554   7.585 -0.0801 -0.3033 -0.1394
  194MOL0     C26107   5.649   1.282   6.732 -0.2758 -0.0785 -1.0496
  194MOL0     C26108   5.687   1.361   6.628 -1.3869  0.0810 -0.3691
  194MOL0     C26109   5.930   1.740   6.471  1.1794 -0.8192 -0.2558
  194MOL0     C26110   5.820   1.813   6.431  0.8410 -0.0089  0.5965
  194MOL0     C26111   5.822   1.941   6.380  0.8543 -0.7354 -0.8650
  194MOL0     C26112   5.948   1.997   6.346  0.4895  0.3122  0.3492
  194MOL0     O26113   5.953   2.119   6.289 -0.1250 -0.0438  0.1625
  194MOL0     C26114   6.068   2.173   6.220 -0.5641  0.2684 -0.3104
  194MOL0     C26115   6.073   2.128   6.066  0.5016  0.5437 -0.9602
  194MOL0     C26116   6.209   2.100   5.992 -0.1474 -0.3983  0.5642
  194MOL0     C26117   6.293   2.229   5.986 -0.3030  1.0516 -0.6795
  194MOL0     C26118   6.376   2.243   6.103  1.2447 -0.2343  0.5875
  194MOL0     C26119   6.455   2.238   6.191 -0.2750 -0.7351 -0.5757
  194MOL0     C26120   6.056   1.922   6.376 -0.2510  0.4239  0.2479
  194MOL0     C26121   6.054   1.803   6.445  0.1583  0.6775 -0.2687
  194MOL0     C26122   6.192   1.750   6.492  0.1438 -0.3541 -0.2873
  194MOL0     H26123   5.792   1.635   6.803 -2.5601  0.6664  3.5452
  194MOL0     H26124   5.737   1.469   6.984 -1.1233  0.3552 -0.2035
  194MOL0     H26125   5.447   1.300   6.995 -3.7247 -1.9104 -1.4782
  194MOL0     H26126   5.481   1.169   6.887  0.8942 -0.1041 -0.1812
  194MOL0     H26127   5.389   1.044   7.066 -0.6492 -0.9982  2.9612
  194MOL0     H26128   5.427   1.175   7.180  0.1385  0.2261  0.0183
  194MOL0     H26129   5.673   1.103   7.147  0.5351  0.1118 -0.2382
  194MOL0     H26130   5.619   0.953   7.072 -1.0609 -0.3188 -0.3933
  194MOL0     H26131   5.580   1.026   7.370 -2.9536 -0.7943  1.8152
  194MOL0     H26132   5.459   0.928   7.289 -0.0421 -0.7004  1.4906
  194MOL0     H26133   5.621   0.786   7.426  2.4414  0.0689  0.4397
  194MOL0     H26134   5.604   0.754   7.255  0.5955  0.1340 -0.3035
  194MOL0     H26135   5.808   0.857   7.201 -0.0134  0.7423  0.3706
  194MOL0     H26136   5.817   0.948   7.355  2.0123  1.0311 -1.3395
  194MOL0     H26137   5.876   0.762   7.481 -1.3532  0.0772 -0.2709
  194MOL0     H26138   5.980   0.763   7.344 -0.9673 -0.4504 -0.0059
  194MOL0     H26139   5.741   0.582   7.392 -0.1680 -0.1915  0.5517
  194MOL0     H26140   5.863   0.558   7.265 -2.2748  1.6602 -0.7976
  194MOL0     H26141   5.905   0.334   7.361  0.7157  2.0053 -0.6744
  194MOL0     H26142   6.040   0.204   7.723  0.9612  1.6113  0.2828
  194MOL0     H26143   5.911   0.151   7.603 -0.3006 -1.0168  0.7581
  194MOL0     H26144   6.088   0.168   7.420  0.3952 -2.3168 -0.1738
  194MOL0     H26145   6.206   0.213   7.536  0.2102  0.6026 -1.4715
  194MOL0     H26146   6.180  -0.064   7.467 -1.0862  0.8277 -0.0505
  194MOL0     H26147   6.048  -0.048   7.576 -0.8811  0.7439 -1.7647
  194MOL0     H26148   6.233  -0.140   7.701  1.5985 -0.8227 -1.9732
  194MOL0     H26149   6.222   0.029   7.763  1.0686  0.3429  0.6360
  194MOL0     H26150   6.436  -0.119   7.897  0.7278  0.5569  0.1498
  194MOL0     H26151   6.596  -0.030   8.047 -1.8888 -0.9199  0.1845
  194MOL0     H26152   6.666   0.452   8.265 -0.0635  4.3245  0.4438
  194MOL0     H26153   6.803   0.581   8.415 -0.8040 -3.0216  1.5160
  194MOL0     H26154   7.210   0.464   8.477 -3.2331 -1.7930 -4.4951
  194MOL0     H26155   7.232   0.599   8.369  2.6053 -2.7176  1.1819
  194MOL0     H26156   7.196   0.763   8.562  0.2900  0.0309  2.9565
  194MOL0     H26157   7.178   0.631   8.667 -1.0610 -0.4392 -1.3458
  194MOL0     H26158   7.399   0.544   8.622  0.9004  0.0305  0.2334
  194MOL0     H26159   7.425   0.675   8.506 -0.9069  0.0556 -0.0098
  194MOL0     H26160   7.381   0.711   8.810  4.4993  0.1942  2.5373
  194MOL0     H26161   7.393   0.842   8.691 -2.3565  0.0161  2.3103
  194MOL0     H26162   7.617   0.770   8.637  1.4495 -0.8469  0.8160
  194MOL0     H26163   7.609   0.628   8.734 -1.3868  0.3752  0.2336
  194MOL0     H26164   7.532   0.894   8.872  1.2465  0.8386 -0.8168
  194MOL0     H26165   7.579   0.751   8.944  0.7845 -0.7814  0.4152
  194MOL0     H26166   7.782   0.935   8.915  0.1226 -0.8123  1.6520
  194MOL0     H26167   7.776   0.888   8.748 -0.1686  0.9107 -0.2339
  194MOL0     H26168   7.801   0.644   8.905  1.6056  0.9887  0.8436
  194MOL0     H26169   7.876   0.695   8.755  1.1506 -0.4863 -0.0938
  194MOL0     H26170   7.159   0.426   8.242 -0.1768  0.1357 -1.3023
  194MOL0     H26171   7.012   0.307   8.052  1.5599  0.0510  0.6141
  194MOL0     H26172   6.631   0.326   7.805 -1.1823  0.0254  1.5779
  194MOL0     H26173   6.468   0.222   7.640 -2.9857 -1.4035 -0.1443
  194MOL0     H26174   5.619   1.179   6.714  2.6406 -1.0619 -0.8371
  194MOL0     H26175   5.649   1.323   6.534 -1.0838 -2.1139  0.3314
  194MOL0     H26176   5.723   1.770   6.457  0.9228 -0.4511  0.1815
  194MOL0     H26177   5.731   1.994   6.350  1.2206 -0.0146 -0.7337
  194MOL0     H26178   6.160   2.139   6.268 -0.1473  1.6417 -0.0889
  194MOL0     H26179   6.064   2.282   6.228 -1.9034  0.1789  0.6600
  194MOL0     H26180   6.019   2.202   6.006 -0.4297  0.7108  0.0453
  194MOL0     H26181   6.011   2.039   6.051 -0.7081  0.7678  1.9009
  194MOL0     H26182   6.188   2.067   5.890 -1.1956  0.2003  0.5738
  194MOL0     H26183   6.270   2.022   6.039 -1.2229 -0.3396  2.1373
  194MOL0     H26184   6.359   2.226   5.899  1.3199 -0.5044  0.5446
  194MOL0     H26185   6.231   2.317   5.964 -0.0443  1.1483 -1.0235
  194MOL0     H26186   6.528   2.223   6.268  0.7980  2.1480 -0.9067
  194MOL0     H26187   6.154   1.946   6.337 -0.5378  0.4476 -0.4620
  194MOL0     H26188   6.205   1.729   6.598 -2.5904  1.3319  0.4704
  194MOL0     H26189   6.199   1.649   6.448 -1.6005 -0.3843 -0.5387
  194MOL0     H26190   6.274   1.811   6.453  2.2477 -1.7882  1.6403
  195MOL0     O26191   9.122   0.981  10.906 -0.4576  0.8745  0.1661
  195MOL0     C26192   9.214   1.042  10.951  0.1271  0.4325  0.8615
  195MOL0     O26193   9.319   1.087  10.877 -0.0363 -1.0824  0.1771
  195MOL0     C26194   9.356   1.017  10.772 -0.4994  0.9774  0.4903
  195MOL0     C26195   9.327   0.879  10.745  0.3434  1.2432  0.3890
  195MOL0     C26196   9.339   0.828  10.615 -0.0951 -0.7563 -0.4817
  195MOL0     C26197   9.366   0.916  10.505  0.3305  0.2644 -0.9624
  195MOL0     O26198   9.360   0.861  10.383  0.6129  0.0535 -0.2362
  195MOL0     C26199   9.471   0.868  10.288 -0.3022 -0.0079 -0.7611
  195MOL0     C26200   9.552   0.740  10.277  0.0862  0.7406 -0.2626
  195MOL0     C26201   9.570   0.664  10.407 -0.3793  0.0066 -0.7437
  195MOL0     C26202   9.659   0.740  10.505 -0.4990  0.4998 -0.1502
  195MOL0     C26203   9.673   0.663  10.633 -0.1806  0.5394 -0.5037
  195MOL0     C26204   9.747   0.725  10.744 -0.3749 -1.0155 -1.0827
  195MOL0     C26205   9.718   0.654  10.873 -0.2179  0.2427  0.1766
  195MOL0     C26206   9.838   0.660  10.970  0.0636  0.1562  0.5310
  195MOL0     N26207   9.810   0.556  11.074  0.0891 -0.6557 -0.5158
  195MOL0     C26208   9.727   0.567  11.185 -1.0145 -0.5999 -0.8293
  195MOL0     C26209   9.772   0.460  11.265 -0.4627 -0.5055  1.2209
  195MOL0     C26210   9.732   0.409  11.407  0.7654  0.2633 -0.5163
  195MOL0     C26211   9.803   0.494  11.509 -0.4564  1.0267 -0.3808
  195MOL0     C26212   9.738   0.636  11.537 -0.3382  0.4255  0.1364
  195MOL0     C26213   9.785   0.702  11.671  0.4488  0.4951  0.1618
  195MOL0     O26214   9.767   0.611  11.783  0.4081 -0.7010 -0.3863
  195MOL0     C26215   9.652   0.636  11.857  0.8403 -0.2930  0.1614
  195MOL0     C26216   9.651   0.761  11.934  0.0568  1.1244  0.8677
  195MOL0     C26217   9.539   0.784  12.021  0.2427 -0.1168  0.3408
  195MOL0     C26218   9.425   0.698  12.005 -0.8490  0.0096  0.3566
  195MOL0     C26219   9.303   0.719  12.087  0.4283 -0.5413  0.4688
  195MOL0     O26220   9.177   0.688  12.034  0.1281 -0.4466  0.8211
  195MOL0     C26221   9.057   0.727  12.083  0.7518 -0.7602  0.9029
  195MOL0     C26222   8.954   0.632  12.073 -0.4981  0.3295 -0.4576
  195MOL0     C26223   8.820   0.662  12.097  0.8811  0.8538 -0.6765
  195MOL0     C26224   8.790   0.794  12.135 -0.4233 -0.0666 -0.3774
  195MOL0     O26225   8.662   0.839  12.153  0.1840  0.2950  0.5289
  195MOL0     C26226   8.594   0.810  12.276 -0.0667 -0.2033  0.6275
  195MOL0     C26227   8.442   0.864  12.260  0.7017 -0.1116  0.4762
  195MOL0     C26228   8.362   0.799  12.132 -0.3132 -0.1356 -0.0420
  195MOL0     C26229   8.230   0.882  12.099 -0.4314  0.4764 -0.2175
  195MOL0     C26230   8.126   0.807  11.995  0.0810  0.0026 -0.0039
  195MOL0     C26231   8.056   0.917  11.918  0.5137 -0.0755 -0.8416
  195MOL0     C26232   7.998   0.853  11.789 -0.2300  0.1253 -0.5586
  195MOL0     C26233   7.849   0.818  11.799 -0.2873 -0.2721  0.6740
  195MOL0    Cl26234   7.743   0.958  11.801  0.1106  0.2109  0.0527
  195MOL0     C26235   8.896   0.882  12.148 -0.4699 -0.1762  1.5841
  195MOL0     C26236   9.034   0.853  12.130 -0.7149 -0.2521  0.4746
  195MOL0     O26237   9.316   0.804  12.174 -0.3817  0.4522 -0.8422
  195MOL0     C26238   9.428   0.581  11.930  0.4821  0.1136  0.2090
  195MOL0     C26239   9.546   0.543  11.859  0.7428 -0.5828 -1.3348
  195MOL0     N26240   9.873   0.396  11.198  0.5590  0.3765 -0.4514
  195MOL0     N26241   9.893   0.446  11.083 -0.0920 -0.1908  0.1612
  195MOL0     C26242   9.406   1.048  10.533  0.1820  0.3476 -0.3585
  195MOL0     C26243   9.400   1.101  10.664 -0.5981  0.6910 -0.8852
  195MOL0     C26244   9.192   1.113  11.075 -0.2720  0.5130 -0.4166
  195MOL0     C26245   9.210   1.254  11.073 -0.4964  0.1847  0.7232
  195MOL0     C26246   9.178   1.329  11.181 -0.6603 -0.4379 -0.0635
  195MOL0     C26247   9.112   1.276  11.300  1.0165 -0.2254  0.2101
  195MOL0     O26248   9.077   1.368  11.400  0.1258  0.5008  0.3084
  195MOL0     C26249   9.030   1.288  11.515 -1.0294 -0.3784 -0.5228
  195MOL0     C26250   8.989   1.385  11.631 -0.3109  1.0663  0.0621
  195MOL0     C26251   9.114   1.460  11.681  0.6985 -0.4354  0.2467
  195MOL0     C26252   9.093   1.602  11.749 -0.5806 -0.5464 -1.0186
  195MOL0     C26253   8.990   1.593  11.847 -0.2365 -0.3641  0.8047
  195MOL0     C26254   8.892   1.574  11.924  1.1372 -0.5967 -0.0350
  195MOL0     C26255   9.089   1.141  11.292 -0.2813  0.8948  1.0116
  195MOL0     C26256   9.134   1.055  11.189  0.4069 -0.0353  0.6303
  195MOL0     C26257   9.095   0.904  11.196 -0.8685  0.0178 -0.3390
  195MOL0     H26258   9.291   0.813  10.822  0.1567 -0.3982 -1.0418
  195MOL0     H26259   9.321   0.725  10.587 -1.6975 -0.1405 -1.9099
  195MOL0     H26260   9.426   0.903  10.195 -0.8727  3.3105  0.6394
  195MOL0     H26261   9.544   0.946  10.313  0.9792 -0.9814 -1.3595
  195MOL0     H26262   9.654   0.757  10.240 -0.0136  1.7320 -0.0991
  195MOL0     H26263   9.510   0.673  10.201  1.8035 -0.4732 -0.2115
  195MOL0     H26264   9.609   0.566  10.378  0.8389  0.0767  0.5744
  195MOL0     H26265   9.469   0.656  10.449  0.3389 -1.6570  0.7791
  195MOL0     H26266   9.755   0.759  10.455 -0.5409  0.2823 -0.3189
  195MOL0     H26267   9.606   0.834  10.524 -1.8287 -0.3264  0.3314
  195MOL0     H26268   9.573   0.648  10.673  0.1276  0.6583  0.3196
  195MOL0     H26269   9.710   0.568  10.592 -1.6992  0.6895 -2.3898
  195MOL0     H26270   9.853   0.730  10.716 -0.9326 -1.4454 -3.4660
  195MOL0     H26271   9.717   0.830  10.748  2.9205  0.1094 -2.0963
  195MOL0     H26272   9.709   0.552  10.834  0.1769  0.4035 -0.3476
  195MOL0     H26273   9.632   0.698  10.925  1.2304  2.0948  1.1414
  195MOL0     H26274   9.928   0.630  10.916 -0.8520  0.4311 -1.2112
  195MOL0     H26275   9.847   0.758  11.018 -0.9899  1.7081 -2.2576
  195MOL0     H26276   9.656   0.646  11.208  0.0166 -0.2679  1.4677
  195MOL0     H26277   9.625   0.426  11.422  0.7933 -0.2904  0.4173
  195MOL0     H26278   9.768   0.306  11.414 -1.7467 -0.6765 -0.0675
  195MOL0     H26279   9.812   0.439  11.602  1.0071  1.8881  0.0071
  195MOL0     H26280   9.904   0.508  11.471  0.2564  1.7939  1.7018
  195MOL0     H26281   9.631   0.621  11.553 -0.0204  1.3309  4.4555
  195MOL0     H26282   9.766   0.701  11.454  1.4574  0.5240  0.7692
  195MOL0     H26283   9.724   0.792  11.674 -2.1075 -1.1133  3.2810
  195MOL0     H26284   9.890   0.733  11.664  1.1063 -1.1481  1.7010
  195MOL0     H26285   9.745   0.816  11.941  1.0725 -0.5948  1.2493
  195MOL0     H26286   9.534   0.877  12.077  2.1213  0.1509  0.1174
  195MOL0     H26287   8.985   0.535  12.036  1.3912  1.3330 -1.6539
  195MOL0     H26288   8.742   0.587  12.088  0.4919  1.2547 -0.7122
  195MOL0     H26289   8.579   0.702  12.291 -0.5399 -0.1776  0.3437
  195MOL0     H26290   8.643   0.860  12.360  1.0999  1.4156 -0.9661
  195MOL0     H26291   8.393   0.841  12.355 -0.0555  2.8034  0.8921
  195MOL0     H26292   8.443   0.972  12.249  0.5778 -0.3788 -4.7183
  195MOL0     H26293   8.415   0.804  12.037 -2.1242  1.2807 -1.0377
  195MOL0     H26294   8.351   0.694  12.163  2.0321  0.4607  3.2710
  195MOL0     H26295   8.261   0.974  12.049 -0.4216 -0.0752 -1.2527
  195MOL0     H26296   8.175   0.903  12.191 -0.1254  1.0227 -0.1608
  195MOL0     H26297   8.053   0.742  12.044 -1.7712  1.3250 -0.8806
  195MOL0     H26298   8.196   0.745  11.938  1.0900  0.7467  0.4068
  195MOL0     H26299   7.970   0.957  11.971  0.0563  0.1651 -1.7427
  195MOL0     H26300   8.126   0.995  11.885 -0.1127  1.6850  1.7290
  195MOL0     H26301   8.056   0.765  11.758  2.2855  0.8263  1.7412
  195MOL0     H26302   8.005   0.927  11.709  1.3919 -0.1748 -0.7311
  195MOL0     H26303   7.822   0.760  11.710 -2.4819  3.1098 -1.0838
  195MOL0     H26304   7.838   0.751  11.885  0.8789 -3.8193 -1.6858
  195MOL0     H26305   8.866   0.980  12.183  2.2873  2.3211 -2.3035
  195MOL0     H26306   9.115   0.925  12.142  0.5509 -1.8525  2.0273
  195MOL0     H26307   9.345   0.517  11.958  0.4834  0.1603  0.3165
  195MOL0     H26308   9.547   0.449  11.806 -0.7446 -1.8247  0.7051
  195MOL0     H26309   9.440   1.105  10.447  0.4512  0.0189 -0.4675
  195MOL0     H26310   9.409   1.209  10.677  0.1624  0.7121 -1.4853
  195MOL0     H26311   9.246   1.311  10.988  3.0801  1.4248  2.8521
  195MOL0     H26312   9.195   1.436  11.178  0.6686 -0.6190  0.6126
  195MOL0     H26313   9.102   1.213  11.550  0.7861 -0.0116 -3.1328
  195MOL0     H26314   8.942   1.241  11.470  0.7029 -2.2425 -2.1494
  195MOL0     H26315   8.939   1.329  11.710  1.9416  0.5622  1.1985
  195MOL0     H26316   8.905   1.446  11.596 -1.7911 -1.2430 -0.6150
  195MOL0     H26317   9.171   1.481  11.590 -1.0471  0.0861 -0.7621
  195MOL0     H26318   9.176   1.401  11.749 -0.6114  1.8774  3.7518
  195MOL0     H26319   9.187   1.630  11.798 -0.3337 -1.2414 -1.0878
  195MOL0     H26320   9.069   1.684  11.681  2.0077  0.4777 -0.8266
  195MOL0     H26321   8.803   1.550  11.978 -2.1495 -1.0404 -5.0297
  195MOL0     H26322   9.034   1.090  11.370 -0.1729  1.9798  1.8126
  195MOL0     H26323   8.991   0.892  11.163  0.1814 -2.0859 -3.2524
  195MOL0     H26324   9.165   0.841  11.140 -0.3385 -0.7548  1.1473
  195MOL0     H26325   9.103   0.859  11.295  0.4640 -1.0206 -0.8987
  196MOL0     O26326   5.431  10.452   6.431 -0.1287  0.1939 -0.5065
  196MOL0     C26327   5.395  10.341   6.388 -0.5508 -0.1247  0.9701
  196MOL0     O26328   5.272  10.303   6.352 -0.4066  0.6040 -0.2715
  196MOL0     C26329   5.176  10.396   6.377 -0.3642  0.2183 -0.7536
  196MOL0     C26330   5.156  10.499   6.293 -0.0022 -0.6342  0.0080
  196MOL0     C26331   5.049  10.585   6.317 -0.4525  0.3652  0.1044
  196MOL0     C26332   4.946  10.561   6.407 -0.0038  0.0367 -1.5256
  196MOL0     O26333   4.832  10.631   6.428  0.0328  0.5146 -0.1968
  196MOL0     C26334   4.807  10.758   6.363  0.2162  0.0471 -1.1956
  196MOL0     C26335   4.727  10.745   6.236  0.6302  0.5301  0.1232
  196MOL0     C26336   4.594  10.675   6.253  0.4162  0.6621  0.1155
  196MOL0     C26337   4.511  10.719   6.383 -0.2299 -0.0211  0.7532
  196MOL0     C26338   4.393  10.628   6.410  0.3401 -0.2960  0.1899
  196MOL0     C26339   4.305  10.697   6.520  0.0310  1.1449 -0.4356
  196MOL0     C26340   4.193  10.618   6.583  0.0263  0.7061 -0.1027
  196MOL0     C26341   4.076  10.626   6.489  0.5377  0.1024  0.2229
  196MOL0     N26342   3.963  10.541   6.542 -0.2567 -0.4459 -0.5124
  196MOL0     C26343   3.963  10.400   6.547  0.2968 -0.2538  0.6687
  196MOL0     C26344   3.834  10.371   6.589 -0.7350 -1.0204  0.5130
  196MOL0     C26345   3.790  10.234   6.621 -0.0638  0.2429  0.0342
  196MOL0     C26346   3.796  10.136   6.496  0.5607  0.1565  0.8956
  196MOL0     C26347   3.715  10.185   6.378  0.1033 -0.4507 -0.2751
  196MOL0     C26348   3.713  10.086   6.261  0.1990  0.0416 -0.6256
  196MOL0     O26349   3.847  10.053   6.211  0.2646 -0.5229 -0.0992
  196MOL0     C26350   3.874   9.917   6.191  0.5398 -0.8191 -0.1112
  196MOL0     C26351   3.850   9.803   6.265 -0.3571  0.6425  0.1154
  196MOL0     C26352   3.911   9.676   6.226  0.2221 -0.7945 -0.7475
  196MOL0     C26353   3.992   9.666   6.119  0.3825  0.4474 -0.5419
  196MOL0     C26354   4.046   9.542   6.079  0.2083  0.2602  0.1159
  196MOL0     O26355   4.057   9.439   6.173 -1.0376  0.6760 -0.1367
  196MOL0     C26356   4.119   9.322   6.142  0.1011 -0.1017  0.4641
  196MOL0     C26357   4.106   9.246   6.022  0.3458 -0.0795  0.2767
  196MOL0     C26358   4.172   9.125   6.006  0.9807  0.7028  1.0972
  196MOL0     C26359   4.245   9.071   6.110 -0.5496  0.5885  0.3545
  196MOL0     O26360   4.322   8.954   6.103  1.1565  0.0663  0.4929
  196MOL0     C26361   4.301   8.871   5.988 -0.0640 -0.6847  0.0334
  196MOL0     C26362   4.329   8.725   6.028 -0.6264 -0.8175  0.4286
  196MOL0     C26363   4.337   8.633   5.911 -1.4433  0.0740  0.1384
  196MOL0     C26364   4.472   8.647   5.836  0.4644  0.0016 -0.0575
  196MOL0     C26365   4.528   8.519   5.767  0.2625 -0.0431  0.0762
  196MOL0     C26366   4.453   8.484   5.627  0.4655 -0.1482  0.3054
  196MOL0     C26367   4.516   8.368   5.552 -0.8572  0.9843  0.7086
  196MOL0     C26368   4.445   8.315   5.425 -0.3545  0.7347 -0.6821
  196MOL0    Cl26369   4.401   8.452   5.326 -0.1989  0.2574 -0.2652
  196MOL0     C26370   4.249   9.128   6.229 -0.0192 -0.3213 -0.2032
  196MOL0     C26371   4.196   9.257   6.235  0.7993  0.7800  0.3125
  196MOL0     O26372   4.076   9.534   5.960 -0.3718 -0.2255  0.8630
  196MOL0     C26373   4.031   9.787   6.058  0.1456  0.2685  0.0095
  196MOL0     C26374   3.964   9.903   6.081  0.2453 -0.1554 -0.0727
  196MOL0     N26375   3.771  10.488   6.623  0.6153 -0.5499  0.0737
  196MOL0     N26376   3.848  10.587   6.592 -0.4213  0.2180 -0.4062
  196MOL0     C26377   4.972  10.444   6.489  1.1548 -0.2820 -0.0608
  196MOL0     C26378   5.089  10.362   6.477  0.6728  0.8624 -0.0791
  196MOL0     C26379   5.502  10.234   6.363  0.1165 -0.7643 -0.1831
  196MOL0     C26380   5.464  10.102   6.379 -0.3881  0.3415  0.3080
  196MOL0     C26381   5.559   9.998   6.374 -0.7717  0.2016  0.0553
  196MOL0     C26382   5.690  10.019   6.334  0.1848 -0.0403  0.5358
  196MOL0     O26383   5.769   9.906   6.322 -0.3862  0.4153  0.6405
  196MOL0     C26384   5.901   9.924   6.266  0.5494  0.6699  0.5238
  196MOL0     C26385   5.980   9.787   6.243  1.4385  0.0041  0.0225
  196MOL0     C26386   6.008   9.717   6.376 -0.0861  0.0519 -0.2135
  196MOL0     C26387   6.045   9.574   6.362 -0.5443  0.3963 -0.9814
  196MOL0     C26388   5.935   9.488   6.316  0.6545 -0.1556 -0.6952
  196MOL0     C26389   5.844   9.437   6.259  1.6051  0.5547 -0.9908
  196MOL0     C26390   5.728  10.155   6.324  0.4141  1.0217 -1.2673
  196MOL0     C26391   5.631  10.258   6.337  0.1434  0.1266 -0.0388
  196MOL0     C26392   5.684  10.395   6.291 -0.3327 -0.5690 -0.3977
  196MOL0     H26393   5.232  10.519   6.218  0.7448  1.4298  1.2139
  196MOL0     H26394   5.049  10.674   6.255  3.3185 -0.4704 -1.3670
  196MOL0     H26395   4.749  10.825   6.428 -0.8834 -1.8484 -0.1262
  196MOL0     H26396   4.895  10.821   6.351 -1.9998  3.0458 -3.3482
  196MOL0     H26397   4.790  10.674   6.181  1.1385 -0.4178  1.8537
  196MOL0     H26398   4.717  10.839   6.181 -1.7058  0.0524 -0.3428
  196MOL0     H26399   4.608  10.566   6.253 -2.1749  0.1114  4.1832
  196MOL0     H26400   4.534  10.710   6.168  3.8006  2.4238 -1.7215
  196MOL0     H26401   4.577  10.712   6.471  1.1535 -0.0250 -0.2557
  196MOL0     H26402   4.487  10.825   6.368 -1.1340 -0.3361 -0.0929
  196MOL0     H26403   4.324  10.625   6.324 -1.6825 -2.1151  1.7851
  196MOL0     H26404   4.428  10.530   6.443 -3.2910 -1.0969  2.1265
  196MOL0     H26405   4.374  10.713   6.604  1.6212 -0.9573 -1.2173
  196MOL0     H26406   4.256  10.790   6.493 -0.1739  1.1822  0.0457
  196MOL0     H26407   4.157  10.658   6.678 -0.4701 -1.2056  0.5625
  196MOL0     H26408   4.224  10.516   6.605  0.8481  1.3735  2.0985
  196MOL0     H26409   4.038  10.728   6.480  1.6643  0.6340  1.1665
  196MOL0     H26410   4.101  10.594   6.388 -3.8096  2.6747 -1.9945
  196MOL0     H26411   4.045  10.333   6.523 -0.6760 -1.3255  0.2389
  196MOL0     H26412   3.846  10.198   6.707 -1.5837 -0.6937  0.6764
  196MOL0     H26413   3.688  10.245   6.657  0.2286  5.5748  0.0348
  196MOL0     H26414   3.899  10.110   6.468  0.1107  0.0140 -0.6746
  196MOL0     H26415   3.762  10.039   6.534 -0.3350 -0.0125 -0.3100
  196MOL0     H26416   3.768  10.275   6.345 -0.1813 -0.7130 -1.5094
  196MOL0     H26417   3.616  10.217   6.411 -0.5433 -1.6128 -1.0127
  196MOL0     H26418   3.650  10.131   6.184 -0.2682  1.9038  0.7863
  196MOL0     H26419   3.668   9.990   6.291  1.1544  0.7761  3.8223
  196MOL0     H26420   3.795   9.820   6.356 -0.3764  0.6321  0.1055
  196MOL0     H26421   3.893   9.589   6.288 -0.0798 -0.3605 -0.2042
  196MOL0     H26422   4.042   9.275   5.939  0.0510 -2.0177 -0.2184
  196MOL0     H26423   4.164   9.087   5.905 -0.5727 -0.5456  1.6414
  196MOL0     H26424   4.196   8.875   5.959  0.2543  3.0451 -1.1587
  196MOL0     H26425   4.369   8.894   5.906 -2.1388 -0.7167 -1.7873
  196MOL0     H26426   4.422   8.718   6.084 -0.3621 -0.0037  0.1071
  196MOL0     H26427   4.249   8.694   6.096  0.7419 -0.0333  2.5245
  196MOL0     H26428   4.341   8.530   5.949 -5.1799  0.9156  3.4913
  196MOL0     H26429   4.253   8.645   5.842 -1.2407 -4.9741 -1.3991
  196MOL0     H26430   4.552   8.677   5.904  1.2045  0.1577 -0.9927
  196MOL0     H26431   4.453   8.730   5.769  1.1408  3.1428  3.3189
  196MOL0     H26432   4.506   8.431   5.827 -1.7344  0.2796 -0.1201
  196MOL0     H26433   4.634   8.537   5.748 -0.2019  0.2356 -2.7242
  196MOL0     H26434   4.349   8.462   5.650  0.1336  0.0434 -0.9586
  196MOL0     H26435   4.465   8.569   5.560  1.4634 -2.1045 -2.1713
  196MOL0     H26436   4.511   8.281   5.618 -3.5938  0.2191 -0.3802
  196MOL0     H26437   4.621   8.384   5.528 -0.9948  1.2945  0.2986
  196MOL0     H26438   4.521   8.250   5.382 -1.4563  0.4708 -2.3276
  196MOL0     H26439   4.359   8.249   5.438  0.4335  0.0652  1.6577
  196MOL0     H26440   4.311   9.073   6.298  2.1484 -0.9410 -2.4979
  196MOL0     H26441   4.209   9.309   6.329  1.7820 -0.0937  0.6699
  196MOL0     H26442   4.094   9.787   5.969  1.2567  2.2226  0.7411
  196MOL0     H26443   3.994   9.986   6.019 -0.0820  0.6678  0.8542
  196MOL0     H26444   4.906  10.424   6.572  1.7791  1.3866  0.8873
  196MOL0     H26445   5.097  10.276   6.542 -1.6889  0.1194 -0.6620
  196MOL0     H26446   5.359  10.086   6.397 -1.9822  2.6876 -4.8730
  196MOL0     H26447   5.523   9.897   6.391  0.6968 -0.3264  0.1739
  196MOL0     H26448   5.957   9.977   6.344  1.0919  1.6411 -0.4956
  196MOL0     H26449   5.898   9.981   6.173  0.1079  1.6082  1.1047
  196MOL0     H26450   6.073   9.817   6.195  1.5164 -2.2815 -1.4025
  196MOL0     H26451   5.913   9.727   6.180  0.2617  2.9698 -1.7958
  196MOL0     H26452   5.927   9.731   6.449  1.5060 -0.0827  1.6896
  196MOL0     H26453   6.098   9.766   6.416  0.9384 -1.4170 -0.6178
  196MOL0     H26454   6.131   9.542   6.301 -0.2656 -4.1770  1.3316
  196MOL0     H26455   6.073   9.531   6.458 -3.5670 -3.6227 -1.6231
  196MOL0     H26456   5.759   9.380   6.227 -0.4918  1.3417  2.6238
  196MOL0     H26457   5.833  10.180   6.315  1.0090 -0.1838  1.3699
  196MOL0     H26458   5.611  10.442   6.225  0.3952 -0.5081 -1.1750
  196MOL0     H26459   5.694  10.444   6.388 -2.1859 -0.0349 -0.4366
  196MOL0     H26460   5.779  10.392   6.237  1.1215  1.7930  1.8304
  197MOL0     O26461   4.705   1.099   5.440  0.0271  0.5363 -0.9913
  197MOL0     C26462   4.669   1.145   5.546 -0.1346 -0.0677  0.6979
  197MOL0     O26463   4.585   1.246   5.558  0.8835  0.4898 -0.2566
  197MOL0     C26464   4.513   1.287   5.453 -0.2556  0.2562 -0.9690
  197MOL0     C26465   4.447   1.203   5.362  0.6227  0.8933  0.0133
  197MOL0     C26466   4.363   1.268   5.262  0.4481 -0.4437  0.1310
  197MOL0     C26467   4.353   1.403   5.251 -1.2283 -0.5437 -0.4334
  197MOL0     O26468   4.265   1.457   5.165 -0.0667  0.2639  0.5802
  197MOL0     C26469   4.256   1.599   5.145 -0.3424 -0.0916 -0.1421
  197MOL0     C26470   4.139   1.638   5.046  0.5710  0.5158  0.9316
  197MOL0     C26471   4.116   1.538   4.930  0.1793  0.0145 -0.2182
  197MOL0     C26472   4.026   1.598   4.818 -0.0554  0.5127 -0.8976
  197MOL0     C26473   4.032   1.516   4.691  0.1027 -0.0603  0.3076
  197MOL0     C26474   4.008   1.363   4.705  0.5158 -0.4944 -0.6737
  197MOL0     C26475   3.979   1.304   4.573 -0.2157 -0.2028  0.6102
  197MOL0     C26476   3.953   1.151   4.583 -0.5240  0.7508 -0.2766
  197MOL0     N26477   3.905   1.093   4.455  0.0811 -0.5183  0.2012
  197MOL0     C26478   3.950   0.974   4.395 -0.2204 -0.2304 -0.2141
  197MOL0     C26479   3.881   0.970   4.281  0.0636 -0.4047  0.8778
  197MOL0     C26480   3.892   0.880   4.163  0.3157  0.7023  1.0641
  197MOL0     C26481   3.942   0.741   4.193 -0.1697 -0.1353  0.0454
  197MOL0     C26482   4.011   0.664   4.082  1.0242  0.0797  0.5596
  197MOL0     C26483   4.152   0.699   4.045  0.1110 -0.4512  0.3377
  197MOL0     O26484   4.249   0.679   4.156  0.8827 -0.1398  0.2804
  197MOL0     C26485   4.374   0.703   4.121 -0.4837 -0.1421  0.3221
  197MOL0     C26486   4.455   0.745   4.234 -0.4643  0.0241  0.4522
  197MOL0     C26487   4.597   0.763   4.214 -0.1997  0.5172 -0.0558
  197MOL0     C26488   4.656   0.746   4.090  0.8177  0.2410 -0.2166
  197MOL0     C26489   4.800   0.780   4.061  0.4968  0.2801 -0.2858
  197MOL0     O26490   4.869   0.835   4.166  0.5616  0.3487  0.0551
  197MOL0     C26491   4.997   0.888   4.149 -0.0332 -0.1520 -0.9162
  197MOL0     C26492   5.040   0.952   4.038 -0.0878 -1.9375 -0.6229
  197MOL0     C26493   5.169   1.010   4.031 -0.1313  0.8087  0.2656
  197MOL0     C26494   5.262   1.010   4.134  0.5269  0.2228  1.2990
  197MOL0     O26495   5.384   1.072   4.113 -0.2692 -0.2148  0.2118
  197MOL0     C26496   5.470   1.085   4.221 -0.7314 -0.2253 -0.0357
  197MOL0     C26497   5.583   1.175   4.180 -0.2039 -0.9975 -0.4261
  197MOL0     C26498   5.681   1.192   4.299 -0.4207 -0.2946  0.0285
  197MOL0     C26499   5.757   1.324   4.309  0.0264 -0.2510  0.0527
  197MOL0     C26500   5.869   1.318   4.412 -0.2282 -0.9739 -0.2276
  197MOL0     C26501   5.941   1.454   4.436  0.3531 -1.2331  0.9027
  197MOL0     C26502   6.071   1.428   4.512  0.4559  0.5551  0.9106
  197MOL0     C26503   6.197   1.368   4.442  0.5908  0.3683 -0.1298
  197MOL0    Cl26504   6.190   1.394   4.258  0.4920  0.5183  0.0236
  197MOL0     C26505   5.217   0.951   4.260  0.9607 -0.9040 -0.7789
  197MOL0     C26506   5.092   0.886   4.263 -0.5082  0.2628  0.7604
  197MOL0     O26507   4.841   0.758   3.950 -0.6430  0.8528 -0.1232
  197MOL0     C26508   4.569   0.695   3.988  0.6685 -0.0551  0.4588
  197MOL0     C26509   4.434   0.680   3.999 -1.3480  0.2600  0.3554
  197MOL0     N26510   3.791   1.076   4.279 -0.2373 -0.9734  0.2563
  197MOL0     N26511   3.798   1.148   4.385 -0.2547 -0.1974  0.6569
  197MOL0     C26512   4.450   1.482   5.324  1.3768 -0.5188  0.9923
  197MOL0     C26513   4.516   1.423   5.432 -0.1070 -0.8629 -0.1727
  197MOL0     C26514   4.702   1.081   5.676 -0.0961 -0.0968  0.5933
  197MOL0     C26515   4.616   0.980   5.722 -0.4494 -0.1123 -0.4999
  197MOL0     C26516   4.611   0.946   5.854 -1.0263  0.0476 -0.2524
  197MOL0     C26517   4.702   0.997   5.945 -0.0763 -0.3738  0.1014
  197MOL0     O26518   4.716   0.955   6.075 -0.6711  0.5296 -0.1256
  197MOL0     C26519   4.614   0.912   6.160 -0.3119 -0.0838  0.6597
  197MOL0     C26520   4.616   0.766   6.162 -0.3998 -0.2345  0.0567
  197MOL0     C26521   4.736   0.710   6.258  0.4786 -0.0607 -0.1292
  197MOL0     C26522   4.753   0.560   6.231 -0.7854  0.9619  0.1796
  197MOL0     C26523   4.638   0.480   6.291  0.1217 -0.3965 -0.3750
  197MOL0     C26524   4.543   0.413   6.327 -0.3300  0.0263 -0.5444
  197MOL0     C26525   4.786   1.105   5.904 -0.3493 -0.1382 -0.2384
  197MOL0     C26526   4.786   1.148   5.763  0.0766 -0.4356 -0.3123
  197MOL0     C26527   4.876   1.261   5.721 -0.0848  0.7246  0.1053
  197MOL0     H26528   4.454   1.096   5.376  3.0636  0.9345 -0.3108
  197MOL0     H26529   4.291   1.212   5.203 -3.3188  2.8596  1.1933
  197MOL0     H26530   4.225   1.647   5.238 -3.5041  0.8101 -1.5048
  197MOL0     H26531   4.351   1.636   5.107 -0.4729  0.4059  0.0043
  197MOL0     H26532   4.154   1.739   5.008 -0.5324  1.7394  3.4623
  197MOL0     H26533   4.047   1.647   5.105  0.1519  0.2464  0.3275
  197MOL0     H26534   4.076   1.444   4.971 -1.9888  0.4975 -1.1018
  197MOL0     H26535   4.210   1.503   4.886  0.0227 -2.1427  0.9794
  197MOL0     H26536   3.922   1.610   4.848  0.2362  0.3474  0.2261
  197MOL0     H26537   4.060   1.702   4.810  1.3209  0.1733  0.1935
  197MOL0     H26538   3.960   1.564   4.623 -1.6296 -1.4177  1.1136
  197MOL0     H26539   4.131   1.528   4.645  0.6243  1.2080  1.6775
  197MOL0     H26540   4.099   1.325   4.753  0.0819 -0.0022  0.5717
  197MOL0     H26541   3.917   1.329   4.756 -1.2406 -1.1057 -3.9532
  197MOL0     H26542   4.057   1.317   4.498 -1.1460 -1.9104 -0.7474
  197MOL0     H26543   3.883   1.343   4.538 -0.6152 -1.9527 -0.4089
  197MOL0     H26544   4.034   1.098   4.634 -1.6013 -1.9500 -1.2092
  197MOL0     H26545   3.876   1.138   4.660 -0.3154 -2.1578 -0.4532
  197MOL0     H26546   4.018   0.905   4.445 -2.2437 -0.7438  2.0091
  197MOL0     H26547   3.798   0.876   4.108  1.1711  1.2210 -0.4935
  197MOL0     H26548   3.963   0.921   4.090  0.0228  0.9509  0.9161
  197MOL0     H26549   4.022   0.743   4.268  1.3486  2.4171 -1.5191
  197MOL0     H26550   3.855   0.685   4.230 -1.0266  0.3880 -1.1304
  197MOL0     H26551   3.958   0.670   3.986 -2.3338  0.8288  2.2934
  197MOL0     H26552   4.021   0.558   4.108  2.0290 -0.0377 -0.2456
  197MOL0     H26553   4.146   0.807   4.026 -1.4051 -0.4197  0.8918
  197MOL0     H26554   4.174   0.645   3.952 -0.2978  1.7422 -1.1059
  197MOL0     H26555   4.419   0.736   4.336 -0.2658  2.7219  0.8481
  197MOL0     H26556   4.659   0.790   4.299 -0.4023  0.4197  0.1235
  197MOL0     H26557   4.969   0.968   3.957 -1.0322 -0.4736  0.4216
  197MOL0     H26558   5.188   1.067   3.941  0.8798 -2.8855 -2.0937
  197MOL0     H26559   5.424   1.129   4.310  0.6334  1.0973  0.0606
  197MOL0     H26560   5.508   0.987   4.250 -1.7686  0.3882  3.8837
  197MOL0     H26561   5.638   1.120   4.103 -0.6383 -0.0008 -1.4823
  197MOL0     H26562   5.530   1.266   4.149 -0.1050 -1.2842 -1.4724
  197MOL0     H26563   5.627   1.182   4.393 -0.6692 -0.3303 -0.1162
  197MOL0     H26564   5.756   1.114   4.277  1.2180  1.5117 -1.1031
  197MOL0     H26565   5.691   1.402   4.348  0.3630 -0.7756  1.7600
  197MOL0     H26566   5.797   1.359   4.213  0.4343 -0.6693  0.0675
  197MOL0     H26567   5.938   1.244   4.369 -0.0082 -0.2443 -1.1821
  197MOL0     H26568   5.838   1.282   4.510 -0.9485  0.9232  0.2866
  197MOL0     H26569   5.968   1.507   4.345 -3.3588 -1.4575 -0.5051
  197MOL0     H26570   5.869   1.513   4.493 -0.4259 -2.1767  0.9354
  197MOL0     H26571   6.049   1.366   4.599 -2.8047  1.3946  0.8050
  197MOL0     H26572   6.102   1.521   4.560 -1.1634  0.5346  2.0884
  197MOL0     H26573   6.288   1.410   4.486  1.4216 -1.4700  0.0059
  197MOL0     H26574   6.191   1.260   4.458  0.6722  0.2019 -1.1741
  197MOL0     H26575   5.274   0.967   4.351  0.1878  1.4363 -0.6554
  197MOL0     H26576   5.059   0.824   4.346 -0.0951 -0.4930  0.3772
  197MOL0     H26577   4.598   0.677   3.885 -0.2218 -1.5488  0.4246
  197MOL0     H26578   4.395   0.671   3.898  2.0728 -2.0374 -0.9729
  197MOL0     H26579   4.447   1.590   5.311 -2.0522 -0.5968  0.2164
  197MOL0     H26580   4.563   1.495   5.498  2.0481 -1.2653 -1.1728
  197MOL0     H26581   4.542   0.932   5.658 -1.9982  2.9533 -1.2313
  197MOL0     H26582   4.541   0.870   5.886 -0.0780 -0.5893  0.3477
  197MOL0     H26583   4.515   0.947   6.127  0.5279  2.3262  0.5876
  197MOL0     H26584   4.638   0.951   6.259  2.2540  2.4074 -0.7900
  197MOL0     H26585   4.614   0.727   6.060  2.5396 -3.1840  0.9384
  197MOL0     H26586   4.531   0.730   6.221  1.5063 -2.0927  1.8723
  197MOL0     H26587   4.720   0.736   6.363 -0.5167  4.2706 -1.1351
  197MOL0     H26588   4.834   0.755   6.239  0.8447 -0.4337  0.8224
  197MOL0     H26589   4.744   0.534   6.125 -2.9732  2.2791 -0.0192
  197MOL0     H26590   4.849   0.521   6.267  0.0221  3.9626  1.6292
  197MOL0     H26591   4.460   0.353   6.360  0.6851 -1.1880 -0.1149
  197MOL0     H26592   4.849   1.157   5.976  0.1274 -1.4958  0.3684
  197MOL0     H26593   4.851   1.303   5.623  1.1116  0.7830 -0.1896
  197MOL0     H26594   4.867   1.353   5.780  1.4504 -0.6251  2.6266
  197MOL0     H26595   4.980   1.228   5.724 -0.2394  0.1482 -0.5079
  198MOL0     O26596   3.142   3.567   4.151  0.3146  0.1826  0.5981
  198MOL0     C26597   3.165   3.536   4.271 -0.6702  0.4336 -0.1022
  198MOL0     O26598   3.214   3.413   4.304  0.1436 -0.9829 -0.8097
  198MOL0     C26599   3.207   3.301   4.227  1.0599  0.0074 -0.0627
  198MOL0     C26600   3.111   3.199   4.242 -0.2504  0.1009 -0.8931
  198MOL0     C26601   3.110   3.074   4.181  0.1392 -0.1040  0.0678
  198MOL0     C26602   3.224   3.042   4.099 -0.1483 -0.1911 -0.0396
  198MOL0     O26603   3.223   2.923   4.036 -0.3868  0.9076  0.3899
  198MOL0     C26604   3.341   2.902   3.960  0.0650  0.4141  0.6233
  198MOL0     C26605   3.321   2.792   3.854 -0.3687  0.1320 -0.2703
  198MOL0     C26606   3.452   2.782   3.765  0.1402  0.3939  0.0818
  198MOL0     C26607   3.477   2.646   3.706  0.5373 -0.5088 -0.6514
  198MOL0     C26608   3.618   2.612   3.651 -0.8561 -0.4682  0.1436
  198MOL0     C26609   3.608   2.516   3.532  0.5546  0.1426 -0.0231
  198MOL0     C26610   3.741   2.486   3.482  0.0320 -0.3977 -0.3483
  198MOL0     C26611   3.742   2.404   3.341  0.6405 -0.3580 -1.4254
  198MOL0     N26612   3.868   2.377   3.290 -0.7608 -0.1740  0.4236
  198MOL0     C26613   3.966   2.460   3.237 -0.2485  0.2902  1.2864
  198MOL0     C26614   4.069   2.387   3.208 -0.2865 -0.4867 -0.0677
  198MOL0     C26615   4.200   2.422   3.149  0.1555 -0.5245  0.3079
  198MOL0     C26616   4.253   2.548   3.224  0.8848 -0.0305 -0.2828
  198MOL0     C26617   4.290   2.530   3.371 -0.2602 -0.7781 -0.8210
  198MOL0     C26618   4.195   2.594   3.474 -0.1112 -0.1861  0.5285
  198MOL0     O26619   4.222   2.736   3.473  0.3918  0.3265  0.4681
  198MOL0     C26620   4.150   2.815   3.565 -0.1045  0.5466 -0.0106
  198MOL0     C26621   4.207   2.909   3.653  0.2456  0.5876 -0.0832
  198MOL0     C26622   4.136   2.991   3.740  0.6530 -0.5085  0.2233
  198MOL0     C26623   3.998   2.997   3.728 -0.0560 -0.0167  0.7589
  198MOL0     C26624   3.912   3.076   3.816 -1.2034 -0.1064 -0.2989
  198MOL0     O26625   3.975   3.194   3.853  1.1433 -0.3181 -0.6383
  198MOL0     C26626   3.922   3.256   3.962 -0.3807  0.1938  0.5361
  198MOL0     C26627   3.892   3.390   3.958 -0.6379  0.0575  0.1417
  198MOL0     C26628   3.846   3.462   4.068 -0.2403 -0.7477 -0.4696
  198MOL0     C26629   3.819   3.397   4.186 -0.1373 -0.2369 -0.4006
  198MOL0     O26630   3.789   3.455   4.310 -0.4725  0.3038  0.1691
  198MOL0     C26631   3.874   3.566   4.351  0.3324  0.0578 -0.0465
  198MOL0     C26632   4.015   3.528   4.399 -0.6248  0.5783  0.1058
  198MOL0     C26633   4.127   3.562   4.300  0.2925 -0.4618  0.4727
  198MOL0     C26634   4.241   3.459   4.309  0.2112  0.2377  0.4288
  198MOL0     C26635   4.341   3.492   4.419  0.0824  0.2095 -0.4054
  198MOL0     C26636   4.467   3.411   4.428 -0.9704  0.6553  0.4913
  198MOL0     C26637   4.557   3.449   4.548 -0.1425  0.7559 -0.0357
  198MOL0     C26638   4.679   3.346   4.552 -0.4222  0.1174  0.0067
  198MOL0    Cl26639   4.799   3.356   4.415  0.1775  0.0482  0.0655
  198MOL0     C26640   3.843   3.263   4.192  0.2696 -0.2494 -0.0355
  198MOL0     C26641   3.896   3.192   4.079  0.1679 -0.1196 -0.9048
  198MOL0     O26642   3.798   3.042   3.833  0.6961  0.2202  0.6090
  198MOL0     C26643   3.931   2.902   3.648  0.0309 -0.3798  0.0589
  198MOL0     C26644   4.013   2.806   3.573  0.0040 -0.2764  0.5232
  198MOL0     N26645   4.042   2.265   3.261  0.2067 -1.2648  0.2205
  198MOL0     N26646   3.928   2.257   3.308  0.0762 -0.0377 -0.0935
  198MOL0     C26647   3.320   3.150   4.083  0.2076 -0.7423 -0.7239
  198MOL0     C26648   3.313   3.277   4.139  0.9658  0.3355 -0.0729
  198MOL0     C26649   3.113   3.620   4.385 -0.4276  0.3562  0.3420
  198MOL0     C26650   3.151   3.603   4.513  0.5575  0.1789  0.6479
  198MOL0     C26651   3.101   3.665   4.619 -0.4643 -0.2877 -0.2647
  198MOL0     C26652   2.998   3.751   4.606  0.4599 -0.3574 -0.3002
  198MOL0     O26653   2.941   3.807   4.721  0.3703  0.0659  0.1419
  198MOL0     C26654   2.795   3.785   4.726  0.4791 -0.7065  0.2355
  198MOL0     C26655   2.754   3.763   4.874  0.3482 -0.0984  0.4540
  198MOL0     C26656   2.618   3.796   4.903 -0.7023  0.4444 -0.2497
  198MOL0     C26657   2.593   3.783   5.057 -0.7099 -0.1937  0.3994
  198MOL0     C26658   2.455   3.823   5.075  0.2535  0.3399 -0.7404
  198MOL0     C26659   2.340   3.858   5.096  1.2984  0.5326  1.1230
  198MOL0     C26660   2.970   3.788   4.474  0.4325  0.3585 -0.2198
  198MOL0     C26661   3.017   3.718   4.362  0.4509 -0.0378  0.2519
  198MOL0     C26662   2.983   3.782   4.224 -0.4205  0.8943  0.1548
  198MOL0     H26663   3.036   3.225   4.316 -0.2972  1.4095 -1.3777
  198MOL0     H26664   3.031   3.002   4.199 -0.0981  0.7638  3.1015
  198MOL0     H26665   3.354   2.985   3.891  1.1443  0.3635  0.7478
  198MOL0     H26666   3.430   2.893   4.024 -1.4853  1.2592  3.0690
  198MOL0     H26667   3.236   2.818   3.790  0.3264  0.4939 -1.0591
  198MOL0     H26668   3.301   2.693   3.896  4.6607 -1.2804 -0.5071
  198MOL0     H26669   3.531   2.800   3.837 -1.8097  1.3031  2.1038
  198MOL0     H26670   3.437   2.856   3.685 -0.9786 -2.4180 -2.5325
  198MOL0     H26671   3.449   2.563   3.772 -3.9069 -0.2498 -1.9347
  198MOL0     H26672   3.406   2.641   3.623  0.0015  0.1352 -0.2380
  198MOL0     H26673   3.655   2.709   3.615  0.9101 -0.4008  1.9089
  198MOL0     H26674   3.678   2.571   3.733 -1.3873 -1.9591 -0.1911
  198MOL0     H26675   3.569   2.422   3.571  3.7161 -0.1646  2.7938
  198MOL0     H26676   3.542   2.564   3.458 -0.8165 -0.6703  0.6241
  198MOL0     H26677   3.791   2.431   3.562  3.2174  3.1638  0.3467
  198MOL0     H26678   3.798   2.579   3.474  0.7946 -0.5566  2.2966
  198MOL0     H26679   3.691   2.309   3.357 -1.6337  0.2344 -4.2184
  198MOL0     H26680   3.682   2.457   3.266 -2.3589 -1.5146 -0.0012
  198MOL0     H26681   3.966   2.565   3.211 -2.1099  0.2776  1.1575
  198MOL0     H26682   4.265   2.334   3.147  0.0993 -0.6249 -3.3049
  198MOL0     H26683   4.196   2.444   3.042  0.1368 -0.0943  0.3924
  198MOL0     H26684   4.338   2.570   3.159 -0.4677 -1.5247 -2.7304
  198MOL0     H26685   4.185   2.634   3.218 -1.9316 -2.1403 -1.1100
  198MOL0     H26686   4.383   2.588   3.371 -1.2050  0.8058 -0.3675
  198MOL0     H26687   4.302   2.425   3.397 -0.4442 -0.7480 -0.6178
  198MOL0     H26688   4.224   2.552   3.571 -1.9259 -0.0699  1.1627
  198MOL0     H26689   4.094   2.559   3.452  0.8788 -2.7187 -0.3467
  198MOL0     H26690   4.315   2.905   3.662  0.6349  0.1109 -3.6179
  198MOL0     H26691   4.192   3.058   3.805 -0.3662  0.5806  0.0213
  198MOL0     H26692   3.916   3.435   3.862 -2.4774 -0.5864 -0.6680
  198MOL0     H26693   3.852   3.571   4.068 -1.7859 -0.6404 -1.1007
  198MOL0     H26694   3.882   3.649   4.280  0.1658 -0.0668 -0.2133
  198MOL0     H26695   3.824   3.614   4.436  1.4017 -2.2665  1.9947
  198MOL0     H26696   4.046   3.571   4.495  0.9611  1.2960 -0.6893
  198MOL0     H26697   4.000   3.420   4.415 -2.0719  0.8308  0.5803
  198MOL0     H26698   4.097   3.562   4.195  0.1623 -1.1832  0.5050
  198MOL0     H26699   4.162   3.660   4.334 -2.0849 -0.6473  4.1098
  198MOL0     H26700   4.298   3.451   4.216 -0.7850  1.1092 -0.2881
  198MOL0     H26701   4.195   3.361   4.324 -0.6112  0.5616  0.1221
  198MOL0     H26702   4.285   3.474   4.511  0.3472  0.3913 -0.2076
  198MOL0     H26703   4.375   3.595   4.409  3.1639 -0.6502  0.2819
  198MOL0     H26704   4.442   3.305   4.442 -2.2498  1.1139  1.8010
  198MOL0     H26705   4.518   3.412   4.331 -5.0617 -0.6308 -1.9047
  198MOL0     H26706   4.495   3.437   4.637  0.5625 -2.8788  0.1137
  198MOL0     H26707   4.577   3.557   4.550 -1.8682  1.0983 -0.0262
  198MOL0     H26708   4.726   3.378   4.645 -3.2409  1.7352  0.9845
  198MOL0     H26709   4.646   3.242   4.567  0.8134 -0.3340 -0.2951
  198MOL0     H26710   3.827   3.196   4.276  0.0200  0.3767  0.4274
  198MOL0     H26711   3.912   3.085   4.092 -2.3009 -0.3125  1.3340
  198MOL0     H26712   3.823   2.895   3.648 -0.0635  0.7906  0.6063
  198MOL0     H26713   3.963   2.735   3.508  0.1880  3.1797 -3.8180
  198MOL0     H26714   3.403   3.138   4.015  1.5611  1.4215  0.4237
  198MOL0     H26715   3.395   3.347   4.130  0.1260  1.3413 -0.0477
  198MOL0     H26716   3.231   3.535   4.540  0.9349  0.7987  1.1038
  198MOL0     H26717   3.122   3.640   4.722 -2.1997 -0.5469  0.0594
  198MOL0     H26718   2.763   3.703   4.661 -2.3077  1.1733 -0.9421
  198MOL0     H26719   2.742   3.874   4.692 -0.2621  0.0690  3.1291
  198MOL0     H26720   2.815   3.842   4.919 -1.7560  2.9344 -1.5903
  198MOL0     H26721   2.779   3.673   4.929 -2.8379 -0.5588  1.3483
  198MOL0     H26722   2.552   3.725   4.852  0.8825  0.3482 -2.3168
  198MOL0     H26723   2.596   3.898   4.871  0.1990  1.1275  1.2459
  198MOL0     H26724   2.605   3.679   5.089 -2.6139 -1.1170 -1.5975
  198MOL0     H26725   2.661   3.844   5.117  1.7271 -2.1449 -0.2192
  198MOL0     H26726   2.242   3.896   5.118  0.8261 -0.3565  0.6143
  198MOL0     H26727   2.903   3.872   4.463 -0.6920 -0.0052  2.7608
  198MOL0     H26728   2.931   3.715   4.155  3.5962 -2.2372 -0.2374
  198MOL0     H26729   2.924   3.874   4.229 -2.9275 -0.5481 -0.8277
  198MOL0     H26730   3.082   3.791   4.180 -1.1206 -0.5658 -1.8663
  199MOL0     O26731   5.888   8.534   8.787 -0.6923 -0.9514 -0.0920
  199MOL0     C26732   5.859   8.412   8.786 -0.2208  0.1871 -0.4432
  199MOL0     O26733   5.861   8.328   8.900 -1.1003  0.1431 -0.3973
  199MOL0     C26734   5.891   8.388   9.023 -0.7555  0.4754  0.2010
  199MOL0     C26735   6.029   8.383   9.066  0.4026  0.7946 -0.4577
  199MOL0     C26736   6.065   8.445   9.187 -1.3053 -0.5011 -0.8278
  199MOL0     C26737   5.962   8.517   9.261 -0.4132  0.2493 -0.3060
  199MOL0     O26738   6.012   8.565   9.379  0.6400 -0.2297  0.5261
  199MOL0     C26739   5.914   8.591   9.491  0.4840 -1.0369  1.0686
  199MOL0     C26740   5.989   8.627   9.621  0.2064  0.2228 -0.5563
  199MOL0     C26741   6.058   8.510   9.688 -0.2162 -0.5616  0.2576
  199MOL0     C26742   6.163   8.561   9.785  0.3255 -0.1484 -0.5328
  199MOL0     C26743   6.283   8.466   9.799 -0.3287 -0.5986  0.5909
  199MOL0     C26744   6.271   8.322   9.844 -0.4532 -0.1402 -0.1420
  199MOL0     C26745   6.206   8.301   9.978  0.0344  0.1876 -1.4880
  199MOL0     C26746   6.307   8.300  10.093 -0.3631  0.6414  0.6117
  199MOL0     N26747   6.379   8.430  10.103 -0.0255 -0.0521 -0.1140
  199MOL0     C26748   6.327   8.559  10.112  0.7278  0.5687  0.5510
  199MOL0     C26749   6.437   8.638  10.122 -0.1167  0.4182  0.5690
  199MOL0     C26750   6.416   8.783  10.123 -0.6401  0.1638 -0.7631
  199MOL0     C26751   6.405   8.849   9.990  0.4578 -0.6626  0.4369
  199MOL0     C26752   6.531   8.822   9.906  0.7158 -0.4361 -0.2213
  199MOL0     C26753   6.538   8.916   9.794  0.2037  0.3456  0.3432
  199MOL0     O26754   6.642   8.891   9.706  0.1133 -0.5128 -0.2763
  199MOL0     C26755   6.641   8.803   9.606 -0.3916 -0.2723  0.0859
  199MOL0     C26756   6.762   8.809   9.538 -0.0922  0.3186 -0.4220
  199MOL0     C26757   6.775   8.720   9.434  0.5984 -0.0517 -0.4157
  199MOL0     C26758   6.678   8.623   9.400  0.6411  0.9134  0.0559
  199MOL0     C26759   6.704   8.520   9.297 -0.7226  0.4596 -0.2463
  199MOL0     O26760   6.615   8.418   9.285 -0.4164 -0.0547  0.4400
  199MOL0     C26761   6.619   8.337   9.182 -0.3779 -1.2223  0.5065
  199MOL0     C26762   6.491   8.289   9.147 -0.1821 -0.2839 -0.3618
  199MOL0     C26763   6.474   8.211   9.032  0.4823 -0.1126 -0.6069
  199MOL0     C26764   6.581   8.157   8.960 -0.6008 -0.2630 -0.0152
  199MOL0     O26765   6.560   8.059   8.860 -0.3145 -0.5948  0.6380
  199MOL0     C26766   6.669   7.976   8.804 -0.3031 -0.4283 -0.0006
  199MOL0     C26767   6.610   7.868   8.718 -0.4275  0.6226 -0.0139
  199MOL0     C26768   6.711   7.779   8.641 -0.3267  0.3075 -0.6403
  199MOL0     C26769   6.796   7.847   8.542  0.5747 -0.7500  0.7897
  199MOL0     C26770   6.857   7.749   8.457  0.2048 -0.3503  0.1134
  199MOL0     C26771   6.964   7.796   8.352  0.0389 -0.2359  0.4161
  199MOL0     C26772   7.104   7.733   8.376  1.0029  0.0921 -0.1344
  199MOL0     C26773   7.119   7.585   8.340  1.1543  0.4072 -0.4183
  199MOL0    Cl26774   7.093   7.484   8.492  0.2653  0.2812 -0.5429
  199MOL0     C26775   6.707   8.196   8.997  0.4032  0.5582 -0.5496
  199MOL0     C26776   6.726   8.290   9.104  0.1647 -0.0462 -0.0116
  199MOL0     O26777   6.805   8.549   9.219  0.6699  1.0490  0.1076
  199MOL0     C26778   6.557   8.624   9.466  0.8157 -0.5498 -0.8408
  199MOL0     C26779   6.533   8.723   9.563 -0.7589  0.5212  0.1774
  199MOL0     N26780   6.548   8.559  10.122  0.7226  0.2847  0.3907
  199MOL0     N26781   6.515   8.432  10.114  0.1552 -1.0541  0.9313
  199MOL0     C26782   5.825   8.515   9.216 -0.7022  0.7529  0.3866
  199MOL0     C26783   5.795   8.452   9.093  0.2899  0.2674  1.5219
  199MOL0     C26784   5.823   8.336   8.668 -0.8605 -0.3048  0.3299
  199MOL0     C26785   5.717   8.242   8.665  0.0463  0.2735  0.4653
  199MOL0     C26786   5.679   8.164   8.554  1.0551 -0.1585 -0.6049
  199MOL0     C26787   5.750   8.179   8.442 -0.5333  0.0942  0.2100
  199MOL0     O26788   5.713   8.097   8.347  0.5981  0.1383 -0.6402
  199MOL0     C26789   5.775   8.103   8.219 -0.3768  0.0831  0.0933
  199MOL0     C26790   5.690   8.003   8.140 -0.1891 -0.3039 -0.0343
  199MOL0     C26791   5.736   7.975   8.000 -0.2974  0.3590 -1.4622
  199MOL0     C26792   5.729   7.829   7.971  0.2607  0.4409  0.3799
  199MOL0     C26793   5.791   7.790   7.842  0.9359  0.0053 -0.1234
  199MOL0     C26794   5.837   7.751   7.733 -0.0173  0.1313  0.1852
  199MOL0     C26795   5.867   8.256   8.435  0.1700 -1.2235  0.1249
  199MOL0     C26796   5.900   8.348   8.544  1.0202  0.8157  0.2763
  199MOL0     C26797   6.002   8.455   8.514  0.1936 -0.0725  0.2256
  199MOL0     H26798   6.107   8.336   9.008 -0.1088  0.3438 -0.7920
  199MOL0     H26799   6.165   8.461   9.225 -1.9531  1.7662  0.0743
  199MOL0     H26800   5.843   8.671   9.467  1.8017 -0.3191 -0.5984
  199MOL0     H26801   5.860   8.496   9.501 -1.0943 -0.5197 -1.4891
  199MOL0     H26802   5.923   8.665   9.699 -0.6292 -2.5412  0.1925
  199MOL0     H26803   6.052   8.715   9.603 -1.5331  2.0710  1.7891
  199MOL0     H26804   6.115   8.448   9.619 -0.5433 -1.0955  0.4600
  199MOL0     H26805   5.980   8.456   9.743 -0.9989  2.3911  2.2903
  199MOL0     H26806   6.196   8.655   9.742 -3.4203  0.6408 -2.1039
  199MOL0     H26807   6.114   8.575   9.882  0.6653 -0.4392 -0.3160
  199MOL0     H26808   6.324   8.458   9.697  1.5628 -1.2773  1.3527
  199MOL0     H26809   6.357   8.522   9.857 -0.6053  1.7066 -1.1441
  199MOL0     H26810   6.224   8.251   9.775 -1.8042 -0.5280  1.1230
  199MOL0     H26811   6.377   8.294   9.840 -1.1199 -3.0609  0.0952
  199MOL0     H26812   6.166   8.199   9.979 -0.5606  0.3615  1.5053
  199MOL0     H26813   6.119   8.367   9.991  0.3084  0.4723 -1.1087
  199MOL0     H26814   6.255   8.278  10.187 -0.9761  2.3704  0.7151
  199MOL0     H26815   6.383   8.223  10.078 -0.2050  1.2804 -2.6037
  199MOL0     H26816   6.219   8.576  10.112  0.8869  1.7160  1.8507
  199MOL0     H26817   6.328   8.802  10.186 -0.6072  0.9214 -0.9307
  199MOL0     H26818   6.500   8.829  10.175  0.0695 -1.8994  0.0202
  199MOL0     H26819   6.316   8.821   9.932 -0.3109 -0.3694  1.4474
  199MOL0     H26820   6.379   8.954   9.999 -1.2350 -0.9709 -0.4728
  199MOL0     H26821   6.532   8.719   9.869  0.1742 -0.2077 -0.8919
  199MOL0     H26822   6.629   8.824   9.955  2.1709 -2.0096 -2.8118
  199MOL0     H26823   6.560   9.013   9.840 -2.2402  0.0877  2.3194
  199MOL0     H26824   6.448   8.927   9.733  1.0701 -0.2937 -1.1058
  199MOL0     H26825   6.822   8.897   9.556  0.1953 -0.1792  1.2322
  199MOL0     H26826   6.860   8.724   9.367  0.6967 -2.9536 -0.5804
  199MOL0     H26827   6.409   8.334   9.201  3.7775  1.3417  5.2608
  199MOL0     H26828   6.375   8.185   8.997  0.5023 -1.0032 -0.0255
  199MOL0     H26829   6.739   8.037   8.746  1.7657 -1.8812  0.8296
  199MOL0     H26830   6.731   7.936   8.886  0.3042 -1.3032 -0.8696
  199MOL0     H26831   6.545   7.804   8.779 -0.3251  2.8384  2.5818
  199MOL0     H26832   6.554   7.921   8.640 -1.0176 -0.6497 -0.4938
  199MOL0     H26833   6.773   7.725   8.714 -0.6200 -0.5774 -1.0283
  199MOL0     H26834   6.665   7.693   8.592 -0.0634 -0.9185  1.1471
  199MOL0     H26835   6.873   7.910   8.587  0.5129  1.2452 -1.6720
  199MOL0     H26836   6.731   7.903   8.474 -0.9051 -1.4414  1.5835
  199MOL0     H26837   6.783   7.697   8.397 -1.8179  2.4057 -0.0007
  199MOL0     H26838   6.900   7.677   8.527  0.4162  1.3457  1.8136
  199MOL0     H26839   6.926   7.754   8.258  3.2175 -3.6542  0.3998
  199MOL0     H26840   6.983   7.901   8.329  0.8639 -0.7697 -1.5680
  199MOL0     H26841   7.121   7.739   8.484 -0.5695 -0.7420  0.1828
  199MOL0     H26842   7.190   7.789   8.337  0.7926  1.8602  1.7910
  199MOL0     H26843   7.043   7.564   8.264 -1.3734  4.4566  0.6605
  199MOL0     H26844   7.214   7.573   8.287  0.8374  2.8850 -1.7214
  199MOL0     H26845   6.797   8.171   8.940  0.8861 -1.8934  1.1389
  199MOL0     H26846   6.832   8.313   9.117  0.9164 -2.7666 -0.6648
  199MOL0     H26847   6.492   8.537   9.455  0.4665 -0.3529 -0.3508
  199MOL0     H26848   6.446   8.704   9.626 -1.7199 -0.1519 -1.2901
  199MOL0     H26849   5.746   8.569   9.267 -1.5952 -0.4411  0.3318
  199MOL0     H26850   5.696   8.458   9.049  1.4114  0.5863 -1.2011
  199MOL0     H26851   5.646   8.231   8.747 -1.2533  0.7683 -0.5493
  199MOL0     H26852   5.581   8.118   8.546  1.2742 -1.0580  1.2551
  199MOL0     H26853   5.879   8.072   8.234 -0.0856  0.7108 -0.5134
  199MOL0     H26854   5.784   8.208   8.189  1.6463  0.0140  0.3198
  199MOL0     H26855   5.590   8.045   8.126  0.0212  0.1717 -0.1404
  199MOL0     H26856   5.686   7.910   8.198  2.4408 -1.1032 -1.0030
  199MOL0     H26857   5.835   8.016   7.978  0.7122 -1.7655 -1.1139
  199MOL0     H26858   5.668   8.026   7.931 -1.9190 -2.8629 -2.4374
  199MOL0     H26859   5.778   7.768   8.048  1.9213  1.5619  0.2647
  199MOL0     H26860   5.624   7.799   7.977  0.2949  0.0776 -0.6822
  199MOL0     H26861   5.869   7.718   7.636  0.6820 -1.4139  0.8961
  199MOL0     H26862   5.930   8.261   8.347  1.1687 -3.0121  0.6859
  199MOL0     H26863   6.074   8.457   8.596  1.3777 -0.4221 -0.7852
  199MOL0     H26864   6.063   8.446   8.424  2.3255 -0.7203  1.6505
  199MOL0     H26865   5.946   8.548   8.523 -0.2618 -0.2869 -0.3257
  200MOL0     O26866   2.411   8.148   2.860  0.4119  0.4126  0.2486
  200MOL0     C26867   2.402   8.164   2.742  0.3417  0.3433  0.1913
  200MOL0     O26868   2.328   8.253   2.675  0.0679 -0.1375  0.2153
  200MOL0     C26869   2.260   8.352   2.733  0.2720 -0.3806  0.4899
  200MOL0     C26870   2.195   8.346   2.858 -0.6252 -0.3725  0.7056
  200MOL0     C26871   2.113   8.453   2.891  0.9141  0.6411  0.5561
  200MOL0     C26872   2.094   8.558   2.805 -0.5082  0.3354  1.0097
  200MOL0     O26873   2.009   8.669   2.832 -0.2041 -0.7740 -0.1724
  200MOL0     C26874   1.982   8.698   2.972 -0.4517  0.2730  0.3755
  200MOL0     C26875   1.935   8.846   2.987 -0.4508 -0.0960  1.1443
  200MOL0     C26876   1.936   8.886   3.136  0.2864  1.7623  0.1326
  200MOL0     C26877   1.816   8.818   3.216 -0.6140 -0.2642  0.6807
  200MOL0     C26878   1.675   8.878   3.211  0.1170  0.5331 -0.5500
  200MOL0     C26879   1.669   9.035   3.232  0.5334  0.5594  0.1047
  200MOL0     C26880   1.516   9.069   3.230 -0.0660  0.4820 -0.3470
  200MOL0     C26881   1.498   9.216   3.227  0.4171  0.3251 -0.3956
  200MOL0     N26882   1.367   9.253   3.175 -0.1616  0.6900 -0.4864
  200MOL0     C26883   1.266   9.296   3.262 -0.4464  0.2013  0.4154
  200MOL0     C26884   1.173   9.333   3.176  0.0168  1.2098  0.7518
  200MOL0     C26885   1.039   9.385   3.225 -0.2813  1.0327  1.0237
  200MOL0     C26886   0.942   9.270   3.257  0.1826 -0.2095 -0.2065
  200MOL0     C26887   0.905   9.189   3.133 -0.9282  0.3789  0.6199
  200MOL0     C26888   0.819   9.266   3.037 -0.0566  0.4955 -0.2254
  200MOL0     O26889   0.690   9.312   3.095 -0.1628  0.0794  0.0623
  200MOL0     C26890   0.589   9.284   3.011 -0.4069  0.2519  0.4396
  200MOL0     C26891   0.478   9.369   3.029 -0.2964  0.3320  0.4305
  200MOL0     C26892   0.377   9.362   2.925 -0.7113  0.1498 -0.1557
  200MOL0     C26893   0.386   9.270   2.816  0.6010  0.1556 -0.3627
  200MOL0     C26894   0.275   9.258   2.715  0.7444  0.1290 -0.4038
  200MOL0     O26895   0.169   9.346   2.729 -0.0729  0.0952  0.2708
  200MOL0     C26896   0.063   9.347   2.638 -0.3502  0.0657  0.7761
  200MOL0     C26897  -0.066   9.366   2.683 -0.1519 -0.2731 -0.5234
  200MOL0     C26898  -0.179   9.359   2.603  0.3181  0.2769  0.0880
  200MOL0     C26899  -0.158   9.362   2.464 -0.4458 -0.4822  0.4374
  200MOL0     O26900  -0.275   9.350   2.397 -0.5594  0.6221  0.0733
  200MOL0     C26901  -0.283   9.383   2.259  0.5338  0.1056 -0.0880
  200MOL0     C26902  -0.416   9.416   2.216  0.1275 -0.1155 -0.0318
  200MOL0     C26903  -0.465   9.557   2.257 -0.3466 -0.0577 -0.5422
  200MOL0     C26904  -0.605   9.588   2.192  0.0713 -0.5804  0.2731
  200MOL0     C26905  -0.656   9.712   2.265  0.1490 -0.1453  0.0128
  200MOL0     C26906  -0.641   9.839   2.184 -0.3388 -0.2055 -1.1081
  200MOL0     C26907  -0.680   9.962   2.255  0.3297  0.0090 -0.5288
  200MOL0     C26908  -0.701  10.069   2.153  0.2464 -0.0406  1.1693
  200MOL0    Cl26909  -0.538  10.122   2.090 -0.2095  0.3408  0.0808
  200MOL0     C26910  -0.030   9.346   2.412  0.4101  0.0966 -0.1179
  200MOL0     C26911   0.077   9.344   2.500  0.6389  0.5264  0.3383
  200MOL0     O26912   0.286   9.177   2.626 -0.5794  0.3757 -0.2820
  200MOL0     C26913   0.486   9.179   2.820  0.5826  0.5429  0.0946
  200MOL0     C26914   0.585   9.179   2.915  0.0357 -1.3750  0.6349
  200MOL0     N26915   1.198   9.314   3.044 -0.3391  0.0682 -0.2606
  200MOL0     N26916   1.318   9.260   3.049  0.2488 -0.1777  0.6161
  200MOL0     C26917   2.164   8.562   2.690  0.3995 -0.0733  0.2135
  200MOL0     C26918   2.252   8.463   2.655  0.3591 -0.3615  0.1087
  200MOL0     C26919   2.466   8.057   2.656  0.8611  0.5288  0.1723
  200MOL0     C26920   2.446   8.072   2.514 -0.1841 -0.2457  0.0924
  200MOL0     C26921   2.501   7.984   2.426 -0.1848  0.1750 -0.3337
  200MOL0     C26922   2.574   7.871   2.464  0.1342 -0.7091  0.2046
  200MOL0     O26923   2.632   7.782   2.383 -1.3009  0.3360  0.3559
  200MOL0     C26924   2.692   7.831   2.261  0.8520 -0.2652  0.0660
  200MOL0     C26925   2.789   7.942   2.288 -0.1743  0.0820  0.6726
  200MOL0     C26926   2.862   8.002   2.162 -1.0546  0.0005  0.1162
  200MOL0     C26927   2.766   8.036   2.046 -0.4239  0.3700  0.1306
  200MOL0     C26928   2.662   8.123   2.087 -0.2960 -0.4009 -1.0295
  200MOL0     C26929   2.568   8.201   2.111 -0.8827  0.0967  0.9630
  200MOL0     C26930   2.590   7.850   2.603  1.0752  0.9088  0.3236
  200MOL0     C26931   2.550   7.948   2.701  0.3304  0.0424 -0.4659
  200MOL0     C26932   2.562   7.910   2.845 -0.1148  0.6495 -0.1686
  200MOL0     H26933   2.217   8.266   2.927 -2.1039  0.8082  2.6428
  200MOL0     H26934   2.050   8.444   2.979  2.3229  1.7354  1.7206
  200MOL0     H26935   1.909   8.629   3.015 -0.6337  0.8484  0.9984
  200MOL0     H26936   2.077   8.685   3.025  0.4233  2.6085 -0.5146
  200MOL0     H26937   1.837   8.864   2.941 -0.3650  1.3181  1.4899
  200MOL0     H26938   2.000   8.901   2.919 -2.7181  0.0598 -1.0437
  200MOL0     H26939   1.917   8.994   3.142 -1.8454  1.3434  2.8889
  200MOL0     H26940   2.033   8.860   3.179  0.6751  1.3657 -0.9328
  200MOL0     H26941   1.810   8.713   3.188 -1.3746  0.2373 -1.1733
  200MOL0     H26942   1.850   8.823   3.320 -2.9970  2.8008  1.4552
  200MOL0     H26943   1.630   8.848   3.116 -1.7319  2.4276 -0.3658
  200MOL0     H26944   1.627   8.826   3.294 -1.4748 -0.4573 -2.0377
  200MOL0     H26945   1.717   9.058   3.328  2.0787 -0.6906 -0.3383
  200MOL0     H26946   1.717   9.077   3.144  1.2433  0.0307  0.2346
  200MOL0     H26947   1.460   9.024   3.313  0.6595 -2.5306 -1.3729
  200MOL0     H26948   1.467   9.030   3.140 -1.3032  0.2648  0.3868
  200MOL0     H26949   1.518   9.257   3.326  2.4035 -1.4343  0.0292
  200MOL0     H26950   1.578   9.245   3.158  1.5446 -2.5086 -0.4108
  200MOL0     H26951   1.252   9.299   3.369 -0.8667  4.5280  0.4240
  200MOL0     H26952   1.059   9.445   3.315 -2.9210  2.6411  0.6539
  200MOL0     H26953   0.994   9.465   3.165 -2.6313  0.2236  1.5835
  200MOL0     H26954   1.000   9.199   3.317  2.4410  0.7340 -1.1734
  200MOL0     H26955   0.865   9.306   3.325 -0.1126 -2.3775  0.6764
  200MOL0     H26956   0.854   9.097   3.161 -1.3074  1.4247  3.8188
  200MOL0     H26957   0.997   9.153   3.085 -0.9210 -0.8970  1.5501
  200MOL0     H26958   0.814   9.211   2.943 -1.6323  1.2166 -0.5919
  200MOL0     H26959   0.878   9.355   3.018  1.0379 -0.3098 -0.6937
  200MOL0     H26960   0.468   9.424   3.121  1.6455  0.5938  0.5326
  200MOL0     H26961   0.293   9.429   2.938 -0.0257  1.1581 -0.7313
  200MOL0     H26962  -0.083   9.384   2.788  1.0201 -1.5227 -0.0932
  200MOL0     H26963  -0.284   9.367   2.630  0.1534 -1.1808 -0.0416
  200MOL0     H26964  -0.212   9.463   2.236  0.3949  0.3009  0.1532
  200MOL0     H26965  -0.258   9.290   2.208 -1.2458 -0.7548  0.5328
  200MOL0     H26966  -0.415   9.423   2.107  0.3532  1.6289  0.0652
  200MOL0     H26967  -0.493   9.350   2.259 -0.4186  1.9917  2.4699
  200MOL0     H26968  -0.474   9.559   2.366 -2.3085 -1.8933 -0.6038
  200MOL0     H26969  -0.386   9.622   2.218 -0.3361 -1.0864 -2.3677
  200MOL0     H26970  -0.672   9.503   2.209 -0.4901 -0.4188 -1.0250
  200MOL0     H26971  -0.592   9.597   2.084  4.0867 -0.6395  0.5990
  200MOL0     H26972  -0.616   9.720   2.366 -3.9890 -0.5768  1.8899
  200MOL0     H26973  -0.764   9.699   2.276  0.2260 -1.7490 -0.8204
  200MOL0     H26974  -0.538   9.847   2.147  0.2055  0.1430  0.3881
  200MOL0     H26975  -0.712   9.823   2.103 -0.1312 -4.4251 -0.6691
  200MOL0     H26976  -0.604   9.990   2.328 -0.3479 -0.8922  0.5802
  200MOL0     H26977  -0.771   9.942   2.314  1.1134 -2.4875 -0.0176
  200MOL0     H26978  -0.757  10.026   2.070  0.1386  0.2244  1.1026
  200MOL0     H26979  -0.754  10.156   2.193  0.7348  0.9845 -0.3050
  200MOL0     H26980  -0.019   9.331   2.305  2.8367  2.2448 -0.2657
  200MOL0     H26981   0.173   9.342   2.450 -0.1552  1.8398 -1.3427
  200MOL0     H26982   0.477   9.100   2.747  1.0592  2.5336 -2.2612
  200MOL0     H26983   0.661   9.107   2.886 -0.4244 -2.4040  1.9222
  200MOL0     H26984   2.136   8.643   2.623 -1.4362  1.5908  2.7936
  200MOL0     H26985   2.306   8.462   2.560 -2.3359 -2.3001 -1.5369
  200MOL0     H26986   2.385   8.148   2.468  0.6868  0.7003  0.4646
  200MOL0     H26987   2.478   8.006   2.323 -0.5133 -1.6033 -0.6718
  200MOL0     H26988   2.610   7.863   2.197 -0.6231  0.4700  2.1872
  200MOL0     H26989   2.746   7.747   2.216  1.8721  0.0604  0.6576
  200MOL0     H26990   2.856   7.911   2.369 -2.1876 -3.4259  1.1502
  200MOL0     H26991   2.725   8.025   2.319 -1.8492 -0.9990  0.1837
  200MOL0     H26992   2.928   7.923   2.124  0.9984  1.6008  0.1487
  200MOL0     H26993   2.936   8.082   2.173  1.8993 -1.9652 -3.3761
  200MOL0     H26994   2.814   8.097   1.969  2.9644 -1.1799  0.8497
  200MOL0     H26995   2.723   7.942   2.010 -1.9118 -0.7191  4.2233
  200MOL0     H26996   2.482   8.265   2.123 -1.2027 -0.5541  2.4294
  200MOL0     H26997   2.644   7.763   2.640 -0.4205  0.1415  0.7888
  200MOL0     H26998   2.615   7.988   2.901 -0.5818  1.4225 -0.7873
  200MOL0     H26999   2.462   7.911   2.887  0.1634 -1.2856  0.6400
  200MOL0     H27000   2.606   7.811   2.864  1.3191  1.4707  1.0679
  201MOL0     O27001   9.890   9.045   6.835  0.3302  0.1175  0.0370
  201MOL0     C27002   9.841   9.096   6.940  0.5574 -0.1676 -0.2767
  201MOL0     O27003   9.912   9.142   7.052  0.5001  0.4930  1.0674
  201MOL0     C27004  10.052   9.123   7.057 -0.1440  0.0698  0.4942
  201MOL0     C27005  10.091   8.996   7.084  0.0811 -0.3226 -0.5826
  201MOL0     C27006  10.233   8.969   7.082  0.9763 -0.9496 -0.0952
  201MOL0     C27007  10.330   9.070   7.073  0.6275  0.4201 -0.3225
  201MOL0     O27008  10.459   9.023   7.082 -0.5273  0.0576 -0.8233
  201MOL0     C27009  10.563   9.123   7.110  0.0255  0.4478  0.0701
  201MOL0     C27010  10.695   9.046   7.137 -0.0604 -0.2730  0.2478
  201MOL0     C27011  10.792   9.148   7.184  0.4996 -0.0527 -0.7801
  201MOL0     C27012  10.938   9.121   7.154 -0.7424 -0.3564 -0.1268
  201MOL0     C27013  11.034   9.210   7.223 -0.3173  0.1434  0.5559
  201MOL0     C27014  11.183   9.162   7.202 -0.1050  0.7553  0.3352
  201MOL0     C27015  11.273   9.252   7.300 -0.2959  0.5598 -0.2182
  201MOL0     C27016  11.305   9.391   7.240 -1.2659 -0.9247 -0.6082
  201MOL0     N27017  11.414   9.447   7.332 -0.4826 -0.4697  0.0674
  201MOL0     C27018  11.544   9.413   7.346  0.0646  0.6120  0.0105
  201MOL0     C27019  11.605   9.508   7.420  0.6898 -0.5119 -0.4486
  201MOL0     C27020  11.750   9.533   7.428 -0.1166  0.4841 -0.0088
  201MOL0     C27021  11.816   9.541   7.293 -0.7460 -0.6946 -0.4523
  201MOL0     C27022  11.967   9.582   7.301 -0.3566  0.1212 -0.6228
  201MOL0     C27023  11.997   9.716   7.371  0.9230 -0.3926  0.5877
  201MOL0     O27024  12.124   9.758   7.323 -0.3621  0.1789 -0.5160
  201MOL0     C27025  12.143   9.898   7.309 -0.0879 -0.4399 -0.2916
  201MOL0     C27026  12.203   9.938   7.190 -0.1452 -0.6206  0.1642
  201MOL0     C27027  12.222  10.073   7.167 -0.1709 -0.3299 -0.8847
  201MOL0     C27028  12.190  10.169   7.257  0.8748  0.0513  0.1477
  201MOL0     C27029  12.226  10.310   7.239 -0.2165 -1.3922 -0.4307
  201MOL0     O27030  12.243  10.386   7.344  0.2463 -0.6950 -0.5541
  201MOL0     C27031  12.256  10.523   7.330 -0.1542 -0.6487  0.2301
  201MOL0     C27032  12.372  10.582   7.377 -0.1766  0.1641  0.2625
  201MOL0     C27033  12.383  10.719   7.393  0.4601 -1.0554 -0.2417
  201MOL0     C27034  12.284  10.806   7.347  0.4344  0.4210 -0.2931
  201MOL0     O27035  12.298  10.941   7.348 -0.3655  0.2076 -0.3323
  201MOL0     C27036  12.332  11.006   7.473 -0.2040 -0.0516 -1.6149
  201MOL0     C27037  12.263  11.151   7.477 -0.0432  0.6654 -0.8234
  201MOL0     C27038  12.122  11.140   7.535 -0.5723 -0.2442  1.2239
  201MOL0     C27039  12.062  11.282   7.554  0.9122  0.1220  0.8418
  201MOL0     C27040  11.910  11.271   7.555 -0.7481  0.3379 -0.1776
  201MOL0     C27041  11.855  11.409   7.570 -0.2502 -0.5482 -0.4470
  201MOL0     C27042  11.716  11.430   7.633  0.3288 -0.5610 -0.6027
  201MOL0     C27043  11.606  11.340   7.587  0.3768 -0.1350  0.2734
  201MOL0    Cl27044  11.455  11.397   7.664  0.0188 -0.5914  0.4073
  201MOL0     C27045  12.176  10.749   7.281  0.4253  1.1766 -0.4230
  201MOL0     C27046  12.162  10.609   7.276 -0.0036 -0.7894  0.0555
  201MOL0     O27047  12.256  10.347   7.126 -0.7057  0.2822  0.0787
  201MOL0     C27048  12.120  10.134   7.372  0.4745  0.4819  0.5125
  201MOL0     C27049  12.111  10.000   7.407 -0.3795 -0.7947  0.0985
  201MOL0     N27050  11.508   9.602   7.444 -0.1918  0.0100  0.0692
  201MOL0     N27051  11.396   9.560   7.403  0.1258 -0.8346 -0.6120
  201MOL0     C27052  10.289   9.206   7.056 -0.4140  0.4820 -0.3406
  201MOL0     C27053  10.147   9.235   7.045 -0.0544 -0.1064 -0.4462
  201MOL0     C27054   9.689   9.128   6.943  0.3150 -0.7840 -0.2209
  201MOL0     C27055   9.647   9.214   7.043 -0.5020 -0.4873 -0.2391
  201MOL0     C27056   9.524   9.275   7.046  1.0968  0.0508 -0.4108
  201MOL0     C27057   9.423   9.250   6.950  0.0017 -0.2068  0.4610
  201MOL0     O27058   9.304   9.313   6.944  0.3001 -0.1151  0.3454
  201MOL0     C27059   9.294   9.446   6.995  1.3753  1.1694 -0.0082
  201MOL0     C27060   9.159   9.485   6.962  0.2386  0.6257  0.5921
  201MOL0     C27061   9.058   9.404   7.035  0.9807 -0.3720 -0.4484
  201MOL0     C27062   9.066   9.413   7.186 -0.0354  0.1778 -0.3028
  201MOL0     C27063   8.938   9.363   7.232 -0.7659  0.1299  0.5673
  201MOL0     C27064   8.836   9.318   7.268  0.5779  0.0923  0.2387
  201MOL0     C27065   9.460   9.164   6.843  0.8428 -0.6504 -0.5836
  201MOL0     C27066   9.591   9.097   6.841  0.4720 -0.6937 -1.1018
  201MOL0     C27067   9.615   8.999   6.729 -0.0142 -0.1828 -0.6686
  201MOL0     H27068  10.015   8.921   7.102 -1.1146  1.5645  3.2927
  201MOL0     H27069  10.264   8.868   7.108  1.9475 -0.5320  0.4074
  201MOL0     H27070  10.580   9.178   7.017  0.9426 -0.2097 -0.1673
  201MOL0     H27071  10.539   9.193   7.190 -0.8081  0.5722 -0.2703
  201MOL0     H27072  10.723   9.020   7.034 -0.5736 -1.1090  0.3164
  201MOL0     H27073  10.700   8.952   7.191  1.5380 -1.0728 -1.1790
  201MOL0     H27074  10.771   9.149   7.292 -3.3382 -1.4152 -1.3324
  201MOL0     H27075  10.763   9.250   7.158  0.1593  0.4669  1.4013
  201MOL0     H27076  10.943   9.022   7.200 -2.8018  0.3968  1.8936
  201MOL0     H27077  10.963   9.116   7.047 -0.7770 -0.1910 -0.1438
  201MOL0     H27078  11.025   9.311   7.181  1.7758 -0.0413 -0.4766
  201MOL0     H27079  10.995   9.213   7.325 -1.7131  2.1045  0.0366
  201MOL0     H27080  11.182   9.060   7.240  1.1310  0.1096 -1.2295
  201MOL0     H27081  11.216   9.156   7.098  0.9404 -1.9989  0.7500
  201MOL0     H27082  11.368   9.201   7.314  0.8250  2.2312 -1.3869
  201MOL0     H27083  11.225   9.265   7.397 -5.4243 -0.5355 -2.2473
  201MOL0     H27084  11.347   9.371   7.141  1.7859  2.5610 -0.2455
  201MOL0     H27085  11.211   9.448   7.242 -0.2328  0.8771  1.4820
  201MOL0     H27086  11.580   9.325   7.293 -0.5964  0.4947 -0.2484
  201MOL0     H27087  11.765   9.627   7.483  1.3277  1.6371 -2.2372
  201MOL0     H27088  11.792   9.449   7.484  0.7567  1.8420  1.4654
  201MOL0     H27089  11.809   9.456   7.225  1.4874  0.5572 -2.3902
  201MOL0     H27090  11.763   9.610   7.227 -0.1519  1.1917  0.9359
  201MOL0     H27091  12.015   9.594   7.204  4.0281  3.2490  1.6140
  201MOL0     H27092  12.018   9.500   7.352 -0.9552  0.0465 -0.1293
  201MOL0     H27093  11.983   9.711   7.479 -3.2434  1.0982  0.2942
  201MOL0     H27094  11.916   9.783   7.341 -0.3173 -0.9124  2.5893
  201MOL0     H27095  12.222   9.858   7.119 -0.7377  0.3740 -1.1841
  201MOL0     H27096  12.265  10.120   7.079  3.1651  1.1100  1.3378
  201MOL0     H27097  12.456  10.522   7.409  1.6995  1.2467 -2.2750
  201MOL0     H27098  12.462  10.765   7.452 -1.7400  0.7979  1.4005
  201MOL0     H27099  12.295  10.944   7.556  0.2033 -1.4567 -2.4420
  201MOL0     H27100  12.441  11.014   7.472 -0.0701 -0.8910  0.5688
  201MOL0     H27101  12.322  11.207   7.550  0.4486  2.2465 -2.3735
  201MOL0     H27102  12.278  11.198   7.379 -0.7780  0.7732 -0.8955
  201MOL0     H27103  12.066  11.080   7.463  2.2061 -0.6371 -0.7713
  201MOL0     H27104  12.139  11.084   7.628 -2.0105 -1.0205  1.0448
  201MOL0     H27105  12.096  11.350   7.475  0.6460 -1.4020 -0.6523
  201MOL0     H27106  12.091  11.308   7.656 -0.5622  0.9123  1.0913
  201MOL0     H27107  11.888  11.219   7.649 -0.7737 -1.0165 -0.9167
  201MOL0     H27108  11.866  11.213   7.474 -1.6834 -0.7353  1.0626
  201MOL0     H27109  11.920  11.464   7.639  0.7629 -1.4762 -0.6466
  201MOL0     H27110  11.855  11.470   7.480 -2.1048  0.4039  0.1326
  201MOL0     H27111  11.690  11.533   7.605 -0.0619 -0.5685 -0.2780
  201MOL0     H27112  11.742  11.428   7.740  1.5790  0.7794 -0.8447
  201MOL0     H27113  11.596  11.348   7.479  1.9293 -0.3874  0.0922
  201MOL0     H27114  11.621  11.234   7.613  4.4362 -0.6008 -2.9339
  201MOL0     H27115  12.101  10.813   7.236 -0.7014 -0.9327 -1.7385
  201MOL0     H27116  12.072  10.567   7.233  0.5081 -0.5519 -1.2888
  201MOL0     H27117  12.087  10.198   7.454  3.4303 -0.7011  2.7795
  201MOL0     H27118  12.082   9.966   7.506 -4.3412  1.7224  0.0420
  201MOL0     H27119  10.362   9.285   7.042  1.6565 -1.5100 -1.2347
  201MOL0     H27120  10.111   9.335   7.020 -2.2253 -1.1942 -1.9347
  201MOL0     H27121   9.715   9.228   7.126 -2.5790 -3.4955  2.2220
  201MOL0     H27122   9.487   9.349   7.117 -1.7706 -0.1484 -1.5684
  201MOL0     H27123   9.371   9.508   6.948  2.1416 -1.4112 -2.5380
  201MOL0     H27124   9.305   9.446   7.103  0.5218  0.5008  0.0966
  201MOL0     H27125   9.136   9.478   6.855 -4.2366  2.1921  1.2009
  201MOL0     H27126   9.152   9.590   6.992  3.2594  1.1575 -0.2263
  201MOL0     H27127   9.068   9.298   7.009  0.3516 -0.1809 -1.5031
  201MOL0     H27128   8.964   9.450   7.005  0.3967 -1.3826 -0.1989
  201MOL0     H27129   9.148   9.350   7.222 -0.2599  1.0752  1.9870
  201MOL0     H27130   9.080   9.517   7.218  1.9805  0.9674 -3.3684
  201MOL0     H27131   8.748   9.259   7.283  0.0737  0.8581  0.3367
  201MOL0     H27132   9.392   9.148   6.760  0.4511 -0.0943 -0.3710
  201MOL0     H27133   9.709   8.942   6.737  0.8974  1.5346  3.7828
  201MOL0     H27134   9.536   8.924   6.737  0.3075 -0.3139  3.8936
  201MOL0     H27135   9.616   9.055   6.635  0.0172  1.9555  0.5372
  202MOL0     O27136   1.560  10.187   1.840 -0.0836  0.4073  0.5078
  202MOL0     C27137   1.507  10.211   1.946 -0.4520  0.1206  0.2186
  202MOL0     O27138   1.568  10.206   2.068 -0.0692  0.2018  0.2517
  202MOL0     C27139   1.698  10.157   2.082 -0.1763  0.3598 -0.0208
  202MOL0     C27140   1.728  10.019   2.083  0.2317  0.4645 -0.3602
  202MOL0     C27141   1.864   9.983   2.080  0.1449  0.3862  0.6399
  202MOL0     C27142   1.967  10.083   2.088 -0.3571  1.0694  0.3083
  202MOL0     O27143   2.094  10.049   2.114  0.4504  0.4801 -0.7173
  202MOL0     C27144   2.141   9.916   2.079  0.8289  0.0418  0.1640
  202MOL0     C27145   2.291   9.918   2.076  0.8535  0.6777  1.1105
  202MOL0     C27146   2.360   9.982   2.182  0.0938  0.5663  0.2091
  202MOL0     C27147   2.504   9.923   2.183 -0.5300 -0.6332  0.0873
  202MOL0     C27148   2.594   9.978   2.298 -0.3464 -0.1837  0.6738
  202MOL0     C27149   2.741   9.978   2.253  0.2239  0.3983 -1.1432
  202MOL0     C27150   2.837   9.990   2.362  0.4288  0.2602  0.4343
  202MOL0     C27151   2.797  10.086   2.480 -0.2482  0.0188  0.8534
  202MOL0     N27152   2.904  10.126   2.572  0.1899 -0.2173 -0.4295
  202MOL0     C27153   2.888  10.140   2.705 -0.6897  0.1854  0.0638
  202MOL0     C27154   2.998  10.198   2.755  0.7995  0.3081 -0.3273
  202MOL0     C27155   3.034  10.222   2.897 -0.6636 -0.1287  0.3391
  202MOL0     C27156   3.078  10.082   2.954  0.2836 -0.3238  0.7971
  202MOL0     C27157   3.153  10.101   3.080  0.4248  0.1944 -1.2823
  202MOL0     C27158   3.063  10.135   3.194 -0.3359 -0.7303 -0.4540
  202MOL0     O27159   3.024  10.275   3.200  0.2533  0.5542 -0.4605
  202MOL0     C27160   3.117  10.358   3.237  0.0775 -0.5005  0.5975
  202MOL0     C27161   3.237  10.337   3.305  0.3170 -0.6803 -0.1348
  202MOL0     C27162   3.324  10.446   3.340 -0.2336  0.5022  0.8513
  202MOL0     C27163   3.293  10.573   3.305  0.7432 -0.7562  0.3930
  202MOL0     C27164   3.387  10.692   3.349  0.6653  0.0321 -0.1121
  202MOL0     O27165   3.520  10.671   3.329  0.1997  0.2580 -0.0603
  202MOL0     C27166   3.618  10.759   3.380 -0.0533 -0.8830 -0.0378
  202MOL0     C27167   3.728  10.801   3.298 -0.4006  1.2422 -0.0623
  202MOL0     C27168   3.816  10.907   3.347 -0.8584  0.9282  0.2792
  202MOL0     C27169   3.799  10.961   3.476 -0.7370 -0.3776 -0.7073
  202MOL0     O27170   3.874  11.064   3.533 -0.3428  0.5040  0.0930
  202MOL0     C27171   3.980  11.126   3.452 -1.1262  0.4760 -0.3414
  202MOL0     C27172   4.000  11.277   3.485 -0.3222  0.5112  0.4274
  202MOL0     C27173   4.090  11.350   3.390  0.1797 -0.7756 -0.3291
  202MOL0     C27174   4.126  11.485   3.456 -0.7936 -0.3377  0.6895
  202MOL0     C27175   4.237  11.567   3.381  0.5006  1.6456  0.1291
  202MOL0     C27176   4.365  11.491   3.374 -0.3253 -0.6118 -0.6471
  202MOL0     C27177   4.487  11.585   3.358  0.4494  0.3646  0.9883
  202MOL0     C27178   4.623  11.527   3.397  0.1991 -0.0615 -0.1273
  202MOL0    Cl27179   4.631  11.375   3.305 -0.3776 -0.0959  0.0526
  202MOL0     C27180   3.700  10.922   3.552  0.7539  0.2760 -0.1416
  202MOL0     C27181   3.607  10.826   3.506  0.1298 -0.8504 -0.6032
  202MOL0     O27182   3.326  10.780   3.412 -0.3236 -0.7651 -0.3204
  202MOL0     C27183   3.166  10.601   3.242 -0.1496 -0.1155 -0.9755
  202MOL0     C27184   3.089  10.494   3.205  0.8691 -0.4125  0.5769
  202MOL0     N27185   3.074  10.249   2.650  0.1004 -0.1160 -0.5222
  202MOL0     N27186   3.011  10.204   2.543 -0.0785 -0.1237  0.3243
  202MOL0     C27187   1.937  10.218   2.092 -0.2055  0.9630  1.3004
  202MOL0     C27188   1.800  10.259   2.084 -0.2064 -0.3486 -1.4574
  202MOL0     C27189   1.361  10.238   1.932  0.3118 -0.1470 -0.9814
  202MOL0     C27190   1.288  10.129   1.877 -0.5048 -0.0430  0.8555
  202MOL0     C27191   1.147  10.129   1.866  0.0761  0.0051 -0.5667
  202MOL0     C27192   1.077  10.249   1.914 -0.1905 -0.5355 -0.7242
  202MOL0     O27193   0.942  10.231   1.917  0.5770  0.8320  0.1391
  202MOL0     C27194   0.862  10.331   1.988 -0.0121  0.3128  0.0368
  202MOL0     C27195   0.711  10.293   1.986  0.4926 -0.2774  1.0235
  202MOL0     C27196   0.615  10.408   2.025 -0.8572  0.5627 -0.6373
  202MOL0     C27197   0.466  10.373   1.979  0.8677  0.8229 -0.2631
  202MOL0     C27198   0.389  10.269   2.057 -0.0653  0.8867 -0.0671
  202MOL0     C27199   0.326  10.184   2.111  0.1452  0.3414 -0.2393
  202MOL0     C27200   1.152  10.357   1.976 -0.1756  0.5702 -0.0800
  202MOL0     C27201   1.298  10.355   1.971 -0.8261  0.4393  0.1852
  202MOL0     C27202   1.365  10.476   2.031  0.2378  0.1962 -0.0083
  202MOL0     H27203   1.653   9.943   2.064  4.1154 -3.4677 -1.8820
  202MOL0     H27204   1.886   9.877   2.084  2.8824  0.8969  2.2371
  202MOL0     H27205   2.114   9.839   2.153 -0.3727  1.0507  0.8304
  202MOL0     H27206   2.113   9.892   1.976  0.0563  1.9877 -0.1194
  202MOL0     H27207   2.312   9.969   1.982 -0.2664 -4.9204 -2.6926
  202MOL0     H27208   2.316   9.812   2.065 -2.4549  0.0147 -1.7061
  202MOL0     H27209   2.307   9.966   2.277 -0.5329 -1.1059 -0.3865
  202MOL0     H27210   2.371  10.089   2.161 -1.6386  0.7323  0.0315
  202MOL0     H27211   2.495   9.814   2.189 -4.6407 -0.4298  0.7208
  202MOL0     H27212   2.558   9.958   2.095  2.1962 -2.8734  0.7279
  202MOL0     H27213   2.572  10.080   2.333 -1.0297 -0.5228  1.2684
  202MOL0     H27214   2.572   9.914   2.384 -0.3852  2.1648  2.5475
  202MOL0     H27215   2.776   9.895   2.190  1.9324 -1.1272  1.5961
  202MOL0     H27216   2.755  10.067   2.191 -0.2954  0.0040 -1.8425
  202MOL0     H27217   2.935  10.023   2.328  0.4457 -1.7507 -1.7510
  202MOL0     H27218   2.854   9.896   2.416  1.2122  0.5915  0.7715
  202MOL0     H27219   2.751  10.177   2.442 -1.7132 -0.9046  0.3300
  202MOL0     H27220   2.721  10.035   2.540 -0.1012  1.1691  2.0709
  202MOL0     H27221   2.815  10.102   2.776 -0.2363 -0.5081  0.1732
  202MOL0     H27222   3.129  10.276   2.886 -0.6722 -0.4275 -1.5091
  202MOL0     H27223   2.965  10.289   2.950  1.4004  2.6131 -0.2013
  202MOL0     H27224   2.990  10.017   2.962 -0.0197 -0.0030  0.1502
  202MOL0     H27225   3.153  10.031   2.892  0.4289  0.4387  0.3278
  202MOL0     H27226   3.235  10.169   3.057  1.7643 -1.2255 -0.9312
  202MOL0     H27227   3.194  10.003   3.108 -0.9676 -0.8491 -2.7031
  202MOL0     H27228   3.116  10.097   3.282 -1.6415  1.1001  1.2078
  202MOL0     H27229   2.973  10.073   3.197  1.6042 -3.7130  0.5921
  202MOL0     H27230   3.266  10.237   3.338  0.5228 -0.7799 -0.6208
  202MOL0     H27231   3.414  10.424   3.397 -1.9151 -2.8126  2.5071
  202MOL0     H27232   3.743  10.770   3.195 -0.1991 -2.6148  0.9688
  202MOL0     H27233   3.896  10.934   3.279 -0.1966 -3.4167 -0.9914
  202MOL0     H27234   4.074  11.071   3.464 -0.8457  0.7015 -1.4341
  202MOL0     H27235   3.957  11.124   3.345  1.3787 -1.0219 -0.9437
  202MOL0     H27236   3.900  11.321   3.478 -0.0840  0.7927 -1.8184
  202MOL0     H27237   4.028  11.272   3.590 -1.8340  1.0021  0.8897
  202MOL0     H27238   4.182  11.292   3.379  1.8412  1.7139 -0.4961
  202MOL0     H27239   4.060  11.377   3.288  0.6151 -0.8292 -0.4742
  202MOL0     H27240   4.153  11.463   3.559  3.7501 -1.3071 -0.4906
  202MOL0     H27241   4.038  11.551   3.462 -1.6700 -1.5099  1.1467
  202MOL0     H27242   4.245  11.659   3.440  0.9796  1.5136  0.2766
  202MOL0     H27243   4.204  11.596   3.280  3.3444 -3.7757 -2.7963
  202MOL0     H27244   4.380  11.449   3.474 -0.5127 -1.8912 -1.1396
  202MOL0     H27245   4.364  11.407   3.304  0.9922 -0.3064 -1.0650
  202MOL0     H27246   4.480  11.667   3.430  0.5715  2.3899 -1.1608
  202MOL0     H27247   4.492  11.624   3.256 -3.9474  1.0866  0.8501
  202MOL0     H27248   4.696  11.604   3.369 -3.7525  3.6589 -1.3514
  202MOL0     H27249   4.624  11.507   3.505  0.2962  2.5331  0.4404
  202MOL0     H27250   3.677  10.973   3.645 -0.7174  0.8278 -0.7595
  202MOL0     H27251   3.517  10.810   3.565 -0.7963  0.9210 -1.4345
  202MOL0     H27252   3.135  10.702   3.219 -0.4511 -0.3666 -1.7118
  202MOL0     H27253   2.994  10.519   3.158 -0.4843 -3.5626  1.3671
  202MOL0     H27254   2.019  10.289   2.096 -0.2406  1.0034  1.2849
  202MOL0     H27255   1.762  10.361   2.082 -0.0720 -0.3077 -2.9137
  202MOL0     H27256   1.337  10.043   1.834  1.7434  0.9500  1.3137
  202MOL0     H27257   1.085  10.050   1.823 -0.1994 -0.2638  0.3053
  202MOL0     H27258   0.869  10.426   1.935 -1.8711 -0.7799 -2.3799
  202MOL0     H27259   0.903  10.342   2.089 -0.1800  0.2071  0.1180
  202MOL0     H27260   0.703  10.205   2.052  0.2738 -1.6694 -0.7684
  202MOL0     H27261   0.701  10.261   1.882  2.1301 -1.0675  1.0823
  202MOL0     H27262   0.656  10.495   1.972 -0.5294 -0.3507 -1.9364
  202MOL0     H27263   0.619  10.431   2.131  1.4118 -4.2062  0.5859
  202MOL0     H27264   0.403  10.462   1.985 -1.3653 -0.7562  1.6091
  202MOL0     H27265   0.463  10.350   1.872  0.1258 -0.8236  0.0832
  202MOL0     H27266   0.270  10.106   2.157 -0.3732  0.1865 -1.1119
  202MOL0     H27267   1.101  10.446   2.011 -1.0986 -0.5183  1.4608
  202MOL0     H27268   1.415  10.527   1.948  0.0072  0.9322  0.2981
  202MOL0     H27269   1.298  10.547   2.079 -1.3230 -1.3775  0.2451
  202MOL0     H27270   1.436  10.431   2.101  1.3593  0.2889 -1.0409
  203MOL0     O27271   3.854   7.631   7.567  0.4846 -0.0036  0.0969
  203MOL0     C27272   3.817   7.750   7.580  0.8485 -0.0915  1.1951
  203MOL0     O27273   3.698   7.793   7.531  0.2507  0.0258 -0.2792
  203MOL0     C27274   3.614   7.700   7.470 -0.5004 -0.3256  0.5339
  203MOL0     C27275   3.540   7.612   7.547  0.4566 -0.7759 -0.1475
  203MOL0     C27276   3.460   7.510   7.487 -0.9498  0.7198 -0.3460
  203MOL0     C27277   3.482   7.488   7.357 -0.0990  0.2098 -0.0226
  203MOL0     O27278   3.427   7.381   7.290 -0.4899 -0.1016 -0.5328
  203MOL0     C27279   3.452   7.250   7.350  0.2946  0.3255  0.2824
  203MOL0     C27280   3.428   7.137   7.237 -0.6713 -0.1773 -0.1457
  203MOL0     C27281   3.530   7.144   7.119 -0.6457 -0.5804  1.4044
  203MOL0     C27282   3.521   7.032   7.015  0.5181 -0.5872  0.5195
  203MOL0     C27283   3.621   6.919   7.059 -0.4570  0.2089  0.4091
  203MOL0     C27284   3.635   6.819   6.951 -0.0753  0.5518 -0.3940
  203MOL0     C27285   3.761   6.727   6.987  0.5957  0.7059 -0.6191
  203MOL0     C27286   3.746   6.597   6.904 -0.5595  0.8501 -0.6747
  203MOL0     N27287   3.853   6.497   6.946  0.4907  0.0267  0.3397
  203MOL0     C27288   3.982   6.503   6.914 -0.4607 -0.0464  0.1111
  203MOL0     C27289   4.043   6.394   6.976  0.2029  0.6739  0.4065
  203MOL0     C27290   4.186   6.363   6.952 -0.0529 -0.0444 -0.4030
  203MOL0     C27291   4.195   6.247   6.847 -0.5810  0.6038 -0.0523
  203MOL0     C27292   4.098   6.251   6.718  0.5690  0.3635  0.2578
  203MOL0     C27293   4.107   6.363   6.630 -0.2181 -0.7430 -0.0778
  203MOL0     O27294   4.020   6.360   6.513  0.0222 -0.5805 -0.5613
  203MOL0     C27295   4.075   6.352   6.389 -0.4674  0.1456 -0.1077
  203MOL0     C27296   4.122   6.227   6.343 -0.3935 -0.2964 -0.2846
  203MOL0     C27297   4.178   6.206   6.214  0.4624 -0.7260 -0.2120
  203MOL0     C27298   4.175   6.321   6.129 -0.2354 -0.3476 -0.2560
  203MOL0     C27299   4.222   6.319   5.987  0.1814 -0.6479  0.1402
  203MOL0     O27300   4.190   6.430   5.913  0.3078  0.5129  0.3647
  203MOL0     C27301   4.215   6.439   5.776 -0.7820  0.2233 -0.0470
  203MOL0     C27302   4.188   6.329   5.692 -0.0985  0.1314 -0.1385
  203MOL0     C27303   4.230   6.334   5.560 -0.1287 -0.2146 -0.0027
  203MOL0     C27304   4.305   6.442   5.509  0.1682  0.0672  0.3315
  203MOL0     O27305   4.357   6.429   5.384  0.5140 -0.0373  0.2622
  203MOL0     C27306   4.479   6.370   5.378  0.5103  0.0005  0.0741
  203MOL0     C27307   4.596   6.465   5.356  0.3428  0.1227 -0.5758
  203MOL0     C27308   4.596   6.527   5.223 -0.2607  0.3820  0.3941
  203MOL0     C27309   4.633   6.422   5.114 -0.2131 -1.2455  0.0702
  203MOL0     C27310   4.661   6.482   4.971 -0.0036  0.0505 -0.2839
  203MOL0     C27311   4.666   6.373   4.855 -0.0867 -0.2223 -0.7091
  203MOL0     C27312   4.778   6.280   4.869 -1.0184 -0.1104 -0.4856
  203MOL0     C27313   4.807   6.199   4.742  0.7464 -0.0511  0.9728
  203MOL0    Cl27314   4.690   6.054   4.733  0.4896 -0.1602  0.0068
  203MOL0     C27315   4.323   6.556   5.595  1.2439  0.7210  1.1846
  203MOL0     C27316   4.274   6.557   5.725 -0.3144  0.5403 -1.1089
  203MOL0     O27317   4.286   6.220   5.952  0.1138 -0.1064 -0.6644
  203MOL0     C27318   4.128   6.445   6.184  1.1785  0.0036 -0.2609
  203MOL0     C27319   4.083   6.456   6.310  0.2655  0.4018  0.6505
  203MOL0     N27320   3.946   6.324   7.033 -0.0026  0.1952 -0.0171
  203MOL0     N27321   3.833   6.379   7.005  0.1423  0.1437 -0.2977
  203MOL0     C27322   3.544   7.579   7.270 -0.5744 -0.4337 -0.1041
  203MOL0     C27323   3.606   7.694   7.335  0.2671 -0.1214  1.0293
  203MOL0     C27324   3.890   7.844   7.660 -0.5659  0.1711 -0.9792
  203MOL0     C27325   3.836   7.973   7.678  0.3807  0.2442 -0.1257
  203MOL0     C27326   3.901   8.061   7.761 -1.3208 -0.2686 -0.3629
  203MOL0     C27327   4.023   8.039   7.812 -0.9075  0.2780  0.0892
  203MOL0     O27328   4.084   8.136   7.893  0.1822  1.2365  0.4599
  203MOL0     C27329   4.166   8.212   7.819  0.2218 -0.0302 -0.1439
  203MOL0     C27330   4.093   8.325   7.751  0.0699 -0.6542  0.4583
  203MOL0     C27331   4.034   8.425   7.847 -0.0753  0.1390 -0.1051
  203MOL0     C27332   3.950   8.531   7.787  0.2894 -0.4615 -0.6522
  203MOL0     C27333   4.010   8.608   7.686 -0.7477  0.3865 -0.4605
  203MOL0     C27334   4.060   8.653   7.589 -0.9177 -0.5864 -0.2251
  203MOL0     C27335   4.087   7.923   7.778  0.7831  0.0205 -0.7794
  203MOL0     C27336   4.025   7.815   7.710 -1.2160 -0.5089  0.2056
  203MOL0     C27337   4.111   7.693   7.678  0.9414  1.1573 -0.1121
  203MOL0     H27338   3.527   7.635   7.652 -2.0909 -0.3625 -0.4985
  203MOL0     H27339   3.400   7.437   7.541  0.3439 -1.3770 -1.5646
  203MOL0     H27340   3.554   7.245   7.388  0.3606  0.2231  0.0952
  203MOL0     H27341   3.379   7.229   7.429  0.9535 -4.3845 -0.0645
  203MOL0     H27342   3.324   7.152   7.205 -0.1197  3.1040 -0.6699
  203MOL0     H27343   3.434   7.040   7.289  0.6691  0.5196  1.0816
  203MOL0     H27344   3.630   7.159   7.159 -0.1804  1.7216 -0.4462
  203MOL0     H27345   3.494   7.231   7.064 -0.7906  0.0652  2.4858
  203MOL0     H27346   3.418   7.000   6.994  0.3333 -0.5449  1.3214
  203MOL0     H27347   3.572   7.063   6.923  0.7682 -1.6877  0.2668
  203MOL0     H27348   3.717   6.962   7.091 -0.1447 -0.0201 -0.2007
  203MOL0     H27349   3.578   6.878   7.151 -2.0242  1.4441  0.2714
  203MOL0     H27350   3.544   6.758   6.954 -0.7098  1.2918  4.7097
  203MOL0     H27351   3.652   6.867   6.854 -3.1845  3.6656  0.3990
  203MOL0     H27352   3.752   6.699   7.093 -5.1761 -1.2024 -1.2598
  203MOL0     H27353   3.862   6.768   6.975  1.9641 -2.2032 -0.0420
  203MOL0     H27354   3.642   6.565   6.916 -0.2357 -1.0668 -2.3535
  203MOL0     H27355   3.780   6.625   6.804  2.0107 -1.0263 -0.4534
  203MOL0     H27356   4.032   6.584   6.862 -0.4586 -0.4269 -0.4928
  203MOL0     H27357   4.227   6.456   6.912  0.9368 -0.4271 -0.3147
  203MOL0     H27358   4.236   6.328   7.044  0.0075  0.3854 -0.2694
  203MOL0     H27359   4.301   6.238   6.825  0.0883 -1.2032  3.3039
  203MOL0     H27360   4.172   6.153   6.900  1.6491  1.5935  2.8884
  203MOL0     H27361   3.994   6.246   6.752 -0.0703  0.3164 -1.5943
  203MOL0     H27362   4.113   6.149   6.680 -2.2732 -0.3312  0.7816
  203MOL0     H27363   4.208   6.366   6.590  0.2948  1.2572  1.1737
  203MOL0     H27364   4.081   6.454   6.686  1.9551 -0.0654 -0.0861
  203MOL0     H27365   4.114   6.147   6.417 -0.4798  0.2577  0.3121
  203MOL0     H27366   4.220   6.112   6.182  2.5776  0.4010 -0.9216
  203MOL0     H27367   4.142   6.239   5.732  1.1965  0.1853  1.5981
  203MOL0     H27368   4.220   6.244   5.499  0.2422  1.2262 -2.3049
  203MOL0     H27369   4.493   6.312   5.470  1.4008 -1.7450 -1.0980
  203MOL0     H27370   4.478   6.292   5.300  1.6287  1.2005 -1.1996
  203MOL0     H27371   4.604   6.537   5.437 -0.4540  2.0601 -2.1458
  203MOL0     H27372   4.691   6.411   5.361  0.6377  0.7347  0.8739
  203MOL0     H27373   4.495   6.549   5.188  1.0538  2.5296 -2.4811
  203MOL0     H27374   4.661   6.615   5.221  1.1939 -0.6807 -0.4952
  203MOL0     H27375   4.545   6.357   5.110  0.5257 -2.2336 -0.3891
  203MOL0     H27376   4.726   6.376   5.148  0.7991  0.3500 -0.4659
  203MOL0     H27377   4.759   6.529   4.984  1.2221 -2.4556  0.1530
  203MOL0     H27378   4.580   6.549   4.940  0.8935  0.5863 -1.5752
  203MOL0     H27379   4.575   6.312   4.847  1.9239 -4.3083  3.2075
  203MOL0     H27380   4.682   6.425   4.760 -1.9907 -2.1426 -2.1774
  203MOL0     H27381   4.773   6.216   4.958 -0.4799 -2.4003 -2.0231
  203MOL0     H27382   4.870   6.337   4.888 -1.4273  0.1418  0.8592
  203MOL0     H27383   4.793   6.257   4.651 -4.6886 -1.4214  0.6316
  203MOL0     H27384   4.909   6.158   4.744  1.0588  0.6245 -0.2838
  203MOL0     H27385   4.382   6.634   5.548  1.2790 -0.2527 -0.4663
  203MOL0     H27386   4.288   6.647   5.785 -0.1232 -1.6735  2.4368
  203MOL0     H27387   4.118   6.527   6.113 -3.3559  0.1201  0.2564
  203MOL0     H27388   4.069   6.559   6.343 -0.1228 -0.1030  2.1677
  203MOL0     H27389   3.559   7.571   7.163  0.0638  0.3538 -0.0827
  203MOL0     H27390   3.654   7.774   7.280 -0.2477  0.0866  0.8809
  203MOL0     H27391   3.749   8.015   7.628  1.2860  0.6460 -1.4219
  203MOL0     H27392   3.847   8.150   7.791 -3.4367 -1.5384 -0.1788
  203MOL0     H27393   4.211   8.150   7.741 -2.2379 -1.8092 -0.2970
  203MOL0     H27394   4.251   8.252   7.874  1.5650 -3.1556  0.2920
  203MOL0     H27395   4.012   8.282   7.692  0.7023 -1.1289 -0.0818
  203MOL0     H27396   4.167   8.371   7.685 -0.6908 -3.5427 -2.6562
  203MOL0     H27397   4.119   8.466   7.902 -0.5724  0.9759  0.0530
  203MOL0     H27398   3.979   8.373   7.926  0.6070 -0.8885 -0.2739
  203MOL0     H27399   3.853   8.490   7.757 -0.0592  0.9967 -1.6080
  203MOL0     H27400   3.921   8.601   7.865  1.9820 -1.4380  0.9387
  203MOL0     H27401   4.118   8.678   7.503  1.3640 -1.5076  0.9495
  203MOL0     H27402   4.192   7.922   7.806  1.4246 -0.9897 -3.0366
  203MOL0     H27403   4.069   7.605   7.726  1.1764  3.1639  4.2995
  203MOL0     H27404   4.117   7.668   7.572 -1.7810 -0.1030 -0.0329
  203MOL0     H27405   4.212   7.721   7.708  3.5037  0.0232 -6.1119
  204MOL0     O27406  10.821  10.304   9.046  0.0169 -0.4650  0.3470
  204MOL0     C27407  10.799  10.186   9.028 -0.0636  0.4910 -0.2185
  204MOL0     O27408  10.678  10.139   9.001  0.7476  0.5955  0.5913
  204MOL0     C27409  10.559  10.217   8.995  0.5846  0.5256  0.0030
  204MOL0     C27410  10.533  10.324   9.087  0.1638  0.4854 -0.2336
  204MOL0     C27411  10.432  10.418   9.084  0.2335  0.3761  0.5314
  204MOL0     C27412  10.353  10.413   8.970  0.3539  0.7306  0.2900
  204MOL0     O27413  10.271  10.507   8.921 -0.8345 -0.0992 -0.0449
  204MOL0     C27414  10.256  10.620   9.007  0.9061 -0.0267 -0.2107
  204MOL0     C27415  10.128  10.699   8.969 -0.1723  0.1847  0.9955
  204MOL0     C27416  10.174  10.807   8.872 -0.7167 -0.1274  0.1731
  204MOL0     C27417  10.110  10.767   8.739  0.1604  0.1526 -0.5203
  204MOL0     C27418  10.200  10.828   8.633 -0.4485 -0.9335 -0.2633
  204MOL0     C27419  10.174  10.775   8.497  0.9410  0.2155  0.3479
  204MOL0     C27420  10.023  10.771   8.456 -1.2602  0.2649 -0.6547
  204MOL0     C27421   9.953  10.901   8.460  0.3183 -0.0267  0.9341
  204MOL0     N27422   9.833  10.915   8.377 -0.4272  0.0014  0.5789
  204MOL0     C27423   9.701  10.892   8.415 -0.1722 -0.3807 -0.1938
  204MOL0     C27424   9.625  10.944   8.318 -0.8272 -0.7254 -0.0993
  204MOL0     C27425   9.474  10.960   8.333 -0.0634  0.0307 -0.0904
  204MOL0     C27426   9.392  10.848   8.272  0.4429 -0.7945 -0.7327
  204MOL0     C27427   9.237  10.876   8.288 -0.7781  0.3887 -0.4498
  204MOL0     C27428   9.161  10.751   8.248 -0.7510  0.3934  0.7020
  204MOL0     O27429   9.021  10.765   8.261 -0.3900 -0.5402  0.4045
  204MOL0     C27430   8.975  10.771   8.391 -0.2569 -0.0275  0.8832
  204MOL0     C27431   8.845  10.804   8.404  0.5951 -0.4476 -0.0011
  204MOL0     C27432   8.788  10.821   8.528 -0.4052  0.1559 -0.7867
  204MOL0     C27433   8.859  10.785   8.650 -0.6635 -0.8036  0.7885
  204MOL0     C27434   8.802  10.801   8.779  0.4522  0.0017  0.1525
  204MOL0     O27435   8.679  10.866   8.783 -0.6588 -0.5594 -0.3632
  204MOL0     C27436   8.617  10.887   8.904 -0.0475 -0.6070 -1.0073
  204MOL0     C27437   8.675  10.983   8.992  0.0905 -0.1283  0.8142
  204MOL0     C27438   8.620  11.009   9.115  0.6916  0.8604  0.5636
  204MOL0     C27439   8.495  10.947   9.146 -0.9047 -0.2286  0.9225
  204MOL0     O27440   8.423  10.970   9.260 -0.1793 -0.8452  0.1079
  204MOL0     C27441   8.436  11.098   9.327 -0.5957 -0.1820 -0.5888
  204MOL0     C27442   8.315  11.116   9.414  0.1127 -0.2827 -0.1988
  204MOL0     C27443   8.189  11.095   9.335  0.1886  0.0957  0.4468
  204MOL0     C27444   8.066  11.136   9.417  0.1410 -0.7246  0.4764
  204MOL0     C27445   7.942  11.104   9.348 -0.1921 -0.9026 -0.7056
  204MOL0     C27446   7.830  11.131   9.447 -0.2386  0.1113  0.0345
  204MOL0     C27447   7.696  11.107   9.402  0.2181 -0.6555  0.0626
  204MOL0     C27448   7.578  11.126   9.499 -0.4637 -0.8066  0.5620
  204MOL0    Cl27449   7.583  11.293   9.562 -0.4291  0.1444  0.5425
  204MOL0     C27450   8.452  10.840   9.074  0.9042  0.0073 -0.3665
  204MOL0     C27451   8.507  10.817   8.948  0.1819  1.0316  0.1700
  204MOL0     O27452   8.865  10.765   8.881  0.0155  0.1100  0.1686
  204MOL0     C27453   8.989  10.741   8.635 -0.2618 -0.1763  0.3177
  204MOL0     C27454   9.050  10.736   8.512 -1.0827 -1.0741  1.4428
  204MOL0     N27455   9.706  11.009   8.222 -0.2147  0.5331  0.1179
  204MOL0     N27456   9.832  10.986   8.263 -0.4997  0.0375  0.6918
  204MOL0     C27457  10.360  10.299   8.886 -0.6761 -0.5838 -0.9423
  204MOL0     C27458  10.461  10.196   8.897 -0.5132 -0.7175 -0.0763
  204MOL0     C27459  10.914  10.099   9.055  0.0381  0.1175  0.6421
  204MOL0     C27460  10.894   9.963   9.074 -0.1813  0.0698 -0.2012
  204MOL0     C27461  10.991   9.870   9.097 -0.8645  1.2368  0.9959
  204MOL0     C27462  11.125   9.916   9.102  0.6746  0.1250  0.4982
  204MOL0     O27463  11.217   9.822   9.140 -0.3962 -0.1569 -0.6260
  204MOL0     C27464  11.348   9.849   9.184 -0.5819  0.2527 -1.1178
  204MOL0     C27465  11.406   9.708   9.228 -0.0370 -0.3613  1.0620
  204MOL0     C27466  11.563   9.725   9.232  0.7036 -0.5662  0.0609
  204MOL0     C27467  11.613   9.776   9.369 -0.2384 -0.1861 -0.5535
  204MOL0     C27468  11.747   9.846   9.366  0.1427  0.3145  0.5476
  204MOL0     C27469  11.858   9.895   9.361 -0.0058  0.3661  0.4865
  204MOL0     C27470  11.153  10.048   9.086 -0.6530 -1.5020  0.2852
  204MOL0     C27471  11.052  10.149   9.061  0.3398  0.3364  0.1889
  204MOL0     C27472  11.111  10.289   9.043 -0.6903  0.3452 -0.1440
  204MOL0     H27473  10.609  10.328   9.164  1.5589  1.8311 -1.5995
  204MOL0     H27474  10.431  10.506   9.147  1.3889  1.6831 -1.1878
  204MOL0     H27475  10.240  10.591   9.112  1.5726 -1.2943 -0.4334
  204MOL0     H27476  10.348  10.677   9.017  1.1066 -0.6737  2.6940
  204MOL0     H27477  10.083  10.761   9.047 -0.7563  1.3861 -0.2572
  204MOL0     H27478  10.055  10.626   8.932 -0.9732 -0.2133  3.2270
  204MOL0     H27479  10.282  10.791   8.865 -1.0505 -3.4610  0.5983
  204MOL0     H27480  10.159  10.911   8.903 -0.2584 -0.0963  0.2973
  204MOL0     H27481  10.110  10.658   8.736 -0.2026 -0.2684  4.6419
  204MOL0     H27482  10.005  10.795   8.737  0.1716  0.1965 -0.4999
  204MOL0     H27483  10.186  10.937   8.628  0.7792 -0.8075 -1.2927
  204MOL0     H27484  10.305  10.805   8.652 -0.5468 -4.0131 -2.7335
  204MOL0     H27485  10.241  10.826   8.427  2.4163  0.6849  2.0303
  204MOL0     H27486  10.211  10.673   8.485  0.1694 -0.2300  1.6362
  204MOL0     H27487   9.964  10.708   8.525  0.7694  0.5045  1.4365
  204MOL0     H27488  10.016  10.727   8.356  2.5115  0.4096 -1.1450
  204MOL0     H27489   9.928  10.934   8.561 -0.2810  0.8740  0.5132
  204MOL0     H27490  10.011  10.984   8.418 -3.0510  0.4432 -3.5933
  204MOL0     H27491   9.675  10.845   8.509  2.0792  0.7462  1.0831
  204MOL0     H27492   9.458  10.952   8.441 -0.5583 -1.9635 -0.2750
  204MOL0     H27493   9.430  11.052   8.292  0.9836  0.0237 -1.3327
  204MOL0     H27494   9.434  10.819   8.176 -0.2486 -5.2473  0.0571
  204MOL0     H27495   9.404  10.753   8.326 -0.3813  0.9562  2.8669
  204MOL0     H27496   9.219  10.956   8.216  0.9880  1.6407  0.4217
  204MOL0     H27497   9.206  10.918   8.384  1.0175 -2.6127  1.6377
  204MOL0     H27498   9.207  10.676   8.313  0.6870  1.3984  0.9103
  204MOL0     H27499   9.185  10.725   8.144  3.1936  0.8706  1.3065
  204MOL0     H27500   8.784  10.816   8.316  0.8913 -0.0673 -0.1593
  204MOL0     H27501   8.685  10.855   8.542 -0.1469  0.2181  1.2247
  204MOL0     H27502   8.769  11.029   8.964  3.2094 -5.4919  1.0862
  204MOL0     H27503   8.647  11.097   9.173  0.1685  1.2204  0.2665
  204MOL0     H27504   8.519  11.100   9.399 -0.2392  0.0632 -0.9986
  204MOL0     H27505   8.454  11.185   9.263 -2.8748  0.2414 -0.7147
  204MOL0     H27506   8.319  11.041   9.494 -7.1916 -1.7067 -0.4913
  204MOL0     H27507   8.319  11.217   9.454  0.4374  0.0662 -1.0894
  204MOL0     H27508   8.201  11.161   9.249  0.6313  0.7343  0.9964
  204MOL0     H27509   8.190  10.991   9.299 -0.7692  1.0350 -2.5862
  204MOL0     H27510   8.070  11.245   9.426 -0.5511 -0.6953  0.5209
  204MOL0     H27511   8.058  11.090   9.516 -2.7604  1.1467  1.2260
  204MOL0     H27512   7.941  10.999   9.317 -4.3675 -0.1321 -4.1348
  204MOL0     H27513   7.925  11.170   9.263 -1.4511 -1.8052 -1.1934
  204MOL0     H27514   7.848  11.077   9.540 -0.3070  2.1514  1.3104
  204MOL0     H27515   7.837  11.236   9.479  2.3298 -0.1585  0.6073
  204MOL0     H27516   7.679  11.005   9.367  0.2656  0.3401 -3.2146
  204MOL0     H27517   7.680  11.167   9.312 -1.0582 -1.7048 -0.4429
  204MOL0     H27518   7.481  11.113   9.451  0.4585 -0.4221 -1.5259
  204MOL0     H27519   7.601  11.059   9.582 -2.9094  0.0152  2.0063
  204MOL0     H27520   8.355  10.797   9.098  0.9488 -1.3240 -2.3040
  204MOL0     H27521   8.469  10.743   8.878 -0.1215  0.3722  1.0120
  204MOL0     H27522   9.048  10.712   8.721 -0.1772 -1.0318 -0.0075
  204MOL0     H27523   9.157  10.720   8.505 -0.3800  2.9334 -0.1159
  204MOL0     H27524  10.286  10.284   8.808  0.3891 -1.7549 -1.7694
  204MOL0     H27525  10.472  10.115   8.825 -0.7552  0.9808 -2.1135
  204MOL0     H27526  10.792   9.927   9.080 -0.6393  0.9719 -1.9489
  204MOL0     H27527  10.982   9.762   9.113 -0.5204  1.6201  4.8718
  204MOL0     H27528  11.335   9.909   9.275 -3.0602 -0.2369 -1.0779
  204MOL0     H27529  11.409   9.901   9.109 -1.6670  1.5262 -1.1576
  204MOL0     H27530  11.380   9.631   9.154 -1.2680  1.1555 -0.1708
  204MOL0     H27531  11.356   9.673   9.319 -2.2765  0.6616  0.3155
  204MOL0     H27532  11.602   9.790   9.153  0.1621 -1.0169 -0.5867
  204MOL0     H27533  11.608   9.627   9.218 -0.9803 -1.2276 -0.9770
  204MOL0     H27534  11.535   9.848   9.395 -1.1217  0.3219 -4.0460
  204MOL0     H27535  11.615   9.706   9.453  1.0803  0.4265 -0.0391
  204MOL0     H27536  11.952   9.945   9.352  0.2656  1.7917  6.4637
  204MOL0     H27537  11.258  10.073   9.097 -1.2154  0.9602  0.6328
  204MOL0     H27538  11.220  10.283   9.048 -0.6620  0.5888 -0.4920
  204MOL0     H27539  11.080  10.327   8.945  1.2752 -3.1249 -2.3538
  204MOL0     H27540  11.081  10.357   9.123 -1.1021 -0.1323  0.1192
  205MOL0     O27541   5.922  11.394   8.729 -0.2766  0.9374  0.7030
  205MOL0     C27542   5.810  11.442   8.758 -0.3141 -0.9107 -0.0513
  205MOL0     O27543   5.784  11.564   8.824 -0.4766 -0.5913 -0.9705
  205MOL0     C27544   5.890  11.637   8.873 -0.6406 -0.2523 -0.8919
  205MOL0     C27545   6.018  11.672   8.814  0.4688 -0.8472 -0.1127
  205MOL0     C27546   6.105  11.764   8.877 -0.1379  0.1258 -0.4382
  205MOL0     C27547   6.073  11.805   9.008  0.2624 -0.0903 -0.2007
  205MOL0     O27548   6.159  11.878   9.084 -0.5246 -0.0115 -0.8329
  205MOL0     C27549   6.292  11.828   9.091 -0.2898 -0.1820  0.4219
  205MOL0     C27550   6.380  11.930   9.170  0.1673  1.0345  0.0209
  205MOL0     C27551   6.403  12.064   9.091  0.3217  0.2952 -0.0435
  205MOL0     C27552   6.412  12.197   9.169  0.6305  0.0453  0.3038
  205MOL0     C27553   6.431  12.315   9.074  0.2442  0.1269  0.7684
  205MOL0     C27554   6.444  12.448   9.157  0.3360  0.9761  0.1319
  205MOL0     C27555   6.487  12.573   9.074 -0.4330 -0.1105 -0.2123
  205MOL0     C27556   6.473  12.564   8.922 -0.9318  0.8543  0.0700
  205MOL0     N27557   6.471  12.698   8.857  0.0781  0.1947 -0.0336
  205MOL0     C27558   6.573  12.787   8.838  1.1822 -1.0064 -0.5504
  205MOL0     C27559   6.508  12.899   8.776 -0.2602  0.3009 -0.2135
  205MOL0     C27560   6.580  13.027   8.767  0.2854 -0.0869 -0.5607
  205MOL0     C27561   6.550  13.134   8.884 -0.0662  0.8451 -0.1193
  205MOL0     C27562   6.637  13.253   8.905  0.5800  0.8069 -0.2805
  205MOL0     C27563   6.788  13.230   8.913  0.0774  0.1419  0.9559
  205MOL0     O27564   6.863  13.339   8.978  0.6082 -0.4219 -0.1685
  205MOL0     C27565   6.950  13.317   9.082  0.1690  0.0427 -0.8752
  205MOL0     C27566   6.969  13.203   9.154  0.2645 -0.2809  0.6013
  205MOL0     C27567   7.070  13.200   9.250  0.0537  0.2158  1.5185
  205MOL0     C27568   7.140  13.309   9.295  0.4270 -0.6169  0.0046
  205MOL0     C27569   7.231  13.304   9.412  0.8311  0.9840  0.0653
  205MOL0     O27570   7.278  13.178   9.437 -0.4213 -0.0206  0.0536
  205MOL0     C27571   7.373  13.142   9.529  0.1463 -0.6832 -0.5608
  205MOL0     C27572   7.418  13.214   9.638  0.3587 -0.3893  0.1649
  205MOL0     C27573   7.508  13.172   9.735 -0.6801 -0.4446  0.3055
  205MOL0     C27574   7.557  13.041   9.727  0.2576  0.9792 -0.1499
  205MOL0     O27575   7.634  12.985   9.821  0.2231  0.7225  0.6087
  205MOL0     C27576   7.728  13.084   9.879  1.2011 -0.7035 -1.1238
  205MOL0     C27577   7.853  13.005   9.895 -0.2569 -0.1761 -0.4081
  205MOL0     C27578   7.847  12.890   9.998 -0.7491 -0.1549 -0.3303
  205MOL0     C27579   7.741  12.899  10.117  0.0618 -0.0409 -0.9618
  205MOL0     C27580   7.780  12.807  10.233 -0.1279  0.3211  0.3637
  205MOL0     C27581   7.788  12.658  10.180 -0.6480 -0.7608  0.3083
  205MOL0     C27582   7.814  12.552  10.289  0.6966 -0.0158  0.4364
  205MOL0     C27583   7.933  12.583  10.389 -0.0040  0.6182 -0.2504
  205MOL0    Cl27584   8.080  12.629  10.306  0.4594 -0.6379  0.1929
  205MOL0     C27585   7.512  12.966   9.616  0.7328  0.5673 -0.0100
  205MOL0     C27586   7.424  13.016   9.519 -0.8321 -0.1446  0.7151
  205MOL0     O27587   7.266  13.403   9.472  0.2469 -0.1314 -0.1483
  205MOL0     C27588   7.112  13.429   9.221 -0.1077  0.2608 -0.9753
  205MOL0     C27589   7.028  13.426   9.110 -0.1489 -0.2905  0.0237
  205MOL0     N27590   6.373  12.877   8.775  0.3227 -0.7224 -0.2236
  205MOL0     N27591   6.348  12.758   8.815 -1.4697 -0.5958 -0.2394
  205MOL0     C27592   5.957  11.766   9.069  0.5705  0.0349  0.2174
  205MOL0     C27593   5.866  11.692   9.002  0.2849  1.1194  0.7513
  205MOL0     C27594   5.694  11.350   8.731 -0.1494 -0.7625 -0.4441
  205MOL0     C27595   5.699  11.222   8.779 -0.3466  1.3111 -0.2818
  205MOL0     C27596   5.591  11.131   8.754  0.4440 -1.2936 -0.8222
  205MOL0     C27597   5.478  11.179   8.685  0.4333  0.4536 -0.1858
  205MOL0     O27598   5.385  11.077   8.652 -0.4694 -0.2282  0.1397
  205MOL0     C27599   5.261  11.117   8.596  1.2641 -0.3310  0.1540
  205MOL0     C27600   5.165  11.186   8.700  0.5845 -0.1690 -0.5919
  205MOL0     C27601   5.029  11.232   8.636  0.0310  0.3772 -0.0243
  205MOL0     C27602   5.028  11.330   8.517  1.0685  0.7632  0.0324
  205MOL0     C27603   5.009  11.470   8.558 -0.8302 -0.1169 -0.1393
  205MOL0     C27604   4.997  11.589   8.607  0.3598  0.4759 -0.3043
  205MOL0     C27605   5.470  11.317   8.658  0.1549  0.3521  0.4259
  205MOL0     C27606   5.580  11.409   8.683 -0.3921  0.6925 -0.3150
  205MOL0     C27607   5.566  11.555   8.635  0.1275  0.6129 -0.1365
  205MOL0     H27608   6.057  11.620   8.727 -0.7716 -1.1774 -0.4931
  205MOL0     H27609   6.198  11.781   8.823 -1.0569  0.1999 -2.0871
  205MOL0     H27610   6.284  11.737   9.151 -1.4359  0.9058  1.9897
  205MOL0     H27611   6.337  11.810   8.993  1.2658 -2.1318  1.4326
  205MOL0     H27612   6.469  11.867   9.173 -0.6222 -0.2665 -1.7127
  205MOL0     H27613   6.342  11.951   9.270 -2.5510 -0.9407 -0.4840
  205MOL0     H27614   6.338  12.081   9.005 -0.6613  2.1092  0.9954
  205MOL0     H27615   6.503  12.043   9.052 -0.6989  0.4985 -3.0398
  205MOL0     H27616   6.323  12.221   9.227  0.9336  0.2615  0.6806
  205MOL0     H27617   6.494  12.182   9.240  1.2879 -1.7131 -0.7364
  205MOL0     H27618   6.526  12.291   9.024  0.8078  0.2673  1.7571
  205MOL0     H27619   6.351  12.318   9.000  2.3475 -1.2881 -1.7469
  205MOL0     H27620   6.347  12.462   9.206 -0.4785 -3.3013  0.1540
  205MOL0     H27621   6.520  12.427   9.232  1.4399 -0.0845 -1.2308
  205MOL0     H27622   6.590  12.600   9.100 -0.7643  1.1893 -0.1642
  205MOL0     H27623   6.427  12.653   9.118 -3.4256 -0.6621 -2.9498
  205MOL0     H27624   6.543  12.493   8.877 -2.5839 -1.2442  0.6772
  205MOL0     H27625   6.374  12.523   8.900 -1.5148  2.3541 -0.2368
  205MOL0     H27626   6.674  12.767   8.872  0.4991 -1.9015  1.0307
  205MOL0     H27627   6.684  12.998   8.749 -0.0272 -3.2023  1.8352
  205MOL0     H27628   6.559  13.080   8.673  2.5110 -0.5264 -1.3796
  205MOL0     H27629   6.448  13.168   8.866 -0.4248  0.1605  0.5573
  205MOL0     H27630   6.558  13.077   8.977  2.0810  0.2224 -0.6225
  205MOL0     H27631   6.597  13.295   8.997 -0.4367  0.4243 -0.5289
  205MOL0     H27632   6.617  13.315   8.816  1.8081  2.3709  0.4762
  205MOL0     H27633   6.837  13.202   8.819 -2.7077 -2.2566  0.0767
  205MOL0     H27634   6.801  13.133   8.961 -0.6189  0.5632  2.0257
  205MOL0     H27635   6.916  13.108   9.147  1.7669 -1.1555  0.6542
  205MOL0     H27636   7.101  13.108   9.299  1.0887 -2.0359 -2.9336
  205MOL0     H27637   7.384  13.316   9.652 -1.2590 -0.8052 -0.4926
  205MOL0     H27638   7.530  13.233   9.823 -2.4766 -2.6275  2.3898
  205MOL0     H27639   7.735  13.169   9.811  2.0431  1.4569  1.4661
  205MOL0     H27640   7.696  13.137   9.970 -1.9814 -1.8061 -1.4948
  205MOL0     H27641   7.854  12.958   9.796 -1.4320 -0.6408 -0.2063
  205MOL0     H27642   7.939  13.070   9.915 -0.3755  0.9053 -2.9899
  205MOL0     H27643   7.828  12.797   9.945  0.0327 -1.7150  1.9944
  205MOL0     H27644   7.945  12.875  10.045 -0.3663  0.5096 -0.8965
  205MOL0     H27645   7.646  12.878  10.067  0.1089  1.6114 -1.8403
  205MOL0     H27646   7.743  13.003  10.152 -2.7354 -0.6012  1.1540
  205MOL0     H27647   7.697  12.810  10.304 -0.9631  0.4611 -0.5916
  205MOL0     H27648   7.872  12.845  10.277  0.1967  2.5315 -1.9785
  205MOL0     H27649   7.700  12.635  10.119 -0.3462 -0.3286 -0.3048
  205MOL0     H27650   7.876  12.656  10.114 -1.2127 -1.5388 -0.4350
  205MOL0     H27651   7.833  12.458  10.236 -1.0606  0.2374 -0.6892
  205MOL0     H27652   7.725  12.522  10.346  1.2932 -0.9399  0.9211
  205MOL0     H27653   7.900  12.663  10.456 -1.4086 -0.3865  0.3111
  205MOL0     H27654   7.957  12.488  10.438  0.2621  0.4184 -0.7559
  205MOL0     H27655   7.540  12.863   9.601 -1.0647  0.3125 -2.2305
  205MOL0     H27656   7.397  12.959   9.431 -0.1154  0.4281  0.1051
  205MOL0     H27657   7.158  13.519   9.262 -1.6535  0.0050  1.5348
  205MOL0     H27658   7.037  13.521   9.058 -0.6721  0.3583  1.0814
  205MOL0     H27659   5.935  11.813   9.164 -0.2690 -0.6255  0.3670
  205MOL0     H27660   5.776  11.661   9.054 -1.4225  5.0345  0.4720
  205MOL0     H27661   5.786  11.176   8.824 -0.9513 -0.0569 -0.4387
  205MOL0     H27662   5.608  11.030   8.787  0.4374  0.3056  5.1756
  205MOL0     H27663   5.214  11.028   8.552  1.5763  0.4833 -1.9658
  205MOL0     H27664   5.282  11.191   8.518  0.2481  2.5714  2.4520
  205MOL0     H27665   5.208  11.277   8.744  0.3655 -1.5112  2.6664
  205MOL0     H27666   5.144  11.120   8.784 -0.3902  2.6942  1.5622
  205MOL0     H27667   4.960  11.270   8.712 -0.0269  1.4698 -0.6078
  205MOL0     H27668   4.984  11.137   8.605  2.5219 -0.9646  0.2188
  205MOL0     H27669   5.114  11.321   8.449 -1.0959 -0.0081 -2.7636
  205MOL0     H27670   4.942  11.296   8.459  0.3632  0.5302  1.1857
  205MOL0     H27671   4.986  11.683   8.657 -2.3476 -1.2530  2.7683
  205MOL0     H27672   5.378  11.346   8.608 -1.9790 -3.7847  1.5531
  205MOL0     H27673   5.658  11.609   8.611 -0.4997  0.4293 -3.3969
  205MOL0     H27674   5.506  11.563   8.544 -2.8018 -0.7638  1.5310
  205MOL0     H27675   5.514  11.611   8.713 -0.2237 -0.0092  0.0873
  206MOL0     O27676   3.951  11.005   9.120 -0.5916  0.3694 -0.4962
  206MOL0     C27677   3.910  10.890   9.140 -0.4387 -0.7831  0.4739
  206MOL0     O27678   3.935  10.788   9.061  0.3231  0.2486  0.1393
  206MOL0     C27679   3.973  10.813   8.938 -0.0575 -0.3172  0.6662
  206MOL0     C27680   3.885  10.884   8.844 -1.1102 -0.5283 -0.6849
  206MOL0     C27681   3.929  10.910   8.710  0.1729  0.0267 -0.4729
  206MOL0     C27682   4.053  10.865   8.670  0.3378  0.1769 -0.7306
  206MOL0     O27683   4.107  10.889   8.550 -0.4358  0.1209 -0.7675
  206MOL0     C27684   4.104  11.025   8.517 -0.1973 -0.8008 -0.2709
  206MOL0     C27685   4.215  11.056   8.427 -1.0293  0.1096 -0.6302
  206MOL0     C27686   4.353  11.074   8.489  0.1639  0.9287 -0.6861
  206MOL0     C27687   4.470  11.103   8.385  0.7341  0.2992 -0.4455
  206MOL0     C27688   4.516  10.979   8.308  0.3486  0.0328 -1.1501
  206MOL0     C27689   4.605  11.015   8.192 -0.0423  1.0441 -0.6462
  206MOL0     C27690   4.740  11.075   8.215 -0.8218  0.6615 -1.2993
  206MOL0     C27691   4.824  10.977   8.301  0.6141 -0.0402 -0.4769
  206MOL0     N27692   4.964  10.973   8.264 -0.5599 -0.1863  0.6092
  206MOL0     C27693   5.053  10.875   8.297 -0.0695 -0.1031 -1.1935
  206MOL0     C27694   5.176  10.932   8.258 -0.4191  0.6603  0.1138
  206MOL0     C27695   5.306  10.872   8.300 -0.4631 -0.6630  0.1918
  206MOL0     C27696   5.358  10.760   8.209  0.3843  0.0126  0.0835
  206MOL0     C27697   5.463  10.676   8.283 -0.2890  0.4124 -0.1942
  206MOL0     C27698   5.396  10.593   8.401  0.2585  0.7346  0.2163
  206MOL0     O27699   5.267  10.542   8.367  0.0335  0.5795  0.1788
  206MOL0     C27700   5.193  10.487   8.464 -0.3473  0.1160 -0.0855
  206MOL0     C27701   5.054  10.497   8.446 -0.6231  0.0735 -0.7517
  206MOL0     C27702   4.968  10.454   8.539  0.9777 -0.3208 -0.5959
  206MOL0     C27703   5.005  10.418   8.665 -0.6101  0.7626 -0.1530
  206MOL0     C27704   4.912  10.378   8.785 -0.3530 -0.0713 -0.2368
  206MOL0     O27705   4.961  10.342   8.905  0.0041  0.7545 -0.0293
  206MOL0     C27706   4.888  10.261   8.987 -0.7578 -1.0785  1.0002
  206MOL0     C27707   4.765  10.304   9.031  0.0438  0.1031 -1.3159
  206MOL0     C27708   4.682  10.229   9.114 -0.6814 -0.2752 -0.4788
  206MOL0     C27709   4.719  10.098   9.147 -0.4792  0.0522 -0.5368
  206MOL0     O27710   4.643  10.021   9.230 -0.1003 -0.4683  0.5899
  206MOL0     C27711   4.501  10.014   9.199 -1.1292  0.1858  0.2345
  206MOL0     C27712   4.444   9.905   9.278 -0.6462  0.5646 -0.5437
  206MOL0     C27713   4.290   9.879   9.254  0.4765 -0.0433  0.5887
  206MOL0     C27714   4.235   9.778   9.359  0.3571  0.4310  0.0931
  206MOL0     C27715   4.218   9.848   9.494  1.2785 -0.4644 -0.7295
  206MOL0     C27716   4.128   9.773   9.595  0.2555  0.2170  0.0172
  206MOL0     C27717   4.159   9.845   9.730 -0.2508  0.4847  0.3420
  206MOL0     C27718   4.072   9.792   9.847 -1.0023 -0.0142  0.3961
  206MOL0    Cl27719   4.097   9.616   9.882  0.2835 -0.2752 -0.3774
  206MOL0     C27720   4.857  10.057   9.117 -0.3867 -0.3448  0.4388
  206MOL0     C27721   4.942  10.141   9.033  1.2918  0.0513 -0.3911
  206MOL0     O27722   4.793  10.385   8.758 -0.3104 -0.3479  0.3253
  206MOL0     C27723   5.141  10.402   8.687  0.2214 -1.0661  0.0289
  206MOL0     C27724   5.234  10.434   8.584  0.5580 -0.4250 -0.9468
  206MOL0     N27725   5.160  11.063   8.224 -1.1122  0.2821  0.3596
  206MOL0     N27726   5.029  11.088   8.225  0.7167 -0.5810  0.4003
  206MOL0     C27727   4.121  10.780   8.751 -0.1827  0.1463 -0.3998
  206MOL0     C27728   4.083  10.752   8.877 -0.6944  0.2754 -0.4067
  206MOL0     C27729   3.824  10.864   9.250 -0.3369  0.3542  0.5668
  206MOL0     C27730   3.791  10.969   9.346 -0.1188  0.6241  0.5210
  206MOL0     C27731   3.708  10.945   9.461  0.5323 -0.2231  0.8303
  206MOL0     C27732   3.671  10.822   9.496 -0.0113  0.4280  0.0847
  206MOL0     O27733   3.600  10.777   9.606  0.4933 -1.2053  0.2519
  206MOL0     C27734   3.486  10.864   9.638 -0.1646  0.8801  0.5152
  206MOL0     C27735   3.382  10.795   9.728 -0.0009 -0.0098 -0.2883
  206MOL0     C27736   3.440  10.748   9.859  0.7874 -0.0872  0.2669
  206MOL0     C27737   3.328  10.700   9.959 -0.3676  0.3405 -0.1905
  206MOL0     C27738   3.225  10.798  10.006  0.3556  0.2762  0.7259
  206MOL0     C27739   3.140  10.873  10.050  0.4033 -0.0672  0.7815
  206MOL0     C27740   3.699  10.721   9.404 -0.1443 -0.7206  0.8802
  206MOL0     C27741   3.764  10.740   9.280 -0.1302 -0.0679  0.5203
  206MOL0     C27742   3.761  10.617   9.193 -0.3895  0.9663  0.8787
  206MOL0     H27743   3.789  10.926   8.871 -0.6024 -1.5986  3.3879
  206MOL0     H27744   3.877  10.960   8.629  1.8090  1.7688 -0.5331
  206MOL0     H27745   4.008  11.038   8.464 -0.2099  2.8694  0.4087
  206MOL0     H27746   4.118  11.087   8.605 -1.2875 -1.4099  0.3489
  206MOL0     H27747   4.193  11.158   8.395 -1.3703  1.1293  2.5275
  206MOL0     H27748   4.210  10.985   8.343  2.1482 -0.7901 -0.1704
  206MOL0     H27749   4.382  10.986   8.549  1.1278 -0.3376 -2.9008
  206MOL0     H27750   4.346  11.158   8.559 -2.7611  1.5865 -1.6433
  206MOL0     H27751   4.435  11.174   8.310 -2.0377  1.0862  1.4456
  206MOL0     H27752   4.558  11.144   8.435  0.2358 -1.3691  1.9912
  206MOL0     H27753   4.569  10.914   8.379  1.1955  2.6316  0.7601
  206MOL0     H27754   4.423  10.933   8.274  0.0421  0.1074 -0.4411
  206MOL0     H27755   4.625  10.921   8.139  1.2291 -1.5104  3.8588
  206MOL0     H27756   4.549  11.088   8.133  2.4930  4.0716  0.4274
  206MOL0     H27757   4.734  11.174   8.260  1.5284  1.5863 -2.8414
  206MOL0     H27758   4.793  11.089   8.120 -2.3215 -0.8152 -2.4293
  206MOL0     H27759   4.829  11.024   8.400 -1.9142  0.2027 -0.4097
  206MOL0     H27760   4.776  10.881   8.323 -0.3625  0.0570 -2.0360
  206MOL0     H27761   5.041  10.787   8.359  1.9386  0.9988  0.9250
  206MOL0     H27762   5.375  10.956   8.311 -0.9165 -0.5320  2.6346
  206MOL0     H27763   5.284  10.836   8.401 -0.7310 -1.1872 -0.0501
  206MOL0     H27764   5.279  10.686   8.192 -0.3039  0.4846  1.1460
  206MOL0     H27765   5.395  10.811   8.120  1.7105  3.2498  2.3096
  206MOL0     H27766   5.541  10.737   8.329 -0.6941  0.0082  1.0613
  206MOL0     H27767   5.512  10.600   8.221 -0.3856  0.0577  0.1545
  206MOL0     H27768   5.364  10.662   8.480 -0.5178  1.3113 -0.5825
  206MOL0     H27769   5.469  10.522   8.441  1.3151  2.5580  1.7049
  206MOL0     H27770   5.023  10.542   8.352  0.6431 -0.4353 -1.4351
  206MOL0     H27771   4.861  10.470   8.534  1.0782  0.8935  0.6556
  206MOL0     H27772   4.738  10.409   9.022  1.2472  0.8152  2.0007
  206MOL0     H27773   4.589  10.263   9.159 -1.2141 -3.9132  1.5136
  206MOL0     H27774   4.445  10.106   9.217  0.1193  0.3912  3.6553
  206MOL0     H27775   4.501   9.983   9.094  1.8347 -1.8532  0.6954
  206MOL0     H27776   4.499   9.812   9.260 -0.4172  1.0314 -2.5045
  206MOL0     H27777   4.458   9.924   9.384  1.2518 -1.8175 -0.2816
  206MOL0     H27778   4.243   9.977   9.256  2.0792  0.8186 -1.4280
  206MOL0     H27779   4.271   9.849   9.151  1.4542 -1.9548  0.9051
  206MOL0     H27780   4.302   9.692   9.355  1.0595  1.0143 -2.2785
  206MOL0     H27781   4.140   9.735   9.326  0.7311  0.2834 -0.8011
  206MOL0     H27782   4.164   9.940   9.470  1.7578  0.3183  0.9849
  206MOL0     H27783   4.316   9.877   9.534  1.4405  1.4242 -2.3605
  206MOL0     H27784   4.024   9.783   9.565  1.6031  3.8472 -4.6755
  206MOL0     H27785   4.152   9.667   9.609 -0.2648  0.2612  1.4162
  206MOL0     H27786   4.139   9.952   9.719 -2.6355 -0.0118 -0.8999
  206MOL0     H27787   4.264   9.841   9.758 -0.6740 -0.6086  1.8949
  206MOL0     H27788   4.109   9.844   9.936  0.6351  0.0109 -0.2733
  206MOL0     H27789   3.966   9.820   9.835 -0.6709  0.4018 -2.3286
  206MOL0     H27790   4.897   9.964   9.155 -0.0305  0.1496  1.3014
  206MOL0     H27791   5.041  10.104   9.008  0.1931 -3.2132 -0.3824
  206MOL0     H27792   5.178  10.373   8.785 -2.3949  0.3080  1.5386
  206MOL0     H27793   5.337  10.415   8.614  1.2780 -2.4774 -4.2184
  206MOL0     H27794   4.225  10.756   8.728 -0.5390 -1.9885  0.0042
  206MOL0     H27795   4.155  10.705   8.942  0.8115  2.6357 -0.2600
  206MOL0     H27796   3.833  11.068   9.325 -0.8070  0.4777 -1.8116
  206MOL0     H27797   3.671  11.028   9.521  0.9234  0.8994 -0.4178
  206MOL0     H27798   3.442  10.907   9.547 -3.6819  1.0202  2.1159
  206MOL0     H27799   3.534  10.950   9.687  2.4362 -1.1857  1.8417
  206MOL0     H27800   3.323  10.717   9.679 -1.6158  1.4925 -0.8721
  206MOL0     H27801   3.310  10.873   9.758 -1.4249 -1.4538  0.2131
  206MOL0     H27802   3.491  10.837   9.896  0.5517 -0.5073  1.6764
  206MOL0     H27803   3.509  10.664   9.849 -0.4169 -1.0242 -0.4376
  206MOL0     H27804   3.272  10.628   9.899 -0.0882  0.4338 -0.5685
  206MOL0     H27805   3.378  10.650  10.042  2.0655  2.0009 -0.5535
  206MOL0     H27806   3.060  10.940  10.073 -2.3060 -0.5941 -5.1094
  206MOL0     H27807   3.659  10.622   9.424 -1.1267 -1.2679 -3.0123
  206MOL0     H27808   3.827  10.536   9.228  2.2046  3.0122  1.0574
  206MOL0     H27809   3.660  10.576   9.193 -0.1398  0.2405 -1.2992
  206MOL0     H27810   3.766  10.636   9.085 -3.0600  4.5498  1.2067
  207MOL0     O27811   1.561  10.558   2.322 -0.2742 -0.8292  0.5058
  207MOL0     C27812   1.681  10.592   2.322  0.1655  0.0134  0.7932
  207MOL0     O27813   1.738  10.712   2.286  0.5880 -0.3050 -0.2323
  207MOL0     C27814   1.673  10.811   2.223 -0.0115 -0.3797 -0.3091
  207MOL0     C27815   1.739  10.933   2.203  0.1403 -0.8748  0.2734
  207MOL0     C27816   1.681  11.038   2.134  0.0676  0.1370  0.1717
  207MOL0     C27817   1.563  11.016   2.059  0.0654  0.0406  1.0647
  207MOL0     O27818   1.489  11.110   1.988  0.1941 -0.0142  0.8356
  207MOL0     C27819   1.549  11.236   1.955  0.6956  1.2496  0.0199
  207MOL0     C27820   1.482  11.283   1.828 -0.1240  0.5225 -0.3422
  207MOL0     C27821   1.569  11.388   1.753  0.4932 -0.1389  0.4384
  207MOL0     C27822   1.505  11.407   1.617  0.8520 -0.1197  0.0662
  207MOL0     C27823   1.403  11.514   1.620 -0.4488 -0.2225  0.0085
  207MOL0     C27824   1.348  11.540   1.480  0.7815 -0.4688 -0.3950
  207MOL0     C27825   1.296  11.689   1.489  0.2063 -0.1257 -0.1416
  207MOL0     C27826   1.170  11.713   1.583 -0.7234  0.4991 -0.4401
  207MOL0     N27827   1.047  11.646   1.554  0.4987  0.4078 -0.5704
  207MOL0     C27828   0.986  11.551   1.638 -0.0585  0.6421 -0.7891
  207MOL0     C27829   0.874  11.512   1.567  0.6688  0.9066 -0.5615
  207MOL0     C27830   0.763  11.424   1.620 -0.6122  0.3946  0.0983
  207MOL0     C27831   0.632  11.496   1.629 -0.8641 -0.4399 -0.3970
  207MOL0     C27832   0.624  11.593   1.734 -0.8835  0.3280  0.1854
  207MOL0     C27833   0.487  11.666   1.739 -0.4109  0.2424 -0.2030
  207MOL0     O27834   0.397  11.575   1.790  0.5993 -0.9104 -0.3901
  207MOL0     C27835   0.266  11.617   1.793 -0.0217  0.0089  0.2036
  207MOL0     C27836   0.205  11.696   1.888 -0.5174 -0.8883  0.3780
  207MOL0     C27837   0.065  11.705   1.892 -0.3387  0.1963 -0.5130
  207MOL0     C27838  -0.010  11.646   1.794 -0.0580 -0.4872  0.1897
  207MOL0     C27839  -0.152  11.651   1.801 -0.5126  0.3429 -0.4110
  207MOL0     O27840  -0.236  11.641   1.690 -0.6820  0.7890  0.1130
  207MOL0     C27841  -0.368  11.654   1.706  0.5425  0.2463 -0.6951
  207MOL0     C27842  -0.449  11.557   1.765 -0.1124  0.0965  0.3014
  207MOL0     C27843  -0.577  11.583   1.781  0.3840  0.0802 -0.0130
  207MOL0     C27844  -0.629  11.709   1.755 -0.4246  0.3650 -1.0011
  207MOL0     O27845  -0.760  11.754   1.781  0.0509  0.5653 -0.2511
  207MOL0     C27846  -0.850  11.671   1.704  0.1278  0.6920  0.3703
  207MOL0     C27847  -1.000  11.700   1.714 -0.5279  0.2907  0.4502
  207MOL0     C27848  -1.038  11.748   1.856  0.2987 -0.1663  0.4274
  207MOL0     C27849  -1.186  11.766   1.871  0.0822  0.4125 -0.7523
  207MOL0     C27850  -1.223  11.830   2.005  0.7087  1.8738 -0.8795
  207MOL0     C27851  -1.373  11.850   2.040  0.8683 -0.8365  0.6659
  207MOL0     C27852  -1.436  11.970   1.949  0.6312  1.3326  0.0754
  207MOL0     C27853  -1.589  11.987   1.994 -0.7633  0.4808  0.6515
  207MOL0    Cl27854  -1.677  12.086   1.869  0.0910  0.2681  0.1487
  207MOL0     C27855  -0.551  11.815   1.719 -0.5549  0.4899  1.4168
  207MOL0     C27856  -0.417  11.782   1.687  0.5066  0.5181  0.1970
  207MOL0     O27857  -0.196  11.649   1.918  0.4875  0.2288  0.2542
  207MOL0     C27858   0.049  11.589   1.688 -0.7849 -0.4337 -0.2324
  207MOL0     C27859   0.190  11.566   1.692 -0.4520  0.1019 -0.1015
  207MOL0     N27860   0.876  11.576   1.443 -0.3027  0.8525 -0.1288
  207MOL0     N27861   0.983  11.643   1.436  0.9933 -0.1190 -0.4295
  207MOL0     C27862   1.498  10.888   2.071 -0.4218  0.4404 -0.8279
  207MOL0     C27863   1.549  10.791   2.154 -0.3888 -0.1835 -0.3597
  207MOL0     C27864   1.779  10.488   2.353 -0.6656  0.3995  0.5903
  207MOL0     C27865   1.914  10.530   2.368 -0.5210 -0.0305  0.3715
  207MOL0     C27866   2.014  10.444   2.415  0.4357 -0.2653  0.3482
  207MOL0     C27867   1.986  10.324   2.465  0.4403 -0.6161  1.0795
  207MOL0     O27868   2.077  10.232   2.521  0.0960  0.0599  0.0853
  207MOL0     C27869   2.213  10.238   2.470 -0.2356  0.0940  0.4626
  207MOL0     C27870   2.284  10.116   2.530 -0.6730  0.3291 -0.3380
  207MOL0     C27871   2.282  10.127   2.686 -0.2369 -0.1805  0.4994
  207MOL0     C27872   2.389  10.218   2.746  0.0862 -0.3588  0.1993
  207MOL0     C27873   2.382  10.193   2.892 -0.2070  0.0604 -0.0261
  207MOL0     C27874   2.366  10.183   3.009 -0.3572  0.4258  0.1142
  207MOL0     C27875   1.854  10.273   2.449 -0.9382  0.7847  0.2519
  207MOL0     C27876   1.748  10.349   2.393  0.0984 -0.0063 -0.1955
  207MOL0     C27877   1.606  10.283   2.404 -0.5494  0.1409  0.3322
  207MOL0     H27878   1.833  10.954   2.252  0.3643  1.0062 -0.8671
  207MOL0     H27879   1.737  11.131   2.134  0.8036 -0.2856  1.2846
  207MOL0     H27880   1.523  11.316   2.026 -2.0517  0.9945 -0.6094
  207MOL0     H27881   1.658  11.222   1.956  0.3602 -2.6827  2.1865
  207MOL0     H27882   1.391  11.335   1.860  0.2460  1.5385 -0.9037
  207MOL0     H27883   1.458  11.193   1.770 -0.4454  0.5132 -0.1984
  207MOL0     H27884   1.668  11.342   1.748 -0.4055 -2.1053 -0.3207
  207MOL0     H27885   1.569  11.486   1.802  0.0610 -1.3565  3.0263
  207MOL0     H27886   1.576  11.438   1.540  0.6499  1.0489  0.3301
  207MOL0     H27887   1.459  11.310   1.597 -1.9732  0.9848  0.7056
  207MOL0     H27888   1.329  11.487   1.695  0.2355 -0.3331  0.6554
  207MOL0     H27889   1.443  11.610   1.654  3.5482 -2.7439  3.4627
  207MOL0     H27890   1.429  11.535   1.407  2.1691  1.0144  0.9805
  207MOL0     H27891   1.266  11.469   1.468  0.0042  0.5402 -1.1659
  207MOL0     H27892   1.274  11.727   1.389 -0.8582  4.6516  1.6763
  207MOL0     H27893   1.376  11.760   1.514  1.3341 -1.5501  0.4665
  207MOL0     H27894   1.207  11.689   1.683  0.0994  4.6720  0.4357
  207MOL0     H27895   1.144  11.819   1.591  0.6356  0.7065  3.7036
  207MOL0     H27896   1.013  11.513   1.737 -0.2880  0.5524 -0.7617
  207MOL0     H27897   0.750  11.341   1.550  0.5338 -0.4064  0.7944
  207MOL0     H27898   0.796  11.388   1.718 -1.4751  0.7068  0.5129
  207MOL0     H27899   0.619  11.549   1.534 -0.3756 -1.0346 -0.7989
  207MOL0     H27900   0.554  11.419   1.634  0.7684 -2.2101 -1.0776
  207MOL0     H27901   0.707  11.664   1.736  2.0718 -2.8708  1.9931
  207MOL0     H27902   0.635  11.538   1.828  1.2196  0.1307 -0.1329
  207MOL0     H27903   0.461  11.695   1.637  3.4407  0.2801 -1.3383
  207MOL0     H27904   0.502  11.755   1.802  1.2005 -1.2818  1.6980
  207MOL0     H27905   0.271  11.749   1.956 -2.0387  0.8424  0.5692
  207MOL0     H27906   0.019  11.763   1.971  2.5593  3.9379 -1.2696
  207MOL0     H27907  -0.402  11.467   1.804 -0.4494  0.3679  1.3656
  207MOL0     H27908  -0.643  11.503   1.812  0.5040  0.4841  1.3473
  207MOL0     H27909  -0.821  11.679   1.599 -0.3178  3.0437  0.3559
  207MOL0     H27910  -0.833  11.571   1.743  0.4579  1.3575  2.0102
  207MOL0     H27911  -1.023  11.780   1.644 -2.3176 -2.1396 -1.9512
  207MOL0     H27912  -1.055  11.611   1.683 -1.0327  0.0830  1.8477
  207MOL0     H27913  -1.007  11.682   1.937 -0.1881  0.1413  0.8751
  207MOL0     H27914  -0.985  11.843   1.868  2.1431 -1.2162  0.8409
  207MOL0     H27915  -1.247  11.677   1.854 -1.9461  1.6535 -0.3622
  207MOL0     H27916  -1.224  11.835   1.795 -1.6025  1.5899  1.0457
  207MOL0     H27917  -1.153  11.911   2.026  0.1905  1.7430  1.6892
  207MOL0     H27918  -1.186  11.760   2.080  1.0419 -1.5956 -4.0121
  207MOL0     H27919  -1.429  11.758   2.021  0.6516 -0.0894 -2.8348
  207MOL0     H27920  -1.380  11.886   2.144 -0.5656 -3.2318  1.4967
  207MOL0     H27921  -1.426  11.936   1.846  0.7590 -0.8106  0.7511
  207MOL0     H27922  -1.382  12.063   1.969  0.4049  1.1591  1.6271
  207MOL0     H27923  -1.640  11.892   2.015 -1.6632  0.4213 -1.5773
  207MOL0     H27924  -1.588  12.050   2.084  2.6141  2.2719 -0.4485
  207MOL0     H27925  -0.592  11.915   1.709  1.2576  1.0355 -2.2570
  207MOL0     H27926  -0.347  11.859   1.656 -1.1106  2.4293  1.0487
  207MOL0     H27927  -0.007  11.541   1.608 -1.4515 -2.5565  1.3958
  207MOL0     H27928   0.238  11.510   1.612 -0.5968 -0.1349 -0.0252
  207MOL0     H27929   1.408  10.876   2.011 -2.0856  2.0645  1.1324
  207MOL0     H27930   1.489  10.700   2.156  1.2368 -1.2916  0.1938
  207MOL0     H27931   1.951  10.629   2.344  2.8242 -0.8491  1.5968
  207MOL0     H27932   2.108  10.487   2.448  1.2782  0.0736 -2.2321
  207MOL0     H27933   2.255  10.325   2.520  0.3987  0.7689 -1.1979
  207MOL0     H27934   2.226  10.238   2.362  2.6299 -2.4283  0.6740
  207MOL0     H27935   2.388  10.105   2.496 -0.3103 -1.8320  1.2274
  207MOL0     H27936   2.229  10.024   2.510  0.2525 -0.5889  1.1854
  207MOL0     H27937   2.278  10.027   2.730 -2.5987  0.2594  1.4498
  207MOL0     H27938   2.188  10.169   2.723 -0.8891 -0.4403 -0.7931
  207MOL0     H27939   2.491  10.195   2.712  0.1792  0.0245  0.2187
  207MOL0     H27940   2.365  10.322   2.724 -1.6864 -1.4725 -4.3859
  207MOL0     H27941   2.362  10.176   3.116  1.8392 -0.2304  0.1919
  207MOL0     H27942   1.837  10.168   2.467  0.5499  0.4206 -0.3265
  207MOL0     H27943   1.620  10.181   2.443 -0.1576  0.5896  1.3991
  207MOL0     H27944   1.540  10.330   2.477  1.8637  0.9399  2.1606
  207MOL0     H27945   1.553  10.281   2.309 -0.7629  2.7704  0.3211
  208MOL0     O27946   2.942   2.124  11.208 -0.6000 -0.4111 -0.2778
  208MOL0     C27947   3.046   2.077  11.254  0.0955  1.2635 -0.5179
  208MOL0     O27948   3.078   1.951  11.254 -0.3870  0.2509 -0.7792
  208MOL0     C27949   3.007   1.853  11.198  0.5615  0.6617  1.0560
  208MOL0     C27950   2.867   1.846  11.174 -0.3990 -0.6772 -0.3484
  208MOL0     C27951   2.801   1.728  11.140  0.7123 -0.5660  0.2735
  208MOL0     C27952   2.881   1.610  11.125  0.0498  0.3922  0.6354
  208MOL0     O27953   2.808   1.498  11.089  0.2314 -0.1719  0.0511
  208MOL0     C27954   2.850   1.374  11.159 -0.2561 -0.7855  0.4419
  208MOL0     C27955   2.754   1.264  11.147 -0.0483  0.0406  0.0996
  208MOL0     C27956   2.606   1.308  11.165 -0.6952  0.4868 -0.1441
  208MOL0     C27957   2.513   1.192  11.132  0.2567 -1.4157 -0.3586
  208MOL0     C27958   2.366   1.236  11.144 -0.5037 -0.2151  0.1801
  208MOL0     C27959   2.310   1.322  11.028  0.3213 -0.0063  0.6448
  208MOL0     C27960   2.159   1.288  11.012  0.5153 -0.1998  0.7543
  208MOL0     C27961   2.099   1.379  10.902  0.2084  0.5225  0.2149
  208MOL0     N27962   2.157   1.333  10.780 -0.4472 -0.2276  0.3145
  208MOL0     C27963   2.250   1.410  10.716 -0.5380  0.1907 -0.2181
  208MOL0     C27964   2.274   1.331  10.600  0.0617 -0.0878 -0.6203
  208MOL0     C27965   2.378   1.359  10.493  0.3219 -0.1150 -0.7482
  208MOL0     C27966   2.295   1.420  10.372 -0.2590  1.3111 -1.1486
  208MOL0     C27967   2.398   1.459  10.268 -0.6162  0.1315  0.2203
  208MOL0     C27968   2.347   1.561  10.172  0.3490 -0.4380  0.7587
  208MOL0     O27969   2.289   1.684  10.217 -0.2836  0.5653 -0.0501
  208MOL0     C27970   2.370   1.778  10.270 -0.3174  0.8710  0.5368
  208MOL0     C27971   2.299   1.889  10.305  0.4479  0.3403  0.3010
  208MOL0     C27972   2.361   2.016  10.342  0.1529  0.5625  0.7909
  208MOL0     C27973   2.499   2.011  10.358  0.1222 -0.3700  0.3723
  208MOL0     C27974   2.570   2.131  10.390  0.5347 -0.4404 -0.2075
  208MOL0     O27975   2.697   2.114  10.418 -0.1859  0.3546 -0.9331
  208MOL0     C27976   2.779   2.221  10.407  0.1418 -1.0778  0.5777
  208MOL0     C27977   2.852   2.246  10.289  0.5101 -0.8328 -0.1744
  208MOL0     C27978   2.942   2.353  10.284 -0.7489 -0.1630  0.1096
  208MOL0     C27979   2.957   2.445  10.390 -0.5755 -0.4907  0.2101
  208MOL0     O27980   3.051   2.542  10.372 -0.0393  0.4350 -0.0899
  208MOL0     C27981   3.081   2.611  10.490 -0.2076 -0.2752  0.3859
  208MOL0     C27982   3.192   2.711  10.461 -0.1011  0.3401 -0.6734
  208MOL0     C27983   3.146   2.821  10.370  0.0245  1.1490 -0.7244
  208MOL0     C27984   3.265   2.908  10.328 -0.4261  0.0240  0.5987
  208MOL0     C27985   3.224   3.016  10.232 -0.1364 -0.9774 -0.3073
  208MOL0     C27986   3.203   2.964  10.082 -0.1445 -1.0356  0.1104
  208MOL0     C27987   3.174   3.078   9.973  0.4237 -0.2413  0.4144
  208MOL0     C27988   3.147   3.027   9.835 -0.7089  0.6292 -0.9739
  208MOL0    Cl27989   3.311   2.960   9.759  0.4144 -0.1184 -0.1844
  208MOL0     C27990   2.889   2.412  10.507  0.0698  0.8377 -0.9524
  208MOL0     C27991   2.808   2.300  10.520 -0.2767  0.1763  0.8254
  208MOL0     O27992   2.514   2.243  10.383  0.1820 -0.3034 -0.1302
  208MOL0     C27993   2.570   1.895  10.327 -0.6540  0.0905  0.9124
  208MOL0     C27994   2.509   1.779  10.277 -0.3918  0.0261  0.7669
  208MOL0     N27995   2.189   1.229  10.604  0.2745 -1.1639 -0.6892
  208MOL0     N27996   2.110   1.234  10.707  0.5861 -1.0510  0.5260
  208MOL0     C27997   3.011   1.613  11.158 -0.1311  0.4590  0.4240
  208MOL0     C27998   3.079   1.729  11.190 -0.2129  0.5519  1.4050
  208MOL0     C27999   3.123   2.160  11.343  0.0758  0.4512 -0.1145
  208MOL0     C28000   3.067   2.232  11.444 -0.1616  0.2131 -0.6667
  208MOL0     C28001   3.133   2.318  11.532  0.4171 -0.4154  0.1462
  208MOL0     C28002   3.272   2.335  11.522 -0.5871 -0.3790  1.1125
  208MOL0     O28003   3.352   2.400  11.613 -0.1120 -0.7174  0.0093
  208MOL0     C28004   3.304   2.481  11.716  0.1317 -0.3750  0.2679
  208MOL0     C28005   3.271   2.402  11.840  0.6781  0.4038  0.2365
  208MOL0     C28006   3.253   2.486  11.969 -0.9221 -0.4099  0.1062
  208MOL0     C28007   3.160   2.603  11.945 -0.1696  1.1234 -1.2072
  208MOL0     C28008   3.038   2.577  11.879 -0.1830  0.8415  0.9758
  208MOL0     C28009   2.925   2.561  11.833 -0.0712 -0.0896  0.8434
  208MOL0     C28010   3.333   2.262  11.420  0.3480 -0.5237 -0.1375
  208MOL0     C28011   3.264   2.176  11.331  0.0870  0.5832 -0.4096
  208MOL0     C28012   3.337   2.107  11.219 -0.3793  0.4998 -0.5728
  208MOL0     H28013   2.813   1.938  11.191  2.4415  1.4621 -1.8510
  208MOL0     H28014   2.698   1.736  11.105  1.3914  0.1144 -1.6474
  208MOL0     H28015   2.947   1.343  11.120 -0.9104 -1.3975 -0.7600
  208MOL0     H28016   2.860   1.396  11.266 -0.0373 -1.7541  0.6267
  208MOL0     H28017   2.770   1.179  11.213 -0.2963  0.7407  1.0916
  208MOL0     H28018   2.775   1.230  11.045  0.9630 -0.5993  0.5044
  208MOL0     H28019   2.584   1.387  11.093  1.8872  1.0019 -0.4714
  208MOL0     H28020   2.597   1.350  11.265 -4.0973  1.2706 -0.6490
  208MOL0     H28021   2.525   1.157  11.029 -1.8245 -0.8810 -0.8226
  208MOL0     H28022   2.530   1.111  11.203  0.7456 -0.0473  1.1561
  208MOL0     H28023   2.306   1.144  11.150  0.3635 -0.7571  0.7249
  208MOL0     H28024   2.345   1.288  11.238 -0.3205 -0.6126  0.4443
  208MOL0     H28025   2.313   1.429  11.048 -0.3112  0.1464 -0.0358
  208MOL0     H28026   2.364   1.309  10.934 -1.1203  2.8293 -0.7107
  208MOL0     H28027   2.113   1.306  11.109  0.6596  0.9986  0.6190
  208MOL0     H28028   2.136   1.189  10.972 -0.1100  1.1961 -2.7848
  208MOL0     H28029   1.990   1.378  10.888  0.5491  0.4181 -3.1809
  208MOL0     H28030   2.124   1.483  10.924  2.2692 -0.2574  1.9551
  208MOL0     H28031   2.292   1.507  10.740  2.4313 -1.1373  0.3690
  208MOL0     H28032   2.462   1.423  10.522  0.3796 -0.5549  0.0782
  208MOL0     H28033   2.428   1.264  10.474 -1.0534 -0.9807 -0.1957
  208MOL0     H28034   2.235   1.334  10.340 -1.1797  0.4464  2.5315
  208MOL0     H28035   2.235   1.506  10.402  1.4310  1.9614  0.5972
  208MOL0     H28036   2.428   1.365  10.220 -0.4494  1.1479 -1.7953
  208MOL0     H28037   2.494   1.492  10.307 -1.4373  0.0826  2.4197
  208MOL0     H28038   2.277   1.503  10.112  2.4366 -2.7950  0.4480
  208MOL0     H28039   2.430   1.586  10.105 -1.4593  0.6099 -1.2272
  208MOL0     H28040   2.196   1.892  10.272  0.8090  3.7601 -0.8979
  208MOL0     H28041   2.294   2.100  10.356 -0.5044  0.0251  0.8843
  208MOL0     H28042   2.841   2.184  10.201  1.9108  1.1714 -1.8495
  208MOL0     H28043   2.999   2.373  10.194  0.5304 -0.4716  0.8171
  208MOL0     H28044   2.995   2.662  10.533  1.7134  4.4015 -0.6510
  208MOL0     H28045   3.124   2.548  10.569  1.5738 -0.4575 -0.6817
  208MOL0     H28046   3.219   2.760  10.555 -1.4079 -3.3081  1.8578
  208MOL0     H28047   3.286   2.667  10.428  1.1232  2.1344  0.2739
  208MOL0     H28048   3.117   2.780  10.273  1.9514 -0.3816 -0.7137
  208MOL0     H28049   3.072   2.884  10.421  1.0495  0.2740  1.9987
  208MOL0     H28050   3.344   2.844  10.288 -2.4675 -2.3496  0.1079
  208MOL0     H28051   3.307   2.955  10.417  2.0052  3.2274 -1.9902
  208MOL0     H28052   3.300   3.094  10.240  1.1834 -1.9798 -2.3498
  208MOL0     H28053   3.127   3.054  10.266 -0.4815 -0.1183 -2.1543
  208MOL0     H28054   3.292   2.907  10.052  0.2512 -1.0757  1.3185
  208MOL0     H28055   3.121   2.892  10.074  0.2474 -1.3505 -1.3877
  208MOL0     H28056   3.268   3.134   9.968  0.3590 -0.2338 -1.1783
  208MOL0     H28057   3.094   3.144  10.007 -0.3436 -1.1381  0.3793
  208MOL0     H28058   3.065   2.955   9.834 -0.4156  0.1008  2.4239
  208MOL0     H28059   3.100   3.107   9.777 -0.6440  0.5300 -1.1631
  208MOL0     H28060   2.889   2.472  10.598  1.6889  0.2651 -0.5536
  208MOL0     H28061   2.761   2.268  10.613 -4.2436 -1.5241 -1.4822
  208MOL0     H28062   2.676   1.881  10.347 -0.2579 -0.3361 -1.1924
  208MOL0     H28063   2.575   1.701  10.241  0.9945  1.3413  0.3470
  208MOL0     H28064   3.075   1.525  11.151  2.8609  2.6189 -1.8290
  208MOL0     H28065   3.185   1.729  11.214 -0.5914  0.2405  3.2359
  208MOL0     H28066   2.961   2.215  11.458  0.4176 -2.8168  0.9367
  208MOL0     H28067   3.077   2.386  11.595  0.8818  0.6432 -0.5534
  208MOL0     H28068   3.213   2.530  11.681  0.1500 -0.6568 -0.1944
  208MOL0     H28069   3.379   2.559  11.729 -0.8276  0.6640 -0.3105
  208MOL0     H28070   3.362   2.346  11.863  0.9521  0.7542  0.0289
  208MOL0     H28071   3.187   2.334  11.828  0.4638  1.1454 -5.5015
  208MOL0     H28072   3.346   2.518  12.018 -1.0007  1.0944 -0.6657
  208MOL0     H28073   3.214   2.403  12.028 -0.3935  0.5339  1.8540
  208MOL0     H28074   3.138   2.644  12.044 -0.3076 -2.3573  0.3700
  208MOL0     H28075   3.209   2.682  11.888 -1.3854  1.7149 -1.4566
  208MOL0     H28076   2.832   2.561  11.780  1.3579 -0.4492 -1.8600
  208MOL0     H28077   3.440   2.280  11.407  0.4146  2.0904  2.8793
  208MOL0     H28078   3.312   2.001  11.231 -0.3618  0.6146  0.5984
  208MOL0     H28079   3.309   2.154  11.125  0.5169 -0.2748 -1.2510
  208MOL0     H28080   3.445   2.128  11.222 -0.2390  0.3270 -2.9030
  209MOL0     O28081   0.436  10.989   6.482 -0.5880  0.3324  0.5374
  209MOL0     C28082   0.369  10.915   6.548 -0.3408  0.0833  0.4146
  209MOL0     O28083   0.257  10.951   6.613  0.7818  0.7606 -0.1051
  209MOL0     C28084   0.229  11.086   6.629  0.0330 -0.2391  0.2102
  209MOL0     C28085   0.116  11.151   6.572 -0.0437 -0.5732  0.2955
  209MOL0     C28086   0.094  11.289   6.594  0.2352 -0.4040 -0.7639
  209MOL0     C28087   0.182  11.359   6.683  0.0147 -0.1736  0.5205
  209MOL0     O28088   0.171  11.492   6.727  1.2222  0.7549  0.0480
  209MOL0     C28089   0.078  11.587   6.668 -0.2936  0.1408 -0.3079
  209MOL0     C28090   0.139  11.644   6.535 -0.2621  0.4298 -0.1386
  209MOL0     C28091   0.079  11.776   6.490  0.8343  0.2073 -0.5042
  209MOL0     C28092   0.155  11.825   6.365 -0.4094  0.3845 -0.3669
  209MOL0     C28093   0.098  11.953   6.306 -0.5665  0.3966  0.5091
  209MOL0     C28094   0.125  12.069   6.395  0.0281 -0.1713 -0.6087
  209MOL0     C28095   0.033  12.190   6.383  0.0010  0.6568  0.4184
  209MOL0     C28096   0.021  12.265   6.510 -0.0172 -0.9492 -0.5740
  209MOL0     N28097   0.158  12.323   6.552 -0.1270  0.2267  0.2200
  209MOL0     C28098   0.191  12.453   6.541  0.0251  0.9663  0.4893
  209MOL0     C28099   0.314  12.463   6.587  0.4111 -0.4437  0.9411
  209MOL0     C28100   0.395  12.592   6.604 -0.3144  0.3700  1.2222
  209MOL0     C28101   0.424  12.624   6.749 -0.3745  0.8212  0.3854
  209MOL0     C28102   0.494  12.520   6.828  0.6315 -0.1485 -0.7480
  209MOL0     C28103   0.628  12.468   6.795 -0.3355  0.7956 -0.6896
  209MOL0     O28104   0.670  12.401   6.910  0.1763  0.1780 -0.0592
  209MOL0     C28105   0.773  12.313   6.894  0.2642 -0.4696  0.5463
  209MOL0     C28106   0.819  12.266   7.013 -0.3090 -0.0588  0.4629
  209MOL0     C28107   0.916  12.167   7.022  0.4179 -0.2684  0.1300
  209MOL0     C28108   0.971  12.116   6.904  0.1305  1.3992 -0.2597
  209MOL0     C28109   1.085  12.019   6.904 -0.8773  0.1492 -0.2430
  209MOL0     O28110   1.134  11.969   7.026  0.5400  0.4328 -0.3000
  209MOL0     C28111   1.229  11.868   7.039 -1.2935 -0.4402  0.1759
  209MOL0     C28112   1.257  11.765   6.953 -1.0906 -0.1294 -0.2001
  209MOL0     C28113   1.349  11.661   6.991 -0.1201 -0.6221 -0.6320
  209MOL0     C28114   1.408  11.657   7.118  0.2888  0.2378  0.0955
  209MOL0     O28115   1.475  11.554   7.178  0.3479 -0.1051 -0.2530
  209MOL0     C28116   1.443  11.422   7.110 -0.4730 -0.9363  0.2173
  209MOL0     C28117   1.532  11.319   7.175  0.2633  0.5825 -0.0011
  209MOL0     C28118   1.680  11.315   7.116 -0.3878  0.2175  0.5349
  209MOL0     C28119   1.757  11.448   7.143 -0.9931 -0.2137 -1.0575
  209MOL0     C28120   1.902  11.445   7.103 -0.7059 -0.7156  0.0765
  209MOL0     C28121   1.978  11.396   7.224 -0.1228  0.1496  0.3439
  209MOL0     C28122   2.126  11.364   7.189 -0.6822  0.5704  0.1624
  209MOL0     C28123   2.216  11.487   7.156  0.9018  0.2181  1.1289
  209MOL0    Cl28124   2.390  11.451   7.130  0.1147 -0.9481  0.3760
  209MOL0     C28125   1.379  11.772   7.195  0.3834  0.0351 -0.3040
  209MOL0     C28126   1.296  11.878   7.156 -0.6104  0.3715 -0.3313
  209MOL0     O28127   1.145  12.018   6.795 -1.1523 -0.3474  0.7083
  209MOL0     C28128   0.913  12.154   6.782  0.2696 -0.6778 -1.3950
  209MOL0     C28129   0.817  12.261   6.778 -0.5586  0.3024  0.0039
  209MOL0     N28130   0.363  12.335   6.623 -0.1709 -0.3803  0.6544
  209MOL0     N28131   0.264  12.254   6.608  0.3284  0.2226 -0.0131
  209MOL0     C28132   0.293  11.291   6.727 -0.1767 -0.0228 -0.4139
  209MOL0     C28133   0.325  11.156   6.705 -0.5575 -0.1178 -0.8538
  209MOL0     C28134   0.419  10.780   6.587  0.3732 -1.2479 -0.5150
  209MOL0     C28135   0.551  10.762   6.636  0.4221  0.2301  0.0133
  209MOL0     C28136   0.579  10.642   6.704  0.1652  0.2086 -0.0772
  209MOL0     C28137   0.483  10.531   6.714  0.4928 -1.0691 -0.5450
  209MOL0     O28138   0.525  10.408   6.763 -0.3333  0.0668  0.3100
  209MOL0     C28139   0.441  10.337   6.853 -0.1561  1.1393  0.7878
  209MOL0     C28140   0.422  10.407   6.988  1.2383 -0.0602 -0.2309
  209MOL0     C28141   0.385  10.299   7.083  0.8053  0.0190  0.1492
  209MOL0     C28142   0.341  10.353   7.222 -0.2983 -0.0568  0.0964
  209MOL0     C28143   0.224  10.438   7.226  0.9754 -0.0966  0.4685
  209MOL0     C28144   0.114  10.484   7.222  0.5159 -0.6634 -0.5500
  209MOL0     C28145   0.356  10.563   6.671 -0.1394 -0.6299 -0.1788
  209MOL0     C28146   0.324  10.683   6.606  0.3218  0.5005  0.4600
  209MOL0     C28147   0.185  10.682   6.552 -0.1084 -0.8492  0.0597
  209MOL0     H28148   0.049  11.097   6.506  0.3249 -0.9478  0.2266
  209MOL0     H28149   0.014  11.352   6.556  0.3304  0.4465  0.3928
  209MOL0     H28150  -0.016  11.539   6.642 -0.9542  1.5427 -0.5721
  209MOL0     H28151   0.060  11.675   6.731  1.1618  0.7925 -0.7457
  209MOL0     H28152   0.135  11.583   6.445 -1.1674 -0.6506  0.6162
  209MOL0     H28153   0.244  11.665   6.554 -0.3715 -1.3952  3.1617
  209MOL0     H28154   0.065  11.850   6.569 -0.7427  0.1064 -0.6554
  209MOL0     H28155  -0.027  11.758   6.471  0.6903 -0.7236  1.0295
  209MOL0     H28156   0.254  11.854   6.400 -0.8102  0.0485  1.0964
  209MOL0     H28157   0.168  11.747   6.288  1.0674 -0.1111  0.3458
  209MOL0     H28158   0.134  11.982   6.207  2.6537  1.1453  1.7735
  209MOL0     H28159  -0.010  11.934   6.301 -0.4188 -0.1177 -1.4425
  209MOL0     H28160   0.109  12.035   6.498 -4.0924 -0.5702 -1.2062
  209MOL0     H28161   0.229  12.103   6.387  1.0123 -2.8155 -0.0345
  209MOL0     H28162  -0.065  12.150   6.352  0.0430  0.4378  0.5655
  209MOL0     H28163   0.068  12.254   6.302  0.3987 -1.6390 -1.3182
  209MOL0     H28164  -0.061  12.337   6.509  0.9944  0.2887 -3.2955
  209MOL0     H28165  -0.005  12.199   6.593  1.2949  0.0221  0.6693
  209MOL0     H28166   0.138  12.537   6.498  0.8939  0.7950 -0.9944
  209MOL0     H28167   0.492  12.594   6.553 -0.2353  1.7650  1.3944
  209MOL0     H28168   0.332  12.672   6.564 -1.6907  0.0568  2.6850
  209MOL0     H28169   0.485  12.714   6.741  3.2221 -1.4417 -0.2311
  209MOL0     H28170   0.329  12.637   6.801 -1.2155 -1.2684 -0.5244
  209MOL0     H28171   0.427  12.435   6.840  1.4352 -0.6054  0.8755
  209MOL0     H28172   0.499  12.563   6.929 -1.8370 -1.4571  0.0182
  209MOL0     H28173   0.705  12.541   6.768  3.2337 -3.5256 -3.8013
  209MOL0     H28174   0.615  12.399   6.711  1.1972  1.5418 -1.5793
  209MOL0     H28175   0.778  12.298   7.108  0.7726  1.6712  0.3863
  209MOL0     H28176   0.949  12.141   7.122  0.0278  1.4690  0.7535
  209MOL0     H28177   1.201  11.769   6.860 -0.5941 -0.2412 -0.5105
  209MOL0     H28178   1.349  11.582   6.916  0.8635  1.5416 -3.0442
  209MOL0     H28179   1.335  11.402   7.111 -0.7332  0.3484 -0.5784
  209MOL0     H28180   1.473  11.418   7.005 -1.0440 -0.5422  0.0367
  209MOL0     H28181   1.532  11.335   7.283 -1.3336 -3.0588  0.6859
  209MOL0     H28182   1.495  11.217   7.160 -0.2550  0.8024 -0.2136
  209MOL0     H28183   1.732  11.228   7.158 -2.3476 -1.2647  0.0341
  209MOL0     H28184   1.675  11.290   7.009  1.8325  0.3331  0.3553
  209MOL0     H28185   1.766  11.468   7.250  4.3315  0.9694 -1.4430
  209MOL0     H28186   1.699  11.522   7.088 -4.0074 -2.7173 -1.5277
  209MOL0     H28187   1.947  11.538   7.065 -1.6983  0.0967  0.8194
  209MOL0     H28188   1.916  11.371   7.024  1.3987  1.0064 -1.2980
  209MOL0     H28189   1.975  11.467   7.306 -2.0663 -1.3920  1.7094
  209MOL0     H28190   1.952  11.301   7.272  1.9079 -0.0006  1.2413
  209MOL0     H28191   2.138  11.287   7.112 -0.4430  2.7675 -2.1702
  209MOL0     H28192   2.158  11.325   7.285 -1.9089 -1.9166 -0.3675
  209MOL0     H28193   2.175  11.519   7.059 -2.2403 -2.1815  1.5055
  209MOL0     H28194   2.213  11.571   7.226  0.2620  0.1481  1.1824
  209MOL0     H28195   1.445  11.774   7.281 -0.1680  4.0183  0.2068
  209MOL0     H28196   1.278  11.964   7.219 -2.8183 -0.6067  0.4722
  209MOL0     H28197   0.942  12.113   6.686  2.4588  0.0483 -1.0898
  209MOL0     H28198   0.802  12.303   6.679  1.2364 -1.5238 -1.1273
  209MOL0     H28199   0.361  11.350   6.787  0.0622 -1.7911  1.1423
  209MOL0     H28200   0.415  11.110   6.744 -0.7426 -1.1460 -1.5967
  209MOL0     H28201   0.621  10.841   6.611  0.7904 -0.9636 -3.2822
  209MOL0     H28202   0.672  10.619   6.756 -0.7172 -0.5757  1.2203
  209MOL0     H28203   0.499  10.247   6.877  0.8092  2.2587  2.9506
  209MOL0     H28204   0.345  10.312   6.807  0.2595 -2.3408  1.5145
  209MOL0     H28205   0.339  10.477   6.982 -0.2962 -1.5286  2.1831
  209MOL0     H28206   0.515  10.456   7.018  1.1513 -0.0560  0.0378
  209MOL0     H28207   0.470  10.233   7.104  0.3226  0.1569  2.7992
  209MOL0     H28208   0.309  10.235   7.038  0.6007  0.5963 -0.3493
  209MOL0     H28209   0.325  10.268   7.290  0.6946 -0.3680 -0.0519
  209MOL0     H28210   0.424  10.416   7.256  0.0119 -0.2736 -0.2585
  209MOL0     H28211   0.015  10.526   7.215  0.1969 -1.2080  0.4790
  209MOL0     H28212   0.274  10.493   6.685  2.1082 -3.3066  0.3878
  209MOL0     H28213   0.189  10.734   6.456 -0.4597  3.5989  2.1679
  209MOL0     H28214   0.135  10.586   6.535  0.8785 -1.2944 -0.3801
  209MOL0     H28215   0.127  10.748   6.618  5.8036  2.2909  2.8774
  210MOL0     O28216   4.253   3.638   2.475 -1.2232  0.6958 -0.2526
  210MOL0     C28217   4.158   3.578   2.427  0.6130  0.6418  0.1435
  210MOL0     O28218   4.082   3.627   2.330 -0.0738 -0.1404 -0.1439
  210MOL0     C28219   4.136   3.718   2.248  0.1040  0.3324 -0.7165
  210MOL0     C28220   4.189   3.681   2.121 -0.9211  0.2119  0.7538
  210MOL0     C28221   4.240   3.782   2.040 -0.0938 -0.6471 -0.4180
  210MOL0     C28222   4.249   3.913   2.090 -0.3354 -0.5853  0.2244
  210MOL0     O28223   4.305   4.014   2.011 -0.3864  0.3140 -1.0110
  210MOL0     C28224   4.257   4.023   1.878 -0.0743  0.4252  0.2405
  210MOL0     C28225   4.217   4.164   1.852 -0.3370 -0.1589  0.3341
  210MOL0     C28226   4.106   4.208   1.957 -0.7787 -0.3825  0.4956
  210MOL0     C28227   4.067   4.353   1.920 -0.9014 -0.1951  0.2159
  210MOL0     C28228   3.949   4.404   2.003 -0.6277  0.3680 -1.3434
  210MOL0     C28229   3.987   4.416   2.161 -0.1612 -0.3299  0.7100
  210MOL0     C28230   3.879   4.495   2.239 -0.1327  0.2197  0.7984
  210MOL0     C28231   3.918   4.510   2.385 -0.2102 -0.3198  0.5151
  210MOL0     N28232   3.890   4.383   2.465 -0.6085  0.8503  0.5532
  210MOL0     C28233   3.768   4.353   2.511  0.6469  0.0764  0.3335
  210MOL0     C28234   3.782   4.239   2.586 -0.8644 -0.4347  0.5195
  210MOL0     C28235   3.673   4.162   2.637  0.5233  0.9153 -0.3372
  210MOL0     C28236   3.558   4.227   2.712 -0.2306  0.1680 -1.1404
  210MOL0     C28237   3.602   4.344   2.801  0.3451 -0.0831 -0.1502
  210MOL0     C28238   3.506   4.403   2.904 -0.3004  0.4405 -0.3392
  210MOL0     O28239   3.379   4.433   2.850  0.5579  0.1800 -0.1472
  210MOL0     C28240   3.290   4.478   2.947  0.4263  0.5880 -0.9833
  210MOL0     C28241   3.262   4.612   2.958 -0.2899  1.3130  0.5447
  210MOL0     C28242   3.160   4.653   3.035  0.8521  0.2486  0.0860
  210MOL0     C28243   3.074   4.571   3.117 -0.1005 -0.6041 -0.5260
  210MOL0     C28244   2.952   4.626   3.175 -0.3368 -1.4100 -1.0741
  210MOL0     O28245   2.933   4.753   3.139  0.0311  0.2884  0.3421
  210MOL0     C28246   2.805   4.808   3.157 -0.7722  0.5521  0.4181
  210MOL0     C28247   2.736   4.837   3.041 -0.6807  0.2679  0.7884
  210MOL0     C28248   2.610   4.898   3.046  0.5699  0.4247  0.1297
  210MOL0     C28249   2.559   4.934   3.170 -0.0901  0.3324 -0.2176
  210MOL0     O28250   2.426   4.979   3.189 -0.4691 -0.1016 -0.6193
  210MOL0     C28251   2.348   5.006   3.075  0.2595 -0.5132  0.1072
  210MOL0     C28252   2.219   5.023   3.157  0.3221 -0.0732  1.0029
  210MOL0     C28253   2.093   5.055   3.061 -0.9490  0.2570 -0.5045
  210MOL0     C28254   1.966   5.003   3.131  0.5980  0.0888 -0.1511
  210MOL0     C28255   1.842   4.981   3.033 -0.2157 -0.1004 -0.9265
  210MOL0     C28256   1.823   5.106   2.950 -0.4676  0.5747  0.0046
  210MOL0     C28257   1.691   5.097   2.872 -0.7592 -0.9135  0.1813
  210MOL0     C28258   1.663   5.242   2.839 -0.1768 -0.0137  0.1825
  210MOL0    Cl28259   1.792   5.312   2.725 -0.2241 -0.1313 -0.2198
  210MOL0     C28260   2.635   4.912   3.288  0.8385 -0.0117  0.1342
  210MOL0     C28261   2.753   4.843   3.283 -0.1644 -0.3957 -0.0706
  210MOL0     O28262   2.859   4.558   3.230  0.0127  0.5257 -0.6996
  210MOL0     C28263   3.107   4.441   3.116  0.6483  0.8359  0.3067
  210MOL0     C28264   3.217   4.393   3.029  0.4724  0.8385  0.0338
  210MOL0     N28265   3.906   4.189   2.569  0.8322 -0.4100 -0.3232
  210MOL0     N28266   3.980   4.281   2.506 -0.3436  0.7441  0.0705
  210MOL0     C28267   4.209   3.943   2.221  0.7175  0.3925 -0.3081
  210MOL0     C28268   4.146   3.844   2.300 -1.4082  1.0411  0.3564
  210MOL0     C28269   4.093   3.453   2.485 -0.5660  0.2101 -0.4236
  210MOL0     C28270   3.956   3.425   2.458 -0.2618  0.2240 -0.0771
  210MOL0     C28271   3.897   3.305   2.507 -0.8122 -0.4782 -0.8079
  210MOL0     C28272   3.978   3.207   2.570  0.2164  0.1397 -0.1183
  210MOL0     O28273   3.923   3.082   2.587  0.2620 -0.2960 -0.1715
  210MOL0     C28274   3.868   3.073   2.721 -0.5420  0.7328  0.2526
  210MOL0     C28275   3.954   2.990   2.817 -0.2380 -0.5588 -0.1981
  210MOL0     C28276   3.987   2.848   2.774 -0.5834  0.4709  0.0472
  210MOL0     C28277   4.089   2.777   2.873  0.9193  0.1895 -0.5709
  210MOL0     C28278   4.125   2.647   2.830  0.0988  1.3216 -0.9992
  210MOL0     C28279   4.126   2.530   2.797  0.5319 -0.2868  0.7001
  210MOL0     C28280   4.106   3.242   2.604  0.0089 -0.1687 -0.1856
  210MOL0     C28281   4.169   3.364   2.563  0.2095 -0.0135  0.4776
  210MOL0     C28282   4.309   3.387   2.587  0.3670  1.0272 -0.9002
  210MOL0     H28283   4.164   3.583   2.081 -1.9502  0.5804  0.4749
  210MOL0     H28284   4.277   3.755   1.941  2.5052  3.4943 -0.8216
  210MOL0     H28285   4.346   3.999   1.818 -0.4158 -0.1275 -0.0464
  210MOL0     H28286   4.173   3.966   1.839  0.6900  0.1322 -1.0337
  210MOL0     H28287   4.190   4.168   1.746  0.6874 -0.3054  0.0539
  210MOL0     H28288   4.313   4.216   1.861 -0.5340  0.4139 -0.7169
  210MOL0     H28289   4.132   4.193   2.062 -1.5329 -1.2923  0.5735
  210MOL0     H28290   4.023   4.138   1.940 -1.2104  0.4686 -1.1314
  210MOL0     H28291   4.159   4.412   1.926  0.2168 -1.6943 -1.5077
  210MOL0     H28292   4.036   4.356   1.816 -0.1762  1.1543  0.0152
  210MOL0     H28293   3.925   4.502   1.959 -1.6624  0.1050 -1.3975
  210MOL0     H28294   3.862   4.339   1.991 -0.7756  0.5530 -1.2849
  210MOL0     H28295   4.015   4.322   2.210 -1.8796  0.0258  2.4971
  210MOL0     H28296   4.074   4.483   2.168 -0.0648 -0.4798  0.9881
  210MOL0     H28297   3.776   4.457   2.233 -0.0270  0.0726 -0.2549
  210MOL0     H28298   3.887   4.591   2.188 -0.2610 -0.7818 -1.1834
  210MOL0     H28299   4.023   4.538   2.397 -0.5642  2.0247 -1.2983
  210MOL0     H28300   3.862   4.589   2.437 -0.6388 -2.2199  3.1685
  210MOL0     H28301   3.668   4.397   2.509  0.8880  0.8899  2.7641
  210MOL0     H28302   3.615   4.110   2.560 -1.2937 -0.1990  1.6636
  210MOL0     H28303   3.725   4.090   2.701 -2.6858  1.4472  3.2654
  210MOL0     H28304   3.465   4.256   2.662 -1.6359  0.3306  1.3832
  210MOL0     H28305   3.515   4.154   2.781 -3.4382  2.9052  0.0632
  210MOL0     H28306   3.648   4.426   2.746  0.2956  0.2289  0.2710
  210MOL0     H28307   3.689   4.303   2.854  0.8614 -1.0876 -1.7036
  210MOL0     H28308   3.558   4.487   2.951  1.6659 -0.4840 -0.7904
  210MOL0     H28309   3.490   4.331   2.985 -0.4891  0.0373 -0.7322
  210MOL0     H28310   3.302   4.691   2.895 -0.4120  0.0207 -1.2208
  210MOL0     H28311   3.146   4.761   3.034  2.0691  0.4181  0.2274
  210MOL0     H28312   2.777   4.801   2.947 -2.2553  1.4368 -0.3964
  210MOL0     H28313   2.550   4.915   2.957 -1.0204 -0.3147  1.0220
  210MOL0     H28314   2.370   5.100   3.023 -1.9113 -1.0951 -2.0375
  210MOL0     H28315   2.339   4.932   2.995 -0.9530  3.3909 -3.7862
  210MOL0     H28316   2.203   4.931   3.213  1.7760 -0.3848  0.9364
  210MOL0     H28317   2.223   5.102   3.234 -4.0054  2.3592 -0.8662
  210MOL0     H28318   2.070   5.160   3.039 -1.0000  0.4557  0.4686
  210MOL0     H28319   2.110   4.996   2.970  2.7905  0.7108 -0.2612
  210MOL0     H28320   1.932   5.073   3.207  3.6986  2.2325 -0.5608
  210MOL0     H28321   1.975   4.913   3.193  5.2942  1.1074  1.0608
  210MOL0     H28322   1.752   4.955   3.090 -1.3680 -0.9226 -3.0214
  210MOL0     H28323   1.863   4.892   2.973  3.4612 -0.9815  1.3472
  210MOL0     H28324   1.828   5.191   3.018 -0.4461  0.2025  0.4740
  210MOL0     H28325   1.899   5.115   2.873 -1.6491  0.0723 -1.2756
  210MOL0     H28326   1.611   5.057   2.935  1.3161 -2.1915  2.1630
  210MOL0     H28327   1.697   5.043   2.777 -0.9494  0.5032 -0.6649
  210MOL0     H28328   1.567   5.239   2.786 -0.3447 -0.9691  0.5174
  210MOL0     H28329   1.647   5.294   2.934  1.5721  0.8626  0.0344
  210MOL0     H28330   2.592   4.950   3.380 -1.2587 -1.8469 -0.0064
  210MOL0     H28331   2.821   4.833   3.368 -0.3825  1.1342  0.3122
  210MOL0     H28332   3.046   4.365   3.165  3.0206 -2.5854 -1.6117
  210MOL0     H28333   3.226   4.285   3.023 -1.5088  0.5107  1.9383
  210MOL0     H28334   4.225   4.039   2.268  2.7867 -1.2051  2.5437
  210MOL0     H28335   4.123   3.857   2.405 -2.4539  0.5218  0.2054
  210MOL0     H28336   3.900   3.499   2.402 -0.1945  0.3099 -0.0315
  210MOL0     H28337   3.791   3.281   2.500 -1.6184  1.4539  2.4078
  210MOL0     H28338   3.768   3.028   2.719 -0.6492  0.9283  1.1263
  210MOL0     H28339   3.857   3.169   2.773 -1.0418  0.2309  1.1027
  210MOL0     H28340   3.898   2.971   2.909  3.3977 -2.0924  1.9172
  210MOL0     H28341   4.044   3.048   2.840 -0.5699  0.6474 -1.7554
  210MOL0     H28342   4.024   2.851   2.671  1.3378 -1.1188  0.6194
  210MOL0     H28343   3.892   2.794   2.770 -1.0437  1.1596  1.0719
  210MOL0     H28344   4.178   2.841   2.875 -0.6355  2.4922  1.3317
  210MOL0     H28345   4.045   2.760   2.972 -1.2079  0.4060 -1.4200
  210MOL0     H28346   4.107   2.439   2.743 -3.3599  1.7970 -1.8783
  210MOL0     H28347   4.166   3.160   2.643 -1.1828 -1.9760 -1.9836
  210MOL0     H28348   4.347   3.303   2.646 -0.6393 -0.6977 -2.5995
  210MOL0     H28349   4.367   3.396   2.495  1.0333 -0.2249 -0.6283
  210MOL0     H28350   4.317   3.475   2.652  0.7283  0.8414 -0.6931
  211MOL0     O28351   0.784   1.737   8.312  0.1207  0.1000 -0.3937
  211MOL0     C28352   0.667   1.735   8.273 -0.3663 -0.1816  0.2049
  211MOL0     O28353   0.619   1.689   8.152 -0.1674  0.1340  0.1360
  211MOL0     C28354   0.709   1.644   8.054  0.3139 -0.6706 -0.5883
  211MOL0     C28355   0.657   1.561   7.954  0.3011 -0.0268  0.6525
  211MOL0     C28356   0.736   1.506   7.860 -0.6532  0.2855 -0.7652
  211MOL0     C28357   0.875   1.525   7.865  1.5110  0.2363 -0.9352
  211MOL0     O28358   0.965   1.453   7.794 -1.2223 -0.4943 -0.1434
  211MOL0     C28359   0.925   1.330   7.735  0.0124  0.0182  1.0768
  211MOL0     C28360   1.024   1.284   7.635 -0.8951 -0.1548 -0.3203
  211MOL0     C28361   1.157   1.234   7.687  0.4303 -0.6477 -0.1924
  211MOL0     C28362   1.264   1.213   7.572  0.1432  0.6649 -0.2588
  211MOL0     C28363   1.384   1.132   7.638 -0.1424 -0.7078  0.2444
  211MOL0     C28364   1.471   1.213   7.726 -1.0881 -0.7952 -0.2346
  211MOL0     C28365   1.616   1.157   7.716 -0.2780 -0.1136 -0.9198
  211MOL0     C28366   1.693   1.234   7.820  0.4877 -0.1318 -0.4086
  211MOL0     N28367   1.831   1.201   7.863  0.8619 -0.2465 -0.0009
  211MOL0     C28368   1.893   1.083   7.911 -0.3360  0.1464  1.1282
  211MOL0     C28369   2.010   1.122   7.960 -0.2501  0.1061 -0.5309
  211MOL0     C28370   2.120   1.028   8.010  0.0308  0.1003  0.5680
  211MOL0     C28371   2.058   0.944   8.119 -0.5597 -0.0364 -0.1251
  211MOL0     C28372   2.162   0.850   8.183 -0.6329 -0.2584 -0.6632
  211MOL0     C28373   2.093   0.739   8.261  0.4297  0.1465 -0.1227
  211MOL0     O28374   2.201   0.648   8.289 -0.4459 -0.1182 -0.3023
  211MOL0     C28375   2.297   0.681   8.383 -0.2657 -0.3226 -0.1856
  211MOL0     C28376   2.395   0.587   8.390  0.0805  0.7044  0.4517
  211MOL0     C28377   2.514   0.608   8.458 -0.0135  0.0510 -0.0026
  211MOL0     C28378   2.526   0.731   8.526 -1.1171  0.8539 -0.9551
  211MOL0     C28379   2.649   0.762   8.594 -1.2702  0.0295  0.2638
  211MOL0     O28380   2.749   0.670   8.599 -0.4414  0.0450  0.3714
  211MOL0     C28381   2.857   0.698   8.687  0.3753  0.3798  0.6059
  211MOL0     C28382   2.870   0.635   8.809  1.2596 -0.2077  0.7488
  211MOL0     C28383   2.978   0.642   8.890  0.1577  0.4012  0.6298
  211MOL0     C28384   3.079   0.739   8.864 -0.4832 -0.0238 -0.2069
  211MOL0     O28385   3.182   0.758   8.945  0.4349  0.2368  0.0511
  211MOL0     C28386   3.307   0.685   8.930 -0.2663 -0.4748  0.1680
  211MOL0     C28387   3.401   0.735   9.045 -0.0336  0.9996  0.5415
  211MOL0     C28388   3.352   0.684   9.178  0.0900  0.2638 -0.1772
  211MOL0     C28389   3.440   0.719   9.301  0.0968 -0.0755  0.1579
  211MOL0     C28390   3.359   0.738   9.427 -0.7706  0.6326 -0.7331
  211MOL0     C28391   3.259   0.630   9.452 -1.0881  0.1238  0.2956
  211MOL0     C28392   3.202   0.665   9.588 -0.7790  0.3247  0.7845
  211MOL0     C28393   3.105   0.563   9.625  0.4364  0.5304  0.8753
  211MOL0    Cl28394   3.056   0.590   9.793  0.2933 -0.0096  0.1808
  211MOL0     C28395   3.074   0.800   8.740  0.8367  0.1064 -0.5742
  211MOL0     C28396   2.964   0.784   8.653  0.1751  0.5716  0.2940
  211MOL0     O28397   2.637   0.866   8.669  0.3229  0.3815  0.2333
  211MOL0     C28398   2.411   0.799   8.548 -0.3924 -0.3980 -0.1815
  211MOL0     C28399   2.300   0.791   8.471 -0.2510  0.2578  1.0484
  211MOL0     N28400   2.023   1.262   7.953  0.5285  0.4779  0.2665
  211MOL0     N28401   1.922   1.305   7.885  0.5660  0.9077 -0.8160
  211MOL0     C28402   0.922   1.610   7.951  0.2166 -0.0061 -0.6687
  211MOL0     C28403   0.848   1.669   8.054 -0.1224  0.2985 -0.2650
  211MOL0     C28404   0.559   1.780   8.367  0.2680 -0.5966 -0.3460
  211MOL0     C28405   0.427   1.740   8.357  0.2169 -0.2342  0.0558
  211MOL0     C28406   0.319   1.766   8.444  0.1663 -0.0783  0.4671
  211MOL0     C28407   0.340   1.843   8.555 -0.1188 -0.0949 -0.8894
  211MOL0     O28408   0.234   1.871   8.635 -0.4393  0.1707  0.1685
  211MOL0     C28409   0.243   1.966   8.743 -0.6943 -0.3934  0.2203
  211MOL0     C28410   0.123   1.958   8.840  0.3044 -0.4632 -0.6362
  211MOL0     C28411   0.140   2.016   8.975  0.0319  0.3536  0.6240
  211MOL0     C28412   0.070   1.941   9.083  0.3723 -0.4367  0.9795
  211MOL0     C28413   0.137   1.974   9.208 -0.8070  0.2640 -0.5418
  211MOL0     C28414   0.191   2.017   9.308  0.3639  0.4207 -0.1031
  211MOL0     C28415   0.474   1.877   8.580  0.2736  0.2104  0.8135
  211MOL0     C28416   0.577   1.863   8.481  0.1931 -0.0820 -0.1182
  211MOL0     C28417   0.705   1.933   8.514  0.1570 -0.1561 -0.1726
  211MOL0     H28418   0.553   1.534   7.966 -0.0553  1.0844  0.2025
  211MOL0     H28419   0.700   1.429   7.793  1.4750 -2.7450  1.2748
  211MOL0     H28420   0.897   1.257   7.811 -0.7275 -1.1501 -0.2600
  211MOL0     H28421   0.829   1.343   7.683  0.3389  0.4346  0.5668
  211MOL0     H28422   1.039   1.374   7.574 -0.5504  1.8219  2.4923
  211MOL0     H28423   0.979   1.205   7.574 -4.8144 -0.7162  2.8648
  211MOL0     H28424   1.133   1.135   7.729 -0.3521  0.2769  1.6485
  211MOL0     H28425   1.189   1.297   7.770 -1.4661 -1.6396  1.3885
  211MOL0     H28426   1.217   1.159   7.489  3.4508  0.7208 -2.3167
  211MOL0     H28427   1.293   1.306   7.522  1.0549  1.0498  0.9262
  211MOL0     H28428   1.353   1.039   7.686  3.1600 -2.0825 -0.0160
  211MOL0     H28429   1.439   1.107   7.547 -1.1950 -1.9502 -0.0811
  211MOL0     H28430   1.473   1.318   7.695 -1.3020 -0.8100 -0.2990
  211MOL0     H28431   1.429   1.207   7.827 -0.2822  0.2558  0.1862
  211MOL0     H28432   1.673   1.169   7.623  2.8970  2.8869  1.1417
  211MOL0     H28433   1.616   1.049   7.737 -0.2849 -0.3531 -2.1179
  211MOL0     H28434   1.698   1.340   7.792  1.0008  0.4874  1.7745
  211MOL0     H28435   1.638   1.241   7.915  0.7753 -0.3564 -0.2226
  211MOL0     H28436   1.869   0.978   7.901  0.5980  0.0241 -0.0248
  211MOL0     H28437   2.162   0.977   7.923 -1.0717 -0.1869  0.1925
  211MOL0     H28438   2.197   1.091   8.056 -0.6649  1.9332 -0.6548
  211MOL0     H28439   2.012   1.015   8.189  1.2510  1.1268 -0.0427
  211MOL0     H28440   1.985   0.872   8.081  1.2643 -3.0752  1.6985
  211MOL0     H28441   2.229   0.910   8.246 -1.4610 -1.3447  1.3174
  211MOL0     H28442   2.210   0.804   8.096 -0.2714 -0.0786 -0.5588
  211MOL0     H28443   2.020   0.684   8.201  0.3559 -1.4352  1.3326
  211MOL0     H28444   2.044   0.781   8.349 -0.1938 -0.3287 -0.2402
  211MOL0     H28445   2.379   0.491   8.341 -3.4624  1.1067  0.5159
  211MOL0     H28446   2.590   0.532   8.441 -1.3745 -0.4573 -8.7733
  211MOL0     H28447   2.797   0.560   8.838 -0.9985  1.5649 -0.0441
  211MOL0     H28448   3.005   0.578   8.973 -0.0923 -1.7354 -0.8524
  211MOL0     H28449   3.292   0.578   8.942  1.0358 -0.8596 -1.3546
  211MOL0     H28450   3.348   0.713   8.833  0.2658  0.5186  0.6557
  211MOL0     H28451   3.495   0.682   9.030 -2.0086 -3.2836  1.5473
  211MOL0     H28452   3.407   0.844   9.042 -0.0234  0.9814 -1.2095
  211MOL0     H28453   3.260   0.740   9.194  0.8944  2.3558 -2.3189
  211MOL0     H28454   3.325   0.578   9.180 -1.7203  0.6269  3.5591
  211MOL0     H28455   3.499   0.809   9.280  2.4591 -1.4616  0.4511
  211MOL0     H28456   3.514   0.639   9.306  0.0459 -0.1455 -0.1929
  211MOL0     H28457   3.314   0.837   9.438 -0.5626  0.6153  0.3542
  211MOL0     H28458   3.427   0.722   9.511 -2.3446  1.0781  0.6740
  211MOL0     H28459   3.187   0.604   9.374 -1.1481 -0.8248  0.6526
  211MOL0     H28460   3.322   0.542   9.467 -5.3500 -2.9084  2.2134
  211MOL0     H28461   3.172   0.769   9.595  3.0375  1.6692 -0.3468
  211MOL0     H28462   3.283   0.653   9.661 -0.2348 -3.5824 -0.1904
  211MOL0     H28463   3.015   0.564   9.564  0.3820  1.0731  0.9563
  211MOL0     H28464   3.149   0.464   9.609 -3.0306 -1.2809  1.4492
  211MOL0     H28465   3.147   0.875   8.714  2.4937 -0.6849  1.4905
  211MOL0     H28466   2.955   0.850   8.567 -0.9673  1.5716  1.1448
  211MOL0     H28467   2.410   0.882   8.618 -0.5921  1.0614 -1.8531
  211MOL0     H28468   2.219   0.863   8.468 -0.4476  0.0303  0.7989
  211MOL0     H28469   1.028   1.631   7.946  0.6584 -2.1842 -1.2864
  211MOL0     H28470   0.905   1.726   8.127 -0.8200  1.0083 -0.2581
  211MOL0     H28471   0.396   1.694   8.264  3.0658 -2.6051  0.1099
  211MOL0     H28472   0.221   1.727   8.416  0.9603 -4.5209  2.9832
  211MOL0     H28473   0.246   2.072   8.715  1.8293 -0.7034 -0.9435
  211MOL0     H28474   0.328   1.932   8.802 -0.9475  0.4947  1.1213
  211MOL0     H28475   0.098   1.852   8.849  4.4166 -1.4343  2.7402
  211MOL0     H28476   0.051   2.021   8.789 -0.8814  0.1756  1.7106
  211MOL0     H28477   0.103   2.119   8.968 -1.4526 -0.2624 -1.9405
  211MOL0     H28478   0.249   2.014   8.984  0.7261  1.1097 -4.4702
  211MOL0     H28479  -0.034   1.974   9.091 -0.0542 -1.0902 -1.3810
  211MOL0     H28480   0.062   1.836   9.055 -1.7562  0.4123 -2.0293
  211MOL0     H28481   0.227   2.062   9.398  1.1477  1.3053 -0.8368
  211MOL0     H28482   0.496   1.938   8.667  1.5241 -0.0926  0.7408
  211MOL0     H28483   0.694   2.015   8.585 -1.2006  1.2826 -1.9339
  211MOL0     H28484   0.778   1.855   8.538 -0.1877 -0.1580  0.9121
  211MOL0     H28485   0.753   1.972   8.423 -0.3307  0.9788  0.0423
  212MOL0     O28486   8.796   2.120   4.392 -0.4005  0.1509  0.1417
  212MOL0     C28487   8.779   1.998   4.413  0.1385 -0.7911  0.2734
  212MOL0     O28488   8.668   1.924   4.377 -0.2645  0.3680 -0.4442
  212MOL0     C28489   8.561   1.984   4.329  0.0360 -0.1407  0.3516
  212MOL0     C28490   8.512   2.112   4.360 -0.5623 -0.3606 -0.0466
  212MOL0     C28491   8.391   2.171   4.314 -0.4692  1.0427 -0.2086
  212MOL0     C28492   8.316   2.094   4.218  0.0675  0.9664 -0.0973
  212MOL0     O28493   8.209   2.137   4.148 -0.2943  0.5007  0.9527
  212MOL0     C28494   8.122   2.244   4.192  0.9860  0.9372  0.3450
  212MOL0     C28495   8.053   2.178   4.316 -0.2667  0.0461 -0.2763
  212MOL0     C28496   7.931   2.263   4.363 -0.3271 -0.3240 -0.6602
  212MOL0     C28497   7.830   2.189   4.456 -0.1453  0.2284 -0.0129
  212MOL0     C28498   7.732   2.291   4.504 -0.6527 -0.2892 -0.3942
  212MOL0     C28499   7.794   2.382   4.611 -0.1487  0.7895 -1.1120
  212MOL0     C28500   7.676   2.427   4.703 -0.2691 -0.4405  0.1565
  212MOL0     C28501   7.727   2.545   4.783  0.1646 -0.8210  0.0329
  212MOL0     N28502   7.869   2.545   4.833  0.3413 -0.7571  0.8395
  212MOL0     C28503   7.915   2.496   4.951  0.1114  0.3168 -0.0441
  212MOL0     C28504   8.044   2.532   4.955  0.0122  0.0115 -0.1985
  212MOL0     C28505   8.162   2.482   5.041 -0.2051  0.6752  0.1691
  212MOL0     C28506   8.158   2.328   5.036 -0.2464 -0.2057  0.5985
  212MOL0     C28507   8.213   2.280   4.894 -0.2638  0.3284  0.7906
  212MOL0     C28508   8.367   2.277   4.893  0.0062  0.6563 -0.4056
  212MOL0     O28509   8.423   2.294   4.761  0.4371 -0.0186  0.2908
  212MOL0     C28510   8.550   2.334   4.752  0.2932 -0.1647  0.2849
  212MOL0     C28511   8.648   2.319   4.851 -0.0304  0.6816  0.1692
  212MOL0     C28512   8.775   2.364   4.825  0.1242 -0.5082  0.0303
  212MOL0     C28513   8.819   2.423   4.703  0.3951  0.3822 -1.2135
  212MOL0     C28514   8.967   2.471   4.685  0.5573 -0.0728 -0.5197
  212MOL0     O28515   8.993   2.551   4.576 -0.8040  0.5367  0.1723
  212MOL0     C28516   9.104   2.627   4.558 -0.8781  0.4124  0.2918
  212MOL0     C28517   9.190   2.663   4.667  0.6354 -0.9313 -0.2399
  212MOL0     C28518   9.305   2.740   4.653 -0.5235 -0.6480  0.6053
  212MOL0     C28519   9.340   2.782   4.525  1.3666 -0.5719  0.1764
  212MOL0     O28520   9.463   2.853   4.514  0.1765  0.2896  0.1540
  212MOL0     C28521   9.493   2.933   4.392  0.3708  0.5889 -0.4136
  212MOL0     C28522   9.633   3.000   4.412 -0.2428  0.3838 -0.3269
  212MOL0     C28523   9.622   3.119   4.514  0.4908  0.2754 -0.5206
  212MOL0     C28524   9.758   3.178   4.554 -0.1251  0.0305 -0.4728
  212MOL0     C28525   9.749   3.313   4.634 -0.5275 -0.6883  0.2850
  212MOL0     C28526   9.674   3.433   4.574 -0.0837 -0.6176  0.2043
  212MOL0     C28527   9.689   3.461   4.424  0.4740  0.5508 -0.2239
  212MOL0     C28528   9.812   3.541   4.405 -0.5932 -0.3242  0.4081
  212MOL0    Cl28529   9.968   3.435   4.403 -0.2899  0.3555 -0.6626
  212MOL0     C28530   9.252   2.759   4.411  0.7019  0.3554 -0.4329
  212MOL0     C28531   9.144   2.678   4.431 -0.2083  0.5333  0.8333
  212MOL0     O28532   9.047   2.446   4.777 -0.9164 -0.2213 -0.2819
  212MOL0     C28533   8.725   2.438   4.600 -0.1038  0.3209  0.3422
  212MOL0     C28534   8.591   2.391   4.632 -0.1730  0.0204  0.4667
  212MOL0     N28535   8.074   2.611   4.849 -1.0515 -0.2541  0.0793
  212MOL0     N28536   7.971   2.623   4.777 -0.2459  0.4009 -0.8314
  212MOL0     C28537   8.362   1.966   4.191 -0.9940 -0.2074 -0.2436
  212MOL0     C28538   8.484   1.913   4.246 -0.2303 -0.0246 -0.8113
  212MOL0     C28539   8.889   1.923   4.485  0.3923 -0.1351  0.7715
  212MOL0     C28540   8.902   1.781   4.462 -0.6382 -0.3815 -0.5284
  212MOL0     C28541   9.015   1.711   4.514  1.2965 -0.1687 -0.7464
  212MOL0     C28542   9.093   1.771   4.609  0.1201  0.3255 -0.4342
  212MOL0     O28543   9.195   1.684   4.654 -0.5536  0.2000  0.1462
  212MOL0     C28544   9.277   1.730   4.769  0.6359 -0.0149 -0.6884
  212MOL0     C28545   9.374   1.622   4.815 -0.6924  0.2746  0.0970
  212MOL0     C28546   9.480   1.681   4.919 -0.1591  0.4412 -0.2565
  212MOL0     C28547   9.568   1.793   4.858  0.5456 -0.5964  0.3779
  212MOL0     C28548   9.514   1.928   4.891  0.3757  0.8949  0.2859
  212MOL0     C28549   9.467   2.038   4.921  0.0402 -0.5590 -0.1022
  212MOL0     C28550   9.080   1.907   4.636  0.4314  0.4869 -0.4956
  212MOL0     C28551   8.989   1.984   4.571 -0.7165 -0.7466  0.5545
  212MOL0     C28552   8.979   2.128   4.600 -0.6262 -0.5381  0.2140
  212MOL0     H28553   8.574   2.165   4.432 -0.5094  0.4893 -0.7013
  212MOL0     H28554   8.347   2.254   4.368 -3.5447  0.0567 -0.9841
  212MOL0     H28555   8.173   2.334   4.228  0.2498  2.4651 -2.2273
  212MOL0     H28556   8.063   2.274   4.106  0.6532  0.7778  0.5156
  212MOL0     H28557   8.114   2.149   4.403 -0.4162  0.6702  0.0414
  212MOL0     H28558   8.016   2.085   4.271 -1.7396 -0.3378  1.5863
  212MOL0     H28559   7.875   2.296   4.275 -1.5551  3.4926  1.3394
  212MOL0     H28560   7.980   2.351   4.404 -2.3039  1.0374 -1.1164
  212MOL0     H28561   7.797   2.116   4.382  2.0110 -1.0245  0.1547
  212MOL0     H28562   7.869   2.134   4.543  2.7656  0.0631 -1.2794
  212MOL0     H28563   7.688   2.355   4.428  0.2863  0.4395 -0.3390
  212MOL0     H28564   7.651   2.233   4.550 -0.5137 -1.6302 -1.7540
  212MOL0     H28565   7.863   2.329   4.678 -0.1261  4.4250  2.0467
  212MOL0     H28566   7.846   2.463   4.561  0.6245  0.7860 -0.3394
  212MOL0     H28567   7.648   2.350   4.774  2.2234 -0.9760  0.6747
  212MOL0     H28568   7.587   2.460   4.650  0.2489  0.9811  0.1149
  212MOL0     H28569   7.717   2.629   4.714 -0.8294 -1.8817 -1.1820
  212MOL0     H28570   7.670   2.555   4.876  1.7799 -0.0247  0.9691
  212MOL0     H28571   7.866   2.418   5.008 -1.0644 -1.1324 -2.8004
  212MOL0     H28572   8.259   2.514   5.000 -1.5259  0.4323 -3.4762
  212MOL0     H28573   8.156   2.514   5.145 -2.6453  1.4337 -0.1477
  212MOL0     H28574   8.230   2.291   5.109  0.6367  0.1959 -0.0462
  212MOL0     H28575   8.058   2.284   5.043  0.5801 -1.9910  1.9771
  212MOL0     H28576   8.166   2.348   4.822 -2.1491 -2.5536 -0.9447
  212MOL0     H28577   8.183   2.183   4.853 -0.1222  1.1588 -1.3868
  212MOL0     H28578   8.394   2.180   4.937  0.5701 -0.6535 -3.3738
  212MOL0     H28579   8.402   2.355   4.961  0.7597  0.1052 -0.1451
  212MOL0     H28580   8.623   2.254   4.934  1.0775 -1.8465 -1.3764
  212MOL0     H28581   8.855   2.350   4.897 -1.2015 -2.1841  1.2757
  212MOL0     H28582   9.176   2.630   4.770  0.9090 -2.4986 -0.6891
  212MOL0     H28583   9.375   2.764   4.733 -1.7136  0.4360  1.3792
  212MOL0     H28584   9.487   2.883   4.295 -1.6692  1.5258 -0.8132
  212MOL0     H28585   9.416   3.010   4.388 -1.9419 -1.4412  1.6543
  212MOL0     H28586   9.707   2.928   4.449 -0.0785  1.1067  0.8190
  212MOL0     H28587   9.662   3.052   4.320  0.7960  0.8757  0.2545
  212MOL0     H28588   9.558   3.194   4.466  1.0421  1.6664  0.8532
  212MOL0     H28589   9.585   3.083   4.610 -1.3862 -0.0966 -1.3336
  212MOL0     H28590   9.833   3.185   4.475 -1.0036 -1.4740 -1.4925
  212MOL0     H28591   9.810   3.106   4.618 -1.9936  0.0852  1.2073
  212MOL0     H28592   9.850   3.353   4.640  0.6036 -3.5160  2.6123
  212MOL0     H28593   9.722   3.296   4.739 -1.4091  1.3726  0.4395
  212MOL0     H28594   9.568   3.414   4.593 -0.5764  0.5017 -1.2461
  212MOL0     H28595   9.717   3.519   4.625  2.6350  0.0373 -2.8188
  212MOL0     H28596   9.602   3.519   4.391  0.0329 -1.0843 -2.1354
  212MOL0     H28597   9.691   3.367   4.369  0.6954  0.6855 -0.4470
  212MOL0     H28598   9.807   3.588   4.307  1.5007  0.6061  0.6948
  212MOL0     H28599   9.814   3.615   4.485 -0.6369  0.2029 -0.0710
  212MOL0     H28600   9.258   2.795   4.308 -2.7391 -0.0204 -0.8859
  212MOL0     H28601   9.081   2.662   4.344 -0.0525  0.8596  0.6608
  212MOL0     H28602   8.753   2.479   4.504  1.8041 -1.4099  0.0831
  212MOL0     H28603   8.523   2.390   4.547  0.8588  0.0978 -0.3712
  212MOL0     H28604   8.299   1.904   4.128 -1.0589 -1.8405  1.3601
  212MOL0     H28605   8.508   1.809   4.225  2.2423  0.1994  0.5671
  212MOL0     H28606   8.836   1.741   4.385  2.4611 -1.9323 -2.6305
  212MOL0     H28607   9.030   1.609   4.482  0.5148 -0.3275 -0.6243
  212MOL0     H28608   9.212   1.763   4.850 -0.0389 -1.5920 -0.5358
  212MOL0     H28609   9.332   1.820   4.743 -0.4169  2.0269  3.4085
  212MOL0     H28610   9.430   1.581   4.730  0.0731  0.0594  0.6915
  212MOL0     H28611   9.324   1.545   4.874 -2.0080 -1.4963 -3.0827
  212MOL0     H28612   9.538   1.600   4.964 -0.9891  0.6021  1.1704
  212MOL0     H28613   9.434   1.722   5.009 -0.1979  2.5957 -1.2064
  212MOL0     H28614   9.674   1.781   4.885  0.7195  1.9298  1.1293
  212MOL0     H28615   9.563   1.782   4.749  1.7447 -0.7125  0.3173
  212MOL0     H28616   9.415   2.129   4.943 -0.3723 -0.6877 -0.5112
  212MOL0     H28617   9.154   1.959   4.696 -0.1696  1.2289 -0.3823
  212MOL0     H28618   8.877   2.168   4.596 -0.6879 -0.7241 -0.1102
  212MOL0     H28619   9.008   2.143   4.704 -1.2277  3.6991 -0.0724
  212MOL0     H28620   9.048   2.188   4.540  0.0151  0.7231  2.1375
  213MOL0     O28621   5.151  10.074   1.487  0.0411  0.6659  0.4081
  213MOL0     C28622   5.132   9.962   1.532  0.0731  0.3022 -0.2561
  213MOL0     O28623   5.234   9.866   1.543 -0.4312  0.1912  0.0203
  213MOL0     C28624   5.358   9.901   1.490  0.3213  0.0587 -0.0480
  213MOL0     C28625   5.403   9.824   1.383  0.2524 -0.2623 -0.7613
  213MOL0     C28626   5.523   9.863   1.325  1.4167  0.7310  1.1565
  213MOL0     C28627   5.600   9.965   1.375  0.1122  0.5081 -0.0459
  213MOL0     O28628   5.719   9.985   1.309  0.1216 -0.3445 -0.2982
  213MOL0     C28629   5.749  10.122   1.293  0.0616 -0.8945 -0.1353
  213MOL0     C28630   5.844  10.145   1.179  1.1299 -0.4968 -0.2943
  213MOL0     C28631   5.868  10.296   1.156  0.7281 -0.0222 -0.1506
  213MOL0     C28632   5.778  10.361   1.048 -0.2116 -0.0153 -0.3210
  213MOL0     C28633   5.749  10.506   1.090 -0.5120  0.2323 -0.5310
  213MOL0     C28634   5.655  10.586   0.989  0.9951  0.8365 -1.1055
  213MOL0     C28635   5.736  10.601   0.863 -0.5687  0.5558  0.9630
  213MOL0     C28636   5.659  10.704   0.776 -1.0349 -0.3156 -0.5747
  213MOL0     N28637   5.742  10.734   0.654  0.5832  0.4281  0.4233
  213MOL0     C28638   5.836  10.836   0.648  0.3354  0.3751 -0.7349
  213MOL0     C28639   5.889  10.824   0.522 -0.3107  0.4146 -0.4651
  213MOL0     C28640   6.013  10.894   0.469 -0.1591  0.3398 -0.2014
  213MOL0     C28641   6.137  10.830   0.521 -0.2909 -0.4208 -1.1013
  213MOL0     C28642   6.264  10.877   0.449  0.5194  0.1839  0.4841
  213MOL0     C28643   6.317  10.997   0.524  0.1739  1.0412 -0.2363
  213MOL0     O28644   6.416  11.066   0.448 -0.6760  0.1876 -0.6082
  213MOL0     C28645   6.517  11.144   0.502 -0.0649  0.6873 -0.4165
  213MOL0     C28646   6.494  11.215   0.619  0.1228 -0.5149  0.3683
  213MOL0     C28647   6.590  11.318   0.659 -0.7235  0.3305 -0.1850
  213MOL0     C28648   6.716  11.317   0.607  1.0680 -0.8345  0.1500
  213MOL0     C28649   6.815  11.414   0.657 -0.3495  0.2589 -0.2907
  213MOL0     O28650   6.780  11.488   0.766  0.4146  0.1083 -0.6803
  213MOL0     C28651   6.859  11.600   0.798  0.0024 -0.9151  0.1676
  213MOL0     C28652   6.856  11.714   0.722 -0.2145  0.2821 -0.0439
  213MOL0     C28653   6.914  11.824   0.766  0.6716 -0.4978 -0.9036
  213MOL0     C28654   6.975  11.840   0.887 -1.1083  0.3240  0.7487
  213MOL0     O28655   7.009  11.971   0.916 -0.1179 -0.4194 -0.4457
  213MOL0     C28656   7.096  11.997   1.029  0.3913 -0.3816 -0.4650
  213MOL0     C28657   7.227  11.925   1.030  0.2332  0.2925  0.4793
  213MOL0     C28658   7.343  12.003   1.089  0.3643 -0.6112  0.1149
  213MOL0     C28659   7.331  11.990   1.242 -0.1227 -0.7432  0.5623
  213MOL0     C28660   7.458  12.058   1.302  0.2247 -0.2501  0.6772
  213MOL0     C28661   7.464  12.036   1.452 -0.5991  0.4415 -0.8132
  213MOL0     C28662   7.584  12.105   1.510 -0.4794  0.2660  1.4956
  213MOL0     C28663   7.572  12.085   1.658  0.2086 -0.1620 -0.8728
  213MOL0    Cl28664   7.413  12.119   1.733  0.2487 -0.3428  0.5205
  213MOL0     C28665   6.993  11.721   0.970  0.2488 -0.1101 -0.1475
  213MOL0     C28666   6.934  11.602   0.916 -0.0967 -0.4226 -0.5397
  213MOL0     O28667   6.926  11.421   0.600  0.2030  0.4050  0.1329
  213MOL0     C28668   6.743  11.231   0.502  0.0389  0.5190 -0.7583
  213MOL0     C28669   6.643  11.147   0.447 -0.1331 -0.8846  0.6772
  213MOL0     N28670   5.824  10.715   0.462 -0.1920  0.3750 -0.1940
  213MOL0     N28671   5.731  10.669   0.537  0.3655  0.1111 -0.2346
  213MOL0     C28672   5.542  10.043   1.479 -0.4963 -0.8765  0.0999
  213MOL0     C28673   5.424  10.011   1.540  0.2230 -0.5122  0.1672
  213MOL0     C28674   5.002   9.919   1.593 -0.3061 -1.2809  0.6139
  213MOL0     C28675   4.991   9.796   1.652 -0.5873  0.4214 -0.3589
  213MOL0     C28676   4.875   9.735   1.699  0.0040  0.0484  0.5695
  213MOL0     C28677   4.761   9.805   1.689 -0.1992  0.9220  1.2862
  213MOL0     O28678   4.645   9.752   1.741 -0.3810 -0.1797  0.6509
  213MOL0     C28679   4.633   9.643   1.834  0.3517 -0.0111  0.2099
  213MOL0     C28680   4.696   9.666   1.966 -0.5212  0.0279  0.1565
  213MOL0     C28681   4.605   9.621   2.076  0.4331 -0.6195  0.1233
  213MOL0     C28682   4.663   9.669   2.209  0.0762  0.2498  0.2350
  213MOL0     C28683   4.641   9.811   2.231  0.2340  0.3454 -0.5277
  213MOL0     C28684   4.642   9.928   2.217 -0.5311 -0.0322  0.1320
  213MOL0     C28685   4.762   9.940   1.640  0.5062 -0.2204 -0.7610
  213MOL0     C28686   4.875   9.986   1.579  0.4518 -0.5597  0.1603
  213MOL0     C28687   4.866  10.120   1.517  0.7551  0.1144 -0.2525
  213MOL0     H28688   5.353   9.735   1.344 -3.2321  1.6064 -0.9655
  213MOL0     H28689   5.563   9.800   1.246 -1.9002 -0.7371  0.4514
  213MOL0     H28690   5.658  10.181   1.281  0.8571  0.3036 -0.4835
  213MOL0     H28691   5.796  10.158   1.385 -1.9554  0.9305  0.2631
  213MOL0     H28692   5.801  10.089   1.096  0.2616 -0.2010 -0.0616
  213MOL0     H28693   5.944  10.105   1.198  1.3025 -0.8840 -1.8660
  213MOL0     H28694   5.959  10.308   1.098 -0.1757  0.8451 -1.4551
  213MOL0     H28695   5.874  10.352   1.250  3.2366 -2.9163  1.5811
  213MOL0     H28696   5.831  10.364   0.952  4.1786 -1.3963  1.7931
  213MOL0     H28697   5.684  10.306   1.038 -1.5482  2.3374 -1.7753
  213MOL0     H28698   5.701  10.514   1.188 -2.6338  2.5926 -1.6457
  213MOL0     H28699   5.845  10.559   1.090  0.2709 -1.0383 -2.8897
  213MOL0     H28700   5.561  10.534   0.966 -0.8052  4.5643 -3.0798
  213MOL0     H28701   5.634  10.681   1.039 -3.6083 -1.0519  1.1985
  213MOL0     H28702   5.739  10.506   0.809  1.5919 -0.0009  1.9417
  213MOL0     H28703   5.841  10.628   0.876 -0.0388 -0.8198 -0.2517
  213MOL0     H28704   5.569  10.651   0.741 -0.5504 -1.9951  0.5952
  213MOL0     H28705   5.629  10.795   0.829 -1.0149 -1.0747  0.7590
  213MOL0     H28706   5.855  10.902   0.731 -0.4377  0.3794 -0.5572
  213MOL0     H28707   6.013  10.890   0.360 -1.9642  3.9458 -0.5018
  213MOL0     H28708   6.024  10.998   0.502  2.9094  1.2619 -3.5497
  213MOL0     H28709   6.148  10.862   0.625 -3.1147 -0.2004 -0.7901
  213MOL0     H28710   6.114  10.724   0.520 -2.6551  0.0193  0.1013
  213MOL0     H28711   6.245  10.892   0.342  2.4972  0.0345  0.0869
  213MOL0     H28712   6.336  10.795   0.454 -2.0573 -2.1803  3.2732
  213MOL0     H28713   6.353  10.961   0.621 -1.7678 -1.7887 -0.4607
  213MOL0     H28714   6.229  11.059   0.546 -1.3700 -1.5862  1.4773
  213MOL0     H28715   6.402  11.198   0.674  1.7665 -0.8806  3.2391
  213MOL0     H28716   6.556  11.382   0.740 -1.2406  1.1384 -1.0176
  213MOL0     H28717   6.790  11.711   0.635 -0.5534  3.7228 -0.0625
  213MOL0     H28718   6.911  11.914   0.704 -0.7402  0.4442  0.4846
  213MOL0     H28719   7.097  12.106   1.028 -2.9294 -0.2227  0.6406
  213MOL0     H28720   7.047  11.976   1.124  0.9137  3.5436  0.8333
  213MOL0     H28721   7.226  11.835   1.092 -2.3221 -1.2181 -1.5093
  213MOL0     H28722   7.257  11.893   0.930  1.9858  0.7740  0.8303
  213MOL0     H28723   7.440  11.961   1.060  2.4320  3.5874  0.1669
  213MOL0     H28724   7.348  12.107   1.055  2.2332 -1.2745 -1.8310
  213MOL0     H28725   7.324  11.888   1.281  2.1762 -1.2693 -0.2452
  213MOL0     H28726   7.244  12.047   1.275  0.3086  1.2454 -1.4688
  213MOL0     H28727   7.447  12.166   1.287  0.3979 -0.3763 -0.4678
  213MOL0     H28728   7.552  12.023   1.260 -0.1341 -0.4716  0.0422
  213MOL0     H28729   7.373  12.072   1.500  0.2482 -1.0476  2.1734
  213MOL0     H28730   7.469  11.929   1.478  1.0670  1.3547  3.4175
  213MOL0     H28731   7.574  12.211   1.485 -2.3471 -0.7415 -3.0158
  213MOL0     H28732   7.683  12.072   1.476  0.4735  4.3127 -0.3220
  213MOL0     H28733   7.590  11.981   1.687 -1.9890 -0.0571  1.1396
  213MOL0     H28734   7.655  12.137   1.706 -1.0545  0.6901  0.4358
  213MOL0     H28735   7.038  11.717   1.069  1.8065  1.1332 -0.7626
  213MOL0     H28736   6.943  11.507   0.968  4.5676 -1.8278 -3.2909
  213MOL0     H28737   6.837  11.211   0.451  0.8666 -0.5819  1.1094
  213MOL0     H28738   6.667  11.079   0.366 -0.8628 -2.9243  2.0879
  213MOL0     H28739   5.590  10.132   1.519 -0.5262  1.2577 -4.0824
  213MOL0     H28740   5.386  10.082   1.613  4.0364  4.2409 -1.8646
  213MOL0     H28741   5.074   9.726   1.648 -0.3826  0.7068 -1.4272
  213MOL0     H28742   4.869   9.631   1.732 -0.8088 -0.3404 -0.7278
  213MOL0     H28743   4.677   9.555   1.786  0.0874 -0.3534  0.5788
  213MOL0     H28744   4.526   9.625   1.849  0.1400  0.7082 -0.3681
  213MOL0     H28745   4.733   9.769   1.979  2.1069 -0.8369  0.1139
  213MOL0     H28746   4.782   9.599   1.958  0.0907  0.9457 -1.5268
  213MOL0     H28747   4.593   9.513   2.071  0.4426 -0.5587 -2.6276
  213MOL0     H28748   4.512   9.671   2.049  1.0761 -0.4129 -1.9331
  213MOL0     H28749   4.623   9.605   2.289 -0.2657  0.1335 -0.0236
  213MOL0     H28750   4.772   9.664   2.198 -0.0202  0.7855 -1.0339
  213MOL0     H28751   4.638  10.035   2.210 -1.9154  0.0548  1.6614
  213MOL0     H28752   4.667   9.990   1.627  0.9244  0.4793 -1.2036
  213MOL0     H28753   4.921  10.111   1.423  1.4486  0.5857  0.1071
  213MOL0     H28754   4.763  10.152   1.498  0.9518 -0.6239 -2.9229
  213MOL0     H28755   4.926  10.183   1.583  0.6048  0.2181 -0.2124
  214MOL0     O28756   2.077   2.689   7.251  0.0405  0.2921  0.6141
  214MOL0     C28757   2.198   2.706   7.249  0.6368 -0.4259  0.1271
  214MOL0     O28758   2.291   2.602   7.271  0.2996  0.3678 -0.2221
  214MOL0     C28759   2.237   2.487   7.313  0.5384  0.4178 -0.4550
  214MOL0     C28760   2.297   2.445   7.437 -0.0601  0.1333  0.8256
  214MOL0     C28761   2.267   2.319   7.483 -0.6287 -0.3743 -0.3103
  214MOL0     C28762   2.176   2.236   7.415  0.3733  0.5156 -1.0462
  214MOL0     O28763   2.150   2.110   7.457 -0.2515  0.3458  0.2357
  214MOL0     C28764   2.202   2.055   7.581  0.0963 -0.0082 -0.5704
  214MOL0     C28765   2.157   1.915   7.617  0.2290  0.7214  0.2129
  214MOL0     C28766   2.205   1.809   7.517  0.2569 -0.7110  0.5063
  214MOL0     C28767   2.199   1.663   7.560  1.0348 -0.0794 -0.9073
  214MOL0     C28768   2.331   1.613   7.641  1.1393  0.1037 -0.5114
  214MOL0     C28769   2.316   1.479   7.727 -0.3081  0.3712 -0.3162
  214MOL0     C28770   2.239   1.508   7.856 -0.1103  0.8783 -0.2480
  214MOL0     C28771   2.289   1.400   7.962 -0.2556  0.3225 -1.3880
  214MOL0     N28772   2.417   1.444   8.024 -0.1761  0.1696 -0.3424
  214MOL0     C28773   2.538   1.399   7.997 -0.5415 -0.8232  0.1881
  214MOL0     C28774   2.621   1.480   8.077  0.0250 -0.2592  0.4944
  214MOL0     C28775   2.772   1.468   8.077  1.3540  0.6304 -0.9169
  214MOL0     C28776   2.838   1.526   7.952  0.1162 -0.6536 -0.6322
  214MOL0     C28777   2.982   1.476   7.957  0.1260 -0.1178  0.2736
  214MOL0     C28778   3.074   1.557   8.052  0.1957  0.2708  0.1185
  214MOL0     O28779   3.114   1.685   7.995 -0.5594 -0.5635 -0.7680
  214MOL0     C28780   3.201   1.764   8.070  0.3152 -0.2879  0.8081
  214MOL0     C28781   3.189   1.777   8.207 -0.3162 -0.1784  0.6081
  214MOL0     C28782   3.273   1.861   8.274  0.0940 -0.6497 -0.5798
  214MOL0     C28783   3.371   1.937   8.212 -0.4073 -1.0304  1.0189
  214MOL0     C28784   3.460   2.033   8.292  0.0160 -0.5238 -0.3202
  214MOL0     O28785   3.560   2.102   8.220 -0.1208  0.2784 -0.0278
  214MOL0     C28786   3.651   2.183   8.292  0.0042 -0.6637  0.7594
  214MOL0     C28787   3.710   2.157   8.416 -0.1726  0.5497  0.5171
  214MOL0     C28788   3.829   2.220   8.455  0.8210  0.3276  0.4275
  214MOL0     C28789   3.877   2.336   8.385  0.9533 -0.4325 -0.3324
  214MOL0     O28790   3.974   2.404   8.436 -0.1475  0.6129  0.2913
  214MOL0     C28791   3.987   2.542   8.397 -0.6299  0.2817 -0.1806
  214MOL0     C28792   4.096   2.612   8.481 -0.1828 -0.1546  0.0590
  214MOL0     C28793   4.045   2.647   8.626  0.4555  0.0071  0.7784
  214MOL0     C28794   4.031   2.529   8.721 -0.3638  0.4466 -0.7680
  214MOL0     C28795   4.018   2.565   8.876  0.2103  0.9953 -0.0504
  214MOL0     C28796   4.025   2.437   8.956 -0.1890 -0.8309  0.2533
  214MOL0     C28797   4.007   2.454   9.115  0.4682 -0.2675  0.0945
  214MOL0     C28798   4.143   2.451   9.182  0.4727  0.8073  0.1787
  214MOL0    Cl28799   4.209   2.600   9.200 -0.0036 -0.1602  0.4084
  214MOL0     C28800   3.808   2.374   8.264  0.3457  0.1474  0.6533
  214MOL0     C28801   3.705   2.286   8.213 -0.1710 -0.3281  0.1252
  214MOL0     O28802   3.433   2.048   8.415 -0.0222  0.2245 -0.0162
  214MOL0     C28803   3.382   1.920   8.065  0.9082 -0.4882  0.4035
  214MOL0     C28804   3.298   1.837   7.992  0.0320 -0.5573  0.3939
  214MOL0     N28805   2.549   1.574   8.140  0.7638  0.0343 -0.6771
  214MOL0     N28806   2.423   1.557   8.101 -0.4766  0.9267 -0.1543
  214MOL0     C28807   2.112   2.274   7.297 -0.9811  0.1000 -1.0266
  214MOL0     C28808   2.153   2.402   7.249  0.5618  0.3703  0.8684
  214MOL0     C28809   2.252   2.840   7.208 -0.1009 -0.3793  0.1888
  214MOL0     C28810   2.385   2.854   7.169  0.1396 -0.6789  0.1973
  214MOL0     C28811   2.447   2.978   7.143 -0.1119 -0.1825  1.1172
  214MOL0     C28812   2.385   3.099   7.137  0.9611  0.9361 -0.1123
  214MOL0     O28813   2.454   3.209   7.106 -0.3855 -0.3967  0.0706
  214MOL0     C28814   2.375   3.333   7.094 -0.9913 -0.1300 -0.3889
  214MOL0     C28815   2.464   3.458   7.082 -0.4800  0.3743  0.6149
  214MOL0     C28816   2.551   3.477   7.215 -0.1831  0.0870 -0.2681
  214MOL0     C28817   2.485   3.488   7.346 -0.9259  0.4691 -0.9824
  214MOL0     C28818   2.390   3.603   7.347 -0.1170  0.4545 -0.6393
  214MOL0     C28819   2.325   3.697   7.337  0.5284 -0.5096 -1.0229
  214MOL0     C28820   2.254   3.083   7.187  0.4924 -0.3442  0.4966
  214MOL0     C28821   2.184   2.961   7.223 -0.2743 -0.2806 -0.1587
  214MOL0     C28822   2.039   2.968   7.276 -0.7163  0.0619  0.0375
  214MOL0     H28823   2.361   2.521   7.481  0.2712  1.5911 -1.9571
  214MOL0     H28824   2.310   2.297   7.580 -1.3966 -0.5143  0.0057
  214MOL0     H28825   2.312   2.053   7.582  0.2114  2.3352 -1.6927
  214MOL0     H28826   2.181   2.130   7.659  2.5427  0.5605 -0.3605
  214MOL0     H28827   2.048   1.915   7.617  0.2166 -0.1090 -0.2176
  214MOL0     H28828   2.200   1.905   7.717 -0.1998  2.2072  0.5668
  214MOL0     H28829   2.306   1.833   7.484 -0.4423 -0.4525 -1.6070
  214MOL0     H28830   2.156   1.816   7.419  2.1125 -0.6589 -0.4516
  214MOL0     H28831   2.118   1.663   7.633  1.8770  3.5897  0.2225
  214MOL0     H28832   2.166   1.601   7.476  0.4411  1.6173 -1.9696
  214MOL0     H28833   2.398   1.594   7.556  0.5680 -3.3913 -0.3172
  214MOL0     H28834   2.377   1.694   7.699  2.3880  0.0743 -1.4190
  214MOL0     H28835   2.270   1.392   7.680  1.8115 -3.7323  4.4200
  214MOL0     H28836   2.419   1.451   7.748 -0.2824 -0.3245 -1.2774
  214MOL0     H28837   2.136   1.490   7.825 -0.1357  1.6265 -0.6086
  214MOL0     H28838   2.250   1.607   7.902 -0.1469  0.2335  1.2034
  214MOL0     H28839   2.213   1.405   8.041  0.9711 -2.3547  0.0739
  214MOL0     H28840   2.294   1.293   7.938  3.1557 -0.5289  2.1069
  214MOL0     H28841   2.571   1.310   7.945 -2.1966 -0.4508 -1.6477
  214MOL0     H28842   2.804   1.513   8.171 -3.1089  2.6557 -0.0857
  214MOL0     H28843   2.796   1.361   8.088  0.5637  0.6783  2.0515
  214MOL0     H28844   2.794   1.469   7.869  3.1031 -3.6499 -0.3790
  214MOL0     H28845   2.834   1.635   7.946  1.5502 -0.3467  2.1905
  214MOL0     H28846   3.024   1.512   7.862  1.6390 -1.8620  0.2327
  214MOL0     H28847   2.987   1.367   7.963 -2.8366 -0.4953 -1.8314
  214MOL0     H28848   3.167   1.503   8.074  0.1712  0.5123  0.8505
  214MOL0     H28849   3.036   1.550   8.155  2.8386 -1.9570  1.0711
  214MOL0     H28850   3.110   1.730   8.264 -0.9483  3.0321  2.6090
  214MOL0     H28851   3.248   1.865   8.380  0.4157  0.5004 -0.5291
  214MOL0     H28852   3.680   2.062   8.458  0.7010 -0.4928 -1.0992
  214MOL0     H28853   3.877   2.185   8.546  0.3752 -1.2157  0.0909
  214MOL0     H28854   4.030   2.536   8.296  6.9944 -0.0838  2.4222
  214MOL0     H28855   3.900   2.608   8.406 -1.2326 -0.7169  1.9106
  214MOL0     H28856   4.185   2.550   8.497 -0.5340 -1.6247 -3.0060
  214MOL0     H28857   4.121   2.699   8.420 -1.0829 -0.6700 -1.0785
  214MOL0     H28858   4.126   2.710   8.662  1.6960 -0.0406 -1.7285
  214MOL0     H28859   3.955   2.710   8.621  0.2655 -0.2142  1.3389
  214MOL0     H28860   4.112   2.456   8.709 -1.6882 -1.1365 -0.4239
  214MOL0     H28861   3.943   2.477   8.682 -0.3547  1.3933 -2.1579
  214MOL0     H28862   3.925   2.617   8.899 -0.1603  1.7537 -2.8758
  214MOL0     H28863   4.099   2.628   8.913 -0.2919  0.2731  2.4250
  214MOL0     H28864   3.947   2.372   8.915 -0.5053  0.8952 -2.1166
  214MOL0     H28865   4.121   2.394   8.927  0.8502  2.4245 -1.5674
  214MOL0     H28866   3.942   2.374   9.152 -0.6858  0.2683 -0.7174
  214MOL0     H28867   3.966   2.549   9.150  0.2922 -0.0965 -0.5579
  214MOL0     H28868   4.126   2.407   9.280 -0.6415  2.1025  0.5848
  214MOL0     H28869   4.207   2.388   9.119 -0.9027 -2.2754  1.6398
  214MOL0     H28870   3.838   2.462   8.209 -1.2066 -0.0917 -0.6681
  214MOL0     H28871   3.672   2.317   8.114  0.9057  1.6286  0.3318
  214MOL0     H28872   3.466   1.970   8.019  1.6206 -0.3844  1.7623
  214MOL0     H28873   3.315   1.833   7.885 -0.3123  1.3750  0.2297
  214MOL0     H28874   2.034   2.229   7.237 -0.2688  1.8275 -3.3913
  214MOL0     H28875   2.114   2.441   7.156  2.5753  0.9628  0.2073
  214MOL0     H28876   2.441   2.762   7.151 -1.7904 -1.4725 -2.3168
  214MOL0     H28877   2.547   2.968   7.103 -1.4733  1.0951 -3.2554
  214MOL0     H28878   2.311   3.351   7.181 -0.1302  0.0470  0.2165
  214MOL0     H28879   2.299   3.340   7.016 -2.3336 -0.2781  0.8647
  214MOL0     H28880   2.405   3.550   7.076 -0.2091  0.4321 -2.1338
  214MOL0     H28881   2.517   3.456   6.986  0.4563  3.7094  0.9267
  214MOL0     H28882   2.616   3.564   7.203  0.8224 -0.4645  0.8443
  214MOL0     H28883   2.608   3.384   7.226 -0.0837  0.4227  3.8192
  214MOL0     H28884   2.432   3.398   7.379  1.2131 -0.9051 -1.1253
  214MOL0     H28885   2.561   3.488   7.425 -0.6785 -4.3273 -0.8875
  214MOL0     H28886   2.268   3.787   7.325 -0.0634 -0.2417  2.5748
  214MOL0     H28887   2.201   3.178   7.193  4.9455  2.6063 -1.8282
  214MOL0     H28888   2.025   2.893   7.355  0.2953 -0.6786 -0.4703
  214MOL0     H28889   2.024   3.067   7.319  2.7771  1.1689 -0.9932
  214MOL0     H28890   1.965   2.951   7.197 -1.1107 -2.1668  0.7925
  215MOL0     O28891   7.948   6.549   8.056  0.7409  0.0543 -0.5359
  215MOL0     C28892   7.952   6.524   7.939 -0.3624  1.1731  0.6961
  215MOL0     O28893   8.001   6.403   7.892  0.1288 -0.6522  0.2680
  215MOL0     C28894   8.046   6.315   7.982 -0.1324  0.0160 -0.3740
  215MOL0     C28895   7.958   6.213   8.027 -0.8101  2.2000 -0.2241
  215MOL0     C28896   7.995   6.120   8.115 -0.7481  1.1611 -0.2873
  215MOL0     C28897   8.131   6.110   8.158 -0.2016 -0.9166  0.2498
  215MOL0     O28898   8.165   6.009   8.247 -0.3460 -0.0431 -0.3133
  215MOL0     C28899   8.300   5.996   8.299  0.1045  0.0850  0.3336
  215MOL0     C28900   8.288   5.894   8.404 -0.5109 -0.2183  0.5575
  215MOL0     C28901   8.424   5.831   8.421 -0.5197  0.5982 -0.6857
  215MOL0     C28902   8.411   5.714   8.525 -0.3786 -0.0119 -0.5936
  215MOL0     C28903   8.539   5.634   8.554  0.6817  0.2262  0.3613
  215MOL0     C28904   8.508   5.541   8.670  0.2897  0.1434  0.6760
  215MOL0     C28905   8.629   5.458   8.700 -0.6341 -1.3984  0.0485
  215MOL0     C28906   8.614   5.363   8.829 -0.4769 -0.5570  0.5948
  215MOL0     N28907   8.751   5.342   8.888 -0.5476 -0.4386 -0.6235
  215MOL0     C28908   8.835   5.244   8.847  0.0175  0.1979 -0.6334
  215MOL0     C28909   8.932   5.237   8.945 -0.3034 -1.2856 -1.0176
  215MOL0     C28910   9.039   5.133   8.961  0.0363 -0.1575 -0.2851
  215MOL0     C28911   8.989   4.988   8.941  0.0051  0.1568  0.1473
  215MOL0     C28912   8.874   4.941   9.035  0.3328  0.1636  0.6312
  215MOL0     C28913   8.893   4.970   9.188  0.0716 -0.4778 -0.6235
  215MOL0     O28914   8.783   4.910   9.264  0.0259  0.0130 -0.1952
  215MOL0     C28915   8.660   4.971   9.257 -0.0101 -0.6090  0.1310
  215MOL0     C28916   8.553   4.898   9.310 -0.0989  0.1593  0.5076
  215MOL0     C28917   8.422   4.941   9.298  0.3921 -0.1207  0.8501
  215MOL0     C28918   8.395   5.061   9.232  0.7056  1.0931 -0.7087
  215MOL0     C28919   8.262   5.116   9.238  0.2498  0.6044  0.4094
  215MOL0     O28920   8.241   5.236   9.178 -0.0238 -0.6015 -0.7036
  215MOL0     C28921   8.122   5.300   9.204 -0.3968 -0.1689 -0.5320
  215MOL0     C28922   8.022   5.283   9.112 -0.1709 -1.0688  0.1820
  215MOL0     C28923   7.892   5.329   9.126 -0.5087 -0.7951 -0.3063
  215MOL0     C28924   7.864   5.408   9.246 -0.4636 -0.0344  0.5567
  215MOL0     O28925   7.742   5.460   9.283  0.0504 -0.8097  0.0612
  215MOL0     C28926   7.623   5.417   9.218 -0.5450  0.6794  0.6556
  215MOL0     C28927   7.585   5.281   9.262  0.2980 -0.2532 -0.8331
  215MOL0     C28928   7.542   5.292   9.406 -0.0176  0.4185 -0.0285
  215MOL0     C28929   7.451   5.169   9.453 -0.1643  0.0383  0.2832
  215MOL0     C28930   7.300   5.203   9.423  0.4216  0.1009  0.1367
  215MOL0     C28931   7.215   5.072   9.386 -0.5856  0.1108 -0.3763
  215MOL0     C28932   7.070   5.096   9.397 -0.0310 -0.5583  0.9872
  215MOL0     C28933   7.022   5.221   9.308  0.1514  0.7480  0.3836
  215MOL0    Cl28934   6.843   5.206   9.266  0.3917  0.1393 -0.1062
  215MOL0     C28935   7.970   5.439   9.332 -0.0083 -0.4831  0.5783
  215MOL0     C28936   8.094   5.380   9.320 -0.2435  0.3177 -0.1060
  215MOL0     O28937   8.174   5.046   9.291  0.1227 -0.1646 -1.2628
  215MOL0     C28938   8.504   5.144   9.185  0.2273 -1.3506 -0.2005
  215MOL0     C28939   8.640   5.091   9.196  0.1052  0.2643  0.4007
  215MOL0     N28940   8.897   5.335   9.048  0.8815  0.2655 -0.0965
  215MOL0     N28941   8.794   5.392   9.004 -0.3862 -0.3213 -0.4775
  215MOL0     C28942   8.221   6.197   8.097  0.1493  0.1644  0.4653
  215MOL0     C28943   8.186   6.296   8.007  0.0586  0.4454 -1.1158
  215MOL0     C28944   7.901   6.616   7.837 -0.2694  0.2896 -0.0897
  215MOL0     C28945   7.859   6.563   7.706  0.7121  0.9026 -0.1189
  215MOL0     C28946   7.809   6.645   7.605 -0.6198  0.1161 -0.1762
  215MOL0     C28947   7.796   6.781   7.629  0.9241 -0.1949 -0.1031
  215MOL0     O28948   7.748   6.856   7.526 -0.6666 -0.4408 -1.2207
  215MOL0     C28949   7.682   6.988   7.556 -0.2236  0.9980  0.4892
  215MOL0     C28950   7.763   7.114   7.520  0.2704  0.2786  1.7018
  215MOL0     C28951   7.825   7.127   7.380  0.8024  0.3132 -0.1119
  215MOL0     C28952   7.739   7.099   7.264 -0.5277 -0.5190 -0.6155
  215MOL0     C28953   7.650   7.220   7.242 -0.2199  0.8007 -0.7701
  215MOL0     C28954   7.590   7.329   7.240  0.8369 -1.2362 -0.5044
  215MOL0     C28955   7.824   6.839   7.752  0.6284  0.4360 -0.0529
  215MOL0     C28956   7.870   6.753   7.857  0.8846 -0.5022  0.4201
  215MOL0     C28957   7.903   6.820   7.984 -0.5757  0.1663  0.2934
  215MOL0     H28958   7.854   6.206   7.996 -0.9677 -2.9014  0.5576
  215MOL0     H28959   7.919   6.062   8.166  0.3436  2.4704  3.1188
  215MOL0     H28960   8.359   5.956   8.217  0.6508 -1.7022  1.5365
  215MOL0     H28961   8.339   6.096   8.320  0.7899 -0.1819  0.3443
  215MOL0     H28962   8.217   5.815   8.376  2.3494 -2.1703 -1.8213
  215MOL0     H28963   8.242   5.942   8.491 -1.2112 -0.9521  0.6034
  215MOL0     H28964   8.504   5.900   8.448 -0.0163  0.1428 -1.0025
  215MOL0     H28965   8.460   5.785   8.329 -0.4444 -2.5735  0.8147
  215MOL0     H28966   8.383   5.760   8.620  1.2962  1.6372 -0.8369
  215MOL0     H28967   8.346   5.638   8.481  0.9527 -0.5329 -1.7727
  215MOL0     H28968   8.566   5.569   8.470 -4.0797 -0.7076 -0.7618
  215MOL0     H28969   8.616   5.708   8.578  3.0399 -2.3302  1.1999
  215MOL0     H28970   8.501   5.603   8.759  3.9825 -0.3420  1.4601
  215MOL0     H28971   8.413   5.487   8.661 -2.8258  4.7585  2.3300
  215MOL0     H28972   8.700   5.537   8.726  0.5976 -1.6217 -2.3333
  215MOL0     H28973   8.655   5.401   8.610  0.7128 -0.9011  0.0979
  215MOL0     H28974   8.546   5.405   8.904  0.9614  0.5972  1.3056
  215MOL0     H28975   8.583   5.261   8.803  1.5931 -1.3278  0.9015
  215MOL0     H28976   8.817   5.169   8.771  1.8192 -1.6442  0.6340
  215MOL0     H28977   9.094   5.158   8.871 -2.0438 -1.3310 -1.9853
  215MOL0     H28978   9.088   5.141   9.059  0.8359  0.2696 -0.7130
  215MOL0     H28979   8.947   4.992   8.840 -0.2280  0.2080  0.2452
  215MOL0     H28980   9.072   4.917   8.945  1.4115  1.5022 -2.6228
  215MOL0     H28981   8.852   4.836   9.018  0.7741  0.5526 -3.0703
  215MOL0     H28982   8.790   4.997   8.993  0.5688 -1.3691 -2.1128
  215MOL0     H28983   8.902   5.077   9.211 -1.1878 -0.6561  0.8646
  215MOL0     H28984   8.985   4.931   9.231  0.6768  2.3624  0.9306
  215MOL0     H28985   8.568   4.803   9.362 -2.1677 -2.6598 -3.4895
  215MOL0     H28986   8.346   4.877   9.341 -1.3432  0.9282 -0.5402
  215MOL0     H28987   8.059   5.243   9.018  0.0841  0.6315 -0.4901
  215MOL0     H28988   7.819   5.310   9.049 -0.0933  3.7603 -2.1754
  215MOL0     H28989   7.539   5.477   9.255 -0.9878 -0.6421  1.8983
  215MOL0     H28990   7.630   5.430   9.110 -2.5430  0.0924  0.4235
  215MOL0     H28991   7.499   5.245   9.207  0.1364 -0.0174 -0.7362
  215MOL0     H28992   7.677   5.222   9.259  0.5667  0.1742 -1.0997
  215MOL0     H28993   7.630   5.293   9.471 -0.6418 -3.5313  1.1814
  215MOL0     H28994   7.490   5.386   9.424 -1.5053 -0.3472 -0.1825
  215MOL0     H28995   7.450   5.157   9.561 -0.4941 -0.7083  0.2005
  215MOL0     H28996   7.480   5.073   9.409 -0.4494  0.0914 -0.0300
  215MOL0     H28997   7.299   5.277   9.342 -1.4442 -0.6304 -0.5540
  215MOL0     H28998   7.252   5.250   9.510  0.0357 -1.6620  0.9061
  215MOL0     H28999   7.234   5.036   9.285 -0.1998 -2.8604  0.6451
  215MOL0     H29000   7.240   4.996   9.460 -2.2339 -0.4595 -0.3658
  215MOL0     H29001   7.052   5.108   9.504  1.7924  1.3444  1.1481
  215MOL0     H29002   7.025   5.005   9.356  2.3075 -1.7201  0.8114
  215MOL0     H29003   7.042   5.314   9.363 -0.3083  1.4226 -0.5709
  215MOL0     H29004   7.082   5.219   9.217  0.9337 -0.3239  0.9031
  215MOL0     H29005   7.933   5.502   9.412 -0.5676 -0.1356  0.0555
  215MOL0     H29006   8.178   5.386   9.388  1.4733  1.1000 -2.1759
  215MOL0     H29007   8.493   5.246   9.150 -1.8629 -0.8873  1.5664
  215MOL0     H29008   8.721   5.145   9.148  1.1020 -1.4492  0.0267
  215MOL0     H29009   8.325   6.191   8.127 -0.6958  1.9799  4.3323
  215MOL0     H29010   8.258   6.360   7.956  3.0914 -1.4112  0.5368
  215MOL0     H29011   7.846   6.456   7.694  0.9185  0.7480  0.9248
  215MOL0     H29012   7.760   6.605   7.517  2.5599 -1.1995 -1.5113
  215MOL0     H29013   7.655   6.983   7.662 -1.3868  0.3996  0.1836
  215MOL0     H29014   7.591   6.989   7.495 -0.9319 -0.4466  1.4692
  215MOL0     H29015   7.834   7.149   7.596  0.9315 -1.0877  1.7381
  215MOL0     H29016   7.691   7.197   7.512 -1.6898 -1.5002 -0.4719
  215MOL0     H29017   7.913   7.062   7.381  1.7076  1.4982  1.3312
  215MOL0     H29018   7.852   7.233   7.382  2.6538 -0.0657  3.6044
  215MOL0     H29019   7.797   7.082   7.173 -0.7989 -1.3523 -0.6394
  215MOL0     H29020   7.674   7.012   7.278 -1.8073  0.1310 -2.1486
  215MOL0     H29021   7.537   7.420   7.222  0.8596 -0.7804  1.4217
  215MOL0     H29022   7.818   6.939   7.793  0.7119 -1.7486  6.4522
  215MOL0     H29023   7.994   6.784   8.035  0.0370  0.0804 -0.8233
  215MOL0     H29024   7.921   6.926   7.965 -3.1799  0.4091 -1.1704
  215MOL0     H29025   7.814   6.815   8.047  0.1558 -1.8146  1.2652
  216MOL0     O29026   3.629  10.603   8.671  0.3089  0.3718  0.6364
  216MOL0     C29027   3.709  10.599   8.577  0.2888 -1.0151  0.2655
  216MOL0     O29028   3.778  10.487   8.534 -0.1693  0.6133 -0.5685
  216MOL0     C29029   3.826  10.412   8.644  0.4812 -1.2583 -0.0436
  216MOL0     C29030   3.763  10.285   8.661  0.0902  0.0208 -0.2906
  216MOL0     C29031   3.790  10.220   8.775 -0.0728 -0.0481  0.2332
  216MOL0     C29032   3.894  10.255   8.868  0.1646 -0.2941 -0.7756
  216MOL0     O29033   3.929  10.170   8.970 -0.7390 -0.1502  0.2268
  216MOL0     C29034   3.884  10.040   8.983 -0.3741  0.9309 -0.1904
  216MOL0     C29035   3.952   9.984   9.107 -0.4497  0.0692 -0.8414
  216MOL0     C29036   3.899  10.041   9.245  0.2177  0.1094 -0.4311
  216MOL0     C29037   3.887  10.197   9.269  0.4038  0.7696 -0.8354
  216MOL0     C29038   3.857  10.229   9.415 -0.5576 -0.7686 -0.3354
  216MOL0     C29039   3.978  10.193   9.495 -0.1626  0.1105 -0.1220
  216MOL0     C29040   3.966  10.235   9.641  0.2598 -0.2825  0.3014
  216MOL0     C29041   4.066  10.338   9.666  0.2416 -0.7204  0.8554
  216MOL0     N29042   4.202  10.275   9.693 -0.4346 -0.5290 -0.2938
  216MOL0     C29043   4.265  10.265   9.816 -0.6759 -0.6991 -0.2175
  216MOL0     C29044   4.378  10.203   9.803 -0.6785 -0.3425 -1.0315
  216MOL0     C29045   4.475  10.167   9.912 -0.1430 -0.3750  0.0261
  216MOL0     C29046   4.428  10.051   9.992  0.2028  0.4463  0.0930
  216MOL0     C29047   4.451  10.060  10.149  0.0084  0.6586  0.3883
  216MOL0     C29048   4.425   9.915  10.215 -0.2764 -0.6295  0.3204
  216MOL0     O29049   4.282   9.893  10.201  0.3406 -0.5575 -0.5486
  216MOL0     C29050   4.235   9.842  10.316 -0.2837  0.4987  0.4483
  216MOL0     C29051   4.241   9.914  10.434 -0.7546 -0.1190  0.0823
  216MOL0     C29052   4.197   9.857  10.560 -0.3646 -0.2779  0.2807
  216MOL0     C29053   4.154   9.727  10.562  0.4799  0.5266 -0.8313
  216MOL0     C29054   4.100   9.674  10.688 -1.0273 -0.2080  0.1900
  216MOL0     O29055   4.004   9.577  10.674 -0.1862  0.0538 -0.2979
  216MOL0     C29056   3.932   9.538  10.784 -0.6848  0.5268  0.3234
  216MOL0     C29057   3.827   9.618  10.828 -0.3477  0.9585 -0.3728
  216MOL0     C29058   3.765   9.584  10.950  1.6306  0.4259 -0.2479
  216MOL0     C29059   3.796   9.465  11.020 -0.2141  0.5932 -0.9910
  216MOL0     O29060   3.729   9.459  11.139 -0.1704  0.2691 -0.0417
  216MOL0     C29061   3.732   9.337  11.220  0.0428  0.2506  0.7597
  216MOL0     C29062   3.647   9.360  11.346 -0.1875 -1.1132 -0.0929
  216MOL0     C29063   3.696   9.266  11.457 -0.2701  0.9386 -0.9785
  216MOL0     C29064   3.598   9.272  11.583 -0.1167  0.9370  0.1307
  216MOL0     C29065   3.593   9.131  11.658  0.3609 -0.5906 -0.1466
  216MOL0     C29066   3.476   9.130  11.762  0.7484  0.5931  0.0237
  216MOL0     C29067   3.480   8.997  11.840 -0.5402 -0.5281  0.4913
  216MOL0     C29068   3.369   8.984  11.941  0.2566 -0.4705 -0.5206
  216MOL0    Cl29069   3.364   8.828  12.007  0.2398  0.0932 -0.2259
  216MOL0     C29070   3.897   9.384  10.977 -0.0783  0.1708 -0.3633
  216MOL0     C29071   3.975   9.426  10.862  0.9449 -0.2546 -0.0854
  216MOL0     O29072   4.127   9.725  10.797  0.4610  0.0803 -0.2868
  216MOL0     C29073   4.160   9.652  10.447 -0.0257  0.2986  0.0684
  216MOL0     C29074   4.209   9.711  10.327  0.2749 -0.3511 -0.8058
  216MOL0     N29075   4.383  10.156   9.678  0.2630  0.5872 -0.1371
  216MOL0     N29076   4.275  10.194   9.616 -0.5856 -0.4861 -0.2312
  216MOL0     C29077   3.951  10.384   8.854  0.2289 -0.1416 -1.3251
  216MOL0     C29078   3.908  10.463   8.748 -0.8561  0.5528  1.0670
  216MOL0     C29079   3.706  10.720   8.499 -0.2726 -0.7670  0.2995
  216MOL0     C29080   3.601  10.814   8.524  0.0177 -0.9884  0.4722
  216MOL0     C29081   3.596  10.938   8.463 -0.5808  0.1973  0.6040
  216MOL0     C29082   3.692  10.976   8.367  0.3980 -0.6514 -0.1223
  216MOL0     O29083   3.679  11.096   8.303 -0.0491 -0.3048 -0.7480
  216MOL0     C29084   3.771  11.129   8.197 -0.2816  0.4651  0.4904
  216MOL0     C29085   3.746  11.265   8.146 -0.3349 -0.9395  0.1793
  216MOL0     C29086   3.746  11.376   8.257 -0.4585  0.4757  0.0437
  216MOL0     C29087   3.720  11.496   8.159 -0.4782 -0.5449 -0.4495
  216MOL0     C29088   3.708  11.621   8.238  0.4360  0.9029  0.0148
  216MOL0     C29089   3.702  11.719   8.308  0.1513 -0.3823 -0.2744
  216MOL0     C29090   3.791  10.878   8.336  0.1588  0.2900  0.5129
  216MOL0     C29091   3.800  10.755   8.399  0.2045 -0.0915 -0.5696
  216MOL0     C29092   3.909  10.661   8.363 -0.3519  0.6832 -0.8937
  216MOL0     H29093   3.691  10.245   8.592 -1.3923  2.8345 -0.5470
  216MOL0     H29094   3.745  10.122   8.787  1.8753 -1.1896 -1.0775
  216MOL0     H29095   3.776  10.036   9.001 -0.0267 -1.9653  1.9600
  216MOL0     H29096   3.893   9.984   8.890 -1.9246 -0.2478  0.3251
  216MOL0     H29097   4.060   9.998   9.103 -0.1988  0.5298  3.3751
  216MOL0     H29098   3.954   9.876   9.118 -1.7723  0.2742  2.6106
  216MOL0     H29099   3.969   9.999   9.317  0.2768  1.9975  0.6679
  216MOL0     H29100   3.801   9.997   9.264 -0.3386  1.4122 -0.1887
  216MOL0     H29101   3.983  10.240   9.240  1.7447  0.1452  2.3268
  216MOL0     H29102   3.818  10.247   9.199  0.9767  1.2114 -1.0941
  216MOL0     H29103   3.843  10.337   9.424 -2.0391 -0.9144 -0.5440
  216MOL0     H29104   3.778  10.172   9.465  1.2334 -2.8745  0.2312
  216MOL0     H29105   3.994  10.085   9.505  0.1480  0.3657  4.5381
  216MOL0     H29106   4.068  10.241   9.455 -0.0438  1.8610  2.0165
  216MOL0     H29107   3.989  10.144   9.698 -0.3869 -1.9836 -1.9723
  216MOL0     H29108   3.864  10.259   9.671  0.2568 -1.3238  1.1847
  216MOL0     H29109   4.067  10.416   9.590 -2.7572 -1.2534  0.1378
  216MOL0     H29110   4.042  10.398   9.755  0.9074  2.2355 -0.8366
  216MOL0     H29111   4.238  10.310   9.911  0.5200  0.8922 -0.5792
  216MOL0     H29112   4.569  10.128   9.871 -0.1938 -0.8867  0.3824
  216MOL0     H29113   4.494  10.249   9.982 -0.1576 -1.6964  1.6639
  216MOL0     H29114   4.324  10.025   9.974  0.2324  1.4389 -1.7037
  216MOL0     H29115   4.485   9.961   9.966 -0.8283 -0.3067  0.4152
  216MOL0     H29116   4.384  10.136  10.190 -4.2931 -0.7464 -3.2595
  216MOL0     H29117   4.553  10.097  10.160  0.6692 -0.6619 -0.9638
  216MOL0     H29118   4.469   9.913  10.315  1.0651 -0.1680 -0.2367
  216MOL0     H29119   4.482   9.842  10.157  0.7587  0.7381 -0.4399
  216MOL0     H29120   4.252  10.022  10.425 -4.3147  0.5085  1.7383
  216MOL0     H29121   4.192   9.930  10.640  1.1658  0.3580 -0.1720
  216MOL0     H29122   3.802   9.700  10.763  2.2496  0.3072 -2.3887
  216MOL0     H29123   3.687   9.652  10.983 -1.0990 -0.1987 -4.5846
  216MOL0     H29124   3.682   9.254  11.170  0.9820  0.1114  0.0168
  216MOL0     H29125   3.833   9.301  11.244  0.3861  0.0729 -0.8548
  216MOL0     H29126   3.673   9.462  11.377 -2.5233 -0.8713  1.2848
  216MOL0     H29127   3.541   9.347  11.324 -0.1828 -1.2563 -0.0293
  216MOL0     H29128   3.703   9.166  11.414 -3.5603 -0.7565  1.8884
  216MOL0     H29129   3.797   9.285  11.493 -1.7406  1.6696  3.3367
  216MOL0     H29130   3.498   9.303  11.551 -1.7051 -1.2897  2.5074
  216MOL0     H29131   3.626   9.350  11.654 -0.5144  0.6053  0.6584
  216MOL0     H29132   3.687   9.106  11.709  0.5732 -2.9143 -1.5254
  216MOL0     H29133   3.584   9.051  11.583  0.6536 -3.6323  2.7897
  216MOL0     H29134   3.486   9.221  11.822  1.0832  2.9617 -3.3145
  216MOL0     H29135   3.384   9.138  11.704  2.2596  0.5935 -2.5274
  216MOL0     H29136   3.575   8.967  11.885  0.5795  1.4498 -0.4142
  216MOL0     H29137   3.453   8.919  11.767 -0.2669 -0.2773  0.1191
  216MOL0     H29138   3.381   9.063  12.016  3.1850 -0.2688 -1.0812
  216MOL0     H29139   3.272   9.010  11.897 -0.6539  0.0817  1.6574
  216MOL0     H29140   3.913   9.283  11.015  3.8682  0.6686 -0.2713
  216MOL0     H29141   4.042   9.351  10.820 -1.1661 -1.0071 -2.3855
  216MOL0     H29142   4.129   9.548  10.442 -0.1744  0.3576 -0.2654
  216MOL0     H29143   4.213   9.651  10.237  0.9883 -0.4848 -0.6886
  216MOL0     H29144   4.025  10.425   8.921 -0.8557  0.5921 -0.5259
  216MOL0     H29145   3.954  10.561   8.740 -1.8694  1.0331  1.0650
  216MOL0     H29146   3.517  10.788   8.587 -0.6302  0.3302  0.1666
  216MOL0     H29147   3.525  11.016   8.489 -0.4430  1.6036 -2.6804
  216MOL0     H29148   3.765  11.061   8.112  2.6896  1.4462 -0.6402
  216MOL0     H29149   3.874  11.119   8.235 -0.8239 -0.1234  1.8766
  216MOL0     H29150   3.648  11.260   8.097 -0.6325  0.9374  0.5119
  216MOL0     H29151   3.814  11.291   8.065 -2.3216 -1.9986 -1.9451
  216MOL0     H29152   3.842  11.383   8.309  0.2835  1.5936 -1.3903
  216MOL0     H29153   3.663  11.365   8.327 -2.3485 -0.5984 -2.2325
  216MOL0     H29154   3.806  11.506   8.092 -1.0800  2.2516 -0.9160
  216MOL0     H29155   3.624  11.492   8.107 -1.3411 -1.5689  1.1233
  216MOL0     H29156   3.697  11.803   8.374 -2.6782 -0.6975  0.0520
  216MOL0     H29157   3.865  10.887   8.257 -0.7717 -1.1469 -0.5750
  216MOL0     H29158   3.969  10.697   8.279  0.2169  1.5497 -0.1438
  216MOL0     H29159   3.984  10.652   8.442  1.0123  3.0461 -1.8059
  216MOL0     H29160   3.866  10.568   8.326 -1.6475 -0.1888  2.4052
  217MOL0     O29161  10.930   5.092   4.263  0.6144 -0.1326  0.3098
  217MOL0     C29162  10.888   4.978   4.295  1.1288 -0.3047 -0.0848
  217MOL0     O29163  10.775   4.964   4.367 -0.5068  0.2236  0.3378
  217MOL0     C29164  10.695   5.068   4.399 -0.5858  0.2601  0.5365
  217MOL0     C29165  10.681   5.101   4.533 -0.2184 -0.0227  0.7171
  217MOL0     C29166  10.593   5.205   4.570 -0.4642 -0.3920  0.3455
  217MOL0     C29167  10.514   5.276   4.473 -1.0007  0.4701  0.0213
  217MOL0     O29168  10.424   5.370   4.508 -0.0085  0.2297 -0.5616
  217MOL0     C29169  10.444   5.514   4.493  0.0723  0.4025  0.9809
  217MOL0     C29170  10.318   5.587   4.530  0.5736 -0.0168 -0.0749
  217MOL0     C29171  10.246   5.635   4.406  0.0470  0.5077 -0.4700
  217MOL0     C29172  10.114   5.696   4.438  0.0804 -0.5717  0.2472
  217MOL0     C29173  10.032   5.768   4.320 -0.4014  0.3242 -0.2959
  217MOL0     C29174  10.122   5.862   4.233  0.8612  0.4515  0.0223
  217MOL0     C29175  10.035   5.931   4.133 -0.4953 -0.8284  0.2481
  217MOL0     C29176   9.956   5.837   4.045 -1.1307 -0.6516  0.0375
  217MOL0     N29177  10.038   5.744   3.969 -0.3267 -0.0898 -0.1695
  217MOL0     C29178  10.080   5.751   3.835  1.0941 -0.3659 -0.3002
  217MOL0     C29179  10.124   5.630   3.797  0.5530 -0.3640  0.0051
  217MOL0     C29180  10.171   5.595   3.659  0.2698  0.8808 -1.3383
  217MOL0     C29181  10.080   5.472   3.612 -0.0211 -0.0482 -0.8377
  217MOL0     C29182  10.111   5.453   3.467 -0.1312 -0.1070  0.2029
  217MOL0     C29183  10.229   5.381   3.432  0.8223 -0.5026  0.0553
  217MOL0     O29184  10.264   5.392   3.293  0.4643  0.2152  0.4567
  217MOL0     C29185  10.338   5.287   3.246 -0.7303  0.9007 -0.4794
  217MOL0     C29186  10.306   5.240   3.121 -0.4560  0.2466  0.4648
  217MOL0     C29187  10.399   5.173   3.056 -1.0995 -0.5946  0.8279
  217MOL0     C29188  10.521   5.129   3.114  0.5397 -0.1577  0.5710
  217MOL0     C29189  10.620   5.048   3.035  0.3640  1.1605 -0.5474
  217MOL0     O29190  10.601   5.017   2.904 -0.0704 -0.2334  0.8151
  217MOL0     C29191  10.684   4.941   2.833  0.2618 -0.1467 -1.6259
  217MOL0     C29192  10.744   4.986   2.717 -1.2611 -0.1806  0.1361
  217MOL0     C29193  10.837   4.909   2.646 -0.3804 -0.6052  0.8559
  217MOL0     C29194  10.858   4.779   2.677 -0.4847  0.9927  0.1253
  217MOL0     O29195  10.929   4.697   2.597 -0.1923  0.3209 -0.1852
  217MOL0     C29196  10.850   4.630   2.497  0.0282 -1.0281 -0.0338
  217MOL0     C29197  10.811   4.712   2.369  0.3806 -0.4868 -0.4587
  217MOL0     C29198  10.916   4.805   2.302  0.4508  0.1551 -0.2258
  217MOL0     C29199  11.021   4.731   2.213 -0.3039 -0.1542  0.2293
  217MOL0     C29200  11.148   4.823   2.220 -0.5894 -0.7123  0.4242
  217MOL0     C29201  11.133   4.954   2.139 -0.0342 -0.9991  0.0987
  217MOL0     C29202  11.255   5.036   2.107 -0.3318  0.1716  0.4488
  217MOL0     C29203  11.360   4.959   2.022 -1.1167  0.0754  0.1420
  217MOL0    Cl29204  11.274   4.914   1.871  0.6932  0.3900  0.2885
  217MOL0     C29205  10.797   4.723   2.794 -0.2888  0.1983 -0.5089
  217MOL0     C29206  10.718   4.809   2.874 -0.7007  0.2937 -0.5607
  217MOL0     O29207  10.717   5.013   3.098  0.0288 -0.2783  0.1959
  217MOL0     C29208  10.551   5.164   3.246  0.5474 -0.2914  1.0351
  217MOL0     C29209  10.460   5.246   3.314 -0.0310 -0.9571  0.2903
  217MOL0     N29210  10.103   5.547   3.907 -0.7240  0.4992 -0.5259
  217MOL0     N29211  10.059   5.613   4.004 -0.1839  0.6119  0.4595
  217MOL0     C29212  10.522   5.225   4.342 -0.0688 -0.5476 -0.4173
  217MOL0     C29213  10.608   5.128   4.305  0.6865  0.5918  0.7896
  217MOL0     C29214  10.957   4.845   4.292 -0.4412  0.5452  0.1465
  217MOL0     C29215  10.907   4.737   4.367  0.5332 -0.6250 -0.8648
  217MOL0     C29216  10.966   4.610   4.371 -0.1809  0.7077  0.6084
  217MOL0     C29217  11.093   4.591   4.303  0.0916  0.5230 -0.6179
  217MOL0     O29218  11.165   4.468   4.308 -0.3804 -0.0149 -0.3555
  217MOL0     C29219  11.171   4.402   4.439  0.2416  0.0531  0.1182
  217MOL0     C29220  11.280   4.301   4.441 -0.5762  0.3981  1.1440
  217MOL0     C29221  11.250   4.200   4.333 -0.7259  0.5223  0.4848
  217MOL0     C29222  11.350   4.075   4.330 -1.0689  0.7440  0.1541
  217MOL0     C29223  11.333   3.998   4.456 -0.0973  0.5265  0.0041
  217MOL0     C29224  11.304   3.950   4.563  0.2504  0.7237 -0.4714
  217MOL0     C29225  11.129   4.696   4.213  0.4999  0.0777  0.2787
  217MOL0     C29226  11.071   4.823   4.207  0.1268  0.1526 -0.2900
  217MOL0     C29227  11.131   4.917   4.109  0.1185 -1.2079  0.1612
  217MOL0     H29228  10.716   5.030   4.607 -1.2064  0.0060  1.2268
  217MOL0     H29229  10.566   5.224   4.673  0.3209  1.2562  0.2816
  217MOL0     H29230  10.525   5.545   4.559  2.6979  1.0228 -2.2815
  217MOL0     H29231  10.487   5.542   4.396  1.9415 -3.2733  0.5585
  217MOL0     H29232  10.335   5.670   4.600 -0.7348  0.4041 -0.2256
  217MOL0     H29233  10.239   5.534   4.584 -0.6815  3.3352  1.7007
  217MOL0     H29234  10.220   5.548   4.344  7.1617  0.3555 -4.1990
  217MOL0     H29235  10.313   5.691   4.341  0.5823  0.3396 -0.0717
  217MOL0     H29236  10.054   5.622   4.491  2.5876  0.6427  5.3848
  217MOL0     H29237  10.129   5.767   4.519  3.4178 -0.9355  0.0722
  217MOL0     H29238   9.989   5.682   4.268 -3.6688 -0.1033  2.7547
  217MOL0     H29239   9.945   5.828   4.348 -2.1683 -1.5707 -1.4858
  217MOL0     H29240  10.168   5.928   4.307  1.1543 -2.0412  2.2227
  217MOL0     H29241  10.208   5.810   4.189  0.1235 -0.2956 -0.5643
  217MOL0     H29242  10.105   5.997   4.080 -1.8449  1.1079  0.7813
  217MOL0     H29243   9.963   5.999   4.180 -0.1590 -1.0323  1.0753
  217MOL0     H29244   9.886   5.785   4.111 -2.2708 -1.0471 -1.4199
  217MOL0     H29245   9.897   5.908   3.986 -0.7373  0.6538  1.1525
  217MOL0     H29246  10.074   5.840   3.773  2.4491 -0.2270 -0.2657
  217MOL0     H29247  10.179   5.681   3.593 -2.3418  1.2519 -1.2850
  217MOL0     H29248  10.275   5.562   3.665  0.0023 -0.3586 -2.9226
  217MOL0     H29249  10.116   5.390   3.674  0.4492 -2.0824 -3.6203
  217MOL0     H29250   9.973   5.479   3.633  0.1541 -1.8282  0.8923
  217MOL0     H29251  10.110   5.555   3.426 -0.6124  0.2388  1.0350
  217MOL0     H29252  10.024   5.400   3.429 -2.1315  1.4059  2.3542
  217MOL0     H29253  10.216   5.275   3.456  1.8450 -0.6226  0.0951
  217MOL0     H29254  10.313   5.415   3.493 -1.0172  0.1320  2.4270
  217MOL0     H29255  10.212   5.262   3.073  0.6047 -0.7066 -2.2897
  217MOL0     H29256  10.375   5.147   2.953  1.8887  3.9959 -1.3954
  217MOL0     H29257  10.719   5.087   2.687  1.9581  0.5185 -0.6190
  217MOL0     H29258  10.902   4.946   2.567  1.8467 -1.7757  2.0414
  217MOL0     H29259  10.910   4.545   2.463  1.3738 -0.0717 -0.1249
  217MOL0     H29260  10.763   4.581   2.542  1.3171 -0.7426  2.9755
  217MOL0     H29261  10.770   4.640   2.297 -0.2246 -0.4891 -0.1204
  217MOL0     H29262  10.720   4.769   2.393  0.3338 -1.1208  0.9733
  217MOL0     H29263  10.867   4.890   2.254 -0.7774  0.0434  0.7658
  217MOL0     H29264  10.976   4.848   2.382  1.5914 -2.5643  0.4896
  217MOL0     H29265  10.980   4.725   2.112 -2.6309  1.4783  0.9997
  217MOL0     H29266  11.060   4.638   2.257  2.1584  1.3159  1.3349
  217MOL0     H29267  11.225   4.759   2.175  2.3234  1.7795  1.5515
  217MOL0     H29268  11.185   4.840   2.322  1.6464 -0.5504 -0.3546
  217MOL0     H29269  11.089   4.929   2.042  2.3538  0.2472 -1.4080
  217MOL0     H29270  11.059   5.022   2.183  1.2811  1.6539 -1.5608
  217MOL0     H29271  11.306   5.077   2.195  2.6788 -2.1081 -0.0689
  217MOL0     H29272  11.227   5.128   2.054 -1.3014  0.4674  1.4202
  217MOL0     H29273  11.442   5.025   1.991 -2.4283  0.8057 -1.9867
  217MOL0     H29274  11.386   4.873   2.084  1.0470  1.6266  1.5379
  217MOL0     H29275  10.825   4.624   2.825  0.7459  0.8064  0.5738
  217MOL0     H29276  10.673   4.763   2.962  0.6517 -3.3964 -1.5973
  217MOL0     H29277  10.645   5.130   3.289  1.5299 -0.5653 -1.1953
  217MOL0     H29278  10.474   5.291   3.412 -0.2994  2.0206 -0.9471
  217MOL0     H29279  10.452   5.260   4.267 -1.0737  1.2145  1.2598
  217MOL0     H29280  10.606   5.108   4.198  1.6701  2.0562  0.4781
  217MOL0     H29281  10.826   4.747   4.439  0.0334 -0.2743 -1.4614
  217MOL0     H29282  10.922   4.523   4.419  1.1599 -0.6288 -0.4992
  217MOL0     H29283  11.072   4.356   4.444  0.5993 -0.6523  1.2395
  217MOL0     H29284  11.185   4.481   4.514 -1.6265  1.9329 -1.3956
  217MOL0     H29285  11.288   4.252   4.539 -1.3315 -1.8464  0.1419
  217MOL0     H29286  11.382   4.338   4.425 -0.3496 -0.9646 -1.0007
  217MOL0     H29287  11.272   4.248   4.237 -2.3767 -1.7187 -1.1091
  217MOL0     H29288  11.145   4.173   4.319 -0.7495  1.1876 -0.8475
  217MOL0     H29289  11.333   4.002   4.250 -0.0638  0.2249  0.3865
  217MOL0     H29290  11.453   4.105   4.309 -0.9815  0.0509 -0.4945
  217MOL0     H29291  11.294   3.923   4.666 -0.9629  3.7239  0.2955
  217MOL0     H29292  11.216   4.677   4.151 -0.3494 -2.6022 -0.2114
  217MOL0     H29293  11.219   4.966   4.151  0.2429  2.8046 -3.9752
  217MOL0     H29294  11.158   4.871   4.014  0.3265 -2.5048  0.8305
  217MOL0     H29295  11.060   4.994   4.076 -1.0572 -1.8825  0.9998
  218MOL0     O29296   5.766   2.850   5.172 -0.0872  0.2327 -0.3552
  218MOL0     C29297   5.665   2.879   5.230  0.7346 -0.3849  0.5036
  218MOL0     O29298   5.658   2.960   5.342 -0.0253 -0.1410 -0.3025
  218MOL0     C29299   5.771   3.036   5.375  1.2376  0.6484 -0.5857
  218MOL0     C29300   5.849   3.012   5.487 -0.0536  0.3442 -0.2496
  218MOL0     C29301   5.976   3.077   5.500  0.3399  0.0428 -0.2861
  218MOL0     C29302   6.024   3.168   5.401  0.2215  0.3287 -0.1347
  218MOL0     O29303   6.158   3.187   5.399 -0.1799 -0.5824  0.0894
  218MOL0     C29304   6.194   3.322   5.362  0.0199  0.9892  0.5031
  218MOL0     C29305   6.346   3.330   5.313 -0.3339 -0.1296 -0.4860
  218MOL0     C29306   6.401   3.214   5.224 -0.2195  0.5298  0.6164
  218MOL0     C29307   6.332   3.195   5.092  0.5455  0.1924  0.0037
  218MOL0     C29308   6.401   3.089   4.998  0.0620 -0.4415 -0.0581
  218MOL0     C29309   6.311   3.047   4.877 -0.5344  0.7883 -0.4651
  218MOL0     C29310   6.379   2.938   4.806 -0.1846  0.3045 -0.2022
  218MOL0     C29311   6.308   2.891   4.676 -0.2991 -1.2208  0.5724
  218MOL0     N29312   6.328   2.992   4.577 -0.3569 -0.0952  0.9122
  218MOL0     C29313   6.431   2.983   4.488  0.4763  0.0854 -0.6567
  218MOL0     C29314   6.399   3.082   4.401 -0.1620  0.0217 -0.2483
  218MOL0     C29315   6.496   3.124   4.299  0.3735 -0.6841 -0.0461
  218MOL0     C29316   6.468   3.066   4.159 -0.0685  0.4054 -1.0369
  218MOL0     C29317   6.573   3.095   4.057 -0.2887 -0.6552  0.1197
  218MOL0     C29318   6.588   2.993   3.954 -0.0065  0.3865 -0.3473
  218MOL0     O29319   6.458   2.977   3.904  0.2615  0.3665  0.4962
  218MOL0     C29320   6.448   2.979   3.771  0.2211  0.3066 -0.3841
  218MOL0     C29321   6.412   3.096   3.712 -0.4870 -0.1495  0.7150
  218MOL0     C29322   6.397   3.103   3.580 -0.0326  0.4384 -0.1813
  218MOL0     C29323   6.398   2.984   3.498 -0.3328  0.3016 -0.3526
  218MOL0     C29324   6.366   2.998   3.357 -0.5736 -0.9952  0.3276
  218MOL0     O29325   6.381   2.896   3.271 -0.3330  0.5442 -0.0537
  218MOL0     C29326   6.335   2.920   3.147 -0.2368  0.2380  0.2593
  218MOL0     C29327   6.232   2.852   3.087  0.6159  0.6214  0.2573
  218MOL0     C29328   6.178   2.888   2.962 -0.4306  0.0862  0.4451
  218MOL0     C29329   6.225   3.009   2.897  0.7268  0.5208 -0.6884
  218MOL0     O29330   6.178   3.070   2.783  0.3289 -0.2734  0.0520
  218MOL0     C29331   6.039   3.022   2.752  0.2503 -0.8651 -0.0799
  218MOL0     C29332   5.961   3.121   2.675 -0.4232 -0.0941 -0.1662
  218MOL0     C29333   5.879   3.235   2.752  0.3310 -0.9352  0.2466
  218MOL0     C29334   5.787   3.305   2.652 -0.8856 -0.2561  1.2202
  218MOL0     C29335   5.792   3.464   2.658  0.2686 -0.1199  0.5413
  218MOL0     C29336   5.912   3.533   2.597  0.3097 -0.2729  0.4190
  218MOL0     C29337   5.898   3.684   2.612 -0.0578 -0.0917 -0.2497
  218MOL0     C29338   6.024   3.772   2.636 -0.4996  0.2526 -0.1582
  218MOL0    Cl29339   6.135   3.775   2.490 -0.2943  0.3825  0.3463
  218MOL0     C29340   6.335   3.073   2.962 -0.7336  1.0075  0.8146
  218MOL0     C29341   6.394   3.026   3.078  0.1932 -0.7589 -0.2151
  218MOL0     O29342   6.319   3.111   3.324  0.6470 -0.0534 -0.5870
  218MOL0     C29343   6.427   2.863   3.561 -0.1374  0.8819  0.7105
  218MOL0     C29344   6.449   2.856   3.697  0.3011 -0.8007 -0.9027
  218MOL0     N29345   6.275   3.138   4.431 -0.0532 -0.1422  0.1405
  218MOL0     N29346   6.237   3.087   4.531 -0.2956  0.4885 -0.5411
  218MOL0     C29347   5.932   3.196   5.292  0.2580 -0.5192  0.2537
  218MOL0     C29348   5.812   3.135   5.285  0.3941 -1.0448 -0.5408
  218MOL0     C29349   5.538   2.823   5.175 -0.5305  0.5315  0.6817
  218MOL0     C29350   5.539   2.703   5.108 -0.1656  0.4257  0.0504
  218MOL0     C29351   5.426   2.631   5.079  0.4406  0.8508 -0.3344
  218MOL0     C29352   5.299   2.681   5.107  0.3847  0.2752  0.0941
  218MOL0     O29353   5.185   2.605   5.089 -0.0287 -0.1217  0.5635
  218MOL0     C29354   5.118   2.627   4.971 -0.1254  0.7529  0.1285
  218MOL0     C29355   5.021   2.498   4.958 -0.3932  0.6699 -0.4471
  218MOL0     C29356   5.099   2.369   4.966 -0.4150 -0.2517  0.2528
  218MOL0     C29357   5.199   2.354   4.853  0.2250 -0.3012  0.6070
  218MOL0     C29358   5.253   2.215   4.856  0.1412  0.8605 -0.1845
  218MOL0     C29359   5.293   2.094   4.843  0.7045 -0.6499 -0.2175
  218MOL0     C29360   5.289   2.800   5.175  0.1328  0.4994  0.5009
  218MOL0     C29361   5.407   2.872   5.212  0.3037 -0.6135  0.2504
  218MOL0     C29362   5.383   2.994   5.285 -0.1467 -0.2913  0.2620
  218MOL0     H29363   5.813   2.941   5.561 -0.3558 -0.6625 -1.3207
  218MOL0     H29364   6.041   3.043   5.579  2.4262  0.9277 -1.5193
  218MOL0     H29365   6.123   3.368   5.293  0.6644  1.6454  0.2781
  218MOL0     H29366   6.177   3.379   5.454 -0.6473  0.4672  0.7156
  218MOL0     H29367   6.396   3.338   5.410 -0.3561  1.1120 -0.5595
  218MOL0     H29368   6.366   3.432   5.279 -0.5665  1.5361  3.6785
  218MOL0     H29369   6.387   3.119   5.276 -4.7197 -0.5346 -2.0014
  218MOL0     H29370   6.508   3.226   5.204 -0.2461 -2.2459 -1.8026
  218MOL0     H29371   6.230   3.158   5.107  1.1589 -1.8964 -0.5513
  218MOL0     H29372   6.311   3.289   5.041 -2.5043 -0.4693 -0.1425
  218MOL0     H29373   6.494   3.135   4.963 -1.7562  1.1701 -3.3447
  218MOL0     H29374   6.409   2.997   5.055  0.6293 -0.2320  0.2002
  218MOL0     H29375   6.216   3.021   4.925  0.3095  0.3216  1.0031
  218MOL0     H29376   6.296   3.137   4.816 -2.1612  0.7320 -0.1918
  218MOL0     H29377   6.376   2.853   4.875  1.1372  1.1945  1.0117
  218MOL0     H29378   6.480   2.973   4.784 -0.4051  3.5479  2.8758
  218MOL0     H29379   6.338   2.796   4.631 -0.9180 -1.0342 -0.2772
  218MOL0     H29380   6.205   2.857   4.692 -0.4493 -0.6314  0.8851
  218MOL0     H29381   6.514   2.913   4.486  0.8406  0.5094 -0.4825
  218MOL0     H29382   6.482   3.232   4.294 -1.9763 -0.7113  3.2383
  218MOL0     H29383   6.597   3.090   4.324 -0.0949 -2.8572 -0.8354
  218MOL0     H29384   6.465   2.957   4.168  2.4889  0.4023  1.3898
  218MOL0     H29385   6.372   3.098   4.118 -0.0916  0.8900 -0.6090
  218MOL0     H29386   6.675   3.095   4.099 -0.0347  0.0980 -0.4870
  218MOL0     H29387   6.548   3.191   4.012 -0.4238 -0.5707  0.3699
  218MOL0     H29388   6.623   2.900   3.999 -1.0219  0.1347 -0.0655
  218MOL0     H29389   6.663   3.026   3.882  0.6988  0.6324  0.4729
  218MOL0     H29390   6.411   3.186   3.772  1.2500  0.8095 -0.6158
  218MOL0     H29391   6.382   3.200   3.533 -1.6564  1.0991  1.5898
  218MOL0     H29392   6.180   2.775   3.144 -1.4552  0.9156 -1.1379
  218MOL0     H29393   6.106   2.823   2.912  1.6515 -3.2499  1.4243
  218MOL0     H29394   6.059   2.938   2.685  1.1198  0.0181 -0.9678
  218MOL0     H29395   5.980   2.987   2.837  1.0900 -3.8421 -0.6191
  218MOL0     H29396   6.021   3.161   2.592 -0.9412  0.7844 -0.1392
  218MOL0     H29397   5.881   3.066   2.625  0.4106  0.2395 -1.9495
  218MOL0     H29398   5.823   3.197   2.838 -2.0934 -3.2786 -2.1766
  218MOL0     H29399   5.956   3.308   2.780  0.5357 -0.0593 -2.3572
  218MOL0     H29400   5.683   3.276   2.671 -0.5314 -0.7418  2.4395
  218MOL0     H29401   5.811   3.268   2.551 -1.9175 -1.4263  1.3831
  218MOL0     H29402   5.791   3.490   2.765 -1.1879 -0.8279  0.7304
  218MOL0     H29403   5.705   3.510   2.611 -0.3656 -3.2466 -1.7159
  218MOL0     H29404   6.001   3.485   2.640  0.0559 -4.2574 -2.9140
  218MOL0     H29405   5.936   3.509   2.493 -0.8487 -3.2255  0.7293
  218MOL0     H29406   5.836   3.697   2.701 -1.0782  2.8355 -1.2766
  218MOL0     H29407   5.840   3.727   2.530  0.8504 -0.2373 -0.9875
  218MOL0     H29408   6.000   3.876   2.660 -2.3471 -0.3065  0.5430
  218MOL0     H29409   6.069   3.732   2.728 -1.2416  4.7158  2.3905
  218MOL0     H29410   6.375   3.162   2.916  3.7639 -0.9459  0.4217
  218MOL0     H29411   6.467   3.083   3.134 -0.7999 -1.8686  2.3965
  218MOL0     H29412   6.444   2.770   3.509 -1.0362  0.8096  0.5175
  218MOL0     H29413   6.468   2.772   3.763 -1.3566 -0.2599  0.3475
  218MOL0     H29414   5.958   3.264   5.210 -2.2454 -1.0856 -1.1031
  218MOL0     H29415   5.752   3.153   5.197 -5.2841  0.2066  3.0077
  218MOL0     H29416   5.641   2.675   5.088 -0.3446 -1.3299  1.3393
  218MOL0     H29417   5.439   2.543   5.016 -0.8215 -1.3063  2.2181
  218MOL0     H29418   5.173   2.646   4.878  0.2526  0.2777  0.2519
  218MOL0     H29419   5.048   2.710   4.984 -2.0449 -0.9462  1.2963
  218MOL0     H29420   4.967   2.501   4.863  1.1733  1.1946 -1.3563
  218MOL0     H29421   4.949   2.490   5.039  0.9902 -2.4926  0.6353
  218MOL0     H29422   5.030   2.284   4.966  2.0656 -2.3863  0.1111
  218MOL0     H29423   5.157   2.362   5.058  0.2208 -0.9092 -0.1909
  218MOL0     H29424   5.153   2.373   4.756  1.5761  1.3341  0.2398
  218MOL0     H29425   5.279   2.429   4.858  1.4342 -1.5883  1.0820
  218MOL0     H29426   5.335   1.999   4.816  0.0936 -1.0799  0.3336
  218MOL0     H29427   5.189   2.833   5.202  0.5659  1.7108  0.7037
  218MOL0     H29428   5.453   3.070   5.249  2.2423 -2.8282 -0.7819
  218MOL0     H29429   5.284   3.040   5.276  0.7740  1.3936 -2.4507
  218MOL0     H29430   5.403   2.985   5.392 -2.5309  2.9285  1.1521
  219MOL0     O29431   3.754   0.037   6.441  0.4446 -0.3613 -0.1376
  219MOL0     C29432   3.836   0.025   6.530  0.2294  0.0298 -0.0354
  219MOL0     O29433   3.810  -0.018   6.654  0.2581  0.1186 -0.0162
  219MOL0     C29434   3.684  -0.034   6.708  1.5800 -0.0638  0.1899
  219MOL0     C29435   3.574   0.049   6.672  0.7829  0.8890  0.2534
  219MOL0     C29436   3.446   0.029   6.730  1.1706 -0.2914 -0.2851
  219MOL0     C29437   3.424  -0.080   6.811 -0.1699  0.1654 -0.7977
  219MOL0     O29438   3.301  -0.105   6.864  0.1419  0.3092  0.0096
  219MOL0     C29439   3.225  -0.226   6.826 -0.2675 -0.8718 -0.5811
  219MOL0     C29440   3.186  -0.301   6.963 -0.3448  0.3012 -0.0455
  219MOL0     C29441   3.112  -0.436   6.942  1.1677 -0.4012 -0.1264
  219MOL0     C29442   2.975  -0.419   7.005  0.6889 -0.3816  0.7302
  219MOL0     C29443   2.911  -0.564   6.970  0.0627  0.2265  0.1073
  219MOL0     C29444   2.763  -0.545   6.993 -0.5092 -0.0912  0.5825
  219MOL0     C29445   2.693  -0.676   7.018  0.2357 -0.0307 -1.0522
  219MOL0     C29446   2.540  -0.654   7.009  0.5882 -1.1130  0.4366
  219MOL0     N29447   2.479  -0.622   6.875 -0.5154 -0.0865 -0.6503
  219MOL0     C29448   2.491  -0.515   6.800  0.2037 -0.2756  0.0275
  219MOL0     C29449   2.419  -0.537   6.682 -0.3455  0.7206  0.2237
  219MOL0     C29450   2.366  -0.443   6.582 -0.6655 -0.2677 -0.0840
  219MOL0     C29451   2.445  -0.316   6.593  0.7774  0.7707 -0.5164
  219MOL0     C29452   2.411  -0.219   6.714 -0.1714 -0.2679  1.1555
  219MOL0     C29453   2.515  -0.102   6.721  0.0699 -0.3241  1.0762
  219MOL0     O29454   2.639  -0.154   6.739 -0.1450 -0.5097 -0.7204
  219MOL0     C29455   2.703  -0.131   6.855  0.1591  0.1066  1.2416
  219MOL0     C29456   2.655  -0.177   6.977  0.2839  0.5327  0.3410
  219MOL0     C29457   2.731  -0.166   7.096 -1.3066  1.0066  0.1053
  219MOL0     C29458   2.857  -0.097   7.092 -0.4925 -0.0583  0.4210
  219MOL0     C29459   2.933  -0.073   7.219 -1.2307  0.4063  0.0135
  219MOL0     O29460   3.019   0.039   7.225  0.4238 -0.0277 -0.4228
  219MOL0     C29461   3.086   0.049   7.348  0.5196 -0.2232  0.1085
  219MOL0     C29462   3.048   0.164   7.415  0.1338  0.4241  0.1798
  219MOL0     C29463   3.090   0.182   7.547  0.0831  1.0232 -0.2068
  219MOL0     C29464   3.180   0.086   7.608  0.3169  0.7144  1.6603
  219MOL0     O29465   3.236   0.110   7.732 -0.2743  0.1209  0.3664
  219MOL0     C29466   3.151   0.192   7.819  0.2134  0.5996 -0.2334
  219MOL0     C29467   3.235   0.173   7.955 -0.8271  0.1886  0.5080
  219MOL0     C29468   3.351   0.268   7.970  0.3273 -0.0139 -0.7253
  219MOL0     C29469   3.325   0.412   8.019 -0.4331 -0.2848  0.2462
  219MOL0     C29470   3.449   0.499   8.007  0.1249 -0.1269 -0.2920
  219MOL0     C29471   3.426   0.636   8.075 -0.7496 -0.4271  1.3745
  219MOL0     C29472   3.563   0.713   8.056  0.7461  1.1599 -0.6340
  219MOL0     C29473   3.536   0.861   8.107  0.3719  0.3456  0.2243
  219MOL0    Cl29474   3.390   0.943   8.031 -0.3625 -0.4947  0.3742
  219MOL0     C29475   3.228  -0.025   7.531  1.1073  0.7117 -0.7717
  219MOL0     C29476   3.181  -0.043   7.397  0.0116  0.0594 -0.2325
  219MOL0     O29477   2.922  -0.166   7.305  0.2629 -0.8153  0.5134
  219MOL0     C29478   2.902  -0.048   6.965  0.2354  0.1448 -0.0547
  219MOL0     C29479   2.826  -0.054   6.849 -0.3235 -1.5432  0.0820
  219MOL0     N29480   2.372  -0.669   6.693 -0.0896 -0.4315 -0.3634
  219MOL0     N29481   2.408  -0.714   6.807 -0.4676 -0.1603  0.0832
  219MOL0     C29482   3.530  -0.165   6.841  0.3791  0.5740  0.2388
  219MOL0     C29483   3.660  -0.137   6.787  0.1132  1.1274  0.6078
  219MOL0     C29484   3.980   0.028   6.498  0.0920  0.5045  0.8404
  219MOL0     C29485   4.069  -0.055   6.564 -0.1020 -0.0518  0.0893
  219MOL0     C29486   4.203  -0.032   6.572  0.5020  0.3904 -0.0066
  219MOL0     C29487   4.256   0.071   6.491 -0.7096  0.2827  0.1075
  219MOL0     O29488   4.388   0.104   6.493  0.0335  0.1577  0.0937
  219MOL0     C29489   4.456   0.069   6.377  0.2532 -0.7460  0.0551
  219MOL0     C29490   4.601   0.087   6.416  0.0716 -1.0073 -0.2703
  219MOL0     C29491   4.698   0.077   6.292 -0.0909  0.3146  0.0626
  219MOL0     C29492   4.827   0.134   6.343 -0.0030  0.0280 -0.1891
  219MOL0     C29493   4.921   0.155   6.237 -0.1281  1.2283 -0.7764
  219MOL0     C29494   5.002   0.185   6.158 -0.7868  0.0418 -0.5179
  219MOL0     C29495   4.173   0.143   6.407  0.7728 -0.2281  0.2124
  219MOL0     C29496   4.030   0.133   6.422 -0.5351 -0.2110 -0.1389
  219MOL0     C29497   3.954   0.227   6.334 -0.5067  0.0331  0.2177
  219MOL0     H29498   3.601   0.130   6.605 -0.1259  0.2427 -0.9411
  219MOL0     H29499   3.359   0.092   6.717  2.8841  2.2082 -0.5344
  219MOL0     H29500   3.131  -0.200   6.776  0.1736  0.2282 -0.8650
  219MOL0     H29501   3.287  -0.298   6.772 -1.6859 -1.2066 -1.8210
  219MOL0     H29502   3.133  -0.233   7.031 -1.5896 -1.1297  0.4733
  219MOL0     H29503   3.278  -0.334   7.012 -1.0249 -1.7891 -0.0755
  219MOL0     H29504   3.161  -0.513   7.002  0.7173  0.4732  1.4353
  219MOL0     H29505   3.102  -0.459   6.836  0.3818  2.6104 -0.8111
  219MOL0     H29506   2.965  -0.396   7.111 -2.3409 -0.2127  0.4992
  219MOL0     H29507   2.919  -0.339   6.956 -1.1714 -1.9621  0.1676
  219MOL0     H29508   2.933  -0.591   6.866  1.9440 -1.1345  0.7935
  219MOL0     H29509   2.947  -0.644   7.036 -1.5593 -0.3177  0.3666
  219MOL0     H29510   2.744  -0.471   7.072  1.4043  2.2379 -0.9929
  219MOL0     H29511   2.720  -0.494   6.907 -0.0213 -1.8576 -0.7534
  219MOL0     H29512   2.712  -0.717   7.118 -0.9726  1.5821 -0.1050
  219MOL0     H29513   2.722  -0.751   6.944 -1.1199 -1.6594 -0.0346
  219MOL0     H29514   2.498  -0.749   7.045 -2.0166  0.9108  3.2387
  219MOL0     H29515   2.508  -0.579   7.082 -1.4441 -2.2492  0.7944
  219MOL0     H29516   2.537  -0.424   6.838  1.7351 -1.0610  0.1097
  219MOL0     H29517   2.383  -0.488   6.484  2.0151 -1.9127  1.0270
  219MOL0     H29518   2.260  -0.428   6.603 -0.1928  3.0489  0.3834
  219MOL0     H29519   2.551  -0.340   6.580  0.6553 -1.0400  1.2692
  219MOL0     H29520   2.411  -0.253   6.510 -1.1432  1.6999  0.8943
  219MOL0     H29521   2.403  -0.260   6.815  0.4299  2.2786  2.3229
  219MOL0     H29522   2.314  -0.172   6.696  0.8112  1.4669  0.0921
  219MOL0     H29523   2.476  -0.020   6.782 -2.0911  0.6289 -1.3484
  219MOL0     H29524   2.529  -0.064   6.619  4.6034  1.1748  2.0735
  219MOL0     H29525   2.554  -0.218   6.975 -0.2345  1.7398  0.5142
  219MOL0     H29526   2.686  -0.220   7.179 -1.1928  0.0355 -0.4454
  219MOL0     H29527   2.980   0.240   7.378  1.7782  3.9531  3.5390
  219MOL0     H29528   3.067   0.277   7.593  1.3393  1.2522 -0.0349
  219MOL0     H29529   3.121   0.291   7.784 -5.9227 -1.3447 -1.6162
  219MOL0     H29530   3.055   0.141   7.828  0.3945 -0.0548 -1.6608
  219MOL0     H29531   3.160   0.183   8.034 -3.4866 -1.9386 -1.5159
  219MOL0     H29532   3.275   0.072   7.958 -0.5497  0.2696 -0.1967
  219MOL0     H29533   3.403   0.236   8.061  0.9115  3.7685  0.4332
  219MOL0     H29534   3.423   0.267   7.888 -0.5024 -0.0003 -1.4743
  219MOL0     H29535   3.289   0.415   8.122 -2.2724  3.5707 -0.3332
  219MOL0     H29536   3.245   0.450   7.954 -0.0702 -2.5521 -1.6769
  219MOL0     H29537   3.465   0.518   7.900 -1.8966  2.6616 -0.2020
  219MOL0     H29538   3.534   0.444   8.049  1.3484  1.1954 -0.9525
  219MOL0     H29539   3.339   0.682   8.028  0.2901  0.6755  0.4757
  219MOL0     H29540   3.404   0.615   8.180 -0.1887 -4.1775  0.8732
  219MOL0     H29541   3.587   0.720   7.950 -3.3399 -1.8945 -1.9999
  219MOL0     H29542   3.654   0.681   8.110 -0.4554  2.3153  2.2830
  219MOL0     H29543   3.525   0.853   8.215  1.2367 -0.9327  0.2401
  219MOL0     H29544   3.630   0.913   8.086  0.5374  1.1193  2.5613
  219MOL0     H29545   3.295  -0.093   7.584  1.6139  1.6255 -0.2206
  219MOL0     H29546   3.213  -0.133   7.347 -1.7767 -0.9091  0.2642
  219MOL0     H29547   2.985   0.022   6.967 -1.1377  1.9241  2.9234
  219MOL0     H29548   2.862  -0.002   6.761  1.8908  0.0690  1.8076
  219MOL0     H29549   3.523  -0.252   6.905 -1.8990 -0.3324 -1.0916
  219MOL0     H29550   3.755  -0.187   6.805  1.4998  2.9322 -1.2235
  219MOL0     H29551   4.035  -0.130   6.635  2.2632 -2.0850 -0.7822
  219MOL0     H29552   4.268  -0.101   6.624 -2.2593 -3.0984 -0.8407
  219MOL0     H29553   4.432   0.118   6.282 -0.0427  1.6823  1.2968
  219MOL0     H29554   4.450  -0.039   6.357  4.3907 -1.4015  1.3883
  219MOL0     H29555   4.627   0.011   6.490  3.8148  0.9095  0.6519
  219MOL0     H29556   4.606   0.184   6.466 -2.8409  0.6544 -2.8602
  219MOL0     H29557   4.667   0.122   6.197 -0.3017 -3.0529 -1.6166
  219MOL0     H29558   4.724  -0.029   6.286  2.8723  1.0297 -1.3484
  219MOL0     H29559   4.818   0.235   6.386 -0.1866  0.3802 -1.0484
  219MOL0     H29560   4.868   0.065   6.417 -0.1790  0.2989  0.1677
  219MOL0     H29561   5.098   0.200   6.113  0.4091 -1.7700  1.2526
  219MOL0     H29562   4.221   0.219   6.346  2.2233 -1.8812 -0.8139
  219MOL0     H29563   3.863   0.263   6.383 -1.9192 -1.3275 -1.3296
  219MOL0     H29564   4.008   0.309   6.286 -1.0428  2.4093  3.3356
  219MOL0     H29565   3.926   0.159   6.254 -1.5095 -0.9097  1.3285
  220MOL0     O29566   6.447   3.443   3.377 -0.5026 -0.3078 -0.1139
  220MOL0     C29567   6.353   3.483   3.307  0.3598 -1.2279 -0.1155
  220MOL0     O29568   6.247   3.543   3.358  0.5563 -0.1182  0.5938
  220MOL0     C29569   6.257   3.606   3.480 -0.8780  1.0545  0.2034
  220MOL0     C29570   6.330   3.717   3.507  0.0554  0.0759  0.2823
  220MOL0     C29571   6.331   3.777   3.630  0.8145 -0.3875 -0.9888
  220MOL0     C29572   6.265   3.726   3.742  0.5202 -0.0867  0.5042
  220MOL0     O29573   6.264   3.802   3.857 -0.0863  0.1195 -0.5620
  220MOL0     C29574   6.389   3.816   3.921 -0.9522 -0.7431 -0.5506
  220MOL0     C29575   6.400   3.690   4.020  0.4036 -0.4109 -0.1643
  220MOL0     C29576   6.462   3.734   4.162 -0.2640  0.2585 -0.0195
  220MOL0     C29577   6.353   3.808   4.253 -1.0059  0.2580  0.4141
  220MOL0     C29578   6.432   3.903   4.347  0.5558 -0.0646  0.0689
  220MOL0     C29579   6.343   3.962   4.459  0.2112 -0.5641  0.0462
  220MOL0     C29580   6.421   4.025   4.576  0.8305 -0.1582 -0.0134
  220MOL0     C29581   6.339   4.101   4.677 -0.4481  0.4346 -0.4355
  220MOL0     N29582   6.244   4.024   4.757 -0.2130  0.0527 -0.3612
  220MOL0     C29583   6.118   4.008   4.699  0.0989  0.2550  0.3708
  220MOL0     C29584   6.033   3.962   4.799  0.5673  0.1041  0.3410
  220MOL0     C29585   5.885   3.919   4.787 -0.0927 -0.0141 -0.1219
  220MOL0     C29586   5.847   3.790   4.860  0.3660 -0.4290  0.6380
  220MOL0     C29587   5.729   3.814   4.954 -0.1988 -0.0809 -0.5691
  220MOL0     C29588   5.682   3.681   5.009  0.7434  0.1339  0.0628
  220MOL0     O29589   5.547   3.644   4.969 -0.4216  0.2063  0.4119
  220MOL0     C29590   5.449   3.698   5.043  0.5588 -0.5246  0.3644
  220MOL0     C29591   5.449   3.809   5.119  0.0106 -0.2762  0.3589
  220MOL0     C29592   5.339   3.866   5.180  0.4129  0.7951 -1.2655
  220MOL0     C29593   5.211   3.807   5.155 -0.4716 -0.8927 -0.6395
  220MOL0     C29594   5.084   3.876   5.195  0.1942  0.2996 -0.4855
  220MOL0     O29595   5.095   4.000   5.241 -0.0941  1.0255  0.8098
  220MOL0     C29596   4.997   4.064   5.309 -0.0910 -0.3379 -0.3034
  220MOL0     C29597   5.001   4.073   5.445 -0.6855 -0.4632  0.6742
  220MOL0     C29598   4.896   4.139   5.518  0.2950 -0.5962 -0.3913
  220MOL0     C29599   4.784   4.184   5.446  0.8510 -0.1879 -0.1812
  220MOL0     O29600   4.689   4.268   5.494 -0.3174  0.0772 -0.8341
  220MOL0     C29601   4.630   4.231   5.617  0.1365  0.3694  0.1142
  220MOL0     C29602   4.545   4.349   5.677  0.5221  0.4448 -1.0328
  220MOL0     C29603   4.633   4.457   5.735 -0.4547 -0.5633 -0.0655
  220MOL0     C29604   4.548   4.584   5.776 -0.5659  0.3228 -0.7124
  220MOL0     C29605   4.475   4.571   5.908 -0.4231 -0.8587  0.3782
  220MOL0     C29606   4.555   4.618   6.030  0.3622 -0.0660  0.6743
  220MOL0     C29607   4.478   4.589   6.159  0.1885  1.1492  0.3250
  220MOL0     C29608   4.541   4.664   6.273  0.5434  0.3792 -0.4619
  220MOL0    Cl29609   4.700   4.613   6.335 -0.3311  0.1607  0.4126
  220MOL0     C29610   4.775   4.170   5.308  0.4939 -0.4180  0.7354
  220MOL0     C29611   4.881   4.107   5.243  0.1763  0.1374 -0.4191
  220MOL0     O29612   4.979   3.819   5.171  0.7983  0.9899 -0.1558
  220MOL0     C29613   5.204   3.694   5.072 -0.4162  0.1946 -1.2475
  220MOL0     C29614   5.323   3.639   5.023 -0.6476  0.2957 -0.1626
  220MOL0     N29615   6.098   3.983   4.922  0.0610  0.7716  0.5619
  220MOL0     N29616   6.221   4.011   4.890  0.4286 -0.5474 -1.0354
  220MOL0     C29617   6.186   3.604   3.719  0.3824 -0.1201 -0.7256
  220MOL0     C29618   6.183   3.547   3.592 -0.3723 -0.2910  0.0896
  220MOL0     C29619   6.366   3.458   3.161  0.3021 -0.3314 -0.5710
  220MOL0     C29620   6.475   3.391   3.111 -0.6316  0.3529 -0.0343
  220MOL0     C29621   6.487   3.382   2.972 -0.4406 -0.2166 -0.3681
  220MOL0     C29622   6.395   3.434   2.885 -0.6298 -0.8919 -0.1240
  220MOL0     O29623   6.423   3.425   2.749  0.4342 -0.5763  0.5863
  220MOL0     C29624   6.339   3.504   2.659  0.2441 -0.2014 -0.1094
  220MOL0     C29625   6.352   3.465   2.518  0.5124 -0.0045 -0.1447
  220MOL0     C29626   6.290   3.335   2.480 -0.6552  1.2724 -0.5322
  220MOL0     C29627   6.345   3.293   2.351  0.4299 -0.6078  0.2559
  220MOL0     C29628   6.291   3.354   2.234  0.4953 -0.1967 -0.1033
  220MOL0     C29629   6.246   3.380   2.125 -0.6740  0.7640 -0.4308
  220MOL0     C29630   6.282   3.504   2.936 -0.0129 -1.0367 -0.8866
  220MOL0     C29631   6.276   3.519   3.075  0.2826  0.1596  0.1334
  220MOL0     C29632   6.171   3.619   3.111 -0.5527 -0.2253 -0.7101
  220MOL0     H29633   6.366   3.771   3.420 -0.9243 -0.1755 -0.2959
  220MOL0     H29634   6.382   3.870   3.652  2.1323 -1.3256  0.0732
  220MOL0     H29635   6.479   3.817   3.858  0.2756  0.7070  1.1361
  220MOL0     H29636   6.401   3.908   3.978 -1.2603 -2.1525  1.9445
  220MOL0     H29637   6.461   3.614   3.970  2.9295  2.0869 -1.1722
  220MOL0     H29638   6.302   3.665   4.061 -0.2006  2.7206  0.5675
  220MOL0     H29639   6.542   3.807   4.148 -0.4941  1.0040  2.1673
  220MOL0     H29640   6.494   3.644   4.216 -2.2457  0.7351  2.1463
  220MOL0     H29641   6.271   3.860   4.204 -0.3992 -0.2129 -1.1681
  220MOL0     H29642   6.304   3.723   4.302  2.3962 -3.2993 -1.6661
  220MOL0     H29643   6.501   3.841   4.405  1.0031  1.0373  0.7493
  220MOL0     H29644   6.488   3.975   4.287  0.6665 -0.5192 -0.3876
  220MOL0     H29645   6.288   4.041   4.406 -0.2305 -0.9954 -0.1442
  220MOL0     H29646   6.279   3.881   4.495  2.9786 -2.6490  0.5503
  220MOL0     H29647   6.502   4.090   4.544 -1.0701  2.2968 -0.1170
  220MOL0     H29648   6.467   3.939   4.626 -0.2271 -0.6531  0.1604
  220MOL0     H29649   6.417   4.142   4.742 -1.6469  0.4397  1.0336
  220MOL0     H29650   6.287   4.182   4.625 -0.7246  0.4145 -0.1874
  220MOL0     H29651   6.089   4.013   4.595 -0.7536 -0.5139  0.5542
  220MOL0     H29652   5.826   4.007   4.815  0.5151 -0.1454  1.7310
  220MOL0     H29653   5.874   3.891   4.682 -1.4239 -0.7369  0.1857
  220MOL0     H29654   5.820   3.705   4.796 -0.8189  0.0839  0.4274
  220MOL0     H29655   5.933   3.755   4.917  0.6105 -2.0983 -0.6632
  220MOL0     H29656   5.650   3.854   4.891 -1.4850 -4.4945 -2.1721
  220MOL0     H29657   5.756   3.883   5.035  1.6794 -3.7386  2.2948
  220MOL0     H29658   5.689   3.671   5.118 -1.2047 -1.4215  0.0964
  220MOL0     H29659   5.748   3.598   4.982 -0.1787 -0.9559  1.0844
  220MOL0     H29660   5.545   3.858   5.120 -0.0296 -0.1373  2.6809
  220MOL0     H29661   5.345   3.955   5.241 -0.0253  0.2076 -0.3428
  220MOL0     H29662   5.081   4.027   5.503 -1.9223 -0.9916  2.0244
  220MOL0     H29663   4.904   4.162   5.624 -0.2571 -1.6619 -0.1060
  220MOL0     H29664   4.573   4.139   5.602  0.2115  0.0178  1.8196
  220MOL0     H29665   4.706   4.197   5.688 -1.8327 -1.3813  1.4797
  220MOL0     H29666   4.471   4.383   5.604 -1.8183 -2.3856 -0.1856
  220MOL0     H29667   4.485   4.305   5.757  1.8128 -0.1961 -0.3782
  220MOL0     H29668   4.690   4.410   5.815  0.4975 -0.5351 -0.6999
  220MOL0     H29669   4.705   4.491   5.659  1.9457 -2.1037  1.3863
  220MOL0     H29670   4.477   4.591   5.693 -1.3396  0.0097 -0.0934
  220MOL0     H29671   4.602   4.679   5.781 -2.7634  1.5718  1.6171
  220MOL0     H29672   4.452   4.468   5.936  0.0822 -1.1381 -0.2189
  220MOL0     H29673   4.387   4.636   5.908  0.4898  0.4179  0.0353
  220MOL0     H29674   4.648   4.561   6.019  0.5989 -0.0637  2.4246
  220MOL0     H29675   4.568   4.726   6.020 -4.7495  0.9839  2.4223
  220MOL0     H29676   4.489   4.482   6.180  2.1568  0.9792 -1.2541
  220MOL0     H29677   4.371   4.608   6.158 -0.0287  0.0090  0.8165
  220MOL0     H29678   4.537   4.770   6.244 -1.5759  0.4087 -0.1807
  220MOL0     H29679   4.475   4.657   6.360  3.2333  2.0430  1.9071
  220MOL0     H29680   4.696   4.216   5.250  1.2873  0.9100  0.6562
  220MOL0     H29681   4.883   4.110   5.134 -0.5814  1.4978 -0.4174
  220MOL0     H29682   5.112   3.638   5.053 -1.0430  0.5243  0.5545
  220MOL0     H29683   5.306   3.544   4.974  0.8396 -0.5043  0.8134
  220MOL0     H29684   6.112   3.566   3.789 -0.4575  2.4610 -0.1151
  220MOL0     H29685   6.129   3.455   3.571  2.6078 -1.9147 -1.1336
  220MOL0     H29686   6.544   3.354   3.186  1.8479 -1.5909 -3.0301
  220MOL0     H29687   6.576   3.328   2.941 -0.9111 -2.5439  1.9317
  220MOL0     H29688   6.359   3.610   2.679  0.3711  0.8791 -4.7850
  220MOL0     H29689   6.237   3.492   2.697  0.1964  4.1827  1.8390
  220MOL0     H29690   6.452   3.482   2.477 -0.7376  3.1649 -2.3709
  220MOL0     H29691   6.287   3.540   2.471 -0.4354 -1.1081 -0.6359
  220MOL0     H29692   6.182   3.348   2.473 -0.8196 -0.0097 -0.5080
  220MOL0     H29693   6.312   3.271   2.566  0.2080 -0.0677 -1.6926
  220MOL0     H29694   6.454   3.306   2.356  0.3342 -0.2008  2.0524
  220MOL0     H29695   6.326   3.186   2.335  2.6268 -0.5912 -3.9812
  220MOL0     H29696   6.198   3.397   2.031  0.7647 -0.1483 -1.3855
  220MOL0     H29697   6.207   3.558   2.880  0.1495 -0.1076 -0.2274
  220MOL0     H29698   6.128   3.668   3.023  0.9194  0.1143 -1.2762
  220MOL0     H29699   6.079   3.577   3.153 -1.3292  1.3535 -0.7373
  220MOL0     H29700   6.228   3.697   3.162  0.9313 -1.9672  0.4053
  221MOL0     O29701   4.346   3.595   4.790  1.0638 -0.1204  0.1796
  221MOL0     C29702   4.420   3.662   4.858 -0.2291  0.5563  0.1790
  221MOL0     O29703   4.421   3.796   4.861 -0.3150  0.2199 -0.2139
  221MOL0     C29704   4.367   3.860   4.755  1.2007 -0.2977 -0.2738
  221MOL0     C29705   4.239   3.916   4.774 -0.1071  0.3384 -0.8026
  221MOL0     C29706   4.173   3.968   4.659  0.3221  1.1166 -1.0217
  221MOL0     C29707   4.234   3.968   4.536 -0.4595  0.1603 -0.0036
  221MOL0     O29708   4.171   4.008   4.425 -0.1827  0.8529  0.8932
  221MOL0     C29709   4.096   4.126   4.435 -0.4962 -0.3471  0.8879
  221MOL0     C29710   4.082   4.190   4.287  1.0692 -0.5973  0.4126
  221MOL0     C29711   3.963   4.293   4.285  0.2669 -0.0982 -0.6683
  221MOL0     C29712   3.928   4.344   4.158 -0.1751 -0.4459  0.2812
  221MOL0     C29713   4.039   4.442   4.105  0.1598  0.0439 -0.9862
  221MOL0     C29714   3.999   4.540   3.996  0.0163 -1.3416  0.5908
  221MOL0     C29715   3.919   4.473   3.883  0.1972 -0.1823 -0.0427
  221MOL0     C29716   3.884   4.579   3.770 -0.5368 -1.7166  0.2258
  221MOL0     N29717   3.828   4.712   3.821 -0.3118  0.2734  0.5886
  221MOL0     C29718   3.906   4.813   3.876  0.3170 -0.7117 -0.4941
  221MOL0     C29719   3.812   4.891   3.933  0.1708 -0.3938  0.1821
  221MOL0     C29720   3.837   5.011   4.013  0.1718  0.0337  0.2741
  221MOL0     C29721   3.820   5.136   3.925  0.5726 -0.1974  0.2413
  221MOL0     C29722   3.775   5.262   3.994 -0.1117  0.6649 -0.2957
  221MOL0     C29723   3.746   5.368   3.894 -0.0367  0.2453  0.5888
  221MOL0     O29724   3.734   5.497   3.943 -0.5369  0.3153 -0.0255
  221MOL0     C29725   3.627   5.528   4.017 -0.2388  0.4326 -0.3048
  221MOL0     C29726   3.652   5.611   4.132  0.0366  0.3207 -0.1879
  221MOL0     C29727   3.547   5.655   4.208 -0.3168 -0.1054 -0.4809
  221MOL0     C29728   3.414   5.623   4.168 -0.4175 -0.4193  0.4100
  221MOL0     C29729   3.304   5.688   4.245  0.0476  0.6099  0.2748
  221MOL0     O29730   3.182   5.683   4.189  0.1909  0.2949 -0.1567
  221MOL0     C29731   3.080   5.745   4.256  1.1840 -0.1144  0.0183
  221MOL0     C29732   3.045   5.709   4.389  0.5464  0.0204  0.1766
  221MOL0     C29733   2.943   5.789   4.450 -0.7164 -0.2276  0.0250
  221MOL0     C29734   2.882   5.897   4.392  0.7186  0.0172 -0.2196
  221MOL0     O29735   2.796   5.966   4.468 -0.3796 -0.3039 -0.4270
  221MOL0     C29736   2.673   6.006   4.408 -0.2651  0.3759  0.2900
  221MOL0     C29737   2.605   5.885   4.352  0.1428 -0.7466 -0.4634
  221MOL0     C29738   2.566   5.776   4.456  0.2950 -0.2892  0.0182
  221MOL0     C29739   2.486   5.653   4.395  0.1504 -1.1524 -1.0664
  221MOL0     C29740   2.538   5.587   4.263  0.1334 -1.3325 -0.8623
  221MOL0     C29741   2.679   5.527   4.274 -0.5775 -0.2258 -0.2689
  221MOL0     C29742   2.741   5.484   4.137 -0.1930 -1.0907 -0.8391
  221MOL0     C29743   2.881   5.410   4.161  0.8541 -0.7279  0.1789
  221MOL0    Cl29744   2.947   5.351   3.998 -0.0723 -0.2703 -0.1891
  221MOL0     C29745   2.909   5.928   4.263 -0.1438 -0.5442  0.4492
  221MOL0     C29746   3.006   5.859   4.196 -0.7017 -0.1347 -0.3187
  221MOL0     O29747   3.326   5.735   4.357  0.5782  0.1433 -0.2973
  221MOL0     C29748   3.382   5.546   4.053 -0.8748 -0.3201  0.5848
  221MOL0     C29749   3.494   5.495   3.977  0.5545 -0.7648 -0.4625
  221MOL0     N29750   3.685   4.854   3.893  0.3553 -0.3526  0.2830
  221MOL0     N29751   3.699   4.746   3.834 -0.6076  0.0317  0.5468
  221MOL0     C29752   4.359   3.916   4.526 -0.0286  0.5899  0.6737
  221MOL0     C29753   4.423   3.852   4.625  0.3469  0.2018 -0.0140
  221MOL0     C29754   4.524   3.599   4.941 -0.0977 -0.3753 -0.0404
  221MOL0     C29755   4.633   3.678   4.994  0.1567 -0.2134  0.6070
  221MOL0     C29756   4.723   3.632   5.079  0.0844  0.2346 -0.2517
  221MOL0     C29757   4.715   3.499   5.120 -0.1214  0.5375 -0.5866
  221MOL0     O29758   4.805   3.447   5.221  1.2825  0.5785  0.0789
  221MOL0     C29759   4.943   3.486   5.216  0.5693  0.6098 -0.4785
  221MOL0     C29760   5.002   3.395   5.339 -0.5475 -1.1083 -0.5180
  221MOL0     C29761   5.152   3.403   5.352  0.0337 -0.1010 -0.5316
  221MOL0     C29762   5.232   3.351   5.239 -0.0471  0.1735  0.2266
  221MOL0     C29763   5.382   3.367   5.243  0.0748 -0.8023  0.6032
  221MOL0     C29764   5.499   3.389   5.247 -1.9332  0.9703  0.0620
  221MOL0     C29765   4.614   3.414   5.069  0.6234 -0.1115  0.6361
  221MOL0     C29766   4.519   3.464   4.979  0.0898 -0.4519 -0.3008
  221MOL0     C29767   4.401   3.378   4.952 -0.2264 -1.1223  0.8574
  221MOL0     H29768   4.178   3.919   4.863  2.2636 -1.8677  1.0485
  221MOL0     H29769   4.069   3.998   4.673 -0.4837 -1.2457 -1.3536
  221MOL0     H29770   4.004   4.105   4.489  0.7721 -4.7135  1.7883
  221MOL0     H29771   4.157   4.197   4.491  2.6719  3.8675 -6.4094
  221MOL0     H29772   4.072   4.108   4.214  0.3445 -1.6655  1.6779
  221MOL0     H29773   4.168   4.250   4.254  0.5863 -0.5133 -0.7342
  221MOL0     H29774   3.988   4.384   4.341 -0.4221 -0.3193  0.0215
  221MOL0     H29775   3.874   4.247   4.329 -0.0216  1.8274  0.9044
  221MOL0     H29776   3.923   4.261   4.087 -0.1850  0.3424 -0.6690
  221MOL0     H29777   3.831   4.394   4.164 -1.6948 -3.1799  0.1405
  221MOL0     H29778   4.085   4.499   4.187 -2.0906  0.3642  0.1138
  221MOL0     H29779   4.126   4.379   4.085 -0.7182 -0.8862 -2.0082
  221MOL0     H29780   3.941   4.624   4.035  0.8060 -1.6661  2.5518
  221MOL0     H29781   4.090   4.586   3.954 -0.2768 -0.2551  1.1003
  221MOL0     H29782   3.821   4.439   3.917 -0.3897  3.2907  2.2122
  221MOL0     H29783   3.984   4.392   3.847 -1.2234 -1.5992  0.4775
  221MOL0     H29784   3.969   4.601   3.705  0.8929  1.5884  2.8750
  221MOL0     H29785   3.802   4.539   3.710 -0.0194  0.2643 -1.9460
  221MOL0     H29786   4.013   4.825   3.883  0.1205  2.1349 -1.1976
  221MOL0     H29787   3.775   5.015   4.103 -0.9905  0.7829 -0.5409
  221MOL0     H29788   3.937   5.004   4.057  0.7520  0.5493 -0.9231
  221MOL0     H29789   3.908   5.157   3.864  1.1040 -1.3891  0.5649
  221MOL0     H29790   3.753   5.120   3.840  1.9932  2.2393 -1.4557
  221MOL0     H29791   3.850   5.289   4.069  0.0304  0.8500 -0.5034
  221MOL0     H29792   3.692   5.228   4.057  0.3145 -0.8596 -0.5111
  221MOL0     H29793   3.649   5.339   3.853 -0.3350  0.5241  1.0910
  221MOL0     H29794   3.814   5.358   3.809 -2.4023  1.4437 -1.5514
  221MOL0     H29795   3.750   5.652   4.154  0.2955 -0.6702  0.5845
  221MOL0     H29796   3.568   5.727   4.287 -1.1296 -1.1938  0.7608
  221MOL0     H29797   3.083   5.634   4.458  0.4518  2.2584  2.8548
  221MOL0     H29798   2.900   5.769   4.548 -1.1001  2.1814  0.3940
  221MOL0     H29799   2.609   6.053   4.483 -1.1460  2.3736 -1.6112
  221MOL0     H29800   2.688   6.089   4.339 -1.7920  0.1050 -0.4057
  221MOL0     H29801   2.520   5.926   4.297 -0.6780 -2.6267 -0.6640
  221MOL0     H29802   2.663   5.838   4.272 -1.3584  2.7678 -3.9257
  221MOL0     H29803   2.654   5.731   4.504 -1.0711  0.2566  3.3061
  221MOL0     H29804   2.507   5.825   4.534  0.2777 -0.4793  0.1231
  221MOL0     H29805   2.392   5.701   4.370  0.9042  1.4560  0.6466
  221MOL0     H29806   2.464   5.581   4.474 -2.2838  2.8900  2.3950
  221MOL0     H29807   2.537   5.662   4.183 -1.4798 -2.1390 -1.6278
  221MOL0     H29808   2.466   5.507   4.246 -0.9281 -0.7486  0.6398
  221MOL0     H29809   2.742   5.603   4.321 -2.8776  2.5731 -1.3799
  221MOL0     H29810   2.688   5.432   4.328 -0.2486 -0.9833 -1.6228
  221MOL0     H29811   2.763   5.566   4.069  3.1847 -1.4615 -0.3728
  221MOL0     H29812   2.679   5.409   4.088  1.4340 -2.7753 -0.4668
  221MOL0     H29813   2.956   5.479   4.200 -2.0439  2.9983 -0.2206
  221MOL0     H29814   2.865   5.329   4.233  2.6532 -1.4518 -0.1942
  221MOL0     H29815   2.888   6.021   4.211  0.7456 -1.0168 -0.8158
  221MOL0     H29816   3.037   5.882   4.095  1.0333 -2.2499 -0.3525
  221MOL0     H29817   3.278   5.533   4.025 -1.8196  4.9711  0.6420
  221MOL0     H29818   3.467   5.440   3.887  2.6152 -0.5523 -1.2493
  221MOL0     H29819   4.396   3.902   4.425 -3.3426 -0.4481 -0.5343
  221MOL0     H29820   4.517   3.803   4.603  0.6719 -0.0790  1.7998
  221MOL0     H29821   4.628   3.781   4.962  1.9411 -0.7519 -1.6751
  221MOL0     H29822   4.781   3.710   5.127  1.4721 -1.7538  1.5129
  221MOL0     H29823   4.953   3.593   5.237 -0.2910  0.7202 -0.6251
  221MOL0     H29824   4.987   3.467   5.117 -0.6622  0.5188 -1.0178
  221MOL0     H29825   4.989   3.292   5.306  1.0487 -0.9562 -1.7443
  221MOL0     H29826   4.952   3.427   5.431  0.7690 -1.3744  0.3024
  221MOL0     H29827   5.180   3.354   5.446 -1.0155  1.4537  0.6463
  221MOL0     H29828   5.186   3.506   5.370 -1.1006  0.1789  0.0728
  221MOL0     H29829   5.195   3.250   5.223 -0.3514  0.6159 -2.3585
  221MOL0     H29830   5.206   3.401   5.145  1.2542 -0.8892 -0.7449
  221MOL0     H29831   5.604   3.409   5.247 -1.9926  1.4044  1.6479
  221MOL0     H29832   4.605   3.312   5.103  6.0746 -2.0895 -2.6212
  221MOL0     H29833   4.395   3.293   5.022  3.2609  0.1980  3.0188
  221MOL0     H29834   4.305   3.429   4.962  1.1643  1.8747 -0.0988
  221MOL0     H29835   4.407   3.341   4.849  0.0589 -0.7439  0.7366
  222MOL0     O29836   1.845   8.203   0.793  0.3953  0.7750 -0.0697
  222MOL0     C29837   1.923   8.214   0.889  0.7431 -0.8580  1.5078
  222MOL0     O29838   2.060   8.201   0.874  1.1951  0.0678 -0.3325
  222MOL0     C29839   2.125   8.140   0.774  0.0549  0.3990 -0.2761
  222MOL0     C29840   2.069   8.079   0.658  0.5008 -0.4337  0.2150
  222MOL0     C29841   2.146   8.000   0.568  0.4765 -0.2234 -0.3260
  222MOL0     C29842   2.284   8.010   0.577  0.4875  0.4280 -0.1245
  222MOL0     O29843   2.365   7.965   0.475  0.8443  0.4635  0.0411
  222MOL0     C29844   2.427   8.077   0.399  0.1013  0.6944 -1.2222
  222MOL0     C29845   2.495   8.018   0.278 -0.6939  0.2563 -0.2674
  222MOL0     C29846   2.580   7.903   0.327 -0.8042 -0.2983  0.0436
  222MOL0     C29847   2.677   7.859   0.218 -0.0232 -0.2698  0.6041
  222MOL0     C29848   2.787   7.762   0.265  0.5321  0.2005 -0.0248
  222MOL0     C29849   2.726   7.633   0.317 -0.5070  0.9551 -0.5897
  222MOL0     C29850   2.818   7.543   0.405 -0.0821  0.0028 -0.3456
  222MOL0     C29851   2.942   7.519   0.327 -0.0065  0.6268 -0.3341
  222MOL0     N29852   3.015   7.394   0.373 -0.2791  0.2018  0.2520
  222MOL0     C29853   3.146   7.394   0.415  0.1017  0.3028 -0.9927
  222MOL0     C29854   3.161   7.262   0.443  0.5799  0.2232  0.2576
  222MOL0     C29855   3.294   7.214   0.495 -0.1598  0.3106  0.4436
  222MOL0     C29856   3.281   7.208   0.643 -0.1455  0.2651 -0.3667
  222MOL0     C29857   3.398   7.135   0.705  0.5901 -0.4108  0.1288
  222MOL0     C29858   3.519   7.244   0.712 -0.2165 -0.0973 -0.3559
  222MOL0     O29859   3.619   7.163   0.772 -0.6867  0.1600  0.6178
  222MOL0     C29860   3.734   7.219   0.813 -0.2790 -0.4141 -0.4224
  222MOL0     C29861   3.748   7.348   0.872 -0.8924  0.0612  0.0512
  222MOL0     C29862   3.873   7.403   0.899  0.0364 -0.3270  0.4773
  222MOL0     C29863   3.993   7.322   0.888  0.1207 -0.3327 -0.7270
  222MOL0     C29864   4.128   7.374   0.901 -0.6693 -0.8450 -0.5942
  222MOL0     O29865   4.236   7.292   0.865 -0.8093 -0.2997  0.4965
  222MOL0     C29866   4.358   7.351   0.855 -0.4926  0.4103 -0.2535
  222MOL0     C29867   4.443   7.336   0.970  0.3195  0.1143  0.6867
  222MOL0     C29868   4.556   7.418   0.975  0.0423  0.4696 -0.5600
  222MOL0     C29869   4.586   7.512   0.880  0.6146 -0.5267  0.4173
  222MOL0     O29870   4.696   7.603   0.898  0.2650  0.2819 -0.3853
  222MOL0     C29871   4.736   7.688   0.785 -0.6004  0.7952 -0.2703
  222MOL0     C29872   4.870   7.758   0.810 -0.1705  0.3111  0.5156
  222MOL0     C29873   4.939   7.805   0.691 -0.1422  0.0073  0.7491
  222MOL0     C29874   5.033   7.695   0.622 -0.3803 -0.3841  1.2146
  222MOL0     C29875   5.090   7.732   0.480 -0.0629 -0.7713  0.2096
  222MOL0     C29876   5.215   7.813   0.492  0.1027 -0.0926 -0.9239
  222MOL0     C29877   5.293   7.803   0.360 -0.8096 -0.2916 -0.1676
  222MOL0     C29878   5.383   7.928   0.346  0.2985  0.1015  0.5163
  222MOL0    Cl29879   5.507   7.909   0.219 -0.4797  0.0512 -0.4425
  222MOL0     C29880   4.496   7.526   0.778  0.0858  0.5345 -0.2078
  222MOL0     C29881   4.386   7.447   0.761  0.1569  0.2786  0.0282
  222MOL0     O29882   4.133   7.488   0.939  0.1014  0.0339  0.1084
  222MOL0     C29883   3.977   7.190   0.837 -0.4986  0.0256  0.9614
  222MOL0     C29884   3.846   7.144   0.797 -0.4788  0.5786 -0.6254
  222MOL0     N29885   3.050   7.191   0.407 -0.7333  0.5174 -0.6063
  222MOL0     N29886   2.962   7.270   0.364  0.0506  0.2178 -0.3264
  222MOL0     C29887   2.349   8.068   0.683  0.2226 -0.4224 -0.8326
  222MOL0     C29888   2.269   8.135   0.788 -0.7775  0.3823  1.0329
  222MOL0     C29889   1.868   8.225   1.029 -0.6275 -0.7796 -0.1513
  222MOL0     C29890   1.961   8.221   1.134  0.0909  0.8727 -0.5475
  222MOL0     C29891   1.910   8.215   1.262 -0.2477  0.3907 -0.0510
  222MOL0     C29892   1.771   8.217   1.293 -1.0391 -0.0448 -1.2208
  222MOL0     O29893   1.740   8.191   1.426  0.1067 -0.4392 -0.5221
  222MOL0     C29894   1.609   8.161   1.465 -0.1076 -0.7584 -0.4911
  222MOL0     C29895   1.583   8.021   1.435 -0.2035  0.6904 -1.1757
  222MOL0     C29896   1.669   7.916   1.509 -0.4786 -0.1691  0.3217
  222MOL0     C29897   1.650   7.899   1.657  0.4440 -0.7552  0.1638
  222MOL0     C29898   1.780   7.849   1.707  0.1266 -0.3232  0.0958
  222MOL0     C29899   1.882   7.811   1.751 -0.2250 -0.2169  0.8492
  222MOL0     C29900   1.689   8.244   1.195 -0.0505 -0.2829  1.2749
  222MOL0     C29901   1.730   8.246   1.059  0.2390  0.0035 -0.9871
  222MOL0     C29902   1.622   8.233   0.951 -0.9938 -0.0698 -0.0365
  222MOL0     H29903   1.961   8.072   0.647  0.1185  1.2534  2.3647
  222MOL0     H29904   2.090   7.943   0.495 -1.5356 -0.8238  1.5946
  222MOL0     H29905   2.344   8.133   0.356 -0.6531 -2.0133 -3.6011
  222MOL0     H29906   2.499   8.138   0.456  2.9235 -2.3572 -1.2003
  222MOL0     H29907   2.558   8.091   0.226  1.3913 -0.7371  0.7135
  222MOL0     H29908   2.422   7.975   0.210  0.8604 -3.0098 -0.0942
  222MOL0     H29909   2.499   7.833   0.348 -1.5170  0.6165  0.4206
  222MOL0     H29910   2.636   7.937   0.415 -1.7682  0.6517  0.3124
  222MOL0     H29911   2.616   7.816   0.138 -1.2360  1.3415  0.6242
  222MOL0     H29912   2.733   7.942   0.174 -0.7748 -0.6163 -1.0846
  222MOL0     H29913   2.850   7.752   0.176 -0.4942  2.6669 -1.1173
  222MOL0     H29914   2.839   7.810   0.347 -2.2959  0.0770  1.9955
  222MOL0     H29915   2.646   7.651   0.389 -0.3181  2.1140 -0.6372
  222MOL0     H29916   2.691   7.577   0.230 -1.2040  1.3143 -0.5435
  222MOL0     H29917   2.770   7.447   0.426 -1.6276  1.1202  1.5628
  222MOL0     H29918   2.841   7.577   0.507  1.0469  0.4293 -0.7273
  222MOL0     H29919   2.914   7.492   0.225  0.5150 -2.5715  0.2628
  222MOL0     H29920   3.004   7.609   0.332 -0.3096  0.9352 -1.7209
  222MOL0     H29921   3.216   7.476   0.411  3.6706 -2.3092  1.6563
  222MOL0     H29922   3.309   7.109   0.466 -2.8935 -0.2841  0.9078
  222MOL0     H29923   3.373   7.283   0.464 -1.1671  0.6051 -1.6383
  222MOL0     H29924   3.266   7.307   0.687 -5.2092 -0.5902  0.5065
  222MOL0     H29925   3.191   7.157   0.678  0.6570  0.1359  1.6688
  222MOL0     H29926   3.416   7.046   0.644 -2.0110  0.0983 -1.5132
  222MOL0     H29927   3.382   7.096   0.806 -1.9812 -0.3295 -0.2015
  222MOL0     H29928   3.491   7.335   0.765  2.4549  0.1576  0.7523
  222MOL0     H29929   3.541   7.275   0.609 -3.0961  1.8277 -0.4916
  222MOL0     H29930   3.657   7.405   0.892  0.2236  1.4176  1.5312
  222MOL0     H29931   3.883   7.503   0.940 -0.2880  0.1629 -0.5900
  222MOL0     H29932   4.431   7.253   1.038 -1.3353 -1.4131 -1.3618
  222MOL0     H29933   4.637   7.423   1.046 -2.3342  0.6808  2.3091
  222MOL0     H29934   4.738   7.643   0.685 -2.3300 -0.9472  0.4303
  222MOL0     H29935   4.659   7.765   0.790  2.3655  3.9191  1.6844
  222MOL0     H29936   4.847   7.832   0.887  0.0115  1.2703 -0.3223
  222MOL0     H29937   4.934   7.679   0.851  3.6175  3.1911  0.6999
  222MOL0     H29938   4.864   7.854   0.628 -0.9845 -0.0134  1.7067
  222MOL0     H29939   4.995   7.895   0.718 -2.6683  1.3501  1.8319
  222MOL0     H29940   4.969   7.607   0.608  1.7737 -1.6114 -2.3477
  222MOL0     H29941   5.110   7.665   0.694  1.7828 -0.8630 -1.1633
  222MOL0     H29942   5.018   7.793   0.425 -0.0095  2.5318  3.4442
  222MOL0     H29943   5.115   7.641   0.425  1.2500  1.0256 -2.3648
  222MOL0     H29944   5.193   7.914   0.528  0.1389 -0.3159 -0.2834
  222MOL0     H29945   5.279   7.768   0.568  1.3080  0.7247 -1.4210
  222MOL0     H29946   5.226   7.798   0.273 -0.4210 -2.6911 -0.3986
  222MOL0     H29947   5.357   7.715   0.363 -0.0528  0.2197 -0.9008
  222MOL0     H29948   5.323   8.018   0.326 -1.4216 -1.2371 -0.6827
  222MOL0     H29949   5.435   7.947   0.440 -2.2386 -2.1029  2.5172
  222MOL0     H29950   4.516   7.609   0.711  0.7561 -0.4352 -1.2435
  222MOL0     H29951   4.326   7.456   0.671  0.5032  1.3745 -0.1062
  222MOL0     H29952   4.054   7.116   0.817  1.3371  2.2186 -0.5914
  222MOL0     H29953   3.833   7.043   0.758 -1.7564  1.0005 -1.3323
  222MOL0     H29954   2.457   8.065   0.686  0.4001  3.1488  0.0727
  222MOL0     H29955   2.326   8.179   0.869  0.2112  0.2532  0.4221
  222MOL0     H29956   2.065   8.223   1.104 -0.3995  0.9470 -2.3827
  222MOL0     H29957   1.972   8.204   1.350  0.2548 -1.2088 -0.5872
  222MOL0     H29958   1.535   8.223   1.413 -0.8998 -2.0790 -0.9970
  222MOL0     H29959   1.587   8.173   1.571  0.9534 -1.6889 -0.1571
  222MOL0     H29960   1.587   7.995   1.329  0.2745 -0.7709 -0.8170
  222MOL0     H29961   1.476   8.002   1.450  0.1685 -0.7097 -0.1133
  222MOL0     H29962   1.769   7.939   1.471  0.5822 -2.2527  1.6396
  222MOL0     H29963   1.649   7.813   1.478  0.0492 -0.9839  2.4613
  222MOL0     H29964   1.604   7.979   1.716 -0.8935 -2.7258  1.9631
  222MOL0     H29965   1.574   7.820   1.663  0.0257 -0.3144  0.7557
  222MOL0     H29966   1.971   7.783   1.803  0.2861 -0.0725  0.0659
  222MOL0     H29967   1.581   8.236   1.210 -0.6084 -1.0364 -2.1546
  222MOL0     H29968   1.615   8.137   0.901  0.0776  0.7213 -1.7783
  222MOL0     H29969   1.517   8.238   0.982 -1.2778 -2.5389 -0.4544
  222MOL0     H29970   1.647   8.309   0.877 -1.5057  0.1894  0.0491
  223MOL0     O29971   0.112   2.896   4.663  0.3866 -0.2232 -0.2093
  223MOL0     C29972   0.183   2.945   4.751  0.7819 -0.2659 -0.4529
  223MOL0     O29973   0.323   2.951   4.755  0.1367  0.1587  0.1372
  223MOL0     C29974   0.386   2.923   4.633 -0.3496 -0.1410  0.6356
  223MOL0     C29975   0.490   2.822   4.633  0.2757  0.5919 -0.2723
  223MOL0     C29976   0.563   2.793   4.520 -0.2102  0.2981  0.5529
  223MOL0     C29977   0.537   2.848   4.395  0.1773 -0.7477 -0.3595
  223MOL0     O29978   0.599   2.811   4.280 -1.0645  0.6600 -0.9441
  223MOL0     C29979   0.580   2.887   4.160  0.7454  0.6911  0.1480
  223MOL0     C29980   0.658   2.843   4.035  0.1571  0.5512 -0.0997
  223MOL0     C29981   0.636   2.934   3.916 -0.0508  0.6870 -0.1496
  223MOL0     C29982   0.764   2.958   3.832 -0.4105  0.0426 -0.5587
  223MOL0     C29983   0.818   2.834   3.772 -0.4605 -0.2511  1.0726
  223MOL0     C29984   0.920   2.827   3.653 -0.1740 -0.3996  0.7220
  223MOL0     C29985   0.883   2.918   3.535  0.2207  0.0968 -0.4857
  223MOL0     C29986   0.990   2.926   3.429 -0.5851  0.0111 -0.1769
  223MOL0     N29987   0.959   2.989   3.299  0.1362 -0.2899 -0.3239
  223MOL0     C29988   1.039   3.084   3.231 -0.1329 -0.1526  0.3199
  223MOL0     C29989   0.936   3.133   3.146  0.1573  0.4022 -0.5356
  223MOL0     C29990   0.954   3.246   3.045  0.4266 -0.9177 -0.6295
  223MOL0     C29991   0.921   3.375   3.122  0.2225  0.2711 -0.2835
  223MOL0     C29992   0.898   3.493   3.023 -0.9046 -0.4218  0.3625
  223MOL0     C29993   0.852   3.619   3.099 -0.4124 -0.1046  0.2651
  223MOL0     O29994   0.773   3.702   3.020  0.7619  0.4345  0.2877
  223MOL0     C29995   0.725   3.823   3.057 -1.1637 -0.8933 -0.1361
  223MOL0     C29996   0.693   3.919   2.963 -0.4085 -0.6525  0.7008
  223MOL0     C29997   0.673   4.056   2.997 -0.1113 -0.3588 -0.6917
  223MOL0     C29998   0.672   4.093   3.135 -0.7876 -1.2497 -0.1324
  223MOL0     C29999   0.648   4.234   3.189 -0.4532 -0.3130  0.6057
  223MOL0     O30000   0.696   4.332   3.104 -0.3069  0.5713 -0.2093
  223MOL0     C30001   0.653   4.465   3.113 -1.1231  0.8323 -0.0487
  223MOL0     C30002   0.734   4.577   3.092 -0.6155  0.4358  0.6136
  223MOL0     C30003   0.686   4.704   3.117 -0.0936  0.6187  1.0235
  223MOL0     C30004   0.552   4.724   3.134 -0.4256 -0.3248  0.0219
  223MOL0     O30005   0.506   4.852   3.139 -0.2374  0.0246  0.1824
  223MOL0     C30006   0.384   4.880   3.205  0.2274 -0.4263  0.2981
  223MOL0     C30007   0.361   5.026   3.214  1.3382 -0.2274  0.5298
  223MOL0     C30008   0.400   5.110   3.090  0.4226 -0.7868  0.4121
  223MOL0     C30009   0.375   5.261   3.117  0.4670  0.1170  0.9102
  223MOL0     C30010   0.443   5.360   3.014  1.0287  0.2137 -0.5638
  223MOL0     C30011   0.588   5.339   3.018 -0.5641 -0.6432 -0.8115
  223MOL0     C30012   0.659   5.451   2.940 -0.3845 -0.7806 -0.3965
  223MOL0     C30013   0.801   5.443   2.983  0.2066 -0.0464 -0.2028
  223MOL0    Cl30014   0.905   5.571   2.916  0.3432 -0.2695 -0.6373
  223MOL0     C30015   0.467   4.610   3.148  0.8276 -0.2784  0.9493
  223MOL0     C30016   0.520   4.484   3.147 -0.6246  0.8806  0.6077
  223MOL0     O30017   0.624   4.252   3.304  1.0933  0.2450 -0.2252
  223MOL0     C30018   0.683   3.986   3.226 -0.6785 -0.2867  0.4628
  223MOL0     C30019   0.732   3.859   3.191  0.0801 -0.3845  0.1951
  223MOL0     N30020   0.815   3.066   3.160  0.3673  0.2870  0.0021
  223MOL0     N30021   0.839   2.967   3.245 -0.4917 -0.4301 -0.3064
  223MOL0     C30022   0.440   2.947   4.401 -0.2928 -0.0059  0.0136
  223MOL0     C30023   0.363   2.987   4.507 -0.5682 -0.7452  0.2761
  223MOL0     C30024   0.112   3.014   4.860  0.7941  0.4852 -0.6095
  223MOL0     C30025   0.024   2.948   4.942  0.3752 -0.1158 -0.4290
  223MOL0     C30026  -0.052   3.003   5.041  0.3183  0.4282  0.3118
  223MOL0     C30027  -0.027   3.132   5.081 -0.9961 -0.0620 -0.5099
  223MOL0     O30028  -0.085   3.178   5.199  0.4534  0.2702  0.4024
  223MOL0     C30029  -0.119   3.319   5.217 -0.8113 -0.9316  1.0961
  223MOL0     C30030  -0.268   3.347   5.243  0.2800  0.5122 -0.4606
  223MOL0     C30031  -0.360   3.356   5.117  0.2229  0.7011  0.8087
  223MOL0     C30032  -0.395   3.223   5.059 -0.1524  0.4398  0.6363
  223MOL0     C30033  -0.502   3.238   4.951 -0.3643 -0.6308 -1.1195
  223MOL0     C30034  -0.589   3.257   4.872  0.2466  0.5863 -0.0740
  223MOL0     C30035   0.058   3.208   4.994  0.2476  0.5281  0.1190
  223MOL0     C30036   0.132   3.148   4.891  0.0426 -0.1950  0.9675
  223MOL0     C30037   0.222   3.237   4.810 -0.4429 -0.3844  0.1547
  223MOL0     H30038   0.503   2.785   4.734 -0.9554  2.3811  0.5910
  223MOL0     H30039   0.647   2.725   4.525  0.5835  1.1899 -0.2979
  223MOL0     H30040   0.475   2.894   4.129  0.8772  0.1032 -0.4533
  223MOL0     H30041   0.610   2.989   4.184  4.1913 -0.0510 -0.5237
  223MOL0     H30042   0.621   2.747   3.999  1.9958 -0.1507 -0.2307
  223MOL0     H30043   0.764   2.831   4.058  0.4310 -0.1205 -1.5610
  223MOL0     H30044   0.615   3.033   3.958 -0.2925  1.3839 -1.8331
  223MOL0     H30045   0.562   2.874   3.862 -0.4453  1.2526 -0.2533
  223MOL0     H30046   0.755   3.035   3.755 -1.5639 -0.6748 -1.1780
  223MOL0     H30047   0.842   2.992   3.901 -0.1108  1.1290 -1.3967
  223MOL0     H30048   0.854   2.775   3.857  3.3946 -0.3559 -0.4051
  223MOL0     H30049   0.725   2.789   3.738 -0.3609  0.0254  0.4229
  223MOL0     H30050   1.022   2.862   3.675  0.9713 -1.8290 -1.8782
  223MOL0     H30051   0.920   2.729   3.605  0.2557 -0.4111  0.7445
  223MOL0     H30052   0.863   3.018   3.574 -1.1100 -0.9572  1.6936
  223MOL0     H30053   0.790   2.892   3.483 -0.3562 -0.4256  0.7642
  223MOL0     H30054   1.073   2.979   3.476  1.6578 -2.0123 -1.5684
  223MOL0     H30055   1.036   2.826   3.422  1.3995  0.7797  0.9871
  223MOL0     H30056   1.135   3.128   3.255 -0.9703  1.3083  1.1506
  223MOL0     H30057   1.055   3.249   3.002  2.2155 -0.4849  3.1032
  223MOL0     H30058   0.897   3.236   2.953  0.5963 -0.0622 -0.8416
  223MOL0     H30059   0.834   3.354   3.184  0.5811 -0.2702  0.0468
  223MOL0     H30060   1.003   3.397   3.191  0.4044  1.2453 -0.7909
  223MOL0     H30061   0.816   3.477   2.952 -2.0671  0.1143  1.5456
  223MOL0     H30062   0.986   3.527   2.967 -1.5651 -0.3571 -0.6614
  223MOL0     H30063   0.940   3.657   3.152 -1.2083  2.0181  0.1914
  223MOL0     H30064   0.782   3.587   3.177 -0.1410 -4.0447 -0.9316
  223MOL0     H30065   0.707   3.901   2.857 -1.8092  0.6523  0.2630
  223MOL0     H30066   0.663   4.135   2.923  4.1927  3.0904  1.9094
  223MOL0     H30067   0.840   4.556   3.082 -0.6039  0.1041  1.3554
  223MOL0     H30068   0.743   4.796   3.113 -3.2778  2.7317  0.3706
  223MOL0     H30069   0.304   4.844   3.140 -1.3753  1.9294  0.8516
  223MOL0     H30070   0.387   4.829   3.302  0.2746  0.6520  0.8802
  223MOL0     H30071   0.251   5.027   3.211  1.2215 -2.5926  1.9703
  223MOL0     H30072   0.400   5.075   3.303  1.3465 -0.4717  0.6603
  223MOL0     H30073   0.505   5.093   3.065 -0.0073 -1.9300 -0.7389
  223MOL0     H30074   0.351   5.074   2.999  3.6445 -0.7965 -1.4507
  223MOL0     H30075   0.408   5.292   3.216  4.6378 -0.3506 -0.1555
  223MOL0     H30076   0.266   5.268   3.114  0.2265 -1.4424 -4.2934
  223MOL0     H30077   0.425   5.463   3.048  2.7552  0.6451 -0.8895
  223MOL0     H30078   0.394   5.361   2.915 -0.4940  0.0861  0.1588
  223MOL0     H30079   0.613   5.341   3.124 -2.0789  2.0205 -0.4305
  223MOL0     H30080   0.615   5.245   2.968 -2.3843 -1.0030 -1.1954
  223MOL0     H30081   0.627   5.552   2.969  1.0525 -0.3054 -0.3439
  223MOL0     H30082   0.642   5.447   2.832  2.0490  0.2853 -0.8964
  223MOL0     H30083   0.818   5.441   3.091  1.6783  3.4432 -0.2278
  223MOL0     H30084   0.836   5.346   2.946 -1.6435 -0.9204  0.2026
  223MOL0     H30085   0.362   4.624   3.171  0.8763  1.3777  0.2904
  223MOL0     H30086   0.455   4.399   3.130 -0.1433  0.6731 -0.3044
  223MOL0     H30087   0.675   4.011   3.331  0.4665 -0.3222  0.5649
  223MOL0     H30088   0.765   3.793   3.271  0.8078  5.2808  5.3290
  223MOL0     H30089   0.419   3.009   4.315 -1.0100 -0.7269 -0.3465
  223MOL0     H30090   0.297   3.072   4.496  0.8063  0.0950 -1.9445
  223MOL0     H30091   0.015   2.841   4.925  0.8001 -0.0048 -1.4668
  223MOL0     H30092  -0.118   2.938   5.097 -0.9627  2.0414  0.7451
  223MOL0     H30093  -0.094   3.383   5.132 -0.7185  0.1768  1.9450
  223MOL0     H30094  -0.054   3.363   5.293  0.2605  1.2891 -0.9909
  223MOL0     H30095  -0.276   3.447   5.288 -1.4537  0.1321  0.1527
  223MOL0     H30096  -0.300   3.274   5.318  6.5761  2.0358  4.6318
  223MOL0     H30097  -0.307   3.415   5.042  1.6570  1.4743  2.3736
  223MOL0     H30098  -0.446   3.413   5.154  2.1568  1.2848  4.9257
  223MOL0     H30099  -0.306   3.168   5.027 -0.9520  0.6108 -2.1245
  223MOL0     H30100  -0.465   3.168   5.123 -2.8019 -0.7633 -2.9519
  223MOL0     H30101  -0.658   3.267   4.790  1.0440 -3.5481 -1.5114
  223MOL0     H30102   0.061   3.315   5.013 -0.9589  0.5991  0.0179
  223MOL0     H30103   0.323   3.209   4.842  1.2123  1.8419 -2.5697
  223MOL0     H30104   0.208   3.208   4.706  0.9105 -1.8004  0.3423
  223MOL0     H30105   0.191   3.342   4.819  0.7767  0.0389 -0.2718
  224MOL0     O30106   9.209   9.211   3.543  0.4940  0.2046  0.7798
  224MOL0     C30107   9.177   9.099   3.576 -0.1311 -1.1577  1.2106
  224MOL0     O30108   9.044   9.060   3.592  0.1096  0.2029  0.5728
  224MOL0     C30109   8.947   9.144   3.539 -0.1538  0.0364 -0.1856
  224MOL0     C30110   8.838   9.171   3.628  0.3729  0.0406  0.2232
  224MOL0     C30111   8.722   9.233   3.573 -0.3898 -0.1060 -0.9060
  224MOL0     C30112   8.727   9.285   3.444  0.6247 -0.1714  0.8855
  224MOL0     O30113   8.621   9.362   3.391  0.6606 -0.3717 -0.2419
  224MOL0     C30114   8.618   9.501   3.422  0.3565 -0.2747  0.4441
  224MOL0     C30115   8.528   9.541   3.543  0.0973 -0.1773  0.9669
  224MOL0     C30116   8.534   9.696   3.545 -0.7627 -0.7839 -0.5274
  224MOL0     C30117   8.436   9.759   3.641 -0.0681  0.0928 -0.1342
  224MOL0     C30118   8.485   9.895   3.674 -0.0872 -0.3927  1.1120
  224MOL0     C30119   8.397   9.988   3.764  0.7282 -0.1613  0.0332
  224MOL0     C30120   8.356   9.933   3.905 -0.2773 -0.3664 -0.0826
  224MOL0     C30121   8.239  10.006   3.967  0.7118  0.1841 -0.4889
  224MOL0     N30122   8.280  10.140   3.989 -0.9959 -0.6662  1.2648
  224MOL0     C30123   8.285  10.250   3.906 -0.0386  0.8055  1.1092
  224MOL0     C30124   8.341  10.347   3.981 -0.5207  0.9567  0.9382
  224MOL0     C30125   8.358  10.488   3.929  0.9984  0.0040 -0.5750
  224MOL0     C30126   8.503  10.505   3.874  0.1561  0.3019  0.5607
  224MOL0     C30127   8.601  10.475   3.981 -0.1709  0.7525  0.0116
  224MOL0     C30128   8.737  10.538   3.951  0.1948  0.2229 -0.3812
  224MOL0     O30129   8.796  10.511   3.826  0.1018  0.0418  0.8452
  224MOL0     C30130   8.872  10.393   3.824  0.6862 -1.5303 -0.6659
  224MOL0     C30131   8.849  10.293   3.731  0.3547  0.0455  1.0329
  224MOL0     C30132   8.944  10.191   3.708  0.3158  0.2864 -0.4502
  224MOL0     C30133   9.063  10.186   3.783  0.2957 -0.4158 -0.0051
  224MOL0     C30134   9.154  10.073   3.781  0.1915  0.0801  0.3929
  224MOL0     O30135   9.280  10.090   3.838  0.2518  0.3521  0.4151
  224MOL0     C30136   9.361   9.979   3.824  0.0886 -1.5108  0.8214
  224MOL0     C30137   9.441   9.978   3.707 -0.2235  0.5872 -0.0914
  224MOL0     C30138   9.528   9.870   3.686 -0.6288 -0.0812 -0.1610
  224MOL0     C30139   9.547   9.776   3.779  0.3298  0.7140  0.3813
  224MOL0     O30140   9.625   9.661   3.753  0.1668 -0.1506  0.0145
  224MOL0     C30141   9.742   9.686   3.669  0.3338  1.0178 -0.5585
  224MOL0     C30142   9.857   9.581   3.679 -1.0116 -0.2228 -0.1950
  224MOL0     C30143   9.831   9.447   3.615  0.1659  0.4211  0.3657
  224MOL0     C30144   9.949   9.353   3.644 -0.5847 -0.2751 -0.0110
  224MOL0     C30145   9.934   9.211   3.589 -0.7293 -0.5348 -0.3295
  224MOL0     C30146   9.960   9.207   3.437  0.5572 -0.3421  0.9653
  224MOL0     C30147  10.020   9.072   3.389  0.6133  0.0296  0.1649
  224MOL0     C30148   9.926   8.955   3.404 -0.4896 -0.1810 -0.2655
  224MOL0    Cl30149   9.830   8.981   3.258 -0.1713 -0.1639 -0.1994
  224MOL0     C30150   9.470   9.779   3.900  0.5538 -1.1191 -0.3953
  224MOL0     C30151   9.375   9.883   3.926 -1.2908  0.8973  0.2995
  224MOL0     O30152   9.118   9.974   3.719  0.4236  0.4743  0.0026
  224MOL0     C30153   9.089  10.289   3.879 -0.1581 -0.2756  0.0246
  224MOL0     C30154   8.997  10.390   3.896 -0.4509  0.5740 -0.2541
  224MOL0     N30155   8.387  10.293   4.095 -0.1459 -0.1394 -0.1652
  224MOL0     N30156   8.344  10.177   4.110 -0.1826 -0.4827 -0.1914
  224MOL0     C30157   8.844   9.269   3.363 -0.4092 -0.0570  0.3641
  224MOL0     C30158   8.946   9.189   3.409 -1.2980  0.1958  0.1843
  224MOL0     C30159   9.288   9.006   3.628  0.2969 -0.2863 -0.4929
  224MOL0     C30160   9.251   8.885   3.697  0.6308 -0.2648  1.0992
  224MOL0     C30161   9.348   8.800   3.739  0.7392  0.9340 -0.7374
  224MOL0     C30162   9.481   8.801   3.696 -0.0382 -0.6352  0.0802
  224MOL0     O30163   9.575   8.717   3.742  0.4009  0.9593 -0.1285
  224MOL0     C30164   9.692   8.697   3.651  0.6149  0.1452  0.6453
  224MOL0     C30165   9.749   8.555   3.655  0.4574 -0.1981  0.6484
  224MOL0     C30166   9.851   8.538   3.542  0.2542 -0.1539 -1.2077
  224MOL0     C30167   9.893   8.389   3.519  0.1491  0.7321 -0.3810
  224MOL0     C30168  10.011   8.390   3.432 -0.5457 -0.2920  0.6051
  224MOL0     C30169  10.111   8.387   3.363  0.0906 -0.1348 -0.2609
  224MOL0     C30170   9.518   8.921   3.630 -0.4477 -0.5648  0.2006
  224MOL0     C30171   9.424   9.018   3.588  0.7101 -0.1512 -0.3614
  224MOL0     C30172   9.479   9.136   3.533 -0.6013  0.3246 -0.2882
  224MOL0     H30173   8.834   9.126   3.727 -2.0458  1.3163  0.7685
  224MOL0     H30174   8.637   9.242   3.640 -1.2150  1.5827 -2.1239
  224MOL0     H30175   8.723   9.530   3.438  0.9988 -2.2177  0.0000
  224MOL0     H30176   8.590   9.546   3.327  2.1483  1.9123  0.8407
  224MOL0     H30177   8.563   9.497   3.636 -1.0588 -0.6046  1.2113
  224MOL0     H30178   8.428   9.507   3.515 -0.5954 -0.9247  3.9917
  224MOL0     H30179   8.530   9.733   3.442  2.5987  1.5997  0.0260
  224MOL0     H30180   8.638   9.722   3.569 -1.3699 -0.6114  2.2125
  224MOL0     H30181   8.332   9.758   3.607 -1.1469  1.5218  2.7933
  224MOL0     H30182   8.440   9.694   3.728  1.0295  4.2391  3.2754
  224MOL0     H30183   8.585   9.886   3.718  0.0090 -1.4944  0.7023
  224MOL0     H30184   8.496   9.946   3.578  1.0691  0.9679  1.9279
  224MOL0     H30185   8.447  10.085   3.762  0.0373  0.2266  0.7721
  224MOL0     H30186   8.305  10.007   3.708  0.6185 -1.2148 -0.1681
  224MOL0     H30187   8.441   9.944   3.973  1.2343  1.3427 -2.1153
  224MOL0     H30188   8.326   9.829   3.890  1.6432 -1.1052  0.7843
  224MOL0     H30189   8.152  10.007   3.900  1.2082 -0.1837 -1.1462
  224MOL0     H30190   8.194   9.951   4.050  1.3330  2.0029  1.1366
  224MOL0     H30191   8.243  10.251   3.806 -2.9921 -2.2905  2.1134
  224MOL0     H30192   8.290  10.507   3.845  0.7389 -0.9688 -0.5911
  224MOL0     H30193   8.353  10.551   4.018  0.8705 -1.4597  0.4894
  224MOL0     H30194   8.524  10.434   3.794 -0.1181  1.6957 -0.7855
  224MOL0     H30195   8.512  10.607   3.838  0.8699  0.7172  1.8550
  224MOL0     H30196   8.620  10.368   3.989 -1.0068  0.4152 -2.0498
  224MOL0     H30197   8.557  10.513   4.074  0.4748 -0.7236  0.9587
  224MOL0     H30198   8.805  10.520   4.035 -0.7172 -0.8437  0.1478
  224MOL0     H30199   8.724  10.646   3.939 -2.5142 -0.0805 -0.8821
  224MOL0     H30200   8.755  10.298   3.676  1.5607  1.2395 -1.0411
  224MOL0     H30201   8.918  10.107   3.645  0.4012  0.3579 -0.5827
  224MOL0     H30202   9.439  10.050   3.626  1.3471 -0.4083 -1.0721
  224MOL0     H30203   9.579   9.867   3.590 -1.3382  2.5222 -0.7126
  224MOL0     H30204   9.714   9.703   3.565 -3.4080  1.1820  0.3435
  224MOL0     H30205   9.783   9.779   3.708  0.8278 -0.0994  1.7572
  224MOL0     H30206   9.945   9.634   3.642 -1.5042 -0.4171 -1.7290
  224MOL0     H30207   9.871   9.564   3.786 -1.3107  0.0212 -0.1151
  224MOL0     H30208   9.734   9.413   3.652 -0.9631  2.4530 -0.5625
  224MOL0     H30209   9.810   9.461   3.508 -3.6075  1.3776  1.0881
  224MOL0     H30210   9.962   9.352   3.753 -2.2025  1.7646  0.2683
  224MOL0     H30211  10.033   9.407   3.600 -2.2262  2.8693  0.4447
  224MOL0     H30212   9.839   9.164   3.618 -1.2693  0.4876 -0.3651
  224MOL0     H30213  10.007   9.152   3.645 -1.2444  2.1957  3.6510
  224MOL0     H30214   9.868   9.222   3.379  0.9561 -0.1891  0.3618
  224MOL0     H30215  10.039   9.275   3.404 -0.4464  0.1613 -0.5096
  224MOL0     H30216  10.114   9.058   3.442 -1.1294 -3.6385  2.6903
  224MOL0     H30217  10.049   9.095   3.286  0.0696 -0.5414 -0.1247
  224MOL0     H30218   9.987   8.865   3.396  0.9303  0.8107 -1.0718
  224MOL0     H30219   9.865   8.954   3.495 -0.1506 -1.2794 -0.0418
  224MOL0     H30220   9.488   9.717   3.987  1.4275 -1.3021 -0.6988
  224MOL0     H30221   9.318   9.890   4.019  0.3671 -1.3553  1.5774
  224MOL0     H30222   9.175  10.273   3.943 -0.4438  0.5817  0.6378
  224MOL0     H30223   9.006  10.473   3.965 -2.6819  0.4887  0.2271
  224MOL0     H30224   8.866   9.314   3.267  2.5914  1.1473  1.5033
  224MOL0     H30225   9.032   9.171   3.344  1.3001  0.5607  3.2836
  224MOL0     H30226   9.146   8.872   3.721  0.8319 -3.0501  0.7256
  224MOL0     H30227   9.327   8.720   3.810  0.9357  2.2384  0.8345
  224MOL0     H30228   9.762   8.777   3.674 -2.6431  3.1834  0.8857
  224MOL0     H30229   9.650   8.710   3.551 -3.2176  0.4946  2.1023
  224MOL0     H30230   9.667   8.486   3.636  0.6343 -0.0596 -0.7070
  224MOL0     H30231   9.798   8.547   3.753  0.1042  0.5235  0.8847
  224MOL0     H30232   9.942   8.591   3.573  0.0272 -0.7139  0.5611
  224MOL0     H30233   9.806   8.581   3.452 -3.0114  2.1578  1.2638
  224MOL0     H30234   9.927   8.352   3.617  1.4304  2.8749  0.0404
  224MOL0     H30235   9.814   8.324   3.481  0.6221  0.8900 -1.6963
  224MOL0     H30236  10.209   8.396   3.321  1.1796  2.2267  2.5078
  224MOL0     H30237   9.619   8.932   3.590 -0.2187 -3.7379 -0.3762
  224MOL0     H30238   9.485   9.216   3.608  2.0273 -0.9211  0.9378
  224MOL0     H30239   9.581   9.118   3.500 -1.0273  2.1591 -2.8717
  224MOL0     H30240   9.416   9.180   3.455 -0.5245  0.7926 -0.0907
  225MOL0     O30241   6.473  11.247   5.793 -0.1264 -0.5697  0.0468
  225MOL0     C30242   6.361  11.230   5.837  0.3803  0.2529 -0.1103
  225MOL0     O30243   6.338  11.171   5.971  0.1330 -0.6810  0.4528
  225MOL0     C30244   6.437  11.107   6.034 -0.0060 -0.1335  0.7682
  225MOL0     C30245   6.545  11.161   6.095  0.3589 -0.4694 -0.2450
  225MOL0     C30246   6.633  11.083   6.170 -0.3336 -0.0561  0.5080
  225MOL0     C30247   6.611  10.945   6.183  0.2293  0.0706 -0.3012
  225MOL0     O30248   6.704  10.873   6.256 -0.3645 -0.4810  0.7692
  225MOL0     C30249   6.694  10.736   6.276  0.3822 -0.3018 -0.3158
  225MOL0     C30250   6.808  10.691   6.377  0.7380 -0.0789  0.7170
  225MOL0     C30251   6.816  10.541   6.387 -0.3644 -0.0223  0.3226
  225MOL0     C30252   6.915  10.511   6.510  0.5131  0.8380 -0.1259
  225MOL0     C30253   6.974  10.378   6.519  0.8252  1.1382  0.5870
  225MOL0     C30254   7.070  10.360   6.632  0.2022  0.1746  0.4233
  225MOL0     C30255   7.142  10.228   6.629  0.3059  0.3160  0.0442
  225MOL0     C30256   7.241  10.222   6.509 -0.1250  0.3891 -0.3627
  225MOL0     N30257   7.290  10.081   6.490  0.0581 -0.5469  1.0372
  225MOL0     C30258   7.292   9.975   6.570 -0.1938  1.6992 -0.3999
  225MOL0     C30259   7.341   9.866   6.505 -0.5961 -0.3597  0.0829
  225MOL0     C30260   7.359   9.732   6.566 -0.3815  0.5199 -0.7606
  225MOL0     C30261   7.292   9.614   6.495  0.0502 -0.8689 -0.6370
  225MOL0     C30262   7.236   9.651   6.357 -0.2752 -0.0913 -0.3815
  225MOL0     C30263   7.200   9.522   6.273 -0.0722 -1.0283 -0.9093
  225MOL0     O30264   7.317   9.438   6.280  0.4105  0.1738  0.1715
  225MOL0     C30265   7.305   9.328   6.191  1.2672 -0.6694 -1.1797
  225MOL0     C30266   7.387   9.218   6.203 -0.0732  0.3435 -0.3554
  225MOL0     C30267   7.380   9.104   6.127  0.6635  0.7507 -0.2720
  225MOL0     C30268   7.274   9.083   6.036 -0.5122 -0.1925  0.6585
  225MOL0     C30269   7.253   8.957   5.967  0.0611 -0.3845 -1.4848
  225MOL0     O30270   7.211   8.969   5.833 -0.4693 -0.0083 -0.5223
  225MOL0     C30271   7.174   8.863   5.751 -0.0883  0.1127 -0.1180
  225MOL0     C30272   7.174   8.891   5.611  1.0747 -0.6475 -0.2395
  225MOL0     C30273   7.141   8.789   5.522 -0.1214  0.7770 -0.1593
  225MOL0     C30274   7.098   8.654   5.563  0.8348  0.4671 -0.7410
  225MOL0     O30275   7.076   8.552   5.476  0.1172  0.2216  0.1021
  225MOL0     C30276   6.989   8.445   5.532  0.1936  0.6388  0.6084
  225MOL0     C30277   6.932   8.332   5.438  0.7383 -0.3223  0.0437
  225MOL0     C30278   6.780   8.305   5.457  0.0203 -0.1673 -0.1466
  225MOL0     C30279   6.687   8.413   5.416  0.8878 -0.4184 -0.4459
  225MOL0     C30280   6.541   8.365   5.424  0.7695 -0.3169 -0.4069
  225MOL0     C30281   6.468   8.336   5.566 -0.0805  1.2117  0.7014
  225MOL0     C30282   6.324   8.271   5.556 -0.4867 -0.5088 -0.3681
  225MOL0     C30283   6.235   8.367   5.479  0.5509  0.7757 -0.9729
  225MOL0    Cl30284   6.068   8.323   5.522  0.6383  0.3744 -0.2329
  225MOL0     C30285   7.092   8.637   5.701  0.4541  0.1596  0.0144
  225MOL0     C30286   7.126   8.738   5.794 -0.5632  0.4061  0.2595
  225MOL0     O30287   7.267   8.853   6.036  0.1705  0.4199  0.0409
  225MOL0     C30288   7.189   9.194   6.019  0.3311  0.2459  0.6656
  225MOL0     C30289   7.206   9.312   6.095 -0.4349 -0.3674 -0.8278
  225MOL0     N30290   7.387   9.918   6.384  0.0343  0.2255 -0.4180
  225MOL0     N30291   7.356  10.047   6.372 -0.2728  0.3295 -0.1622
  225MOL0     C30292   6.495  10.892   6.134  0.1937 -0.5548  0.8212
  225MOL0     C30293   6.412  10.974   6.053  0.3291  0.2016  0.1467
  225MOL0     C30294   6.248  11.308   5.771  0.4353  0.2216  0.9620
  225MOL0     C30295   6.153  11.366   5.861  0.6103  0.3270  1.3788
  225MOL0     C30296   6.057  11.464   5.806  0.1073  0.3498  0.4769
  225MOL0     C30297   6.063  11.496   5.671 -0.6194 -0.4001 -0.7426
  225MOL0     O30298   5.993  11.597   5.603  0.2221  0.1544 -0.5143
  225MOL0     C30299   5.881  11.666   5.662 -0.3211 -0.1509  0.8290
  225MOL0     C30300   5.828  11.780   5.573  0.1671 -0.5090  0.1591
  225MOL0     C30301   5.912  11.911   5.578 -1.1283 -0.1367  0.8895
  225MOL0     C30302   5.838  12.036   5.534  0.0046 -0.8374  0.0198
  225MOL0     C30303   5.782  12.044   5.401  0.3588  0.4084  0.7574
  225MOL0     C30304   5.725  12.020   5.296  0.1131  0.0109  0.1842
  225MOL0     C30305   6.144  11.423   5.588 -0.0426  0.2374 -0.3304
  225MOL0     C30306   6.242  11.333   5.632  0.1200  1.0821  0.1442
  225MOL0     C30307   6.347  11.286   5.531 -0.5292 -0.0276 -0.0877
  225MOL0     H30308   6.567  11.266   6.084  1.5214 -0.6760 -0.0374
  225MOL0     H30309   6.728  11.124   6.204  1.0647 -1.1927 -1.7965
  225MOL0     H30310   6.602  10.713   6.331  1.4024 -1.2078  1.0395
  225MOL0     H30311   6.700  10.683   6.180  1.1518 -0.3354 -0.2497
  225MOL0     H30312   6.779  10.728   6.476  0.6361 -0.6951  0.9285
  225MOL0     H30313   6.900  10.735   6.339  0.3089  0.7260  0.5947
  225MOL0     H30314   6.857  10.503   6.293 -4.7530 -1.7033 -1.1913
  225MOL0     H30315   6.719  10.492   6.401 -0.9259  0.8267 -0.4595
  225MOL0     H30316   6.997  10.584   6.505  1.4677 -0.0426  1.5035
  225MOL0     H30317   6.863  10.536   6.604  3.1434  2.3628  1.0409
  225MOL0     H30318   6.903  10.296   6.532 -0.6439  2.5765  2.2534
  225MOL0     H30319   7.029  10.366   6.425 -0.2441 -2.3254  0.2627
  225MOL0     H30320   7.135  10.447   6.644 -1.5590  2.0067 -2.2124
  225MOL0     H30321   7.003  10.353   6.719 -0.6601  1.0920 -0.1401
  225MOL0     H30322   7.074  10.144   6.620 -0.0846  0.7014 -0.7250
  225MOL0     H30323   7.194  10.221   6.725  0.5754 -3.5848 -0.2510
  225MOL0     H30324   7.191  10.251   6.416  1.2353  2.5775 -0.4935
  225MOL0     H30325   7.324  10.291   6.530 -1.6156  1.4177  2.8289
  225MOL0     H30326   7.251   9.979   6.671 -0.8203 -2.1467 -0.3403
  225MOL0     H30327   7.467   9.721   6.552 -0.0232  2.6584  0.0260
  225MOL0     H30328   7.324   9.723   6.669 -0.6746 -0.3226 -0.9258
  225MOL0     H30329   7.361   9.530   6.505  1.0822  0.2714  3.6059
  225MOL0     H30330   7.201   9.589   6.551 -1.7202  3.8774 -0.9726
  225MOL0     H30331   7.308   9.708   6.297 -0.9323  1.1662 -0.0116
  225MOL0     H30332   7.144   9.709   6.372  0.2693  0.9046 -0.7899
  225MOL0     H30333   7.175   9.550   6.170 -1.1519 -6.1770 -2.3501
  225MOL0     H30334   7.114   9.463   6.307  2.0537 -2.3473  2.7125
  225MOL0     H30335   7.452   9.231   6.289 -1.7225 -3.2058  1.6194
  225MOL0     H30336   7.440   9.016   6.147 -0.3400  0.3485  1.1673
  225MOL0     H30337   7.193   8.992   5.577  1.1614 -0.4989  0.2558
  225MOL0     H30338   7.167   8.800   5.417  2.4399  0.8833  0.4439
  225MOL0     H30339   7.054   8.382   5.593 -3.4187 -1.9749  2.1360
  225MOL0     H30340   6.913   8.478   5.604  1.1802 -0.7401  2.3660
  225MOL0     H30341   6.949   8.357   5.332  1.3655 -2.2649 -0.3452
  225MOL0     H30342   6.982   8.235   5.434  1.7055  0.1941 -1.2422
  225MOL0     H30343   6.762   8.210   5.407  0.0659  0.3912 -1.2476
  225MOL0     H30344   6.779   8.276   5.563 -1.5724  0.1754 -0.0422
  225MOL0     H30345   6.716   8.450   5.317 -1.2422 -0.0996 -0.9883
  225MOL0     H30346   6.707   8.490   5.492  3.3150 -0.7161 -0.6936
  225MOL0     H30347   6.539   8.268   5.373 -0.9918 -1.2236  1.2973
  225MOL0     H30348   6.476   8.435   5.371 -3.1547 -1.5416  2.3412
  225MOL0     H30349   6.524   8.261   5.623  1.3588 -0.3974 -2.5259
  225MOL0     H30350   6.461   8.428   5.625 -0.9038  1.9558 -0.5044
  225MOL0     H30351   6.299   8.260   5.662  1.5982  1.3868  0.4226
  225MOL0     H30352   6.322   8.175   5.505 -0.9219 -0.9869  0.5368
  225MOL0     H30353   6.251   8.473   5.502 -3.5544  1.0296  1.6809
  225MOL0     H30354   6.258   8.355   5.373  0.7888 -1.4597 -0.7289
  225MOL0     H30355   7.065   8.542   5.746 -1.2584 -0.6568 -2.5248
  225MOL0     H30356   7.121   8.708   5.899 -1.2846  1.9564  0.6933
  225MOL0     H30357   7.117   9.184   5.938  0.9019  2.6434 -0.2352
  225MOL0     H30358   7.136   9.390   6.069  0.0191 -0.2414 -1.7061
  225MOL0     H30359   6.453  10.792   6.128  1.6843 -1.2476  1.3545
  225MOL0     H30360   6.333  10.935   5.990  0.9252  1.2099 -1.2772
  225MOL0     H30361   6.149  11.356   5.969 -0.4869  2.4852  1.5868
  225MOL0     H30362   5.980  11.505   5.871  0.4328 -0.4200  1.3835
  225MOL0     H30363   5.914  11.712   5.755  2.0884  3.4864 -1.5567
  225MOL0     H30364   5.803  11.592   5.679  1.5016 -2.8130 -1.5202
  225MOL0     H30365   5.727  11.796   5.613  0.8278 -3.1116  3.2409
  225MOL0     H30366   5.833  11.740   5.471 -0.3177 -1.7515  0.6144
  225MOL0     H30367   6.008  11.893   5.528 -1.2372 -4.5855  1.8364
  225MOL0     H30368   5.937  11.925   5.684 -1.4640  1.4771  0.7788
  225MOL0     H30369   5.756  12.058   5.603  0.1515  2.8226 -0.7730
  225MOL0     H30370   5.909  12.119   5.543  1.9557 -2.6198  1.8785
  225MOL0     H30371   5.694  12.002   5.195 -2.2145  0.7399  0.7006
  225MOL0     H30372   6.152  11.461   5.486 -1.3910  1.5133  0.0111
  225MOL0     H30373   6.454  11.284   5.551 -0.2378  2.7822 -0.8654
  225MOL0     H30374   6.323  11.183   5.504  0.8535 -0.6503  0.9624
  225MOL0     H30375   6.343  11.343   5.437  2.3476  0.6026  0.0926
  226MOL0     O30376   5.268   3.895  10.773 -0.3191 -0.0893  0.2049
  226MOL0     C30377   5.296   3.803  10.711 -0.2447 -0.5524 -0.2803
  226MOL0     O30378   5.396   3.722  10.752  0.4575  0.4674 -0.1360
  226MOL0     C30379   5.485   3.775  10.836 -1.8645  0.0207 -0.7709
  226MOL0     C30380   5.455   3.780  10.979  0.4875  0.5480 -0.4501
  226MOL0     C30381   5.550   3.844  11.066 -0.3877 -0.7626 -0.1251
  226MOL0     C30382   5.673   3.879  11.013 -0.7798  0.1018  0.2287
  226MOL0     O30383   5.771   3.916  11.102 -0.5335  0.5303  0.2956
  226MOL0     C30384   5.878   4.005  11.063  0.7994  0.6176  0.2542
  226MOL0     C30385   5.928   4.058  11.193 -0.1260  1.0820  0.4979
  226MOL0     C30386   6.057   3.982  11.254  0.5575 -0.6218  0.2812
  226MOL0     C30387   6.089   4.023  11.399 -0.0566  0.1758 -0.5943
  226MOL0     C30388   6.162   3.912  11.466  0.0872  0.1319  0.2308
  226MOL0     C30389   6.304   3.867  11.411  1.2895  0.5165 -0.3818
  226MOL0     C30390   6.370   3.769  11.503  0.2070 -0.0106 -0.1303
  226MOL0     C30391   6.472   3.683  11.437 -0.2432  0.6018 -0.7562
  226MOL0     N30392   6.580   3.754  11.359  0.1957 -0.1155  0.0215
  226MOL0     C30393   6.696   3.821  11.406  0.0432 -0.3781  0.5519
  226MOL0     C30394   6.751   3.879  11.298  0.3192 -0.0257 -0.4060
  226MOL0     C30395   6.871   3.969  11.309  0.1404  0.2334 -0.5390
  226MOL0     C30396   6.977   3.939  11.193 -0.4307 -0.4390  0.2737
  226MOL0     C30397   7.080   4.056  11.187  0.3631 -0.2188  0.3472
  226MOL0     C30398   7.151   4.070  11.051 -0.4499 -0.6909 -0.8150
  226MOL0     O30399   7.062   4.096  10.934  0.8573  0.4254  0.2274
  226MOL0     C30400   7.131   4.111  10.820 -0.7323  0.6547  1.2416
  226MOL0     C30401   7.058   4.165  10.715  0.0310 -0.1194 -0.4318
  226MOL0     C30402   7.113   4.181  10.589  0.0238 -0.2730  1.0871
  226MOL0     C30403   7.252   4.159  10.571 -0.8384  0.4250  0.1328
  226MOL0     C30404   7.317   4.185  10.440 -0.0225 -0.3600  0.8812
  226MOL0     O30405   7.459   4.167  10.416  0.5296  0.3652 -0.2021
  226MOL0     C30406   7.512   4.204  10.296 -0.1970  0.2796  0.2790
  226MOL0     C30407   7.469   4.304  10.218 -0.1153  0.5032  0.3424
  226MOL0     C30408   7.542   4.342  10.106  0.7100 -0.1497  0.2684
  226MOL0     C30409   7.647   4.261  10.066  0.0767 -0.2099 -0.0687
  226MOL0     O30410   7.724   4.301   9.954 -0.9882 -0.2748  0.5899
  226MOL0     C30411   7.855   4.240   9.945 -0.1387  0.8449  0.5865
  226MOL0     C30412   7.925   4.299   9.818 -0.9912 -0.3865 -0.1169
  226MOL0     C30413   8.065   4.246   9.797 -0.2706 -0.1327  0.2807
  226MOL0     C30414   8.162   4.288   9.916  0.6982  0.5411  0.8621
  226MOL0     C30415   8.312   4.268   9.868 -0.0586  0.7630 -0.2245
  226MOL0     C30416   8.401   4.373   9.921 -0.2340 -0.8001 -0.3305
  226MOL0     C30417   8.548   4.339   9.906 -0.9067  0.5423 -0.5254
  226MOL0     C30418   8.596   4.254  10.032 -0.3082  0.1208  1.1209
  226MOL0    Cl30419   8.649   4.388  10.153  0.3335  0.1031  0.0129
  226MOL0     C30420   7.682   4.136  10.137  0.6411  0.1352  1.4523
  226MOL0     C30421   7.615   4.121  10.255 -0.5375 -0.5973 -0.3609
  226MOL0     O30422   7.238   4.221  10.353  0.2621  0.4015 -0.1641
  226MOL0     C30423   7.324   4.111  10.673 -0.1158 -0.8463 -0.2368
  226MOL0     C30424   7.263   4.091  10.797 -0.0137  1.0599  0.5447
  226MOL0     N30425   6.671   3.848  11.191 -0.0754  0.4119 -0.1159
  226MOL0     N30426   6.578   3.762  11.226 -0.0681  0.0353  0.3367
  226MOL0     C30427   5.705   3.861  10.879 -0.0246  0.2086  0.3989
  226MOL0     C30428   5.609   3.815  10.786 -0.4651  0.5893 -0.4058
  226MOL0     C30429   5.225   3.777  10.590  0.0755  0.9660 -0.0723
  226MOL0     C30430   5.259   3.657  10.521  0.3614 -0.6931 -0.3870
  226MOL0     C30431   5.213   3.627  10.395 -0.5907  0.8540 -0.7374
  226MOL0     C30432   5.144   3.727  10.325  0.1402  0.5085  0.4478
  226MOL0     O30433   5.098   3.712  10.196  0.0733 -0.2853  0.2168
  226MOL0     C30434   5.091   3.591  10.125  0.8224  0.3303  0.1209
  226MOL0     C30435   4.961   3.601  10.039 -0.1952 -0.2058 -0.0746
  226MOL0     C30436   4.993   3.672   9.907  0.1948  0.5286  0.2398
  226MOL0     C30437   4.885   3.667   9.800 -0.1734 -0.5071 -0.3330
  226MOL0     C30438   4.931   3.672   9.665  0.4262  0.4264  0.0828
  226MOL0     C30439   4.976   3.670   9.550 -0.1531  0.1537  0.5530
  226MOL0     C30440   5.108   3.846  10.388 -0.2821 -0.7473 -0.4942
  226MOL0     C30441   5.161   3.881  10.515  0.6411 -0.0166 -0.6138
  226MOL0     C30442   5.131   4.018  10.569  0.0598 -0.8179 -0.7156
  226MOL0     H30443   5.355   3.750  11.011 -0.5298  1.0153 -2.9190
  226MOL0     H30444   5.535   3.861  11.172  1.9238  2.9607 -0.2149
  226MOL0     H30445   5.957   3.970  10.996  0.4998 -1.6272  0.9904
  226MOL0     H30446   5.819   4.077  11.006  1.5324 -0.2242 -1.6648
  226MOL0     H30447   5.842   4.060  11.261 -2.2711 -2.6410 -1.7182
  226MOL0     H30448   5.960   4.160  11.170  0.4531  1.2490  1.9628
  226MOL0     H30449   6.145   3.996  11.190  1.7828  0.5924  2.1224
  226MOL0     H30450   6.025   3.878  11.260 -1.5824 -0.0308  0.0086
  226MOL0     H30451   6.146   4.115  11.405 -1.5659  1.1150  0.0009
  226MOL0     H30452   5.997   4.041  11.457 -0.9919 -0.9290 -1.6614
  226MOL0     H30453   6.178   3.959  11.564  0.3781 -1.7073  1.1200
  226MOL0     H30454   6.103   3.820  11.475  1.1416 -0.8633 -2.1938
  226MOL0     H30455   6.283   3.797  11.330 -2.9517 -2.3482  2.7789
  226MOL0     H30456   6.365   3.952  11.378 -0.6986  1.7716 -1.0174
  226MOL0     H30457   6.299   3.703  11.554  0.5012  0.3372  0.7480
  226MOL0     H30458   6.412   3.828  11.586 -1.7781  0.0029  0.9236
  226MOL0     H30459   6.518   3.617  11.512 -3.5371 -1.0982 -0.0698
  226MOL0     H30460   6.428   3.606  11.374  0.1228 -0.5502  0.3380
  226MOL0     H30461   6.725   3.827  11.511  1.0551 -1.8158  0.3917
  226MOL0     H30462   6.821   4.066  11.305 -2.6101 -0.9638  1.3952
  226MOL0     H30463   6.909   3.979  11.411 -4.9891  0.3279  1.6793
  226MOL0     H30464   7.040   3.850  11.204  1.4934  0.7144 -0.8483
  226MOL0     H30465   6.916   3.937  11.103 -1.6177 -0.9151  1.0627
  226MOL0     H30466   7.154   4.052  11.266  0.8347  1.4254  0.0443
  226MOL0     H30467   7.015   4.144  11.187 -1.9690 -1.8428  0.6975
  226MOL0     H30468   7.210   3.980  11.033  0.2973 -1.1731  3.1982
  226MOL0     H30469   7.224   4.151  11.061  1.3240 -2.0173 -2.3594
  226MOL0     H30470   6.951   4.177  10.724 -0.4181 -2.8808 -1.2564
  226MOL0     H30471   7.046   4.200  10.506  1.9294 -1.6154 -0.8557
  226MOL0     H30472   7.374   4.354  10.236 -1.1330 -1.4345  0.5748
  226MOL0     H30473   7.526   4.427  10.041  1.0326 -0.5301 -0.3108
  226MOL0     H30474   7.905   4.277  10.035 -1.1206  1.0521  1.0710
  226MOL0     H30475   7.851   4.131   9.934 -3.0703  0.6272  2.5273
  226MOL0     H30476   7.861   4.272   9.733  0.4806  0.9513 -1.7333
  226MOL0     H30477   7.918   4.408   9.828 -1.8590 -0.3603 -0.8546
  226MOL0     H30478   8.081   4.138   9.788  2.0271 -0.2249  3.6321
  226MOL0     H30479   8.105   4.293   9.706 -1.0384 -0.9865 -0.5099
  226MOL0     H30480   8.141   4.235  10.010 -1.0310  0.3184  0.3769
  226MOL0     H30481   8.135   4.392   9.937 -2.0251 -0.2450  1.6567
  226MOL0     H30482   8.322   4.258   9.760 -1.5592 -0.0079 -0.3250
  226MOL0     H30483   8.336   4.167   9.904  0.2298 -0.0251 -2.4860
  226MOL0     H30484   8.377   4.469   9.873  1.7243 -0.1969 -0.1910
  226MOL0     H30485   8.367   4.393  10.023 -1.8254  0.3572 -1.0451
  226MOL0     H30486   8.608   4.429   9.891 -0.7437  0.4643 -0.3482
  226MOL0     H30487   8.564   4.280   9.815 -2.3875 -3.2577  1.4587
  226MOL0     H30488   8.514   4.200  10.079 -0.4425 -2.8773 -2.1290
  226MOL0     H30489   8.670   4.176  10.014  1.3090  1.9808 -0.9892
  226MOL0     H30490   7.756   4.065  10.103 -1.4618 -1.9151  0.9596
  226MOL0     H30491   7.640   4.042  10.325  1.7222  1.3131  1.1336
  226MOL0     H30492   7.430   4.092  10.664  0.1662 -1.0475  2.6037
  226MOL0     H30493   7.330   4.052  10.872  0.9191 -1.8921 -1.6225
  226MOL0     H30494   5.808   3.879  10.850 -0.8390  2.2702 -1.5464
  226MOL0     H30495   5.631   3.816  10.679 -2.3392  1.6555 -0.8252
  226MOL0     H30496   5.325   3.585  10.568  2.6002  1.6740  0.2925
  226MOL0     H30497   5.245   3.535  10.346  2.8386  0.5085  1.7697
  226MOL0     H30498   5.070   3.513  10.198 -3.6664  2.0419  1.0347
  226MOL0     H30499   5.179   3.561  10.068  1.7268  1.3540  0.9382
  226MOL0     H30500   4.881   3.649  10.097  1.3411  3.3192 -0.5879
  226MOL0     H30501   4.930   3.501  10.009 -1.1345 -0.2463  0.9375
  226MOL0     H30502   5.077   3.614   9.869  3.2943  4.3050  0.6934
  226MOL0     H30503   5.029   3.770   9.941  0.3214 -0.5456  3.5988
  226MOL0     H30504   4.842   3.568   9.815  0.9114 -0.9048  0.2427
  226MOL0     H30505   4.808   3.742   9.826  0.3251 -0.5159  1.3127
  226MOL0     H30506   5.025   3.668   9.455 -0.6476  1.4835  0.2558
  226MOL0     H30507   5.048   3.921  10.337  2.6086  0.3658 -2.6020
  226MOL0     H30508   5.222   4.067  10.604 -0.7719  0.3558 -0.1266
  226MOL0     H30509   5.087   4.091  10.499  0.9451  3.0378  2.4014
  226MOL0     H30510   5.064   4.013  10.655  0.3221  2.3387 -0.1973
  227MOL0     O30511   0.612   1.305   4.170  0.6235 -0.3390 -0.9117
  227MOL0     C30512   0.573   1.218   4.093  0.1526 -0.0081 -0.2406
  227MOL0     O30513   0.586   1.081   4.113  0.3635  0.0296  0.7087
  227MOL0     C30514   0.608   1.051   4.243 -0.1197  0.4185  0.3395
  227MOL0     C30515   0.515   1.067   4.338 -0.0365 -0.4974  0.2865
  227MOL0     C30516   0.539   1.035   4.469 -0.2220  0.6955 -0.4900
  227MOL0     C30517   0.658   0.987   4.521  0.6164 -0.7311 -0.4965
  227MOL0     O30518   0.689   0.950   4.648 -0.6694  0.0290 -0.0844
  227MOL0     C30519   0.582   0.938   4.747  0.3465 -0.1490  0.4059
  227MOL0     C30520   0.638   0.942   4.895  0.5472  0.3206  0.1472
  227MOL0     C30521   0.726   0.832   4.943 -1.0443  0.3233 -0.8049
  227MOL0     C30522   0.752   0.827   5.093 -0.5730  0.7397  0.2319
  227MOL0     C30523   0.794   0.961   5.148 -0.3077 -0.0337  0.6482
  227MOL0     C30524   0.799   0.962   5.297  0.2583 -0.5026  0.0897
  227MOL0     C30525   0.858   1.098   5.350  0.2153 -0.1386  0.4002
  227MOL0     C30526   0.754   1.213   5.337 -0.3620 -0.3728 -0.2160
  227MOL0     N30527   0.780   1.333   5.425  0.6575 -0.4440 -0.0645
  227MOL0     C30528   0.893   1.397   5.454  0.0676 -0.8468 -0.2020
  227MOL0     C30529   0.856   1.471   5.559  0.4109 -0.0325 -0.8196
  227MOL0     C30530   0.966   1.540   5.640 -0.7227 -0.4669  0.3483
  227MOL0     C30531   1.053   1.628   5.550  0.5989 -0.2048 -0.0523
  227MOL0     C30532   1.193   1.651   5.611 -0.3634  0.2976 -0.4210
  227MOL0     C30533   1.290   1.537   5.606  0.2564 -0.5088 -0.1152
  227MOL0     O30534   1.371   1.538   5.726 -0.2943  0.6914  0.0310
  227MOL0     C30535   1.459   1.443   5.753 -0.4887  0.2838 -0.2809
  227MOL0     C30536   1.444   1.311   5.704  0.1888  1.1648 -0.0949
  227MOL0     C30537   1.536   1.216   5.732 -0.1067 -0.4329  0.3427
  227MOL0     C30538   1.661   1.247   5.797  0.5612  0.2206 -0.1561
  227MOL0     C30539   1.758   1.143   5.836  0.3762 -0.5709 -0.6510
  227MOL0     O30540   1.752   1.022   5.765 -0.5087  0.0397 -0.2822
  227MOL0     C30541   1.827   0.907   5.795 -0.0262  0.0660  0.3861
  227MOL0     C30542   1.825   0.802   5.705  0.1484  0.7800 -0.3463
  227MOL0     C30543   1.884   0.679   5.730  0.3439  1.1003 -0.4699
  227MOL0     C30544   1.954   0.663   5.860  0.4985 -0.0513  0.3286
  227MOL0     O30545   1.999   0.547   5.912  0.4074  0.2002 -0.2888
  227MOL0     C30546   1.997   0.435   5.821  0.7251  0.1195  1.1270
  227MOL0     C30547   2.067   0.323   5.900 -0.2178 -0.7016 -0.3467
  227MOL0     C30548   2.047   0.193   5.821  0.2634  0.2767 -0.1664
  227MOL0     C30549   2.101   0.079   5.896  0.4153  0.5706 -0.1976
  227MOL0     C30550   2.060  -0.065   5.844  0.0811 -0.5802 -0.4637
  227MOL0     C30551   1.912  -0.083   5.836  0.1320  0.3332  0.0667
  227MOL0     C30552   1.892  -0.234   5.825  0.3626  0.1799 -0.0340
  227MOL0     C30553   1.738  -0.256   5.803 -0.4829 -0.6006  0.0679
  227MOL0    Cl30554   1.635  -0.214   5.951 -0.0999  0.4234 -0.1908
  227MOL0     C30555   1.965   0.767   5.939 -0.2947  0.3458  0.3913
  227MOL0     C30556   1.914   0.887   5.904  0.2382  0.3392 -0.3495
  227MOL0     O30557   1.841   1.171   5.928 -1.0686  0.4236  0.0875
  227MOL0     C30558   1.675   1.376   5.852  0.6456  0.2648  0.4744
  227MOL0     C30559   1.574   1.470   5.827  0.2183 -0.3536 -0.9832
  227MOL0     N30560   0.719   1.478   5.581 -0.5246  0.4612  0.1776
  227MOL0     N30561   0.677   1.392   5.498  0.1136  0.2216  0.0172
  227MOL0     C30562   0.755   0.968   4.423 -0.1390 -0.2456  0.1132
  227MOL0     C30563   0.730   0.994   4.285 -0.5867 -0.0989  0.4883
  227MOL0     C30564   0.487   1.268   3.976  0.6641 -0.9810 -0.1531
  227MOL0     C30565   0.408   1.177   3.898  0.5491  0.2435  0.0243
  227MOL0     C30566   0.336   1.209   3.790 -0.1741  0.2392 -0.1066
  227MOL0     C30567   0.335   1.342   3.744 -0.4439 -0.5265 -0.0107
  227MOL0     O30568   0.264   1.393   3.638  0.1056  0.1952  0.0293
  227MOL0     C30569   0.221   1.307   3.536  0.3792  0.0305  0.2350
  227MOL0     C30570   0.151   1.378   3.416  1.1573 -0.7960  1.5300
  227MOL0     C30571   0.255   1.480   3.365 -0.2830  0.0321 -0.4029
  227MOL0     C30572   0.226   1.550   3.235 -0.7309 -0.3178 -0.4643
  227MOL0     C30573   0.108   1.631   3.274  0.2015  0.5026  0.0064
  227MOL0     C30574   0.022   1.712   3.302 -0.5150 -0.0381  0.1636
  227MOL0     C30575   0.403   1.436   3.816  0.3579 -0.1677 -0.2597
  227MOL0     C30576   0.484   1.402   3.929 -0.1184  1.0145  0.0662
  227MOL0     C30577   0.576   1.511   3.964 -0.0757  0.0671 -0.7469
  227MOL0     H30578   0.415   1.084   4.299  0.9679  1.4884 -1.6035
  227MOL0     H30579   0.461   1.034   4.545 -0.1779 -1.9538 -0.3519
  227MOL0     H30580   0.515   1.024   4.734 -4.1087 -3.3456 -0.4472
  227MOL0     H30581   0.515   0.853   4.731  0.3809 -0.0723 -0.1402
  227MOL0     H30582   0.555   0.960   4.964  1.6788  2.1937  1.0991
  227MOL0     H30583   0.697   1.034   4.901 -0.6864  1.3888 -2.4186
  227MOL0     H30584   0.822   0.822   4.892 -0.6597 -2.7448  0.3095
  227MOL0     H30585   0.681   0.735   4.920 -0.2963 -1.0909  2.8930
  227MOL0     H30586   0.652   0.817   5.135 -0.1877 -0.2279  0.9787
  227MOL0     H30587   0.804   0.738   5.132 -1.3924  0.7670  1.4579
  227MOL0     H30588   0.889   0.988   5.100 -0.8194 -1.6469 -1.4263
  227MOL0     H30589   0.728   1.038   5.107  1.0002  0.1590 -1.2406
  227MOL0     H30590   0.711   0.930   5.354 -0.0794 -0.7660 -0.5610
  227MOL0     H30591   0.872   0.884   5.323  0.7830 -0.7749 -1.9744
  227MOL0     H30592   0.953   1.130   5.308  0.6398  0.6347  1.8789
  227MOL0     H30593   0.888   1.090   5.455  2.8419  1.2141 -0.1787
  227MOL0     H30594   0.755   1.253   5.235  2.0285 -0.9053 -0.4530
  227MOL0     H30595   0.653   1.181   5.365 -0.7966 -0.1803 -1.5032
  227MOL0     H30596   0.995   1.384   5.420  0.4942 -0.2246  0.8215
  227MOL0     H30597   0.930   1.597   5.726  0.3208 -1.4992  1.5077
  227MOL0     H30598   1.019   1.462   5.694  0.5448 -0.1756 -0.4244
  227MOL0     H30599   1.074   1.579   5.455 -1.2429  0.1798 -0.7041
  227MOL0     H30600   1.003   1.720   5.517  2.3548  0.6595 -0.4433
  227MOL0     H30601   1.174   1.678   5.715 -1.4215  2.4779 -1.1188
  227MOL0     H30602   1.237   1.741   5.568  2.2762 -2.0526 -3.1445
  227MOL0     H30603   1.345   1.548   5.512  0.6382  1.6302  0.3070
  227MOL0     H30604   1.226   1.448   5.606  1.1579 -1.1693  0.4853
  227MOL0     H30605   1.360   1.267   5.652  1.3609  0.3454 -1.3723
  227MOL0     H30606   1.521   1.113   5.700  0.1186 -1.2319  2.6412
  227MOL0     H30607   1.794   0.821   5.603 -2.3152 -2.3959 -0.3326
  227MOL0     H30608   1.880   0.590   5.669  1.5623  0.4386  0.3724
  227MOL0     H30609   1.896   0.396   5.802 -0.2961  2.7769  0.6048
  227MOL0     H30610   2.044   0.461   5.726  3.0849  0.3293  2.2788
  227MOL0     H30611   2.174   0.338   5.913 -0.3422 -0.9955  1.2415
  227MOL0     H30612   2.023   0.316   6.000  0.4432 -2.5614 -0.1535
  227MOL0     H30613   1.942   0.166   5.808  1.2494 -3.8231 -0.8682
  227MOL0     H30614   2.100   0.196   5.726  0.4128 -0.5815 -0.1220
  227MOL0     H30615   2.059   0.079   5.998 -2.0018  2.0629 -1.1138
  227MOL0     H30616   2.208   0.082   5.919  0.1003 -0.2421  1.5866
  227MOL0     H30617   2.115  -0.130   5.913  1.5524  3.5032  2.5654
  227MOL0     H30618   2.092  -0.067   5.739 -1.7325  2.1826 -1.1796
  227MOL0     H30619   1.868  -0.043   5.927 -1.3885 -0.3082 -0.3500
  227MOL0     H30620   1.865  -0.029   5.753 -1.6602 -0.1261  0.7295
  227MOL0     H30621   1.935  -0.276   5.916  2.4454  2.0549 -0.0672
  227MOL0     H30622   1.937  -0.263   5.729 -0.7333  4.0741 -1.9830
  227MOL0     H30623   1.705  -0.183   5.729  4.0723 -0.9980 -2.8029
  227MOL0     H30624   1.725  -0.353   5.752  2.8848  0.2483 -2.8693
  227MOL0     H30625   2.009   0.758   6.038 -2.4661 -2.2071  1.2567
  227MOL0     H30626   1.914   0.963   5.981 -1.7292 -3.4277  3.8300
  227MOL0     H30627   1.768   1.412   5.895  2.8544 -3.2535 -0.9595
  227MOL0     H30628   1.593   1.573   5.857 -1.4999 -0.8999  2.5859
  227MOL0     H30629   0.853   0.933   4.454 -0.9312 -0.1441  3.1384
  227MOL0     H30630   0.811   0.984   4.214  1.1470 -0.3837  2.4215
  227MOL0     H30631   0.406   1.071   3.919  0.3151  0.6398  2.2379
  227MOL0     H30632   0.283   1.124   3.749  0.9110 -0.4823 -0.0596
  227MOL0     H30633   0.139   1.240   3.565 -1.6038  1.8368 -0.8801
  227MOL0     H30634   0.311   1.253   3.506  0.0767  0.1887 -1.0124
  227MOL0     H30635   0.060   1.424   3.455 -0.8041 -1.3525 -1.9710
  227MOL0     H30636   0.114   1.306   3.343  1.9635 -1.4329  1.7425
  227MOL0     H30637   0.352   1.432   3.351 -0.5686 -0.9711  0.8947
  227MOL0     H30638   0.259   1.559   3.440  0.5103  0.7704 -1.1875
  227MOL0     H30639   0.302   1.619   3.197 -2.3359  1.7082 -0.1750
  227MOL0     H30640   0.196   1.481   3.156 -0.4170 -0.3228 -0.5801
  227MOL0     H30641  -0.041   1.792   3.332  1.0300  1.7415 -1.1152
  227MOL0     H30642   0.407   1.537   3.775  4.9707  0.0436  0.1461
  227MOL0     H30643   0.609   1.568   3.877  3.4248 -0.2244  0.2649
  227MOL0     H30644   0.517   1.553   4.046 -0.2818 -2.6462  0.6232
  227MOL0     H30645   0.675   1.480   3.999 -0.0962  0.6581 -0.1546
  228MOL0     O30646   2.413   4.374   0.517  0.0545  0.2623 -0.1297
  228MOL0     C30647   2.498   4.359   0.434  0.4526  0.7754 -0.2421
  228MOL0     O30648   2.488   4.393   0.304  0.4494  0.6234  0.0139
  228MOL0     C30649   2.387   4.471   0.258 -0.4191  0.6157  0.0241
  228MOL0     C30650   2.353   4.593   0.331  0.3318 -0.3187 -0.2174
  228MOL0     C30651   2.254   4.678   0.285 -0.1723 -1.1446 -0.6872
  228MOL0     C30652   2.172   4.646   0.170  0.3698  0.5681  0.7611
  228MOL0     O30653   2.062   4.720   0.129  0.2007  0.2089 -0.0496
  228MOL0     C30654   2.015   4.839   0.191 -0.2476 -0.1026  0.0550
  228MOL0     C30655   1.917   4.892   0.086  0.3836  0.3709 -0.7861
  228MOL0     C30656   1.843   5.009   0.138 -0.0357 -0.3710 -0.3911
  228MOL0     C30657   1.924   5.143   0.126 -0.5114 -0.6043 -0.3120
  228MOL0     C30658   1.856   5.281   0.150 -0.1580 -0.2299 -0.3503
  228MOL0     C30659   1.715   5.286   0.090 -0.3994  0.1727 -0.7913
  228MOL0     C30660   1.657   5.426   0.124 -0.3672  0.8185 -0.4065
  228MOL0     C30661   1.507   5.429   0.093 -0.3408 -0.7042 -0.1351
  228MOL0     N30662   1.491   5.463  -0.048 -0.4531  0.0465  0.6540
  228MOL0     C30663   1.556   5.562  -0.112  0.0370  0.4572  0.2750
  228MOL0     C30664   1.537   5.549  -0.245  0.0987 -0.0164 -0.0552
  228MOL0     C30665   1.599   5.641  -0.348 -0.3049 -0.3049 -0.2413
  228MOL0     C30666   1.517   5.646  -0.481 -0.0221 -0.5016 -0.4501
  228MOL0     C30667   1.433   5.784  -0.496 -0.1996 -1.1834 -0.4005
  228MOL0     C30668   1.327   5.772  -0.611  0.0611  0.0244  0.4893
  228MOL0     O30669   1.266   5.902  -0.625 -0.1792 -0.5486  0.1183
  228MOL0     C30670   1.340   6.008  -0.650 -0.5147 -0.7128 -0.1844
  228MOL0     C30671   1.422   6.028  -0.762  0.0076 -0.6434  0.3509
  228MOL0     C30672   1.513   6.138  -0.772 -0.1082  1.2158 -0.3648
  228MOL0     C30673   1.504   6.237  -0.690  0.1918  0.3117 -1.5160
  228MOL0     C30674   1.573   6.368  -0.711  1.1667  0.8529  0.2976
  228MOL0     O30675   1.540   6.471  -0.621  0.8047  0.4237  0.5387
  228MOL0     C30676   1.561   6.600  -0.639  0.2650  0.0019  0.3865
  228MOL0     C30677   1.467   6.699  -0.617 -0.1478  0.0758  0.1662
  228MOL0     C30678   1.506   6.834  -0.635  0.4316  1.2168  0.4237
  228MOL0     C30679   1.632   6.868  -0.661 -0.7798 -0.1728  0.0952
  228MOL0     O30680   1.674   6.999  -0.680 -0.2462 -0.0967  0.0979
  228MOL0     C30681   1.598   7.105  -0.616 -0.2259 -0.3365 -0.1131
  228MOL0     C30682   1.661   7.241  -0.633  0.0393 -0.9234  0.9653
  228MOL0     C30683   1.773   7.272  -0.536 -0.5117  0.3093 -0.5202
  228MOL0     C30684   1.905   7.213  -0.594 -0.5816  0.0011  0.8861
  228MOL0     C30685   2.020   7.248  -0.505 -0.8603 -0.2739  0.0350
  228MOL0     C30686   2.153   7.239  -0.573  0.3683  0.6546 -0.2508
  228MOL0     C30687   2.278   7.257  -0.486 -0.9421 -0.8680 -0.4213
  228MOL0     C30688   2.397   7.169  -0.521 -0.4591  0.3088  0.1005
  228MOL0    Cl30689   2.529   7.216  -0.419 -0.1734  0.1967  0.2032
  228MOL0     C30690   1.729   6.774  -0.678 -0.1979 -0.1029 -0.1240
  228MOL0     C30691   1.690   6.641  -0.671 -1.0097  0.1891  1.0326
  228MOL0     O30692   1.650   6.373  -0.811  0.3371  0.5958 -0.0448
  228MOL0     C30693   1.414   6.223  -0.580 -0.9936  0.6422 -0.3626
  228MOL0     C30694   1.337   6.115  -0.554  0.6475 -0.6320 -1.1984
  228MOL0     N30695   1.441   5.447  -0.264  0.1360  0.3325 -0.4518
  228MOL0     N30696   1.426   5.394  -0.150  0.0021 -0.4812 -0.0129
  228MOL0     C30697   2.197   4.519   0.105 -0.2994 -0.3501 -0.3609
  228MOL0     C30698   2.308   4.442   0.148 -0.0992  0.2413 -0.0199
  228MOL0     C30699   2.622   4.289   0.474  0.1296  0.4279  0.4219
  228MOL0     C30700   2.736   4.334   0.417 -0.8359 -0.2724 -0.0623
  228MOL0     C30701   2.858   4.272   0.449 -0.5044  0.6899 -0.0606
  228MOL0     C30702   2.865   4.159   0.528 -0.0486 -0.4635  0.2113
  228MOL0     O30703   2.988   4.097   0.564 -0.5175  0.8820 -0.3830
  228MOL0     C30704   2.987   4.028   0.685 -0.1732 -0.1098  0.9729
  228MOL0     C30705   3.110   3.961   0.719 -1.3316  0.8547  1.3399
  228MOL0     C30706   3.126   3.811   0.660  0.9173  0.6923 -0.1877
  228MOL0     C30707   3.254   3.746   0.717 -0.7254  0.3251  0.6975
  228MOL0     C30708   3.369   3.832   0.674  0.0409  0.6303  0.1490
  228MOL0     C30709   3.475   3.880   0.642  0.2694 -0.4636 -0.0067
  228MOL0     C30710   2.742   4.107   0.576  0.5633 -0.1819  0.0101
  228MOL0     C30711   2.618   4.168   0.545 -0.4635 -0.1720 -0.1418
  228MOL0     C30712   2.484   4.112   0.593 -1.3482  0.0862 -0.4975
  228MOL0     H30713   2.412   4.623   0.417 -1.0218  1.8537  0.0323
  228MOL0     H30714   2.251   4.776   0.330  0.1553 -0.3926 -2.2542
  228MOL0     H30715   1.964   4.817   0.285  0.8843  1.8226  1.1799
  228MOL0     H30716   2.087   4.920   0.207 -2.1054  1.8401 -0.9344
  228MOL0     H30717   1.847   4.813   0.058  0.0209 -0.5279  2.3291
  228MOL0     H30718   1.977   4.932   0.003  0.8866  2.4722  0.4939
  228MOL0     H30719   1.815   4.986   0.241  0.1213 -2.9753 -0.8605
  228MOL0     H30720   1.758   5.035   0.075  1.1096  1.2935 -1.3362
  228MOL0     H30721   2.012   5.143   0.191  0.0009  2.2080 -0.9058
  228MOL0     H30722   1.960   5.151   0.023  0.5033  0.3534  0.1027
  228MOL0     H30723   1.844   5.277   0.259 -1.2253 -0.3506 -0.4604
  228MOL0     H30724   1.913   5.372   0.131 -0.8598  0.4340  0.5936
  228MOL0     H30725   1.708   5.268  -0.017  0.3156  0.6469 -0.9263
  228MOL0     H30726   1.660   5.208   0.144  6.3404 -2.7006  3.2063
  228MOL0     H30727   1.715   5.505   0.075  0.8371  0.9374  1.1367
  228MOL0     H30728   1.667   5.445   0.231 -3.3340 -2.7918  0.7324
  228MOL0     H30729   1.461   5.331   0.108 -1.9341  0.4245  3.4689
  228MOL0     H30730   1.462   5.515   0.144  1.8519  0.9585 -0.8606
  228MOL0     H30731   1.626   5.625  -0.058  1.6312 -2.2668  1.5743
  228MOL0     H30732   1.605   5.741  -0.302  0.2582  0.5929 -2.1776
  228MOL0     H30733   1.702   5.609  -0.368  0.9468  3.5661 -0.7918
  228MOL0     H30734   1.589   5.635  -0.563  0.1763 -0.5377 -0.2728
  228MOL0     H30735   1.450   5.560  -0.491 -3.2200  1.8886 -1.1984
  228MOL0     H30736   1.495   5.872  -0.516 -2.0418  0.4796  0.8095
  228MOL0     H30737   1.372   5.804  -0.407  0.7547  0.5782 -0.0955
  228MOL0     H30738   1.257   5.699  -0.568 -0.0535  0.0830  0.3963
  228MOL0     H30739   1.389   5.738  -0.694  2.3257 -3.6803  3.3195
  228MOL0     H30740   1.430   5.946  -0.832  1.2569  0.7493 -1.2172
  228MOL0     H30741   1.570   6.144  -0.864 -0.2334  1.6449 -0.4192
  228MOL0     H30742   1.370   6.671  -0.579 -2.3488  0.8361 -4.2238
  228MOL0     H30743   1.415   6.893  -0.626 -1.2620 -1.4224  2.0093
  228MOL0     H30744   1.498   7.100  -0.659  0.4255 -2.9324 -1.5466
  228MOL0     H30745   1.581   7.100  -0.508 -3.2807  3.4029 -0.2100
  228MOL0     H30746   1.699   7.250  -0.735  1.6614 -1.1385  1.5146
  228MOL0     H30747   1.581   7.316  -0.633 -1.5174 -2.4834 -1.1652
  228MOL0     H30748   1.789   7.379  -0.523 -1.1397  0.3834 -0.3245
  228MOL0     H30749   1.756   7.233  -0.436  0.0710 -3.1124 -1.6045
  228MOL0     H30750   1.937   7.251  -0.692 -2.2522  0.2832  0.4135
  228MOL0     H30751   1.893   7.105  -0.599  0.1249 -0.1765  2.3489
  228MOL0     H30752   2.025   7.197  -0.409 -0.3267 -0.6709 -0.1998
  228MOL0     H30753   2.006   7.353  -0.476  1.2434 -0.5135  2.1386
  228MOL0     H30754   2.155   7.136  -0.609  2.2183  0.7111 -0.4248
  228MOL0     H30755   2.162   7.302  -0.662  1.4833  0.7704 -0.0741
  228MOL0     H30756   2.258   7.245  -0.379  2.3946 -1.2758  0.2761
  228MOL0     H30757   2.300   7.364  -0.497 -1.8910 -0.3836  1.7274
  228MOL0     H30758   2.361   7.067  -0.504 -2.3490  1.1783  1.6417
  228MOL0     H30759   2.427   7.191  -0.624 -0.1959  0.0211  0.1142
  228MOL0     H30760   1.832   6.806  -0.683 -0.3314  0.7674  1.8793
  228MOL0     H30761   1.759   6.559  -0.684  0.4610  1.4027  0.8256
  228MOL0     H30762   1.411   6.300  -0.504  3.1940 -0.6023  1.3462
  228MOL0     H30763   1.265   6.114  -0.474  2.7151  1.4605  0.8195
  228MOL0     H30764   2.150   4.502   0.009 -3.7751  3.0729  0.4577
  228MOL0     H30765   2.340   4.354   0.093  2.5654  1.1057  0.0465
  228MOL0     H30766   2.737   4.422   0.353 -0.9321 -0.7541 -0.7327
  228MOL0     H30767   2.944   4.308   0.393  1.0673 -1.4185  0.8552
  228MOL0     H30768   2.911   3.951   0.699 -1.2470  1.1933  2.7811
  228MOL0     H30769   2.965   4.108   0.757 -0.5421  0.7251 -0.0488
  228MOL0     H30770   3.118   3.960   0.828 -3.6726 -1.5871  1.6137
  228MOL0     H30771   3.196   4.018   0.683 -0.1987 -0.2292  2.2249
  228MOL0     H30772   3.133   3.819   0.551 -0.1011 -0.0226 -0.3150
  228MOL0     H30773   3.036   3.755   0.685 -0.4830  3.1119  0.6210
  228MOL0     H30774   3.251   3.749   0.827  1.1009  0.3777  0.7773
  228MOL0     H30775   3.273   3.648   0.673 -2.4186 -0.2701  1.2118
  228MOL0     H30776   3.572   3.918   0.617  0.5683 -0.1143  1.6027
  228MOL0     H30777   2.730   4.008   0.617  1.9903 -2.2583 -4.0019
  228MOL0     H30778   2.487   4.009   0.629 -0.2683 -0.3252 -1.6775
  228MOL0     H30779   2.443   4.159   0.682 -2.1470 -1.5617  0.0452
  228MOL0     H30780   2.422   4.114   0.502 -1.9937 -1.1813 -0.1088
  229MOL0     O30781   4.375   7.548  11.390  0.4031 -0.1332 -0.0283
  229MOL0     C30782   4.462   7.594  11.469 -0.5667 -1.2225  0.9582
  229MOL0     O30783   4.526   7.711  11.447 -0.6448 -0.1569  0.1573
  229MOL0     C30784   4.481   7.791  11.344  0.1544 -0.2352 -0.1068
  229MOL0     C30785   4.420   7.917  11.362 -0.2034 -0.5490  0.8012
  229MOL0     C30786   4.381   7.993  11.255  0.1327 -0.2636 -0.4089
  229MOL0     C30787   4.421   7.961  11.129  0.7291  0.2049 -0.2810
  229MOL0     O30788   4.362   8.041  11.029  0.9651  0.0345  0.0791
  229MOL0     C30789   4.304   7.963  10.926 -0.1482 -0.9267  1.1071
  229MOL0     C30790   4.279   8.043  10.797  0.4716 -0.9059  0.2089
  229MOL0     C30791   4.228   7.956  10.679  0.1397  0.1315  0.2346
  229MOL0     C30792   4.120   8.022  10.591 -0.8584 -0.1461 -0.0035
  229MOL0     C30793   4.060   7.923  10.485 -0.1478  0.0424  0.6933
  229MOL0     C30794   4.151   7.891  10.365 -0.2087  0.9400  0.4829
  229MOL0     C30795   4.091   7.781  10.272 -0.9770 -0.4646  0.8259
  229MOL0     C30796   4.182   7.755  10.155  0.0718 -0.6359 -0.1696
  229MOL0     N30797   4.140   7.637  10.084  0.6788 -0.1707 -0.0131
  229MOL0     C30798   4.059   7.534  10.121  0.1363  0.6770  0.8051
  229MOL0     C30799   4.023   7.464  10.008 -0.3312  0.0691 -0.1049
  229MOL0     C30800   3.913   7.358  10.007  0.5329 -0.1137  0.3575
  229MOL0     C30801   3.788   7.404   9.939  0.2576 -0.2643  0.7463
  229MOL0     C30802   3.708   7.494  10.027  0.8798 -0.4090  0.1280
  229MOL0     C30803   3.566   7.542   9.961  0.0324 -1.0106  0.4550
  229MOL0     O30804   3.508   7.636  10.042 -0.2355 -0.4233  0.4658
  229MOL0     C30805   3.374   7.670  10.027  0.4271 -0.3833  0.2966
  229MOL0     C30806   3.273   7.581   9.990 -0.9115 -0.5554 -0.0965
  229MOL0     C30807   3.147   7.631   9.985 -0.3507 -0.6136  0.3072
  229MOL0     C30808   3.101   7.760  10.023 -0.3952  0.2936  0.4340
  229MOL0     C30809   2.958   7.779  10.032 -0.5232 -0.0806 -0.4228
  229MOL0     O30810   2.921   7.875  10.123 -1.0158  0.2504  0.1316
  229MOL0     C30811   2.788   7.886  10.158 -0.3827  0.3431 -0.5077
  229MOL0     C30812   2.691   7.924  10.064  0.4546 -0.7103 -0.1368
  229MOL0     C30813   2.565   7.960  10.106  0.1984  0.1173  1.0178
  229MOL0     C30814   2.517   7.943  10.236  0.2183 -0.0560 -0.0818
  229MOL0     O30815   2.385   7.970  10.277  0.0281  0.5343  0.1296
  229MOL0     C30816   2.302   8.072  10.221 -0.1488  1.0886  0.0520
  229MOL0     C30817   2.189   8.110  10.321 -0.4543 -0.1349 -0.8078
  229MOL0     C30818   2.230   8.213  10.428  0.4999 -0.2082  1.1914
  229MOL0     C30819   2.103   8.248  10.505 -0.1115 -0.1506  0.0161
  229MOL0     C30820   2.125   8.351  10.618 -0.6194 -0.0010  0.5296
  229MOL0     C30821   2.150   8.488  10.566 -0.1149  0.1378 -0.5926
  229MOL0     C30822   2.208   8.589  10.667 -0.6371  0.1453 -0.2015
  229MOL0     C30823   2.229   8.722  10.606 -0.3057  0.5400 -0.1236
  229MOL0    Cl30824   2.344   8.737  10.460  0.3838  0.0275  0.4349
  229MOL0     C30825   2.615   7.909  10.331 -0.7846  0.6340  0.1621
  229MOL0     C30826   2.747   7.880  10.292  0.2553 -0.2791  0.1219
  229MOL0     O30827   2.876   7.698   9.988 -0.5555  0.2724  0.7233
  229MOL0     C30828   3.200   7.851  10.048  0.4684 -0.1354  0.2711
  229MOL0     C30829   3.332   7.804  10.054  0.2925  0.7171 -0.3930
  229MOL0     N30830   4.089   7.517   9.899 -0.6957 -1.0997  0.0129
  229MOL0     N30831   4.164   7.622   9.945 -0.0422 -0.6791 -0.1263
  229MOL0     C30832   4.489   7.843  11.107 -0.4370 -0.7771 -0.8907
  229MOL0     C30833   4.528   7.767  11.215  0.3881  0.0483 -0.5015
  229MOL0     C30834   4.506   7.532  11.597  0.2622  1.5285 -1.8437
  229MOL0     C30835   4.598   7.582  11.692  0.1432 -0.4186 -0.2746
  229MOL0     C30836   4.651   7.514  11.802 -0.4461  0.2941  0.2986
  229MOL0     C30837   4.601   7.394  11.832 -0.4278  0.0328 -0.0715
  229MOL0     O30838   4.628   7.341  11.955 -0.1322 -0.2614 -0.0734
  229MOL0     C30839   4.768   7.301  11.968 -0.3044  0.2912  0.6838
  229MOL0     C30840   4.799   7.274  12.108 -0.6659  0.1926 -1.3037
  229MOL0     C30841   4.941   7.220  12.121 -0.6944  0.8344  0.6039
  229MOL0     C30842   5.000   7.200  12.260  0.0223 -0.6164  0.4125
  229MOL0     C30843   5.047   7.331  12.310  0.2238 -0.2040  0.2175
  229MOL0     C30844   5.057   7.440  12.371 -0.0667 -0.2382  0.2337
  229MOL0     C30845   4.513   7.336  11.745  0.9717 -1.0167 -0.4790
  229MOL0     C30846   4.464   7.390  11.625  0.2395 -0.2828 -0.4327
  229MOL0     C30847   4.362   7.303  11.560  0.1279  1.2930  1.0555
  229MOL0     H30848   4.395   7.946  11.464 -1.0761  2.2034 -0.0918
  229MOL0     H30849   4.308   8.073  11.265 -0.4451 -0.8636  0.2699
  229MOL0     H30850   4.365   7.877  10.897 -2.0787 -1.1370 -3.1477
  229MOL0     H30851   4.214   7.919  10.970 -0.0540  1.1030  3.5271
  229MOL0     H30852   4.370   8.094  10.764  0.8653 -0.9620  1.1664
  229MOL0     H30853   4.204   8.121  10.814  1.3022  0.7167 -2.8942
  229MOL0     H30854   4.184   7.858  10.701 -1.4306  0.2684 -1.9562
  229MOL0     H30855   4.323   7.950  10.623 -0.5855  2.1098 -1.3541
  229MOL0     H30856   4.043   8.055  10.661 -0.1318 -0.2263  0.8602
  229MOL0     H30857   4.169   8.107  10.544 -1.3978  2.5384  3.7745
  229MOL0     H30858   4.029   7.831  10.537 -0.5058 -0.4921 -0.4405
  229MOL0     H30859   3.965   7.955  10.443 -0.4772 -0.8734  0.7063
  229MOL0     H30860   4.163   7.982  10.306 -1.5901  0.2698 -0.9159
  229MOL0     H30861   4.248   7.863  10.407  0.3699  0.7673 -0.9178
  229MOL0     H30862   3.993   7.804  10.229  0.6735  2.1239 -1.9568
  229MOL0     H30863   4.089   7.687  10.328  1.8825 -0.9240  0.3129
  229MOL0     H30864   4.184   7.841  10.088  1.7147  1.2831  2.2138
  229MOL0     H30865   4.286   7.736  10.183  0.0609  2.2288  2.2153
  229MOL0     H30866   4.016   7.534  10.221 -0.1053  1.8161  0.7123
  229MOL0     H30867   3.943   7.273   9.946  1.7106  1.9186 -2.1079
  229MOL0     H30868   3.891   7.330  10.110 -1.2550  1.9976  0.6271
  229MOL0     H30869   3.810   7.462   9.848 -3.2566  1.2448  0.6842
  229MOL0     H30870   3.728   7.317   9.911 -0.4687  0.6922 -0.8488
  229MOL0     H30871   3.754   7.590  10.053 -0.5874  0.6640 -1.0550
  229MOL0     H30872   3.677   7.442  10.118  0.5102  2.0557  1.4937
  229MOL0     H30873   3.499   7.456   9.951 -1.9604  0.3144  1.6935
  229MOL0     H30874   3.581   7.579   9.860 -2.0369 -0.4072  0.3252
  229MOL0     H30875   3.292   7.476   9.971  0.0618  0.0250 -2.8597
  229MOL0     H30876   3.067   7.559   9.973  0.0301 -1.3410  1.9599
  229MOL0     H30877   2.732   7.949   9.967  1.6553 -0.0436  0.5164
  229MOL0     H30878   2.487   7.988  10.035  0.0760 -0.7079  0.8156
  229MOL0     H30879   2.366   8.147  10.175  0.9296  0.1284 -0.0617
  229MOL0     H30880   2.252   8.026  10.135  0.5790  1.1538 -0.4037
  229MOL0     H30881   2.102   8.144  10.265 -0.0564 -1.5135 -2.3481
  229MOL0     H30882   2.161   8.032  10.392  0.4868  0.5635  0.3653
  229MOL0     H30883   2.305   8.176  10.500  0.5762 -2.1822  0.1797
  229MOL0     H30884   2.264   8.302  10.374 -0.4413 -1.8115 -2.3667
  229MOL0     H30885   2.087   8.158  10.565 -0.2361  0.6896  1.2740
  229MOL0     H30886   2.021   8.258  10.433 -0.8146 -2.9501  0.3248
  229MOL0     H30887   2.214   8.321  10.675  0.7492 -0.6315 -1.8092
  229MOL0     H30888   2.044   8.360  10.691 -3.8410  2.9527 -2.9573
  229MOL0     H30889   2.221   8.491  10.483 -0.6854  0.8506 -1.0689
  229MOL0     H30890   2.055   8.522  10.522 -0.8525  0.5171  1.1987
  229MOL0     H30891   2.311   8.558  10.687 -0.6663 -2.0021 -2.9061
  229MOL0     H30892   2.159   8.598  10.765  3.6373 -1.7443  2.4263
  229MOL0     H30893   2.129   8.756  10.579 -1.2302  1.9428  4.1839
  229MOL0     H30894   2.262   8.788  10.687  0.9590 -2.7316  2.2615
  229MOL0     H30895   2.587   7.910  10.436  0.9956  0.6138  0.6752
  229MOL0     H30896   2.818   7.859  10.372  1.2099  1.4539 -0.2023
  229MOL0     H30897   3.176   7.955  10.067  0.7888  0.5422 -2.5878
  229MOL0     H30898   3.412   7.873  10.081  0.6171 -0.3227  1.5100
  229MOL0     H30899   4.526   7.807  11.011 -1.9774  0.6239 -2.0773
  229MOL0     H30900   4.567   7.669  11.188 -2.7430 -1.1175 -1.3239
  229MOL0     H30901   4.633   7.684  11.692 -0.9297 -0.0392 -0.4182
  229MOL0     H30902   4.718   7.551  11.878  0.6516 -2.1666  0.6176
  229MOL0     H30903   4.833   7.384  11.938  0.9806 -0.8600  0.1378
  229MOL0     H30904   4.795   7.217  11.903  2.0647 -1.2060  3.3639
  229MOL0     H30905   4.722   7.204  12.141 -0.9298  1.0391 -0.0511
  229MOL0     H30906   4.794   7.366  12.168 -3.2182 -0.8893  0.3223
  229MOL0     H30907   4.999   7.283  12.053 -1.1330 -0.3570 -0.9375
  229MOL0     H30908   4.942   7.118  12.082 -1.4548  0.2069  2.1566
  229MOL0     H30909   4.924   7.158  12.327  2.4227 -0.2269  3.6208
  229MOL0     H30910   5.086   7.135  12.246 -0.0820 -0.3024 -2.0312
  229MOL0     H30911   5.042   7.533  12.421  0.5913  1.1702 -2.0220
  229MOL0     H30912   4.456   7.253  11.785 -0.6999  0.4966  0.4198
  229MOL0     H30913   4.375   7.199  11.590  0.3364  0.7720 -0.7548
  229MOL0     H30914   4.256   7.329  11.575  0.2201  0.9564  2.4133
  229MOL0     H30915   4.373   7.311  11.452 -0.2862  0.4293  0.9421
  230MOL0     O30916   7.471   0.346   7.752 -0.0582  0.2203  0.7564
  230MOL0     C30917   7.567   0.347   7.675  0.3897 -0.4806  0.7946
  230MOL0     O30918   7.570   0.305   7.531  0.7850  0.4485 -0.5420
  230MOL0     C30919   7.442   0.319   7.474 -0.1488  0.6228  0.1269
  230MOL0     C30920   7.336   0.222   7.490 -0.8759 -0.1605  0.4516
  230MOL0     C30921   7.215   0.247   7.426  0.4972 -0.2991  0.3534
  230MOL0     C30922   7.193   0.365   7.362  0.5296  0.3624 -0.8352
  230MOL0     O30923   7.068   0.373   7.311  1.0334  0.4950 -0.5371
  230MOL0     C30924   6.998   0.474   7.376  0.6535 -0.2909  0.6173
  230MOL0     C30925   6.875   0.522   7.295 -0.1631  0.2461 -0.1829
  230MOL0     C30926   6.919   0.618   7.180 -0.7932  0.1201 -0.1346
  230MOL0     C30927   6.925   0.551   7.040 -0.4062 -0.0196 -0.5839
  230MOL0     C30928   6.803   0.559   6.949 -0.6939  0.4121 -0.8607
  230MOL0     C30929   6.682   0.495   6.997 -0.2915  0.3002  0.6393
  230MOL0     C30930   6.581   0.485   6.879  0.0096  0.0858 -0.2788
  230MOL0     C30931   6.472   0.382   6.919 -0.0482  0.3319  0.1585
  230MOL0     N30932   6.388   0.341   6.806 -0.0772  1.2739  0.0968
  230MOL0     C30933   6.441   0.261   6.702 -0.2383 -1.2748 -0.5491
  230MOL0     C30934   6.349   0.287   6.599 -0.8901  0.8251  0.2193
  230MOL0     C30935   6.346   0.230   6.463 -0.0450 -0.3440 -0.2934
  230MOL0     C30936   6.477   0.261   6.384 -0.3280  0.0513  0.5074
  230MOL0     C30937   6.524   0.137   6.303 -0.0376  0.1263 -0.1978
  230MOL0     C30938   6.407   0.073   6.218  0.3440  0.8814  0.3033
  230MOL0     O30939   6.342   0.171   6.143  0.0856 -0.4453 -0.4534
  230MOL0     C30940   6.385   0.175   6.013 -0.0054 -0.0370 -0.9687
  230MOL0     C30941   6.497   0.112   5.956  1.0608 -0.3545 -0.0221
  230MOL0     C30942   6.501   0.105   5.814 -0.6319  0.9542 -0.1764
  230MOL0     C30943   6.418   0.177   5.734 -0.1958 -0.8464  0.1759
  230MOL0     C30944   6.413   0.168   5.585 -0.7280 -0.7099  0.5374
  230MOL0     O30945   6.319   0.235   5.506 -0.0217  0.2625 -0.1537
  230MOL0     C30946   6.331   0.259   5.374 -0.6101 -0.5791 -0.0074
  230MOL0     C30947   6.210   0.257   5.297 -1.4307 -0.1381 -0.3254
  230MOL0     C30948   6.214   0.250   5.162  0.2163  0.4366 -0.3686
  230MOL0     C30949   6.330   0.275   5.093 -1.2008 -0.8984 -0.3781
  230MOL0     O30950   6.319   0.266   4.958  0.8692 -0.3869  0.2494
  230MOL0     C30951   6.429   0.220   4.883 -0.7211  0.8345  0.1937
  230MOL0     C30952   6.383   0.131   4.755 -0.4241  0.2235 -0.6963
  230MOL0     C30953   6.251   0.174   4.702  0.2623 -0.7865  0.4761
  230MOL0     C30954   6.211   0.123   4.559 -0.2765 -0.1405 -0.1848
  230MOL0     C30955   6.060   0.147   4.545 -0.1042  0.3087  0.8746
  230MOL0     C30956   6.010   0.130   4.400 -0.3997  0.4043  0.1318
  230MOL0     C30957   5.857   0.159   4.414  0.0582 -0.9847 -0.2071
  230MOL0     C30958   5.804   0.256   4.300  0.1208  0.3189  0.8660
  230MOL0    Cl30959   5.866   0.184   4.146  0.2462 -0.1561 -0.0566
  230MOL0     C30960   6.460   0.297   5.163  0.3610  1.0303 -0.4236
  230MOL0     C30961   6.452   0.289   5.305 -0.5886  0.8602  0.6959
  230MOL0     O30962   6.506   0.105   5.539  0.6071  0.3528 -0.0908
  230MOL0     C30963   6.325   0.252   5.796  0.6091 -0.1800  0.1264
  230MOL0     C30964   6.307   0.251   5.933  0.4417  0.4527 -0.2136
  230MOL0     N30965   6.238   0.362   6.643  0.2295  0.1800  0.2567
  230MOL0     N30966   6.266   0.392   6.767 -0.3678 -0.5232  0.7893
  230MOL0     C30967   7.295   0.455   7.340 -0.3980 -0.5193  0.1099
  230MOL0     C30968   7.414   0.431   7.403 -0.2173  0.3529 -1.0599
  230MOL0     C30969   7.689   0.408   7.728 -0.4524 -0.1731 -0.5102
  230MOL0     C30970   7.790   0.442   7.639 -0.1799  0.1341 -0.1618
  230MOL0     C30971   7.907   0.497   7.681 -0.5834  0.4936 -0.0244
  230MOL0     C30972   7.935   0.523   7.823 -0.0612 -0.9122 -0.1907
  230MOL0     O30973   8.059   0.558   7.877  1.0579 -1.3077 -0.0453
  230MOL0     C30974   8.172   0.617   7.809  0.1423 -0.0218 -0.3422
  230MOL0     C30975   8.271   0.635   7.920 -1.0414  0.0665 -0.3886
  230MOL0     C30976   8.423   0.662   7.882 -0.3657  0.4670 -0.2070
  230MOL0     C30977   8.491   0.697   8.023  0.2319  0.9460  0.4210
  230MOL0     C30978   8.641   0.704   8.012 -1.2328  0.3868 -0.0275
  230MOL0     C30979   8.757   0.725   8.015 -0.2019  0.3922 -1.3285
  230MOL0     C30980   7.839   0.481   7.914  0.6772  0.1742 -0.1081
  230MOL0     C30981   7.720   0.424   7.873  0.3675  0.5949 -0.3874
  230MOL0     C30982   7.635   0.376   7.992  0.7020  0.3501 -0.0557
  230MOL0     H30983   7.351   0.129   7.543 -1.5116 -0.3473  0.3050
  230MOL0     H30984   7.128   0.182   7.433 -0.8208  0.7845 -3.6165
  230MOL0     H30985   6.968   0.441   7.476  1.0435  2.1962  1.6403
  230MOL0     H30986   7.051   0.569   7.389 -1.7567  2.0312 -3.9128
  230MOL0     H30987   6.803   0.571   7.360 -1.3289 -1.6418  0.0510
  230MOL0     H30988   6.827   0.434   7.250 -2.9805  0.4035  2.2405
  230MOL0     H30989   7.024   0.639   7.201 -1.2834  0.4981  2.1392
  230MOL0     H30990   6.872   0.717   7.189 -0.2193  0.5489 -1.5591
  230MOL0     H30991   7.020   0.581   6.996  1.8973 -2.1131  2.5248
  230MOL0     H30992   6.943   0.444   7.053  2.4079  0.7808  3.8635
  230MOL0     H30993   6.789   0.667   6.943  1.4828  0.8409  0.3897
  230MOL0     H30994   6.830   0.524   6.849  0.7394  1.1060 -0.7504
  230MOL0     H30995   6.707   0.395   7.034 -2.7298 -0.5110  0.2535
  230MOL0     H30996   6.642   0.548   7.084 -0.7542 -1.1435  1.3445
  230MOL0     H30997   6.625   0.470   6.780 -4.6258 -2.5407 -2.2657
  230MOL0     H30998   6.537   0.584   6.865  0.2679 -0.1002 -2.7339
  230MOL0     H30999   6.520   0.290   6.955  0.9771  1.4991  2.0038
  230MOL0     H31000   6.415   0.418   7.005 -0.8097 -1.1026  0.2760
  230MOL0     H31001   6.536   0.207   6.695  0.8774  0.7794 -2.6278
  230MOL0     H31002   6.344   0.122   6.480 -1.7192 -0.2689  0.1293
  230MOL0     H31003   6.253   0.258   6.414 -0.5564  0.5640  1.1172
  230MOL0     H31004   6.457   0.349   6.322 -1.9263 -0.9693 -0.4792
  230MOL0     H31005   6.559   0.279   6.454 -1.0047  1.4112  0.9943
  230MOL0     H31006   6.568   0.063   6.369 -0.8772  2.1471  2.8192
  230MOL0     H31007   6.607   0.159   6.234 -0.0428 -2.6127 -1.2064
  230MOL0     H31008   6.335   0.038   6.293  3.0292 -1.3625  2.0477
  230MOL0     H31009   6.439  -0.013   6.159 -0.1013  1.0134 -0.1386
  230MOL0     H31010   6.573   0.058   6.012  1.4252 -0.9259 -1.0225
  230MOL0     H31011   6.576   0.045   5.764 -0.9126 -1.1369  1.7318
  230MOL0     H31012   6.116   0.253   5.352 -0.7502 -1.4036  0.7832
  230MOL0     H31013   6.129   0.218   5.103  0.4727 -1.1593  0.0782
  230MOL0     H31014   6.491   0.301   4.842 -0.1849 -0.0916 -0.8746
  230MOL0     H31015   6.506   0.163   4.935  2.1090  1.0616 -3.3611
  230MOL0     H31016   6.456   0.139   4.674 -1.7683  1.5026 -1.8252
  230MOL0     H31017   6.375   0.024   4.777  0.0365 -0.2227 -2.5334
  230MOL0     H31018   6.178   0.148   4.778  0.4807  0.0367  0.9816
  230MOL0     H31019   6.249   0.284   4.696 -3.7289 -0.7137  0.4560
  230MOL0     H31020   6.215   0.014   4.561 -2.3103 -0.2734 -1.0476
  230MOL0     H31021   6.285   0.154   4.484  3.0411 -0.8886  2.5345
  230MOL0     H31022   6.030   0.243   4.586 -2.1992  1.9221 -3.7418
  230MOL0     H31023   6.019   0.065   4.605 -1.2180 -0.0549 -0.3409
  230MOL0     H31024   6.057   0.204   4.335 -0.8313  3.2739  2.8887
  230MOL0     H31025   6.014   0.026   4.365  2.1258  1.2734 -2.5638
  230MOL0     H31026   5.844   0.202   4.513  0.3375 -1.2503 -0.0518
  230MOL0     H31027   5.805   0.063   4.423  0.4314 -1.0491  1.6902
  230MOL0     H31028   5.697   0.244   4.284  0.1660  0.1269  0.7064
  230MOL0     H31029   5.832   0.360   4.322 -1.7278  1.0285  0.0558
  230MOL0     H31030   6.556   0.312   5.115  2.1392 -3.3940  1.2241
  230MOL0     H31031   6.537   0.291   5.372  0.4260 -0.9862 -0.4425
  230MOL0     H31032   6.256   0.303   5.729  3.2760  2.3226 -0.9274
  230MOL0     H31033   6.230   0.313   5.977  0.6533  1.8582 -1.7388
  230MOL0     H31034   7.285   0.546   7.281  2.3928 -0.3791 -0.2603
  230MOL0     H31035   7.483   0.515   7.395 -1.3978  1.9473  2.9117
  230MOL0     H31036   7.786   0.415   7.534  1.6452  3.6216 -1.2976
  230MOL0     H31037   7.978   0.518   7.601 -0.9516 -0.8611 -0.7373
  230MOL0     H31038   8.154   0.718   7.774 -2.6459 -1.0190 -2.0691
  230MOL0     H31039   8.212   0.544   7.738 -0.1060  0.9930 -1.5466
  230MOL0     H31040   8.276   0.534   7.963 -0.2649  0.8322  1.4070
  230MOL0     H31041   8.232   0.705   7.994 -0.2919 -0.9897  1.0702
  230MOL0     H31042   8.420   0.741   7.806 -0.2183  1.7595  1.0838
  230MOL0     H31043   8.474   0.574   7.841  2.0554  2.4341 -1.7417
  230MOL0     H31044   8.444   0.777   8.079  0.8163  1.4475  0.2104
  230MOL0     H31045   8.465   0.603   8.072 -5.7486  0.4794 -2.7414
  230MOL0     H31046   8.863   0.723   8.026 -0.3672  0.9217  0.9431
  230MOL0     H31047   7.853   0.474   8.022 -2.8107 -0.0259  0.4606
  230MOL0     H31048   7.691   0.357   8.084  0.4148 -0.0826  0.0290
  230MOL0     H31049   7.554   0.442   8.024  0.0275 -0.5377  0.1065
  230MOL0     H31050   7.576   0.290   7.959  1.2163 -0.3479  0.8249
  231MOL0     O31051   7.750   4.389  10.758 -0.1323  0.5028 -0.2657
  231MOL0     C31052   7.645   4.429  10.707 -0.7863 -0.1671 -0.7669
  231MOL0     O31053   7.628   4.467  10.575  0.0362 -0.0339 -0.4079
  231MOL0     C31054   7.742   4.506  10.509 -0.0386  0.2556  0.7441
  231MOL0     C31055   7.811   4.614  10.551  0.2200  0.2424  0.2070
  231MOL0     C31056   7.925   4.653  10.481 -0.9661 -0.1006  0.3828
  231MOL0     C31057   7.964   4.585  10.358  0.3112 -0.1105 -0.1814
  231MOL0     O31058   8.083   4.615  10.295  0.0330  0.3523  0.0535
  231MOL0     C31059   8.106   4.750  10.265  0.0931 -0.2486 -0.0629
  231MOL0     C31060   8.190   4.763  10.140  0.7600 -0.0209 -0.9584
  231MOL0     C31061   8.327   4.708  10.160  0.1681  0.5546 -0.7974
  231MOL0     C31062   8.412   4.727  10.035  0.2974 -0.3018  0.5891
  231MOL0     C31063   8.470   4.876  10.022  0.1994  0.2447  0.1390
  231MOL0     C31064   8.399   4.961   9.917  0.7587 -0.9170  0.9222
  231MOL0     C31065   8.407   4.923   9.770  0.3672  0.7832  0.6262
  231MOL0     C31066   8.337   5.022   9.678 -0.3136  0.4850 -0.1738
  231MOL0     N31067   8.411   5.150   9.660 -0.1301 -0.6376  0.5142
  231MOL0     C31068   8.350   5.267   9.620 -0.0602 -0.0861  0.9207
  231MOL0     C31069   8.433   5.377   9.645 -0.9692  0.1514 -0.5306
  231MOL0     C31070   8.410   5.516   9.604 -0.2572 -0.4729 -0.1569
  231MOL0     C31071   8.437   5.553   9.462 -0.7177  0.5670 -1.0304
  231MOL0     C31072   8.386   5.695   9.421 -0.9280 -0.7808  0.4921
  231MOL0     C31073   8.473   5.807   9.473  0.0884 -0.0456 -0.1403
  231MOL0     O31074   8.613   5.818   9.434  0.0783 -0.0860 -0.1271
  231MOL0     C31075   8.694   5.895   9.508 -0.4632 -0.0425 -0.4412
  231MOL0     C31076   8.804   5.831   9.564 -0.8189 -0.6538 -1.1669
  231MOL0     C31077   8.901   5.912   9.631 -0.3452  0.2643 -0.6642
  231MOL0     C31078   8.892   6.056   9.625 -0.3325 -0.2109  0.4330
  231MOL0     C31079   8.994   6.140   9.682  0.0863 -0.0682 -0.2086
  231MOL0     O31080   8.958   6.266   9.706 -0.1312 -0.1943 -0.3637
  231MOL0     C31081   9.037   6.349   9.782 -0.1355 -0.2700  0.7057
  231MOL0     C31082   8.994   6.402   9.911  0.2943 -0.3983 -0.2592
  231MOL0     C31083   9.073   6.501   9.973 -0.9386 -1.1090  0.6106
  231MOL0     C31084   9.196   6.548   9.917  0.3648  0.3833  0.3736
  231MOL0     O31085   9.273   6.629   9.997  0.1315  0.2966 -0.2621
  231MOL0     C31086   9.396   6.565  10.036 -0.2067  0.0390 -0.1617
  231MOL0     C31087   9.483   6.666  10.117  0.1163 -0.4783  0.3777
  231MOL0     C31088   9.452   6.668  10.266  1.2205 -0.3176  0.2033
  231MOL0     C31089   9.551   6.590  10.348  0.1383  0.2813 -0.4450
  231MOL0     C31090   9.690   6.665  10.373  0.5724 -0.0102  0.8398
  231MOL0     C31091   9.671   6.821  10.413 -0.0129 -0.0348  0.5204
  231MOL0     C31092   9.813   6.868  10.449 -0.3784 -0.4248  0.1443
  231MOL0     C31093   9.832   7.012  10.460  0.6623 -0.1644  0.5600
  231MOL0    Cl31094  10.008   7.042  10.506  0.1439 -0.7055  0.1520
  231MOL0     C31095   9.238   6.499   9.792 -0.4291 -0.6532 -0.3323
  231MOL0     C31096   9.160   6.389   9.738 -0.7422 -1.8407  0.0000
  231MOL0     O31097   9.103   6.082   9.705  0.5413 -0.6848  0.2344
  231MOL0     C31098   8.776   6.113   9.565 -0.2980  1.2186 -0.2186
  231MOL0     C31099   8.673   6.034   9.516 -0.3933  0.5671  0.2858
  231MOL0     N31100   8.549   5.320   9.701 -0.7004 -0.0232 -0.5951
  231MOL0     N31101   8.534   5.187   9.714  0.6283  0.6041  0.7922
  231MOL0     C31102   7.888   4.472  10.318  0.3402  0.4120 -0.1033
  231MOL0     C31103   7.772   4.437  10.387  0.0451  0.1253 -0.2962
  231MOL0     C31104   7.521   4.432  10.792  0.4011  0.2477  0.3470
  231MOL0     C31105   7.389   4.446  10.731  0.1160  0.2657 -0.2836
  231MOL0     C31106   7.273   4.458  10.797  0.8852  0.7387 -0.3152
  231MOL0     C31107   7.266   4.472  10.937 -0.8376  0.7294 -0.7908
  231MOL0     O31108   7.153   4.494  11.009  0.0023  0.3521 -0.0338
  231MOL0     C31109   7.072   4.605  10.954 -0.4076 -0.9637 -0.0721
  231MOL0     C31110   6.926   4.549  10.962 -0.3867 -0.0603 -0.1809
  231MOL0     C31111   6.883   4.447  10.851 -0.8491  0.1263  1.1329
  231MOL0     C31112   6.732   4.446  10.826  0.1139  0.0804 -0.6876
  231MOL0     C31113   6.666   4.355  10.919 -0.8866 -0.0260  0.0277
  231MOL0     C31114   6.599   4.293  10.994 -0.9999  0.3667 -0.6585
  231MOL0     C31115   7.387   4.451  11.002 -0.5535  1.3387 -0.0735
  231MOL0     C31116   7.513   4.428  10.943  0.0618  0.1771  0.1950
  231MOL0     C31117   7.631   4.411  11.029  0.5426  0.2221 -0.7441
  231MOL0     H31118   7.798   4.660  10.649  1.0840  0.6973  0.1172
  231MOL0     H31119   7.989   4.728  10.526  0.4764 -0.1589 -1.4571
  231MOL0     H31120   8.009   4.793  10.241  0.5901  0.4497 -0.9212
  231MOL0     H31121   8.148   4.805  10.349  1.7140 -0.6909 -0.5328
  231MOL0     H31122   8.194   4.869  10.114  2.9315 -0.0172 -0.7677
  231MOL0     H31123   8.155   4.710  10.051  3.2747 -0.8403 -1.5335
  231MOL0     H31124   8.306   4.601  10.176 -0.8473  0.2769 -3.4745
  231MOL0     H31125   8.366   4.761  10.247  0.8956 -3.0972  1.3397
  231MOL0     H31126   8.505   4.672  10.057  0.8072 -0.0522 -0.8396
  231MOL0     H31127   8.363   4.705   9.940  0.6679  1.8037 -0.1463
  231MOL0     H31128   8.459   4.935  10.113 -1.7458  0.2903 -0.1002
  231MOL0     H31129   8.572   4.870   9.983 -1.0629 -1.1123 -3.3714
  231MOL0     H31130   8.293   4.965   9.943  0.7678  0.4585  0.8636
  231MOL0     H31131   8.439   5.062   9.932  2.0747 -1.6009  2.3269
  231MOL0     H31132   8.371   4.820   9.768 -3.2175  1.8084  2.9260
  231MOL0     H31133   8.508   4.917   9.730  0.4484  0.8414  0.8213
  231MOL0     H31134   8.316   4.965   9.587 -2.1476 -2.2438  1.8037
  231MOL0     H31135   8.241   5.040   9.726  0.3037 -0.5003  1.5168
  231MOL0     H31136   8.247   5.268   9.587  0.2558 -0.4019 -0.1406
  231MOL0     H31137   8.306   5.540   9.631 -0.4087 -1.6456  0.4004
  231MOL0     H31138   8.481   5.583   9.653 -0.4076  0.4646 -1.1826
  231MOL0     H31139   8.544   5.544   9.442 -0.3621  1.1069  0.4972
  231MOL0     H31140   8.386   5.482   9.396 -0.5708  3.3207 -4.3834
  231MOL0     H31141   8.283   5.711   9.454 -1.4652  1.7385 -2.0189
  231MOL0     H31142   8.380   5.702   9.312 -2.0791  0.8963  0.6361
  231MOL0     H31143   8.462   5.815   9.582  1.7725 -3.4680  0.4235
  231MOL0     H31144   8.431   5.897   9.428  0.6151  0.6531  0.7364
  231MOL0     H31145   8.798   5.723   9.574 -0.4607 -0.4969  1.7683
  231MOL0     H31146   8.991   5.870   9.676 -0.8350 -2.2534 -1.8549
  231MOL0     H31147   8.893   6.384   9.947 -0.0990  0.3370 -0.9568
  231MOL0     H31148   9.043   6.570  10.051  1.0827  4.7633 -3.1330
  231MOL0     H31149   9.366   6.478  10.095 -0.5405  1.3632  1.7109
  231MOL0     H31150   9.445   6.528   9.945 -2.3897 -1.8829 -0.6534
  231MOL0     H31151   9.584   6.628  10.099 -0.5336 -1.1350 -2.2553
  231MOL0     H31152   9.466   6.767  10.079  0.5935 -0.0452  1.2803
  231MOL0     H31153   9.434   6.770  10.303 -0.8536 -0.8748  0.8318
  231MOL0     H31154   9.354   6.624  10.287  0.9220  1.4238  3.1245
  231MOL0     H31155   9.567   6.487  10.315  2.4419 -0.0024  1.2647
  231MOL0     H31156   9.504   6.581  10.446 -0.0371  1.4763 -0.3998
  231MOL0     H31157   9.757   6.650  10.288  1.7152 -0.7821  1.8480
  231MOL0     H31158   9.735   6.613  10.458 -0.1374 -2.0652  0.0161
  231MOL0     H31159   9.621   6.884  10.339 -0.8803  0.9000  1.8612
  231MOL0     H31160   9.618   6.843  10.506  0.2309  2.5493  0.1015
  231MOL0     H31161   9.881   6.847  10.366  0.0279  1.5954 -0.0825
  231MOL0     H31162   9.849   6.826  10.543  1.8933  3.0892  1.0204
  231MOL0     H31163   9.812   7.059  10.363  1.5174 -0.6546  0.1348
  231MOL0     H31164   9.762   7.068  10.523 -1.1846  1.4940 -2.7270
  231MOL0     H31165   9.322   6.545   9.741 -0.5180 -2.0213 -1.7947
  231MOL0     H31166   9.198   6.359   9.642  2.1945  0.7754  0.1805
  231MOL0     H31167   8.759   6.220   9.567 -1.1880  1.0774  0.5727
  231MOL0     H31168   8.575   6.069   9.484 -0.7244 -1.1718 -0.7550
  231MOL0     H31169   7.928   4.408  10.241  1.1644  0.7750  0.0083
  231MOL0     H31170   7.723   4.345  10.355  1.6651  0.0677 -2.9514
  231MOL0     H31171   7.371   4.448  10.625 -0.3529  0.0891 -0.2084
  231MOL0     H31172   7.178   4.469  10.745  0.7578 -0.4823 -0.3652
  231MOL0     H31173   7.101   4.634  10.853 -1.3601 -1.6539 -0.5588
  231MOL0     H31174   7.087   4.688  11.025  0.2575 -1.8499  0.8628
  231MOL0     H31175   6.858   4.634  10.965 -1.3810 -0.7807 -1.3221
  231MOL0     H31176   6.912   4.493  11.055  1.2670  0.1448  0.2205
  231MOL0     H31177   6.917   4.348  10.885 -1.8476 -0.5980  0.0928
  231MOL0     H31178   6.924   4.456  10.750  0.8943  0.3336  1.8219
  231MOL0     H31179   6.690   4.547  10.840 -1.1810 -0.5982  0.6305
  231MOL0     H31180   6.714   4.396  10.731 -1.3712  1.4393 -1.1683
  231MOL0     H31181   6.539   4.212  11.032  1.4662 -1.1628  0.2424
  231MOL0     H31182   7.384   4.452  11.111 -0.1157 -0.6326 -0.0075
  231MOL0     H31183   7.710   4.484  11.010  3.4619 -2.1138  1.4338
  231MOL0     H31184   7.599   4.418  11.133 -3.0542  2.9288 -1.8439
  231MOL0     H31185   7.658   4.307  11.010 -1.8153 -0.4576 -0.6947
  232MOL0     O31186   8.640   0.548  10.301 -0.3332  0.4269 -0.5208
  232MOL0     C31187   8.678   0.657  10.340  0.0950  0.3866  0.1194
  232MOL0     O31188   8.801   0.708  10.315  0.1768  0.2492 -0.8971
  232MOL0     C31189   8.895   0.621  10.262 -0.7511  0.4323 -0.2515
  232MOL0     C31190   8.879   0.552  10.134 -0.7419  0.1281  0.0284
  232MOL0     C31191   8.983   0.457  10.102  0.3328  1.1471  0.3753
  232MOL0     C31192   9.091   0.438  10.187  0.2823  0.3214  0.4422
  232MOL0     O31193   9.181   0.347  10.149 -0.3017  0.4139 -0.4765
  232MOL0     C31194   9.300   0.327  10.223 -0.1562 -0.3285 -1.1601
  232MOL0     C31195   9.394   0.234  10.145 -0.8060 -0.2069 -1.0183
  232MOL0     C31196   9.533   0.274  10.204  0.6508 -0.2866 -0.2612
  232MOL0     C31197   9.644   0.187  10.153  0.3888 -0.3934 -0.4727
  232MOL0     C31198   9.785   0.256  10.185 -0.4484 -0.6020  0.4279
  232MOL0     C31199   9.855   0.167  10.290  0.6354  0.7350 -0.3799
  232MOL0     C31200   9.977   0.241  10.355 -0.5093 -0.7101  0.7472
  232MOL0     C31201  10.088   0.272  10.262 -0.3831  0.4559  0.0964
  232MOL0     N31202  10.086   0.409  10.192  0.3487 -0.7524 -1.0810
  232MOL0     C31203  10.007   0.527  10.229 -0.4578  0.4921  0.6046
  232MOL0     C31204  10.028   0.610  10.119 -1.4733 -0.3763 -0.3301
  232MOL0     C31205   9.950   0.734  10.100 -0.7345 -0.3032  1.0872
  232MOL0     C31206  10.002   0.840  10.189  0.9536 -0.5966 -0.1993
  232MOL0     C31207   9.909   0.960  10.186  0.0149  0.2201 -0.5788
  232MOL0     C31208   9.943   1.078  10.271 -0.3255 -0.6254  0.1083
  232MOL0     O31209   9.950   1.034  10.407 -0.6244  0.5165 -0.3874
  232MOL0     C31210   9.933   1.127  10.506 -0.4598 -0.5077 -0.3399
  232MOL0     C31211   9.960   1.263  10.490 -0.0020 -0.8249 -0.7476
  232MOL0     C31212   9.975   1.349  10.593 -1.0853  0.3020  0.6735
  232MOL0     C31213   9.942   1.313  10.725 -0.6167  0.6777  0.2669
  232MOL0     C31214   9.949   1.393  10.841 -0.2818 -0.4575  0.8816
  232MOL0     O31215   9.977   1.519  10.799  0.0565 -0.0332  0.3645
  232MOL0     C31216   9.998   1.610  10.900 -0.9693  0.0507  0.1343
  232MOL0     C31217   9.899   1.650  10.987  0.4267  0.6371  0.6117
  232MOL0     C31218   9.920   1.729  11.101  0.2551  1.0720  0.4440
  232MOL0     C31219  10.047   1.768  11.135  0.2141  0.6800  0.4729
  232MOL0     O31220  10.085   1.816  11.259  0.3059  0.2897 -0.2423
  232MOL0     C31221  10.045   1.726  11.363  0.0912  0.5689  0.4895
  232MOL0     C31222  10.102   1.784  11.489 -0.4329 -0.2599 -0.3340
  232MOL0     C31223  10.072   1.706  11.620 -0.1082 -0.8969  0.4286
  232MOL0     C31224   9.920   1.673  11.633 -0.3598 -0.9005 -0.2915
  232MOL0     C31225   9.903   1.579  11.747 -0.7848 -0.1582  0.2102
  232MOL0     C31226   9.764   1.540  11.792  0.9710  0.2863  0.7679
  232MOL0     C31227   9.669   1.659  11.823 -0.3223  0.2443 -0.6954
  232MOL0     C31228   9.534   1.601  11.838  0.0078 -0.2905  0.3622
  232MOL0    Cl31229   9.477   1.571  11.666 -0.1933  0.1932  0.8728
  232MOL0     C31230  10.147   1.746  11.042  1.2338 -0.8072  0.2387
  232MOL0     C31231  10.117   1.673  10.925 -0.0284  0.4859 -0.8445
  232MOL0     O31232   9.910   1.353  10.947 -0.1010 -0.2184  0.2467
  232MOL0     C31233   9.904   1.178  10.743 -0.4433 -0.4021 -0.0752
  232MOL0     C31234   9.900   1.092  10.630 -0.7428  0.0199 -0.1339
  232MOL0     N31235  10.097   0.545  10.024  0.4940 -0.1755 -0.1762
  232MOL0     N31236  10.138   0.430  10.072 -0.2754  0.1616  0.9930
  232MOL0     C31237   9.095   0.501  10.312 -0.6649 -0.1663  1.0331
  232MOL0     C31238   9.000   0.589  10.348  0.1872 -0.1799 -0.9112
  232MOL0     C31239   8.586   0.731  10.422 -0.3908  0.5729  0.6507
  232MOL0     C31240   8.644   0.770  10.549 -0.7842 -0.3097 -0.4518
  232MOL0     C31241   8.579   0.852  10.636  0.2594  0.8936  0.1451
  232MOL0     C31242   8.445   0.890  10.602  0.9851  0.5911 -0.2273
  232MOL0     O31243   8.358   0.945  10.690 -0.0289  0.4229 -0.2338
  232MOL0     C31244   8.409   0.991  10.817  1.0869 -0.2463  0.0978
  232MOL0     C31245   8.300   1.087  10.867  0.7581 -0.7186  0.1676
  232MOL0     C31246   8.371   1.156  10.995 -0.1578  0.2407 -0.2304
  232MOL0     C31247   8.263   1.214  11.087 -0.5017 -0.0817 -0.5214
  232MOL0     C31248   8.225   1.121  11.200 -0.4386 -0.6312  0.0004
  232MOL0     C31249   8.203   1.064  11.302 -0.3220 -0.4926 -0.2497
  232MOL0     C31250   8.388   0.848  10.486  0.0875  0.2896  0.7720
  232MOL0     C31251   8.458   0.766  10.394  0.1487 -0.6975 -0.0842
  232MOL0     C31252   8.393   0.733  10.257 -0.3747  1.6000  0.0519
  232MOL0     H31253   8.801   0.588  10.068 -2.4374  1.5338  2.6231
  232MOL0     H31254   8.983   0.382  10.023  0.1195  0.8024  0.6944
  232MOL0     H31255   9.345   0.424  10.241 -1.5958 -0.3077  3.5002
  232MOL0     H31256   9.282   0.278  10.319  1.7002 -0.3631 -0.7958
  232MOL0     H31257   9.391   0.239  10.036 -1.2042 -2.1711 -1.1326
  232MOL0     H31258   9.369   0.133  10.178 -1.0760  0.6707  1.7692
  232MOL0     H31259   9.527   0.246  10.309  3.9914  1.0222  0.3998
  232MOL0     H31260   9.545   0.382  10.191 -1.9927  0.5559  2.9656
  232MOL0     H31261   9.639   0.085  10.192  1.5185 -0.3546 -0.2081
  232MOL0     H31262   9.632   0.168  10.046  0.6820 -3.7336 -0.0395
  232MOL0     H31263   9.839   0.271  10.091 -3.3098  0.7164 -1.1365
  232MOL0     H31264   9.770   0.358  10.221  1.3951 -0.0266 -0.2981
  232MOL0     H31265   9.782   0.146  10.368 -0.4804 -2.4663 -2.1208
  232MOL0     H31266   9.889   0.065  10.270  1.9768  0.6669  1.9243
  232MOL0     H31267   9.998   0.169  10.434 -1.7022 -2.7526 -0.6983
  232MOL0     H31268   9.942   0.334  10.401  0.7769 -0.2695  0.8539
  232MOL0     H31269  10.186   0.274  10.310 -0.5987 -1.1508  0.6568
  232MOL0     H31270  10.095   0.197  10.184  1.9631  2.6312 -1.9777
  232MOL0     H31271   9.947   0.554  10.316 -0.3686 -0.4320  0.9641
  232MOL0     H31272   9.966   0.771   9.998 -0.4674 -1.0751  0.8443
  232MOL0     H31273   9.846   0.709  10.121 -0.6912  0.1558  1.8653
  232MOL0     H31274  10.011   0.800  10.290  1.8877  1.5450  0.6260
  232MOL0     H31275  10.098   0.877  10.151 -0.7811  1.7849 -2.7207
  232MOL0     H31276   9.812   0.923  10.219  1.3782 -1.2658  2.0761
  232MOL0     H31277   9.891   1.007  10.088 -1.0384  1.0380 -0.0038
  232MOL0     H31278   9.862   1.152  10.266  0.9077  0.9441  1.8496
  232MOL0     H31279  10.029   1.133  10.233 -1.6516  0.1523 -1.8961
  232MOL0     H31280   9.987   1.303  10.393 -0.9730 -0.2583 -0.7866
  232MOL0     H31281  10.013   1.449  10.574 -2.7536  0.7953 -0.3299
  232MOL0     H31282   9.807   1.594  10.970  0.4360  1.0103 -0.8161
  232MOL0     H31283   9.836   1.747  11.167  0.2171  0.1963  0.6400
  232MOL0     H31284   9.936   1.712  11.364  0.3405 -1.7790  1.7469
  232MOL0     H31285  10.080   1.625  11.339 -3.9624 -0.6837 -0.9831
  232MOL0     H31286  10.209   1.806  11.483  0.1579 -2.3211  1.2026
  232MOL0     H31287  10.051   1.880  11.501  0.7493  0.4200 -0.6484
  232MOL0     H31288  10.136   1.617  11.629  0.7170 -0.4267 -0.5423
  232MOL0     H31289  10.104   1.770  11.703 -0.9391  0.5489 -0.3359
  232MOL0     H31290   9.877   1.625  11.544 -0.2387 -4.5575  1.4665
  232MOL0     H31291   9.881   1.773  11.658 -0.3682 -1.7134  3.5487
  232MOL0     H31292   9.969   1.602  11.831  0.1922 -4.1271  0.7565
  232MOL0     H31293   9.947   1.481  11.725  1.5117  0.3835  2.0199
  232MOL0     H31294   9.726   1.475  11.713  1.9274  0.2929  0.2876
  232MOL0     H31295   9.777   1.492  11.890  3.5731 -1.7018 -0.4552
  232MOL0     H31296   9.681   1.736  11.746  0.9662  1.6717  0.8712
  232MOL0     H31297   9.697   1.700  11.920  1.4017 -4.1018  0.8872
  232MOL0     H31298   9.527   1.512  11.901 -0.2363 -0.9187 -0.5326
  232MOL0     H31299   9.474   1.683  11.880  0.5533  0.3771 -0.1299
  232MOL0     H31300  10.243   1.792  11.065 -0.0549  1.4514  1.4971
  232MOL0     H31301  10.203   1.657  10.861  0.0626 -0.6734 -0.4525
  232MOL0     H31302   9.899   1.140  10.845  0.7463  1.6611  0.8150
  232MOL0     H31303   9.866   0.992  10.656  0.5536 -1.8010 -4.5758
  232MOL0     H31304   9.187   0.501  10.370 -0.0425  0.8441  0.1054
  232MOL0     H31305   9.004   0.634  10.446  3.2096  0.8499 -1.4229
  232MOL0     H31306   8.744   0.739  10.577 -0.4851  0.4465 -0.6627
  232MOL0     H31307   8.627   0.880  10.729 -1.9546  2.3272  0.9382
  232MOL0     H31308   8.501   1.048  10.800  0.5964  0.5312  0.0282
  232MOL0     H31309   8.427   0.908  10.887 -2.4327 -0.3042  1.1209
  232MOL0     H31310   8.211   1.030  10.896  0.6550 -0.2263  0.8398
  232MOL0     H31311   8.283   1.162  10.789  1.2890 -1.3427 -0.5638
  232MOL0     H31312   8.444   1.229  10.958 -0.7990  0.4214 -1.1568
  232MOL0     H31313   8.421   1.079  11.055 -2.8592 -2.4793 -1.2411
  232MOL0     H31314   8.303   1.305  11.132  2.2573 -1.4017 -0.1135
  232MOL0     H31315   8.174   1.246  11.032  0.5119 -0.4378 -2.4834
  232MOL0     H31316   8.181   1.000  11.385  1.1949 -2.0629 -1.0127
  232MOL0     H31317   8.285   0.877  10.470  0.3558  2.0044  1.8759
  232MOL0     H31318   8.308   0.800  10.239 -3.2153 -2.0055 -1.3122
  232MOL0     H31319   8.471   0.733  10.181 -2.1677 -1.2717 -1.9800
  232MOL0     H31320   8.354   0.631  10.260  0.1705  1.3238 -1.4723
  233MOL0     O31321   3.379   1.978  10.116 -0.0304 -0.3869 -0.1068
  233MOL0     C31322   3.312   2.065  10.173 -0.1346  0.0747 -1.4527
  233MOL0     O31323   3.193   2.113  10.134  0.6907 -0.6967  0.3588
  233MOL0     C31324   3.115   2.059  10.036  0.4890 -0.5147 -0.0679
  233MOL0     C31325   3.086   2.139   9.932  0.0838 -0.8364  0.6856
  233MOL0     C31326   2.998   2.099   9.827 -1.6334  0.2477  0.4777
  233MOL0     C31327   2.952   1.965   9.830 -0.3929 -0.0144 -0.3468
  233MOL0     O31328   2.873   1.903   9.740  0.0930  0.6117 -1.3468
  233MOL0     C31329   2.824   1.984   9.623  0.4114  0.1399  0.5518
  233MOL0     C31330   2.747   1.893   9.530  0.1597 -0.1225 -0.5308
  233MOL0     C31331   2.661   1.965   9.426  0.2703 -0.4826  0.6022
  233MOL0     C31332   2.539   2.037   9.494 -1.0815  0.5809 -1.0911
  233MOL0     C31333   2.434   2.039   9.390 -0.4673  0.0563 -0.2487
  233MOL0     C31334   2.326   2.137   9.428  0.1676  0.0370  0.0340
  233MOL0     C31335   2.206   2.142   9.325 -0.3351 -0.4706 -0.3337
  233MOL0     C31336   2.207   2.253   9.227 -0.4764 -0.7670  0.1834
  233MOL0     N31337   2.335   2.263   9.134  0.7814 -0.2787 -0.1800
  233MOL0     C31338   2.358   2.174   9.032  0.3300 -0.3220 -0.4627
  233MOL0     C31339   2.495   2.166   9.030 -0.1680  0.5607  0.1789
  233MOL0     C31340   2.596   2.085   8.949  1.0519 -0.4813 -0.6223
  233MOL0     C31341   2.644   1.969   9.032 -0.7908  0.7140 -0.4186
  233MOL0     C31342   2.635   1.838   8.955 -0.4172  0.4853 -0.2765
  233MOL0     C31343   2.714   1.720   9.023  0.9886 -0.3238  0.4329
  233MOL0     O31344   2.851   1.752   9.006 -0.5723 -0.4531  0.2131
  233MOL0     C31345   2.936   1.727   9.115  0.4337  0.0678  0.9791
  233MOL0     C31346   3.039   1.809   9.131 -0.6980  0.3903 -0.6828
  233MOL0     C31347   3.129   1.783   9.242 -0.0713 -0.5734  0.4716
  233MOL0     C31348   3.105   1.684   9.335 -0.4084 -0.8528  0.1667
  233MOL0     C31349   3.209   1.661   9.445 -0.0150 -0.7687 -0.2970
  233MOL0     O31350   3.152   1.617   9.563 -0.3856  0.5848 -0.0344
  233MOL0     C31351   3.239   1.605   9.666  0.7765 -1.0469 -0.4314
  233MOL0     C31352   3.282   1.484   9.723 -0.2479  1.0972  1.1748
  233MOL0     C31353   3.360   1.473   9.829  1.0112  1.0560  0.1392
  233MOL0     C31354   3.401   1.581   9.905  0.1653  1.0206  0.1604
  233MOL0     O31355   3.486   1.553   9.999 -0.1012  0.2862  0.3765
  233MOL0     C31356   3.554   1.660  10.057 -0.5608 -0.6553  0.2472
  233MOL0     C31357   3.469   1.698  10.180  0.3001 -0.3263 -0.1545
  233MOL0     C31358   3.484   1.597  10.296 -0.0770 -0.0744  0.5564
  233MOL0     C31359   3.387   1.619  10.414 -0.7863 -0.2881  0.5075
  233MOL0     C31360   3.443   1.737  10.495  0.1698 -0.3890 -0.6564
  233MOL0     C31361   3.341   1.774  10.613 -0.2372  0.4718 -0.4773
  233MOL0     C31362   3.364   1.904  10.693 -0.9347  0.1075 -1.1446
  233MOL0     C31363   3.468   1.891  10.805 -0.5880  0.2083  0.6019
  233MOL0    Cl31364   3.470   2.056  10.878  0.3739 -0.3436  0.1702
  233MOL0     C31365   3.350   1.705   9.864  0.5580 -0.0560  0.1770
  233MOL0     C31366   3.264   1.706   9.751 -0.3676 -0.2736  0.2695
  233MOL0     O31367   3.325   1.713   9.429  0.6455 -0.5630 -0.2546
  233MOL0     C31368   2.991   1.610   9.326  1.8410  0.1559  0.4033
  233MOL0     C31369   2.918   1.616   9.208 -0.3388  0.4008  0.4201
  233MOL0     N31370   2.542   2.271   9.096  0.1664 -0.6736 -0.6859
  233MOL0     N31371   2.445   2.339   9.157 -0.4407  0.8789  0.1917
  233MOL0     C31372   2.987   1.882   9.944  0.8147 -0.3620  0.1793
  233MOL0     C31373   3.073   1.925  10.040  0.0177 -0.2555 -0.4466
  233MOL0     C31374   3.352   2.129  10.295 -0.7371 -0.2541  0.4160
  233MOL0     C31375   3.261   2.183  10.389 -0.4863  0.2410 -0.6485
  233MOL0     C31376   3.299   2.261  10.494 -0.2032 -0.0751  0.4617
  233MOL0     C31377   3.434   2.278  10.510 -0.8237 -0.5320 -0.2668
  233MOL0     O31378   3.486   2.349  10.620  0.4155  0.0742  0.4670
  233MOL0     C31379   3.459   2.482  10.622  0.1544 -0.2474 -1.2026
  233MOL0     C31380   3.567   2.534  10.710 -0.9100  0.1441  0.3598
  233MOL0     C31381   3.564   2.688  10.744  0.9298 -0.3195 -0.1325
  233MOL0     C31382   3.444   2.727  10.833  0.4965 -0.0452 -0.1753
  233MOL0     C31383   3.474   2.857  10.902 -0.1709 -0.1724 -0.3658
  233MOL0     C31384   3.512   2.970  10.946 -0.2902 -0.3133  0.3486
  233MOL0     C31385   3.526   2.209  10.437  0.2898 -0.8445 -0.1209
  233MOL0     C31386   3.489   2.140  10.327 -0.5402 -0.2404 -0.8961
  233MOL0     C31387   3.602   2.102  10.228  0.0306 -0.2550  0.1419
  233MOL0     H31388   3.105   2.244   9.953 -1.9481 -0.3579  0.3144
  233MOL0     H31389   2.972   2.166   9.746 -0.7738  0.3722  0.2984
  233MOL0     H31390   2.758   2.066   9.651  1.4804  1.2246 -0.0342
  233MOL0     H31391   2.916   2.027   9.584  2.8813 -1.6109  3.9243
  233MOL0     H31392   2.682   1.836   9.597  0.1384  0.7749  0.2318
  233MOL0     H31393   2.804   1.815   9.478  0.4749 -1.0371  1.1302
  233MOL0     H31394   2.622   1.897   9.351 -0.6735  1.9225 -1.1937
  233MOL0     H31395   2.724   2.040   9.376 -0.6795 -1.0656 -1.5521
  233MOL0     H31396   2.487   1.989   9.578  1.9660 -2.1469 -0.5470
  233MOL0     H31397   2.580   2.132   9.530 -0.2950 -0.4512  0.8867
  233MOL0     H31398   2.468   2.070   9.290 -1.5674 -1.5207 -1.1572
  233MOL0     H31399   2.394   1.939   9.377  0.4058 -0.3492  0.1166
  233MOL0     H31400   2.292   2.108   9.528 -0.1400 -2.7759 -0.8078
  233MOL0     H31401   2.365   2.237   9.452 -1.3574  0.0165  3.1057
  233MOL0     H31402   2.108   2.145   9.373 -1.3909 -4.3273 -1.8612
  233MOL0     H31403   2.194   2.049   9.269 -2.1686 -0.4983  0.0628
  233MOL0     H31404   2.119   2.233   9.165 -1.2843  1.3714  0.5348
  233MOL0     H31405   2.195   2.352   9.273 -1.8940  0.4218 -2.4821
  233MOL0     H31406   2.279   2.115   8.987 -1.0093 -0.5135  1.9875
  233MOL0     H31407   2.547   2.056   8.855  1.1962  0.8472 -1.1328
  233MOL0     H31408   2.679   2.152   8.922 -1.0846  1.8801 -1.7607
  233MOL0     H31409   2.746   2.002   9.057 -0.3305  0.2181 -1.5481
  233MOL0     H31410   2.588   1.959   9.124  0.4247 -3.8274  0.0728
  233MOL0     H31411   2.681   1.849   8.857  0.1226  0.4340 -0.0348
  233MOL0     H31412   2.532   1.808   8.934 -0.3358 -1.3008  1.5093
  233MOL0     H31413   2.688   1.633   8.963 -0.5432  2.2740 -2.9653
  233MOL0     H31414   2.676   1.704   9.125 -0.2663 -0.5580 -0.0580
  233MOL0     H31415   3.067   1.883   9.056 -2.3770 -0.1284 -1.8657
  233MOL0     H31416   3.223   1.836   9.247  0.7084 -1.7980 -0.8549
  233MOL0     H31417   3.259   1.387   9.679  0.4116 -0.1138  3.3216
  233MOL0     H31418   3.390   1.378   9.871  0.8859  0.7072 -0.5641
  233MOL0     H31419   3.658   1.639  10.085 -0.2885 -2.2016 -1.6602
  233MOL0     H31420   3.569   1.743   9.988  0.8663  1.4091  2.8230
  233MOL0     H31421   3.521   1.787  10.217 -2.8705  1.5524  0.0725
  233MOL0     H31422   3.364   1.720  10.158  0.2542  0.3329  0.6776
  233MOL0     H31423   3.467   1.498  10.253 -1.6505  0.7678 -0.8562
  233MOL0     H31424   3.582   1.609  10.342 -1.1728  1.5386  2.6458
  233MOL0     H31425   3.393   1.531  10.479  1.0498 -1.5220 -1.2175
  233MOL0     H31426   3.286   1.631  10.375  0.0467  0.5798 -1.5585
  233MOL0     H31427   3.466   1.826  10.436 -1.0759 -0.1315 -0.7947
  233MOL0     H31428   3.538   1.715  10.543 -0.2279  2.3642  1.6421
  233MOL0     H31429   3.238   1.771  10.574 -0.7169 -1.1179  0.8011
  233MOL0     H31430   3.352   1.688  10.680  1.9153  0.0686 -1.2841
  233MOL0     H31431   3.274   1.932  10.749 -0.5570 -1.2546  0.2217
  233MOL0     H31432   3.392   1.987  10.628  0.0211  0.2235 -0.6006
  233MOL0     H31433   3.446   1.821  10.886  0.0720  0.2838  0.8555
  233MOL0     H31434   3.567   1.887  10.759  1.3786  3.8781  3.9004
  233MOL0     H31435   3.376   1.798   9.914 -0.9217  0.7703 -0.5142
  233MOL0     H31436   3.223   1.801   9.717  1.5562 -0.0960 -1.7680
  233MOL0     H31437   2.962   1.532   9.396  2.4647  1.4884  2.2347
  233MOL0     H31438   2.844   1.538   9.193  0.3248  0.4156 -4.2457
  233MOL0     H31439   2.952   1.780   9.946  1.2049 -0.5533  3.8985
  233MOL0     H31440   3.100   1.856  10.118 -0.2075  1.3813  1.1558
  233MOL0     H31441   3.157   2.154  10.378 -0.0507 -0.7902 -2.4347
  233MOL0     H31442   3.241   2.301  10.577  1.5165  2.2158  0.6461
  233MOL0     H31443   3.358   2.513  10.650  1.0915  1.6047  0.3788
  233MOL0     H31444   3.481   2.531  10.527 -0.2269 -1.3990 -1.9039
  233MOL0     H31445   3.660   2.511  10.656 -0.5538 -0.1691  1.0884
  233MOL0     H31446   3.575   2.482  10.806  1.8229 -0.5148 -0.1201
  233MOL0     H31447   3.564   2.749  10.654 -2.1130 -1.4600 -1.0354
  233MOL0     H31448   3.656   2.710  10.800 -0.0544  0.9787  1.0649
  233MOL0     H31449   3.352   2.741  10.774 -0.0056  0.3285  0.6752
  233MOL0     H31450   3.422   2.661  10.917  3.3664  0.2926  0.9356
  233MOL0     H31451   3.541   3.065  10.986 -2.0593  0.4792 -0.1710
  233MOL0     H31452   3.630   2.214  10.467 -0.3337  3.0743  2.0133
  233MOL0     H31453   3.590   2.000  10.192 -0.0137 -1.2432  2.7449
  233MOL0     H31454   3.584   2.169  10.143  0.8978 -0.8695 -0.5471
  233MOL0     H31455   3.701   2.128  10.268 -0.4903  1.6126  0.3291
  234MOL0     O31456   9.385   3.058   7.594  0.4213 -0.3091 -0.2923
  234MOL0     C31457   9.380   3.164   7.657  0.1945 -0.0963 -0.4893
  234MOL0     O31458   9.278   3.237   7.674 -0.3282  0.2916  0.2210
  234MOL0     C31459   9.160   3.224   7.601 -0.6741 -1.0264  0.1839
  234MOL0     C31460   9.118   3.136   7.498  0.3158 -0.8479 -0.7408
  234MOL0     C31461   9.001   3.142   7.432 -0.7112  0.1259  0.0825
  234MOL0     C31462   8.904   3.239   7.461  0.3857  1.0668 -0.3909
  234MOL0     O31463   8.778   3.249   7.402  0.2755 -0.6162 -0.3484
  234MOL0     C31464   8.760   3.194   7.273  1.0274 -0.7138  0.4928
  234MOL0     C31465   8.666   3.077   7.301 -0.6921  0.0746 -0.3830
  234MOL0     C31466   8.613   3.025   7.161 -1.0279 -0.6581 -0.0190
  234MOL0     C31467   8.475   3.085   7.147 -0.6942 -0.3073 -0.4741
  234MOL0     C31468   8.419   3.026   7.022  0.0429  0.9760  0.1773
  234MOL0     C31469   8.271   3.063   7.016  0.2876 -0.6901  0.9445
  234MOL0     C31470   8.209   3.001   6.886  0.3967  0.3469  0.1690
  234MOL0     C31471   8.064   3.038   6.893  0.1378  0.4621  0.1548
  234MOL0     N31472   7.995   2.998   6.777  1.0457  0.0679 -0.0930
  234MOL0     C31473   7.960   3.078   6.675  0.0445 -0.0967  0.6983
  234MOL0     C31474   7.870   3.006   6.605 -0.9528  0.6137  0.9638
  234MOL0     C31475   7.809   3.040   6.466 -0.2809  0.2436 -0.3261
  234MOL0     C31476   7.714   2.941   6.407  1.2559 -1.0784  0.2067
  234MOL0     C31477   7.560   2.964   6.428  0.0196  0.1184 -0.3908
  234MOL0     C31478   7.495   3.084   6.349 -0.0769 -1.6103 -0.2091
  234MOL0     O31479   7.486   3.025   6.216 -0.9983  0.1621  0.9450
  234MOL0     C31480   7.380   3.039   6.134  0.1518  0.3483 -0.8398
  234MOL0     C31481   7.359   2.926   6.059 -0.3572  0.4790  0.1916
  234MOL0     C31482   7.246   2.932   5.966 -0.4675  0.7475  0.3154
  234MOL0     C31483   7.167   3.045   5.947 -0.2443  0.6678 -1.0463
  234MOL0     C31484   7.041   3.038   5.861 -0.1623  0.0428 -0.0185
  234MOL0     O31485   6.957   3.142   5.867  0.2640  0.0053 -0.3701
  234MOL0     C31486   6.838   3.140   5.807 -0.2813 -0.9183 -0.6574
  234MOL0     C31487   6.756   3.020   5.798  0.2806  0.1548 -0.2484
  234MOL0     C31488   6.623   3.023   5.748 -0.1011  0.0257  0.5346
  234MOL0     C31489   6.566   3.158   5.726 -0.0511  1.2477  0.3600
  234MOL0     O31490   6.440   3.184   5.692 -0.0778  0.1057  0.1017
  234MOL0     C31491   6.334   3.098   5.738  0.1780  0.1624 -0.5273
  234MOL0     C31492   6.242   3.174   5.833 -0.8713  1.1080 -0.0538
  234MOL0     C31493   6.169   3.296   5.773  0.6197 -0.4403  0.3558
  234MOL0     C31494   6.084   3.379   5.869  0.1181 -0.4216 -0.2264
  234MOL0     C31495   5.986   3.477   5.803  0.4332 -0.4315  0.2075
  234MOL0     C31496   5.893   3.556   5.894  0.6522  0.5438 -0.3446
  234MOL0     C31497   5.957   3.692   5.920 -0.3688  0.4211 -0.2868
  234MOL0     C31498   5.869   3.778   6.006 -0.3036 -0.1806  0.6080
  234MOL0    Cl31499   5.977   3.897   6.073  0.2740  0.3106  0.2946
  234MOL0     C31500   6.647   3.267   5.738  0.4587 -0.3997  0.0623
  234MOL0     C31501   6.779   3.264   5.770 -0.1534 -0.0212 -0.2963
  234MOL0     O31502   7.024   2.934   5.799  0.1338  0.6609 -0.3305
  234MOL0     C31503   7.207   3.160   6.013  0.5457  0.1441 -0.1373
  234MOL0     C31504   7.318   3.165   6.107 -0.9393  0.3255  0.0972
  234MOL0     N31505   7.852   2.885   6.670 -0.5904 -0.0232 -0.2533
  234MOL0     N31506   7.925   2.885   6.779 -0.0992  0.1505  0.1842
  234MOL0     C31507   8.933   3.323   7.568 -0.3220  0.0269 -0.2171
  234MOL0     C31508   9.059   3.322   7.636  0.9415  0.2592 -0.0849
  234MOL0     C31509   9.513   3.197   7.733 -0.5861  0.1757 -0.2637
  234MOL0     C31510   9.574   3.086   7.789 -0.3047  0.2773  0.2877
  234MOL0     C31511   9.688   3.100   7.866  0.1983  0.5149 -0.1385
  234MOL0     C31512   9.755   3.217   7.870 -0.6560  0.0682 -0.9632
  234MOL0     O31513   9.886   3.220   7.925 -0.0335  1.1508  0.0686
  234MOL0     C31514   9.990   3.259   7.846 -0.3159  0.4038  1.0740
  234MOL0     C31515  10.033   3.388   7.910 -0.2731 -0.3926  0.5647
  234MOL0     C31516  10.131   3.474   7.822  0.9853 -0.0446 -1.1436
  234MOL0     C31517  10.067   3.596   7.756  0.4655  0.2494  0.8050
  234MOL0     C31518  10.011   3.692   7.852 -0.1325  1.0438  0.6365
  234MOL0     C31519   9.971   3.780   7.922 -1.0241 -0.4983 -0.9476
  234MOL0     C31520   9.695   3.333   7.825 -0.0220 -0.4078 -0.3777
  234MOL0     C31521   9.570   3.330   7.753  0.2270  0.0479  0.0380
  234MOL0     C31522   9.503   3.438   7.665 -1.1463  0.0266 -0.1177
  234MOL0     H31523   9.182   3.055   7.463 -1.4967 -2.4540 -0.4964
  234MOL0     H31524   8.989   3.076   7.347 -1.9820 -1.0673  1.1416
  234MOL0     H31525   8.719   3.276   7.214  0.8036 -2.0345 -1.2683
  234MOL0     H31526   8.844   3.146   7.223 -1.1631 -2.6281 -1.5595
  234MOL0     H31527   8.588   3.113   7.368 -0.9789  3.0388 -2.1519
  234MOL0     H31528   8.727   3.001   7.353 -0.0191  1.6800  1.2952
  234MOL0     H31529   8.612   2.916   7.154  0.7749 -0.7046 -0.0811
  234MOL0     H31530   8.684   3.073   7.093  0.1174  0.4286  1.8547
  234MOL0     H31531   8.420   3.044   7.232 -1.0465 -1.5362 -1.2689
  234MOL0     H31532   8.493   3.193   7.147 -2.8487  0.0938  0.9931
  234MOL0     H31533   8.478   3.059   6.937 -1.3487  1.9422 -0.4564
  234MOL0     H31534   8.427   2.918   7.036 -1.3276  1.0531  2.1273
  234MOL0     H31535   8.215   3.041   7.107 -0.9998 -3.1385 -0.3364
  234MOL0     H31536   8.271   3.172   7.004  0.2318 -0.7005  0.8538
  234MOL0     H31537   8.205   2.891   6.881  0.6626  0.3891 -2.9304
  234MOL0     H31538   8.250   3.037   6.792 -3.5081 -0.7932 -2.2394
  234MOL0     H31539   8.015   2.995   6.981  0.3920 -0.0345  0.0542
  234MOL0     H31540   8.056   3.147   6.898  4.4079  1.0282 -1.0506
  234MOL0     H31541   7.996   3.177   6.647  1.2899  0.1821  3.0135
  234MOL0     H31542   7.757   3.137   6.470 -3.5742 -1.0963 -4.1788
  234MOL0     H31543   7.893   3.051   6.398 -0.3762  1.7052 -0.2493
  234MOL0     H31544   7.730   2.927   6.300  1.8360 -3.0909  0.5196
  234MOL0     H31545   7.740   2.844   6.450 -0.5924 -1.2749  0.9786
  234MOL0     H31546   7.552   2.993   6.533 -0.1358  4.5332 -1.3938
  234MOL0     H31547   7.504   2.874   6.401 -0.7206  0.1284  1.0216
  234MOL0     H31548   7.560   3.171   6.343 -2.2546  0.2015  0.8397
  234MOL0     H31549   7.397   3.107   6.392  0.3871  0.0338  0.0396
  234MOL0     H31550   7.432   2.850   6.083  1.6092  3.0278  3.1777
  234MOL0     H31551   7.215   2.838   5.923  3.1023 -1.0157  1.1558
  234MOL0     H31552   6.791   2.927   5.841 -2.6186 -0.8015  0.2458
  234MOL0     H31553   6.567   2.931   5.737 -0.8851  0.3980  1.2287
  234MOL0     H31554   6.275   3.076   5.649 -0.4117  2.8608 -0.8867
  234MOL0     H31555   6.368   3.002   5.779  1.1991 -0.1573 -2.0695
  234MOL0     H31556   6.166   3.105   5.872  0.5114 -1.0870 -1.0389
  234MOL0     H31557   6.311   3.209   5.910  0.2099 -0.3346 -0.3035
  234MOL0     H31558   6.243   3.364   5.729  0.1522 -0.5657 -0.6553
  234MOL0     H31559   6.105   3.267   5.689 -0.3468  0.9393  0.5881
  234MOL0     H31560   6.140   3.429   5.949 -0.3167  0.1516 -0.2795
  234MOL0     H31561   6.029   3.302   5.924  1.3427 -2.3444 -1.5761
  234MOL0     H31562   5.926   3.412   5.739  2.0049 -3.5794  1.7053
  234MOL0     H31563   6.041   3.549   5.742 -1.0502  1.5211  1.0626
  234MOL0     H31564   5.796   3.572   5.845 -1.0649  2.0587  3.2186
  234MOL0     H31565   5.876   3.505   5.989 -1.3094 -1.7187 -1.7869
  234MOL0     H31566   5.978   3.752   5.830  0.3884  2.1712  0.9956
  234MOL0     H31567   6.054   3.686   5.970 -0.1194  1.6478 -0.5682
  234MOL0     H31568   5.800   3.836   5.945  1.5040  1.5071  0.0783
  234MOL0     H31569   5.825   3.726   6.092 -0.1317 -0.2103  0.6789
  234MOL0     H31570   6.588   3.357   5.723  0.3426 -0.5867 -0.6098
  234MOL0     H31571   6.835   3.356   5.784 -2.5369  1.1857  2.2187
  234MOL0     H31572   7.145   3.249   6.003  1.3533  0.8210  0.6914
  234MOL0     H31573   7.356   3.259   6.148  1.4191  0.2808 -1.7493
  234MOL0     H31574   8.850   3.383   7.603 -1.2551 -0.5707 -1.3311
  234MOL0     H31575   9.097   3.396   7.706 -1.6341  0.1843  1.5117
  234MOL0     H31576   9.528   2.988   7.776 -2.1708  1.2313 -0.6224
  234MOL0     H31577   9.733   3.007   7.898 -3.5706 -0.1848  4.1963
  234MOL0     H31578   9.960   3.282   7.744 -0.6750 -2.8634  0.3263
  234MOL0     H31579  10.070   3.186   7.862 -1.7659 -1.2530  1.0419
  234MOL0     H31580  10.100   3.349   7.987  3.6032 -0.9077 -2.7484
  234MOL0     H31581   9.953   3.449   7.953 -1.2543 -1.1773 -0.1068
  234MOL0     H31582  10.186   3.412   7.751 -1.1883 -3.2959 -0.2136
  234MOL0     H31583  10.207   3.505   7.895  1.7174  0.4049 -2.0692
  234MOL0     H31584  10.128   3.651   7.684 -0.6275 -1.0833 -1.2454
  234MOL0     H31585   9.985   3.557   7.695 -1.7034  2.0216  2.4595
  234MOL0     H31586   9.964   3.850   8.003  0.7423 -0.0803 -1.0989
  234MOL0     H31587   9.760   3.420   7.827  1.6695 -1.5477 -2.1135
  234MOL0     H31588   9.419   3.487   7.717  0.9551  1.8099  1.8006
  234MOL0     H31589   9.574   3.520   7.657 -0.1433 -0.8972 -0.8521
  234MOL0     H31590   9.469   3.411   7.565 -0.5193  0.9941 -0.6052
  235MOL0     O31591   9.435   7.367  10.706  0.3694 -0.1966  0.8358
  235MOL0     C31592   9.533   7.329  10.642  0.2544 -0.2854 -0.0334
  235MOL0     O31593   9.656   7.361  10.664 -0.1896  0.6501  0.5499
  235MOL0     C31594   9.702   7.422  10.779 -0.1331  0.2926  0.3276
  235MOL0     C31595   9.630   7.453  10.903 -0.5647  0.1450 -0.3020
  235MOL0     C31596   9.697   7.509  11.013  0.5254 -0.1590 -0.2010
  235MOL0     C31597   9.836   7.540  11.010  0.6619  0.2483  0.1524
  235MOL0     O31598   9.902   7.600  11.112  0.1027 -0.2212  0.3942
  235MOL0     C31599  10.046   7.579  11.122 -0.3121 -0.6859  0.4812
  235MOL0     C31600  10.098   7.652  11.247 -0.3998 -0.3778 -0.1948
  235MOL0     C31601  10.051   7.575  11.374 -0.4139 -0.0599  0.3785
  235MOL0     C31602  10.111   7.634  11.493  0.3061  0.1913 -0.0233
  235MOL0     C31603  10.025   7.584  11.615 -0.5233  0.2173 -0.3880
  235MOL0     C31604  10.076   7.659  11.736  0.0888  0.0159 -0.7270
  235MOL0     C31605   9.999   7.614  11.862  0.3674  0.2132 -0.1243
  235MOL0     C31606  10.041   7.701  11.977  0.1618 -0.2950 -0.5343
  235MOL0     N31607  10.175   7.678  12.026  0.4008 -0.3110 -0.1007
  235MOL0     C31608  10.223   7.562  12.077 -0.8462  0.3145 -0.0829
  235MOL0     C31609  10.359   7.573  12.060  0.0267 -0.1940  0.1312
  235MOL0     C31610  10.465   7.470  12.096  0.2389  0.0096 -0.2566
  235MOL0     C31611  10.469   7.438  12.244  0.9543 -0.2078 -0.4472
  235MOL0     C31612  10.557   7.326  12.297  0.0700 -0.3339 -0.3863
  235MOL0     C31613  10.709   7.375  12.303 -0.7408 -0.6118  0.7252
  235MOL0     O31614  10.771   7.293  12.401 -0.5554  0.2663  0.3646
  235MOL0     C31615  10.885   7.213  12.383  0.4532 -0.5008  0.8912
  235MOL0     C31616  11.009   7.277  12.352 -0.3014  0.9083  0.0335
  235MOL0     C31617  11.127   7.192  12.382  0.0989  0.3523  0.3698
  235MOL0     C31618  11.118   7.053  12.414 -0.3896  1.2824 -0.7587
  235MOL0     C31619  11.238   6.970  12.418 -0.7604  0.3587 -0.0961
  235MOL0     O31620  11.219   6.837  12.432 -1.1475 -0.1481  0.3786
  235MOL0     C31621  11.335   6.757  12.428  0.6939  0.1741  0.3506
  235MOL0     C31622  11.386   6.717  12.556 -0.1160 -0.6157 -0.1000
  235MOL0     C31623  11.509   6.646  12.555 -0.0102 -0.7660  0.3571
  235MOL0     C31624  11.569   6.609  12.429 -0.8614  0.4715  0.1172
  235MOL0     O31625  11.686   6.539  12.421  0.4598 -0.6251  1.3845
  235MOL0     C31626  11.780   6.561  12.527 -0.3542 -0.9090 -0.5384
  235MOL0     C31627  11.755   6.482  12.660  1.4969  0.5370  0.1629
  235MOL0     C31628  11.793   6.556  12.792  0.5944  0.1917  0.9090
  235MOL0     C31629  11.812   6.449  12.902  0.6553 -0.2283  0.4212
  235MOL0     C31630  11.859   6.521  13.027 -1.1095  0.5338 -0.5188
  235MOL0     C31631  11.918   6.434  13.136  0.7098  0.5735 -0.2731
  235MOL0     C31632  12.010   6.517  13.220 -0.2989 -1.2048 -0.2783
  235MOL0     C31633  11.953   6.635  13.301 -0.0220  0.0415  0.6105
  235MOL0    Cl31634  11.808   6.592  13.398  0.2923 -0.2448  0.0945
  235MOL0     C31635  11.514   6.642  12.309  0.2799  1.1440 -1.4260
  235MOL0     C31636  11.401   6.717  12.311  1.9525 -0.1449  0.1503
  235MOL0     O31637  11.339   7.029  12.391 -0.6529 -0.1452 -0.2429
  235MOL0     C31638  10.992   6.996  12.428 -0.2656 -0.0775  0.8369
  235MOL0     C31639  10.875   7.077  12.411 -0.9435  0.1260 -0.2770
  235MOL0     N31640  10.384   7.699  12.020  0.2826  0.0254 -0.2923
  235MOL0     N31641  10.273   7.767  12.003 -0.0988  0.7779 -0.5161
  235MOL0     C31642   9.904   7.504  10.900  0.3353 -0.0839 -0.5612
  235MOL0     C31643   9.842   7.447  10.791 -0.5996 -0.5752  0.4859
  235MOL0     C31644   9.499   7.259  10.533  0.7302  0.0865  0.3946
  235MOL0     C31645   9.555   7.304  10.404  0.7225  0.4525  0.6343
  235MOL0     C31646   9.530   7.232  10.288 -0.5420  0.1604 -0.4310
  235MOL0     C31647   9.444   7.117  10.299 -0.5390  0.1804  0.6706
  235MOL0     O31648   9.399   7.048  10.189  0.1542 -0.4586  0.5777
  235MOL0     C31649   9.318   7.129  10.103 -0.1711  0.0994  0.6620
  235MOL0     C31650   9.246   7.042  10.012  0.3244 -0.4444  0.0293
  235MOL0     C31651   9.184   7.122   9.901 -0.3432 -0.9481 -0.3698
  235MOL0     C31652   9.086   7.038   9.820  1.1728  0.6202 -0.3003
  235MOL0     C31653   9.017   7.109   9.712 -0.2317  0.8291 -0.4209
  235MOL0     C31654   8.960   7.153   9.617  0.9528  0.5109 -0.7536
  235MOL0     C31655   9.395   7.069  10.425 -0.4218 -0.8076  0.4168
  235MOL0     C31656   9.424   7.141  10.544  0.9541 -0.7177  0.7132
  235MOL0     C31657   9.375   7.086  10.676 -0.0761 -0.2254  0.6925
  235MOL0     H31658   9.528   7.417  10.920 -0.2311 -0.2077  1.0831
  235MOL0     H31659   9.641   7.554  11.094  3.0131  1.0959  0.9423
  235MOL0     H31660  10.070   7.473  11.137 -1.8661 -1.0777  0.4789
  235MOL0     H31661  10.111   7.605  11.039  2.6201 -0.3336  2.7474
  235MOL0     H31662  10.068   7.757  11.239 -1.1992 -0.3461  2.3567
  235MOL0     H31663  10.206   7.640  11.234 -0.2357  0.0281  0.7229
  235MOL0     H31664  10.081   7.470  11.376 -0.7950 -0.1666  0.6355
  235MOL0     H31665   9.941   7.580  11.374 -0.6582 -2.6750 -2.4072
  235MOL0     H31666  10.216   7.604  11.498  0.7698  1.5573 -0.9695
  235MOL0     H31667  10.119   7.743  11.499  4.1447 -0.0712  2.7973
  235MOL0     H31668   9.919   7.592  11.587 -0.5007 -1.3366 -0.9671
  235MOL0     H31669  10.056   7.480  11.622 -1.0558 -0.0302 -1.5253
  235MOL0     H31670  10.182   7.637  11.754 -0.8297 -3.4427  1.5205
  235MOL0     H31671  10.045   7.763  11.724 -2.4845 -0.5801  0.1139
  235MOL0     H31672  10.025   7.512  11.893  0.3573  1.1373  3.3480
  235MOL0     H31673   9.892   7.613  11.842  0.5991  0.7505 -1.5135
  235MOL0     H31674  10.034   7.805  11.941  1.3108  0.0004  0.0442
  235MOL0     H31675   9.970   7.682  12.058  1.0728  0.5653  0.5068
  235MOL0     H31676  10.175   7.473  12.118  2.2636 -1.9106 -0.8961
  235MOL0     H31677  10.458   7.376  12.042  1.6888 -0.1169 -0.2768
  235MOL0     H31678  10.563   7.510  12.069  0.2474  1.0161  1.1241
  235MOL0     H31679  10.480   7.535  12.293 -2.0679  0.1518 -0.2979
  235MOL0     H31680  10.369   7.408  12.275  1.2099 -0.1993  0.4009
  235MOL0     H31681  10.547   7.241  12.229  1.9471 -0.0890 -1.0246
  235MOL0     H31682  10.515   7.304  12.395  2.5510 -2.2209  0.3397
  235MOL0     H31683  10.716   7.479  12.337 -1.6723  0.7875 -2.8571
  235MOL0     H31684  10.745   7.374  12.200 -0.5219  2.7460  0.6473
  235MOL0     H31685  11.011   7.377  12.312 -2.2996  0.0424 -2.5347
  235MOL0     H31686  11.224   7.234  12.357  0.6326 -1.1253 -0.1085
  235MOL0     H31687  11.328   6.752  12.641 -1.1773 -0.7767 -0.7401
  235MOL0     H31688  11.535   6.612  12.655  1.3505 -1.3042 -0.1579
  235MOL0     H31689  11.881   6.538  12.492 -0.4165 -3.9044  0.9038
  235MOL0     H31690  11.790   6.668  12.549 -0.3867 -0.9110 -0.5133
  235MOL0     H31691  11.651   6.449  12.663  0.9030  0.6840 -5.8931
  235MOL0     H31692  11.812   6.390  12.648  0.4566  0.1707 -2.7682
  235MOL0     H31693  11.892   6.595  12.770  0.3562  0.4730  0.3255
  235MOL0     H31694  11.724   6.639  12.810  1.7455  0.7991  2.8684
  235MOL0     H31695  11.883   6.376  12.860 -0.3260 -0.6653 -0.5147
  235MOL0     H31696  11.722   6.393  12.930  1.1297 -0.2210  2.0450
  235MOL0     H31697  11.773   6.560  13.082 -0.3872  0.3789  0.7502
  235MOL0     H31698  11.924   6.604  12.998 -1.1382  0.4966 -0.6901
  235MOL0     H31699  11.837   6.397  13.200  0.1770  2.3910  0.1507
  235MOL0     H31700  11.973   6.355  13.084 -0.1000 -1.5077  1.8514
  235MOL0     H31701  12.099   6.550  13.165  1.5685 -3.6546  1.0673
  235MOL0     H31702  12.060   6.446  13.286  1.1111 -0.5034 -0.5522
  235MOL0     H31703  12.028   6.656  13.378 -1.3464  2.6539  1.2965
  235MOL0     H31704  11.951   6.715  13.226 -1.6701 -1.3421 -0.9029
  235MOL0     H31705  11.559   6.615  12.215 -0.1867 -1.2923 -1.0360
  235MOL0     H31706  11.346   6.744  12.221  2.3498 -1.9754 -0.7051
  235MOL0     H31707  10.981   6.892  12.460  1.1676 -1.3547 -2.3520
  235MOL0     H31708  10.770   7.049  12.415 -0.6404 -1.0836 -0.2517
  235MOL0     H31709  10.011   7.520  10.886  0.3575  1.4859  1.0714
  235MOL0     H31710   9.889   7.434  10.694  0.4904  1.4188  0.6962
  235MOL0     H31711   9.612   7.395  10.389 -1.8534  1.8690 -1.3589
  235MOL0     H31712   9.567   7.268  10.193 -1.2482  0.0380 -0.7641
  235MOL0     H31713   9.375   7.206  10.053 -0.5054  0.5748  1.0003
  235MOL0     H31714   9.245   7.186  10.162  1.5785  3.3337 -0.0836
  235MOL0     H31715   9.175   6.978  10.065  2.0894 -1.0377  1.8507
  235MOL0     H31716   9.323   6.968   9.986  3.0482  1.3753  2.2899
  235MOL0     H31717   9.258   7.177   9.844 -1.3039  4.5876  3.0040
  235MOL0     H31718   9.125   7.208   9.933  0.3101  0.4198 -2.6257
  235MOL0     H31719   9.127   6.944   9.782  0.2515 -1.4157  3.2203
  235MOL0     H31720   9.005   7.004   9.885  0.2107 -1.4888 -2.4591
  235MOL0     H31721   8.928   7.192   9.523  0.7193  1.6188 -0.2271
  235MOL0     H31722   9.337   6.977  10.417 -1.3590 -0.1540 -0.4417
  235MOL0     H31723   9.355   6.979  10.661 -3.4861  0.4569 -0.6056
  235MOL0     H31724   9.437   7.101  10.765 -0.3413 -1.2954  1.0876
  235MOL0     H31725   9.272   7.119  10.696 -1.8012 -4.2262 -0.5673
  236MOL0     O31726   8.989   6.869   9.452  0.6664  0.1767 -0.5795
  236MOL0     C31727   8.869   6.855   9.437  0.3788  0.6017  0.2164
  236MOL0     O31728   8.797   6.936   9.353 -0.2173 -0.5705  0.5184
  236MOL0     C31729   8.845   7.037   9.268 -0.2092 -0.4593 -0.3067
  236MOL0     C31730   8.751   7.113   9.197 -0.4111  0.7457 -0.9961
  236MOL0     C31731   8.773   7.231   9.131 -0.1049  0.5206  0.1433
  236MOL0     C31732   8.904   7.284   9.141 -0.9429  0.7406  0.4847
  236MOL0     O31733   8.930   7.413   9.112  0.1399 -0.2514  0.4626
  236MOL0     C31734   9.035   7.476   9.185 -1.0139 -0.2670 -0.4454
  236MOL0     C31735   9.021   7.633   9.187 -0.9032  1.1406 -0.1137
  236MOL0     C31736   8.929   7.668   9.298  0.3879  0.0143  0.2113
  236MOL0     C31737   8.914   7.822   9.328  0.0166 -0.2095 -0.3202
  236MOL0     C31738   8.850   7.857   9.461  0.1030  0.4795  0.0809
  236MOL0     C31739   8.852   8.000   9.498 -0.4709  0.1826  0.3383
  236MOL0     C31740   8.981   8.083   9.533  0.0988  0.4263  0.6098
  236MOL0     C31741   8.949   8.233   9.559  0.9722 -0.1676 -0.3777
  236MOL0     N31742   9.050   8.316   9.621  1.0297  0.1772 -0.5881
  236MOL0     C31743   9.187   8.279   9.620 -0.2538 -0.3546 -0.6991
  236MOL0     C31744   9.251   8.391   9.681 -0.2126  0.3567  0.2115
  236MOL0     C31745   9.397   8.403   9.703  1.2948  0.1184 -0.0157
  236MOL0     C31746   9.442   8.539   9.767  0.0175 -0.5350  0.8579
  236MOL0     C31747   9.594   8.570   9.749  0.4662  0.8032  0.5490
  236MOL0     C31748   9.633   8.672   9.640 -0.1261 -0.3800  0.8829
  236MOL0     O31749   9.607   8.798   9.687  0.3092 -0.4570 -0.9078
  236MOL0     C31750   9.602   8.904   9.601 -0.3308 -0.5304  0.1851
  236MOL0     C31751   9.679   8.915   9.485  0.1227  0.2305  0.1752
  236MOL0     C31752   9.673   9.034   9.410  0.1005  0.8992 -0.2908
  236MOL0     C31753   9.601   9.146   9.457 -0.1305  1.0393  0.4439
  236MOL0     C31754   9.605   9.273   9.382  0.4608  0.0252  0.5490
  236MOL0     O31755   9.713   9.283   9.297 -0.4153 -0.5680  0.1899
  236MOL0     C31756   9.721   9.395   9.218  0.0481  0.0182  0.0528
  236MOL0     C31757   9.699   9.401   9.077 -1.0411  0.0477  0.4433
  236MOL0     C31758   9.739   9.511   9.002 -0.1508  0.4356  0.2843
  236MOL0     C31759   9.811   9.615   9.067  0.1687 -0.0279  0.2435
  236MOL0     O31760   9.875   9.712   8.992  0.3868  0.5167 -1.3681
  236MOL0     C31761   9.827   9.755   8.869 -0.7197  0.3368 -0.7407
  236MOL0     C31762   9.710   9.844   8.883 -1.0055 -0.6225  0.0899
  236MOL0     C31763   9.671   9.935   8.764  0.4372  0.6651 -0.3174
  236MOL0     C31764   9.554  10.020   8.802 -0.4207  0.7138  0.7003
  236MOL0     C31765   9.493  10.090   8.679 -0.8285  0.7095 -0.7063
  236MOL0     C31766   9.393  10.195   8.703  0.0003  0.2968 -0.6608
  236MOL0     C31767   9.339  10.227   8.558  0.0415 -0.1262  0.1437
  236MOL0     C31768   9.207  10.295   8.568  0.4312 -0.2640  0.3296
  236MOL0    Cl31769   9.229  10.467   8.626 -0.0638  0.0408 -0.2802
  236MOL0     C31770   9.818   9.623   9.207 -0.1953  0.4668 -0.5037
  236MOL0     C31771   9.776   9.512   9.279 -0.6730 -0.1487 -0.5267
  236MOL0     O31772   9.522   9.361   9.396  0.2427 -0.0623 -0.3569
  236MOL0     C31773   9.533   9.131   9.579  0.4650 -0.1339  0.1626
  236MOL0     C31774   9.531   9.013   9.650 -0.7862  0.3901  0.4360
  236MOL0     N31775   9.148   8.480   9.717 -0.6416 -0.2693  0.2385
  236MOL0     N31776   9.035   8.439   9.677 -0.8740 -0.1024  0.2289
  236MOL0     C31777   9.010   7.198   9.188  0.9905  0.4098  0.2330
  236MOL0     C31778   8.978   7.076   9.250  1.1951 -0.2931  0.8909
  236MOL0     C31779   8.792   6.743   9.498 -0.3029 -0.3499  0.5848
  236MOL0     C31780   8.669   6.706   9.442  0.4626  0.5113  0.6492
  236MOL0     C31781   8.593   6.603   9.489  0.3841  0.1428 -0.6499
  236MOL0     C31782   8.646   6.517   9.590  0.5474 -0.6147  0.9120
  236MOL0     O31783   8.571   6.415   9.621  1.0321 -0.1018  0.9249
  236MOL0     C31784   8.561   6.375   9.755  0.1205  0.1374 -0.7626
  236MOL0     C31785   8.470   6.463   9.837  0.5249  0.7199  0.8632
  236MOL0     C31786   8.424   6.388   9.968 -0.0209  1.0379  1.0923
  236MOL0     C31787   8.322   6.482  10.032 -0.1008  0.4795 -0.5231
  236MOL0     C31788   8.295   6.445  10.172  0.2446 -0.7197 -0.4518
  236MOL0     C31789   8.304   6.402  10.285  0.5520 -0.1625 -0.3175
  236MOL0     C31790   8.764   6.561   9.653 -0.4054 -0.0106  0.5895
  236MOL0     C31791   8.840   6.665   9.610 -1.1977  0.0491  0.0903
  236MOL0     C31792   8.974   6.702   9.679  0.4935 -0.7529  0.0925
  236MOL0     H31793   8.654   7.068   9.181  0.7059 -2.1942 -0.1027
  236MOL0     H31794   8.691   7.278   9.078  1.4159  3.3351  0.0867
  236MOL0     H31795   9.041   7.440   9.288 -0.4228  0.8625 -0.0734
  236MOL0     H31796   9.124   7.461   9.125 -1.5102 -3.0071 -0.6426
  236MOL0     H31797   9.001   7.664   9.084 -0.8641 -3.0754 -1.5882
  236MOL0     H31798   9.116   7.682   9.211 -0.0134  0.1148 -1.4132
  236MOL0     H31799   8.971   7.629   9.391  0.2298 -1.5303 -0.3451
  236MOL0     H31800   8.829   7.633   9.271 -0.0799  3.2632 -3.1131
  236MOL0     H31801   9.019   7.852   9.339 -0.2651  0.4366  0.8409
  236MOL0     H31802   8.872   7.872   9.241 -0.3774  0.1777  0.0840
  236MOL0     H31803   8.746   7.826   9.451  0.4052 -1.1204  1.4231
  236MOL0     H31804   8.898   7.791   9.535  0.9342  2.4330  1.3833
  236MOL0     H31805   8.803   8.059   9.420 -0.4209 -2.7623 -2.1027
  236MOL0     H31806   8.789   8.009   9.587  1.0994  1.9488  1.3410
  236MOL0     H31807   9.052   8.082   9.450 -0.6896 -0.3839 -0.0809
  236MOL0     H31808   9.021   8.032   9.622 -0.6482 -1.4383 -0.0751
  236MOL0     H31809   8.914   8.279   9.466 -2.9743 -0.8738  0.5839
  236MOL0     H31810   8.860   8.235   9.623  0.6313 -0.9145 -0.8133
  236MOL0     H31811   9.236   8.185   9.599  1.0158  0.2805 -0.6718
  236MOL0     H31812   9.432   8.310   9.749 -1.2624  0.3819  2.7882
  236MOL0     H31813   9.443   8.392   9.604 -0.1982 -1.8354 -0.5427
  236MOL0     H31814   9.391   8.615   9.708  0.3484 -0.7295  0.3120
  236MOL0     H31815   9.415   8.549   9.873  0.1920 -1.6040  1.0216
  236MOL0     H31816   9.637   8.471   9.740 -3.2609 -1.1961  2.1273
  236MOL0     H31817   9.634   8.618   9.839  0.6961  1.4272  0.1202
  236MOL0     H31818   9.584   8.641   9.547 -0.8694  1.8663  0.4792
  236MOL0     H31819   9.741   8.678   9.630 -0.1468 -2.2711 -1.3346
  236MOL0     H31820   9.730   8.824   9.453 -3.0110 -1.6964  0.2187
  236MOL0     H31821   9.741   9.032   9.325 -0.7693 -1.1534 -1.0021
  236MOL0     H31822   9.657   9.319   9.021  1.2161 -1.9946  1.5344
  236MOL0     H31823   9.723   9.520   8.895  1.8278  0.1736 -0.0750
  236MOL0     H31824   9.900   9.825   8.828 -0.1210 -1.0149 -2.1003
  236MOL0     H31825   9.798   9.683   8.792  2.2170 -0.5247 -1.1600
  236MOL0     H31826   9.632   9.776   8.920 -1.8967 -0.6339 -1.6814
  236MOL0     H31827   9.737   9.907   8.968 -2.4427  1.0451 -0.6290
  236MOL0     H31828   9.758  10.001   8.749  1.8251 -0.3226  2.5544
  236MOL0     H31829   9.658   9.861   8.685 -0.9878  1.5222 -0.9025
  236MOL0     H31830   9.585  10.102   8.867  1.4180  1.1072 -0.5714
  236MOL0     H31831   9.475   9.962   8.851  1.3096 -2.1989  0.3177
  236MOL0     H31832   9.451  10.007   8.621  1.3376 -0.9251 -0.0928
  236MOL0     H31833   9.571  10.130   8.614 -0.5379  0.7665 -0.3228
  236MOL0     H31834   9.314  10.165   8.773  0.5684 -1.4476 -0.7174
  236MOL0     H31835   9.434  10.286   8.749  0.9865 -1.0971  1.3748
  236MOL0     H31836   9.327  10.135   8.500  0.4359 -0.7392  1.0203
  236MOL0     H31837   9.405  10.302   8.513 -3.3990  0.9358 -3.8458
  236MOL0     H31838   9.168  10.293   8.466  3.0205 -0.5028 -0.7465
  236MOL0     H31839   9.139  10.236   8.630  0.4123 -0.5512  0.0372
  236MOL0     H31840   9.881   9.702   9.247  1.4303 -0.8751 -0.3240
  236MOL0     H31841   9.781   9.516   9.387 -2.7885 -0.2406 -0.3664
  236MOL0     H31842   9.488   9.224   9.612  0.3060  1.3781 -3.7498
  236MOL0     H31843   9.475   9.001   9.743 -0.2371 -0.6574  0.6574
  236MOL0     H31844   9.113   7.220   9.162  0.7633 -0.1890 -1.2401
  236MOL0     H31845   9.067   7.040   9.300  2.4422  0.0321 -0.9729
  236MOL0     H31846   8.631   6.767   9.360 -0.6259  0.3789  1.0401
  236MOL0     H31847   8.496   6.584   9.443 -0.6666 -0.2692  1.5741
  236MOL0     H31848   8.652   6.364   9.816 -0.1118  0.9889 -0.2451
  236MOL0     H31849   8.532   6.270   9.759  2.9736 -0.7145  1.0203
  236MOL0     H31850   8.380   6.470   9.774  1.4324 -1.4838 -0.8354
  236MOL0     H31851   8.513   6.559   9.866 -0.9925  1.3825  1.0293
  236MOL0     H31852   8.521   6.375  10.016  0.0513 -1.4249  0.4271
  236MOL0     H31853   8.379   6.291   9.945  0.4937  0.7886  1.1188
  236MOL0     H31854   8.363   6.584  10.029  0.0609  0.4249 -0.1252
  236MOL0     H31855   8.229   6.479   9.974  0.7722 -1.2044 -1.9120
  236MOL0     H31856   8.318   6.379  10.389 -0.7711  0.8947  0.1205
  236MOL0     H31857   8.794   6.501   9.739  1.0359  0.3774  0.3815
  236MOL0     H31858   9.053   6.665   9.614 -2.3145 -1.6822 -3.0885
  236MOL0     H31859   8.982   6.811   9.684  2.4952 -0.8440 -0.1379
  236MOL0     H31860   8.981   6.665   9.782 -0.8737  0.0522  0.4971
  237MOL0     O31861   5.721   5.856   3.249 -0.6015 -0.0304 -0.8084
  237MOL0     C31862   5.647   5.850   3.155 -0.3025  0.2254 -0.6019
  237MOL0     O31863   5.648   5.744   3.068 -0.1429 -0.5819 -0.0516
  237MOL0     C31864   5.697   5.627   3.118 -0.6262 -0.2094  0.9232
  237MOL0     C31865   5.842   5.593   3.123 -0.6509  0.4041  0.1404
  237MOL0     C31866   5.873   5.468   3.180 -0.5380  0.0922  1.0277
  237MOL0     C31867   5.773   5.369   3.207  0.1767  0.6799 -0.7699
  237MOL0     O31868   5.799   5.243   3.258  0.1480 -0.2916 -0.1562
  237MOL0     C31869   5.929   5.202   3.296  0.2155  0.6887  0.8840
  237MOL0     C31870   5.904   5.058   3.354 -0.2208 -1.4021  0.6410
  237MOL0     C31871   6.021   4.967   3.310  0.5337  0.0010 -0.4932
  237MOL0     C31872   6.144   5.011   3.396 -0.1147 -0.9048 -0.0089
  237MOL0     C31873   6.268   4.947   3.342  0.6129 -0.1208  1.0874
  237MOL0     C31874   6.405   4.980   3.418 -0.6627  1.2709 -1.1239
  237MOL0     C31875   6.530   4.920   3.345  0.1699 -0.3767 -0.3302
  237MOL0     C31876   6.558   4.989   3.211 -0.4516  0.2121 -0.0036
  237MOL0     N31877   6.695   4.977   3.189 -0.8816  0.0828  0.2210
  237MOL0     C31878   6.774   5.084   3.204 -0.4223 -0.1476  0.2966
  237MOL0     C31879   6.892   5.046   3.143  0.0503 -0.4847 -0.1361
  237MOL0     C31880   7.014   5.133   3.114  0.3786  0.3921 -0.8318
  237MOL0     C31881   6.988   5.213   2.982 -0.3214 -0.1856  0.2131
  237MOL0     C31882   7.127   5.266   2.920 -0.3711  0.0382  0.0902
  237MOL0     C31883   7.113   5.398   2.840  0.3757  0.1969  0.3855
  237MOL0     O31884   7.005   5.384   2.736 -0.2353 -0.8293 -0.8761
  237MOL0     C31885   7.027   5.381   2.597 -0.9112 -1.5568 -0.0656
  237MOL0     C31886   7.152   5.397   2.534 -0.0906 -0.9229  0.3152
  237MOL0     C31887   7.144   5.386   2.392 -0.1881  0.6834 -0.3649
  237MOL0     C31888   7.035   5.355   2.310  0.8138  0.4199  0.3276
  237MOL0     C31889   7.035   5.336   2.160 -0.4721  0.5871 -0.6480
  237MOL0     O31890   6.926   5.287   2.094 -1.1884  0.0177  0.2532
  237MOL0     C31891   6.944   5.247   1.962 -0.0743 -0.5019  0.4843
  237MOL0     C31892   6.840   5.290   1.875  0.2760 -0.0636  0.1489
  237MOL0     C31893   6.853   5.242   1.739  0.1430 -0.9972  0.2533
  237MOL0     C31894   6.947   5.153   1.694  0.0948  0.0175 -1.3349
  237MOL0     O31895   6.943   5.106   1.565  0.7301 -0.7230  0.1152
  237MOL0     C31896   6.935   4.958   1.537  0.1381 -1.0427  0.3803
  237MOL0     C31897   6.834   4.866   1.615  0.0082 -0.6098  0.1333
  237MOL0     C31898   6.694   4.910   1.579 -0.2005  0.5925 -0.1299
  237MOL0     C31899   6.590   4.809   1.622  0.8447 -0.3357  0.7343
  237MOL0     C31900   6.454   4.833   1.539 -0.9577  0.8778  0.1316
  237MOL0     C31901   6.391   4.968   1.560 -0.0834 -0.7884  0.0832
  237MOL0     C31902   6.409   5.028   1.702 -0.0155  0.3259 -0.0546
  237MOL0     C31903   6.346   5.169   1.714 -0.0682 -0.2616  0.1373
  237MOL0    Cl31904   6.261   5.199   1.859 -0.3603  0.2135  0.0614
  237MOL0     C31905   7.049   5.115   1.791 -0.4042  0.1063 -0.2968
  237MOL0     C31906   7.050   5.169   1.919  0.8753  1.0981  1.2476
  237MOL0     O31907   7.147   5.359   2.111 -0.3382 -0.0910 -0.0083
  237MOL0     C31908   6.915   5.344   2.383 -0.1044  0.5864 -0.0527
  237MOL0     C31909   6.916   5.354   2.528 -0.1981 -0.2624 -0.1192
  237MOL0     N31910   6.880   4.913   3.090  0.1840 -0.0946 -0.8220
  237MOL0     N31911   6.757   4.875   3.123 -0.6584  0.6063  0.1832
  237MOL0     C31912   5.643   5.405   3.210 -1.0625 -0.8702 -0.1119
  237MOL0     C31913   5.607   5.537   3.167  0.3734 -0.7235 -0.3534
  237MOL0     C31914   5.549   5.967   3.135 -0.1771  0.3746  0.7818
  237MOL0     C31915   5.452   5.946   3.033 -0.7991 -0.9466 -0.5271
  237MOL0     C31916   5.364   6.049   2.998  1.4181  0.4818  1.1174
  237MOL0     C31917   5.369   6.173   3.065 -0.4995 -0.0219 -0.3771
  237MOL0     O31918   5.273   6.260   3.033  0.6376 -0.6490 -0.1591
  237MOL0     C31919   5.288   6.402   3.053  0.4564 -0.9306  0.3834
  237MOL0     C31920   5.188   6.483   2.975  0.1757  0.1744 -0.8102
  237MOL0     C31921   5.062   6.537   3.049  0.1577  0.1940  0.3878
  237MOL0     C31922   4.982   6.430   3.087  0.5444 -0.3079 -0.2135
  237MOL0     C31923   4.862   6.468   3.159 -0.1848 -0.0886 -0.5111
  237MOL0     C31924   4.765   6.508   3.205  0.1707 -0.1782 -0.2792
  237MOL0     C31925   5.468   6.201   3.169  0.9915  0.2387  0.8500
  237MOL0     C31926   5.554   6.093   3.204 -1.0159  0.1006 -0.7338
  237MOL0     C31927   5.652   6.110   3.326  0.8735  0.3438 -0.3188
  237MOL0     H31928   5.918   5.666   3.097  0.7585 -0.1575  2.3276
  237MOL0     H31929   5.977   5.436   3.183 -1.0351 -1.6374  0.9316
  237MOL0     H31930   5.989   5.192   3.205 -0.1483  1.6778  0.5151
  237MOL0     H31931   5.970   5.278   3.363 -0.7597  0.2381  2.0099
  237MOL0     H31932   5.806   5.019   3.326 -2.4470  3.5335  0.4185
  237MOL0     H31933   5.899   5.060   3.463 -2.7965  2.2436  0.6335
  237MOL0     H31934   6.029   4.960   3.202 -1.4407  0.2172 -0.6831
  237MOL0     H31935   5.995   4.862   3.329  0.5714 -0.0460 -0.6953
  237MOL0     H31936   6.140   5.119   3.412 -3.1893 -0.5222 -2.5101
  237MOL0     H31937   6.133   4.963   3.493 -1.9586  1.5877  1.1221
  237MOL0     H31938   6.260   4.838   3.332 -0.5121  0.1762 -3.6097
  237MOL0     H31939   6.278   4.985   3.240  4.1039  1.0390  1.7301
  237MOL0     H31940   6.427   5.086   3.436  2.7590  0.1625  2.5298
  237MOL0     H31941   6.399   4.941   3.519 -0.8083  0.5287 -1.4124
  237MOL0     H31942   6.521   4.811   3.338 -0.7683 -0.6542  3.3343
  237MOL0     H31943   6.615   4.942   3.411  0.1559  4.6482 -1.5790
  237MOL0     H31944   6.506   4.938   3.130  0.6406  1.1029 -1.3201
  237MOL0     H31945   6.520   5.090   3.194  1.2263  0.3850 -3.7580
  237MOL0     H31946   6.755   5.181   3.248 -1.2274 -0.9221  1.7247
  237MOL0     H31947   7.026   5.201   3.199 -5.3678  0.4605  0.3403
  237MOL0     H31948   7.093   5.059   3.099  0.8994  1.3009 -2.8806
  237MOL0     H31949   6.937   5.153   2.906  1.6418 -3.0650  0.9996
  237MOL0     H31950   6.912   5.291   2.997  2.1985  2.0839  2.1379
  237MOL0     H31951   7.162   5.190   2.850 -0.0070  1.8707 -1.8417
  237MOL0     H31952   7.189   5.278   3.009 -1.4952  0.6860  0.8179
  237MOL0     H31953   7.214   5.416   2.804 -0.7811 -0.0014 -3.3124
  237MOL0     H31954   7.080   5.487   2.896 -2.0169 -0.4526  0.1052
  237MOL0     H31955   7.245   5.414   2.586 -0.4984 -1.8238  1.3824
  237MOL0     H31956   7.239   5.402   2.342  0.7695 -1.2489  0.6923
  237MOL0     H31957   6.759   5.351   1.912 -2.8462 -3.1918 -0.9690
  237MOL0     H31958   6.778   5.285   1.673 -1.4325 -1.0113  1.9248
  237MOL0     H31959   6.904   4.949   1.432  1.7036 -2.3494  0.0047
  237MOL0     H31960   7.035   4.915   1.537  1.3997  1.4865 -2.2400
  237MOL0     H31961   6.838   4.759   1.589 -3.4063 -0.5270 -1.2726
  237MOL0     H31962   6.863   4.865   1.720  1.5522 -1.8609 -0.2620
  237MOL0     H31963   6.668   5.003   1.631  1.1473 -0.2673  2.2291
  237MOL0     H31964   6.690   4.930   1.472  2.3149 -2.9950 -1.0777
  237MOL0     H31965   6.560   4.825   1.726 -3.1012 -0.0175 -0.2825
  237MOL0     H31966   6.619   4.704   1.616  3.1625  0.2698  0.2929
  237MOL0     H31967   6.377   4.760   1.564  1.5015 -0.9348  3.0226
  237MOL0     H31968   6.477   4.808   1.435 -3.2506 -2.2305  0.2274
  237MOL0     H31969   6.427   5.045   1.491 -0.6276  2.4191  3.0970
  237MOL0     H31970   6.284   4.969   1.537 -1.0572 -0.9028  3.8869
  237MOL0     H31971   6.508   5.025   1.748 -0.9031 -1.3534  1.9496
  237MOL0     H31972   6.357   4.956   1.766 -1.3595 -2.4480 -3.8725
  237MOL0     H31973   6.425   5.239   1.688  0.6445 -2.0697 -2.9441
  237MOL0     H31974   6.266   5.181   1.640  1.3886  1.1528 -1.2799
  237MOL0     H31975   7.135   5.053   1.769  2.6473  3.0898  2.1209
  237MOL0     H31976   7.121   5.131   1.992  2.8149  1.2141 -0.4607
  237MOL0     H31977   6.830   5.310   2.326 -0.5597  1.8513 -0.1730
  237MOL0     H31978   6.826   5.314   2.574  0.8297 -3.8629 -0.8955
  237MOL0     H31979   5.572   5.335   3.253 -3.0584  1.2576  0.2750
  237MOL0     H31980   5.503   5.565   3.155  1.1228  1.1915 -3.7003
  237MOL0     H31981   5.432   5.852   2.982 -6.1739 -1.7888  2.3838
  237MOL0     H31982   5.300   6.037   2.912  1.1635 -1.6476  1.5324
  237MOL0     H31983   5.385   6.431   3.013  1.1613  1.9702  3.6888
  237MOL0     H31984   5.281   6.420   3.161 -1.0320 -0.4238  0.2219
  237MOL0     H31985   5.148   6.430   2.888  0.9488  0.3291 -1.2623
  237MOL0     H31986   5.234   6.574   2.936 -0.8412  0.8943 -0.4022
  237MOL0     H31987   5.003   6.592   2.974  1.3486  0.3486 -0.4625
  237MOL0     H31988   5.094   6.598   3.134  2.6455 -3.1929  2.1158
  237MOL0     H31989   4.949   6.377   2.997  1.1575  1.3113 -1.4553
  237MOL0     H31990   5.030   6.356   3.152  0.5961  0.2098  0.3468
  237MOL0     H31991   4.666   6.538   3.235 -1.0534 -3.2058 -0.8856
  237MOL0     H31992   5.480   6.300   3.211 -1.3404  1.2896 -0.7481
  237MOL0     H31993   5.757   6.112   3.293  0.7140  0.7305 -0.8130
  237MOL0     H31994   5.634   6.201   3.383  2.9691  0.2677  0.5771
  237MOL0     H31995   5.649   6.032   3.402 -2.4594 -1.7041 -2.3286
  238MOL0     O31996   7.820   2.579   5.855 -0.1732 -0.2346  0.0844
  238MOL0     C31997   7.934   2.614   5.887  0.6307 -0.2990 -0.6305
  238MOL0     O31998   7.973   2.736   5.939 -0.1529  0.0045 -0.6349
  238MOL0     C31999   7.904   2.848   5.901 -0.2457 -0.5066  1.0314
  238MOL0     C32000   7.941   2.922   5.788 -0.0605 -0.9428  0.6980
  238MOL0     C32001   7.854   3.029   5.748 -0.4508  0.9197  0.5997
  238MOL0     C32002   7.747   3.069   5.823  0.3670 -0.9431  0.6902
  238MOL0     O32003   7.680   3.173   5.757 -0.5053  0.2497 -0.2912
  238MOL0     C32004   7.541   3.168   5.796  0.3857 -0.8173  0.3797
  238MOL0     C32005   7.473   3.253   5.678  0.5313 -0.7414 -1.2421
  238MOL0     C32006   7.328   3.290   5.713  1.0720 -0.1764 -0.6907
  238MOL0     C32007   7.261   3.376   5.600  0.5249 -0.3794 -0.1682
  238MOL0     C32008   7.116   3.420   5.643 -0.2590  0.1840  0.1628
  238MOL0     C32009   7.051   3.503   5.534 -0.4351 -0.1273  0.6650
  238MOL0     C32010   6.935   3.590   5.606 -0.1113 -1.8038 -0.0155
  238MOL0     C32011   6.860   3.668   5.498 -0.1857  0.2796 -0.7491
  238MOL0     N32012   6.807   3.575   5.392  0.4258 -0.1961  0.1541
  238MOL0     C32013   6.858   3.558   5.266 -0.1162  0.3905  0.1076
  238MOL0     C32014   6.811   3.445   5.218  0.5898 -0.3843 -1.2358
  238MOL0     C32015   6.842   3.384   5.089  0.1158 -0.4349  0.1743
  238MOL0     C32016   6.724   3.359   4.992 -0.4881  0.3309 -0.0345
  238MOL0     C32017   6.689   3.477   4.900  0.4190  0.0511 -0.2962
  238MOL0     C32018   6.578   3.454   4.790 -0.6660 -0.5017 -0.6371
  238MOL0     O32019   6.557   3.575   4.709 -1.3136  0.5249  0.4286
  238MOL0     C32020   6.426   3.581   4.665  0.3917  0.0467 -0.3329
  238MOL0     C32021   6.389   3.495   4.564  0.0402  0.6351  0.0882
  238MOL0     C32022   6.262   3.479   4.518 -0.1019 -0.4748  0.2815
  238MOL0     C32023   6.160   3.561   4.568 -0.7986 -0.3884 -0.0663
  238MOL0     C32024   6.026   3.533   4.520  0.2534  0.2121 -0.2671
  238MOL0     O32025   5.984   3.416   4.450 -0.6303 -0.6824  0.0585
  238MOL0     C32026   5.857   3.379   4.421  0.6868 -0.1035  0.0639
  238MOL0     C32027   5.740   3.459   4.405  0.0575 -0.3906 -0.3357
  238MOL0     C32028   5.605   3.418   4.386  0.3869  0.1104 -0.0818
  238MOL0     C32029   5.590   3.282   4.375  0.1977 -0.0491  0.2987
  238MOL0     O32030   5.461   3.227   4.361  0.0369  0.1688 -0.3351
  238MOL0     C32031   5.441   3.088   4.365 -1.2915 -0.2253  0.4805
  238MOL0     C32032   5.305   3.054   4.323 -0.0290  0.2129 -0.0640
  238MOL0     C32033   5.200   3.115   4.419 -0.3535 -0.4375 -0.0708
  238MOL0     C32034   5.071   3.044   4.412 -0.2612 -0.3897  0.0441
  238MOL0     C32035   5.007   3.079   4.276 -0.0889 -0.3141  0.1381
  238MOL0     C32036   4.857   3.030   4.274 -0.4289  0.3089  0.1300
  238MOL0     C32037   4.795   3.064   4.135 -0.1744  0.2164 -0.4949
  238MOL0     C32038   4.654   3.002   4.138  0.7191  0.2326  0.8087
  238MOL0    Cl32039   4.602   2.943   3.980  0.0197  0.0006  0.1152
  238MOL0     C32040   5.695   3.196   4.393 -0.1231  0.3387  0.2949
  238MOL0     C32041   5.825   3.239   4.404 -0.0652 -0.1966 -0.9641
  238MOL0     O32042   5.941   3.618   4.554 -0.0354 -0.1865  0.0313
  238MOL0     C32043   6.192   3.659   4.663  0.1048  0.0847  0.7567
  238MOL0     C32044   6.329   3.671   4.710  0.1669  0.6310 -1.0062
  238MOL0     N32045   6.713   3.402   5.304 -0.2087 -0.2531  0.7191
  238MOL0     N32046   6.705   3.483   5.410 -0.1790  0.1283  0.1202
  238MOL0     C32047   7.731   3.013   5.944 -0.1916  0.7370 -1.1319
  238MOL0     C32048   7.816   2.911   5.991 -0.3310  0.0740  0.2009
  238MOL0     C32049   8.035   2.503   5.887 -0.4496 -0.1959 -0.4472
  238MOL0     C32050   7.987   2.380   5.902 -0.2574  0.6091 -0.0303
  238MOL0     C32051   8.066   2.265   5.900 -0.3894  0.1869 -0.6004
  238MOL0     C32052   8.204   2.283   5.899 -0.4522  0.1312  0.7987
  238MOL0     O32053   8.300   2.188   5.931 -0.0543 -0.2451  0.9065
  238MOL0     C32054   8.334   2.101   5.822  0.1334  0.0347 -0.4502
  238MOL0     C32055   8.380   2.170   5.689 -0.8809 -0.3097 -1.1226
  238MOL0     C32056   8.431   2.076   5.584  0.0405  0.0232 -0.0652
  238MOL0     C32057   8.314   2.035   5.485 -0.8037 -0.9980 -0.1280
  238MOL0     C32058   8.174   2.030   5.545  0.3094 -0.7178  0.0420
  238MOL0     C32059   8.054   2.044   5.581 -0.1594 -0.9018 -0.4146
  238MOL0     C32060   8.260   2.409   5.880  0.2842 -0.2914 -0.0083
  238MOL0     C32061   8.178   2.524   5.869  0.0858 -1.1819  0.6431
  238MOL0     C32062   8.253   2.649   5.837 -0.2563 -0.3483  0.8019
  238MOL0     H32063   8.025   2.891   5.726 -0.6149 -1.9585  0.4441
  238MOL0     H32064   7.881   3.086   5.660  0.6261 -2.7759 -1.7133
  238MOL0     H32065   7.492   3.071   5.790  1.8523 -1.4805 -3.0326
  238MOL0     H32066   7.527   3.223   5.890  2.1861  0.6791 -0.1597
  238MOL0     H32067   7.467   3.198   5.584 -1.5872 -1.5492 -0.6931
  238MOL0     H32068   7.528   3.346   5.662  1.9677 -1.6372 -1.6653
  238MOL0     H32069   7.326   3.359   5.798 -0.6786 -0.0290 -0.8343
  238MOL0     H32070   7.274   3.199   5.738  1.4125 -0.2821 -0.3276
  238MOL0     H32071   7.318   3.468   5.584 -1.6798  0.5706 -3.7265
  238MOL0     H32072   7.254   3.325   5.503  0.1579 -0.4147 -0.1260
  238MOL0     H32073   7.052   3.336   5.669  1.3949  0.0851  4.8537
  238MOL0     H32074   7.125   3.481   5.733 -1.8334 -0.9355  1.1134
  238MOL0     H32075   7.131   3.568   5.498  1.3296 -3.1421 -1.3542
  238MOL0     H32076   7.012   3.441   5.453 -2.7833  0.1101  1.5382
  238MOL0     H32077   6.977   3.648   5.689  0.3853 -1.7501 -0.3034
  238MOL0     H32078   6.860   3.533   5.663  1.4459 -1.6928  2.2512
  238MOL0     H32079   6.778   3.724   5.546 -0.0434 -1.6644  1.9730
  238MOL0     H32080   6.929   3.736   5.447  1.2444  0.7281  1.6268
  238MOL0     H32081   6.934   3.618   5.217 -0.4545 -0.9420 -2.1960
  238MOL0     H32082   6.906   3.461   5.046 -1.3515  0.9029  0.2733
  238MOL0     H32083   6.892   3.287   5.103  0.2690 -0.1015  2.3680
  238MOL0     H32084   6.758   3.276   4.929 -2.0028 -1.6049  1.5928
  238MOL0     H32085   6.629   3.327   5.035 -0.7638 -1.0384 -1.5866
  238MOL0     H32086   6.780   3.493   4.842  1.0174 -3.6805 -0.6078
  238MOL0     H32087   6.660   3.564   4.961  1.6865 -0.3774  0.9821
  238MOL0     H32088   6.490   3.415   4.842  2.4100 -1.9109  4.1643
  238MOL0     H32089   6.628   3.386   4.720 -1.2862 -1.0585 -0.5503
  238MOL0     H32090   6.462   3.418   4.539  1.7883  2.0357  0.6241
  238MOL0     H32091   6.244   3.403   4.442  3.7484 -2.7103  1.3510
  238MOL0     H32092   5.767   3.564   4.396  2.6201 -0.9977 -0.2439
  238MOL0     H32093   5.517   3.481   4.388 -1.4484 -2.2781  2.3874
  238MOL0     H32094   5.508   3.048   4.289 -2.4081 -2.4488  0.5893
  238MOL0     H32095   5.475   3.035   4.454  2.6545  0.0066 -0.7377
  238MOL0     H32096   5.305   3.082   4.218  0.8162 -2.3068 -0.8231
  238MOL0     H32097   5.291   2.945   4.320 -2.4311  0.4826 -0.5863
  238MOL0     H32098   5.235   3.101   4.522 -0.4300 -0.3693 -0.0357
  238MOL0     H32099   5.193   3.220   4.390 -1.6718 -0.3110  0.6024
  238MOL0     H32100   5.001   3.071   4.491 -0.3149 -2.3529  0.7181
  238MOL0     H32101   5.082   2.936   4.423 -1.0368 -0.5748 -0.9024
  238MOL0     H32102   5.066   3.042   4.191 -0.6659 -1.9150  0.3971
  238MOL0     H32103   4.993   3.187   4.268  3.6309  0.3754  1.2973
  238MOL0     H32104   4.854   2.921   4.278 -2.8774  0.2200 -1.5941
  238MOL0     H32105   4.791   3.073   4.350  2.0672  1.5848  1.6960
  238MOL0     H32106   4.854   3.014   4.057  2.8595  0.8186  1.2500
  238MOL0     H32107   4.793   3.172   4.117  1.0969  0.1564 -1.0946
  238MOL0     H32108   4.646   2.916   4.206 -1.1803 -0.7255 -0.5185
  238MOL0     H32109   4.589   3.083   4.173  0.3022  0.5461 -0.6289
  238MOL0     H32110   5.688   3.088   4.399  0.1209  0.2751 -0.4748
  238MOL0     H32111   5.898   3.160   4.420 -1.4807 -1.0482  1.9443
  238MOL0     H32112   6.118   3.730   4.699 -0.0409  0.8236 -0.9313
  238MOL0     H32113   6.365   3.737   4.787  0.4673 -0.4875 -0.1643
  238MOL0     H32114   7.652   3.046   6.011 -1.3147 -3.3685 -0.1578
  238MOL0     H32115   7.800   2.853   6.081  0.6608 -3.7479 -1.8458
  238MOL0     H32116   7.882   2.357   5.919  0.0840 -0.5857  0.6115
  238MOL0     H32117   8.043   2.161   5.920 -4.5296  0.6623 -1.8358
  238MOL0     H32118   8.250   2.036   5.799  0.0246  0.2235 -0.5845
  238MOL0     H32119   8.415   2.029   5.838  1.4428  0.9640 -2.5125
  238MOL0     H32120   8.463   2.236   5.716 -0.1862 -2.0425  1.2253
  238MOL0     H32121   8.310   2.237   5.638 -0.1381 -1.3108 -3.6097
  238MOL0     H32122   8.470   1.981   5.622 -0.5934  1.4623  4.8967
  238MOL0     H32123   8.502   2.121   5.513 -0.9920 -0.1172 -1.2192
  238MOL0     H32124   8.311   2.101   5.398  2.0058 -0.0966  0.3615
  238MOL0     H32125   8.345   1.936   5.450  3.3554 -0.1855  0.6608
  238MOL0     H32126   7.955   2.078   5.604  0.3867  1.5199 -1.2532
  238MOL0     H32127   8.368   2.418   5.882  0.3612 -1.0398 -0.3039
  238MOL0     H32128   8.356   2.622   5.814 -0.4325 -1.3016  1.0450
  238MOL0     H32129   8.214   2.705   5.752  1.5454  2.6335  1.8101
  238MOL0     H32130   8.248   2.722   5.918  3.8781  3.3737 -1.8462
  239MOL0     O32131   7.203   8.348   0.235 -0.1339  0.0106  0.5894
  239MOL0     C32132   7.117   8.436   0.243  0.8892 -0.4013 -0.8980
  239MOL0     O32133   7.132   8.543   0.333  0.2673  0.4963  1.0547
  239MOL0     C32134   7.249   8.552   0.410  0.1257 -0.4659  0.8561
  239MOL0     C32135   7.357   8.621   0.353  0.0472  0.1480  0.5813
  239MOL0     C32136   7.473   8.646   0.432  0.6185  0.7821 -0.6088
  239MOL0     C32137   7.482   8.592   0.565  0.6865  0.3739 -0.4901
  239MOL0     O32138   7.598   8.618   0.634 -0.0333 -0.5214  0.0591
  239MOL0     C32139   7.644   8.517   0.724  0.1508 -1.0274 -0.3320
  239MOL0     C32140   7.778   8.546   0.770  0.4559  0.4289  0.2130
  239MOL0     C32141   7.812   8.447   0.875  0.4494  0.6311 -0.2809
  239MOL0     C32142   7.817   8.298   0.841  0.1420  0.5264  0.5594
  239MOL0     C32143   7.900   8.223   0.953  0.8320  0.3772 -0.6043
  239MOL0     C32144   7.815   8.219   1.077 -0.0042  0.3043  0.1383
  239MOL0     C32145   7.889   8.161   1.192  0.4418 -0.3827  0.6086
  239MOL0     C32146   7.852   8.017   1.215  0.1705  0.1548  0.2219
  239MOL0     N32147   7.891   7.940   1.090  0.2086 -0.2073 -0.2716
  239MOL0     C32148   8.021   7.890   1.063 -0.3192 -0.5633 -0.3076
  239MOL0     C32149   8.023   7.840   0.937 -0.0875  0.5061  0.0364
  239MOL0     C32150   8.148   7.781   0.863  1.1838 -0.0553  0.8985
  239MOL0     C32151   8.227   7.879   0.774  0.7899 -0.1727  0.2578
  239MOL0     C32152   8.296   7.991   0.858  0.5659  0.0312 -0.2277
  239MOL0     C32153   8.404   7.940   0.958  0.4723 -0.8474  0.5919
  239MOL0     O32154   8.338   7.934   1.084 -0.4336 -0.1111  0.4602
  239MOL0     C32155   8.412   7.950   1.195  1.3549 -0.8066 -1.0068
  239MOL0     C32156   8.337   8.033   1.293  0.1750  0.5324 -0.3399
  239MOL0     C32157   8.391   8.072   1.414 -0.4794  0.4964 -0.8391
  239MOL0     C32158   8.515   8.018   1.452  0.7392 -0.5580  0.2850
  239MOL0     C32159   8.570   8.046   1.589 -0.2152 -0.4329  0.5644
  239MOL0     O32160   8.513   8.148   1.664  0.2049  0.5723 -0.0826
  239MOL0     C32161   8.591   8.227   1.745  0.8153  0.6201 -0.3203
  239MOL0     C32162   8.515   8.281   1.853  0.2497  0.2830 -0.0239
  239MOL0     C32163   8.574   8.369   1.949  0.5686  1.2341  0.8763
  239MOL0     C32164   8.714   8.395   1.939 -0.4750  0.6184 -0.0481
  239MOL0     O32165   8.799   8.459   2.024 -0.0103  0.3993 -0.0066
  239MOL0     C32166   8.738   8.547   2.121 -0.4804  0.4761 -0.7623
  239MOL0     C32167   8.852   8.598   2.214 -1.2458 -0.5987 -0.4354
  239MOL0     C32168   8.887   8.496   2.327 -0.1251  0.5565 -0.4525
  239MOL0     C32169   8.991   8.395   2.283  0.2563 -1.1723  0.6121
  239MOL0     C32170   9.013   8.296   2.394 -0.3169  0.2565  0.0320
  239MOL0     C32171   9.118   8.184   2.352 -0.8293  0.3535  0.2741
  239MOL0     C32172   9.236   8.230   2.256  0.0597  1.0256  0.4435
  239MOL0     C32173   9.341   8.122   2.218  0.1678 -1.0142  0.0394
  239MOL0    Cl32174   9.278   8.024   2.085  0.5152 -0.2854  0.1558
  239MOL0     C32175   8.782   8.338   1.831 -0.1282 -0.1752  0.3747
  239MOL0     C32176   8.720   8.266   1.726  0.7874  0.5603 -0.1484
  239MOL0     O32177   8.678   7.993   1.628 -0.3966  0.2680  0.4399
  239MOL0     C32178   8.586   7.945   1.355  0.1157  0.0003  0.1215
  239MOL0     C32179   8.536   7.909   1.225 -0.4973 -0.7190 -1.1201
  239MOL0     N32180   7.885   7.836   0.904 -0.2867 -0.1337 -0.8118
  239MOL0     N32181   7.815   7.902   0.984  0.3855  0.2491 -0.0773
  239MOL0     C32182   7.370   8.521   0.617  0.2694 -0.4935 -0.1650
  239MOL0     C32183   7.254   8.496   0.538 -0.9446  0.1297  0.9822
  239MOL0     C32184   6.998   8.446   0.154  0.9118  0.4399 -0.5322
  239MOL0     C32185   6.874   8.492   0.209  0.0552 -0.3045 -0.6438
  239MOL0     C32186   6.764   8.510   0.123 -0.2223 -0.6215  0.0673
  239MOL0     C32187   6.773   8.470  -0.014 -0.0574  1.0186  0.0393
  239MOL0     O32188   6.677   8.487  -0.102  0.1588  0.1721 -0.2666
  239MOL0     C32189   6.540   8.503  -0.060  0.4189 -0.1361  0.7687
  239MOL0     C32190   6.455   8.479  -0.189 -0.3549 -0.0368  0.1475
  239MOL0     C32191   6.309   8.446  -0.170 -0.8099 -0.3790  0.4075
  239MOL0     C32192   6.221   8.465  -0.303  0.3737 -1.0004 -0.5535
  239MOL0     C32193   6.085   8.511  -0.283  0.6399 -0.5035 -0.0048
  239MOL0     C32194   5.974   8.552  -0.247  0.6041 -0.6945 -0.1219
  239MOL0     C32195   6.897   8.423  -0.063 -0.4475 -0.2215  1.0001
  239MOL0     C32196   7.013   8.418   0.017  0.4538 -1.0614 -0.6328
  239MOL0     C32197   7.143   8.394  -0.047  0.2567  0.7709 -0.1892
  239MOL0     H32198   7.338   8.652   0.250 -3.3496 -0.1782  0.9782
  239MOL0     H32199   7.556   8.704   0.392  0.0842  3.5557  1.9512
  239MOL0     H32200   7.583   8.520   0.815  1.1823 -0.4525  0.3551
  239MOL0     H32201   7.637   8.418   0.678 -1.0783 -2.0171  1.8321
  239MOL0     H32202   7.777   8.646   0.815  4.4029 -0.2357  2.1664
  239MOL0     H32203   7.845   8.547   0.684  0.3182  0.4624  0.1048
  239MOL0     H32204   7.743   8.456   0.960 -0.8199  0.7299 -1.2913
  239MOL0     H32205   7.915   8.463   0.910  1.4775 -1.5675 -2.0599
  239MOL0     H32206   7.718   8.251   0.839  0.7518 -0.9237  1.8610
  239MOL0     H32207   7.866   8.286   0.744  1.7814  0.4283  1.3573
  239MOL0     H32208   7.911   8.123   0.911 -2.9484 -1.4486  2.1555
  239MOL0     H32209   7.999   8.270   0.961  2.0216 -2.1586  0.8820
  239MOL0     H32210   7.780   8.319   1.102  1.0312  1.1496 -1.5871
  239MOL0     H32211   7.726   8.160   1.053  1.2480 -1.6229 -0.0097
  239MOL0     H32212   7.867   8.217   1.284 -2.6439 -1.4092  0.6076
  239MOL0     H32213   7.997   8.156   1.176  0.8180  1.1588  2.2979
  239MOL0     H32214   7.912   7.970   1.293 -0.8870  1.2920  1.7881
  239MOL0     H32215   7.743   8.010   1.216  0.1974 -0.1834  0.8480
  239MOL0     H32216   8.112   7.899   1.121 -0.4265  1.1071 -0.3409
  239MOL0     H32217   8.226   7.745   0.930  0.7047 -2.7283  0.1332
  239MOL0     H32218   8.108   7.705   0.795  1.2185  0.4502  0.3092
  239MOL0     H32219   8.297   7.832   0.705  0.9531 -1.5540  1.3347
  239MOL0     H32220   8.142   7.920   0.718  0.1633  1.3440  2.1789
  239MOL0     H32221   8.223   8.059   0.902  0.6538 -0.4583  0.6870
  239MOL0     H32222   8.345   8.056   0.785 -1.5375  0.2361 -1.5275
  239MOL0     H32223   8.481   8.017   0.970 -1.6777  1.5134  0.0821
  239MOL0     H32224   8.435   7.839   0.931  0.5691 -1.1519  1.7782
  239MOL0     H32225   8.236   8.069   1.278 -0.8853 -2.6077 -1.5914
  239MOL0     H32226   8.346   8.125   1.497  2.6499 -2.1056  2.9313
  239MOL0     H32227   8.415   8.240   1.847  0.7966 -0.8728 -3.1919
  239MOL0     H32228   8.510   8.420   2.021 -1.5432 -0.6848  0.4592
  239MOL0     H32229   8.692   8.632   2.069 -0.4634  0.3281 -1.0215
  239MOL0     H32230   8.659   8.502   2.182 -1.0773  1.2478 -0.9438
  239MOL0     H32231   8.946   8.604   2.157  0.7236 -0.2360  2.6145
  239MOL0     H32232   8.828   8.695   2.256  1.1748 -0.1660  0.0952
  239MOL0     H32233   8.920   8.543   2.420  1.3285  1.7735 -1.5374
  239MOL0     H32234   8.797   8.439   2.351  1.4112 -2.7582 -1.8930
  239MOL0     H32235   9.081   8.451   2.256  0.4966  0.3927  4.1084
  239MOL0     H32236   8.947   8.333   2.204  0.2021 -3.0072  1.9948
  239MOL0     H32237   8.919   8.244   2.414 -1.2665  0.5196 -3.1338
  239MOL0     H32238   9.062   8.340   2.481 -1.3486  2.1260 -0.2625
  239MOL0     H32239   9.146   8.136   2.446 -3.1833  1.6682  1.7376
  239MOL0     H32240   9.072   8.115   2.280  0.8338  0.2639 -0.7379
  239MOL0     H32241   9.297   8.306   2.305  2.1710 -0.1615 -0.2214
  239MOL0     H32242   9.194   8.272   2.164  0.0584 -0.8499 -0.4593
  239MOL0     H32243   9.431   8.171   2.181 -0.0005 -0.0946  0.8105
  239MOL0     H32244   9.369   8.058   2.303 -1.0567 -2.6963 -0.7549
  239MOL0     H32245   8.890   8.348   1.825 -0.1331 -0.5837 -0.4828
  239MOL0     H32246   8.767   8.240   1.632  1.0334 -1.2503  0.4523
  239MOL0     H32247   8.685   7.922   1.394  1.8307  1.3830 -2.9686
  239MOL0     H32248   8.604   7.861   1.155  0.8012 -0.0692 -0.3468
  239MOL0     H32249   7.362   8.501   0.723  1.0500 -3.4732 -0.5578
  239MOL0     H32250   7.167   8.449   0.583 -0.7178  1.8366  3.3921
  239MOL0     H32251   6.856   8.499   0.316  2.5828 -1.1332 -0.0751
  239MOL0     H32252   6.674   8.542   0.175  1.5092 -0.1236  2.9706
  239MOL0     H32253   6.508   8.599  -0.017  0.2497  0.1352  0.0660
  239MOL0     H32254   6.510   8.436   0.021  2.4085 -0.3145  1.4056
  239MOL0     H32255   6.502   8.404  -0.253 -1.3933 -0.5390 -0.0458
  239MOL0     H32256   6.447   8.579  -0.232 -2.0724  1.3314  3.2647
  239MOL0     H32257   6.271   8.512  -0.092 -1.1518  3.7176 -2.8703
  239MOL0     H32258   6.302   8.341  -0.141 -1.2709 -0.1431  1.1825
  239MOL0     H32259   6.270   8.548  -0.354  1.4674 -2.7086 -2.4225
  239MOL0     H32260   6.236   8.374  -0.361 -0.0125 -0.4390 -1.5506
  239MOL0     H32261   5.878   8.598  -0.236 -0.6538 -2.8182 -1.4615
  239MOL0     H32262   6.905   8.403  -0.169 -2.4527  1.3540  0.4809
  239MOL0     H32263   7.206   8.482  -0.030 -0.2957  1.3155 -0.8789
  239MOL0     H32264   7.194   8.302  -0.020  0.2529 -0.3818 -3.6195
  239MOL0     H32265   7.127   8.377  -0.154 -0.7512 -0.1285  0.0781
  240MOL0     O32266   3.091   6.956   8.189 -0.8139  0.1742 -0.5167
  240MOL0     C32267   3.182   6.984   8.262  0.3669 -0.0131  0.9666
  240MOL0     O32268   3.204   7.112   8.320 -0.5826  0.4638 -0.9213
  240MOL0     C32269   3.098   7.209   8.320  0.0476 -0.5805  0.7146
  240MOL0     C32270   3.097   7.306   8.217 -0.0617  0.5499  0.4981
  240MOL0     C32271   2.998   7.404   8.212 -0.7407  0.2030  0.0947
  240MOL0     C32272   2.891   7.401   8.300  0.0756  0.2677  0.2240
  240MOL0     O32273   2.789   7.498   8.293 -0.6187  0.6406 -0.7625
  240MOL0     C32274   2.793   7.596   8.400 -0.3518  0.1060  0.5714
  240MOL0     C32275   2.651   7.660   8.413  0.3747 -0.1731  0.9251
  240MOL0     C32276   2.551   7.563   8.456  0.0706 -0.4707  0.1281
  240MOL0     C32277   2.562   7.551   8.606  0.1943 -0.2646 -0.2620
  240MOL0     C32278   2.489   7.429   8.655  0.4710  0.0264  0.2120
  240MOL0     C32279   2.337   7.430   8.640  0.2280  0.2305 -0.6061
  240MOL0     C32280   2.272   7.292   8.670 -0.1698  0.1843 -0.2581
  240MOL0     C32281   2.267   7.189   8.558 -0.8630 -0.2536 -0.0200
  240MOL0     N32282   2.194   7.243   8.439  0.6419  1.1158  0.1162
  240MOL0     C32283   2.250   7.306   8.336  0.1329  0.1373  0.3457
  240MOL0     C32284   2.144   7.348   8.259 -0.2374 -0.2394 -0.7752
  240MOL0     C32285   2.157   7.440   8.141  0.3094 -0.4072 -0.4233
  240MOL0     C32286   2.088   7.367   8.027 -0.8925  0.7756 -0.1836
  240MOL0     C32287   2.141   7.416   7.893  0.4593 -1.1219 -0.5621
  240MOL0     C32288   2.074   7.356   7.764 -0.4578  0.7177 -0.0104
  240MOL0     O32289   1.934   7.334   7.770  0.5947 -0.1831  0.0261
  240MOL0     C32290   1.872   7.273   7.663  0.4266 -0.5449 -0.0931
  240MOL0     C32291   1.907   7.301   7.533 -0.4713  1.0799  0.1386
  240MOL0     C32292   1.824   7.245   7.431 -0.1833 -0.1913  0.2790
  240MOL0     C32293   1.709   7.167   7.455 -0.0834 -0.1461 -0.0974
  240MOL0     C32294   1.651   7.083   7.354  0.2440 -0.0352 -0.7733
  240MOL0     O32295   1.639   7.145   7.234 -0.4797 -0.0509 -0.8445
  240MOL0     C32296   1.599   7.084   7.114 -0.0468 -0.6400  0.2013
  240MOL0     C32297   1.628   6.946   7.066  0.5341 -0.2007 -0.0095
  240MOL0     C32298   1.579   6.906   6.938  0.6810  0.8760 -0.1785
  240MOL0     C32299   1.510   6.992   6.855 -0.4521  0.1501  0.4087
  240MOL0     O32300   1.478   6.947   6.734  0.1420 -0.9002  0.1337
  240MOL0     C32301   1.354   6.995   6.673  0.5994  0.5020  0.2939
  240MOL0     C32302   1.282   6.897   6.583 -0.7249  0.2758 -0.3114
  240MOL0     C32303   1.159   6.951   6.521  0.9038 -0.8305 -0.3318
  240MOL0     C32304   1.091   6.877   6.409 -0.3775 -0.2288 -0.0414
  240MOL0     C32305   0.957   6.937   6.382 -0.1223 -0.4160 -0.4338
  240MOL0     C32306   0.897   6.890   6.250 -1.0344  0.4247  0.1125
  240MOL0     C32307   0.903   6.730   6.226  0.1457  0.3694 -0.0608
  240MOL0     C32308   0.798   6.696   6.118 -0.6018  0.0256 -0.5254
  240MOL0    Cl32309   0.796   6.794   5.971 -0.0441 -0.1107  0.3819
  240MOL0     C32310   1.495   7.124   6.903  0.8837  0.3794  0.3457
  240MOL0     C32311   1.543   7.173   7.026  0.9980 -0.3371  0.0982
  240MOL0     O32312   1.601   6.974   7.392 -0.3094 -0.1703  0.3915
  240MOL0     C32313   1.675   7.150   7.590  0.0294  0.1762  0.7458
  240MOL0     C32314   1.748   7.224   7.693 -0.6804 -0.0221 -0.0634
  240MOL0     N32315   2.029   7.306   8.312 -0.4376 -0.5866 -0.5666
  240MOL0     N32316   2.059   7.247   8.420  0.1672 -0.1022 -0.4254
  240MOL0     C32317   2.895   7.307   8.405 -0.3880  0.1485  0.6029
  240MOL0     C32318   2.995   7.209   8.409  0.2586 -0.1346 -0.0883
  240MOL0     C32319   3.288   6.888   8.299 -0.4445  1.0608  0.8552
  240MOL0     C32320   3.361   6.913   8.418  0.0109  0.3500  0.6101
  240MOL0     C32321   3.477   6.842   8.449 -0.2468  0.7090 -0.8907
  240MOL0     C32322   3.520   6.730   8.378  0.9795 -0.0286 -0.5913
  240MOL0     O32323   3.616   6.646   8.438  0.6912 -0.3485 -0.2947
  240MOL0     C32324   3.654   6.523   8.378  0.4630 -0.1946  1.0206
  240MOL0     C32325   3.760   6.454   8.448 -0.0821 -0.0011  0.3205
  240MOL0     C32326   3.741   6.458   8.600  0.1489 -0.4965 -0.4269
  240MOL0     C32327   3.807   6.584   8.664  0.2167  0.0666  0.1437
  240MOL0     C32328   3.722   6.626   8.775  0.1540 -0.2740 -0.8258
  240MOL0     C32329   3.659   6.666   8.866 -0.8530  0.2869 -0.2596
  240MOL0     C32330   3.442   6.698   8.267  0.9843  0.7897  0.4559
  240MOL0     C32331   3.333   6.775   8.225 -0.4280 -0.1599 -0.0246
  240MOL0     C32332   3.267   6.720   8.097  0.0832  0.1612 -0.1533
  240MOL0     H32333   3.179   7.310   8.147 -0.7180  2.7880 -0.2260
  240MOL0     H32334   2.989   7.465   8.122  0.3393  1.8664  1.0736
  240MOL0     H32335   2.814   7.542   8.493  1.6332  0.3497  0.3099
  240MOL0     H32336   2.868   7.675   8.383 -0.2871  0.2022  1.2517
  240MOL0     H32337   2.619   7.705   8.318  0.3833 -0.1697  0.9238
  240MOL0     H32338   2.676   7.737   8.487 -2.6295  2.1696 -0.2893
  240MOL0     H32339   2.578   7.466   8.414  1.5965  1.0126 -2.6593
  240MOL0     H32340   2.453   7.600   8.425  0.1653  3.3483  3.4641
  240MOL0     H32341   2.665   7.549   8.642  0.0637 -0.2086  0.1290
  240MOL0     H32342   2.519   7.635   8.662 -0.7412 -0.9113  0.0173
  240MOL0     H32343   2.542   7.346   8.606 -2.9316 -1.4161 -1.3974
  240MOL0     H32344   2.514   7.428   8.761 -0.2156 -1.6812  0.3998
  240MOL0     H32345   2.297   7.496   8.717  1.2645  3.0468 -2.3347
  240MOL0     H32346   2.293   7.461   8.545 -2.6945 -2.8683 -0.4219
  240MOL0     H32347   2.167   7.315   8.691  0.1628  0.4726  1.1905
  240MOL0     H32348   2.319   7.243   8.756  0.4479  0.0978 -0.6396
  240MOL0     H32349   2.366   7.160   8.523 -1.6945 -0.1939 -2.6595
  240MOL0     H32350   2.213   7.100   8.591  1.5889 -1.8925 -0.2406
  240MOL0     H32351   2.353   7.335   8.319  0.2718 -1.0072 -0.8979
  240MOL0     H32352   2.107   7.526   8.186 -0.3060 -1.8589  1.8279
  240MOL0     H32353   2.260   7.471   8.122  0.4791 -0.9102 -0.3545
  240MOL0     H32354   2.087   7.258   8.040  0.3384  0.6511 -0.9088
  240MOL0     H32355   1.982   7.389   8.046 -0.8194  2.2934 -1.3817
  240MOL0     H32356   2.249   7.418   7.876  0.8411  0.6090  1.6496
  240MOL0     H32357   2.106   7.519   7.892  1.6940 -0.6844 -1.2695
  240MOL0     H32358   2.116   7.263   7.725 -2.3516  0.2238 -1.0168
  240MOL0     H32359   2.086   7.434   7.688 -2.4422  0.6342 -0.4635
  240MOL0     H32360   1.983   7.370   7.499 -1.2364  1.9887  0.2252
  240MOL0     H32361   1.858   7.248   7.328 -2.4167  0.5622 -0.5004
  240MOL0     H32362   1.681   6.871   7.124  1.4253  0.6314  0.2783
  240MOL0     H32363   1.590   6.799   6.921 -0.7016  0.1626  2.7440
  240MOL0     H32364   1.285   7.003   6.757 -2.3364 -0.9841 -1.8013
  240MOL0     H32365   1.364   7.086   6.613  0.4668 -0.7696 -1.8009
  240MOL0     H32366   1.348   6.860   6.504 -0.6835  0.0793 -0.1855
  240MOL0     H32367   1.255   6.805   6.635  3.3988 -1.3781 -0.6852
  240MOL0     H32368   1.092   6.973   6.604  0.6600  0.6588 -0.8836
  240MOL0     H32369   1.193   7.043   6.471  0.0184 -1.1731 -1.6164
  240MOL0     H32370   1.071   6.774   6.441  2.4082 -1.2516 -1.2784
  240MOL0     H32371   1.153   6.877   6.318 -3.4017  2.4652 -2.3453
  240MOL0     H32372   0.969   7.044   6.363 -0.3700 -0.2396  0.3965
  240MOL0     H32373   0.888   6.917   6.464  0.2192  1.9309  0.4893
  240MOL0     H32374   0.797   6.932   6.233 -0.5161  1.4452 -0.5210
  240MOL0     H32375   0.963   6.930   6.173 -0.3009  1.4482  1.2234
  240MOL0     H32376   0.887   6.676   6.319  2.1933  0.4590  0.3953
  240MOL0     H32377   1.005   6.693   6.211  0.0825 -0.1489  0.7205
  240MOL0     H32378   0.803   6.589   6.093 -2.4226  0.0562 -1.1617
  240MOL0     H32379   0.706   6.705   6.175  0.5004 -0.4248  1.4143
  240MOL0     H32380   1.444   7.185   6.829 -1.7633 -0.9350  0.9526
  240MOL0     H32381   1.514   7.269   7.066 -1.4156 -1.5400  1.4356
  240MOL0     H32382   1.596   7.083   7.622 -0.3052  0.2241  0.0379
  240MOL0     H32383   1.716   7.207   7.796 -1.7090 -1.0515 -0.5327
  240MOL0     H32384   2.809   7.300   8.470 -0.5396 -1.3698  0.2873
  240MOL0     H32385   3.002   7.140   8.493  1.0030  0.4074  0.3076
  240MOL0     H32386   3.327   6.992   8.484 -1.0982  3.3270 -3.2110
  240MOL0     H32387   3.536   6.859   8.539  2.6644 -1.9051 -2.1444
  240MOL0     H32388   3.687   6.544   8.275 -1.0551  1.5286  0.8463
  240MOL0     H32389   3.572   6.453   8.361  0.8476 -0.3504 -0.3294
  240MOL0     H32390   3.855   6.505   8.429  0.1045  0.2421  1.8185
  240MOL0     H32391   3.771   6.361   8.392 -0.0986  1.1969 -1.7907
  240MOL0     H32392   3.789   6.370   8.644  4.8836  1.4665 -1.1639
  240MOL0     H32393   3.635   6.443   8.623  0.3015 -1.5239 -0.3361
  240MOL0     H32394   3.909   6.581   8.704  0.4564  2.0228 -0.1860
  240MOL0     H32395   3.802   6.664   8.589 -0.3237 -1.2455 -1.2750
  240MOL0     H32396   3.589   6.709   8.935 -0.3695  0.1159  0.3416
  240MOL0     H32397   3.477   6.617   8.203  3.2274  2.4030 -0.5135
  240MOL0     H32398   3.239   6.614   8.101  1.5698 -0.3561 -2.1394
  240MOL0     H32399   3.175   6.770   8.066 -1.2408 -3.1807 -2.2171
  240MOL0     H32400   3.342   6.716   8.017  0.4078 -2.0926  0.1954
  241MOL0     O32401   3.647   6.485  11.283 -0.5586 -0.0760 -0.6318
  241MOL0     C32402   3.631   6.588  11.349 -0.4491 -0.3930  0.5325
  241MOL0     O32403   3.515   6.661  11.342 -0.7374  0.1001  0.0576
  241MOL0     C32404   3.406   6.602  11.292  0.1303  0.3341  1.0131
  241MOL0     C32405   3.327   6.504  11.351  0.7678 -0.0490  0.6293
  241MOL0     C32406   3.213   6.451  11.288 -0.0395  0.3281  0.5307
  241MOL0     C32407   3.178   6.505  11.164  0.4391 -0.3856  0.6666
  241MOL0     O32408   3.066   6.471  11.085  0.1156  0.1097 -0.5849
  241MOL0     C32409   2.972   6.395  11.161 -0.2182  0.1826 -0.5714
  241MOL0     C32410   2.841   6.389  11.077  0.2406  0.7291  0.4701
  241MOL0     C32411   2.762   6.515  11.065 -1.0319 -0.4350 -0.4748
  241MOL0     C32412   2.612   6.481  11.024  0.0449  0.8248 -0.4595
  241MOL0     C32413   2.541   6.601  10.957  0.0211 -0.4062 -0.2001
  241MOL0     C32414   2.393   6.579  10.976  0.2392 -0.1760  0.1221
  241MOL0     C32415   2.318   6.688  11.047 -0.0847  0.3138  0.2154
  241MOL0     C32416   2.312   6.679  11.204  0.2084 -0.2391  0.7013
  241MOL0     N32417   2.430   6.741  11.267  0.8031  0.2427  0.0413
  241MOL0     C32418   2.477   6.876  11.251 -0.3032  0.1622 -0.9043
  241MOL0     C32419   2.594   6.879  11.322 -0.1274 -0.8511 -0.0153
  241MOL0     C32420   2.688   7.002  11.338 -0.0359  0.6059  0.6866
  241MOL0     C32421   2.777   7.003  11.217  1.3646 -0.1945 -0.1198
  241MOL0     C32422   2.880   6.896  11.221 -0.1530 -0.1099  0.5950
  241MOL0     C32423   2.955   6.878  11.090 -1.0758  0.3006 -0.8815
  241MOL0     O32424   3.005   6.998  11.043 -0.2078  0.1164  0.1960
  241MOL0     C32425   3.118   7.059  11.094 -0.3675 -0.1306  0.1664
  241MOL0     C32426   3.159   7.178  11.036  0.1808 -0.4054 -0.9983
  241MOL0     C32427   3.279   7.228  11.057  0.7599  1.3621 -0.0321
  241MOL0     C32428   3.362   7.166  11.156 -0.1371 -0.0049 -0.9903
  241MOL0     C32429   3.504   7.226  11.192  1.6624  0.2988  0.5066
  241MOL0     O32430   3.538   7.346  11.136  0.2531  0.2012  1.2088
  241MOL0     C32431   3.650   7.409  11.182 -0.2654  0.2665 -0.2811
  241MOL0     C32432   3.634   7.546  11.203 -0.1443 -0.2947  0.1633
  241MOL0     C32433   3.731   7.627  11.256 -0.0586 -0.0097 -1.0783
  241MOL0     C32434   3.854   7.572  11.294  0.7159  0.0448  0.3626
  241MOL0     O32435   3.938   7.669  11.342  0.6351  0.6449 -1.5198
  241MOL0     C32436   4.058   7.633  11.419  0.2091 -0.2676  0.0351
  241MOL0     C32437   4.099   7.768  11.486  0.2862 -0.9736 -0.8809
  241MOL0     C32438   4.157   7.755  11.625 -0.6079 -0.7688 -0.0318
  241MOL0     C32439   4.039   7.730  11.718  0.9025 -0.2058 -0.0506
  241MOL0     C32440   4.083   7.642  11.841  0.6929  0.3027  1.1970
  241MOL0     C32441   4.060   7.495  11.822 -0.2057  0.3292 -0.2104
  241MOL0     C32442   4.078   7.423  11.949  0.1774  0.2147  0.0968
  241MOL0     C32443   4.195   7.319  11.959  1.2842 -0.9522 -0.1317
  241MOL0    Cl32444   4.175   7.195  11.833  0.0374  0.0870  0.2123
  241MOL0     C32445   3.874   7.438  11.274 -0.8989 -0.1150 -0.6086
  241MOL0     C32446   3.778   7.358  11.212  0.2599 -0.1727 -0.6524
  241MOL0     O32447   3.576   7.157  11.253 -1.0214  0.7702 -0.3052
  241MOL0     C32448   3.320   7.049  11.219  1.1424  0.4791 -0.4754
  241MOL0     C32449   3.197   6.986  11.184  1.0022 -0.6760 -1.1503
  241MOL0     N32450   2.614   6.759  11.381  0.4757  0.6345  0.6414
  241MOL0     N32451   2.523   6.676  11.340 -0.2921  0.5819  0.3498
  241MOL0     C32452   3.253   6.602  11.109  0.0084 -0.5021  0.5979
  241MOL0     C32453   3.359   6.657  11.177 -0.0920  0.6212 -0.4841
  241MOL0     C32454   3.748   6.623  11.431 -0.0421 -0.1423 -0.2008
  241MOL0     C32455   3.846   6.530  11.450 -0.2505 -0.5892 -0.1168
  241MOL0     C32456   3.935   6.539  11.563 -0.9667 -0.6137 -0.7422
  241MOL0     C32457   3.938   6.652  11.639  0.5227  0.0293  0.0661
  241MOL0     O32458   4.021   6.645  11.746  0.5913  0.0231 -0.0428
  241MOL0     C32459   4.024   6.763  11.834 -0.6960  0.3035  1.0648
  241MOL0     C32460   4.096   6.724  11.967  0.1146 -1.1391  0.0988
  241MOL0     C32461   4.133   6.859  12.037 -0.0073 -0.0378  0.2213
  241MOL0     C32462   4.261   6.920  11.986  0.0525 -0.2374  0.3778
  241MOL0     C32463   4.386   6.845  12.024  0.2232 -0.0378  0.7577
  241MOL0     C32464   4.475   6.775  12.042  0.3600  0.4588  0.5356
  241MOL0     C32465   3.854   6.762  11.606 -0.9905  0.1249 -0.3983
  241MOL0     C32466   3.757   6.747  11.509  0.7186  0.7439  0.9132
  241MOL0     C32467   3.653   6.862  11.504  0.1518  0.2515 -0.2127
  241MOL0     H32468   3.349   6.465  11.450  1.3742 -1.1872  0.0533
  241MOL0     H32469   3.148   6.379  11.336 -0.9137  0.2578 -0.7206
  241MOL0     H32470   3.003   6.292  11.178 -0.1281  0.6469  2.5822
  241MOL0     H32471   2.945   6.443  11.255 -1.4230  0.2894 -0.9525
  241MOL0     H32472   2.784   6.317  11.137  2.1176  0.5537  2.1375
  241MOL0     H32473   2.865   6.344  10.980  0.1556  0.9003  0.3672
  241MOL0     H32474   2.819   6.573  10.992 -0.6420 -0.9445 -0.5778
  241MOL0     H32475   2.760   6.577  11.155  1.3450 -0.3138 -0.4415
  241MOL0     H32476   2.608   6.395  10.957  1.0010  2.4604 -2.7343
  241MOL0     H32477   2.570   6.426  11.110  1.7151 -2.9024 -1.7935
  241MOL0     H32478   2.575   6.698  10.994 -0.7002  0.7065 -2.2947
  241MOL0     H32479   2.561   6.598  10.849  1.6809 -1.0048  0.0941
  241MOL0     H32480   2.366   6.568  10.870  2.0166  0.4931 -0.4387
  241MOL0     H32481   2.368   6.487  11.029 -0.4701  1.5743  3.0510
  241MOL0     H32482   2.214   6.669  11.020 -0.3138  1.9583 -0.1288
  241MOL0     H32483   2.354   6.788  11.022  0.8807  0.2000  1.0790
  241MOL0     H32484   2.223   6.737  11.232  1.6444  1.7164  1.4647
  241MOL0     H32485   2.297   6.574  11.228  3.6865 -1.5028 -1.8254
  241MOL0     H32486   2.423   6.960  11.208 -2.4904 -0.2527  0.8713
  241MOL0     H32487   2.615   7.084  11.337  0.0724  0.7144 -0.7068
  241MOL0     H32488   2.758   7.009  11.422  0.0938 -1.7976  0.8428
  241MOL0     H32489   2.702   6.972  11.144 -1.9257  1.9961  2.0382
  241MOL0     H32490   2.814   7.099  11.180 -1.5133  0.2261 -2.1944
  241MOL0     H32491   2.833   6.803  11.255  1.4317 -0.8412  0.8649
  241MOL0     H32492   2.955   6.936  11.290  1.2171 -0.8430 -0.4211
  241MOL0     H32493   2.898   6.838  11.006  1.1422 -0.5004 -2.0615
  241MOL0     H32494   3.023   6.795  11.110  1.1501  1.9090 -1.4412
  241MOL0     H32495   3.093   7.223  10.963 -0.3006  2.8764  1.2419
  241MOL0     H32496   3.312   7.313  10.998  1.9078 -0.5249 -2.2544
  241MOL0     H32497   3.537   7.592  11.193 -0.8193 -1.6999 -0.1183
  241MOL0     H32498   3.718   7.734  11.259  3.9962  0.6468  2.1737
  241MOL0     H32499   4.023   7.563  11.496 -2.5810 -0.1509 -0.9807
  241MOL0     H32500   4.129   7.597  11.345  1.8261  0.4271  1.2060
  241MOL0     H32501   4.173   7.815  11.421  2.2951  3.8446  4.1233
  241MOL0     H32502   4.018   7.841  11.481  3.4463  2.8064 -1.4994
  241MOL0     H32503   4.230   7.675  11.612 -0.7020 -0.4819 -2.9953
  241MOL0     H32504   4.209   7.845  11.659 -2.5704 -0.3143  1.9659
  241MOL0     H32505   3.963   7.678  11.658 -0.1938  3.5067 -2.2176
  241MOL0     H32506   3.997   7.827  11.747 -0.4566  0.5049 -3.8121
  241MOL0     H32507   4.022   7.680  11.924  0.6651 -0.7093  1.6634
  241MOL0     H32508   4.187   7.664  11.866  2.8197 -3.3033 -2.9778
  241MOL0     H32509   3.962   7.469  11.782  0.4709  1.5612 -2.9657
  241MOL0     H32510   4.131   7.464  11.745 -0.4679 -0.3942 -0.1627
  241MOL0     H32511   3.987   7.367  11.969 -0.8042  2.0341  0.9755
  241MOL0     H32512   4.083   7.497  12.029 -2.8534 -0.6961  1.2282
  241MOL0     H32513   4.287   7.375  11.938  0.2130 -0.1266 -3.0936
  241MOL0     H32514   4.187   7.274  12.059 -1.0629 -0.6515 -0.1251
  241MOL0     H32515   3.969   7.404  11.314 -0.6514  0.2454 -0.8870
  241MOL0     H32516   3.794   7.253  11.191  2.0064 -0.4193  1.5267
  241MOL0     H32517   3.385   7.005  11.293  0.9871 -1.3049 -1.3480
  241MOL0     H32518   3.161   6.893  11.226  1.1828 -1.6874 -3.0952
  241MOL0     H32519   3.217   6.637  11.013 -1.4643  2.5020  2.1185
  241MOL0     H32520   3.416   6.732  11.123 -1.2079  1.5778 -0.3737
  241MOL0     H32521   3.841   6.437  11.394 -1.1836 -0.1469 -0.8103
  241MOL0     H32522   4.003   6.463  11.601  0.1590  1.2929  1.2797
  241MOL0     H32523   3.927   6.804  11.862 -0.8347 -0.4908  1.7970
  241MOL0     H32524   4.068   6.832  11.761 -0.8208 -0.7517 -0.0533
  241MOL0     H32525   4.179   6.655  11.946  2.2804  0.4218  2.7831
  241MOL0     H32526   4.021   6.672  12.027 -1.3183 -0.4826 -1.0600
  241MOL0     H32527   4.134   6.846  12.146 -0.3357  0.6029  0.3006
  241MOL0     H32528   4.061   6.940  12.020 -2.4012 -2.4932 -2.5834
  241MOL0     H32529   4.239   6.934  11.880 -2.1689  1.2196  0.9710
  241MOL0     H32530   4.263   7.019  12.032 -1.4060 -0.1819  0.3626
  241MOL0     H32531   4.560   6.718  12.074  0.4708 -1.0490 -2.0997
  241MOL0     H32532   3.884   6.855  11.652  0.8565 -0.7307  0.2375
  241MOL0     H32533   3.569   6.826  11.564  0.0576  0.4274 -0.2419
  241MOL0     H32534   3.695   6.953  11.547 -0.4076  0.0392  0.8160
  241MOL0     H32535   3.612   6.879  11.404  2.7509  3.6212 -0.8852
  242MOL0     O32536   7.603   0.909   6.661  0.1623  0.4359  0.8442
  242MOL0     C32537   7.665   0.806   6.687  0.4152 -0.6512  0.4452
  242MOL0     O32538   7.635   0.680   6.629  0.0498  0.6976  0.4439
  242MOL0     C32539   7.537   0.693   6.529  0.4463 -0.2614 -0.4350
  242MOL0     C32540   7.587   0.653   6.398 -0.0255  0.0506 -0.3226
  242MOL0     C32541   7.494   0.640   6.290 -0.2501 -0.4452  0.0104
  242MOL0     C32542   7.352   0.664   6.320  0.1279 -0.1496  0.0995
  242MOL0     O32543   7.257   0.659   6.212  0.0171  0.7776 -0.1204
  242MOL0     C32544   7.155   0.753   6.201  0.4027  0.3383  0.3192
  242MOL0     C32545   7.131   0.784   6.049  0.7598  0.0711 -0.2285
  242MOL0     C32546   7.243   0.857   5.985 -0.4781  0.4527  0.1811
  242MOL0     C32547   7.248   0.809   5.846  0.4598 -0.8780  1.0156
  242MOL0     C32548   7.355   0.892   5.769 -0.1536 -0.3123 -0.1679
  242MOL0     C32549   7.371   0.853   5.624  0.0345 -0.5608 -0.2130
  242MOL0     C32550   7.526   0.881   5.601  0.2660  0.2549 -0.7783
  242MOL0     C32551   7.549   0.845   5.456 -0.1532  0.6141  0.7440
  242MOL0     N32552   7.688   0.866   5.431 -1.4818  0.0846  0.5065
  242MOL0     C32553   7.778   0.759   5.415 -0.1553 -0.0594 -0.6178
  242MOL0     C32554   7.899   0.828   5.378  0.0484  0.1601 -0.0309
  242MOL0     C32555   8.030   0.761   5.329  0.3908 -0.6488  0.1918
  242MOL0     C32556   8.132   0.766   5.441  0.1941 -0.9081 -0.3138
  242MOL0     C32557   8.207   0.901   5.467  0.4122 -1.2902  0.1530
  242MOL0     C32558   8.315   0.886   5.568 -0.2906  0.9100  0.3284
  242MOL0     O32559   8.391   1.008   5.595 -0.4724 -0.2969  0.3241
  242MOL0     C32560   8.512   0.983   5.652  0.8645 -0.2431 -0.2295
  242MOL0     C32561   8.612   1.075   5.626  0.3695  0.1463  0.6145
  242MOL0     C32562   8.740   1.048   5.684 -0.7426 -0.4013 -0.1577
  242MOL0     C32563   8.766   0.941   5.773  0.6009 -1.0704  0.0788
  242MOL0     C32564   8.895   0.916   5.837 -0.8713  0.1592 -0.1889
  242MOL0     O32565   8.891   0.810   5.921  0.2154  0.2634 -0.5983
  242MOL0     C32566   9.009   0.791   5.986  0.0481 -0.1011 -0.5702
  242MOL0     C32567   9.105   0.708   5.938  0.2266 -0.1329  0.4787
  242MOL0     C32568   9.221   0.683   6.004 -0.2077 -0.8798  0.2866
  242MOL0     C32569   9.234   0.729   6.132 -0.1649 -0.7450 -0.7783
  242MOL0     O32570   9.350   0.703   6.199  0.4723  0.0263 -0.2347
  242MOL0     C32571   9.331   0.680   6.335 -0.8187 -0.7061  0.5786
  242MOL0     C32572   9.472   0.627   6.374 -0.3627  0.4822 -0.5198
  242MOL0     C32573   9.516   0.496   6.307  0.4804 -1.1344  0.1466
  242MOL0     C32574   9.662   0.466   6.349 -0.0724 -0.0404 -0.1356
  242MOL0     C32575   9.691   0.393   6.492  0.6824 -0.2899  0.4712
  242MOL0     C32576   9.840   0.342   6.498  0.8066  0.7282 -0.0326
  242MOL0     C32577   9.863   0.263   6.627  0.1925  0.6076  0.0063
  242MOL0     C32578  10.014   0.243   6.650 -0.7091  0.7638  0.0566
  242MOL0    Cl32579  10.088   0.399   6.695  0.2811  0.4223 -0.0898
  242MOL0     C32580   9.125   0.799   6.196 -0.0005  0.0322  0.2562
  242MOL0     C32581   9.011   0.832   6.121 -0.3344 -0.1508  0.9737
  242MOL0     O32582   8.996   0.988   5.813 -0.7408  0.2988 -0.1143
  242MOL0     C32583   8.660   0.863   5.800 -0.3600 -0.9382 -1.1824
  242MOL0     C32584   8.525   0.879   5.748 -0.3671  0.2401  0.0849
  242MOL0     N32585   7.878   0.962   5.373 -0.0319  0.1976  0.3687
  242MOL0     N32586   7.759   0.986   5.410  0.4527  0.9457  0.5277
  242MOL0     C32587   7.312   0.709   6.444 -0.6161 -0.6512 -1.1263
  242MOL0     C32588   7.402   0.722   6.555  0.1176 -0.4810  0.2508
  242MOL0     C32589   7.780   0.805   6.795  0.1132 -0.3375 -0.1117
  242MOL0     C32590   7.852   0.685   6.823  0.3401  0.1543  0.1110
  242MOL0     C32591   7.961   0.671   6.909  0.7931 -0.3080 -0.6826
  242MOL0     C32592   8.002   0.790   6.978 -0.1993 -0.7614 -0.2548
  242MOL0     O32593   8.116   0.802   7.058  0.7167 -0.1407 -0.2574
  242MOL0     C32594   8.209   0.687   7.052  0.7932  1.0123 -0.3784
  242MOL0     C32595   8.302   0.709   6.927  0.5884 -0.5711  0.5221
  242MOL0     C32596   8.346   0.858   6.908  0.1323 -0.7829 -0.9197
  242MOL0     C32597   8.427   0.918   7.028  0.4193 -1.2550  1.0007
  242MOL0     C32598   8.458   1.061   6.986  0.2969  0.1529  0.7742
  242MOL0     C32599   8.492   1.175   6.946  0.2043  0.0760  0.4747
  242MOL0     C32600   7.923   0.908   6.964  0.1069 -0.1449  0.0100
  242MOL0     C32601   7.814   0.917   6.876  0.1068  0.6264 -0.0680
  242MOL0     C32602   7.736   1.044   6.883 -0.0493  0.5190 -0.0952
  242MOL0     H32603   7.692   0.628   6.388 -0.2199 -1.0309  0.1689
  242MOL0     H32604   7.522   0.598   6.194 -0.9247 -0.3177 -0.2437
  242MOL0     H32605   7.066   0.708   6.246  1.9851 -2.2050  1.1635
  242MOL0     H32606   7.175   0.847   6.253 -1.4468  1.7228 -1.3589
  242MOL0     H32607   7.036   0.839   6.041  0.2384 -0.9881 -1.6892
  242MOL0     H32608   7.105   0.693   5.995  1.8033  0.1733 -0.9187
  242MOL0     H32609   7.338   0.840   6.037 -0.2915  1.0340  0.0359
  242MOL0     H32610   7.220   0.963   5.973 -2.4145  0.0336 -0.1797
  242MOL0     H32611   7.267   0.701   5.850 -2.5238 -1.5013  0.4529
  242MOL0     H32612   7.149   0.813   5.800  1.3236 -2.5165 -1.1697
  242MOL0     H32613   7.306   0.990   5.763  2.0476  0.8093 -0.8475
  242MOL0     H32614   7.449   0.895   5.825 -1.9488  2.1387  3.0626
  242MOL0     H32615   7.352   0.745   5.621 -1.0901 -0.5527  2.6472
  242MOL0     H32616   7.310   0.898   5.546 -0.4181 -1.5585 -0.4526
  242MOL0     H32617   7.586   0.822   5.671 -4.9066 -0.6479  3.6124
  242MOL0     H32618   7.534   0.989   5.612 -1.9776  0.2750  1.7479
  242MOL0     H32619   7.531   0.738   5.444  2.9584  0.0169  0.7852
  242MOL0     H32620   7.476   0.898   5.393 -1.0234 -0.7316  0.5741
  242MOL0     H32621   7.758   0.653   5.401 -2.2185  0.4006 -1.4667
  242MOL0     H32622   8.003   0.661   5.292 -0.5635  0.8808 -3.6741
  242MOL0     H32623   8.081   0.811   5.247 -1.5903 -2.9308 -2.6382
  242MOL0     H32624   8.083   0.729   5.531  2.0726 -0.0480  1.1183
  242MOL0     H32625   8.210   0.694   5.417 -0.1518 -0.3517 -3.5674
  242MOL0     H32626   8.126   0.969   5.495 -0.3668 -0.8010 -2.8974
  242MOL0     H32627   8.243   0.933   5.368 -1.2602 -1.9367 -0.7109
  242MOL0     H32628   8.379   0.802   5.542 -0.9259  0.1472  1.1666
  242MOL0     H32629   8.263   0.846   5.656  0.5106  1.0323  0.8608
  242MOL0     H32630   8.598   1.156   5.556 -1.0821 -0.5645  0.0369
  242MOL0     H32631   8.822   1.111   5.654  0.3422 -0.9654  1.4764
  242MOL0     H32632   9.087   0.656   5.845  2.8954 -1.0939  0.4160
  242MOL0     H32633   9.285   0.606   5.964 -1.6542 -0.3928 -3.3646
  242MOL0     H32634   9.318   0.779   6.381  0.0850 -0.6362  0.7116
  242MOL0     H32635   9.250   0.608   6.350 -0.9402 -0.7137 -0.1008
  242MOL0     H32636   9.546   0.707   6.366  1.7317 -1.3285 -0.2782
  242MOL0     H32637   9.460   0.599   6.479 -3.2909 -2.2253 -1.4450
  242MOL0     H32638   9.456   0.408   6.332  1.7271 -1.4719  2.1326
  242MOL0     H32639   9.531   0.514   6.200  0.5712 -0.2849  0.2988
  242MOL0     H32640   9.716   0.561   6.353  1.4390 -0.6770 -2.7088
  242MOL0     H32641   9.714   0.406   6.273  0.1715  0.5836 -0.4636
  242MOL0     H32642   9.634   0.301   6.502  5.0368 -3.4378 -0.7272
  242MOL0     H32643   9.681   0.460   6.578  3.7999  0.7686  0.1415
  242MOL0     H32644   9.852   0.281   6.408  2.3590  0.3686  0.3974
  242MOL0     H32645   9.904   0.430   6.491  0.3486  1.1554  0.9417
  242MOL0     H32646   9.827   0.160   6.623 -2.0508  1.2295  2.1437
  242MOL0     H32647   9.818   0.314   6.712 -1.6168 -2.7116  1.2167
  242MOL0     H32648  10.028   0.168   6.729  1.3898 -1.8572 -2.5508
  242MOL0     H32649  10.053   0.202   6.556  0.0808  3.8550 -1.0681
  242MOL0     H32650   9.128   0.832   6.300  2.4620 -1.8099  0.8618
  242MOL0     H32651   8.928   0.888   6.164 -1.1759 -1.0575  0.5798
  242MOL0     H32652   8.668   0.795   5.884 -0.3354 -3.0361 -2.7944
  242MOL0     H32653   8.456   0.797   5.764 -3.3732  2.6666  0.4162
  242MOL0     H32654   7.213   0.739   6.477 -0.4070 -1.5428  0.4198
  242MOL0     H32655   7.373   0.773   6.647 -1.1877  2.1038 -1.4790
  242MOL0     H32656   7.827   0.599   6.762  2.6730 -1.2257  0.9831
  242MOL0     H32657   7.995   0.569   6.919 -0.7895 -0.8722 -0.8607
  242MOL0     H32658   8.160   0.589   7.050  2.7676 -0.1789  2.3305
  242MOL0     H32659   8.257   0.691   7.150 -1.3551 -0.7054  0.8459
  242MOL0     H32660   8.253   0.673   6.835  0.7725 -0.7809  0.5059
  242MOL0     H32661   8.392   0.650   6.943  1.5229  1.1324  1.8909
  242MOL0     H32662   8.251   0.909   6.890 -0.3294 -1.1791  0.3033
  242MOL0     H32663   8.419   0.867   6.828  1.9478 -1.5098  0.5852
  242MOL0     H32664   8.357   0.916   7.113  1.1702 -1.7572  1.6181
  242MOL0     H32665   8.517   0.859   7.042 -0.7875 -3.1391  1.2114
  242MOL0     H32666   8.522   1.277   6.943  1.7175 -0.1656  3.4999
  242MOL0     H32667   7.938   0.995   7.027 -3.9923 -0.0040  1.1141
  242MOL0     H32668   7.746   1.094   6.980  1.2309 -1.5316  0.9176
  242MOL0     H32669   7.783   1.091   6.796 -1.8795 -3.7169 -3.7541
  242MOL0     H32670   7.629   1.037   6.862 -0.6685 -1.4837  3.0577
  243MOL0     O32671  11.376   8.378   3.805 -0.8778 -0.0115 -0.1409
  243MOL0     C32672  11.338   8.319   3.907  0.0968  0.1063  0.9408
  243MOL0     O32673  11.378   8.352   4.031 -0.5771  0.0038 -0.1487
  243MOL0     C32674  11.444   8.469   4.051  0.1005  0.0665  0.9211
  243MOL0     C32675  11.584   8.476   4.076  0.6174 -0.9783  1.1987
  243MOL0     C32676  11.640   8.613   4.059 -0.3142 -0.1524 -0.9340
  243MOL0     C32677  11.565   8.726   4.047  0.9079  0.9138  0.9860
  243MOL0     O32678  11.621   8.847   4.053  0.2228 -0.4126 -0.6055
  243MOL0     C32679  11.553   8.960   4.019  0.3230  0.7890  0.2051
  243MOL0     C32680  11.657   9.071   4.011 -1.3185 -0.0307  0.0157
  243MOL0     C32681  11.740   9.092   4.141 -0.1299 -0.3356 -0.0587
  243MOL0     C32682  11.650   9.148   4.258  0.0286  0.4694 -0.2330
  243MOL0     C32683  11.722   9.101   4.386 -0.6668  0.6174  0.3764
  243MOL0     C32684  11.615   9.086   4.495 -0.6533  0.2497  0.1609
  243MOL0     C32685  11.694   9.038   4.610  0.0799 -0.0714 -0.9513
  243MOL0     C32686  11.590   8.981   4.708 -0.3334 -0.2110 -0.4193
  243MOL0     N32687  11.653   8.893   4.805  0.0441  0.3251  0.3065
  243MOL0     C32688  11.674   8.925   4.934 -0.1534 -0.8965 -0.1763
  243MOL0     C32689  11.705   8.804   4.992 -0.7806  0.2924 -0.2534
  243MOL0     C32690  11.747   8.771   5.131  0.5861  0.7600 -0.0478
  243MOL0     C32691  11.903   8.761   5.139 -0.5150  0.0162 -0.2318
  243MOL0     C32692  11.947   8.714   5.281 -0.4366  0.0548 -0.4564
  243MOL0     C32693  12.081   8.644   5.276  0.7918 -0.1933 -0.5934
  243MOL0     O32694  12.072   8.527   5.192 -0.0195 -0.0511 -0.2917
  243MOL0     C32695  12.161   8.418   5.200  0.0687  0.4605 -0.8587
  243MOL0     C32696  12.179   8.342   5.081  0.5471 -0.2195 -0.4522
  243MOL0     C32697  12.282   8.245   5.079 -0.1558  0.0453 -0.5055
  243MOL0     C32698  12.357   8.221   5.189 -0.0450  0.2239 -0.3349
  243MOL0     C32699  12.458   8.111   5.192  0.8736  0.2217  0.0577
  243MOL0     O32700  12.508   8.071   5.308  0.6813 -0.2384 -0.3716
  243MOL0     C32701  12.610   7.985   5.329 -0.3084 -1.2157  1.4647
  243MOL0     C32702  12.599   7.868   5.417  0.2612 -0.9051 -0.1750
  243MOL0     C32703  12.705   7.779   5.437 -0.3015 -0.1265  0.6269
  243MOL0     C32704  12.823   7.791   5.368  0.2043 -0.1667 -0.2868
  243MOL0     O32705  12.933   7.700   5.385  0.9494  0.7847  0.1358
  243MOL0     C32706  12.911   7.603   5.483 -0.0845  0.1395  0.3144
  243MOL0     C32707  13.038   7.521   5.516  0.0067 -1.0334 -0.7698
  243MOL0     C32708  13.030   7.432   5.642  0.1797  0.7433 -0.3976
  243MOL0     C32709  13.149   7.336   5.651 -0.7293 -1.0659  0.3881
  243MOL0     C32710  13.135   7.212   5.564 -0.5601  0.8624  0.0993
  243MOL0     C32711  13.221   7.087   5.614 -0.1520  0.8343  0.4870
  243MOL0     C32712  13.161   6.969   5.534  0.1683 -0.5748 -0.7862
  243MOL0     C32713  13.241   6.833   5.541 -0.7098  0.0866 -0.3246
  243MOL0    Cl32714  13.418   6.867   5.494 -0.0368 -0.2463  0.3547
  243MOL0     C32715  12.843   7.918   5.300 -0.8878  0.6827 -0.1778
  243MOL0     C32716  12.740   8.014   5.284 -0.4734  0.8964  0.3585
  243MOL0     O32717  12.475   8.045   5.085  0.1715 -0.9092  0.3903
  243MOL0     C32718  12.332   8.291   5.305  0.1155 -0.2091 -1.0579
  243MOL0     C32719  12.240   8.389   5.311  0.3846  0.0151  0.5689
  243MOL0     N32720  11.698   8.705   4.892  1.0627 -0.0824 -0.3477
  243MOL0     N32721  11.677   8.759   4.778  0.4462 -1.0732 -0.0565
  243MOL0     C32722  11.422   8.709   4.031  0.0035  0.6351 -1.5502
  243MOL0     C32723  11.364   8.584   4.033  0.1866 -0.8293  0.0428
  243MOL0     C32724  11.251   8.206   3.897  0.0343  0.8407 -0.5955
  243MOL0     C32725  11.237   8.117   4.008 -0.0071 -0.2236 -1.1624
  243MOL0     C32726  11.140   8.014   4.012 -0.1389 -0.3308  0.5712
  243MOL0     C32727  11.063   7.984   3.892  0.5110  1.0388 -0.2319
  243MOL0     O32728  10.976   7.877   3.878 -0.0372 -0.1564 -0.1657
  243MOL0     C32729  10.993   7.772   3.980  0.2726  0.2647  0.5867
  243MOL0     C32730  10.909   7.646   3.967  0.2035  0.6433  0.1198
  243MOL0     C32731  10.934   7.579   3.835  0.5928  0.0386  0.3397
  243MOL0     C32732  11.079   7.518   3.815  0.1497  0.3031  0.9755
  243MOL0     C32733  11.086   7.435   3.692  0.0665 -1.3432 -0.6436
  243MOL0     C32734  11.098   7.371   3.586  0.8848 -0.7781  0.7076
  243MOL0     C32735  11.087   8.063   3.781  0.6410 -0.5139 -0.6573
  243MOL0     C32736  11.170   8.174   3.786 -0.5285 -0.4321  0.3926
  243MOL0     C32737  11.169   8.255   3.661  0.0028 -0.0833 -0.0437
  243MOL0     H32738  11.635   8.382   4.091  0.6503 -0.9730  1.1238
  243MOL0     H32739  11.747   8.628   4.064 -0.5406  1.0027  2.1485
  243MOL0     H32740  11.506   8.949   3.921 -2.2394  0.7648  1.3560
  243MOL0     H32741  11.476   8.981   4.094 -0.9878 -0.6239 -0.6928
  243MOL0     H32742  11.617   9.169   3.987  0.0560  0.1922 -1.5984
  243MOL0     H32743  11.726   9.063   3.926 -2.7677  0.1116 -1.2115
  243MOL0     H32744  11.824   9.161   4.127 -0.6617  0.1495 -0.8707
  243MOL0     H32745  11.785   8.996   4.168 -1.1511  0.0815  3.6266
  243MOL0     H32746  11.638   9.256   4.248  0.2904  0.7575  2.0296
  243MOL0     H32747  11.554   9.095   4.259  0.2503 -0.0844 -2.5167
  243MOL0     H32748  11.764   9.001   4.380 -1.2620  0.3400  0.7669
  243MOL0     H32749  11.799   9.176   4.406 -1.9160  1.5694  1.8848
  243MOL0     H32750  11.562   9.178   4.521 -0.6307  0.1628  0.5230
  243MOL0     H32751  11.541   9.012   4.463 -1.3811  1.4333 -0.9518
  243MOL0     H32752  11.746   9.119   4.663 -2.0114 -0.5060  2.0200
  243MOL0     H32753  11.765   8.960   4.581 -0.7786 -2.4464  2.5725
  243MOL0     H32754  11.527   9.055   4.757  0.0743 -1.1920  1.7463
  243MOL0     H32755  11.520   8.920   4.651 -2.8371  2.6823 -0.6857
  243MOL0     H32756  11.682   9.024   4.977  1.1207 -0.8727 -0.4119
  243MOL0     H32757  11.715   8.844   5.206 -3.2165  0.2837 -1.0051
  243MOL0     H32758  11.687   8.682   5.149 -0.9142  1.8865  0.7054
  243MOL0     H32759  11.945   8.698   5.061  3.1503  0.1275  1.4405
  243MOL0     H32760  11.933   8.864   5.119  1.4748 -0.1778  1.4753
  243MOL0     H32761  11.886   8.632   5.320  1.6754 -1.6235 -0.5026
  243MOL0     H32762  11.955   8.802   5.347  2.2981 -0.5544  0.1489
  243MOL0     H32763  12.111   8.630   5.381 -0.5403 -0.3127 -0.2098
  243MOL0     H32764  12.159   8.716   5.248 -0.0083  1.1543  0.5008
  243MOL0     H32765  12.122   8.361   4.991 -1.4823 -0.9847  0.6018
  243MOL0     H32766  12.305   8.192   4.987  0.1658  1.6442 -1.3844
  243MOL0     H32767  12.508   7.840   5.469  1.7964 -2.7081  1.7088
  243MOL0     H32768  12.686   7.690   5.496 -0.5577 -0.8678 -0.5467
  243MOL0     H32769  12.881   7.658   5.572 -0.4110 -0.6403  0.7019
  243MOL0     H32770  12.836   7.528   5.456  0.0469 -0.5930  1.8822
  243MOL0     H32771  13.052   7.467   5.422 -2.9533  3.0267 -3.9221
  243MOL0     H32772  13.117   7.596   5.527  2.1983 -3.1915 -1.1019
  243MOL0     H32773  13.032   7.498   5.729 -3.6433  1.0354 -0.3386
  243MOL0     H32774  12.942   7.367   5.649 -0.7252  2.0503  0.8346
  243MOL0     H32775  13.175   7.300   5.751  2.5956 -0.6581 -0.2128
  243MOL0     H32776  13.234   7.392   5.610 -0.1381 -2.1552  0.0554
  243MOL0     H32777  13.150   7.240   5.459  1.2687 -0.7145 -0.1174
  243MOL0     H32778  13.030   7.181   5.566 -0.6415  1.1423  0.2638
  243MOL0     H32779  13.326   7.096   5.586 -0.2425  1.0198  0.1955
  243MOL0     H32780  13.216   7.073   5.722  0.7532 -0.8613  0.3390
  243MOL0     H32781  13.152   7.001   5.430 -2.5800  1.3326 -0.0816
  243MOL0     H32782  13.057   6.953   5.565  0.1779  0.0098 -0.4376
  243MOL0     H32783  13.227   6.774   5.632  0.6674  0.1494 -0.0479
  243MOL0     H32784  13.189   6.772   5.466 -1.0923  1.5777 -1.3100
  243MOL0     H32785  12.944   7.951   5.282 -0.3640  0.1557  1.5704
  243MOL0     H32786  12.767   8.109   5.239 -0.0013  1.6512  2.1544
  243MOL0     H32787  12.386   8.261   5.394  2.4337 -0.9670 -2.6497
  243MOL0     H32788  12.213   8.442   5.402 -3.0799 -1.3911  0.5106
  243MOL0     H32789  11.358   8.796   4.021  0.6274  1.4858  0.9550
  243MOL0     H32790  11.258   8.571   4.012  0.5856 -2.6636 -1.0351
  243MOL0     H32791  11.290   8.133   4.101 -4.2451  0.2543  1.4302
  243MOL0     H32792  11.127   7.957   4.104 -0.9765 -0.8801  0.1260
  243MOL0     H32793  10.973   7.815   4.079  0.3547  2.5538 -0.3223
  243MOL0     H32794  11.099   7.746   3.977  0.4448  1.0296 -1.5808
  243MOL0     H32795  10.809   7.690   3.968  1.4225  3.7107  0.9226
  243MOL0     H32796  10.925   7.583   4.055  1.4982  3.4544  2.0504
  243MOL0     H32797  10.929   7.658   3.760  0.9020 -0.0670  0.2034
  243MOL0     H32798  10.859   7.502   3.814  2.2328 -1.2209 -1.2929
  243MOL0     H32799  11.153   7.599   3.807 -0.5299  0.7502 -1.5406
  243MOL0     H32800  11.112   7.447   3.892  0.6650 -1.7508 -1.0485
  243MOL0     H32801  11.108   7.330   3.487 -3.7220  2.5252 -1.5083
  243MOL0     H32802  11.030   8.048   3.690 -1.1430  1.9059 -0.0353
  243MOL0     H32803  11.139   8.354   3.697 -3.1512 -1.9630  3.2333
  243MOL0     H32804  11.264   8.255   3.607 -0.5416 -0.1613 -1.0263
  243MOL0     H32805  11.085   8.234   3.594 -0.6904  0.5535  0.6065
  244MOL0     O32806  10.418   9.571   5.260  0.3941  0.1380 -0.1477
  244MOL0     C32807  10.391   9.675   5.205  0.2231 -0.1859  0.7757
  244MOL0     O32808  10.296   9.693   5.110 -0.0231  0.0224 -0.7964
  244MOL0     C32809  10.215   9.589   5.084 -0.9866 -0.1245 -0.1031
  244MOL0     C32810  10.155   9.520   5.190 -0.1705 -0.0355 -0.3042
  244MOL0     C32811  10.066   9.416   5.167  0.0018  0.7678  1.3000
  244MOL0     C32812  10.033   9.373   5.037  0.5574 -0.3585  0.0916
  244MOL0     O32813   9.935   9.270   5.020 -0.8743  0.4335 -0.7959
  244MOL0     C32814   9.892   9.218   4.887 -0.3117  0.4187 -0.9292
  244MOL0     C32815   9.784   9.119   4.916  0.0625  0.2016  0.2742
  244MOL0     C32816   9.716   9.083   4.785 -0.1078 -0.4219 -0.4238
  244MOL0     C32817   9.582   9.007   4.801 -0.2837 -0.5619 -0.6664
  244MOL0     C32818   9.548   8.929   4.674  0.0675 -0.2261  0.4796
  244MOL0     C32819   9.402   8.900   4.658  0.5161  0.3038  0.0143
  244MOL0     C32820   9.355   8.779   4.734 -0.6014 -0.5869 -0.6823
  244MOL0     C32821   9.207   8.749   4.716  0.5965  0.4726  0.8166
  244MOL0     N32822   9.130   8.863   4.772 -0.2243  0.0570 -0.2808
  244MOL0     C32823   9.101   8.897   4.901  0.3538 -0.2919 -0.1099
  244MOL0     C32824   9.023   9.004   4.912 -0.3966 -0.1685  0.1677
  244MOL0     C32825   8.987   9.082   5.031  0.0614 -0.7957 -1.5582
  244MOL0     C32826   9.096   9.172   5.099  0.8702  0.4176 -0.3206
  244MOL0     C32827   9.230   9.105   5.131 -0.5437 -0.6351 -0.1134
  244MOL0     C32828   9.234   8.997   5.237  0.7022  0.3901  1.1406
  244MOL0     O32829   9.365   8.945   5.245 -0.0417 -0.3503 -0.0823
  244MOL0     C32830   9.463   9.028   5.298  1.3062  0.1577  1.4971
  244MOL0     C32831   9.551   9.097   5.208  0.2584  0.0437  0.5217
  244MOL0     C32832   9.640   9.186   5.266 -0.0579 -0.5065  0.0671
  244MOL0     C32833   9.643   9.212   5.404 -0.0717  0.8417 -0.6218
  244MOL0     C32834   9.737   9.308   5.466 -1.1787  0.1914 -0.4446
  244MOL0     O32835   9.795   9.402   5.382  0.0907 -0.3447  0.1280
  244MOL0     C32836   9.859   9.507   5.445 -0.0748 -0.4319  0.7930
  244MOL0     C32837   9.956   9.487   5.541 -0.2802 -1.0142 -1.1953
  244MOL0     C32838  10.031   9.604   5.592  0.1500  0.9205  0.5217
  244MOL0     C32839  10.006   9.728   5.541  0.4698  0.5285 -0.4563
  244MOL0     O32840  10.094   9.819   5.600 -0.2508  0.3803 -0.3176
  244MOL0     C32841  10.123   9.932   5.524  0.4974  0.0225  0.4542
  244MOL0     C32842  10.030  10.058   5.553  0.0794  0.2086 -0.4376
  244MOL0     C32843  10.098  10.186   5.490  0.1260 -0.1808  0.2456
  244MOL0     C32844  10.227  10.245   5.555  0.0483  0.1244  0.0419
  244MOL0     C32845  10.268  10.372   5.484 -0.5545 -0.1542 -0.1101
  244MOL0     C32846  10.413  10.408   5.528  1.3311 -0.0364  0.6573
  244MOL0     C32847  10.460  10.551   5.467 -0.0022 -0.1944 -0.3598
  244MOL0     C32848  10.594  10.547   5.403 -1.2461 -0.2539  0.1563
  244MOL0    Cl32849  10.608  10.461   5.253  0.3671 -0.2197 -0.0511
  244MOL0     C32850   9.898   9.741   5.450  0.6450 -0.6785  0.7392
  244MOL0     C32851   9.834   9.635   5.390 -0.1449 -0.8226 -0.1458
  244MOL0     O32852   9.745   9.317   5.590 -0.2469 -0.4924 -0.6360
  244MOL0     C32853   9.573   9.122   5.495  0.5173 -0.0441  0.7636
  244MOL0     C32854   9.475   9.040   5.435  0.2984  0.7283 -0.8166
  244MOL0     N32855   8.997   9.039   4.780 -0.0961 -0.1660 -0.0633
  244MOL0     N32856   9.068   8.962   4.699 -0.4635  0.2893  0.6172
  244MOL0     C32857  10.108   9.435   4.931 -0.5269 -0.1449 -0.4810
  244MOL0     C32858  10.199   9.538   4.955 -0.2432 -0.5132 -0.8594
  244MOL0     C32859  10.468   9.797   5.244  0.0884  0.3283 -0.3279
  244MOL0     C32860  10.578   9.783   5.328  0.8799 -0.6255 -0.8648
  244MOL0     C32861  10.634   9.891   5.394 -0.5453  0.6892 -0.3585
  244MOL0     C32862  10.591  10.022   5.383  0.1178  0.7472  0.1560
  244MOL0     O32863  10.640  10.126   5.452 -0.0123  0.1428 -0.6253
  244MOL0     C32864  10.681  10.104   5.586  0.4120 -0.7679 -0.5118
  244MOL0     C32865  10.563  10.078   5.671 -0.4747 -0.8891 -0.9735
  244MOL0     C32866  10.595  10.055   5.820 -0.4144 -0.1588 -0.0420
  244MOL0     C32867  10.479   9.999   5.900  0.8162  0.2591  0.4453
  244MOL0     C32868  10.370  10.099   5.900  0.1990  0.3739  0.0358
  244MOL0     C32869  10.296  10.189   5.927  0.2633  0.0785 -0.4573
  244MOL0     C32870  10.472  10.029   5.308 -0.7858  0.5357 -0.1073
  244MOL0     C32871  10.409   9.923   5.240  1.0945  0.1723 -0.3846
  244MOL0     C32872  10.278   9.964   5.165  0.2984 -0.0064  0.2731
  244MOL0     H32873  10.163   9.552   5.293  3.7217  3.5273 -1.4228
  244MOL0     H32874  10.004   9.372   5.244 -1.5504 -1.1806 -0.9100
  244MOL0     H32875   9.847   9.298   4.828 -3.8700 -1.3798 -0.8843
  244MOL0     H32876   9.972   9.160   4.839 -1.4402 -1.4228 -0.6669
  244MOL0     H32877   9.708   9.159   4.985 -0.5371  1.8545 -1.2393
  244MOL0     H32878   9.827   9.025   4.949 -1.3456 -1.1446 -1.4996
  244MOL0     H32879   9.786   9.019   4.732  0.6397  0.1323 -0.1288
  244MOL0     H32880   9.707   9.171   4.720 -1.8162 -1.7626 -2.1302
  244MOL0     H32881   9.600   8.942   4.887 -0.2632 -0.5065 -0.6295
  244MOL0     H32882   9.496   9.072   4.819 -1.2712 -1.5415 -1.6654
  244MOL0     H32883   9.570   9.003   4.597 -0.9320  3.0684  3.1200
  244MOL0     H32884   9.614   8.841   4.672 -1.2261 -1.3192  2.6060
  244MOL0     H32885   9.355   8.993   4.692 -1.6247 -0.1555 -1.4931
  244MOL0     H32886   9.392   8.878   4.551  1.8168  1.6594 -0.4176
  244MOL0     H32887   9.374   8.805   4.839  0.1084  0.5382 -1.0699
  244MOL0     H32888   9.412   8.693   4.697 -1.5692 -0.8106 -1.7113
  244MOL0     H32889   9.196   8.747   4.608  0.6737  1.6243  0.7750
  244MOL0     H32890   9.157   8.662   4.761 -2.5915  2.3742  1.2475
  244MOL0     H32891   9.146   8.831   4.975  0.8639 -2.4021 -2.2044
  244MOL0     H32892   8.900   9.147   5.013  1.9787  1.7400 -2.3091
  244MOL0     H32893   8.965   9.014   5.113  0.8465  3.1524  2.2759
  244MOL0     H32894   9.124   9.249   5.027 -3.6302  1.4262 -1.3148
  244MOL0     H32895   9.046   9.204   5.191 -0.2429 -1.5947 -0.1782
  244MOL0     H32896   9.292   9.189   5.163 -2.1440  1.2557 -1.7155
  244MOL0     H32897   9.271   9.069   5.036  2.3845 -0.1210  0.8720
  244MOL0     H32898   9.164   8.920   5.203  2.8556 -2.1470  1.9868
  244MOL0     H32899   9.198   9.031   5.335  0.9470 -0.0725  1.3985
  244MOL0     H32900   9.530   9.097   5.101  0.5160 -0.4321  0.4704
  244MOL0     H32901   9.701   9.245   5.198  0.6546  1.7989  2.5444
  244MOL0     H32902   9.973   9.381   5.560 -0.3759 -1.0326 -1.2127
  244MOL0     H32903  10.117   9.578   5.652  1.5017 -0.5496 -1.9195
  244MOL0     H32904  10.226   9.954   5.552  0.0651  3.4731 -0.3249
  244MOL0     H32905  10.106   9.903   5.420  0.3217  0.6071  0.3172
  244MOL0     H32906   9.934  10.032   5.508 -1.3556  0.1491  2.4244
  244MOL0     H32907  10.019  10.068   5.661  0.3989 -3.4185  0.0587
  244MOL0     H32908  10.111  10.174   5.382 -0.0964  0.7392  0.1123
  244MOL0     H32909  10.023  10.265   5.488 -2.2322 -2.1899  2.5908
  244MOL0     H32910  10.303  10.168   5.538 -0.9815 -0.7571 -0.7383
  244MOL0     H32911  10.214  10.258   5.662  0.8616 -1.6608  0.4116
  244MOL0     H32912  10.204  10.454   5.515  1.4467  1.1469  0.7940
  244MOL0     H32913  10.248  10.364   5.377 -1.0369 -0.7902  0.0196
  244MOL0     H32914  10.409  10.406   5.637 -1.1362  2.0565  0.7116
  244MOL0     H32915  10.482  10.327   5.503  1.7752  0.0337  1.6198
  244MOL0     H32916  10.455  10.630   5.543 -3.8837 -1.8027  1.3657
  244MOL0     H32917  10.389  10.590   5.394 -0.3447 -1.9091 -0.9866
  244MOL0     H32918  10.626  10.651   5.389 -1.2000 -0.4067 -0.9442
  244MOL0     H32919  10.654  10.499   5.481 -0.7449  0.8236  0.4546
  244MOL0     H32920   9.868   9.837   5.409  1.1875 -0.1702  1.4947
  244MOL0     H32921   9.760   9.642   5.311 -1.8124  0.7008  1.4754
  244MOL0     H32922   9.578   9.127   5.603  0.1243  0.6400  0.7638
  244MOL0     H32923   9.417   8.968   5.492  1.1981  0.8271  0.2695
  244MOL0     H32924  10.087   9.410   4.827  2.6142  0.3843 -1.3542
  244MOL0     H32925  10.252   9.584   4.872  0.6793  2.1323  1.0636
  244MOL0     H32926  10.629   9.687   5.327  1.9108 -0.0810 -1.3468
  244MOL0     H32927  10.732   9.882   5.441 -0.8481 -1.2112 -0.0071
  244MOL0     H32928  10.738  10.189   5.626  2.3027 -1.8409 -0.8199
  244MOL0     H32929  10.748  10.020   5.605 -1.5905 -1.8610  2.6660
  244MOL0     H32930  10.501   9.999   5.626 -0.8049 -2.0021  1.2774
  244MOL0     H32931  10.491  10.160   5.674  2.6035  1.9860  0.5744
  244MOL0     H32932  10.633  10.146   5.866 -0.6561  1.8287 -3.4442
  244MOL0     H32933  10.670   9.974   5.822 -0.0763  0.1607  0.3312
  244MOL0     H32934  10.443   9.916   5.839  2.0112  0.9421 -1.2963
  244MOL0     H32935  10.511   9.971   6.001  3.4405 -0.5739 -0.5268
  244MOL0     H32936  10.220  10.262   5.950  1.8952  0.7101  3.9039
  244MOL0     H32937  10.451  10.135   5.307 -1.6241  0.3892  0.5826
  244MOL0     H32938  10.290   9.945   5.058 -3.2249  2.0508 -0.6408
  244MOL0     H32939  10.185   9.916   5.199 -0.1481  0.5548 -0.1492
  244MOL0     H32940  10.255  10.069   5.184 -1.3373 -0.2125 -0.3903
  245MOL0     O32941   2.256  10.157   3.644 -0.7470  0.0862 -0.3911
  245MOL0     C32942   2.182  10.211   3.563 -0.6719  0.1067  1.3589
  245MOL0     O32943   2.068  10.155   3.522  0.0896  0.3586  0.1801
  245MOL0     C32944   2.041  10.022   3.566 -1.1574 -0.3965  0.6312
  245MOL0     C32945   2.098   9.915   3.493 -0.3223  0.5504 -0.1508
  245MOL0     C32946   2.063   9.785   3.541  0.4468  0.2758  0.4915
  245MOL0     C32947   1.985   9.762   3.654 -0.0499  0.4924  0.7517
  245MOL0     O32948   1.952   9.632   3.686 -0.4069  0.3815 -0.8759
  245MOL0     C32949   1.828   9.610   3.768 -0.4646  0.8292  0.3846
  245MOL0     C32950   1.775   9.467   3.769  0.4131 -0.4132 -0.5505
  245MOL0     C32951   1.656   9.459   3.669  0.1170  0.4312 -0.7284
  245MOL0     C32952   1.611   9.310   3.641 -0.5934  0.0362 -0.1255
  245MOL0     C32953   1.462   9.302   3.621  0.0645 -0.3452 -0.2746
  245MOL0     C32954   1.410   9.160   3.611 -0.5638 -0.3615 -0.3720
  245MOL0     C32955   1.257   9.158   3.631 -0.7136  0.1340  0.4747
  245MOL0     C32956   1.219   9.013   3.644 -0.7584  0.5595  0.8561
  245MOL0     N32957   1.071   9.007   3.638 -0.8029 -0.3296 -0.1570
  245MOL0     C32958   1.001   8.993   3.526  0.1207 -1.0806 -0.9739
  245MOL0     C32959   0.876   8.995   3.569  0.7180  0.2697  0.6715
  245MOL0     C32960   0.764   8.952   3.480  0.1260  0.5979 -0.6031
  245MOL0     C32961   0.655   9.053   3.456 -0.1212 -0.0054  0.0751
  245MOL0     C32962   0.543   8.986   3.371  0.7704 -0.1203  0.8270
  245MOL0     C32963   0.420   9.067   3.321  0.5851  0.4919  0.6651
  245MOL0     O32964   0.313   8.991   3.245 -0.0222 -0.5408 -0.2276
  245MOL0     C32965   0.204   9.057   3.199 -0.0093 -0.0474  0.0695
  245MOL0     C32966   0.193   9.199   3.222 -0.7080  0.5683 -0.0115
  245MOL0     C32967   0.076   9.258   3.173 -0.9467  0.3664  0.5599
  245MOL0     C32968  -0.031   9.189   3.120  0.3982 -0.2715 -1.0653
  245MOL0     C32969  -0.144   9.261   3.067 -0.6949 -1.3702  0.2264
  245MOL0     O32970  -0.258   9.185   3.043 -0.2584  0.1989  0.7607
  245MOL0     C32971  -0.364   9.229   2.960  0.1767  0.2688 -1.0176
  245MOL0     C32972  -0.434   9.345   2.970 -0.5519 -0.9035 -0.8300
  245MOL0     C32973  -0.538   9.376   2.877 -0.2246  0.7158 -0.0077
  245MOL0     C32974  -0.575   9.283   2.776  0.1310  0.1153  0.6984
  245MOL0     O32975  -0.672   9.318   2.688  0.2311 -0.2075 -0.0105
  245MOL0     C32976  -0.744   9.226   2.600  0.2471  0.5351 -0.0367
  245MOL0     C32977  -0.673   9.201   2.468 -0.4095 -0.2694 -0.5026
  245MOL0     C32978  -0.769   9.215   2.346 -0.3188  0.7087  0.4676
  245MOL0     C32979  -0.880   9.107   2.322  0.1246  0.0122  0.5665
  245MOL0     C32980  -0.952   9.144   2.183  1.0203  0.4343  1.1439
  245MOL0     C32981  -1.058   9.032   2.150  0.4659  0.3608 -0.9140
  245MOL0     C32982  -1.070   8.982   2.005  1.1876 -0.1722 -0.2264
  245MOL0     C32983  -1.180   9.052   1.928 -0.5112  0.0595 -0.3695
  245MOL0    Cl32984  -1.200   8.969   1.770  0.3049  0.3412 -0.1096
  245MOL0     C32985  -0.506   9.158   2.781 -0.0814  0.1477 -0.9269
  245MOL0     C32986  -0.399   9.132   2.864 -0.1278  0.5576 -1.4853
  245MOL0     O32987  -0.134   9.386   3.047 -0.6262  0.1471  0.0024
  245MOL0     C32988  -0.024   9.048   3.104  0.2963  0.4724 -0.4028
  245MOL0     C32989   0.093   8.982   3.141 -0.9169 -0.3437  0.5827
  245MOL0     N32990   0.876   9.035   3.705 -0.4443 -0.5555  0.3927
  245MOL0     N32991   1.004   9.044   3.745  0.7275 -0.1429 -0.2492
  245MOL0     C32992   1.938   9.871   3.715  0.8392 -0.5017 -1.0573
  245MOL0     C32993   1.965   9.997   3.682  1.1270 -0.6287 -0.4202
  245MOL0     C32994   2.233  10.336   3.508 -0.5624 -0.7148  0.1612
  245MOL0     C32995   2.318  10.412   3.587 -0.9615 -0.6688  0.5298
  245MOL0     C32996   2.366  10.533   3.527 -1.4262 -0.1533 -1.1849
  245MOL0     C32997   2.340  10.580   3.394  1.1570  0.0705 -0.8962
  245MOL0     O32998   2.383  10.699   3.337  0.1097 -0.4328  0.0598
  245MOL0     C32999   2.487  10.779   3.393 -0.5292 -0.2644 -0.1021
  245MOL0     C33000   2.537  10.885   3.293  0.1005  0.5527 -0.1264
  245MOL0     C33001   2.680  10.847   3.239 -0.4291 -0.1661 -0.0079
  245MOL0     C33002   2.739  10.941   3.127  0.6183 -0.8185 -0.4601
  245MOL0     C33003   2.655  10.947   3.009  0.5179 -0.3252  0.8942
  245MOL0     C33004   2.586  10.931   2.913  0.8822 -0.8792  0.0767
  245MOL0     C33005   2.256  10.489   3.321 -1.1448  0.7136  0.6034
  245MOL0     C33006   2.197  10.376   3.374 -0.2534  0.2813 -0.1777
  245MOL0     C33007   2.088  10.305   3.294  0.1259  0.1565  0.2845
  245MOL0     H33008   2.169   9.931   3.413 -0.3400 -2.5210 -0.8956
  245MOL0     H33009   2.098   9.699   3.485 -2.2593 -0.6145  0.0357
  245MOL0     H33010   1.859   9.637   3.870 -1.3487  0.6246  0.7174
  245MOL0     H33011   1.743   9.671   3.738  0.4450  2.6672  1.3233
  245MOL0     H33012   1.731   9.452   3.868 -0.9075  1.2235 -0.8374
  245MOL0     H33013   1.848   9.389   3.744  0.4024 -0.4099 -0.5938
  245MOL0     H33014   1.681   9.501   3.571  0.0282  0.1714 -0.8618
  245MOL0     H33015   1.577   9.523   3.710  4.9106  4.3206  3.8625
  245MOL0     H33016   1.662   9.281   3.548  0.7344 -3.5683  1.5206
  245MOL0     H33017   1.651   9.235   3.710 -2.1954 -1.3501 -0.6439
  245MOL0     H33018   1.412   9.353   3.704 -0.6005 -0.1542 -0.7848
  245MOL0     H33019   1.426   9.366   3.540  0.5907  0.8128  0.3914
  245MOL0     H33020   1.444   9.120   3.515 -1.3677  1.8724 -1.6453
  245MOL0     H33021   1.458   9.083   3.673  3.7369 -1.2032 -4.2074
  245MOL0     H33022   1.202   9.210   3.552  2.0272 -1.1369 -2.5103
  245MOL0     H33023   1.242   9.222   3.719 -0.3560  0.9235 -0.0235
  245MOL0     H33024   1.255   8.948   3.564 -0.9494  1.6519 -0.1328
  245MOL0     H33025   1.255   8.973   3.739  0.5805 -2.0925 -0.6473
  245MOL0     H33026   1.032   8.965   3.426  1.7509  0.1067 -0.8399
  245MOL0     H33027   0.802   8.923   3.381 -2.4944 -4.7333 -0.3861
  245MOL0     H33028   0.741   8.856   3.527  0.4653  1.5806  1.6641
  245MOL0     H33029   0.601   9.079   3.548  0.9672 -2.8330  1.6473
  245MOL0     H33030   0.698   9.145   3.417  1.3526  0.0750  1.7723
  245MOL0     H33031   0.506   8.901   3.429  0.3627  1.3744  2.8629
  245MOL0     H33032   0.585   8.953   3.275  0.4112 -1.8525  1.2420
  245MOL0     H33033   0.465   9.147   3.260 -2.2256  1.4177 -0.3840
  245MOL0     H33034   0.377   9.106   3.413 -0.2534 -3.9643  2.4112
  245MOL0     H33035   0.267   9.263   3.268 -1.6554  1.9367 -0.3246
  245MOL0     H33036   0.059   9.365   3.179  4.8255  1.8221 -1.7320
  245MOL0     H33037  -0.404   9.409   3.052 -1.1640  0.3917 -1.5757
  245MOL0     H33038  -0.594   9.464   2.909  0.0849 -0.5221  4.7367
  245MOL0     H33039  -0.765   9.133   2.654 -1.0056  0.8103 -0.0206
  245MOL0     H33040  -0.839   9.274   2.574 -1.1076 -2.0036 -0.1241
  245MOL0     H33041  -0.599   9.280   2.459 -1.8661  1.0068 -1.9574
  245MOL0     H33042  -0.621   9.106   2.481 -0.2709 -0.1703 -0.3214
  245MOL0     H33043  -0.818   9.313   2.358 -2.5659  0.0023 -2.1614
  245MOL0     H33044  -0.708   9.212   2.255 -0.2720  2.1157  0.4279
  245MOL0     H33045  -0.958   9.105   2.399 -0.9621  1.4596 -0.4445
  245MOL0     H33046  -0.833   9.008   2.322  2.5715  1.0901 -1.2626
  245MOL0     H33047  -0.875   9.169   2.110  0.7354  1.5581  1.2131
  245MOL0     H33048  -1.009   9.236   2.196 -2.5873 -1.2952 -0.7430
  245MOL0     H33049  -1.041   8.948   2.218  1.0738  0.9877 -0.2878
  245MOL0     H33050  -1.162   9.052   2.179 -1.3433 -4.1785 -3.1789
  245MOL0     H33051  -1.115   8.883   2.011  0.0228  0.4354  1.9962
  245MOL0     H33052  -0.978   8.980   1.946  1.8986  0.8442  0.8138
  245MOL0     H33053  -1.273   9.044   1.986 -0.8211  1.6849 -0.5738
  245MOL0     H33054  -1.152   9.155   1.904 -1.7618  1.0750  2.1547
  245MOL0     H33055  -0.518   9.082   2.704  1.2115 -1.8233  0.7082
  245MOL0     H33056  -0.351   9.035   2.871 -1.3230  0.0582  2.7816
  245MOL0     H33057  -0.101   8.993   3.051  0.2995 -0.6067  0.6988
  245MOL0     H33058   0.112   8.875   3.136 -0.7366 -0.2576 -1.5076
  245MOL0     H33059   1.888   9.869   3.811  1.1079 -0.9982 -0.9244
  245MOL0     H33060   1.926  10.081   3.737  0.4811 -0.4216 -1.1813
  245MOL0     H33061   2.342  10.375   3.687 -0.6656  1.1535  1.1639
  245MOL0     H33062   2.432  10.587   3.595 -2.3680 -2.7830  2.0819
  245MOL0     H33063   2.577  10.726   3.427  1.5721  2.9590 -0.2327
  245MOL0     H33064   2.442  10.845   3.468 -0.4776  0.7331 -0.9416
  245MOL0     H33065   2.543  10.975   3.354 -2.1836  1.2607 -0.8507
  245MOL0     H33066   2.458  10.912   3.223  0.8380  1.4798 -0.6245
  245MOL0     H33067   2.675  10.741   3.213 -2.0504  0.0925 -0.9028
  245MOL0     H33068   2.745  10.859   3.327 -0.3179  1.1712 -0.2540
  245MOL0     H33069   2.752  11.043   3.166 -2.1203 -0.5442 -0.0602
  245MOL0     H33070   2.843  10.921   3.101  0.9017 -0.1443  0.1132
  245MOL0     H33071   2.536  10.925   2.818 -1.3604  0.4383  1.0940
  245MOL0     H33072   2.231  10.527   3.222 -0.3193  3.3985  1.3460
  245MOL0     H33073   1.986  10.337   3.319  0.4042  0.2855  1.3048
  245MOL0     H33074   2.099  10.334   3.189 -6.1698  1.3316 -0.4824
  245MOL0     H33075   2.089  10.196   3.284 -2.7889  0.1681 -1.3658
  246MOL0     O33076   1.677   0.875  10.964  0.0777 -0.5726  0.1255
  246MOL0     C33077   1.662   0.886  10.842 -0.3777  0.3286 -1.0603
  246MOL0     O33078   1.763   0.873  10.757 -0.4831 -0.6174 -0.4976
  246MOL0     C33079   1.894   0.855  10.802 -0.2395  0.1940 -0.5143
  246MOL0     C33080   1.992   0.955  10.795 -0.2309 -0.6640 -0.2539
  246MOL0     C33081   2.126   0.931  10.821  0.1735  0.3285  0.0548
  246MOL0     C33082   2.168   0.799  10.858 -0.4139 -0.1758 -0.5681
  246MOL0     O33083   2.294   0.764  10.886 -0.6077 -0.9287 -0.4631
  246MOL0     C33084   2.405   0.853  10.896  0.0246  0.5880 -0.1224
  246MOL0     C33085   2.464   0.899  10.762  0.4082 -0.0747 -0.2403
  246MOL0     C33086   2.475   0.794  10.642 -1.3654 -0.6416 -0.8250
  246MOL0     C33087   2.574   0.680  10.668  0.8708  0.2132 -0.0624
  246MOL0     C33088   2.589   0.577  10.561 -0.3414  0.9987 -0.1550
  246MOL0     C33089   2.680   0.455  10.601  0.0368 -1.1180 -0.6048
  246MOL0     C33090   2.831   0.508  10.610 -0.3686  0.0109  0.9025
  246MOL0     C33091   2.924   0.397  10.655  0.9626  0.1233  0.0917
  246MOL0     N33092   2.917   0.367  10.799 -0.2669  0.0960  0.1672
  246MOL0     C33093   2.882   0.449  10.901 -0.1817  0.6231 -0.6429
  246MOL0     C33094   2.882   0.359  11.004  0.2774 -0.0467 -0.3039
  246MOL0     C33095   2.823   0.390  11.143 -0.1140 -0.8488 -0.4135
  246MOL0     C33096   2.672   0.381  11.158  0.4011  0.0031 -0.1270
  246MOL0     C33097   2.606   0.492  11.075 -0.4816  0.1583  0.4793
  246MOL0     C33098   2.452   0.503  11.115  0.4501  0.2853 -0.6042
  246MOL0     O33099   2.383   0.391  11.069 -0.0127  0.1067  0.3560
  246MOL0     C33100   2.245   0.390  11.088 -0.9139  0.1049 -0.7139
  246MOL0     C33101   2.176   0.502  11.135 -0.2546  0.1508  0.3108
  246MOL0     C33102   2.039   0.491  11.155 -1.0659 -1.3113 -0.7708
  246MOL0     C33103   1.967   0.377  11.124  0.3884  0.0289 -0.0281
  246MOL0     C33104   1.821   0.365  11.131 -0.4199  0.0348  0.5240
  246MOL0     O33105   1.762   0.459  11.195 -0.2513 -0.5952 -0.0035
  246MOL0     C33106   1.625   0.459  11.220  0.5179 -0.3293  1.1311
  246MOL0     C33107   1.550   0.348  11.250  0.6102  0.2599  0.3672
  246MOL0     C33108   1.413   0.352  11.268 -0.3091  0.0416 -0.2046
  246MOL0     C33109   1.345   0.475  11.240  0.3012 -0.2126 -0.2985
  246MOL0     O33110   1.211   0.513  11.253 -0.2469 -0.0512 -0.0822
  246MOL0     C33111   1.140   0.404  11.307  0.3795 -0.0290  1.1618
  246MOL0     C33112   0.995   0.444  11.277 -0.2608  0.2205  0.0922
  246MOL0     C33113   0.903   0.323  11.309 -0.6599  0.5008  1.3130
  246MOL0     C33114   0.781   0.334  11.222  0.9204 -0.3816 -0.5837
  246MOL0     C33115   0.687   0.212  11.244  0.3426 -0.3842 -0.3697
  246MOL0     C33116   0.538   0.244  11.220 -0.9173  0.1481  0.8545
  246MOL0     C33117   0.465   0.118  11.189 -0.3256 -0.3780 -0.0904
  246MOL0     C33118   0.312   0.128  11.217 -0.1219 -0.3821  1.0048
  246MOL0    Cl33119   0.246  -0.027  11.149 -0.2087 -0.0963 -0.1747
  246MOL0     C33120   1.418   0.592  11.223 -0.4069  1.1359  0.2250
  246MOL0     C33121   1.555   0.580  11.197  0.9252  0.1421 -0.0625
  246MOL0     O33122   1.764   0.263  11.085 -0.3135  0.6816  0.0132
  246MOL0     C33123   2.041   0.264  11.073 -0.0507 -0.4588 -0.3989
  246MOL0     C33124   2.179   0.272  11.060 -0.2116  0.3602 -0.2226
  246MOL0     N33125   2.923   0.235  10.968 -0.1676 -0.2144 -0.1543
  246MOL0     N33126   2.948   0.243  10.846  0.2239  0.3377 -0.5305
  246MOL0     C33127   2.078   0.696  10.852  0.6372 -1.0208 -0.5150
  246MOL0     C33128   1.938   0.726  10.830  1.0527 -0.2428 -0.5138
  246MOL0     C33129   1.520   0.883  10.788  0.2673 -0.1298 -0.1788
  246MOL0     C33130   1.512   0.890  10.653  0.7754 -0.1243  0.0325
  246MOL0     C33131   1.392   0.877  10.584 -0.8844 -0.0682 -0.7896
  246MOL0     C33132   1.266   0.853  10.643 -0.6750 -0.1055  0.3865
  246MOL0     O33133   1.154   0.826  10.561 -0.3924 -0.0077  0.2395
  246MOL0     C33134   1.025   0.850  10.612 -0.1886  1.0341 -0.1546
  246MOL0     C33135   0.925   0.800  10.512 -0.3475  0.4401 -0.4914
  246MOL0     C33136   0.909   0.889  10.388 -0.6957 -0.9112 -0.1623
  246MOL0     C33137   0.846   1.026  10.407 -0.5571 -0.3358  0.5069
  246MOL0     C33138   0.700   1.037  10.442 -0.6223 -0.0147  0.4915
  246MOL0     C33139   0.583   1.044  10.471  0.1241  1.0815  0.1516
  246MOL0     C33140   1.271   0.860  10.784  0.6120 -0.6347 -0.1938
  246MOL0     C33141   1.394   0.882  10.856  0.6387  0.0697 -0.3778
  246MOL0     C33142   1.386   0.895  11.003 -1.0809  0.9317  0.4407
  246MOL0     H33143   1.951   1.047  10.756 -3.2054 -2.1400 -0.9601
  246MOL0     H33144   2.190   1.018  10.808  0.0347  0.0869 -2.7160
  246MOL0     H33145   2.386   0.941  10.958 -3.5394 -1.8146  2.5361
  246MOL0     H33146   2.485   0.798  10.946 -2.8247 -2.1372  1.7787
  246MOL0     H33147   2.559   0.951  10.779 -1.2342  3.0960  0.1278
  246MOL0     H33148   2.405   0.987  10.733  1.8928  1.6148  1.5556
  246MOL0     H33149   2.502   0.855  10.555  0.3380  1.5271  1.0743
  246MOL0     H33150   2.382   0.740  10.624 -0.5649 -1.3887 -2.9784
  246MOL0     H33151   2.676   0.717  10.686  0.4813  0.2774  2.3623
  246MOL0     H33152   2.545   0.634  10.763  1.9210  2.8310  1.6667
  246MOL0     H33153   2.492   0.540  10.527  0.6044 -2.1590  0.2539
  246MOL0     H33154   2.635   0.626  10.474 -1.1684 -0.7570 -1.6627
  246MOL0     H33155   2.651   0.407  10.694 -2.1454  4.5263  2.0843
  246MOL0     H33156   2.665   0.376  10.527  1.2209 -3.2150  1.2957
  246MOL0     H33157   2.856   0.596  10.671  2.5083 -1.4351  1.9993
  246MOL0     H33158   2.871   0.541  10.513 -3.2737  2.8269  0.5059
  246MOL0     H33159   2.902   0.305  10.600 -1.7824  0.6665  0.1213
  246MOL0     H33160   3.022   0.425  10.614  0.1005 -0.4809 -2.5754
  246MOL0     H33161   2.858   0.555  10.904 -1.9490  0.2440  0.1788
  246MOL0     H33162   2.855   0.313  11.214 -2.8213 -2.0322 -0.3329
  246MOL0     H33163   2.852   0.487  11.183 -1.9960  0.7962 -2.7094
  246MOL0     H33164   2.634   0.283  11.126 -3.4936  1.5961 -0.9017
  246MOL0     H33165   2.653   0.391  11.265  0.8946 -0.9583  0.0678
  246MOL0     H33166   2.625   0.482  10.968  2.0056  3.0003  0.5151
  246MOL0     H33167   2.640   0.593  11.102 -2.6479  1.1863 -0.3835
  246MOL0     H33168   2.413   0.597  11.073 -0.0215  1.1006  1.5428
  246MOL0     H33169   2.441   0.521  11.222  1.1897  1.4253 -0.6944
  246MOL0     H33170   2.224   0.595  11.163 -0.0622  0.3774 -0.7228
  246MOL0     H33171   1.988   0.585  11.172 -0.6451 -1.3873  1.2350
  246MOL0     H33172   1.605   0.255  11.261  1.0330  0.2114 -1.7202
  246MOL0     H33173   1.353   0.267  11.299 -2.5476  2.1082  1.4980
  246MOL0     H33174   1.156   0.305  11.262 -1.7908 -0.4868  1.2828
  246MOL0     H33175   1.149   0.391  11.415 -3.5948 -4.7520  1.2879
  246MOL0     H33176   0.973   0.542  11.320  0.4138  1.6566 -2.6297
  246MOL0     H33177   0.987   0.468  11.170  2.5658 -0.6587 -0.3977
  246MOL0     H33178   0.945   0.224  11.292  0.6327  0.8160  2.5159
  246MOL0     H33179   0.876   0.324  11.415  2.4485  1.6301  2.2011
  246MOL0     H33180   0.800   0.337  11.115 -1.2109 -1.3042 -1.0540
  246MOL0     H33181   0.731   0.426  11.255  0.4175 -1.5329  2.1702
  246MOL0     H33182   0.687   0.167  11.344  2.0468 -1.5871 -0.8688
  246MOL0     H33183   0.723   0.137  11.174  0.2036  0.7819 -1.7271
  246MOL0     H33184   0.503   0.291  11.312  0.5685  2.5479  0.2871
  246MOL0     H33185   0.523   0.314  11.137 -0.3615 -1.0256 -0.2670
  246MOL0     H33186   0.509   0.034  11.245 -0.9264  1.0286  2.7058
  246MOL0     H33187   0.477   0.100  11.082 -0.9293  0.5034 -0.3160
  246MOL0     H33188   0.290   0.132  11.324  0.0459 -0.7272  1.0529
  246MOL0     H33189   0.262   0.213  11.170 -1.7874 -1.1384  1.3262
  246MOL0     H33190   1.372   0.689  11.209  1.2556  1.8319 -0.7007
  246MOL0     H33191   1.616   0.670  11.187 -2.0781  2.0955 -2.8868
  246MOL0     H33192   2.001   0.170  11.037 -0.8810  0.4178 -1.8889
  246MOL0     H33193   2.239   0.185  11.034  1.3439  0.5053  2.4035
  246MOL0     H33194   2.112   0.595  10.874  1.4477 -0.2757  2.0500
  246MOL0     H33195   1.855   0.657  10.820  0.9090  0.2438 -3.9210
  246MOL0     H33196   1.603   0.903  10.596  2.5429  1.1226  2.9156
  246MOL0     H33197   1.405   0.892  10.477 -1.2834  1.0785 -0.6929
  246MOL0     H33198   1.022   0.956  10.639  2.5374  0.5789  2.4852
  246MOL0     H33199   1.011   0.791  10.703  0.0160  1.2533  0.0199
  246MOL0     H33200   0.823   0.786  10.548 -1.0075  2.1537 -1.5506
  246MOL0     H33201   0.948   0.697  10.480 -1.0069 -0.1926  0.9870
  246MOL0     H33202   0.868   0.833  10.303  1.6126 -1.8728 -0.7382
  246MOL0     H33203   1.014   0.907  10.360 -0.9255 -0.2763 -0.6444
  246MOL0     H33204   0.901   1.078  10.486  0.4456  0.8931 -0.9540
  246MOL0     H33205   0.859   1.087  10.318 -0.9346 -2.8441 -1.3753
  246MOL0     H33206   0.478   1.059  10.489 -0.4420 -2.5948  0.6760
  246MOL0     H33207   1.178   0.845  10.837  2.2247 -4.4606  2.0308
  246MOL0     H33208   1.416   0.992  11.043  1.0943  0.7648 -0.6702
  246MOL0     H33209   1.285   0.873  11.039 -1.0339 -0.4988 -0.2451
  246MOL0     H33210   1.454   0.821  11.046 -0.6346  1.2422  0.2813
  247MOL0     O33211   3.605   8.088   2.680 -0.0833  0.5643  0.1309
  247MOL0     C33212   3.552   8.006   2.601  0.5139  0.0109  1.3154
  247MOL0     O33213   3.572   8.006   2.467  0.0255 -0.2332 -0.2057
  247MOL0     C33214   3.622   8.114   2.401  1.0450  0.1426  0.9477
  247MOL0     C33215   3.709   8.095   2.297 -0.6190 -0.5526  0.6582
  247MOL0     C33216   3.753   8.193   2.215 -0.7492  0.1655  0.0784
  247MOL0     C33217   3.697   8.316   2.225  0.3678  0.0555 -0.2916
  247MOL0     O33218   3.754   8.424   2.168  1.0628 -0.2330 -0.4852
  247MOL0     C33219   3.671   8.519   2.099 -0.9696  0.0380 -0.0009
  247MOL0     C33220   3.588   8.455   1.985 -0.9866 -0.5557 -0.3898
  247MOL0     C33221   3.499   8.561   1.913  0.3313  0.0659  0.4431
  247MOL0     C33222   3.581   8.660   1.826  0.0095 -0.5714  0.2047
  247MOL0     C33223   3.491   8.746   1.738 -0.8601  0.8095 -0.6098
  247MOL0     C33224   3.570   8.822   1.636  0.2829  0.0360  1.6353
  247MOL0     C33225   3.539   8.800   1.480 -0.0893 -0.1584  0.1579
  247MOL0     C33226   3.576   8.659   1.442  0.9030  0.6386 -0.3411
  247MOL0     N33227   3.532   8.653   1.300  0.1346  0.5092 -0.4657
  247MOL0     C33228   3.589   8.690   1.184 -0.1252 -0.8671  0.1888
  247MOL0     C33229   3.505   8.643   1.093  0.7883 -0.5429 -0.4535
  247MOL0     C33230   3.518   8.674   0.944  0.0083  0.6349  0.5492
  247MOL0     C33231   3.623   8.595   0.880  0.0667 -0.3145  0.0757
  247MOL0     C33232   3.627   8.596   0.728  0.2246 -0.6681 -0.9412
  247MOL0     C33233   3.744   8.500   0.683 -0.1137  0.3696  0.4803
  247MOL0     O33234   3.781   8.523   0.548 -0.0581 -1.2255 -0.1151
  247MOL0     C33235   3.908   8.482   0.506  0.7985 -0.9702 -0.0243
  247MOL0     C33236   3.975   8.372   0.560 -0.3086 -0.3185  0.2016
  247MOL0     C33237   4.101   8.330   0.506 -0.4127  0.4033 -0.5709
  247MOL0     C33238   4.158   8.398   0.404 -0.5642  0.1811  0.7392
  247MOL0     C33239   4.302   8.366   0.369 -0.1447 -0.7535  0.6924
  247MOL0     O33240   4.370   8.266   0.424  0.6709  0.7635 -0.0940
  247MOL0     C33241   4.484   8.226   0.357  0.1965 -0.5388 -0.7740
  247MOL0     C33242   4.595   8.307   0.334  1.0077  0.5416 -1.1124
  247MOL0     C33243   4.716   8.244   0.293 -0.8382 -0.8455 -0.4743
  247MOL0     C33244   4.726   8.107   0.283  0.5462 -0.2576 -0.6733
  247MOL0     O33245   4.838   8.058   0.227 -0.2683 -0.1685 -0.0386
  247MOL0     C33246   4.810   8.016   0.088 -0.3072 -0.7449 -0.5601
  247MOL0     C33247   4.849   7.869   0.067 -0.3506 -1.0648 -0.1105
  247MOL0     C33248   4.997   7.841   0.088 -0.6359 -0.2119  0.3297
  247MOL0     C33249   5.015   7.697   0.032  0.3095 -0.0250 -0.4471
  247MOL0     C33250   4.988   7.590   0.136 -0.0659  1.0550  0.3715
  247MOL0     C33251   5.078   7.467   0.141 -0.6350 -0.3448  0.6192
  247MOL0     C33252   5.037   7.366   0.250 -0.1624 -0.3016  0.3190
  247MOL0     C33253   5.147   7.272   0.302  0.4009 -0.7942 -0.7076
  247MOL0    Cl33254   5.269   7.384   0.375  0.4113  0.4320  0.1255
  247MOL0     C33255   4.617   8.027   0.306 -0.4262 -0.6103 -0.2081
  247MOL0     C33256   4.496   8.093   0.335 -0.1182 -0.0752  0.1744
  247MOL0     O33257   4.336   8.434   0.274  0.5419 -0.3323  0.1102
  247MOL0     C33258   4.096   8.517   0.356  0.6613 -0.9401  0.2482
  247MOL0     C33259   3.972   8.555   0.401  0.7711 -0.0434 -0.1744
  247MOL0     N33260   3.403   8.578   1.146  0.6487  0.3169  0.2052
  247MOL0     N33261   3.415   8.590   1.274  0.2876 -0.4566  0.7367
  247MOL0     C33262   3.604   8.339   2.323 -0.1248 -0.2037 -0.0731
  247MOL0     C33263   3.568   8.245   2.425  0.0320  0.3160 -0.2032
  247MOL0     C33264   3.470   7.900   2.655 -0.4847 -0.0479 -0.3561
  247MOL0     C33265   3.458   7.777   2.584 -0.3182 -0.2359 -1.0137
  247MOL0     C33266   3.378   7.680   2.628  0.1868  0.3164 -0.2703
  247MOL0     C33267   3.303   7.691   2.746 -0.6604  0.7504  0.3662
  247MOL0     O33268   3.231   7.582   2.781  0.0260  0.5403  0.4167
  247MOL0     C33269   3.083   7.602   2.783 -0.7837 -0.4304 -0.1821
  247MOL0     C33270   3.016   7.637   2.646  0.7908 -0.8462  0.6140
  247MOL0     C33271   2.977   7.514   2.568  0.0535  0.2306 -0.3819
  247MOL0     C33272   2.895   7.542   2.446  0.6034 -1.0182  0.1666
  247MOL0     C33273   2.974   7.612   2.349 -0.5479  0.1577 -0.1987
  247MOL0     C33274   3.049   7.662   2.264 -0.3129 -1.0947  0.3991
  247MOL0     C33275   3.321   7.795   2.836  0.3314 -0.7209 -0.0655
  247MOL0     C33276   3.405   7.909   2.785  0.1265 -0.2560 -0.8523
  247MOL0     C33277   3.435   8.020   2.889 -1.1646 -0.4627  0.5615
  247MOL0     H33278   3.742   7.994   2.273  3.3380  0.1349  2.4769
  247MOL0     H33279   3.841   8.169   2.157  2.2803  1.5208  3.7396
  247MOL0     H33280   3.614   8.569   2.179  2.9013  1.9500  1.8735
  247MOL0     H33281   3.731   8.600   2.057 -0.7738  1.0529  2.0678
  247MOL0     H33282   3.530   8.381   2.042 -0.3936 -2.4245 -2.0797
  247MOL0     H33283   3.660   8.403   1.921  1.3018  2.3782 -0.3802
  247MOL0     H33284   3.450   8.622   1.989  1.6072 -0.1885  1.4946
  247MOL0     H33285   3.419   8.515   1.855  1.1243 -1.5304  0.5594
  247MOL0     H33286   3.636   8.737   1.881 -0.2843  1.0111 -1.6176
  247MOL0     H33287   3.651   8.609   1.760 -1.0776  0.4915 -1.8620
  247MOL0     H33288   3.423   8.680   1.683 -1.3483 -0.3685  1.3441
  247MOL0     H33289   3.432   8.815   1.799  0.8039  0.6379  1.2760
  247MOL0     H33290   3.562   8.930   1.657  2.1884  0.3563  0.8764
  247MOL0     H33291   3.673   8.793   1.659 -1.0999 -4.5241  3.0912
  247MOL0     H33292   3.603   8.863   1.417 -4.6087  2.6426 -2.1910
  247MOL0     H33293   3.434   8.823   1.464  0.3307  2.0016  0.1915
  247MOL0     H33294   3.685   8.648   1.450  0.8793  1.7263  2.3359
  247MOL0     H33295   3.533   8.583   1.508  2.7262 -0.9740 -0.8811
  247MOL0     H33296   3.679   8.749   1.165 -1.1387  0.8477  0.4988
  247MOL0     H33297   3.430   8.650   0.883 -0.3706  2.1525  0.4759
  247MOL0     H33298   3.536   8.780   0.926  1.4901  0.2387 -0.5854
  247MOL0     H33299   3.718   8.644   0.903 -0.3560 -0.1421  1.5392
  247MOL0     H33300   3.612   8.496   0.926 -1.2058  1.0860  3.0421
  247MOL0     H33301   3.649   8.696   0.689  1.2690 -1.2646 -1.9646
  247MOL0     H33302   3.533   8.551   0.693 -0.3958  0.6921 -1.0925
  247MOL0     H33303   3.716   8.394   0.691 -1.7129  0.8957  2.5471
  247MOL0     H33304   3.830   8.514   0.749 -0.6082  0.6818  1.0649
  247MOL0     H33305   3.937   8.318   0.647 -2.5787  0.2153 -0.3908
  247MOL0     H33306   4.142   8.246   0.561 -0.5050  0.7102 -0.0267
  247MOL0     H33307   4.597   8.414   0.350  0.2616  0.3875  0.1200
  247MOL0     H33308   4.792   8.308   0.251 -0.4909 -0.1520  1.1398
  247MOL0     H33309   4.707   8.039   0.059 -1.0271 -2.6453  0.3306
  247MOL0     H33310   4.865   8.079   0.018  1.0808 -1.1989  0.0824
  247MOL0     H33311   4.780   7.802   0.118 -1.6745 -0.8365 -1.5188
  247MOL0     H33312   4.834   7.848  -0.039  0.6202  0.4467 -0.5814
  247MOL0     H33313   5.063   7.895   0.020 -0.8580  0.2038  0.4433
  247MOL0     H33314   5.036   7.847   0.190  1.0136  0.4646 -0.3131
  247MOL0     H33315   5.115   7.687  -0.011  0.6076 -0.2106  0.2686
  247MOL0     H33316   4.943   7.677  -0.048 -1.3254 -0.2419  1.0031
  247MOL0     H33317   4.887   7.551   0.123  0.9424 -2.1093  1.0841
  247MOL0     H33318   4.993   7.644   0.231  1.6523  2.9272 -0.7090
  247MOL0     H33319   5.073   7.416   0.045  5.0762 -0.3377 -0.0387
  247MOL0     H33320   5.180   7.501   0.160  0.3114 -1.6459 -1.6914
  247MOL0     H33321   4.952   7.311   0.207  0.9771 -0.8130 -1.3361
  247MOL0     H33322   4.991   7.426   0.330  0.1869  0.9144 -0.3824
  247MOL0     H33323   5.105   7.196   0.369  0.5706 -2.2594 -2.2039
  247MOL0     H33324   5.191   7.220   0.216  2.4098 -0.1281 -0.1351
  247MOL0     H33325   4.619   7.920   0.291 -1.4643 -0.6601 -0.0651
  247MOL0     H33326   4.408   8.038   0.364 -0.6380  0.1049 -0.9966
  247MOL0     H33327   4.141   8.588   0.287 -0.7710 -0.5054 -0.2723
  247MOL0     H33328   3.921   8.639   0.354  3.1620  2.3314  1.1929
  247MOL0     H33329   3.554   8.435   2.325 -3.0199 -1.5482  3.4150
  247MOL0     H33330   3.484   8.270   2.490 -1.5926 -2.9553 -0.8547
  247MOL0     H33331   3.518   7.747   2.498  1.5570 -1.2736  0.5787
  247MOL0     H33332   3.371   7.585   2.577  3.8889  0.5390 -1.4984
  247MOL0     H33333   3.062   7.682   2.854  0.6598 -0.6788  0.5610
  247MOL0     H33334   3.029   7.519   2.830 -2.1160  0.3738 -0.2585
  247MOL0     H33335   3.084   7.696   2.584  2.2195  0.9667  3.6666
  247MOL0     H33336   2.924   7.693   2.668  0.9548 -1.0294  1.8151
  247MOL0     H33337   2.927   7.449   2.640 -0.3577  1.3110  0.3235
  247MOL0     H33338   3.072   7.464   2.543 -1.2041 -1.1594 -2.7453
  247MOL0     H33339   2.869   7.443   2.406  0.9336  0.0894 -3.0503
  247MOL0     H33340   2.806   7.599   2.474  0.2494 -1.3491 -0.2596
  247MOL0     H33341   3.100   7.697   2.177  0.4657 -1.0315  0.8645
  247MOL0     H33342   3.277   7.783   2.934 -0.3880  1.6800 -0.0046
  247MOL0     H33343   3.542   8.017   2.911 -0.5203 -1.8426 -2.2878
  247MOL0     H33344   3.417   8.123   2.856  2.5701  0.1246 -0.1526
  247MOL0     H33345   3.380   8.003   2.982  0.5887 -4.0561  1.1228
  248MOL0     O33346   7.243   8.664   2.083  0.5242 -0.4833  0.5580
  248MOL0     C33347   7.267   8.573   2.168  0.3365  0.5979  1.5016
  248MOL0     O33348   7.355   8.471   2.153 -0.5257 -0.2468  0.4859
  248MOL0     C33349   7.435   8.498   2.043 -0.6998  0.6240  0.4156
  248MOL0     C33350   7.413   8.441   1.912 -0.2592 -0.9415 -0.0341
  248MOL0     C33351   7.501   8.459   1.807  0.0237  0.1610 -0.1861
  248MOL0     C33352   7.615   8.540   1.822  0.2331 -0.0415 -0.1124
  248MOL0     O33353   7.678   8.577   1.712 -0.4152  0.1791  0.2394
  248MOL0     C33354   7.734   8.710   1.697  0.2689 -0.7107 -0.8678
  248MOL0     C33355   7.882   8.697   1.749 -0.9701  0.3599  0.3693
  248MOL0     C33356   7.952   8.829   1.787  0.1796  0.2505  0.0778
  248MOL0     C33357   7.983   8.927   1.672 -1.0086  0.5565 -0.2853
  248MOL0     C33358   8.096   9.022   1.718 -0.4286  0.3331  0.3071
  248MOL0     C33359   8.099   9.133   1.602  0.4940 -0.7339  0.0715
  248MOL0     C33360   8.191   9.250   1.624  1.0017 -0.1807  0.3046
  248MOL0     C33361   8.334   9.228   1.681  0.8681  0.5576  0.3780
  248MOL0     N33362   8.400   9.346   1.724  0.8057 -0.4709 -0.9702
  248MOL0     C33363   8.400   9.468   1.657  0.4562 -0.1908  0.9093
  248MOL0     C33364   8.488   9.537   1.728  0.3664 -0.8357  0.0319
  248MOL0     C33365   8.529   9.679   1.681  0.3338 -0.0813 -0.5035
  248MOL0     C33366   8.645   9.664   1.582  0.1240 -0.0158 -0.2123
  248MOL0     C33367   8.696   9.795   1.515  0.6183  0.3845 -0.3392
  248MOL0     C33368   8.748   9.900   1.608 -0.3210  0.0163  0.3236
  248MOL0     O33369   8.768  10.015   1.529  0.8162 -0.0981 -0.1294
  248MOL0     C33370   8.883  10.089   1.571  0.7126 -0.4099 -0.3093
  248MOL0     C33371   8.924  10.090   1.707 -0.4073 -0.6119 -0.5279
  248MOL0     C33372   9.032  10.159   1.748  0.4692 -0.2559  0.4340
  248MOL0     C33373   9.121  10.213   1.659  0.4989 -0.0331  0.1267
  248MOL0     C33374   9.227  10.302   1.696  0.0701 -0.6934 -0.4556
  248MOL0     O33375   9.222  10.352   1.822 -0.1141 -0.1005  0.7222
  248MOL0     C33376   9.333  10.422   1.873 -0.7673  0.2272  0.3708
  248MOL0     C33377   9.315  10.556   1.902 -0.2830 -0.2045 -1.4639
  248MOL0     C33378   9.424  10.637   1.931  0.3696  0.4227 -0.0597
  248MOL0     C33379   9.543  10.585   1.950 -0.7644  1.2843 -0.1243
  248MOL0     O33380   9.641  10.670   1.994  0.3420 -0.4254  0.8039
  248MOL0     C33381   9.752  10.610   2.052  0.1963  0.9886 -0.1795
  248MOL0     C33382   9.862  10.595   1.946  0.9498 -1.2522  0.3943
  248MOL0     C33383   9.997  10.547   2.003 -0.2273 -0.7403  0.0017
  248MOL0     C33384  10.090  10.669   1.965 -0.0857 -0.4810 -0.1327
  248MOL0     C33385  10.238  10.667   2.009 -0.4755  0.9412 -0.3769
  248MOL0     C33386  10.295  10.813   2.013  0.5110 -0.2486  0.2427
  248MOL0     C33387  10.435  10.823   2.080 -0.4423  0.9413 -0.2934
  248MOL0     C33388  10.484  10.970   2.071 -0.0328  0.0716 -0.6133
  248MOL0    Cl33389  10.376  11.072   2.178 -0.4451  0.1776 -0.0704
  248MOL0     C33390   9.568  10.452   1.913  0.6523  0.2306  0.2371
  248MOL0     C33391   9.466  10.369   1.870 -0.0249  0.1529  0.4461
  248MOL0     O33392   9.304  10.326   1.607 -0.1470  0.3258  0.1748
  248MOL0     C33393   9.091  10.197   1.518 -0.5890  0.7959 -0.0023
  248MOL0     C33394   8.973  10.135   1.479 -0.0028  0.5254  0.1386
  248MOL0     N33395   8.538   9.460   1.834 -0.6874 -0.1914 -0.7184
  248MOL0     N33396   8.492   9.345   1.828 -0.5755  0.5669  0.9244
  248MOL0     C33397   7.639   8.599   1.955 -0.6629  1.1449 -0.1409
  248MOL0     C33398   7.557   8.563   2.060  0.0337 -0.2029  0.2945
  248MOL0     C33399   7.203   8.596   2.303  0.8809  0.0161 -0.1668
  248MOL0     C33400   7.270   8.538   2.409  0.2136  0.3963 -0.1796
  248MOL0     C33401   7.218   8.561   2.535 -1.3096  0.4324  0.2078
  248MOL0     C33402   7.089   8.611   2.560 -0.1069 -0.8618  0.6657
  248MOL0     O33403   7.040   8.607   2.687  0.0596 -0.0630 -0.4211
  248MOL0     C33404   6.899   8.593   2.697  0.4415  0.4064 -0.1631
  248MOL0     C33405   6.829   8.472   2.631 -0.5526 -0.0519 -0.1383
  248MOL0     C33406   6.844   8.349   2.725 -0.3595  0.3597 -0.7342
  248MOL0     C33407   6.991   8.298   2.740  0.2408 -0.4016 -0.1039
  248MOL0     C33408   7.057   8.259   2.607  0.9421  0.6218  0.4078
  248MOL0     C33409   7.112   8.219   2.503 -0.1884  0.6864  0.6853
  248MOL0     C33410   7.024   8.666   2.448 -0.1179 -0.5681  0.3197
  248MOL0     C33411   7.080   8.664   2.324 -1.1054  0.4371 -0.0208
  248MOL0     C33412   7.000   8.718   2.203 -0.0687  0.5790 -0.3607
  248MOL0     H33413   7.317   8.393   1.894 -0.4681 -1.0171  1.1547
  248MOL0     H33414   7.463   8.425   1.711 -3.3662 -1.0239  1.4062
  248MOL0     H33415   7.726   8.750   1.596 -1.4261 -2.3292 -1.4220
  248MOL0     H33416   7.671   8.780   1.752 -0.8316 -1.3938 -1.2134
  248MOL0     H33417   7.935   8.649   1.667  0.7716  1.1527  0.9795
  248MOL0     H33418   7.886   8.622   1.828  0.5969  0.6947  0.6329
  248MOL0     H33419   8.043   8.798   1.839  0.0323 -0.5373 -0.1189
  248MOL0     H33420   7.901   8.886   1.866  0.6570  0.8912 -0.0682
  248MOL0     H33421   8.016   8.886   1.576 -4.2096 -0.2795 -1.1534
  248MOL0     H33422   7.892   8.970   1.630  0.0570  0.3606 -2.9974
  248MOL0     H33423   8.078   9.058   1.820  0.9992  1.2484  0.2652
  248MOL0     H33424   8.190   8.968   1.717 -1.6648 -1.9392  1.1057
  248MOL0     H33425   8.114   9.087   1.503  0.0250  1.5311 -1.1197
  248MOL0     H33426   7.996   9.171   1.592  1.4496  1.8015 -1.0936
  248MOL0     H33427   8.140   9.309   1.701  0.9415 -1.9968  1.6990
  248MOL0     H33428   8.201   9.308   1.531  1.9636 -3.0840 -1.5277
  248MOL0     H33429   8.325   9.164   1.769  0.5532  0.7056  0.4565
  248MOL0     H33430   8.396   9.176   1.609 -0.3133  0.5591 -0.6708
  248MOL0     H33431   8.364   9.493   1.557  0.6240  0.8613  1.0983
  248MOL0     H33432   8.451   9.746   1.644  0.5321  0.8338  0.6845
  248MOL0     H33433   8.572   9.732   1.767  0.2172  3.1315 -2.2646
  248MOL0     H33434   8.733   9.624   1.633 -0.5277 -1.0789  0.1128
  248MOL0     H33435   8.617   9.600   1.497 -1.1763  0.2448 -0.0055
  248MOL0     H33436   8.609   9.837   1.463 -2.2591 -1.3515  2.6947
  248MOL0     H33437   8.774   9.777   1.440  2.3218  5.2212 -0.1393
  248MOL0     H33438   8.834   9.862   1.664 -0.5877 -0.0655  0.6841
  248MOL0     H33439   8.667   9.923   1.678  0.5274 -0.3309  1.4440
  248MOL0     H33440   8.866  10.035   1.779  1.2280 -3.3089 -1.1280
  248MOL0     H33441   9.059  10.165   1.854  0.7106  0.7373  0.3285
  248MOL0     H33442   9.215  10.598   1.905 -1.1456 -2.2167 -0.9255
  248MOL0     H33443   9.403  10.739   1.960 -0.2514  0.0176  0.9630
  248MOL0     H33444   9.779  10.669   2.141  0.6866 -1.0687  1.1123
  248MOL0     H33445   9.733  10.517   2.106 -4.3588  0.4617 -2.2533
  248MOL0     H33446   9.832  10.529   1.864 -2.4680  0.0553  0.4217
  248MOL0     H33447   9.865  10.691   1.894  2.3787 -0.9048  1.0747
  248MOL0     H33448   9.995  10.527   2.111  2.0161 -1.4563 -0.0285
  248MOL0     H33449  10.017  10.453   1.952 -0.1789 -0.6613 -0.1268
  248MOL0     H33450  10.040  10.764   1.984  1.1228  0.3461 -0.9140
  248MOL0     H33451  10.088  10.672   1.855  0.8943 -0.3629 -0.1590
  248MOL0     H33452  10.292  10.589   1.956  0.3100 -1.6017  3.6806
  248MOL0     H33453  10.234  10.624   2.110 -0.3440  2.1950  0.1875
  248MOL0     H33454  10.307  10.862   1.916  1.9779 -0.7503  0.1534
  248MOL0     H33455  10.220  10.876   2.063  0.4197  0.6893 -1.0251
  248MOL0     H33456  10.507  10.755   2.033  0.8849  2.2889 -0.2561
  248MOL0     H33457  10.434  10.797   2.186 -4.2031 -0.8358 -0.5919
  248MOL0     H33458  10.584  10.970   2.116 -0.9739  1.4595  1.6281
  248MOL0     H33459  10.494  10.999   1.966 -0.5359  2.4868 -0.0430
  248MOL0     H33460   9.667  10.409   1.922 -1.0876 -4.1010  1.7370
  248MOL0     H33461   9.481  10.262   1.858  1.1858  0.5064 -1.6736
  248MOL0     H33462   9.159  10.232   1.441  2.3178 -2.9124  0.5689
  248MOL0     H33463   8.946  10.120   1.375  1.9615 -1.7746 -0.1334
  248MOL0     H33464   7.723   8.663   1.979  1.7396 -0.5112 -3.3301
  248MOL0     H33465   7.585   8.595   2.160  1.1060 -1.0113  0.2669
  248MOL0     H33466   7.364   8.485   2.396 -0.1953 -1.3346  3.0467
  248MOL0     H33467   7.279   8.520   2.615  1.3913 -1.3553 -2.5369
  248MOL0     H33468   6.857   8.684   2.652  0.6728  0.2206 -0.7662
  248MOL0     H33469   6.876   8.598   2.803  0.9262 -2.0651  0.1082
  248MOL0     H33470   6.873   8.447   2.534 -2.3417 -0.1242 -0.9692
  248MOL0     H33471   6.722   8.483   2.609 -0.7888 -2.2244 -0.2924
  248MOL0     H33472   6.784   8.265   2.688  2.8350 -2.3729 -0.1392
  248MOL0     H33473   6.809   8.366   2.828 -0.6141 -0.7170 -0.6311
  248MOL0     H33474   7.048   8.379   2.786  1.2628  0.5545 -2.8639
  248MOL0     H33475   6.990   8.207   2.800 -1.9420 -1.8488 -2.1261
  248MOL0     H33476   7.156   8.193   2.409  1.2205  1.8827  0.9857
  248MOL0     H33477   6.925   8.710   2.459  1.0048  1.9652  1.0080
  248MOL0     H33478   6.911   8.765   2.247 -1.7598 -2.0031 -0.8360
  248MOL0     H33479   7.065   8.789   2.150 -0.7532  2.1518  0.8335
  248MOL0     H33480   6.959   8.636   2.143  2.3339 -0.5565 -0.5789
  249MOL0     O33481   7.637   1.652   3.177 -0.1007  0.2307  0.4859
  249MOL0     C33482   7.588   1.632   3.285  0.4786  0.2883 -0.0856
  249MOL0     O33483   7.450   1.598   3.300 -0.3522 -0.4429 -0.2230
  249MOL0     C33484   7.366   1.600   3.193  0.3610  1.1445 -0.0078
  249MOL0     C33485   7.343   1.721   3.130 -0.6447 -0.3504  0.1318
  249MOL0     C33486   7.273   1.738   3.014 -0.6748 -0.8084 -0.5090
  249MOL0     C33487   7.192   1.627   2.973 -0.0889  0.3718  1.1018
  249MOL0     O33488   7.114   1.648   2.851  0.3361  0.2459 -0.6044
  249MOL0     C33489   7.032   1.536   2.805 -1.1194 -0.5389 -0.0062
  249MOL0     C33490   7.001   1.567   2.654  0.8235 -0.8957 -0.7335
  249MOL0     C33491   6.887   1.471   2.610  0.1862 -0.2021 -0.6897
  249MOL0     C33492   6.849   1.489   2.465  0.8800  0.2537  0.6560
  249MOL0     C33493   6.760   1.367   2.412  0.1208 -0.4205 -0.6401
  249MOL0     C33494   6.728   1.412   2.268  0.2199  0.6592  0.1586
  249MOL0     C33495   6.654   1.300   2.207  0.9049 -0.7321  0.0620
  249MOL0     C33496   6.653   1.323   2.054  0.6665 -0.4215 -0.2741
  249MOL0     N33497   6.547   1.244   2.005 -0.3974  0.3707 -0.4274
  249MOL0     C33498   6.417   1.273   2.018 -0.3459 -0.0943 -0.1188
  249MOL0     C33499   6.352   1.156   1.970 -0.0618 -0.3509  0.4002
  249MOL0     C33500   6.200   1.144   1.958  0.0573 -0.4323  0.2301
  249MOL0     C33501   6.148   1.258   1.860  1.1294  0.2727  0.2154
  249MOL0     C33502   5.999   1.248   1.812  0.3901 -0.5296  0.4452
  249MOL0     C33503   5.969   1.358   1.708  0.0341 -0.6409  0.5029
  249MOL0     O33504   6.013   1.495   1.748 -0.1513  0.3863  0.1998
  249MOL0     C33505   5.935   1.573   1.832  0.5338  0.0727 -1.3834
  249MOL0     C33506   5.992   1.702   1.876  0.4283 -0.5891 -0.3936
  249MOL0     C33507   5.905   1.786   1.949 -0.3181  0.5186  0.2859
  249MOL0     C33508   5.774   1.746   1.988 -0.5446  0.0001 -0.0621
  249MOL0     C33509   5.689   1.831   2.072  0.7948  0.6849 -0.0679
  249MOL0     O33510   5.599   1.768   2.155  0.5828  0.2767 -0.0393
  249MOL0     C33511   5.493   1.828   2.211 -0.7060  0.0756 -0.0096
  249MOL0     C33512   5.363   1.811   2.172 -0.0863 -0.0147 -1.0956
  249MOL0     C33513   5.266   1.879   2.245 -0.5467 -0.2718  0.0373
  249MOL0     C33514   5.290   1.961   2.354 -0.2462  0.1811 -0.9447
  249MOL0     O33515   5.189   2.043   2.408  0.3815 -0.4183 -0.3679
  249MOL0     C33516   5.145   2.028   2.546 -0.0672  0.1169  0.5974
  249MOL0     C33517   5.061   2.154   2.569 -0.4371 -0.4208 -1.0896
  249MOL0     C33518   5.019   2.149   2.714 -0.2647  0.6334  0.3042
  249MOL0     C33519   4.900   2.228   2.750  0.5259 -0.2210 -0.5005
  249MOL0     C33520   4.872   2.224   2.902  0.4224  0.1249  0.3640
  249MOL0     C33521   4.749   2.310   2.933 -0.4918  0.8184 -0.4307
  249MOL0     C33522   4.716   2.290   3.080  0.4513 -0.8539  0.5535
  249MOL0     C33523   4.573   2.343   3.117 -0.5587 -0.1893  1.3873
  249MOL0    Cl33524   4.452   2.272   3.014  0.0197  0.4119  0.1434
  249MOL0     C33525   5.425   1.970   2.406  0.0519 -0.6948  0.2966
  249MOL0     C33526   5.524   1.893   2.337  0.0543 -0.1908  1.7260
  249MOL0     O33527   5.698   1.950   2.060  0.9287 -0.0933  1.0354
  249MOL0     C33528   5.724   1.629   1.944  0.3525 -0.2950  0.4436
  249MOL0     C33529   5.801   1.540   1.857  0.4981 -0.2818  0.6036
  249MOL0     N33530   6.449   1.064   1.934 -0.4205 -0.0953 -0.5710
  249MOL0     N33531   6.567   1.121   1.957 -0.1068 -0.3735 -0.4998
  249MOL0     C33532   7.204   1.506   3.050  0.6678  0.0799 -0.9483
  249MOL0     C33533   7.292   1.491   3.156  0.7069  0.2250 -0.4037
  249MOL0     C33534   7.684   1.644   3.404  0.6238 -0.4506  0.1503
  249MOL0     C33535   7.647   1.581   3.522 -0.2020 -0.4132 -0.0252
  249MOL0     C33536   7.713   1.585   3.644 -0.3495 -1.1648  0.1291
  249MOL0     C33537   7.821   1.673   3.656  1.0047  0.3230  0.6338
  249MOL0     O33538   7.881   1.687   3.777 -0.5939 -0.2214  0.1294
  249MOL0     C33539   7.799   1.733   3.883  0.6483  0.3018  0.0981
  249MOL0     C33540   7.884   1.768   4.000 -0.5901  0.5303 -0.6627
  249MOL0     C33541   7.800   1.789   4.126  0.4446 -0.1185  0.5131
  249MOL0     C33542   7.745   1.661   4.182  1.0060  0.4869 -0.2287
  249MOL0     C33543   7.641   1.697   4.285 -0.9129 -0.2507 -0.8016
  249MOL0     C33544   7.560   1.747   4.357 -0.2570 -0.2275  0.5244
  249MOL0     C33545   7.868   1.742   3.540 -1.5394  0.2584 -0.2006
  249MOL0     C33546   7.802   1.730   3.413  0.3396 -0.2485  1.4589
  249MOL0     C33547   7.860   1.825   3.294  0.4774 -0.3903 -0.5506
  249MOL0     H33548   7.391   1.806   3.179 -0.4794 -1.3882  1.8535
  249MOL0     H33549   7.281   1.832   2.961 -1.5138 -0.9131 -0.8422
  249MOL0     H33550   7.090   1.443   2.808  0.5886  0.0951 -4.6961
  249MOL0     H33551   6.945   1.530   2.870 -1.1979  2.5307  0.3089
  249MOL0     H33552   7.095   1.548   2.601  3.2342 -1.5064  3.3418
  249MOL0     H33553   6.963   1.667   2.631 -0.5424 -0.9945  0.8545
  249MOL0     H33554   6.798   1.497   2.667 -0.6170 -0.5226 -1.7694
  249MOL0     H33555   6.913   1.365   2.615 -0.8194 -0.3969  2.9607
  249MOL0     H33556   6.793   1.581   2.446 -2.3471 -1.4777  1.0497
  249MOL0     H33557   6.930   1.479   2.392 -2.1230 -1.4085 -2.7398
  249MOL0     H33558   6.825   1.279   2.409 -0.5400 -1.1701  2.8410
  249MOL0     H33559   6.678   1.345   2.481 -0.4675 -0.0590 -1.2120
  249MOL0     H33560   6.666   1.503   2.263 -4.3377 -1.6034  5.1933
  249MOL0     H33561   6.822   1.419   2.213 -0.6724 -1.8108 -1.8558
  249MOL0     H33562   6.556   1.308   2.254  0.4112  0.1871 -1.0672
  249MOL0     H33563   6.703   1.207   2.238 -0.5323 -1.0417  1.5262
  249MOL0     H33564   6.636   1.427   2.026 -1.8602 -1.0049 -1.1392
  249MOL0     H33565   6.750   1.300   2.009  0.1527 -0.1143 -1.5702
  249MOL0     H33566   6.370   1.363   2.057 -0.0246  0.8137 -1.7566
  249MOL0     H33567   6.192   1.037   1.934 -0.3122 -1.3326  3.7680
  249MOL0     H33568   6.147   1.160   2.052  0.4803  3.0856  0.0044
  249MOL0     H33569   6.156   1.359   1.901 -1.6947  1.5633 -2.0195
  249MOL0     H33570   6.214   1.252   1.773  1.5593  1.3693  0.4448
  249MOL0     H33571   5.944   1.284   1.899 -0.0255 -0.4721  0.1599
  249MOL0     H33572   5.972   1.144   1.792 -1.1522 -0.1600  0.5182
  249MOL0     H33573   5.863   1.360   1.679 -0.5751  2.9062  2.3604
  249MOL0     H33574   6.024   1.331   1.617  1.4063 -1.9199  1.6642
  249MOL0     H33575   6.095   1.733   1.862  0.1812  1.4498  1.7057
  249MOL0     H33576   5.938   1.884   1.981  1.0930  1.2231 -2.8904
  249MOL0     H33577   5.324   1.758   2.085 -1.5517 -1.0764  0.1555
  249MOL0     H33578   5.166   1.866   2.205 -0.9272 -0.7012  1.0977
  249MOL0     H33579   5.085   1.939   2.566 -0.6518  0.5216  0.6646
  249MOL0     H33580   5.228   2.024   2.617 -1.5174  2.8997  2.6582
  249MOL0     H33581   5.119   2.246   2.560  0.2185 -0.0844  3.9728
  249MOL0     H33582   4.970   2.169   2.510 -2.8605  1.4189  2.7537
  249MOL0     H33583   4.987   2.045   2.728  0.2407  0.4668  0.2476
  249MOL0     H33584   5.107   2.154   2.779  0.7933 -0.6129 -0.9760
  249MOL0     H33585   4.817   2.192   2.688  0.9699 -1.2653 -0.5022
  249MOL0     H33586   4.916   2.334   2.727 -0.2588 -0.1999 -1.0037
  249MOL0     H33587   4.959   2.259   2.957  1.8127 -2.3625 -0.1252
  249MOL0     H33588   4.851   2.119   2.924  0.1663 -0.3381 -1.8103
  249MOL0     H33589   4.766   2.417   2.921 -0.1308  0.8546  0.3366
  249MOL0     H33590   4.665   2.270   2.877 -0.6193  0.0076  0.3104
  249MOL0     H33591   4.791   2.341   3.140 -1.7544  1.1568  1.7972
  249MOL0     H33592   4.715   2.184   3.105 -3.8034 -1.1623 -0.1278
  249MOL0     H33593   4.555   2.323   3.223 -1.6278  0.9053  1.4336
  249MOL0     H33594   4.558   2.451   3.116  2.8137  0.4052 -0.3924
  249MOL0     H33595   5.442   2.038   2.488  1.6571 -2.7806  1.7933
  249MOL0     H33596   5.625   1.880   2.376 -0.0969  0.1813  2.2545
  249MOL0     H33597   5.631   1.596   1.990  0.1044 -0.6229 -0.2912
  249MOL0     H33598   5.757   1.443   1.838 -1.9706 -0.0893  4.3097
  249MOL0     H33599   7.145   1.417   3.029  1.2125 -0.2338 -1.1704
  249MOL0     H33600   7.279   1.402   3.216 -0.9656 -1.7098 -3.3786
  249MOL0     H33601   7.560   1.516   3.523 -0.2442 -0.4504  2.6528
  249MOL0     H33602   7.672   1.533   3.730  0.5380 -0.5946  0.9275
  249MOL0     H33603   7.712   1.668   3.897 -0.9282  2.4098  0.6523
  249MOL0     H33604   7.761   1.832   3.858  0.2552  0.4120  1.0745
  249MOL0     H33605   7.954   1.849   3.978 -0.1884  2.1842  5.0700
  249MOL0     H33606   7.957   1.688   4.017  0.7097  1.7334 -0.3811
  249MOL0     H33607   7.718   1.859   4.108  0.1947 -0.2127  1.2423
  249MOL0     H33608   7.868   1.832   4.200  4.0763 -0.9127 -2.0886
  249MOL0     H33609   7.698   1.599   4.104  0.0954  1.2664 -0.3104
  249MOL0     H33610   7.814   1.585   4.221 -0.6923 -0.3171  1.3535
  249MOL0     H33611   7.486   1.797   4.416 -1.2639 -1.9650  0.7858
  249MOL0     H33612   7.963   1.793   3.547 -1.8794  1.5631 -3.4486
  249MOL0     H33613   7.861   1.763   3.204 -2.4192 -1.9424  0.3369
  249MOL0     H33614   7.800   1.914   3.274  0.4188 -0.1257  0.7334
  249MOL0     H33615   7.960   1.862   3.318 -0.2332  0.0585  2.0381
  250MOL0     O33616   1.392  10.502   1.016 -0.8195 -0.1910 -0.4525
  250MOL0     C33617   1.349  10.389   1.042 -0.0914  0.1506  0.1051
  250MOL0     O33618   1.433  10.300   1.105 -0.1517  0.3751 -0.5299
  250MOL0     C33619   1.528  10.342   1.192  0.0632  0.3542  0.0053
  250MOL0     C33620   1.651  10.289   1.202 -0.5421  0.8268 -0.0419
  250MOL0     C33621   1.734  10.314   1.316  0.0582 -0.1058 -0.1768
  250MOL0     C33622   1.689  10.396   1.419  0.7492 -0.5302 -0.8144
  250MOL0     O33623   1.784  10.409   1.522 -0.3909 -0.2954 -0.0804
  250MOL0     C33624   1.749  10.409   1.658 -0.0566  0.5170 -1.0656
  250MOL0     C33625   1.743  10.547   1.737 -0.5609  0.7564  0.8101
  250MOL0     C33626   1.878  10.616   1.725  0.5337 -0.2797  0.4074
  250MOL0     C33627   1.952  10.592   1.855  0.3771  0.3540  0.0663
  250MOL0     C33628   2.101  10.569   1.847 -0.2952  0.2959 -0.2872
  250MOL0     C33629   2.156  10.592   1.993  0.5429 -0.2548 -0.0971
  250MOL0     C33630   2.306  10.557   2.007 -0.5304  0.6768  0.1010
  250MOL0     C33631   2.328  10.435   2.104  0.6673  0.8151 -0.5226
  250MOL0     N33632   2.472  10.412   2.141  0.4554  0.1611  0.1421
  250MOL0     C33633   2.579  10.484   2.090 -0.6342  0.4253  0.2747
  250MOL0     C33634   2.682  10.448   2.173  0.7829 -0.4919 -0.1732
  250MOL0     C33635   2.823  10.489   2.166 -0.5401  0.2898 -0.0398
  250MOL0     C33636   2.858  10.605   2.265  0.2365 -0.1992 -0.9279
  250MOL0     C33637   2.859  10.563   2.416 -0.8462  0.2275  0.3678
  250MOL0     C33638   2.999  10.517   2.465  0.6249 -0.0960  0.2961
  250MOL0     O33639   3.077  10.633   2.469  0.9482  0.1921 -0.5677
  250MOL0     C33640   3.209  10.625   2.510  0.0230  0.5658  0.3014
  250MOL0     C33641   3.281  10.511   2.554 -1.2032  0.5679  0.4862
  250MOL0     C33642   3.416  10.517   2.594  0.7049 -0.1640  1.5234
  250MOL0     C33643   3.482  10.638   2.583 -0.5520 -0.5140 -1.1179
  250MOL0     C33644   3.632  10.644   2.593  1.0398  0.7860  0.0464
  250MOL0     O33645   3.695  10.761   2.566 -0.8614 -0.3357 -0.4134
  250MOL0     C33646   3.826  10.758   2.526  0.0016 -0.0391  0.9984
  250MOL0     C33647   3.894  10.877   2.554  0.3703 -0.1568 -0.7192
  250MOL0     C33648   4.030  10.896   2.512 -0.2392 -0.1028 -0.5334
  250MOL0     C33649   4.090  10.796   2.429  0.2221 -0.6842 -0.9827
  250MOL0     O33650   4.216  10.829   2.381  0.4342  0.1093  0.5148
  250MOL0     C33651   4.319  10.731   2.404 -0.1869 -0.0401  0.1896
  250MOL0     C33652   4.447  10.785   2.352 -0.9477  0.2201 -0.5193
  250MOL0     C33653   4.469  10.934   2.389  0.6214 -0.5267  0.3165
  250MOL0     C33654   4.615  10.994   2.363  0.8358 -0.7148  0.2268
  250MOL0     C33655   4.700  11.032   2.481  0.0143  1.0476  0.7230
  250MOL0     C33656   4.773  10.909   2.552  0.2199  0.3303 -0.5727
  250MOL0     C33657   4.872  10.837   2.467  0.1837  0.3684  0.5552
  250MOL0     C33658   4.969  10.754   2.546 -0.5164 -0.2178  0.5946
  250MOL0    Cl33659   5.088  10.857   2.642 -0.4086  0.2939 -0.3243
  250MOL0     C33660   4.010  10.685   2.394 -0.1297  0.7290 -0.8173
  250MOL0     C33661   3.884  10.652   2.451  0.8613 -1.0069 -0.2934
  250MOL0     O33662   3.680  10.540   2.633  0.5545 -0.5774 -0.3053
  250MOL0     C33663   3.417  10.753   2.531  0.5045  0.1210 -0.2505
  250MOL0     C33664   3.285  10.744   2.505  1.1123  0.0056  0.5895
  250MOL0     N33665   2.625  10.374   2.277  0.0852  0.3591 -0.4275
  250MOL0     N33666   2.504  10.354   2.259  0.0708 -0.1303 -0.2303
  250MOL0     C33667   1.572  10.458   1.404  0.5557 -0.4293  0.1232
  250MOL0     C33668   1.489  10.438   1.290  0.5717  0.9113 -0.0528
  250MOL0     C33669   1.246  10.324   0.959 -0.2324  0.8430  0.4756
  250MOL0     C33670   1.258  10.337   0.819 -0.3292 -0.0314 -0.3753
  250MOL0     C33671   1.176  10.269   0.729  0.4336  0.1027  0.6878
  250MOL0     C33672   1.068  10.188   0.784  0.1857 -1.4228 -0.0346
  250MOL0     O33673   0.976  10.133   0.711 -0.2662 -0.4636  0.0064
  250MOL0     C33674   1.033  10.035   0.624  0.6713 -0.6936  0.6762
  250MOL0     C33675   1.054   9.902   0.708  0.2172 -0.2720  0.7817
  250MOL0     C33676   1.128   9.804   0.615 -0.3828 -0.4972  0.6492
  250MOL0     C33677   1.109   9.654   0.645  0.3000 -0.2693  0.0709
  250MOL0     C33678   0.970   9.609   0.638 -1.0290  0.4085 -0.2632
  250MOL0     C33679   0.861   9.574   0.640  0.6220 -0.6068 -0.7071
  250MOL0     C33680   1.072  10.156   0.918  0.5934 -0.2992  0.6174
  250MOL0     C33681   1.154  10.226   1.007  0.0606  0.2396 -0.5063
  250MOL0     C33682   1.147  10.183   1.152  0.2686 -0.6273  0.3250
  250MOL0     H33683   1.676  10.227   1.116 -0.0665 -2.1352  2.0521
  250MOL0     H33684   1.835  10.276   1.331 -0.6145 -0.9220  3.1591
  250MOL0     H33685   1.659  10.348   1.666  1.8454 -2.2682  1.0307
  250MOL0     H33686   1.831  10.358   1.710  1.6536  0.2240 -3.8614
  250MOL0     H33687   1.702  10.541   1.838 -1.7764  0.9126  0.3499
  250MOL0     H33688   1.674  10.613   1.683  0.7540  1.8339  0.4005
  250MOL0     H33689   1.851  10.721   1.720 -3.3164 -1.1392  0.4269
  250MOL0     H33690   1.938  10.584   1.639 -0.0736  0.3313 -0.2543
  250MOL0     H33691   1.934  10.676   1.923 -0.2520  0.1387  0.1795
  250MOL0     H33692   1.925  10.504   1.914  4.6198 -1.8958 -0.9525
  250MOL0     H33693   2.122  10.469   1.806  1.6944  0.8380 -0.6607
  250MOL0     H33694   2.150  10.643   1.783  0.7426  0.5984  0.8366
  250MOL0     H33695   2.152  10.701   2.002  1.9652  0.0214 -2.1282
  250MOL0     H33696   2.106  10.544   2.077  0.5721 -2.2839 -1.2001
  250MOL0     H33697   2.356  10.644   2.050 -1.1703  0.0402  2.2541
  250MOL0     H33698   2.335  10.545   1.902 -2.3236  1.7372 -0.5681
  250MOL0     H33699   2.274  10.458   2.196 -0.1007 -0.0785 -0.7348
  250MOL0     H33700   2.279  10.343   2.072 -1.7802  1.2598  1.6003
  250MOL0     H33701   2.575  10.556   2.008  0.5449 -2.1491 -2.2328
  250MOL0     H33702   2.878  10.398   2.194 -2.7923 -1.0579  0.2233
  250MOL0     H33703   2.857  10.502   2.063  0.9212 -2.5105 -0.0229
  250MOL0     H33704   2.947  10.666   2.245 -0.4304  0.5071 -1.8044
  250MOL0     H33705   2.766  10.664   2.262 -2.4959 -4.0678 -0.2136
  250MOL0     H33706   2.785  10.485   2.431 -1.2064  0.5077  0.0650
  250MOL0     H33707   2.828  10.643   2.483 -0.5808  1.2780 -0.7263
  250MOL0     H33708   3.055  10.453   2.396  0.5533  0.2535 -0.0904
  250MOL0     H33709   2.985  10.464   2.559  1.0796 -1.1232 -0.1930
  250MOL0     H33710   3.222  10.420   2.557 -0.9382  0.4195  2.0730
  250MOL0     H33711   3.477  10.428   2.602 -1.4581 -1.6158  3.2025
  250MOL0     H33712   3.848  10.961   2.605  2.2259  0.4232  0.0461
  250MOL0     H33713   4.096  10.975   2.547  1.9106 -2.0382  0.0078
  250MOL0     H33714   4.323  10.710   2.511 -3.8909 -1.2572  0.2428
  250MOL0     H33715   4.291  10.643   2.346  0.0862 -1.3908  2.0338
  250MOL0     H33716   4.537  10.731   2.383  1.5754  1.4723 -4.8072
  250MOL0     H33717   4.448  10.768   2.244 -1.3218  3.8781 -1.2345
  250MOL0     H33718   4.384  10.986   2.343 -1.4900 -4.1920 -0.2621
  250MOL0     H33719   4.475  10.938   2.498  0.0778 -3.8219  0.5506
  250MOL0     H33720   4.597  11.087   2.309 -1.3127 -0.9632  0.4336
  250MOL0     H33721   4.673  10.935   2.291  1.0095  0.4727 -0.6213
  250MOL0     H33722   4.639  11.094   2.548 -1.7761 -0.1854  0.3005
  250MOL0     H33723   4.775  11.097   2.436  0.9319 -1.3007 -1.3571
  250MOL0     H33724   4.819  10.950   2.642  3.1240 -0.1479 -1.7162
  250MOL0     H33725   4.698  10.834   2.580  0.2535  1.4488  3.0527
  250MOL0     H33726   4.920  10.907   2.397  2.3207 -1.1098  0.4616
  250MOL0     H33727   4.823  10.767   2.400  0.2333 -1.1010  1.9960
  250MOL0     H33728   4.918  10.675   2.601  0.4751 -1.0011  0.4095
  250MOL0     H33729   5.038  10.701   2.480 -1.3006 -1.0197  0.3918
  250MOL0     H33730   4.065  10.609   2.338 -1.0803 -0.1687 -0.5728
  250MOL0     H33731   3.817  10.570   2.426  0.0591 -0.4138 -0.1256
  250MOL0     H33732   3.465  10.850   2.515 -3.0729  1.7998 -1.9738
  250MOL0     H33733   3.225  10.833   2.488  1.2492  0.0846  0.5234
  250MOL0     H33734   1.541  10.527   1.482  2.2811  0.3810  0.1521
  250MOL0     H33735   1.394  10.491   1.300  1.3538  2.4346 -0.3676
  250MOL0     H33736   1.343  10.399   0.791  0.9396 -0.5660  2.0403
  250MOL0     H33737   1.192  10.279   0.622 -2.1598 -2.7596 -0.1183
  250MOL0     H33738   1.129  10.070   0.584  1.3757  0.2986  3.0585
  250MOL0     H33739   0.966  10.013   0.541  2.2974  2.7520 -1.7804
  250MOL0     H33740   0.952   9.870   0.733  0.1042 -1.0909 -0.5840
  250MOL0     H33741   1.108   9.910   0.803 -0.5736  1.8876  1.0874
  250MOL0     H33742   1.235   9.820   0.632 -0.5998  1.4493  0.3973
  250MOL0     H33743   1.095   9.826   0.513  0.8901 -1.3431  0.0203
  250MOL0     H33744   1.163   9.612   0.559  0.3421  1.2793 -0.6884
  250MOL0     H33745   1.155   9.614   0.736 -0.2047  1.1446  0.9792
  250MOL0     H33746   0.756   9.552   0.642  0.5479 -0.2821 -0.9737
  250MOL0     H33747   1.021  10.067   0.952 -0.3094 -0.3776 -0.8395
  250MOL0     H33748   1.140  10.268   1.222 -1.2552 -0.8569  0.4879
  250MOL0     H33749   1.059  10.122   1.174 -2.2644  2.8635  0.8949
  250MOL0     H33750   1.238  10.130   1.179  0.1362 -1.1881 -0.3130
  251MOL0     O33751   6.558  10.770   3.791 -0.0291 -0.1201  0.5298
  251MOL0     C33752   6.581  10.763   3.670 -0.1626  0.1941  0.3182
  251MOL0     O33753   6.488  10.778   3.572  0.3282 -0.0126 -0.0989
  251MOL0     C33754   6.357  10.775   3.618 -0.3651 -0.0129  0.0568
  251MOL0     C33755   6.277  10.662   3.613  0.3551  0.3694 -0.3308
  251MOL0     C33756   6.143  10.671   3.661  0.5497 -0.1999 -0.2037
  251MOL0     C33757   6.100  10.790   3.727  0.1888 -0.3289 -0.2178
  251MOL0     O33758   5.975  10.787   3.782  0.1479 -0.1567  0.2085
  251MOL0     C33759   5.934  10.881   3.885  0.6849  0.1727  0.3705
  251MOL0     C33760   5.778  10.850   3.913 -0.1303 -0.4494  0.4878
  251MOL0     C33761   5.701  10.891   3.787  0.3072  0.1479  0.2033
  251MOL0     C33762   5.573  10.802   3.758 -0.2361 -0.6219 -0.5823
  251MOL0     C33763   5.518  10.837   3.623 -0.1423  0.1382 -0.0561
  251MOL0     C33764   5.405  10.758   3.568  0.8252  0.0317  0.4994
  251MOL0     C33765   5.319  10.707   3.668  0.1430  0.3845  1.0573
  251MOL0     C33766   5.187  10.662   3.605  0.3669 -0.4086 -0.1466
  251MOL0     N33767   5.198  10.550   3.515  1.0997 -0.1622  0.2012
  251MOL0     C33768   5.192  10.561   3.373  0.1911 -0.5680  0.3006
  251MOL0     C33769   5.175  10.440   3.325  0.2463 -0.2052  0.2072
  251MOL0     C33770   5.179  10.406   3.174  0.4514  0.1395 -1.4574
  251MOL0     C33771   5.291  10.309   3.134 -0.3817  0.1869  0.0316
  251MOL0     C33772   5.245  10.173   3.175 -1.3715  0.1956 -0.2324
  251MOL0     C33773   5.355  10.075   3.151 -0.5280 -0.1605 -0.0328
  251MOL0     O33774   5.474  10.113   3.225  0.2731  0.7921 -0.3164
  251MOL0     C33775   5.499  10.046   3.347  0.3503  0.2161  1.4080
  251MOL0     C33776   5.394   9.991   3.423 -0.5495 -0.1746  0.0806
  251MOL0     C33777   5.432   9.931   3.541  0.7407 -0.4280 -0.2118
  251MOL0     C33778   5.564   9.892   3.565  0.6560  0.1617 -0.1663
  251MOL0     C33779   5.598   9.807   3.675 -0.2276 -0.0406 -0.8984
  251MOL0     O33780   5.497   9.717   3.710  0.0645  0.3627 -0.0247
  251MOL0     C33781   5.545   9.597   3.766  0.9577 -1.1133 -0.2761
  251MOL0     C33782   5.614   9.591   3.883 -0.3598  0.8207 -0.1862
  251MOL0     C33783   5.655   9.473   3.942  0.0675  0.1318 -0.0505
  251MOL0     C33784   5.627   9.356   3.873  0.2402  0.7258 -0.7146
  251MOL0     O33785   5.668   9.234   3.934 -0.7739  0.0510 -0.2885
  251MOL0     C33786   5.811   9.229   3.956 -0.4077 -0.7154 -0.5929
  251MOL0     C33787   5.862   9.088   3.986 -0.1272 -0.0644  0.6235
  251MOL0     C33788   5.838   8.980   3.871  0.0354 -0.1810 -0.3525
  251MOL0     C33789   5.834   8.829   3.907 -1.3016  0.1298  0.2206
  251MOL0     C33790   5.727   8.758   3.831  0.9509  0.8740 -0.0889
  251MOL0     C33791   5.753   8.748   3.682  0.2767 -0.2426  0.0973
  251MOL0     C33792   5.623   8.691   3.615 -1.1876 -0.0537  0.9856
  251MOL0     C33793   5.619   8.717   3.463  0.8050 -0.7535 -0.2804
  251MOL0    Cl33794   5.750   8.611   3.391  0.3133  0.2262  0.1052
  251MOL0     C33795   5.563   9.359   3.750  1.1801  0.0284  0.2113
  251MOL0     C33796   5.513   9.484   3.704  0.4359  1.1391  0.9412
  251MOL0     O33797   5.700   9.835   3.741 -0.1548 -0.4282 -0.1344
  251MOL0     C33798   5.671   9.933   3.475  0.5153 -0.7177 -0.7545
  251MOL0     C33799   5.631  10.016   3.371 -0.7408  0.0477 -0.4095
  251MOL0     N33800   5.166  10.359   3.434 -0.9547  1.0486  0.6041
  251MOL0     N33801   5.194  10.418   3.551 -0.0582 -0.0169  1.1639
  251MOL0     C33802   6.181  10.901   3.720  0.4397 -0.7308  0.4263
  251MOL0     C33803   6.306  10.900   3.658  0.3905  0.1907 -0.4914
  251MOL0     C33804   6.721  10.737   3.617 -0.3588  0.3596 -0.6967
  251MOL0     C33805   6.834  10.775   3.701 -0.6365 -0.1714  0.5358
  251MOL0     C33806   6.969  10.752   3.650  1.1089  0.4624  0.6482
  251MOL0     C33807   6.993  10.688   3.529  0.0854 -0.2846 -0.9455
  251MOL0     O33808   7.125  10.656   3.503  0.0517  0.0564  0.1990
  251MOL0     C33809   7.160  10.583   3.392  1.1433  0.0716  0.0688
  251MOL0     C33810   7.310  10.574   3.375 -0.4673  0.5696 -0.2983
  251MOL0     C33811   7.385  10.508   3.495 -0.2830  0.1105 -0.3047
  251MOL0     C33812   7.526  10.476   3.440 -1.0032 -0.4075 -0.0359
  251MOL0     C33813   7.586  10.363   3.516 -0.5921  0.6445 -0.4999
  251MOL0     C33814   7.622  10.267   3.582 -0.0743 -0.5867  0.8439
  251MOL0     C33815   6.885  10.652   3.449  0.1129 -0.9619 -0.4277
  251MOL0     C33816   6.753  10.667   3.491  0.0506 -0.2014  0.3237
  251MOL0     C33817   6.639  10.609   3.399 -0.0201 -0.8535 -0.1050
  251MOL0     H33818   6.303  10.566   3.569  1.2404  1.5338 -2.4856
  251MOL0     H33819   6.070  10.591   3.674 -1.1402  1.5062  1.5240
  251MOL0     H33820   5.990  10.870   3.979 -2.7830 -2.3697  2.3798
  251MOL0     H33821   5.950  10.981   3.844  3.4705  0.0142  0.8612
  251MOL0     H33822   5.739  10.892   4.006 -0.6666 -0.8286  0.4372
  251MOL0     H33823   5.764  10.743   3.930 -0.7871 -0.6788 -1.2371
  251MOL0     H33824   5.757  10.872   3.696 -0.6931 -0.5494 -0.2897
  251MOL0     H33825   5.663  10.993   3.797 -0.2892  0.0912 -1.2942
  251MOL0     H33826   5.614  10.700   3.752  1.2485 -0.0928  0.0006
  251MOL0     H33827   5.500  10.825   3.835 -2.0137 -0.5970 -2.1976
  251MOL0     H33828   5.489  10.942   3.629  3.3736  1.3751 -1.9104
  251MOL0     H33829   5.601  10.846   3.552 -0.0568  0.3051  0.0646
  251MOL0     H33830   5.346  10.824   3.503 -1.1178  0.3147  2.4111
  251MOL0     H33831   5.451  10.681   3.505 -1.8826 -1.0689 -0.3115
  251MOL0     H33832   5.298  10.782   3.744  0.5021  1.2894  0.2856
  251MOL0     H33833   5.365  10.629   3.728  2.4814  1.0002  0.1933
  251MOL0     H33834   5.129  10.624   3.689 -0.9324  1.9115  0.0797
  251MOL0     H33835   5.128  10.742   3.559 -1.0220 -0.7824  0.9205
  251MOL0     H33836   5.212  10.654   3.319 -1.5851 -0.7222 -0.7016
  251MOL0     H33837   5.080  10.370   3.144 -0.6357  1.7539  0.0380
  251MOL0     H33838   5.201  10.492   3.109  0.7875 -1.4510 -3.5569
  251MOL0     H33839   5.319  10.313   3.029  0.3094 -0.6574  0.1758
  251MOL0     H33840   5.385  10.339   3.182  0.6535  0.2073 -1.9306
  251MOL0     H33841   5.150  10.139   3.133 -2.7855 -0.1604  2.9666
  251MOL0     H33842   5.230  10.166   3.283  2.0760  1.8277  0.4814
  251MOL0     H33843   5.377  10.069   3.044  0.5638 -2.1536  0.2560
  251MOL0     H33844   5.322   9.974   3.178 -0.3369  0.6833  4.0518
  251MOL0     H33845   5.290  10.011   3.402 -0.0463  1.1046 -1.4023
  251MOL0     H33846   5.353   9.897   3.608 -0.8126 -0.8640 -2.1628
  251MOL0     H33847   5.627   9.681   3.943 -1.3515 -0.7613  2.5847
  251MOL0     H33848   5.705   9.460   4.037 -0.4171 -0.8817  0.0784
  251MOL0     H33849   5.864   9.258   3.865 -1.5833  0.1766 -1.0169
  251MOL0     H33850   5.835   9.298   4.037  2.1894 -0.7627 -1.2310
  251MOL0     H33851   5.967   9.098   4.015  0.0507  3.9689 -0.7643
  251MOL0     H33852   5.804   9.054   4.072 -2.1691  2.5213  0.3791
  251MOL0     H33853   5.746   9.003   3.817  1.0068  0.6273 -1.7289
  251MOL0     H33854   5.921   8.996   3.802  0.6689  5.0700  1.1313
  251MOL0     H33855   5.808   8.828   4.014  1.2901  0.8848  0.9422
  251MOL0     H33856   5.935   8.788   3.899 -1.4317 -0.4683  1.4528
  251MOL0     H33857   5.629   8.802   3.850  0.9982 -0.0527  2.8295
  251MOL0     H33858   5.722   8.655   3.869 -1.6266  1.2340  0.7273
  251MOL0     H33859   5.768   8.844   3.632 -0.3658 -0.1126  0.1451
  251MOL0     H33860   5.834   8.688   3.641  0.4179  0.0520 -0.0602
  251MOL0     H33861   5.534   8.736   3.661 -3.2541 -0.6835 -2.0195
  251MOL0     H33862   5.619   8.582   3.630  3.8853 -0.6634 -0.2435
  251MOL0     H33863   5.522   8.673   3.438  0.1808 -1.0620  2.3821
  251MOL0     H33864   5.620   8.825   3.446  0.0019 -0.4890  1.1461
  251MOL0     H33865   5.540   9.274   3.687 -0.6502 -1.1725  2.3804
  251MOL0     H33866   5.441   9.479   3.623  0.3165  0.0511  1.0996
  251MOL0     H33867   5.775   9.907   3.491  0.8662  1.1349  0.3167
  251MOL0     H33868   5.704  10.054   3.301  0.3354  1.3119  1.3053
  251MOL0     H33869   6.147  10.991   3.771 -0.1900 -0.8291  0.1873
  251MOL0     H33870   6.377  10.982   3.660 -0.1085  0.7313 -2.2717
  251MOL0     H33871   6.823  10.803   3.805 -0.2211 -1.6975  1.0287
  251MOL0     H33872   7.050  10.764   3.720 -0.0555 -2.5771  2.7261
  251MOL0     H33873   7.112  10.627   3.304  1.3418  1.4269  0.6181
  251MOL0     H33874   7.105  10.488   3.393  0.7403  0.2776 -1.2265
  251MOL0     H33875   7.333  10.679   3.355 -0.7493  0.6303 -0.3119
  251MOL0     H33876   7.332  10.519   3.283  0.4610 -0.6872  0.6488
  251MOL0     H33877   7.331  10.415   3.515 -0.2821  0.2768  0.4909
  251MOL0     H33878   7.382  10.579   3.578 -2.0976  1.2391 -1.2671
  251MOL0     H33879   7.533  10.448   3.334 -0.9352 -0.1430 -0.1024
  251MOL0     H33880   7.585  10.567   3.449 -0.6860 -0.7066  0.9952
  251MOL0     H33881   7.635  10.183   3.648  0.4506 -0.1525  1.3100
  251MOL0     H33882   6.915  10.618   3.351  0.1350 -1.9491 -0.0860
  251MOL0     H33883   6.584  10.695   3.360  1.1457 -0.4733 -0.9385
  251MOL0     H33884   6.670  10.547   3.315  3.1906 -2.4746  2.0588
  251MOL0     H33885   6.575  10.550   3.466 -2.0454 -0.0625 -1.2453
  252MOL0     O33886   6.871   3.194   3.867  0.2924 -0.4424 -0.1463
  252MOL0     C33887   6.969   3.150   3.803 -0.4863  1.0810  0.5651
  252MOL0     O33888   7.094   3.187   3.828  0.4559  0.1521 -0.0881
  252MOL0     C33889   7.126   3.303   3.891 -0.0393 -0.6589  0.0482
  252MOL0     C33890   7.214   3.296   3.999  0.3506 -0.8422 -0.8831
  252MOL0     C33891   7.234   3.417   4.079  0.4997  0.8335  0.0026
  252MOL0     C33892   7.179   3.532   4.037 -0.4779  0.4374  0.3922
  252MOL0     O33893   7.230   3.629   4.102  0.2362 -0.1191  0.0514
  252MOL0     C33894   7.148   3.748   4.118 -1.0033 -0.0592  0.3314
  252MOL0     C33895   7.205   3.864   4.186  0.3400 -1.2874  1.0121
  252MOL0     C33896   7.245   3.839   4.323  0.2142  0.7522 -0.5342
  252MOL0     C33897   7.274   3.963   4.411  0.1262  0.5348 -0.0673
  252MOL0     C33898   7.315   3.944   4.553 -0.0467 -0.3930  0.0842
  252MOL0     C33899   7.231   4.022   4.645  0.4535 -0.0224 -0.2294
  252MOL0     C33900   7.239   4.169   4.644  0.1041 -0.1530  0.1182
  252MOL0     C33901   7.149   4.256   4.743  0.2340 -0.3932 -0.1307
  252MOL0     N33902   7.165   4.201   4.879 -0.3029  0.0832  0.9896
  252MOL0     C33903   7.107   4.087   4.926  0.7252 -0.8795 -0.4431
  252MOL0     C33904   7.163   4.067   5.050 -0.2616  0.1866  0.1266
  252MOL0     C33905   7.131   3.969   5.167  0.2562  0.4751  0.5338
  252MOL0     C33906   7.151   3.834   5.109 -0.5118 -0.8764 -0.1585
  252MOL0     C33907   7.296   3.789   5.090 -1.3174  0.1524 -0.7737
  252MOL0     C33908   7.390   3.773   5.218  0.3816 -1.1108 -0.5318
  252MOL0     O33909   7.350   3.667   5.307  0.5287 -0.3070  0.4079
  252MOL0     C33910   7.425   3.553   5.310  0.3201  0.3833  1.1347
  252MOL0     C33911   7.555   3.557   5.339 -0.5175 -0.4701  0.7347
  252MOL0     C33912   7.629   3.441   5.341  0.4339 -0.4058  0.1361
  252MOL0     C33913   7.563   3.316   5.319 -0.6481  1.0966 -0.4571
  252MOL0     C33914   7.640   3.183   5.316  0.6641 -0.0384 -0.3871
  252MOL0     O33915   7.566   3.068   5.330 -0.9119  0.5359 -0.7951
  252MOL0     C33916   7.652   2.958   5.347  0.1993  0.7428 -0.2394
  252MOL0     C33917   7.690   2.921   5.477  0.3707 -0.3537  0.3288
  252MOL0     C33918   7.763   2.804   5.492  0.2428  0.7718  0.1750
  252MOL0     C33919   7.776   2.712   5.380  0.9916  0.2969  0.8088
  252MOL0     O33920   7.833   2.583   5.399 -0.2254  0.0347  0.8186
  252MOL0     C33921   7.892   2.539   5.532  1.0007 -0.2834 -0.0131
  252MOL0     C33922   7.940   2.400   5.508  0.0991 -0.0920  0.1531
  252MOL0     C33923   8.059   2.394   5.412 -0.0722  0.1122  0.4838
  252MOL0     C33924   8.164   2.493   5.454  0.5242  0.0945 -0.1894
  252MOL0     C33925   8.303   2.448   5.420 -0.4007  0.5703  0.2951
  252MOL0     C33926   8.422   2.533   5.453 -0.3532  0.3740  0.5667
  252MOL0     C33927   8.542   2.521   5.362  0.7529 -0.5795 -0.5729
  252MOL0     C33928   8.527   2.592   5.225 -0.3935  0.7348 -0.1716
  252MOL0    Cl33929   8.615   2.501   5.097  0.2525 -0.6019 -0.0308
  252MOL0     C33930   7.724   2.747   5.255 -0.1879 -0.2522  0.5033
  252MOL0     C33931   7.658   2.864   5.239  0.2382  0.1769  0.3561
  252MOL0     O33932   7.765   3.194   5.301 -0.3978 -0.6331 -1.2492
  252MOL0     C33933   7.428   3.305   5.308  0.1383  0.0704 -0.0352
  252MOL0     C33934   7.357   3.427   5.301  0.3225 -0.2654 -0.1681
  252MOL0     N33935   7.255   4.162   5.063 -0.3962 -0.8307 -1.6173
  252MOL0     N33936   7.262   4.243   4.962  0.4798  0.4616  0.8537
  252MOL0     C33937   7.100   3.542   3.920 -0.0206 -0.2078  0.4178
  252MOL0     C33938   7.071   3.425   3.848  0.2165  0.2234  0.1442
  252MOL0     C33939   6.945   3.071   3.676  0.5510  0.4379 -0.7410
  252MOL0     C33940   6.817   3.080   3.612  0.2517  1.3235  1.0923
  252MOL0     C33941   6.798   3.031   3.478  0.0780 -0.1652 -0.2387
  252MOL0     C33942   6.894   2.949   3.416  0.3884 -0.4737  0.0917
  252MOL0     O33943   6.880   2.912   3.286  0.4309 -0.2637  1.1192
  252MOL0     C33944   6.755   2.935   3.210  0.5309 -0.4756 -0.3062
  252MOL0     C33945   6.748   2.883   3.065 -0.1680 -0.1747 -0.3899
  252MOL0     C33946   6.702   2.737   3.060 -0.0656  0.6396  0.3690
  252MOL0     C33947   6.702   2.667   2.923  0.2917 -0.3915  0.1514
  252MOL0     C33948   6.616   2.752   2.833  0.9443  0.6534 -0.1086
  252MOL0     C33949   6.548   2.821   2.766  0.0335 -0.9215  0.1446
  252MOL0     C33950   7.015   2.939   3.490  0.1327 -0.9604 -0.2041
  252MOL0     C33951   7.040   2.996   3.612  0.2114  0.3937 -0.0508
  252MOL0     C33952   7.172   2.957   3.670  0.5095  0.5600 -0.9221
  252MOL0     H33953   7.254   3.198   4.022 -0.1556 -0.9124 -0.2755
  252MOL0     H33954   7.294   3.420   4.170  0.6817  1.7017 -0.1415
  252MOL0     H33955   7.111   3.781   4.020  1.2794  0.0463 -0.5484
  252MOL0     H33956   7.065   3.714   4.179 -1.3881 -3.0344 -1.6646
  252MOL0     H33957   7.132   3.944   4.199 -0.2744 -1.9679  1.8842
  252MOL0     H33958   7.290   3.904   4.130  1.4185 -0.3184  3.2358
  252MOL0     H33959   7.331   3.772   4.325 -0.6912 -0.7255  4.8405
  252MOL0     H33960   7.174   3.778   4.380  1.1620  1.3842  1.4220
  252MOL0     H33961   7.349   4.018   4.353  0.1497  2.2870  1.5099
  252MOL0     H33962   7.177   4.013   4.414  0.3612  1.0936 -1.0949
  252MOL0     H33963   7.299   3.840   4.581 -0.3783  0.6076  4.2178
  252MOL0     H33964   7.419   3.976   4.563 -0.2096  0.2801 -0.2982
  252MOL0     H33965   7.132   3.976   4.649  1.0326 -1.2544  2.5949
  252MOL0     H33966   7.287   4.000   4.736  0.9148  1.2338 -0.1938
  252MOL0     H33967   7.199   4.185   4.543 -0.7899 -2.1069  0.1181
  252MOL0     H33968   7.335   4.219   4.660 -0.2302 -0.2566  2.8330
  252MOL0     H33969   7.181   4.360   4.743  1.0963 -0.6511  0.0931
  252MOL0     H33970   7.047   4.239   4.707  0.1692 -0.9866  0.3180
  252MOL0     H33971   7.020   4.038   4.883 -0.0827  2.4220 -2.9207
  252MOL0     H33972   7.204   3.975   5.248  1.3470  2.1277 -0.5217
  252MOL0     H33973   7.030   3.979   5.209 -0.1318  2.2986 -0.7226
  252MOL0     H33974   7.097   3.765   5.175 -1.0393  0.6950  1.1554
  252MOL0     H33975   7.093   3.826   5.017  0.1985  1.0618 -0.8166
  252MOL0     H33976   7.345   3.841   5.007 -0.2106 -1.4942 -1.1917
  252MOL0     H33977   7.289   3.686   5.056  0.5502 -0.2566 -0.0445
  252MOL0     H33978   7.384   3.867   5.272  0.7881 -0.3990 -1.6856
  252MOL0     H33979   7.495   3.764   5.189  0.7850 -1.5012  0.9552
  252MOL0     H33980   7.611   3.646   5.367 -0.3181  0.1228 -1.3860
  252MOL0     H33981   7.735   3.444   5.366  1.1846  1.8497 -2.7245
  252MOL0     H33982   7.667   2.984   5.563  1.1456 -0.8596  0.9124
  252MOL0     H33983   7.824   2.788   5.580  0.4071 -1.5624 -0.3129
  252MOL0     H33984   7.974   2.603   5.565 -0.8726  1.6919  1.0025
  252MOL0     H33985   7.817   2.543   5.612  2.1388  1.8859  1.0092
  252MOL0     H33986   7.949   2.365   5.612  0.6468  0.1960  0.2001
  252MOL0     H33987   7.871   2.336   5.451  0.6986 -3.3866  2.7614
  252MOL0     H33988   8.112   2.299   5.401  0.1981  0.0636  2.0399
  252MOL0     H33989   8.032   2.429   5.312  1.7914  1.4330  0.4020
  252MOL0     H33990   8.153   2.518   5.560 -2.2569  0.8752 -0.5609
  252MOL0     H33991   8.150   2.590   5.405  0.0229 -0.9506 -2.2218
  252MOL0     H33992   8.300   2.434   5.311  1.3558  1.8859  0.0386
  252MOL0     H33993   8.327   2.346   5.451  1.2024  0.7923 -0.1526
  252MOL0     H33994   8.369   2.629   5.450  2.1981  1.9607  1.9472
  252MOL0     H33995   8.443   2.506   5.557 -4.9231 -1.8128  1.1391
  252MOL0     H33996   8.546   2.412   5.352 -3.6622 -1.5772  4.3032
  252MOL0     H33997   8.624   2.548   5.429  1.0757 -3.2990  0.2437
  252MOL0     H33998   8.426   2.619   5.194 -0.2373 -0.5371 -1.9481
  252MOL0     H33999   8.577   2.689   5.238 -0.6405  0.7130  1.0543
  252MOL0     H34000   7.736   2.666   5.184  2.0055  1.8281 -1.6905
  252MOL0     H34001   7.607   2.874   5.144  0.6848 -1.2789 -0.0618
  252MOL0     H34002   7.381   3.209   5.291  0.4420 -0.4733  1.9721
  252MOL0     H34003   7.251   3.439   5.283  0.1710 -0.2796  0.6913
  252MOL0     H34004   7.073   3.642   3.888  0.2624  1.0837  3.8444
  252MOL0     H34005   7.006   3.429   3.761  0.6574 -2.0633 -0.3502
  252MOL0     H34006   6.739   3.131   3.668  0.2402  0.0451  2.3218
  252MOL0     H34007   6.704   3.052   3.428  0.4692  0.0619 -0.8875
  252MOL0     H34008   6.751   3.045   3.209  1.7036 -0.1895  4.1933
  252MOL0     H34009   6.670   2.887   3.258  0.3393 -0.5638 -0.7275
  252MOL0     H34010   6.849   2.897   3.026  1.0409 -3.4135  1.1909
  252MOL0     H34011   6.671   2.943   3.016  0.2887  0.7751  0.0334
  252MOL0     H34012   6.603   2.725   3.105 -0.4529 -1.8174 -0.9507
  252MOL0     H34013   6.772   2.682   3.123 -2.1161 -2.7636 -0.0822
  252MOL0     H34014   6.803   2.663   2.881  2.0085  1.9974  3.5878
  252MOL0     H34015   6.656   2.570   2.944 -0.5436 -0.2439 -0.8843
  252MOL0     H34016   6.492   2.880   2.696  4.5010  2.0224 -1.3187
  252MOL0     H34017   7.094   2.884   3.439  1.2490  0.5285 -0.1520
  252MOL0     H34018   7.252   3.028   3.648  1.8776  1.1354  4.6131
  252MOL0     H34019   7.161   2.954   3.778  4.7044  1.3430 -0.3011
  252MOL0     H34020   7.210   2.859   3.639 -0.8490 -0.1632 -0.4218
  253MOL0     O34021   6.031   7.987  10.150  0.1790  0.4069  1.2193
  253MOL0     C34022   6.019   7.920  10.254 -0.5237  0.3607  0.4550
  253MOL0     O34023   6.022   7.790  10.275 -0.1129 -0.2505 -0.1248
  253MOL0     C34024   6.042   7.716  10.168 -0.7588  0.2984  0.2464
  253MOL0     C34025   6.166   7.656  10.146 -0.1419 -0.1701  0.3707
  253MOL0     C34026   6.190   7.582  10.029  0.9919 -1.3681 -0.0913
  253MOL0     C34027   6.092   7.591   9.923 -0.9805  0.2884 -0.1160
  253MOL0     O34028   6.135   7.557   9.798  0.8451  0.1890 -0.5509
  253MOL0     C34029   6.067   7.458   9.728  0.6683 -0.0775  0.0260
  253MOL0     C34030   6.168   7.369   9.651  0.2480 -0.3713  0.0090
  253MOL0     C34031   6.250   7.276   9.753  0.5062  0.3890  0.5937
  253MOL0     C34032   6.164   7.154   9.796  0.2036 -1.0342  0.5167
  253MOL0     C34033   6.256   7.049   9.859  0.1873  0.5275  0.1137
  253MOL0     C34034   6.349   6.972   9.762  0.3612 -0.6559 -0.1853
  253MOL0     C34035   6.267   6.896   9.661 -0.4693 -0.0136  0.5880
  253MOL0     C34036   6.358   6.785   9.585  0.4971 -0.4745 -0.2592
  253MOL0     N34037   6.274   6.707   9.491 -0.8950 -0.0443 -0.2799
  253MOL0     C34038   6.141   6.734   9.443  0.6051 -0.3016  0.3865
  253MOL0     C34039   6.113   6.636   9.357 -0.6271  0.8676  0.8062
  253MOL0     C34040   5.975   6.614   9.311  0.9458  0.1256  0.1459
  253MOL0     C34041   5.957   6.493   9.232  0.2501  0.7324 -0.4200
  253MOL0     C34042   5.811   6.490   9.184  0.3529 -0.4714 -0.2852
  253MOL0     C34043   5.771   6.353   9.120 -0.2169 -0.1925  0.1900
  253MOL0     O34044   5.644   6.301   9.174  0.8048 -0.2291  1.0259
  253MOL0     C34045   5.588   6.194   9.106 -0.3804  0.2790 -0.3877
  253MOL0     C34046   5.647   6.086   9.034 -0.0376 -0.5790 -0.4350
  253MOL0     C34047   5.574   5.986   8.968  0.0144 -0.2740  0.0676
  253MOL0     C34048   5.432   5.993   8.966 -0.8689 -0.0889  0.3005
  253MOL0     C34049   5.346   5.902   8.893 -0.8162  0.4374 -0.1452
  253MOL0     O34050   5.426   5.819   8.821 -0.0546  0.3211  0.0571
  253MOL0     C34051   5.377   5.705   8.768  0.9114  0.0449 -0.0755
  253MOL0     C34052   5.313   5.700   8.643  0.2561 -0.7868 -1.0497
  253MOL0     C34053   5.267   5.583   8.589  0.1332 -0.3571  1.5547
  253MOL0     C34054   5.265   5.462   8.662  0.3032 -0.0787 -0.1917
  253MOL0     O34055   5.223   5.344   8.607  0.2556 -0.9971 -0.6038
  253MOL0     C34056   5.205   5.319   8.469 -0.1946  0.2588 -0.2926
  253MOL0     C34057   5.056   5.345   8.442  1.0510 -0.1395  1.1301
  253MOL0     C34058   4.996   5.229   8.356 -0.1078 -0.4279  0.2739
  253MOL0     C34059   5.083   5.215   8.235  1.3305 -0.0870  0.7074
  253MOL0     C34060   4.983   5.157   8.124  0.1064  0.0663 -0.7140
  253MOL0     C34061   5.039   5.182   7.987 -0.2954  0.5560 -0.4415
  253MOL0     C34062   4.922   5.188   7.894  0.4535  0.8219  1.0030
  253MOL0     C34063   4.979   5.211   7.752  0.5885  0.0115  0.0913
  253MOL0    Cl34064   4.845   5.200   7.626 -0.1616 -0.1298  0.0340
  253MOL0     C34065   5.327   5.467   8.794  0.8542 -0.2675  0.5597
  253MOL0     C34066   5.378   5.585   8.844  1.2880 -1.1443 -0.2226
  253MOL0     O34067   5.222   5.894   8.899 -0.9866  0.6683  0.1196
  253MOL0     C34068   5.372   6.091   9.041 -0.5230 -0.7919  0.1179
  253MOL0     C34069   5.455   6.190   9.110  0.0759  0.3371  0.1674
  253MOL0     N34070   6.225   6.566   9.332  0.2592  0.9905  0.3075
  253MOL0     N34071   6.318   6.605   9.419  0.0461  0.0778  0.0225
  253MOL0     C34072   5.967   7.642   9.945 -0.9108 -0.1841 -0.2530
  253MOL0     C34073   5.948   7.712  10.063 -0.4716  0.3176 -0.6782
  253MOL0     C34074   6.014   8.004  10.372  0.1963 -0.2985 -0.5195
  253MOL0     C34075   6.090   7.959  10.485 -0.1050 -0.6606  0.4089
  253MOL0     C34076   6.091   8.035  10.599  0.1601  0.2490 -0.2644
  253MOL0     C34077   6.005   8.141  10.622  0.0530 -0.2930 -0.2691
  253MOL0     O34078   5.998   8.217  10.734  0.0594 -0.8914 -0.3098
  253MOL0     C34079   6.089   8.201  10.851 -0.1480  0.2089 -0.1901
  253MOL0     C34080   6.219   8.278  10.827  0.0173 -0.0213  0.4814
  253MOL0     C34081   6.188   8.431  10.821 -0.0357  0.1115  0.3133
  253MOL0     C34082   6.307   8.508  10.778 -0.3542  0.3183 -0.9763
  253MOL0     C34083   6.325   8.513  10.635 -0.4009  0.3063  0.1585
  253MOL0     C34084   6.372   8.495  10.528 -0.1236  0.5776 -0.0141
  253MOL0     C34085   5.924   8.182  10.522 -0.2187 -0.2512  0.4599
  253MOL0     C34086   5.930   8.121  10.396  0.5207  0.6536 -0.9299
  253MOL0     C34087   5.840   8.172  10.285 -0.5562  0.5223 -0.4536
  253MOL0     H34088   6.235   7.661  10.230 -2.4544 -0.6755  2.4038
  253MOL0     H34089   6.289   7.539  10.018  2.0322  0.2809  2.0067
  253MOL0     H34090   6.007   7.385   9.783 -1.0243  1.3402  0.1544
  253MOL0     H34091   5.999   7.510   9.660 -2.4269 -0.1757  2.7780
  253MOL0     H34092   6.241   7.435   9.603  0.5059 -0.6540  0.0022
  253MOL0     H34093   6.120   7.306   9.575 -1.8301 -0.4833  1.3519
  253MOL0     H34094   6.287   7.335   9.838  2.4181 -0.7008  0.5765
  253MOL0     H34095   6.340   7.246   9.698 -0.1143 -1.4200  0.5005
  253MOL0     H34096   6.080   7.183   9.860 -1.9205  0.3301 -2.6096
  253MOL0     H34097   6.107   7.117   9.710  0.1539  2.6297 -1.2224
  253MOL0     H34098   6.309   7.091   9.945 -0.5677 -0.0318  0.8627
  253MOL0     H34099   6.197   6.971   9.907 -0.8129  0.8658 -0.5479
  253MOL0     H34100   6.418   7.041   9.711 -0.5944  0.8478  0.4786
  253MOL0     H34101   6.408   6.904   9.825  0.4358  0.3714  0.9094
  253MOL0     H34102   6.204   6.964   9.604  0.3772 -0.2166 -0.6230
  253MOL0     H34103   6.199   6.829   9.715  0.8916 -2.6422 -0.7515
  253MOL0     H34104   6.433   6.848   9.537 -0.5331  0.1876 -1.0325
  253MOL0     H34105   6.406   6.727   9.665 -0.9066  1.2709  1.9854
  253MOL0     H34106   6.079   6.818   9.473 -2.3511 -2.2080  0.0362
  253MOL0     H34107   5.902   6.617   9.393 -0.0152  1.4953 -0.7166
  253MOL0     H34108   5.940   6.698   9.250 -2.8125 -0.8994  0.6451
  253MOL0     H34109   6.041   6.494   9.162  0.4080 -1.2882 -0.3001
  253MOL0     H34110   5.970   6.395   9.278 -1.3454 -0.5254 -2.4866
  253MOL0     H34111   5.801   6.562   9.102  4.9439 -0.0595 -0.8022
  253MOL0     H34112   5.748   6.504   9.271 -1.0691  0.6467 -1.4483
  253MOL0     H34113   5.853   6.281   9.126 -0.8101 -1.5497 -4.1285
  253MOL0     H34114   5.754   6.381   9.015 -0.2695  1.1174  0.5262
  253MOL0     H34115   5.755   6.098   9.026 -0.3309  1.7213 -1.7342
  253MOL0     H34116   5.619   5.912   8.904 -2.9861 -0.4207 -2.0353
  253MOL0     H34117   5.326   5.785   8.577  3.0995 -2.0108 -2.1758
  253MOL0     H34118   5.229   5.595   8.488 -1.9442  0.4213  2.3767
  253MOL0     H34119   5.281   5.387   8.430  1.5592 -0.5276  1.6018
  253MOL0     H34120   5.236   5.217   8.445  3.1646  1.1730 -0.3117
  253MOL0     H34121   5.008   5.352   8.540 -0.1545  2.8688  0.4267
  253MOL0     H34122   5.041   5.437   8.385 -0.6436 -1.2468 -0.3379
  253MOL0     H34123   4.996   5.136   8.412 -1.1785 -1.8154 -1.8658
  253MOL0     H34124   4.889   5.249   8.339  0.2051  1.9696  0.7523
  253MOL0     H34125   5.171   5.151   8.247  1.6970  0.3423  0.3206
  253MOL0     H34126   5.117   5.313   8.202  1.0444  0.9239  3.2145
  253MOL0     H34127   4.896   5.223   8.124 -0.4341 -0.5977  1.3159
  253MOL0     H34128   4.951   5.055   8.146  2.1964 -0.1595  1.6837
  253MOL0     H34129   5.082   5.282   7.979  1.4000 -0.0206  0.8048
  253MOL0     H34130   5.104   5.096   7.967 -0.2616  0.8466 -1.6004
  253MOL0     H34131   4.852   5.270   7.915 -0.3441  0.7699 -1.2394
  253MOL0     H34132   4.867   5.094   7.897  1.4146  0.0799 -1.9556
  253MOL0     H34133   5.027   5.310   7.744  3.8984 -1.6028 -3.7270
  253MOL0     H34134   5.053   5.140   7.715  0.9395 -0.4881  1.7005
  253MOL0     H34135   5.327   5.383   8.863 -0.9585 -1.3084 -0.6214
  253MOL0     H34136   5.411   5.600   8.946 -0.8044  0.1393  0.3334
  253MOL0     H34137   5.265   6.102   9.029 -0.3664  0.6485 -0.1759
  253MOL0     H34138   5.407   6.279   9.150 -1.8952  1.1960 -3.5669
  253MOL0     H34139   5.892   7.638   9.867 -2.4679  0.5205  1.1522
  253MOL0     H34140   5.855   7.767  10.072 -1.9303 -1.6904 -2.4860
  253MOL0     H34141   6.150   7.869  10.485 -1.1440 -1.3805 -0.4433
  253MOL0     H34142   6.172   8.008  10.665  2.6432  3.4027 -1.7150
  253MOL0     H34143   6.120   8.096  10.862  0.2276  0.4639  1.3681
  253MOL0     H34144   6.043   8.246  10.939 -0.4194 -1.7465  0.7196
  253MOL0     H34145   6.263   8.241  10.734 -0.8865  2.8078 -1.2001
  253MOL0     H34146   6.303   8.258  10.894 -1.3568 -1.2638  1.9201
  253MOL0     H34147   6.164   8.468  10.921 -1.7345 -1.1127  0.3984
  253MOL0     H34148   6.102   8.457  10.759 -0.4268 -3.6029 -0.9541
  253MOL0     H34149   6.309   8.613  10.811  3.7487  0.8482 -2.3872
  253MOL0     H34150   6.399   8.463  10.815 -0.7487 -1.9982 -2.6169
  253MOL0     H34151   6.388   8.473  10.425  1.1365  1.3289  0.0002
  253MOL0     H34152   5.870   8.276  10.534  2.5596  1.3789  1.0964
  253MOL0     H34153   5.793   8.265  10.319 -1.7373 -0.3897  0.5065
  253MOL0     H34154   5.878   8.176  10.183 -3.3275 -1.9846 -1.7268
  253MOL0     H34155   5.755   8.103  10.286 -0.1340 -0.0394 -1.6307
  254MOL0     O34156   6.493   4.937   8.768 -0.2254 -0.6231  0.0106
  254MOL0     C34157   6.595   4.899   8.720  0.6975 -0.9494  0.5282
  254MOL0     O34158   6.659   4.967   8.628  0.2247 -0.5725  0.9643
  254MOL0     C34159   6.586   5.073   8.573  0.2252  0.1310 -0.1687
  254MOL0     C34160   6.556   5.193   8.646  0.2790 -0.4289  0.7785
  254MOL0     C34161   6.480   5.288   8.575  0.0478  0.4941  0.2388
  254MOL0     C34162   6.429   5.261   8.449  0.7076 -0.1925  0.4745
  254MOL0     O34163   6.336   5.348   8.398 -0.7468  0.6507 -1.2085
  254MOL0     C34164   6.379   5.412   8.282 -0.4609  0.1053  0.2332
  254MOL0     C34165   6.512   5.485   8.290 -0.0059  0.0210  0.1733
  254MOL0     C34166   6.554   5.552   8.163  0.9392 -0.7530 -0.2102
  254MOL0     C34167   6.704   5.524   8.140  0.0411 -0.2744  0.1024
  254MOL0     C34168   6.749   5.590   8.005 -0.2428 -1.0296 -0.1964
  254MOL0     C34169   6.901   5.565   7.985 -0.5898 -0.1338 -0.3111
  254MOL0     C34170   6.934   5.583   7.835 -0.4920  0.2552  0.8118
  254MOL0     C34171   6.891   5.713   7.768  0.1712  0.0053  0.1587
  254MOL0     N34172   7.006   5.803   7.772 -0.2683  0.3317 -0.7078
  254MOL0     C34173   7.049   5.874   7.890 -0.5242  0.6257  0.0924
  254MOL0     C34174   7.161   5.940   7.849 -0.2739  0.4653 -0.1868
  254MOL0     C34175   7.260   6.014   7.946 -0.4896 -0.1398  0.4842
  254MOL0     C34176   7.371   5.914   7.990  0.3756 -0.7078  0.4022
  254MOL0     C34177   7.474   5.906   7.877 -0.4474 -0.1283 -0.1548
  254MOL0     C34178   7.591   6.019   7.897  0.0816  0.2588 -0.0472
  254MOL0     O34179   7.655   6.017   7.769 -0.2151  0.1536  0.4925
  254MOL0     C34180   7.618   6.114   7.682  0.0336 -0.1129  0.3044
  254MOL0     C34181   7.499   6.181   7.672 -1.1253  0.1130  0.0954
  254MOL0     C34182   7.480   6.293   7.590 -0.1461  0.0002 -0.3205
  254MOL0     C34183   7.576   6.332   7.502  0.3782  0.2043 -0.6331
  254MOL0     C34184   7.545   6.441   7.408 -0.0806 -0.9569 -0.7715
  254MOL0     O34185   7.423   6.498   7.412 -1.2575 -0.1937  0.4565
  254MOL0     C34186   7.390   6.592   7.321 -0.4895  0.7354  0.1392
  254MOL0     C34187   7.265   6.565   7.264 -0.3078 -0.2788  0.0288
  254MOL0     C34188   7.217   6.668   7.177 -0.9871  0.3087  1.0417
  254MOL0     C34189   7.284   6.788   7.170  0.6233 -0.4277 -0.4158
  254MOL0     O34190   7.224   6.883   7.094 -0.0820 -0.7377  0.0172
  254MOL0     C34191   7.238   7.027   7.120 -0.4281  0.8007 -0.2843
  254MOL0     C34192   7.343   7.105   7.036 -0.0893  0.5304  0.2261
  254MOL0     C34193   7.283   7.155   6.912 -0.5846  0.2587  0.1051
  254MOL0     C34194   7.255   7.306   6.922  0.3244  0.8603 -0.9916
  254MOL0     C34195   7.193   7.368   6.798 -0.3952 -0.2456  0.0899
  254MOL0     C34196   7.057   7.307   6.766  0.5975  0.0090 -0.0661
  254MOL0     C34197   7.013   7.366   6.642  0.2058  0.9303  0.3374
  254MOL0     C34198   6.872   7.316   6.598  0.2675  0.0265  0.0578
  254MOL0    Cl34199   6.886   7.168   6.492 -0.2311 -0.4493 -0.1365
  254MOL0     C34200   7.416   6.801   7.212  0.1836 -0.4551  0.0606
  254MOL0     C34201   7.464   6.706   7.295  0.6224  0.7220  0.2091
  254MOL0     O34202   7.633   6.473   7.328 -0.3586  0.4897  0.6326
  254MOL0     C34203   7.697   6.271   7.510 -0.5091  0.7374  0.0025
  254MOL0     C34204   7.719   6.161   7.592 -0.1177  0.9552 -0.0884
  254MOL0     N34205   7.180   5.928   7.717  0.4124  0.6463  1.7942
  254MOL0     N34206   7.089   5.842   7.671 -0.3877 -0.5555 -0.1361
  254MOL0     C34207   6.464   5.144   8.379 -0.6359 -0.3456 -1.0227
  254MOL0     C34208   6.552   5.058   8.443  0.2406  0.3466  0.3642
  254MOL0     C34209   6.669   4.783   8.790 -0.0506  0.4171 -0.7390
  254MOL0     C34210   6.809   4.771   8.790  0.1899 -0.1668 -0.3310
  254MOL0     C34211   6.886   4.681   8.859  0.7768 -0.3416  0.3016
  254MOL0     C34212   6.816   4.586   8.933  0.2653 -0.0155  0.3008
  254MOL0     O34213   6.891   4.501   9.009  0.2429  0.2698 -1.0144
  254MOL0     C34214   6.836   4.414   9.121 -0.4091 -0.4788  0.7500
  254MOL0     C34215   6.938   4.297   9.150 -0.1280  0.4404 -1.1348
  254MOL0     C34216   6.916   4.235   9.281  0.2191  0.4887 -0.1703
  254MOL0     C34217   7.021   4.137   9.306 -0.5805  0.3351 -0.4040
  254MOL0     C34218   6.998   4.078   9.444 -0.2703 -0.6160  0.9736
  254MOL0     C34219   7.007   4.031   9.555 -0.7856  0.1058  0.0536
  254MOL0     C34220   6.675   4.577   8.926 -1.1519  0.5516  0.3840
  254MOL0     C34221   6.603   4.679   8.856  0.1345  0.5435  0.1749
  254MOL0     C34222   6.453   4.654   8.843  0.0871  0.9958 -1.5800
  254MOL0     H34223   6.590   5.210   8.747  1.4296  3.0739 -0.0598
  254MOL0     H34224   6.437   5.376   8.622 -3.4364 -0.3765 -1.0433
  254MOL0     H34225   6.370   5.359   8.187  4.3158  0.2563 -0.5304
  254MOL0     H34226   6.307   5.495   8.279 -2.5344 -1.6048  0.4110
  254MOL0     H34227   6.585   5.404   8.303  0.7814  0.9460  1.9113
  254MOL0     H34228   6.512   5.558   8.372 -3.3784  1.5710 -1.0351
  254MOL0     H34229   6.529   5.659   8.165 -0.9641 -1.1783  1.0330
  254MOL0     H34230   6.491   5.517   8.081 -1.5164 -0.9067  1.6198
  254MOL0     H34231   6.770   5.565   8.216  0.5408 -0.4895 -0.2111
  254MOL0     H34232   6.732   5.418   8.143 -1.0106 -0.5506  1.1728
  254MOL0     H34233   6.697   5.545   7.920  0.2871 -0.6777 -0.7164
  254MOL0     H34234   6.727   5.697   7.994  0.8948 -0.9596 -2.3942
  254MOL0     H34235   6.950   5.625   8.062 -3.0148  0.0068  1.2295
  254MOL0     H34236   6.926   5.460   8.006  0.9008  0.0936 -0.8644
  254MOL0     H34237   6.875   5.504   7.788 -0.6774  0.8607  0.0046
  254MOL0     H34238   7.040   5.566   7.815 -0.1259 -1.9091  3.9142
  254MOL0     H34239   6.883   5.699   7.660 -0.1510  2.6039 -0.2069
  254MOL0     H34240   6.792   5.747   7.800 -0.2240 -0.4009 -0.6143
  254MOL0     H34241   7.011   5.862   7.991  2.2635  1.6133  1.3776
  254MOL0     H34242   7.304   6.106   7.906  0.3103 -1.1810 -1.1304
  254MOL0     H34243   7.197   6.043   8.031 -0.2248  1.1668  0.2579
  254MOL0     H34244   7.417   5.947   8.084 -0.4150  1.0996  0.1990
  254MOL0     H34245   7.321   5.819   8.012 -2.4618  1.2211  3.2841
  254MOL0     H34246   7.415   5.920   7.786 -1.4850 -0.4963  0.4363
  254MOL0     H34247   7.517   5.805   7.875  1.8429  0.6059  3.2805
  254MOL0     H34248   7.645   5.977   7.983 -1.9759 -3.1058 -0.1900
  254MOL0     H34249   7.543   6.116   7.907 -0.9509 -0.0966 -1.2934
  254MOL0     H34250   7.416   6.142   7.730 -0.7521 -0.9874 -0.0931
  254MOL0     H34251   7.385   6.344   7.584  1.2866  3.3766  2.0962
  254MOL0     H34252   7.216   6.471   7.283 -1.7625  0.1319 -1.3964
  254MOL0     H34253   7.120   6.665   7.127 -0.9101  3.1797  0.5667
  254MOL0     H34254   7.143   7.078   7.105 -1.7935 -1.7035 -0.8024
  254MOL0     H34255   7.281   7.036   7.221 -3.2581  2.8087  0.8577
  254MOL0     H34256   7.379   7.181   7.106 -0.8447  0.9266  0.1951
  254MOL0     H34257   7.428   7.042   7.011  0.8391  1.2030  1.5084
  254MOL0     H34258   7.337   7.137   6.818  0.4250  1.1801  0.4779
  254MOL0     H34259   7.189   7.103   6.895  0.9442 -1.9161 -2.6108
  254MOL0     H34260   7.343   7.360   6.958  0.7500 -0.1701 -0.4517
  254MOL0     H34261   7.177   7.315   6.999 -0.7580  3.7918 -2.2704
  254MOL0     H34262   7.260   7.346   6.714  1.3260 -1.2388  1.6402
  254MOL0     H34263   7.183   7.476   6.813  0.2483 -0.0841 -0.6163
  254MOL0     H34264   7.052   7.198   6.752 -3.0307  0.0969 -0.5136
  254MOL0     H34265   6.992   7.327   6.851  1.6861 -2.1204  1.3595
  254MOL0     H34266   7.083   7.336   6.563  1.5834  1.5087  1.2948
  254MOL0     H34267   7.009   7.475   6.651 -1.2998  0.8650  0.6173
  254MOL0     H34268   6.827   7.274   6.688 -0.9071  2.2404  0.5813
  254MOL0     H34269   6.819   7.398   6.548  0.2692  0.5098  0.8336
  254MOL0     H34270   7.480   6.889   7.208  3.4412 -2.4363  2.6824
  254MOL0     H34271   7.548   6.723   7.361  0.1609  0.9933  0.7351
  254MOL0     H34272   7.772   6.303   7.438 -2.2711 -0.2454 -2.3743
  254MOL0     H34273   7.815   6.112   7.578 -0.7407  0.2684 -2.3756
  254MOL0     H34274   6.431   5.125   8.277  0.2381  1.2354 -1.6484
  254MOL0     H34275   6.596   4.972   8.395 -1.3043 -0.7218  0.8088
  254MOL0     H34276   6.858   4.854   8.740 -4.5996  3.4477  0.2241
  254MOL0     H34277   6.994   4.693   8.861  0.7805 -0.1475 -0.6813
  254MOL0     H34278   6.732   4.384   9.105  0.2463 -2.1544 -0.7081
  254MOL0     H34279   6.833   4.474   9.212 -0.1484 -1.8053  1.6708
  254MOL0     H34280   7.042   4.330   9.142  1.1968 -3.6001 -3.2860
  254MOL0     H34281   6.916   4.222   9.074 -0.5620  0.1146 -0.6953
  254MOL0     H34282   6.811   4.204   9.278 -0.7448  3.4718 -0.8069
  254MOL0     H34283   6.933   4.315   9.354 -1.5060  0.1985  0.6071
  254MOL0     H34284   7.004   4.061   9.229 -2.0734  0.1443  0.0773
  254MOL0     H34285   7.121   4.182   9.302  0.4836 -1.8282 -0.0367
  254MOL0     H34286   7.006   3.978   9.648  1.8455 -0.3296 -0.0991
  254MOL0     H34287   6.619   4.492   8.964 -0.4312 -0.0857  0.0502
  254MOL0     H34288   6.416   4.551   8.836 -1.8922  1.4968  0.5746
  254MOL0     H34289   6.403   4.694   8.931 -0.6872 -0.2602 -1.4320
  254MOL0     H34290   6.410   4.708   8.758 -2.9467  4.6223  1.9217
  255MOL0     O34291   1.005   6.815  10.873  0.2694 -0.1449  0.0130
  255MOL0     C34292   1.076   6.729  10.923 -0.1926 -0.2791  1.0328
  255MOL0     O34293   1.126   6.617  10.852 -0.0436 -0.3835  0.4018
  255MOL0     C34294   1.073   6.573  10.727 -1.1729 -0.2410 -0.7575
  255MOL0     C34295   1.161   6.551  10.617 -0.2358 -0.1487 -0.2899
  255MOL0     C34296   1.112   6.501  10.500  0.0461  0.3352 -0.0503
  255MOL0     C34297   0.977   6.477  10.482  0.4193  0.2034 -0.3260
  255MOL0     O34298   0.941   6.413  10.364 -0.3882  0.4163  0.1895
  255MOL0     C34299   0.813   6.341  10.354  0.4162  0.2497  0.0459
  255MOL0     C34300   0.814   6.211  10.438  0.4335 -0.4263 -0.0905
  255MOL0     C34301   0.687   6.131  10.424  0.6616 -0.0469 -0.8547
  255MOL0     C34302   0.568   6.209  10.475  1.1537 -0.4419  1.0806
  255MOL0     C34303   0.436   6.120  10.456  0.5724 -0.0630  0.2897
  255MOL0     C34304   0.310   6.192  10.500  0.3442 -0.5583 -0.9025
  255MOL0     C34305   0.181   6.102  10.488 -0.1272 -0.7023 -0.7844
  255MOL0     C34306   0.076   6.187  10.566 -0.1701 -0.2675 -0.2015
  255MOL0     N34307   0.089   6.211  10.713  0.4314 -0.0206 -0.4074
  255MOL0     C34308   0.048   6.330  10.778  0.1497 -0.5318  0.1202
  255MOL0     C34309   0.060   6.301  10.907 -0.0574 -0.3151 -1.1288
  255MOL0     C34310   0.012   6.396  11.023 -0.3869 -0.9351 -0.1892
  255MOL0     C34311   0.053   6.346  11.164 -0.4784  0.0450 -0.0278
  255MOL0     C34312  -0.027   6.228  11.214 -0.8703 -0.1767  0.1584
  255MOL0     C34313   0.026   6.188  11.344 -0.7092 -0.6152 -0.4681
  255MOL0     O34314  -0.047   6.259  11.443 -0.1123 -0.4165 -0.0107
  255MOL0     C34315  -0.134   6.188  11.520 -0.2952  0.0532 -0.5947
  255MOL0     C34316  -0.244   6.117  11.471  0.4557  0.0046 -0.1420
  255MOL0     C34317  -0.343   6.071  11.550  0.4509  0.0161 -1.5641
  255MOL0     C34318  -0.338   6.099  11.684 -0.5198  0.2015  0.2473
  255MOL0     C34319  -0.445   6.052  11.768  0.1384  1.0819 -0.3903
  255MOL0     O34320  -0.532   5.964  11.715  0.8556 -0.1970  0.3266
  255MOL0     C34321  -0.631   5.929  11.799  1.7892 -0.8531  0.5985
  255MOL0     C34322  -0.623   5.838  11.900 -0.6210 -0.4228  0.6258
  255MOL0     C34323  -0.742   5.802  11.966  0.0995 -0.0205 -0.1617
  255MOL0     C34324  -0.866   5.851  11.928  0.7417  0.2439  0.7669
  255MOL0     O34325  -0.974   5.806  11.999  0.9982 -0.3083 -0.1128
  255MOL0     C34326  -1.106   5.810  11.929 -0.1270 -0.1585 -0.5734
  255MOL0     C34327  -1.205   5.734  12.021  0.6112 -0.4404 -0.1088
  255MOL0     C34328  -1.169   5.590  12.064  0.1760 -0.7355  0.0755
  255MOL0     C34329  -1.278   5.523  12.145 -0.2828  0.9202 -0.4629
  255MOL0     C34330  -1.307   5.590  12.275 -0.1068 -0.4982 -1.3263
  255MOL0     C34331  -1.382   5.509  12.375  0.5787  0.0376 -0.1635
  255MOL0     C34332  -1.389   5.595  12.499 -0.3008 -0.8583 -0.7023
  255MOL0     C34333  -1.454   5.516  12.615  0.1543 -0.7531  0.7095
  255MOL0    Cl34334  -1.348   5.385  12.666  0.0670  0.1320  0.2717
  255MOL0     C34335  -0.876   5.947  11.829  0.1034  0.6867 -0.6996
  255MOL0     C34336  -0.760   5.984  11.763  0.1780  1.1357  0.7851
  255MOL0     O34337  -0.445   6.085  11.892 -1.1361 -0.2074  0.0907
  255MOL0     C34338  -0.228   6.161  11.740 -0.5958  0.4608  0.2576
  255MOL0     C34339  -0.125   6.215  11.658  0.2308  0.5181  1.2611
  255MOL0     N34340   0.115   6.172  10.923 -0.2759 -0.1490  0.3737
  255MOL0     N34341   0.129   6.124  10.807 -1.5721 -0.1147 -0.0014
  255MOL0     C34342   0.892   6.501  10.589  0.0040 -0.4063 -0.0501
  255MOL0     C34343   0.937   6.538  10.715 -0.1409  0.5583 -0.5781
  255MOL0     C34344   1.129   6.764  11.057 -0.4694  0.3189  0.7639
  255MOL0     C34345   1.166   6.898  11.085 -0.1734  0.3141  0.5925
  255MOL0     C34346   1.187   6.950  11.217  0.4081  1.0144  0.2078
  255MOL0     C34347   1.179   6.860  11.320 -0.6905  0.3176 -0.0665
  255MOL0     O34348   1.206   6.906  11.445  0.3727 -0.0897  0.1993
  255MOL0     C34349   1.181   6.817  11.560  0.2156 -1.0065  0.9000
  255MOL0     C34350   1.147   6.895  11.689 -0.2843  0.5282 -0.3223
  255MOL0     C34351   1.027   6.985  11.667  0.3381  0.1151 -0.4899
  255MOL0     C34352   1.064   7.133  11.642  0.6163 -0.3675 -0.2234
  255MOL0     C34353   0.942   7.218  11.658  0.1169  0.2714  0.1046
  255MOL0     C34354   0.827   7.260  11.669  0.4444  0.6872 -0.5407
  255MOL0     C34355   1.149   6.727  11.300 -0.5838  0.8812  0.5652
  255MOL0     C34356   1.117   6.677  11.173 -0.2944 -1.1214 -0.2074
  255MOL0     C34357   1.064   6.541  11.164 -0.4471 -0.1205 -0.3448
  255MOL0     H34358   1.269   6.565  10.617 -0.1797  0.1652 -3.8456
  255MOL0     H34359   1.179   6.467  10.421 -0.6242 -1.9930  0.2850
  255MOL0     H34360   0.737   6.409  10.393  0.9497 -0.2084  1.9998
  255MOL0     H34361   0.783   6.312  10.253 -0.6629 -1.1357  0.7359
  255MOL0     H34362   0.848   6.228  10.541 -0.6761 -1.9380  0.5593
  255MOL0     H34363   0.890   6.144  10.398 -0.7170 -2.3254  0.7940
  255MOL0     H34364   0.693   6.039  10.481 -0.6860  0.9981  1.1000
  255MOL0     H34365   0.687   6.105  10.318  2.5504 -0.8035 -0.6986
  255MOL0     H34366   0.582   6.238  10.580  1.7668  0.2097  0.8293
  255MOL0     H34367   0.549   6.300  10.416  0.2449 -0.5155  1.2452
  255MOL0     H34368   0.418   6.078  10.357  0.3266 -3.2660  1.5822
  255MOL0     H34369   0.440   6.036  10.526 -2.2356 -2.9723 -2.6937
  255MOL0     H34370   0.320   6.209  10.608  0.8601 -1.6275 -0.7724
  255MOL0     H34371   0.291   6.288  10.451  1.7333  0.4881  0.4952
  255MOL0     H34372   0.187   6.006  10.542 -1.1798 -0.5282 -0.3312
  255MOL0     H34373   0.145   6.081  10.387 -4.8292  1.9019  0.0664
  255MOL0     H34374   0.068   6.287  10.522 -1.5729 -1.7553 -3.7090
  255MOL0     H34375  -0.019   6.136  10.545 -0.0185 -0.4361 -0.4831
  255MOL0     H34376  -0.002   6.423  10.751  0.2902 -0.2657  0.7467
  255MOL0     H34377   0.058   6.493  11.007 -1.5625 -0.2689  0.3497
  255MOL0     H34378  -0.097   6.407  11.018 -0.2423  0.3986 -0.8437
  255MOL0     H34379   0.158   6.317  11.148 -1.7120 -2.7983 -4.6420
  255MOL0     H34380   0.040   6.429  11.235 -1.4604  0.7787 -1.0419
  255MOL0     H34381  -0.006   6.143  11.147  0.2903 -1.4104  1.9850
  255MOL0     H34382  -0.131   6.262  11.220 -0.4999  0.9056  0.5941
  255MOL0     H34383   0.135   6.201  11.345 -0.7704 -0.0211  0.8945
  255MOL0     H34384   0.012   6.080  11.347 -0.6882 -0.5992  0.8797
  255MOL0     H34385  -0.259   6.103  11.364 -0.2894  1.6038 -0.2792
  255MOL0     H34386  -0.428   6.028  11.500  1.4243 -0.0915 -3.2184
  255MOL0     H34387  -0.526   5.799  11.930 -0.3071 -0.0251  0.1400
  255MOL0     H34388  -0.743   5.724  12.041  1.1241  0.1877  0.0764
  255MOL0     H34389  -1.139   5.914  11.918  1.1088  0.0863 -2.2968
  255MOL0     H34390  -1.097   5.760  11.832  0.7979 -0.5255 -0.3151
  255MOL0     H34391  -1.216   5.790  12.114  4.5931 -1.1817  1.0275
  255MOL0     H34392  -1.293   5.722  11.957 -0.0019 -1.7712  0.9437
  255MOL0     H34393  -1.147   5.529  11.976 -0.3941  1.0852 -1.3958
  255MOL0     H34394  -1.089   5.595  12.138 -1.3989  2.4925  1.7698
  255MOL0     H34395  -1.246   5.423  12.173 -0.7201  0.4830 -1.4871
  255MOL0     H34396  -1.367   5.514  12.082  0.3774  0.0783 -1.2971
  255MOL0     H34397  -1.368   5.676  12.246 -1.1465 -1.2158 -1.3617
  255MOL0     H34398  -1.216   5.638  12.311  0.2992 -0.6516 -2.1251
  255MOL0     H34399  -1.480   5.478  12.338 -1.1271  1.9456  2.3982
  255MOL0     H34400  -1.310   5.431  12.401  1.0843  0.5824  0.1153
  255MOL0     H34401  -1.452   5.683  12.485 -0.2753 -1.1406 -2.9628
  255MOL0     H34402  -1.281   5.610  12.510  0.4394 -4.0542 -2.4899
  255MOL0     H34403  -1.468   5.575  12.706  2.2258 -1.2289  1.3889
  255MOL0     H34404  -1.551   5.489  12.574 -3.3183  5.0247  3.7655
  255MOL0     H34405  -0.970   5.993  11.800 -0.8095 -0.7498 -0.1405
  255MOL0     H34406  -0.763   6.058  11.683 -0.5855 -1.1818 -1.4694
  255MOL0     H34407  -0.218   6.173  11.847  2.4197  2.3677 -0.1220
  255MOL0     H34408  -0.043   6.265  11.710  0.0073  1.1898  0.9765
  255MOL0     H34409   0.789   6.467  10.581 -1.2343  2.4640  2.0044
  255MOL0     H34410   0.867   6.540  10.798  1.3114  1.5200  0.6832
  255MOL0     H34411   1.180   6.951  10.991  0.4600 -0.8016  0.0391
  255MOL0     H34412   1.232   7.049  11.226  3.1388 -0.2221  1.1229
  255MOL0     H34413   1.276   6.764  11.568  2.7828  3.0491  0.1366
  255MOL0     H34414   1.096   6.751  11.543  0.6734 -1.9716  2.1811
  255MOL0     H34415   1.240   6.942  11.723  0.6037 -1.7624  0.6551
  255MOL0     H34416   1.120   6.827  11.771 -0.7619  0.1637 -0.7792
  255MOL0     H34417   0.962   6.973  11.754 -0.4803 -1.0491 -1.2382
  255MOL0     H34418   0.967   6.942  11.587 -0.2631  3.0428 -1.7344
  255MOL0     H34419   1.127   7.168  11.724 -1.0955  0.3981  0.8142
  255MOL0     H34420   1.104   7.141  11.540  2.8861 -1.5878  0.4902
  255MOL0     H34421   0.729   7.298  11.688  0.0435 -0.5184 -0.1300
  255MOL0     H34422   1.134   6.651  11.376  1.0928  0.4165  0.4787
  255MOL0     H34423   0.955   6.541  11.151 -0.2538  1.7559 -2.8250
  255MOL0     H34424   1.106   6.483  11.081 -1.4992 -0.9282 -0.3398
  255MOL0     H34425   1.076   6.483  11.255  0.3399 -0.8268 -0.8834
  256MOL0     O34426   4.447   1.156   4.641 -1.0244 -0.0889  0.0769
  256MOL0     C34427   4.393   1.253   4.585  0.2286  0.7669 -0.2750
  256MOL0     O34428   4.370   1.381   4.641  0.1402  0.3050  0.2342
  256MOL0     C34429   4.444   1.416   4.743 -0.6172  0.1253  0.0732
  256MOL0     C34430   4.540   1.520   4.709  0.0370  0.8553 -0.0846
  256MOL0     C34431   4.633   1.578   4.799  0.4300  0.2757 -0.2909
  256MOL0     C34432   4.628   1.525   4.934 -0.5452 -0.7322  0.1049
  256MOL0     O34433   4.720   1.572   5.027  0.0961  0.4083  0.7989
  256MOL0     C34434   4.771   1.484   5.137 -1.1747  0.4551  0.2894
  256MOL0     C34435   4.904   1.529   5.191 -0.3215  0.3271  0.5271
  256MOL0     C34436   4.964   1.447   5.311  0.4111  0.0406 -0.5410
  256MOL0     C34437   5.101   1.507   5.362  0.4796  0.0241  0.3424
  256MOL0     C34438   5.079   1.553   5.515 -0.2878 -0.4374 -0.8055
  256MOL0     C34439   5.022   1.693   5.520  0.2191  0.1174 -0.9037
  256MOL0     C34440   4.980   1.745   5.659 -0.3182  0.5854 -0.4750
  256MOL0     C34441   5.106   1.786   5.754  0.1391  0.2310 -0.5501
  256MOL0     N34442   5.184   1.668   5.808 -0.6239  0.4735 -0.2883
  256MOL0     C34443   5.291   1.680   5.890 -0.2221 -0.3504  0.0646
  256MOL0     C34444   5.328   1.551   5.933 -0.0237 -0.2729  0.4254
  256MOL0     C34445   5.459   1.529   5.996 -0.0380  0.7714  0.0897
  256MOL0     C34446   5.506   1.609   6.117  0.5643 -0.4257  0.5362
  256MOL0     C34447   5.404   1.617   6.237 -0.6804 -0.4191  0.1935
  256MOL0     C34448   5.463   1.676   6.361 -0.3030 -0.1952 -0.1032
  256MOL0     O34449   5.517   1.806   6.333  0.6816  0.7535  0.7386
  256MOL0     C34450   5.451   1.912   6.382 -0.0912 -0.2678 -0.6151
  256MOL0     C34451   5.496   1.975   6.500  0.1579  0.0428 -0.2561
  256MOL0     C34452   5.431   2.087   6.546  0.7680 -1.0911  0.3750
  256MOL0     C34453   5.313   2.132   6.481 -0.1320  0.0191 -0.8521
  256MOL0     C34454   5.247   2.255   6.533  0.5664  1.1257 -0.9154
  256MOL0     O34455   5.148   2.306   6.454  0.0444 -0.1826 -0.0229
  256MOL0     C34456   5.090   2.421   6.500  0.1701  0.4312  0.0995
  256MOL0     C34457   4.952   2.422   6.483 -0.5796 -0.5041  0.3482
  256MOL0     C34458   4.881   2.535   6.516 -0.6387  0.6077  0.5079
  256MOL0     C34459   4.953   2.654   6.551 -0.3759  0.2517  0.8371
  256MOL0     O34460   4.890   2.775   6.562  0.3583  0.6008 -0.2292
  256MOL0     C34461   4.789   2.753   6.660  0.8939 -0.6590 -0.4304
  256MOL0     C34462   4.786   2.873   6.752 -0.8455 -0.3260 -0.1040
  256MOL0     C34463   4.781   3.009   6.669 -0.5732  0.8263 -0.5631
  256MOL0     C34464   4.778   3.130   6.757 -0.4356  0.5037 -0.4445
  256MOL0     C34465   4.727   3.244   6.680 -0.8776 -1.0743  0.5166
  256MOL0     C34466   4.705   3.371   6.768 -1.1746 -0.4240 -0.7298
  256MOL0     C34467   4.829   3.440   6.837 -0.1330 -0.6303  0.3779
  256MOL0     C34468   4.916   3.516   6.731 -0.0124 -0.5956 -0.5421
  256MOL0    Cl34469   4.838   3.670   6.677 -0.1715 -0.3470  0.3503
  256MOL0     C34470   5.096   2.652   6.567  0.4200 -0.0266  0.1726
  256MOL0     C34471   5.167   2.532   6.542  0.5651 -0.4485  0.4334
  256MOL0     O34472   5.279   2.300   6.643 -0.6975  0.1791  1.4021
  256MOL0     C34473   5.268   2.062   6.372 -0.2866  0.4402  0.4052
  256MOL0     C34474   5.336   1.954   6.320 -0.1556  0.2096  0.0183
  256MOL0     N34475   5.251   1.461   5.865  0.0743  0.0754 -0.3661
  256MOL0     N34476   5.157   1.534   5.802 -0.5125  0.3677 -0.2528
  256MOL0     C34477   4.524   1.427   4.967 -0.5045  0.7743  0.3050
  256MOL0     C34478   4.440   1.367   4.872 -1.1302  0.6952  0.2282
  256MOL0     C34479   4.335   1.222   4.443 -0.4000 -0.4242 -0.7559
  256MOL0     C34480   4.321   1.337   4.360 -0.5488  0.3018  0.2875
  256MOL0     C34481   4.295   1.319   4.225  0.6367  0.3559 -0.1656
  256MOL0     C34482   4.264   1.190   4.167 -0.4982 -0.6320 -0.2252
  256MOL0     O34483   4.218   1.166   4.036  0.4722  0.0885  0.0850
  256MOL0     C34484   4.279   1.248   3.934  1.0610 -0.1937  0.4837
  256MOL0     C34485   4.428   1.232   3.941  0.0580  0.4767 -0.5846
  256MOL0     C34486   4.471   1.079   3.929  0.5935 -0.6480 -0.3337
  256MOL0     C34487   4.615   1.058   3.882  0.2183 -0.2910  0.2715
  256MOL0     C34488   4.696   1.109   3.985 -0.1810  0.2250 -0.0222
  256MOL0     C34489   4.764   1.152   4.071  0.0632  0.3360 -0.4913
  256MOL0     C34490   4.262   1.082   4.254  0.3238  0.4991  1.0221
  256MOL0     C34491   4.311   1.088   4.386  0.3319 -0.7585 -0.6462
  256MOL0     C34492   4.322   0.959   4.470 -0.2401  0.8852 -0.3820
  256MOL0     H34493   4.554   1.565   4.611 -0.3803  0.9603 -0.0990
  256MOL0     H34494   4.706   1.651   4.766 -0.3890  0.5708 -1.4882
  256MOL0     H34495   4.692   1.487   5.213 -1.8923  2.8215 -0.4338
  256MOL0     H34496   4.785   1.382   5.101 -0.4677  0.4321  0.6167
  256MOL0     H34497   4.897   1.634   5.222 -0.3422  0.5940 -0.3436
  256MOL0     H34498   4.979   1.522   5.112 -0.8022  1.7022 -0.0918
  256MOL0     H34499   4.979   1.345   5.274 -2.6086  0.1119 -2.3557
  256MOL0     H34500   4.877   1.452   5.377 -0.1470  0.2560 -1.2698
  256MOL0     H34501   5.171   1.424   5.352  0.0779 -0.2075 -0.7716
  256MOL0     H34502   5.134   1.590   5.298 -2.0455  2.3659  1.8497
  256MOL0     H34503   5.016   1.479   5.566  2.9060 -2.4940  0.4948
  256MOL0     H34504   5.178   1.549   5.561  0.1377 -0.1463 -1.6530
  256MOL0     H34505   5.085   1.762   5.463  3.9317 -1.2317  1.2261
  256MOL0     H34506   4.931   1.689   5.458  0.6522  3.2696 -1.9476
  256MOL0     H34507   4.914   1.672   5.707 -2.0558  2.4398  0.0903
  256MOL0     H34508   4.930   1.841   5.644 -1.2239  0.2805  0.5404
  256MOL0     H34509   5.172   1.851   5.696 -0.1136  1.6649  0.7072
  256MOL0     H34510   5.073   1.844   5.840  2.0087 -1.1006  1.1503
  256MOL0     H34511   5.328   1.778   5.919  0.7360 -0.2403 -1.3821
  256MOL0     H34512   5.456   1.427   6.037  3.6384 -0.5003 -2.2929
  256MOL0     H34513   5.538   1.530   5.920  1.1969 -2.9091  1.1011
  256MOL0     H34514   5.596   1.564   6.162 -0.9534 -2.2214  1.9479
  256MOL0     H34515   5.531   1.707   6.075 -2.6473  0.4903  0.5129
  256MOL0     H34516   5.368   1.516   6.259 -0.5171 -0.5943 -0.3189
  256MOL0     H34517   5.321   1.683   6.209 -0.8580 -0.7888 -0.1575
  256MOL0     H34518   5.551   1.614   6.378  0.9539  1.6628  0.4845
  256MOL0     H34519   5.390   1.676   6.442 -0.2035 -1.5932  0.0017
  256MOL0     H34520   5.582   1.936   6.553 -0.5125 -1.4491 -0.2092
  256MOL0     H34521   5.471   2.130   6.638  1.0616 -3.9467  1.6975
  256MOL0     H34522   4.903   2.329   6.454  4.8000 -3.0095 -2.3119
  256MOL0     H34523   4.773   2.525   6.510 -0.8448  2.0569  1.4005
  256MOL0     H34524   4.692   2.744   6.610  1.0202  0.1037 -0.8225
  256MOL0     H34525   4.807   2.660   6.715 -0.0145 -0.3205  0.4558
  256MOL0     H34526   4.700   2.873   6.820 -2.4179 -0.1884 -1.9975
  256MOL0     H34527   4.885   2.872   6.800 -0.6681  3.6803 -0.0241
  256MOL0     H34528   4.867   3.019   6.602 -1.9274  1.0329 -2.3374
  256MOL0     H34529   4.697   3.014   6.599 -1.3606  3.2331  0.4702
  256MOL0     H34530   4.876   3.138   6.805 -2.9053  0.0073  5.5701
  256MOL0     H34531   4.701   3.096   6.827  1.9194 -3.6353  0.4596
  256MOL0     H34532   4.631   3.213   6.638 -0.4185  0.7346 -2.1132
  256MOL0     H34533   4.789   3.269   6.594 -0.8587  0.5304  0.9693
  256MOL0     H34534   4.657   3.446   6.704 -0.5333  0.4330 -0.2236
  256MOL0     H34535   4.638   3.359   6.854  1.4097 -2.2619  1.1806
  256MOL0     H34536   4.884   3.357   6.883  2.2812  1.7196  1.9857
  256MOL0     H34537   4.810   3.509   6.920  3.0666  0.0272  0.6806
  256MOL0     H34538   5.008   3.543   6.784 -0.6339  0.3816  0.0406
  256MOL0     H34539   4.931   3.461   6.637  1.4949  2.8470 -2.5227
  256MOL0     H34540   5.144   2.738   6.613  3.4596 -1.3980 -0.1840
  256MOL0     H34541   5.273   2.546   6.558  0.4121  0.8104  0.4659
  256MOL0     H34542   5.201   2.108   6.300 -1.6417  0.1086  1.4104
  256MOL0     H34543   5.295   1.910   6.230 -0.0291  0.7683 -0.3174
  256MOL0     H34544   4.523   1.378   5.064 -1.4496  0.2313  0.0367
  256MOL0     H34545   4.373   1.285   4.895 -1.4900  1.3874  1.8122
  256MOL0     H34546   4.337   1.442   4.383  0.5715  0.7382 -2.1153
  256MOL0     H34547   4.284   1.408   4.162 -0.1221  0.4564  0.0976
  256MOL0     H34548   4.246   1.351   3.954 -2.8011 -0.9460 -1.1587
  256MOL0     H34549   4.242   1.211   3.838  1.2468  1.8473 -0.4351
  256MOL0     H34550   4.471   1.266   4.036  0.5608  0.4534 -0.8004
  256MOL0     H34551   4.478   1.296   3.867 -1.4749  1.0361 -1.1608
  256MOL0     H34552   4.398   1.026   3.866 -0.0189  1.1067 -1.1616
  256MOL0     H34553   4.465   1.043   4.032  0.6561  1.5378  0.4786
  256MOL0     H34554   4.628   0.949   3.877 -3.7125 -0.8512 -0.3590
  256MOL0     H34555   4.629   1.118   3.792 -0.6552 -0.3009  0.1300
  256MOL0     H34556   4.804   1.182   4.165 -1.5681 -1.8086  0.9803
  256MOL0     H34557   4.235   0.986   4.212 -0.3227  1.3282 -0.5099
  256MOL0     H34558   4.425   0.923   4.459 -1.3003 -2.8086  0.1515
  256MOL0     H34559   4.311   0.971   4.578  3.8361 -3.5249  0.8656
  256MOL0     H34560   4.247   0.889   4.433  2.2881 -2.2916  0.0059
  257MOL0     O34561   3.929   8.928   5.933 -0.7175  0.7763  0.2752
  257MOL0     C34562   3.878   8.862   6.023 -0.2682  0.6018 -0.6742
  257MOL0     O34563   3.788   8.916   6.114 -0.0634  0.3464  0.2371
  257MOL0     C34564   3.754   9.050   6.098 -0.1417  0.2540  0.8677
  257MOL0     C34565   3.819   9.147   6.178  0.5701  0.8407 -1.2489
  257MOL0     C34566   3.770   9.273   6.177  0.3496 -0.6854  0.6358
  257MOL0     C34567   3.668   9.318   6.087 -0.2971  0.1871 -0.6142
  257MOL0     O34568   3.638   9.452   6.100  0.3197 -1.4282  0.7527
  257MOL0     C34569   3.523   9.502   6.028 -0.3742 -1.2628  0.9513
  257MOL0     C34570   3.503   9.652   6.064 -0.7372  0.7385  0.0768
  257MOL0     C34571   3.437   9.670   6.200 -0.1266 -0.7632  0.6978
  257MOL0     C34572   3.412   9.824   6.240  0.3684  0.0620  0.2912
  257MOL0     C34573   3.432   9.839   6.389 -0.2019 -0.5218 -0.6662
  257MOL0     C34574   3.393   9.984   6.419  0.6364 -0.3518 -0.9874
  257MOL0     C34575   3.238  10.020   6.408 -0.2591 -0.4867  0.0850
  257MOL0     C34576   3.201  10.129   6.514 -0.2423 -0.1738  0.5798
  257MOL0     N34577   3.277  10.253   6.503 -0.5594 -0.4055 -0.5973
  257MOL0     C34578   3.280  10.330   6.392 -0.0453  0.2771 -0.1575
  257MOL0     C34579   3.359  10.434   6.423 -0.4924 -1.0488  0.8018
  257MOL0     C34580   3.403  10.532   6.321  0.2368 -0.0150 -0.2462
  257MOL0     C34581   3.542  10.568   6.365 -0.0607 -1.0842  0.2140
  257MOL0     C34582   3.603  10.640   6.245 -0.4633 -0.0253  0.2949
  257MOL0     C34583   3.739  10.695   6.285  0.2937  0.0602 -0.2898
  257MOL0     O34584   3.796  10.768   6.185 -0.5631 -0.6200 -0.5196
  257MOL0     C34585   3.752  10.896   6.155 -1.0452 -0.3524 -0.6183
  257MOL0     C34586   3.680  10.972   6.248  0.2366 -1.1464 -0.2705
  257MOL0     C34587   3.652  11.108   6.215  0.6756 -0.1745  1.0332
  257MOL0     C34588   3.692  11.172   6.095  1.5816 -0.1985 -0.7155
  257MOL0     C34589   3.640  11.299   6.058  0.2710 -0.3612  0.0601
  257MOL0     O34590   3.643  11.326   5.928 -0.1636  0.4479  0.2242
  257MOL0     C34591   3.605  11.450   5.888 -0.2933 -0.0699  0.2006
  257MOL0     C34592   3.481  11.466   5.820  0.5573  0.1591 -0.8947
  257MOL0     C34593   3.430  11.589   5.785  0.2334  0.3542 -0.1290
  257MOL0     C34594   3.492  11.699   5.817 -0.1680 -1.2002 -0.9372
  257MOL0     O34595   3.431  11.818   5.783  0.0044 -0.7020 -0.4123
  257MOL0     C34596   3.392  11.894   5.895 -0.7180 -0.4426  0.1059
  257MOL0     C34597   3.299  11.994   5.846  0.2933  0.4322 -0.6240
  257MOL0     C34598   3.153  11.940   5.818  0.1007 -0.2037  1.1868
  257MOL0     C34599   3.056  12.057   5.788  0.0314 -0.2272  0.4058
  257MOL0     C34600   3.001  12.120   5.925 -0.5619 -0.4999  0.0757
  257MOL0     C34601   2.960  12.273   5.913 -0.1179 -0.1043 -1.2684
  257MOL0     C34602   2.872  12.297   5.789  0.1541  0.2989 -0.0498
  257MOL0     C34603   2.738  12.225   5.793 -0.2010 -1.2436  0.4133
  257MOL0    Cl34604   2.655  12.249   5.635 -0.1911 -0.2050  0.0564
  257MOL0     C34605   3.618  11.697   5.883 -0.2928  0.3602 -0.8241
  257MOL0     C34606   3.671  11.573   5.927 -0.0376  0.2363 -0.3675
  257MOL0     O34607   3.594  11.376   6.146  0.0949  0.2071 -0.1072
  257MOL0     C34608   3.747  11.089   5.996  0.5234 -0.4312 -0.2835
  257MOL0     C34609   3.783  10.957   6.030  0.8447  0.2547  0.9108
  257MOL0     N34610   3.399  10.419   6.552 -0.0214  0.2079  0.1951
  257MOL0     N34611   3.357  10.302   6.602 -0.6125  0.4636 -0.4281
  257MOL0     C34612   3.610   9.218   6.003 -0.2487  0.0698  0.5992
  257MOL0     C34613   3.651   9.085   6.012  0.0584 -0.5030  0.0313
  257MOL0     C34614   3.923   8.717   6.043 -0.1303  0.3228  0.0724
  257MOL0     C34615   3.913   8.676   6.176 -0.4913 -0.3470  0.6860
  257MOL0     C34616   3.977   8.561   6.219  0.4437 -0.4758  0.5151
  257MOL0     C34617   4.047   8.475   6.128 -0.4067  0.4368  1.3089
  257MOL0     O34618   4.119   8.365   6.156  0.4173  0.2029 -0.4539
  257MOL0     C34619   4.140   8.313   6.289 -0.1590  0.8950  0.7864
  257MOL0     C34620   4.251   8.391   6.361  0.1296  1.0427 -0.3483
  257MOL0     C34621   4.392   8.334   6.338 -0.3249  0.4809  0.0850
  257MOL0     C34622   4.441   8.362   6.191 -1.4952 -0.4155  0.0794
  257MOL0     C34623   4.556   8.275   6.159  0.1355 -0.8380  0.6164
  257MOL0     C34624   4.650   8.196   6.157  0.0643  0.4279 -0.2270
  257MOL0     C34625   4.035   8.513   5.993 -0.2953 -0.7776  0.1876
  257MOL0     C34626   3.964   8.627   5.943 -0.1915  0.3285  0.6756
  257MOL0     C34627   3.948   8.646   5.791 -0.6757 -0.6738  0.1339
  257MOL0     H34628   3.901   9.128   6.246  0.3923  0.9597 -1.0020
  257MOL0     H34629   3.815   9.352   6.235  1.2698 -1.6746  1.3103
  257MOL0     H34630   3.541   9.517   5.921  1.7369  2.5063  1.6481
  257MOL0     H34631   3.437   9.440   6.053  0.3082 -1.1754  3.8710
  257MOL0     H34632   3.439   9.697   5.988  0.7195  1.4940 -0.7420
  257MOL0     H34633   3.595   9.713   6.067 -0.4925  0.4464 -1.0410
  257MOL0     H34634   3.513   9.622   6.263  1.5373  0.6948 -0.1253
  257MOL0     H34635   3.351   9.603   6.204  1.8690 -3.4757  1.3184
  257MOL0     H34636   3.491   9.882   6.190 -0.3601 -0.2175 -1.2499
  257MOL0     H34637   3.310   9.849   6.209 -0.2716  0.5253  2.5943
  257MOL0     H34638   3.371   9.776   6.453 -2.1564  1.5814 -0.3051
  257MOL0     H34639   3.537   9.809   6.398 -0.4425 -1.6670 -1.4927
  257MOL0     H34640   3.432  10.007   6.518  0.2705  2.5788 -1.4267
  257MOL0     H34641   3.451  10.050   6.354  0.3537  0.6935 -0.2083
  257MOL0     H34642   3.173   9.939   6.443 -2.3732  0.3532 -1.6390
  257MOL0     H34643   3.216  10.045   6.304 -2.4547 -0.1097  0.5985
  257MOL0     H34644   3.094  10.150   6.513 -0.4305 -0.7230 -3.4193
  257MOL0     H34645   3.230  10.084   6.610 -1.2069  0.1393  1.0368
  257MOL0     H34646   3.249  10.300   6.292 -2.0179  0.8418  0.2417
  257MOL0     H34647   3.393  10.483   6.223  1.6204  0.0043 -0.4187
  257MOL0     H34648   3.340  10.621   6.326 -1.1779 -0.9470 -0.5618
  257MOL0     H34649   3.559  10.631   6.453  1.1544 -0.2465 -0.5794
  257MOL0     H34650   3.596  10.476   6.388  2.7899  0.4200 -0.0055
  257MOL0     H34651   3.535  10.723   6.225 -0.0712 -0.0964 -1.5427
  257MOL0     H34652   3.610  10.578   6.155 -0.8354  1.5444 -0.8623
  257MOL0     H34653   3.801  10.610   6.315  0.0310 -0.6084 -1.6102
  257MOL0     H34654   3.742  10.750   6.380 -4.6074 -0.9181  0.7370
  257MOL0     H34655   3.654  10.939   6.349  1.6414  1.2041  0.9517
  257MOL0     H34656   3.582  11.163   6.276  0.7510  0.7186  0.3352
  257MOL0     H34657   3.416  11.381   5.804 -0.0245  0.6968 -1.4328
  257MOL0     H34658   3.330  11.605   5.746  0.0886 -1.1170 -0.4186
  257MOL0     H34659   3.349  11.831   5.973  0.4624  1.7497  2.6847
  257MOL0     H34660   3.483  11.936   5.939 -0.6023 -0.9604  0.3577
  257MOL0     H34661   3.286  12.064   5.929 -2.0884  0.4518 -0.9450
  257MOL0     H34662   3.341  12.044   5.758 -1.2836  0.5348 -1.3485
  257MOL0     H34663   3.162  11.871   5.733 -1.2682 -0.4629  1.2239
  257MOL0     H34664   3.104  11.879   5.895  0.8305 -1.5556  0.6080
  257MOL0     H34665   2.969  12.015   5.736  0.3003  0.3647 -0.5534
  257MOL0     H34666   3.099  12.134   5.724 -1.0079 -0.6795 -0.8990
  257MOL0     H34667   3.079  12.117   6.001 -1.4915  1.0607  1.1451
  257MOL0     H34668   2.921  12.060   5.967 -2.8703  2.7019  0.5839
  257MOL0     H34669   2.907  12.307   6.003 -0.2094 -1.0762 -0.9442
  257MOL0     H34670   3.039  12.348   5.905  0.5699 -0.1639  2.9020
  257MOL0     H34671   2.916  12.268   5.693  1.8250 -0.0604  0.7869
  257MOL0     H34672   2.850  12.404   5.781 -1.0962  0.0381 -0.2188
  257MOL0     H34673   2.732  12.117   5.809 -3.0075 -0.8027  3.1892
  257MOL0     H34674   2.674  12.262   5.873 -0.4492  0.1229 -0.3752
  257MOL0     H34675   3.667  11.787   5.919 -0.4809  1.3319 -2.8376
  257MOL0     H34676   3.758  11.571   5.992  1.1628 -0.8838 -1.9116
  257MOL0     H34677   3.763  11.111   5.891  2.5202 -1.7503 -0.3157
  257MOL0     H34678   3.836  10.904   5.951 -4.0753 -1.9080 -1.3575
  257MOL0     H34679   3.533   9.246   5.932  0.3053  4.1674  1.4031
  257MOL0     H34680   3.607   9.024   5.934 -2.0036  0.3928  0.4398
  257MOL0     H34681   3.853   8.724   6.253  0.7736 -0.3278  1.6937
  257MOL0     H34682   3.969   8.524   6.320  3.2232 -2.4337  0.1181
  257MOL0     H34683   4.155   8.207   6.270  0.6970  0.8375  1.7346
  257MOL0     H34684   4.048   8.325   6.347  0.8312  1.4996  2.3189
  257MOL0     H34685   4.232   8.401   6.468 -0.4774  1.3126 -0.4745
  257MOL0     H34686   4.255   8.490   6.316  2.0381  1.1505  0.0008
  257MOL0     H34687   4.389   8.227   6.364 -0.5747 -0.1015 -2.1593
  257MOL0     H34688   4.462   8.377   6.410  0.5739  0.6286 -0.8526
  257MOL0     H34689   4.368   8.332   6.116  1.1325 -2.4916 -1.8648
  257MOL0     H34690   4.476   8.465   6.184  1.9575 -1.4137  0.6057
  257MOL0     H34691   4.729   8.124   6.149 -2.4644 -2.6268  0.2092
  257MOL0     H34692   4.069   8.448   5.913 -0.8619 -0.5730 -0.2204
  257MOL0     H34693   3.842   8.658   5.767 -0.9429  0.5573  1.7164
  257MOL0     H34694   3.994   8.743   5.768  2.9731 -1.3763  3.4811
  257MOL0     H34695   3.990   8.563   5.735  0.4460 -1.2886  1.8299
  258MOL0     O34696   5.670   7.268  11.392 -0.5636  0.4952  0.5503
  258MOL0     C34697   5.612   7.364  11.448  0.2665  0.1976 -0.9509
  258MOL0     O34698   5.477   7.391  11.447 -0.0649  0.4192  0.3416
  258MOL0     C34699   5.382   7.289  11.412 -0.4020  0.1143 -0.5009
  258MOL0     C34700   5.403   7.151  11.427 -0.1088 -0.3299 -1.1446
  258MOL0     C34701   5.301   7.068  11.383  0.3721  0.4661 -0.0179
  258MOL0     C34702   5.191   7.115  11.316  1.2496  0.1223  0.2101
  258MOL0     O34703   5.105   7.024  11.267  0.2766 -0.2879 -0.1196
  258MOL0     C34704   4.990   7.049  11.193  0.4148 -0.0546 -0.7476
  258MOL0     C34705   4.875   6.967  11.259 -0.0940  0.3525 -0.0073
  258MOL0     C34706   4.888   6.807  11.253 -0.5755 -0.5415  0.7048
  258MOL0     C34707   4.987   6.748  11.354  0.2639 -0.1634 -0.5289
  258MOL0     C34708   4.956   6.776  11.503  0.2495 -0.4981  0.4389
  258MOL0     C34709   4.837   6.688  11.546  0.6631  0.0600 -0.3240
  258MOL0     C34710   4.880   6.544  11.575 -0.2849  0.6736 -0.2237
  258MOL0     C34711   4.760   6.474  11.636  0.5021  0.8381 -0.2552
  258MOL0     N34712   4.797   6.338  11.668  0.6480  0.6114 -0.1086
  258MOL0     C34713   4.744   6.227  11.601 -0.4208  0.4362  0.1411
  258MOL0     C34714   4.799   6.126  11.662 -0.1780 -0.6443 -0.4221
  258MOL0     C34715   4.785   5.985  11.630 -0.6838 -0.3468  0.8617
  258MOL0     C34716   4.643   5.938  11.664 -0.4822  0.1697 -0.3546
  258MOL0     C34717   4.629   5.787  11.667  0.2375  0.8095 -0.1837
  258MOL0     C34718   4.583   5.722  11.534 -0.2073 -0.7502  0.6575
  258MOL0     O34719   4.459   5.781  11.498 -0.5459  0.4807  0.4547
  258MOL0     C34720   4.365   5.705  11.446  1.2220  0.0442 -1.1845
  258MOL0     C34721   4.379   5.639  11.322 -0.4077  0.0103  0.6457
  258MOL0     C34722   4.270   5.575  11.275  0.0554  0.6248 -0.4506
  258MOL0     C34723   4.145   5.583  11.325  0.5599  0.3579 -0.2289
  258MOL0     C34724   4.034   5.489  11.286  0.2784  0.4012  0.0100
  258MOL0     O34725   4.050   5.428  11.169  0.3008  0.0414 -0.5729
  258MOL0     C34726   3.965   5.328  11.133  0.1585  0.6693  0.3940
  258MOL0     C34727   3.863   5.355  11.051  0.1990  0.1101  1.4180
  258MOL0     C34728   3.777   5.250  11.008 -0.6884  0.1820  0.6366
  258MOL0     C34729   3.764   5.129  11.082 -0.0590 -0.4941 -0.0410
  258MOL0     O34730   3.666   5.045  11.040 -0.1135  0.1353 -0.2045
  258MOL0     C34731   3.690   4.901  11.056 -0.0533 -0.9212  0.8758
  258MOL0     C34732   3.654   4.853  11.193  0.4134 -0.2147 -0.8236
  258MOL0     C34733   3.507   4.850  11.214  0.9000 -1.4974  0.5615
  258MOL0     C34734   3.458   4.884  11.356  0.3447 -0.3804  0.0090
  258MOL0     C34735   3.330   4.812  11.403 -0.4770 -0.0544 -0.3849
  258MOL0     C34736   3.259   4.859  11.533  0.3047  1.0400  0.5927
  258MOL0     C34737   3.334   4.831  11.677 -0.4839 -0.5883  1.1270
  258MOL0     C34738   3.296   4.896  11.804  0.4915  0.2861 -0.2935
  258MOL0    Cl34739   3.374   4.850  11.957 -0.3132  0.1804 -0.2399
  258MOL0     C34740   3.868   5.107  11.172  0.5889  0.1472 -0.2279
  258MOL0     C34741   3.972   5.202  11.194  0.0936 -0.9397  0.5370
  258MOL0     O34742   3.938   5.480  11.362  0.1580 -0.2856  0.0609
  258MOL0     C34743   4.126   5.668  11.433 -0.0119 -0.0806  0.2591
  258MOL0     C34744   4.235   5.726  11.495  0.2277 -0.0799 -0.2165
  258MOL0     N34745   4.869   6.163  11.773  0.4125 -0.1056  0.1900
  258MOL0     N34746   4.871   6.289  11.769 -0.1701  1.4001  0.7000
  258MOL0     C34747   5.179   7.253  11.295 -0.8062  0.4913 -1.3049
  258MOL0     C34748   5.276   7.336  11.343 -0.1250 -1.3204 -0.7168
  258MOL0     C34749   5.697   7.472  11.504 -0.3264  0.0633  0.5565
  258MOL0     C34750   5.796   7.431  11.595 -0.3027  0.3735 -0.9010
  258MOL0     C34751   5.862   7.532  11.671 -0.5416  0.1942  0.5802
  258MOL0     C34752   5.829   7.660  11.654 -0.2178  0.4548 -0.1730
  258MOL0     O34753   5.906   7.757  11.705  0.3073  0.1110 -0.1947
  258MOL0     C34754   5.864   7.785  11.838  0.1980 -0.0208  0.3322
  258MOL0     C34755   5.970   7.717  11.937 -0.1196 -0.6701  0.5583
  258MOL0     C34756   5.908   7.663  12.064 -0.4705 -0.5458 -0.0011
  258MOL0     C34757   5.879   7.770  12.176 -0.4235  0.0090  0.6638
  258MOL0     C34758   5.835   7.703  12.298  0.4627 -0.9961 -0.0608
  258MOL0     C34759   5.822   7.656  12.406 -0.2278 -0.3562 -0.0250
  258MOL0     C34760   5.746   7.698  11.555  0.8651  0.2246  0.1695
  258MOL0     C34761   5.678   7.610  11.470  0.3870  0.4390 -0.3311
  258MOL0     C34762   5.591   7.659  11.360  0.4251 -0.5396  1.4157
  258MOL0     H34763   5.494   7.107  11.467  0.9065  1.5346 -1.2928
  258MOL0     H34764   5.305   6.960  11.390  1.7334  0.1150 -3.8897
  258MOL0     H34765   4.947   7.149  11.202 -3.0766 -1.3583 -1.1332
  258MOL0     H34766   4.993   7.019  11.088 -3.1579 -0.5395 -0.8475
  258MOL0     H34767   4.789   6.999  11.200 -1.5780 -2.0196  0.7434
  258MOL0     H34768   4.843   6.996  11.359 -0.1096  0.6458 -0.0956
  258MOL0     H34769   4.926   6.785  11.153  1.4272  1.3094  1.0164
  258MOL0     H34770   4.794   6.752  11.263 -0.3456 -0.5998  3.6222
  258MOL0     H34771   4.991   6.640  11.337 -1.3545 -0.0352 -2.0628
  258MOL0     H34772   5.087   6.791  11.345  0.5379 -0.6112  0.3332
  258MOL0     H34773   5.040   6.756  11.570 -0.1626 -1.4726  0.6827
  258MOL0     H34774   4.925   6.881  11.510 -0.4260 -0.7199  0.8616
  258MOL0     H34775   4.800   6.712  11.646  2.1227 -3.0610  1.1149
  258MOL0     H34776   4.757   6.693  11.472 -0.3686 -0.8995  0.6630
  258MOL0     H34777   4.968   6.537  11.639  1.0349  1.7022 -1.8352
  258MOL0     H34778   4.909   6.493  11.483  2.3509 -2.1872  1.9927
  258MOL0     H34779   4.739   6.503  11.740 -2.1522  0.4952 -0.6205
  258MOL0     H34780   4.670   6.479  11.574 -0.2445  2.5287  0.8753
  258MOL0     H34781   4.689   6.226  11.507  1.3209  0.5318 -0.9372
  258MOL0     H34782   4.795   5.984  11.521 -3.4023 -2.1549  0.5322
  258MOL0     H34783   4.860   5.915  11.668 -1.1260 -2.2916 -1.5819
  258MOL0     H34784   4.610   5.982  11.759 -2.6882 -0.9812 -0.5200
  258MOL0     H34785   4.571   5.966  11.586 -0.5879  1.0966  0.0656
  258MOL0     H34786   4.541   5.768  11.728  1.3313 -2.3086  0.6030
  258MOL0     H34787   4.711   5.734  11.716 -1.3183 -1.7976 -0.2104
  258MOL0     H34788   4.593   5.614  11.542  1.2283 -0.6578  0.2716
  258MOL0     H34789   4.651   5.752  11.455 -0.7050  0.7786  0.7689
  258MOL0     H34790   4.483   5.635  11.289 -1.1512  0.3379 -1.9077
  258MOL0     H34791   4.289   5.502  11.197  2.6128  1.3845 -0.6340
  258MOL0     H34792   3.855   5.455  11.009 -0.5944 -0.0030  1.2911
  258MOL0     H34793   3.706   5.271  10.929 -1.7059  1.3032  1.7958
  258MOL0     H34794   3.630   4.846  10.984  1.2490 -0.4923 -0.5874
  258MOL0     H34795   3.793   4.873  11.031  0.2698  1.2950 -0.5984
  258MOL0     H34796   3.697   4.753  11.207  0.6046  0.2246  2.6183
  258MOL0     H34797   3.698   4.916  11.271  0.0442  1.8940 -2.2270
  258MOL0     H34798   3.468   4.920  11.140  1.0296 -0.1129  1.7661
  258MOL0     H34799   3.467   4.753  11.182  1.0141 -1.7106  1.0584
  258MOL0     H34800   3.433   4.990  11.357 -1.4696 -0.7745  0.8117
  258MOL0     H34801   3.539   4.877  11.429  0.5360  2.6245  0.1848
  258MOL0     H34802   3.354   4.706  11.412  2.0143  0.4853  0.0598
  258MOL0     H34803   3.253   4.824  11.327 -0.2964  0.4107 -0.4995
  258MOL0     H34804   3.238   4.966  11.531  1.8929  1.3973  1.2004
  258MOL0     H34805   3.160   4.814  11.541  0.1483  1.5162  1.5299
  258MOL0     H34806   3.439   4.858  11.660 -1.1309  2.5530  1.4784
  258MOL0     H34807   3.319   4.724  11.694  1.7131 -1.2760 -0.8147
  258MOL0     H34808   3.288   5.004  11.787 -0.3318  0.0001 -1.9106
  258MOL0     H34809   3.191   4.871  11.826 -0.3535  2.3460 -1.7042
  258MOL0     H34810   3.891   5.015  11.225 -1.7134 -0.9668 -1.0092
  258MOL0     H34811   4.049   5.181  11.268  0.8765  1.9781  0.6646
  258MOL0     H34812   4.024   5.684  11.466  0.0514 -0.9052  0.8837
  258MOL0     H34813   4.224   5.804  11.569  0.7104  1.2711 -1.5121
  258MOL0     H34814   5.099   7.304  11.242 -0.4577  2.6353  0.0783
  258MOL0     H34815   5.268   7.441  11.314  3.3026 -0.9526 -0.7984
  258MOL0     H34816   5.822   7.326  11.604 -0.2280  0.3125 -1.7336
  258MOL0     H34817   5.946   7.495  11.729 -0.4609 -1.5499 -0.5742
  258MOL0     H34818   5.761   7.760  11.866  0.2206  0.7913  1.2049
  258MOL0     H34819   5.862   7.893  11.854  1.2693  0.0352  0.1189
  258MOL0     H34820   6.059   7.781  11.942 -1.2434  1.2083 -1.4054
  258MOL0     H34821   6.005   7.629  11.882 -1.1078 -0.4764 -0.4060
  258MOL0     H34822   5.980   7.596  12.113  2.1256  0.5899 -2.0071
  258MOL0     H34823   5.826   7.604  12.022 -0.9735  0.2015 -0.0853
  258MOL0     H34824   5.968   7.833  12.186  1.1937 -1.7280 -1.6468
  258MOL0     H34825   5.803   7.839  12.136 -0.4513 -0.5055 -0.2147
  258MOL0     H34826   5.826   7.600  12.497 -3.0326 -1.5099 -0.5218
  258MOL0     H34827   5.720   7.800  11.531 -1.3628 -0.5658 -1.0921
  258MOL0     H34828   5.486   7.636  11.378 -0.3805  1.8952  0.2345
  258MOL0     H34829   5.584   7.766  11.339 -1.7264 -1.0961 -1.2167
  258MOL0     H34830   5.621   7.618  11.263 -0.0529 -3.2826  2.3569
  259MOL0     O34831   7.531   5.036   1.231  0.2900 -0.6327  0.2885
  259MOL0     C34832   7.487   5.145   1.262  0.9799  0.7093  0.3305
  259MOL0     O34833   7.559   5.251   1.302  0.2731 -0.3813  0.0567
  259MOL0     C34834   7.694   5.254   1.321  0.5096 -0.6066 -0.5372
  259MOL0     C34835   7.760   5.150   1.384 -0.3878 -0.2542 -0.8134
  259MOL0     C34836   7.893   5.149   1.403 -0.1102  0.2388 -0.2808
  259MOL0     C34837   7.963   5.264   1.386 -0.9086  0.3273  0.2670
  259MOL0     O34838   8.100   5.270   1.410 -0.4329 -0.1752 -0.0775
  259MOL0     C34839   8.195   5.179   1.353  0.0818 -0.3884 -0.6595
  259MOL0     C34840   8.337   5.236   1.384 -0.0015  0.5518  0.3040
  259MOL0     C34841   8.444   5.144   1.326  0.3907 -1.1219 -0.6861
  259MOL0     C34842   8.454   5.012   1.407 -0.1373 -0.7232 -0.1257
  259MOL0     C34843   8.595   4.942   1.402  0.2196 -0.0777  0.1863
  259MOL0     C34844   8.632   4.904   1.258 -0.8465 -0.8571 -0.6996
  259MOL0     C34845   8.782   4.892   1.227 -0.3918 -0.4547 -1.1752
  259MOL0     C34846   8.857   4.779   1.290 -0.6676  0.4516 -0.0989
  259MOL0     N34847   8.972   4.751   1.204  0.3280  0.5188  0.0792
  259MOL0     C34848   9.094   4.792   1.236  0.3928 -0.6636  0.3873
  259MOL0     C34849   9.185   4.721   1.166 -0.1040 -0.8315  0.2390
  259MOL0     C34850   9.334   4.717   1.196 -0.0919 -0.0698 -0.3993
  259MOL0     C34851   9.407   4.852   1.167 -0.2513  0.5173 -0.3556
  259MOL0     C34852   9.451   4.868   1.017  0.2095 -0.6169 -0.2882
  259MOL0     C34853   9.332   4.860   0.910 -0.4396 -1.0211 -0.5689
  259MOL0     O34854   9.340   4.960   0.806 -0.3212  0.5958 -0.2859
  259MOL0     C34855   9.428   4.948   0.699  0.1039  0.5004  0.1330
  259MOL0     C34856   9.536   4.860   0.701 -0.5466  0.4610 -1.5100
  259MOL0     C34857   9.625   4.862   0.591  0.2675 -0.0747 -0.2675
  259MOL0     C34858   9.591   4.909   0.464 -0.7445 -1.4822 -0.3778
  259MOL0     C34859   9.671   4.881   0.350 -0.0212  0.4492 -0.1969
  259MOL0     O34860   9.767   4.782   0.366 -0.1127 -0.3028  0.8452
  259MOL0     C34861   9.832   4.743   0.252 -0.5715  0.8696  0.2906
  259MOL0     C34862   9.971   4.764   0.252  0.0838 -0.0694 -0.1718
  259MOL0     C34863  10.051   4.719   0.148 -0.3453  1.0903 -0.4010
  259MOL0     C34864  10.003   4.635   0.047  0.5441 -0.6804 -0.3477
  259MOL0     O34865  10.082   4.575  -0.048  0.2312 -0.3971  0.3155
  259MOL0     C34866  10.220   4.617  -0.077 -0.0503 -0.4793 -0.3079
  259MOL0     C34867  10.245   4.612  -0.225 -0.0330 -0.1360 -0.0475
  259MOL0     C34868  10.388   4.663  -0.260 -0.2906  0.9714  0.2459
  259MOL0     C34869  10.416   4.627  -0.410  0.9252 -0.6184 -0.4333
  259MOL0     C34870  10.542   4.690  -0.467  0.6985 -0.3447  0.5161
  259MOL0     C34871  10.673   4.614  -0.420  0.2745 -0.1470  0.3901
  259MOL0     C34872  10.800   4.675  -0.475 -0.5896 -0.0820 -0.1369
  259MOL0     C34873  10.834   4.818  -0.433 -0.7939 -0.1319 -0.2522
  259MOL0    Cl34874  11.005   4.836  -0.473 -0.0561 -0.0755 -0.5605
  259MOL0     C34875   9.863   4.605   0.050 -0.5293  0.1764  0.1051
  259MOL0     C34876   9.779   4.667   0.144 -0.2967  0.0088  0.1468
  259MOL0     O34877   9.646   4.942   0.241 -0.0733 -0.1367 -0.0486
  259MOL0     C34878   9.475   4.997   0.466 -0.7075  0.2969 -0.3240
  259MOL0     C34879   9.400   5.010   0.581  0.1675  0.6707 -0.6949
  259MOL0     N34880   9.107   4.648   1.078  0.7312 -0.5587  0.0823
  259MOL0     N34881   8.979   4.658   1.098  0.4431 -0.4921  0.2664
  259MOL0     C34882   7.903   5.379   1.324  0.0420  0.4842 -0.0573
  259MOL0     C34883   7.768   5.367   1.288 -0.2050  0.0951 -0.0694
  259MOL0     C34884   7.341   5.162   1.257  0.0063  0.1553 -0.1874
  259MOL0     C34885   7.285   5.132   1.131 -0.3468  0.7304 -0.4393
  259MOL0     C34886   7.150   5.144   1.106  0.6070  0.1846 -0.6839
  259MOL0     C34887   7.069   5.198   1.210 -0.0420  0.4282 -0.0175
  259MOL0     O34888   6.938   5.222   1.164  0.3367 -0.5147 -0.3915
  259MOL0     C34889   6.829   5.230   1.251 -0.7139 -0.9006 -0.6842
  259MOL0     C34890   6.697   5.263   1.180  0.0173 -0.8959  0.2047
  259MOL0     C34891   6.666   5.157   1.073 -0.1121 -0.5286 -0.5409
  259MOL0     C34892   6.526   5.166   1.016 -0.0054  0.2437 -0.0159
  259MOL0     C34893   6.425   5.123   1.122 -0.2393 -0.0787 -0.5291
  259MOL0     C34894   6.347   5.084   1.210  0.0083 -1.3748 -0.1167
  259MOL0     C34895   7.121   5.223   1.338  0.6949  0.0378 -0.7218
  259MOL0     C34896   7.257   5.202   1.368  0.4787  0.1155  0.6008
  259MOL0     C34897   7.315   5.235   1.504  0.0244 -0.1254 -0.4243
  259MOL0     H34898   7.701   5.066   1.419  0.7792 -0.5384  0.5782
  259MOL0     H34899   7.924   5.056   1.449 -0.3378  0.2182 -0.1666
  259MOL0     H34900   8.190   5.081   1.402  2.8750 -0.1322  0.3316
  259MOL0     H34901   8.171   5.161   1.248 -0.4505 -1.7935 -0.3311
  259MOL0     H34902   8.359   5.241   1.491 -0.6047 -1.4098  0.5618
  259MOL0     H34903   8.347   5.336   1.340  0.6762  0.4009  0.1052
  259MOL0     H34904   8.540   5.197   1.323 -2.0651  3.8709 -1.5920
  259MOL0     H34905   8.422   5.113   1.223 -2.4645 -0.5938 -0.3061
  259MOL0     H34906   8.432   5.040   1.510 -5.2064 -0.2294 -1.0646
  259MOL0     H34907   8.372   4.946   1.376 -0.3254 -2.6336  3.8640
  259MOL0     H34908   8.664   5.012   1.451 -1.0124  0.3751  1.3615
  259MOL0     H34909   8.589   4.854   1.467  3.3143  0.7323  1.7691
  259MOL0     H34910   8.575   4.821   1.215  2.8468 -2.8356 -2.2162
  259MOL0     H34911   8.593   4.984   1.194 -1.0548 -0.0871  0.3540
  259MOL0     H34912   8.838   4.980   1.262 -3.3883  1.3287 -0.4271
  259MOL0     H34913   8.794   4.888   1.118 -1.3681 -2.0291 -1.2483
  259MOL0     H34914   8.887   4.801   1.393  1.3819 -0.4933 -0.4349
  259MOL0     H34915   8.805   4.683   1.284  2.6649 -1.6567  1.3823
  259MOL0     H34916   9.113   4.860   1.318  4.4680 -0.0519 -0.8599
  259MOL0     H34917   9.345   4.712   1.305 -2.2741  0.5293 -0.0985
  259MOL0     H34918   9.381   4.627   1.155  0.1099 -1.2740  2.2518
  259MOL0     H34919   9.353   4.946   1.181  3.0409  3.6242 -5.3288
  259MOL0     H34920   9.499   4.869   1.225 -0.3264  0.9702 -0.3681
  259MOL0     H34921   9.533   4.802   0.989  1.3289 -0.1072  1.5963
  259MOL0     H34922   9.485   4.972   1.011  0.1199 -0.6835 -4.2498
  259MOL0     H34923   9.243   4.890   0.966  0.9876  0.1286  1.1935
  259MOL0     H34924   9.320   4.761   0.864  0.0947 -0.4853 -1.9171
  259MOL0     H34925   9.560   4.790   0.780  1.1243  1.3850 -1.1447
  259MOL0     H34926   9.717   4.805   0.598 -0.2895 -0.9921 -0.2342
  259MOL0     H34927  10.019   4.815   0.335  2.8426 -2.1027 -0.3605
  259MOL0     H34928  10.156   4.747   0.148  0.1541 -0.6592 -0.5654
  259MOL0     H34929  10.236   4.715  -0.032 -1.3581 -0.4357  0.0951
  259MOL0     H34930  10.301   4.558  -0.032  0.5787  0.7790  0.2697
  259MOL0     H34931  10.222   4.516  -0.271  0.0949  0.1407 -0.7051
  259MOL0     H34932  10.171   4.680  -0.269  1.4206  0.0654 -2.3344
  259MOL0     H34933  10.398   4.772  -0.250 -2.5393  1.0392  2.9099
  259MOL0     H34934  10.461   4.614  -0.195 -2.3212 -0.1386  1.8011
  259MOL0     H34935  10.333   4.667  -0.468  0.0848 -1.5558  0.0942
  259MOL0     H34936  10.414   4.518  -0.416 -1.3951 -0.6566  0.3324
  259MOL0     H34937  10.548   4.790  -0.425  2.5524 -0.1132 -0.1752
  259MOL0     H34938  10.536   4.698  -0.576  0.1710 -2.0336  0.3890
  259MOL0     H34939  10.677   4.618  -0.311  0.6174 -0.1669  0.3775
  259MOL0     H34940  10.655   4.517  -0.467  2.3193 -0.3421 -0.0791
  259MOL0     H34941  10.800   4.666  -0.584 -0.6138  0.5097 -0.1894
  259MOL0     H34942  10.886   4.613  -0.449 -3.3721 -3.1259  2.7396
  259MOL0     H34943  10.776   4.884  -0.499 -1.3453 -2.1304 -1.8772
  259MOL0     H34944  10.814   4.830  -0.326 -1.3014 -2.1259 -0.0862
  259MOL0     H34945   9.809   4.553  -0.028 -0.5482  0.6404 -0.1961
  259MOL0     H34946   9.672   4.662   0.128 -0.4076 -1.7770  1.1883
  259MOL0     H34947   9.433   5.044   0.377 -1.2514 -0.4462 -0.4785
  259MOL0     H34948   9.309   5.068   0.581 -0.0672  0.8242  4.6975
  259MOL0     H34949   7.966   5.462   1.294 -0.8341  0.7995 -1.0638
  259MOL0     H34950   7.712   5.446   1.238 -2.2585 -1.2618 -0.0379
  259MOL0     H34951   7.346   5.088   1.052  1.9605  1.3116  0.9204
  259MOL0     H34952   7.110   5.131   1.006 -4.2084  6.2064 -0.1202
  259MOL0     H34953   6.846   5.297   1.336  1.0933 -1.9434 -0.1809
  259MOL0     H34954   6.824   5.133   1.301  0.6805 -1.1032 -0.8980
  259MOL0     H34955   6.706   5.362   1.133  1.8655 -1.3018 -0.3883
  259MOL0     H34956   6.611   5.258   1.247 -0.0855 -0.8361  0.0786
  259MOL0     H34957   6.673   5.056   1.113  2.9214 -0.4654 -0.6755
  259MOL0     H34958   6.731   5.169   0.986 -1.5958  2.7891 -1.3379
  259MOL0     H34959   6.495   5.257   0.964 -2.7288 -0.3033  0.4914
  259MOL0     H34960   6.526   5.092   0.936  1.7946 -0.2352  0.3879
  259MOL0     H34961   6.278   5.038   1.278 -0.4644 -2.2746 -1.1747
  259MOL0     H34962   7.053   5.262   1.413  1.3503  0.2564 -0.2342
  259MOL0     H34963   7.249   5.185   1.576  1.1014 -3.1287 -1.3839
  259MOL0     H34964   7.414   5.190   1.514  0.7986  0.8434 -3.0119
  259MOL0     H34965   7.320   5.342   1.525  0.8357 -0.1465 -0.4939
  260MOL0     O34966   6.826   9.519   5.745 -0.4200 -0.1010 -0.2482
  260MOL0     C34967   6.903   9.428   5.770  0.6928 -0.2667 -0.1374
  260MOL0     O34968   6.932   9.360   5.888 -0.8212 -0.3793 -0.1444
  260MOL0     C34969   6.880   9.408   6.001 -0.5368 -0.3833  0.0545
  260MOL0     C34970   6.880   9.547   6.039 -0.4171  0.0577 -0.0692
  260MOL0     C34971   6.831   9.584   6.166 -0.7179 -0.4081 -0.6458
  260MOL0     C34972   6.783   9.482   6.255 -0.6934 -0.4042 -1.0741
  260MOL0     O34973   6.730   9.505   6.380  0.1120  0.6284 -0.2930
  260MOL0     C34974   6.705   9.645   6.415 -0.5578 -0.3796 -0.0002
  260MOL0     C34975   6.634   9.683   6.542  0.7910  0.6052  0.8418
  260MOL0     C34976   6.612   9.834   6.552  0.4945  0.4678  0.8820
  260MOL0     C34977   6.552   9.852   6.689 -0.0260  0.0380 -0.8458
  260MOL0     C34978   6.562  10.003   6.728  0.5659  0.3600  0.3941
  260MOL0     C34979   6.705  10.038   6.785  0.2588 -0.2076 -0.0190
  260MOL0     C34980   6.718  10.186   6.788  0.0568 -0.4955 -1.3109
  260MOL0     C34981   6.689  10.257   6.918 -0.4420  0.4596 -0.3354
  260MOL0     N34982   6.637  10.391   6.893  0.2536  0.0406 -0.0630
  260MOL0     C34983   6.515  10.436   6.845  0.3843  0.2097 -0.1537
  260MOL0     C34984   6.517  10.571   6.851  0.2475 -0.4405 -0.1211
  260MOL0     C34985   6.393  10.657   6.830 -0.7178  0.3322 -1.2288
  260MOL0     C34986   6.403  10.742   6.705 -0.8685 -0.1753 -0.3514
  260MOL0     C34987   6.513  10.849   6.708  0.3598  1.0700 -0.5525
  260MOL0     C34988   6.481  10.963   6.611 -0.0521 -0.3273 -0.3657
  260MOL0     O34989   6.355  11.019   6.645  0.3650  0.4208  0.8534
  260MOL0     C34990   6.285  11.088   6.553  1.4348 -0.5598 -0.2289
  260MOL0     C34991   6.339  11.157   6.445  0.5383 -0.5403 -0.8433
  260MOL0     C34992   6.254  11.222   6.340 -0.6533 -0.4760 -0.2118
  260MOL0     C34993   6.121  11.220   6.353  0.2181 -0.5485  0.1033
  260MOL0     C34994   6.028  11.289   6.261  0.6243  0.1498  0.3241
  260MOL0     O34995   6.038  11.417   6.229 -0.4784 -0.0768 -0.0262
  260MOL0     C34996   5.940  11.487   6.156  0.8327 -0.7168 -0.5799
  260MOL0     C34997   5.986  11.621   6.122  0.4407  0.3313  0.2336
  260MOL0     C34998   5.896  11.714   6.059  0.3603  0.5095 -0.2720
  260MOL0     C34999   5.770  11.671   6.028  0.5205  0.9362 -0.1125
  260MOL0     O35000   5.678  11.757   5.969 -0.0900 -0.2112 -0.0357
  260MOL0     C35001   5.715  11.897   5.939 -0.0562 -0.3228  0.0269
  260MOL0     C35002   5.583  11.966   5.890 -0.0275  0.6299 -0.3369
  260MOL0     C35003   5.595  12.121   5.866 -0.0438  0.2418 -0.1434
  260MOL0     C35004   5.569  12.187   6.000 -0.1646  0.4761  0.3301
  260MOL0     C35005   5.612  12.338   5.981 -0.4440  0.2263 -0.1100
  260MOL0     C35006   5.590  12.438   6.099 -1.1033 -0.2137  0.2659
  260MOL0     C35007   5.452  12.485   6.122  0.6245 -0.3905 -0.5324
  260MOL0     C35008   5.385  12.560   6.013 -0.0756  0.3306  0.0278
  260MOL0    Cl35009   5.244  12.644   6.076  0.0550  0.2474  0.2512
  260MOL0     C35010   5.728  11.540   6.055 -0.4156 -0.4612  0.6487
  260MOL0     C35011   5.811  11.445   6.113  0.7127  0.5752 -0.2492
  260MOL0     O35012   5.937  11.212   6.223  0.3243  0.9159  0.5657
  260MOL0     C35013   6.070  11.159   6.462  0.3614  1.2088 -0.4789
  260MOL0     C35014   6.144  11.087   6.564  0.1352 -1.0018  1.3354
  260MOL0     N35015   6.642  10.601   6.909 -0.3977 -0.2401 -0.8747
  260MOL0     N35016   6.708  10.501   6.940  0.2775 -0.5114  0.2120
  260MOL0     C35017   6.790   9.349   6.215  0.4898  0.5643  0.0790
  260MOL0     C35018   6.844   9.319   6.094  0.2203  0.9431 -0.2516
  260MOL0     C35019   6.967   9.358   5.656 -0.8287 -0.6138  0.2075
  260MOL0     C35020   7.068   9.431   5.585 -0.0142  0.0819 -0.5449
  260MOL0     C35021   7.130   9.371   5.472 -0.5866  0.5835 -0.0656
  260MOL0     C35022   7.083   9.248   5.411  0.4539 -0.3359 -1.7590
  260MOL0     O35023   7.142   9.189   5.306  0.3500 -0.3778  0.3720
  260MOL0     C35024   7.234   9.267   5.235 -0.3388  0.3059  0.6280
  260MOL0     C35025   7.270   9.168   5.118 -0.4268 -0.3645 -0.3867
  260MOL0     C35026   7.393   9.089   5.159 -0.2631  0.4534 -0.1916
  260MOL0     C35027   7.410   8.960   5.074  0.1240 -0.9820  0.5658
  260MOL0     C35028   7.333   8.844   5.111  0.0384  0.2171  0.1260
  260MOL0     C35029   7.269   8.745   5.156  0.0404 -1.1051  0.8527
  260MOL0     C35030   6.974   9.186   5.476  0.6020  0.6567 -0.7298
  260MOL0     C35031   6.923   9.241   5.601  0.0793 -0.0011 -0.0953
  260MOL0     C35032   6.814   9.161   5.656 -0.0973  0.0692 -0.1181
  260MOL0     H35033   6.916   9.615   5.963 -1.3764  0.6590 -0.0004
  260MOL0     H35034   6.837   9.687   6.199  2.2959 -0.2477 -1.3267
  260MOL0     H35035   6.802   9.695   6.411 -0.5604 -0.4376 -1.4460
  260MOL0     H35036   6.637   9.684   6.339 -0.9004  0.7251  0.8466
  260MOL0     H35037   6.691   9.651   6.630  2.2996 -2.2811 -1.0292
  260MOL0     H35038   6.540   9.628   6.539  0.4920  1.0840  1.2865
  260MOL0     H35039   6.543   9.889   6.487  2.0415  3.3649  1.4782
  260MOL0     H35040   6.708   9.888   6.551 -0.5602  2.7822 -3.1328
  260MOL0     H35041   6.446   9.825   6.690 -0.1997  0.5721 -2.4236
  260MOL0     H35042   6.607   9.791   6.761 -1.6612  0.0139  0.4370
  260MOL0     H35043   6.534  10.072   6.648 -1.6397  1.3637  1.9218
  260MOL0     H35044   6.494  10.022   6.812  1.2574 -0.7377  1.2331
  260MOL0     H35045   6.730   9.991   6.881 -0.5217 -0.4883  0.0536
  260MOL0     H35046   6.789  10.016   6.718  1.7214  1.3317  1.2049
  260MOL0     H35047   6.660  10.236   6.709 -1.1129  1.6569  0.7590
  260MOL0     H35048   6.817  10.220   6.758  0.1259 -0.9646 -1.6280
  260MOL0     H35049   6.608  10.204   6.968 -0.7274 -0.9828 -2.2190
  260MOL0     H35050   6.773  10.261   6.988 -0.9621  1.8594  0.2635
  260MOL0     H35051   6.445  10.360   6.810 -0.0041  0.0710  0.8754
  260MOL0     H35052   6.304  10.593   6.830 -0.1839 -0.4289 -1.0953
  260MOL0     H35053   6.398  10.727   6.914  0.6945 -0.6367 -0.4550
  260MOL0     H35054   6.427  10.676   6.621 -2.6523 -0.8322 -0.3832
  260MOL0     H35055   6.304  10.788   6.696 -1.0762 -0.3672  0.7606
  260MOL0     H35056   6.612  10.809   6.689 -0.4220 -0.2629 -1.9727
  260MOL0     H35057   6.529  10.891   6.808  1.8519 -1.0617  0.1725
  260MOL0     H35058   6.484  10.937   6.505  0.1365  1.9308 -0.9623
  260MOL0     H35059   6.564  11.033   6.623 -1.0527  0.8412 -0.0867
  260MOL0     H35060   6.446  11.156   6.430  0.3777 -1.0164 -2.0606
  260MOL0     H35061   6.291  11.274   6.253 -0.5905 -0.0775  0.0510
  260MOL0     H35062   6.089  11.643   6.147  0.8362 -1.8617  0.7569
  260MOL0     H35063   5.920  11.817   6.036  0.4687  0.4040 -0.6376
  260MOL0     H35064   5.753  11.943   6.031  0.4437 -1.4194  0.3802
  260MOL0     H35065   5.789  11.899   5.859  0.2054  2.2412  0.2436
  260MOL0     H35066   5.554  11.919   5.796 -2.0295 -2.6672  1.7281
  260MOL0     H35067   5.509  11.930   5.962  1.9204 -2.0099  0.5033
  260MOL0     H35068   5.694  12.147   5.828  0.3329 -4.1202 -2.8293
  260MOL0     H35069   5.517  12.147   5.793  1.1872  0.2870 -1.4899
  260MOL0     H35070   5.632  12.151   6.082 -1.4868  1.1358  1.6772
  260MOL0     H35071   5.466  12.180   6.034 -0.0285 -0.6683  0.5528
  260MOL0     H35072   5.569  12.369   5.886 -1.1376 -1.3618 -0.3555
  260MOL0     H35073   5.718  12.330   5.958 -0.7934 -0.6792 -1.6074
  260MOL0     H35074   5.637  12.388   6.184  1.8211  0.8870 -0.6009
  260MOL0     H35075   5.651  12.527   6.083  1.3104 -1.1549  3.2931
  260MOL0     H35076   5.464  12.555   6.205 -0.8229  0.8075 -1.2876
  260MOL0     H35077   5.397  12.394   6.149 -1.0801 -0.3312 -3.3698
  260MOL0     H35078   5.455  12.631   5.968 -0.1635  0.2283 -0.2752
  260MOL0     H35079   5.348  12.493   5.935  5.1097 -0.2259 -2.3734
  260MOL0     H35080   5.632  11.506   6.018 -0.5904  0.9116 -0.2543
  260MOL0     H35081   5.775  11.345   6.137  1.5924  0.1529 -0.6247
  260MOL0     H35082   5.965  11.157   6.487  0.8199 -0.5809  1.5205
  260MOL0     H35083   6.099  11.027   6.643  0.9027 -1.7258  1.2290
  260MOL0     H35084   6.758   9.277   6.289  0.4841  0.9572  0.4681
  260MOL0     H35085   6.842   9.213   6.069  0.4752  1.2219 -1.5401
  260MOL0     H35086   7.109   9.523   5.625 -0.5400 -0.3001  0.9442
  260MOL0     H35087   7.210   9.426   5.424  1.4593 -2.5853 -0.5760
  260MOL0     H35088   7.330   9.289   5.281  0.2962  1.3957 -1.1018
  260MOL0     H35089   7.197   9.365   5.204  0.1105 -0.1715 -1.5819
  260MOL0     H35090   7.295   9.217   5.024  0.1770 -1.1676 -0.6545
  260MOL0     H35091   7.186   9.099   5.106 -1.3264  0.4668  0.9014
  260MOL0     H35092   7.383   9.057   5.263 -1.4002  2.1084  0.2484
  260MOL0     H35093   7.486   9.146   5.160 -0.6292  1.0696 -0.3633
  260MOL0     H35094   7.380   8.978   4.971 -1.6856 -1.7825  0.9199
  260MOL0     H35095   7.514   8.925   5.080 -0.5293 -3.3026 -0.4186
  260MOL0     H35096   7.224   8.657   5.196  1.5617 -2.2562  0.1215
  260MOL0     H35097   6.914   9.112   5.425  1.2319 -0.9039  0.6749
  260MOL0     H35098   6.843   9.059   5.630  1.8771  1.0482 -2.1144
  260MOL0     H35099   6.779   9.180   5.758 -1.8336  0.0187 -0.6556
  260MOL0     H35100   6.717   9.165   5.604 -1.0900 -2.9724  1.2602
  261MOL0     O35101  11.123   7.785   4.787 -0.3482  0.2307 -0.4654
  261MOL0     C35102  11.183   7.893   4.812  0.4828  0.9338  0.1091
  261MOL0     O35103  11.300   7.896   4.863 -0.2278  1.5461 -0.6365
  261MOL0     C35104  11.335   7.792   4.956  0.0846 -0.0932  0.4554
  261MOL0     C35105  11.245   7.757   5.056 -0.3938  0.4381 -0.9405
  261MOL0     C35106  11.273   7.644   5.142  0.1833 -0.5052  0.6574
  261MOL0     C35107  11.390   7.562   5.112  0.3784 -0.3833 -0.3826
  261MOL0     O35108  11.412   7.436   5.165  0.3136 -0.1456 -0.6444
  261MOL0     C35109  11.350   7.399   5.295  0.1868  0.0946 -0.1400
  261MOL0     C35110  11.393   7.481   5.414 -0.2069  0.2435 -0.4328
  261MOL0     C35111  11.370   7.428   5.561 -0.1537  1.0410 -0.5927
  261MOL0     C35112  11.438   7.296   5.579 -0.0885  0.6705 -0.4231
  261MOL0     C35113  11.591   7.305   5.576 -0.3024  0.1180 -0.3388
  261MOL0     C35114  11.645   7.172   5.613  0.6385 -0.6497 -0.2231
  261MOL0     C35115  11.799   7.173   5.581 -0.2044  0.6495 -0.5430
  261MOL0     C35116  11.859   7.043   5.593 -0.0257 -0.3448  1.0859
  261MOL0     N35117  11.908   6.971   5.472 -0.5485  0.8044 -0.3074
  261MOL0     C35118  11.887   6.995   5.339  0.8185  0.2660 -0.0620
  261MOL0     C35119  11.956   6.891   5.281 -0.7237  0.9399 -0.0536
  261MOL0     C35120  11.963   6.865   5.128 -0.0990 -1.3410  0.7053
  261MOL0     C35121  11.884   6.951   5.042  0.7521 -0.2402  0.6753
  261MOL0     C35122  11.901   6.926   4.889  0.5436  0.2375  0.0136
  261MOL0     C35123  12.044   6.964   4.832  0.0991 -1.1747  0.3379
  261MOL0     O35124  12.053   6.902   4.712  0.2583 -0.6600  0.7128
  261MOL0     C35125  12.045   6.986   4.599  0.1348  0.6778 -0.2385
  261MOL0     C35126  11.978   7.112   4.590  0.9962  1.1637 -0.6507
  261MOL0     C35127  11.979   7.180   4.470 -0.4378 -0.8095  0.3639
  261MOL0     C35128  12.052   7.134   4.358  0.0743  0.3906 -0.4016
  261MOL0     C35129  12.018   7.186   4.226  0.0909  0.4107 -0.4421
  261MOL0     O35130  12.096   7.150   4.126  0.4573  0.1145  0.3022
  261MOL0     C35131  12.077   7.191   3.996 -0.1495 -0.8537 -0.0074
  261MOL0     C35132  12.200   7.191   3.916  1.0207  0.1146 -0.2265
  261MOL0     C35133  12.194   7.230   3.781  0.3711 -0.8824 -0.4339
  261MOL0     C35134  12.071   7.264   3.721  0.5634  0.4594  0.2291
  261MOL0     O35135  12.061   7.277   3.582  0.1319 -0.9356 -0.4186
  261MOL0     C35136  12.151   7.366   3.510 -0.3106  0.1755  0.7539
  261MOL0     C35137  12.215   7.288   3.385  0.1138  0.1299  0.1100
  261MOL0     C35138  12.116   7.290   3.265  0.3642  0.6060 -0.2285
  261MOL0     C35139  12.174   7.222   3.150  0.3065 -0.9024 -0.9742
  261MOL0     C35140  12.183   7.076   3.170 -0.0409  0.1579 -0.0852
  261MOL0     C35141  12.224   6.987   3.050 -0.2673  0.0918 -0.5085
  261MOL0     C35142  12.239   6.839   3.093  0.2164 -0.4169  0.3517
  261MOL0     C35143  12.347   6.758   3.010 -0.0967  0.0658 -0.3321
  261MOL0    Cl35144  12.303   6.730   2.835  0.1816  0.3721 -0.0222
  261MOL0     C35145  11.952   7.246   3.801 -0.5650  0.9264 -0.9543
  261MOL0     C35146  11.957   7.214   3.938  0.0750  0.4037 -0.1011
  261MOL0     O35147  11.955   7.283   4.220  0.5307 -0.8152  0.3753
  261MOL0     C35148  12.128   7.017   4.378 -0.3689  0.5843 -0.3273
  261MOL0     C35149  12.127   6.941   4.494  0.9625  0.7112 -0.3800
  261MOL0     N35150  12.016   6.808   5.375  0.2372  0.3728  0.3443
  261MOL0     N35151  11.982   6.857   5.485  0.3576  0.2165  0.3388
  261MOL0     C35152  11.474   7.596   5.000 -0.4998  0.0360 -0.1356
  261MOL0     C35153  11.449   7.719   4.931 -0.0224 -0.0605  0.4088
  261MOL0     C35154  11.121   8.020   4.779  0.1417  0.4418 -0.0969
  261MOL0     C35155  11.211   8.128   4.760 -0.2716  0.3746 -0.2122
  261MOL0     C35156  11.163   8.248   4.716 -0.7220  0.0389  0.4509
  261MOL0     C35157  11.033   8.271   4.676  0.7653  0.6539 -0.2521
  261MOL0     O35158  10.996   8.387   4.612  0.4694 -0.6765 -0.3992
  261MOL0     C35159  11.079   8.436   4.503  0.7542 -0.0486  0.2498
  261MOL0     C35160  11.139   8.576   4.555  0.2579  0.2747  1.1327
  261MOL0     C35161  11.210   8.647   4.433  0.3338  1.0153  0.2200
  261MOL0     C35162  11.333   8.723   4.495 -1.0005 -0.0523 -0.1072
  261MOL0     C35163  11.282   8.819   4.597 -0.4575  0.4790  0.5047
  261MOL0     C35164  11.221   8.885   4.681  0.4010 -1.1470 -0.0408
  261MOL0     C35165  10.940   8.172   4.705  0.6849  0.2320 -0.4228
  261MOL0     C35166  10.984   8.044   4.744 -0.5612  0.5167  1.1149
  261MOL0     C35167  10.869   7.947   4.763  0.0932 -1.1551  0.8271
  261MOL0     H35168  11.145   7.796   5.073 -0.9226  0.9505 -4.4760
  261MOL0     H35169  11.205   7.623   5.223 -0.2025 -1.5747  0.0726
  261MOL0     H35170  11.241   7.393   5.294  0.2340 -3.2847  1.1312
  261MOL0     H35171  11.375   7.293   5.305  0.8980  0.3286  0.6337
  261MOL0     H35172  11.347   7.579   5.400 -0.3137  0.3096  0.3513
  261MOL0     H35173  11.499   7.492   5.392 -0.4272  0.2307 -1.6090
  261MOL0     H35174  11.271   7.411   5.602  0.8445 -0.7006  1.2946
  261MOL0     H35175  11.420   7.493   5.633 -2.0676  0.3131  1.5080
  261MOL0     H35176  11.408   7.253   5.675 -1.0195  1.1175 -0.5104
  261MOL0     H35177  11.408   7.231   5.496  0.4673  1.7047 -1.4698
  261MOL0     H35178  11.626   7.335   5.477  0.8154 -0.2845 -0.0841
  261MOL0     H35179  11.637   7.379   5.643  0.1859  1.1067 -1.7248
  261MOL0     H35180  11.625   7.154   5.719 -1.8347  3.9793  0.3660
  261MOL0     H35181  11.600   7.098   5.546  3.0244 -0.9401 -1.6250
  261MOL0     H35182  11.837   7.237   5.661 -0.0984  0.7490 -0.6718
  261MOL0     H35183  11.837   7.228   5.494 -0.0154  0.8679 -0.3220
  261MOL0     H35184  11.956   7.066   5.638  1.6377 -2.2195 -1.3013
  261MOL0     H35185  11.788   6.973   5.636 -3.3658 -0.1208 -3.3906
  261MOL0     H35186  11.834   7.077   5.291 -0.7432 -1.6461 -1.7699
  261MOL0     H35187  12.068   6.888   5.107 -0.9825  2.1297 -0.4986
  261MOL0     H35188  11.937   6.763   5.097 -0.0049 -0.4543 -2.6344
  261MOL0     H35189  11.779   6.944   5.072  0.5402 -2.2962 -0.3756
  261MOL0     H35190  11.910   7.056   5.056  1.0802  0.4164 -3.5518
  261MOL0     H35191  11.822   6.983   4.840  2.1844  2.1254 -0.5749
  261MOL0     H35192  11.865   6.825   4.869 -3.9103  2.0340 -2.5645
  261MOL0     H35193  12.126   6.936   4.898  0.2306  0.9543  1.1363
  261MOL0     H35194  12.054   7.073   4.829 -1.1012 -1.0719 -0.9514
  261MOL0     H35195  11.903   7.147   4.660 -0.6663  1.9015 -2.7257
  261MOL0     H35196  11.927   7.275   4.464  1.2480  0.3955  2.9866
  261MOL0     H35197  12.298   7.166   3.956  1.8949  0.2254 -2.1854
  261MOL0     H35198  12.288   7.241   3.728  0.4970  1.9192  0.2192
  261MOL0     H35199  12.094   7.447   3.465  1.2042  1.0342  0.3099
  261MOL0     H35200  12.235   7.406   3.568  1.7124 -0.6051 -1.4994
  261MOL0     H35201  12.300   7.351   3.358 -0.9587  1.7884  0.4362
  261MOL0     H35202  12.251   7.188   3.407 -1.1054 -0.8309 -1.9150
  261MOL0     H35203  12.026   7.237   3.299  0.9149  0.2858  0.7585
  261MOL0     H35204  12.094   7.392   3.232 -0.0200  0.8781  0.8173
  261MOL0     H35205  12.269   7.271   3.126  0.3361 -1.8942 -3.1252
  261MOL0     H35206  12.115   7.249   3.062 -0.6208  4.6852  0.9407
  261MOL0     H35207  12.080   7.048   3.194  1.3663 -2.2194  4.3219
  261MOL0     H35208  12.245   7.061   3.258  1.7334  3.1317 -0.6986
  261MOL0     H35209  12.145   6.981   2.974  0.1595 -0.7913 -0.9005
  261MOL0     H35210  12.322   7.011   3.009 -1.0782  1.8164 -1.5888
  261MOL0     H35211  12.142   6.788   3.090 -0.4944  0.9249 -1.7164
  261MOL0     H35212  12.273   6.834   3.197  0.0132 -3.2083  0.3543
  261MOL0     H35213  12.450   6.792   3.010 -0.0866  0.0902  1.2035
  261MOL0     H35214  12.353   6.658   3.053 -0.8173  0.5557  0.9741
  261MOL0     H35215  11.859   7.235   3.746  1.0142 -2.5123 -3.3267
  261MOL0     H35216  11.860   7.202   3.986 -0.7377  3.8680 -0.5494
  261MOL0     H35217  12.170   6.972   4.288  1.8346  2.2389 -0.2140
  261MOL0     H35218  12.184   6.849   4.498  1.0199  0.7987  2.0630
  261MOL0     H35219  11.563   7.536   4.985 -0.4083 -0.0093  0.5605
  261MOL0     H35220  11.525   7.762   4.866 -0.0624 -2.4276 -1.3272
  261MOL0     H35221  11.318   8.124   4.778 -0.3757 -0.4014  0.2606
  261MOL0     H35222  11.240   8.324   4.706 -0.0633 -0.1390  3.2001
  261MOL0     H35223  11.008   8.461   4.424 -0.2139 -0.7311  0.8703
  261MOL0     H35224  11.155   8.363   4.474  0.2134 -0.3796 -0.3408
  261MOL0     H35225  11.199   8.565   4.645 -1.5740 -0.1080  2.3512
  261MOL0     H35226  11.047   8.633   4.569 -1.1392 -1.5218 -0.3026
  261MOL0     H35227  11.147   8.716   4.376  1.6240  1.2475 -0.9664
  261MOL0     H35228  11.248   8.571   4.365 -4.8703 -0.0215 -2.0071
  261MOL0     H35229  11.398   8.654   4.550 -1.3844  0.5930  1.1866
  261MOL0     H35230  11.401   8.768   4.422 -0.3344 -2.0844 -0.8193
  261MOL0     H35231  11.163   8.955   4.738  2.2477  1.1210 -0.8026
  261MOL0     H35232  10.841   8.201   4.673  1.7286  3.7622 -0.8949
  261MOL0     H35233  10.782   7.986   4.708  2.0270 -0.3482 -1.8252
  261MOL0     H35234  10.892   7.850   4.718 -1.4872 -0.9157 -0.6076
  261MOL0     H35235  10.836   7.933   4.867  0.2623  0.1109  1.0690
  262MOL0     O35236   5.369   7.507   8.567  0.2766 -0.1637  0.3009
  262MOL0     C35237   5.265   7.471   8.505 -0.1597  1.0666  0.0788
  262MOL0     O35238   5.166   7.390   8.559  0.1314 -0.1949 -0.2114
  262MOL0     C35239   5.173   7.363   8.701 -0.1544 -0.7508  0.3409
  262MOL0     C35240   5.250   7.257   8.752 -0.2690 -0.4926  0.2873
  262MOL0     C35241   5.265   7.235   8.890 -1.0911 -0.2686 -0.6088
  262MOL0     C35242   5.194   7.316   8.984  0.5682  0.0041  0.6678
  262MOL0     O35243   5.200   7.272   9.118  0.3666 -0.3898  1.1061
  262MOL0     C35244   5.152   7.366   9.209 -0.0601 -0.0303  0.1247
  262MOL0     C35245   5.226   7.349   9.337 -0.2726  0.0025 -0.6616
  262MOL0     C35246   5.207   7.212   9.396  0.7538 -0.0204  0.5735
  262MOL0     C35247   5.285   7.202   9.533 -0.4020  0.8771  1.0144
  262MOL0     C35248   5.283   7.069   9.605 -0.7770  0.4841 -0.0915
  262MOL0     C35249   5.348   6.961   9.515  0.5742 -0.0877 -0.1715
  262MOL0     C35250   5.387   6.842   9.602 -0.4435 -0.2454  0.8773
  262MOL0     C35251   5.466   6.735   9.516 -0.6784 -0.4069  0.0244
  262MOL0     N35252   5.458   6.594   9.568 -0.1324  0.4099  0.9177
  262MOL0     C35253   5.490   6.473   9.506  0.2197 -0.4438 -0.5857
  262MOL0     C35254   5.491   6.376   9.597  0.1612  1.3819 -0.7609
  262MOL0     C35255   5.533   6.231   9.558  0.8677 -0.0095 -0.6715
  262MOL0     C35256   5.666   6.218   9.633  0.1295  0.0738 -0.3076
  262MOL0     C35257   5.735   6.077   9.616 -0.2426 -0.0211  0.3115
  262MOL0     C35258   5.769   6.044   9.470 -0.6418 -0.5211 -0.5143
  262MOL0     O35259   5.846   6.155   9.407  0.1949 -0.4407 -0.0034
  262MOL0     C35260   5.982   6.134   9.382 -0.5205  0.5083  1.1303
  262MOL0     C35261   6.073   6.220   9.438 -0.4293 -0.8406  0.5747
  262MOL0     C35262   6.210   6.208   9.404  0.9217  0.1242 -0.0752
  262MOL0     C35263   6.256   6.096   9.328  0.7532  0.0276 -0.1471
  262MOL0     C35264   6.398   6.086   9.294  0.0022  0.8698  0.0089
  262MOL0     O35265   6.473   6.197   9.308 -0.9248 -1.0493  0.0838
  262MOL0     C35266   6.608   6.188   9.272 -0.4514 -0.3687 -1.1541
  262MOL0     C35267   6.656   6.147   9.148  0.4498  0.2915 -0.6717
  262MOL0     C35268   6.795   6.135   9.118 -0.4499  0.2143  0.1948
  262MOL0     C35269   6.890   6.167   9.220 -0.4034  0.6426  0.0535
  262MOL0     O35270   7.019   6.136   9.193 -0.4246 -0.1112 -0.7949
  262MOL0     C35271   7.132   6.205   9.243 -1.0063 -0.2267  0.2965
  262MOL0     C35272   7.176   6.318   9.150  0.6781  0.1722 -0.5012
  262MOL0     C35273   7.282   6.418   9.197 -0.1411  0.1466 -0.5562
  262MOL0     C35274   7.234   6.495   9.317 -0.3353 -0.8587  0.1468
  262MOL0     C35275   7.311   6.619   9.373  0.2363 -0.5601  0.8695
  262MOL0     C35276   7.303   6.747   9.284 -0.5472  0.0795  0.1222
  262MOL0     C35277   7.382   6.859   9.333 -0.2852  0.0935  0.3902
  262MOL0     C35278   7.392   6.958   9.213 -0.4351 -0.4964 -0.1860
  262MOL0    Cl35279   7.489   7.089   9.246 -0.0226 -0.3053 -0.5693
  262MOL0     C35280   6.848   6.219   9.338  0.4507  0.0526 -0.1116
  262MOL0     C35281   6.713   6.234   9.356 -0.0952 -0.2281 -0.1561
  262MOL0     O35282   6.441   5.972   9.263  0.3931  0.0278 -0.0044
  262MOL0     C35283   6.158   6.000   9.277 -0.1558 -0.3758  0.0542
  262MOL0     C35284   6.026   6.024   9.299 -1.2106  0.0798  0.8522
  262MOL0     N35285   5.451   6.425   9.720 -0.1875  0.8100  0.4738
  262MOL0     N35286   5.460   6.549   9.698  0.2575  0.1455  0.2737
  262MOL0     C35287   5.108   7.420   8.931  1.0969  0.1655 -0.4540
  262MOL0     C35288   5.097   7.437   8.788  0.3224 -0.0664  0.0606
  262MOL0     C35289   5.267   7.501   8.366 -0.4682 -0.3187  0.2741
  262MOL0     C35290   5.345   7.616   8.336 -0.9673  1.1081 -0.3922
  262MOL0     C35291   5.361   7.656   8.199  0.2004 -0.1944 -0.3144
  262MOL0     C35292   5.317   7.565   8.102 -0.1446  0.0974  0.4734
  262MOL0     O35293   5.325   7.579   7.971 -0.8121  0.3091  0.4260
  262MOL0     C35294   5.327   7.714   7.920 -0.0493 -0.1190 -0.5798
  262MOL0     C35295   5.321   7.718   7.767 -0.1178  0.1584  1.2603
  262MOL0     C35296   5.444   7.658   7.693  0.5546 -0.2182 -0.5725
  262MOL0     C35297   5.403   7.577   7.566  0.5146  0.6252 -0.0158
  262MOL0     C35298   5.493   7.465   7.540  0.2268 -0.1263  0.0036
  262MOL0     C35299   5.579   7.381   7.531  0.2984  0.1048 -1.0243
  262MOL0     C35300   5.254   7.446   8.137  0.0971  0.3808  0.0879
  262MOL0     C35301   5.215   7.418   8.266 -0.4020 -0.1577 -0.1773
  262MOL0     C35302   5.135   7.292   8.284  0.7669 -0.0980 -0.0215
  262MOL0     H35303   5.310   7.186   8.696  1.0783  1.5086 -0.9554
  262MOL0     H35304   5.334   7.165   8.936  1.8941  4.3431  2.9636
  262MOL0     H35305   5.167   7.466   9.169  0.7037  0.4186  1.4574
  262MOL0     H35306   5.047   7.362   9.238  0.4037 -1.1757  1.8274
  262MOL0     H35307   5.174   7.427   9.394 -0.2659 -2.2266  2.6572
  262MOL0     H35308   5.332   7.376   9.334  0.3257 -2.2999 -2.2777
  262MOL0     H35309   5.247   7.136   9.328  1.4128  1.0522 -0.2950
  262MOL0     H35310   5.100   7.194   9.396  0.8224 -0.5152 -0.6484
  262MOL0     H35311   5.385   7.231   9.501 -0.9637  1.1953 -0.5617
  262MOL0     H35312   5.251   7.282   9.600 -2.3691 -0.0229  1.1689
  262MOL0     H35313   5.327   7.076   9.705  2.0384  0.4535 -1.2201
  262MOL0     H35314   5.181   7.032   9.616  0.0476 -1.6455  0.9629
  262MOL0     H35315   5.274   6.935   9.439 -1.6470  1.1596  1.4479
  262MOL0     H35316   5.436   7.005   9.467  0.9385  1.0079  1.4197
  262MOL0     H35317   5.305   6.786   9.647 -1.9105  0.0967 -1.2358
  262MOL0     H35318   5.450   6.871   9.686  1.9171  2.9456 -1.7088
  262MOL0     H35319   5.438   6.724   9.411 -0.0928 -1.9078 -0.0004
  262MOL0     H35320   5.571   6.768   9.512 -0.9580  0.4138 -2.6904
  262MOL0     H35321   5.525   6.466   9.403 -0.6846 -1.1779 -0.8648
  262MOL0     H35322   5.463   6.164   9.610 -2.5261  3.1433 -0.7151
  262MOL0     H35323   5.537   6.227   9.449 -0.3879  4.4386 -1.0847
  262MOL0     H35324   5.742   6.295   9.617 -0.3449  0.3633 -1.2760
  262MOL0     H35325   5.639   6.230   9.738  0.3104  1.1677 -0.3741
  262MOL0     H35326   5.660   6.013   9.664 -0.9299  0.4380 -0.1377
  262MOL0     H35327   5.834   6.071   9.661  0.4939  0.9992 -1.1217
  262MOL0     H35328   5.677   6.035   9.412 -1.2574 -0.8892  0.5021
  262MOL0     H35329   5.827   5.951   9.473  2.1783  1.1100 -0.1270
  262MOL0     H35330   6.030   6.296   9.502 -3.3988  0.7056 -2.8880
  262MOL0     H35331   6.289   6.278   9.429  1.6394 -0.9581  0.8511
  262MOL0     H35332   6.580   6.111   9.080 -2.3277 -1.0963  2.8108
  262MOL0     H35333   6.825   6.108   9.017  1.8381  0.3694  0.7879
  262MOL0     H35334   7.110   6.247   9.341  0.9619 -0.2962  0.8051
  262MOL0     H35335   7.216   6.137   9.260 -0.7318  0.2097  0.7144
  262MOL0     H35336   7.230   6.257   9.076 -0.6173 -0.9166 -0.5785
  262MOL0     H35337   7.088   6.374   9.118 -0.2558  1.0678  3.2151
  262MOL0     H35338   7.371   6.361   9.226 -0.8870 -1.0173 -0.4999
  262MOL0     H35339   7.310   6.491   9.121  2.2503  1.3784  1.3724
  262MOL0     H35340   7.219   6.428   9.402  3.5940 -1.9553  0.1443
  262MOL0     H35341   7.135   6.524   9.281 -0.0081 -1.4376 -1.2840
  262MOL0     H35342   7.415   6.592   9.393  0.6065  1.6902  2.3438
  262MOL0     H35343   7.272   6.657   9.468 -2.0743 -0.2793 -0.1059
  262MOL0     H35344   7.354   6.704   9.198  1.7092 -0.7697  1.8057
  262MOL0     H35345   7.200   6.780   9.265 -0.7030  1.0797  2.3338
  262MOL0     H35346   7.481   6.821   9.357 -0.6216 -1.3332 -0.4034
  262MOL0     H35347   7.337   6.907   9.420  0.2562 -1.8644  1.7988
  262MOL0     H35348   7.434   6.912   9.123 -1.3278  1.0855 -1.4622
  262MOL0     H35349   7.296   7.001   9.184  0.3200  2.0438  0.8113
  262MOL0     H35350   6.908   6.264   9.416  0.6839  2.4559 -1.5614
  262MOL0     H35351   6.679   6.284   9.446  0.4068  3.5523 -1.8849
  262MOL0     H35352   6.189   5.912   9.221 -1.8036  0.2616 -2.0045
  262MOL0     H35353   5.951   5.961   9.252  2.0072 -4.2033  0.8243
  262MOL0     H35354   5.056   7.495   8.990 -2.6572 -1.9109 -0.8063
  262MOL0     H35355   5.050   7.529   8.756 -0.7713 -1.0839 -1.3702
  262MOL0     H35356   5.398   7.677   8.408 -0.8887  0.1201  0.4124
  262MOL0     H35357   5.415   7.750   8.194 -2.3099  1.4127  0.6965
  262MOL0     H35358   5.413   7.770   7.958  1.0456 -2.0731  0.0065
  262MOL0     H35359   5.241   7.768   7.960  0.8189  0.2641  0.8367
  262MOL0     H35360   5.322   7.820   7.729 -1.2819  0.0095  0.8022
  262MOL0     H35361   5.222   7.675   7.748 -0.2635  0.2051  1.8882
  262MOL0     H35362   5.480   7.584   7.766  2.6353 -0.8939 -2.1654
  262MOL0     H35363   5.515   7.738   7.671 -1.7516  2.1088  0.0048
  262MOL0     H35364   5.305   7.539   7.595  0.5738 -0.7403 -1.4856
  262MOL0     H35365   5.393   7.640   7.476  4.6673  1.3701 -0.1308
  262MOL0     H35366   5.661   7.313   7.540 -0.9623 -1.2646  0.9918
  262MOL0     H35367   5.233   7.376   8.058  1.7263  1.9798 -1.8861
  262MOL0     H35368   5.083   7.260   8.194 -1.5420  0.3365  1.0678
  262MOL0     H35369   5.186   7.209   8.334 -0.2302 -0.7449 -0.0585
  262MOL0     H35370   5.048   7.326   8.341  0.2132 -0.1792 -0.8066
  263MOL0     O35371   5.833   7.432   2.030 -0.0264 -0.0878  0.2176
  263MOL0     C35372   5.826   7.480   2.150 -0.7096 -0.3793  1.1112
  263MOL0     O35373   5.812   7.613   2.183  0.4994 -0.5643  1.0697
  263MOL0     C35374   5.757   7.701   2.094 -0.2710  0.5508 -0.6909
  263MOL0     C35375   5.661   7.666   1.998 -0.4876 -0.1460 -0.4832
  263MOL0     C35376   5.600   7.761   1.915  0.8231 -0.3667  0.2792
  263MOL0     C35377   5.636   7.893   1.916 -0.4694 -0.3301 -0.7686
  263MOL0     O35378   5.588   7.992   1.833  0.3485  0.0077  0.0797
  263MOL0     C35379   5.509   7.946   1.720  0.3542 -0.0378  1.0570
  263MOL0     C35380   5.502   8.056   1.610  0.4250 -0.2491 -0.9118
  263MOL0     C35381   5.456   8.003   1.477 -0.8166 -0.1895  0.3593
  263MOL0     C35382   5.402   8.112   1.379  0.0388  1.0499 -0.1754
  263MOL0     C35383   5.508   8.203   1.330 -0.8470  0.2804  0.1587
  263MOL0     C35384   5.619   8.141   1.243 -0.0565  0.5865  0.0086
  263MOL0     C35385   5.578   8.047   1.127 -0.9518  0.0936  0.2078
  263MOL0     C35386   5.694   7.982   1.044  0.8537 -0.6323  0.2648
  263MOL0     N35387   5.789   8.087   1.006 -0.3242 -0.0669  0.0167
  263MOL0     C35388   5.908   8.108   1.073 -1.1083 -0.0640  0.4850
  263MOL0     C35389   5.945   8.232   1.036 -0.0644 -0.6234  0.2659
  263MOL0     C35390   6.061   8.312   1.093 -0.3671 -0.9313 -0.1030
  263MOL0     C35391   6.013   8.423   1.178  0.7646 -0.3363  0.0292
  263MOL0     C35392   6.129   8.519   1.207  0.0845 -1.2512 -0.2838
  263MOL0     C35393   6.096   8.642   1.281 -0.5865 -1.0721 -0.0137
  263MOL0     O35394   6.055   8.741   1.193 -0.6586 -0.2439  0.1746
  263MOL0     C35395   6.148   8.842   1.160 -1.1343 -0.1910  0.3460
  263MOL0     C35396   6.122   8.981   1.166  0.5846 -0.1613 -0.0634
  263MOL0     C35397   6.209   9.076   1.126  0.0547 -0.3626 -0.4292
  263MOL0     C35398   6.336   9.033   1.081 -0.5884 -0.5502  0.4813
  263MOL0     C35399   6.446   9.140   1.046  0.4622 -0.0195 -0.1242
  263MOL0     O35400   6.402   9.268   1.045  0.3623  0.0836 -0.3274
  263MOL0     C35401   6.482   9.359   0.984 -0.1359 -0.4003 -0.6011
  263MOL0     C35402   6.422   9.450   0.897 -0.5161 -0.0839  0.5841
  263MOL0     C35403   6.485   9.571   0.874 -0.8045 -0.4995  0.8076
  263MOL0     C35404   6.613   9.604   0.930 -0.4894  0.5252 -0.6046
  263MOL0     O35405   6.675   9.717   0.890  0.0905 -0.4176  0.1423
  263MOL0     C35406   6.807   9.739   0.947 -0.6552 -1.0274 -0.8270
  263MOL0     C35407   6.865   9.886   0.916  0.3018 -0.1458 -0.7592
  263MOL0     C35408   6.982   9.921   1.019  0.1367  0.7102 -0.3978
  263MOL0     C35409   7.085  10.001   0.947 -0.3966  0.6157  0.3829
  263MOL0     C35410   7.215   9.941   0.986 -0.2691 -0.1853 -0.4960
  263MOL0     C35411   7.332  10.011   0.923 -0.3454 -0.9761 -0.4318
  263MOL0     C35412   7.378  10.138   0.998  0.0754  0.2732  0.0501
  263MOL0     C35413   7.491  10.203   0.926  0.7471  0.8348  0.2514
  263MOL0    Cl35414   7.628  10.082   0.937  0.1641  0.0645  0.0691
  263MOL0     C35415   6.674   9.506   1.014  0.1429 -0.2325 -0.2698
  263MOL0     C35416   6.601   9.388   1.047 -0.8316 -0.1968  0.2825
  263MOL0     O35417   6.562   9.101   1.027 -0.3284 -0.3965  0.1120
  263MOL0     C35418   6.377   8.898   1.082  0.9949  0.3734  0.0253
  263MOL0     C35419   6.280   8.802   1.115  0.7118 -0.1421 -0.1555
  263MOL0     N35420   5.868   8.271   0.930  0.0227 -1.0838  0.2945
  263MOL0     N35421   5.777   8.185   0.908  0.2278 -0.2430  0.7957
  263MOL0     C35422   5.727   7.932   2.015 -0.9471  0.2664 -0.6429
  263MOL0     C35423   5.780   7.838   2.110 -0.3400 -0.2123  0.4880
  263MOL0     C35424   5.820   7.384   2.263  0.4930 -0.5060 -1.0769
  263MOL0     C35425   5.814   7.438   2.395  0.5580 -0.3386  0.0520
  263MOL0     C35426   5.792   7.355   2.507  0.4323 -0.5394 -0.8255
  263MOL0     C35427   5.774   7.217   2.500 -0.4402  0.2190 -0.6674
  263MOL0     O35428   5.756   7.149   2.620  0.7506 -0.1721  0.5521
  263MOL0     C35429   5.791   7.016   2.615 -0.2969  1.0012 -0.2731
  263MOL0     C35430   5.751   6.952   2.760 -0.5634  0.0222  0.0119
  263MOL0     C35431   5.782   6.804   2.761 -0.7808 -0.2582 -0.9296
  263MOL0     C35432   5.770   6.736   2.896 -0.1424  0.2635  0.2462
  263MOL0     C35433   5.632   6.720   2.949  0.3050  0.1334  0.4841
  263MOL0     C35434   5.526   6.725   3.012  0.9787 -0.0499 -0.2985
  263MOL0     C35435   5.793   7.164   2.379 -0.5539 -0.5872  0.4087
  263MOL0     C35436   5.815   7.243   2.264  0.3984  0.5736  0.8919
  263MOL0     C35437   5.838   7.179   2.136  0.3944  0.6077  0.0366
  263MOL0     H35438   5.628   7.565   1.978 -1.1916 -0.0097 -0.0314
  263MOL0     H35439   5.518   7.730   1.851 -1.1278  1.1556  1.9135
  263MOL0     H35440   5.542   7.852   1.675  1.7248 -0.0842  2.1042
  263MOL0     H35441   5.409   7.927   1.761  1.3102  3.0697  5.4899
  263MOL0     H35442   5.599   8.107   1.606  1.8029 -2.3464  2.0730
  263MOL0     H35443   5.429   8.133   1.637  0.5311 -0.8726  1.3278
  263MOL0     H35444   5.374   7.934   1.498 -1.1168 -0.3956 -1.3736
  263MOL0     H35445   5.533   7.944   1.426 -2.3115 -1.4443 -0.5344
  263MOL0     H35446   5.338   8.071   1.300 -1.0684  1.6044  0.4057
  263MOL0     H35447   5.325   8.173   1.426 -2.4657 -0.7190 -1.7179
  263MOL0     H35448   5.462   8.278   1.264  1.3328  1.9980  0.4560
  263MOL0     H35449   5.563   8.256   1.408 -2.1328  1.6189  0.2047
  263MOL0     H35450   5.669   8.231   1.203 -0.1966 -0.7415 -3.4577
  263MOL0     H35451   5.698   8.082   1.290  2.1189  1.9692 -1.6992
  263MOL0     H35452   5.526   8.109   1.053  2.0071  4.0084  1.0436
  263MOL0     H35453   5.506   7.972   1.159 -1.4641  1.1448  1.5891
  263MOL0     H35454   5.741   7.913   1.115 -1.0518  0.8246  3.0871
  263MOL0     H35455   5.644   7.933   0.960 -1.0423  0.1463  0.9028
  263MOL0     H35456   5.967   8.051   1.143 -0.3717  2.9316  2.4913
  263MOL0     H35457   6.131   8.244   1.143  0.7347 -1.8156 -2.6834
  263MOL0     H35458   6.111   8.366   1.013  1.6341  0.5062  2.0043
  263MOL0     H35459   5.942   8.480   1.119  0.2210 -0.5954  0.4291
  263MOL0     H35460   5.963   8.389   1.269 -2.6591  0.0203 -1.5920
  263MOL0     H35461   6.185   8.549   1.119  2.0699  0.9041  1.5774
  263MOL0     H35462   6.204   8.465   1.265  1.0572 -1.0954 -1.3618
  263MOL0     H35463   6.183   8.667   1.342 -1.4325 -3.6276  2.4380
  263MOL0     H35464   6.020   8.612   1.354 -0.7320 -0.2370  0.1945
  263MOL0     H35465   6.020   9.012   1.187  1.2863  3.0633 -0.8837
  263MOL0     H35466   6.191   9.183   1.132 -0.0773 -0.3936 -0.2693
  263MOL0     H35467   6.325   9.424   0.855  0.1255 -0.4659 -0.6761
  263MOL0     H35468   6.439   9.645   0.809 -0.4405 -0.1850  0.9016
  263MOL0     H35469   6.811   9.729   1.056  1.2469  1.1785 -0.6322
  263MOL0     H35470   6.874   9.665   0.902  3.8005  0.6278  2.3572
  263MOL0     H35471   6.897   9.887   0.811 -0.0341  2.5643 -0.8861
  263MOL0     H35472   6.786   9.958   0.936  1.9395  1.9343 -1.4083
  263MOL0     H35473   6.949   9.981   1.104  1.4092  0.4980  0.2709
  263MOL0     H35474   7.036   9.832   1.054  1.4709  0.7955 -2.0947
  263MOL0     H35475   7.077  10.105   0.980  0.6280  1.6636 -2.3741
  263MOL0     H35476   7.078   9.999   0.838  3.2273 -1.8693  0.0046
  263MOL0     H35477   7.219   9.837   0.951  0.1066 -0.4575  0.3333
  263MOL0     H35478   7.235   9.938   1.093  3.2091  2.5219 -0.9045
  263MOL0     H35479   7.412   9.937   0.917 -1.7809 -2.6225 -0.2124
  263MOL0     H35480   7.303  10.028   0.819  2.2790  1.6039 -0.8541
  263MOL0     H35481   7.406  10.104   1.098 -1.9188 -0.4457  0.4198
  263MOL0     H35482   7.300  10.212   1.019  0.1961  0.1706  0.9217
  263MOL0     H35483   7.456  10.220   0.824 -2.1841 -0.0560  1.0012
  263MOL0     H35484   7.527  10.292   0.978 -1.0966  1.8704 -0.1552
  263MOL0     H35485   6.772   9.520   1.058 -0.0781  1.6307 -0.2781
  263MOL0     H35486   6.642   9.323   1.124  2.9405 -0.4523 -1.6734
  263MOL0     H35487   6.476   8.863   1.052  2.6808  5.1370 -0.8077
  263MOL0     H35488   6.312   8.700   1.099  0.0545 -0.5737  1.1729
  263MOL0     H35489   5.746   8.036   2.039  4.0537 -0.4938 -0.1459
  263MOL0     H35490   5.851   7.867   2.186  0.5977 -1.3953  0.0979
  263MOL0     H35491   5.836   7.542   2.416 -1.0885 -0.7035  5.0538
  263MOL0     H35492   5.794   7.400   2.606 -0.8346 -0.2487 -0.9064
  263MOL0     H35493   5.899   7.006   2.600 -0.4324 -1.8093  0.1625
  263MOL0     H35494   5.740   6.960   2.536  1.5048 -2.7536  0.9682
  263MOL0     H35495   5.643   6.970   2.762 -0.7334 -0.8517 -0.8378
  263MOL0     H35496   5.810   7.006   2.834 -0.2130  3.8214 -2.6853
  263MOL0     H35497   5.884   6.798   2.723 -0.4357 -1.4682  0.1301
  263MOL0     H35498   5.724   6.740   2.694  1.3907 -0.8117 -2.3834
  263MOL0     H35499   5.828   6.643   2.885 -1.2949 -0.6914  1.9329
  263MOL0     H35500   5.822   6.798   2.970  1.0257 -0.2624 -0.1009
  263MOL0     H35501   5.430   6.746   3.056  0.7087  0.8873 -1.2986
  263MOL0     H35502   5.777   7.057   2.366  0.2268 -0.6331 -0.3165
  263MOL0     H35503   5.939   7.203   2.103  0.3323  0.8715  0.0388
  263MOL0     H35504   5.859   7.075   2.163  2.1370  0.4874 -1.5856
  263MOL0     H35505   5.763   7.195   2.058 -2.3094 -1.2213  2.0560
  264MOL0     O35506   7.279   4.880   6.809  0.6846  0.3528  0.0525
  264MOL0     C35507   7.202   4.879   6.903 -1.1491  0.1197 -0.4739
  264MOL0     O35508   7.116   4.978   6.939  0.8509  0.6221 -0.6348
  264MOL0     C35509   7.078   5.072   6.845 -0.4591  0.0146 -0.6170
  264MOL0     C35510   7.084   5.052   6.702 -1.2445 -0.4381  0.0151
  264MOL0     C35511   7.046   5.152   6.615  0.4852 -0.2544  0.0312
  264MOL0     C35512   6.982   5.266   6.654 -0.0979 -0.9222 -0.3292
  264MOL0     O35513   6.913   5.334   6.555 -0.5513  0.0920  0.2298
  264MOL0     C35514   6.871   5.461   6.591  0.3283  0.5682  0.4463
  264MOL0     C35515   6.775   5.505   6.499 -1.5544 -0.0240  0.1402
  264MOL0     C35516   6.632   5.471   6.527  0.4897  0.0013  0.3916
  264MOL0     C35517   6.527   5.514   6.425  0.1722 -0.1185  0.6592
  264MOL0     C35518   6.385   5.504   6.473 -0.2332  0.2134  0.0582
  264MOL0     C35519   6.289   5.547   6.364  0.1161 -0.2838 -0.4134
  264MOL0     C35520   6.139   5.535   6.409 -0.0094  0.2310  0.0292
  264MOL0     C35521   6.032   5.558   6.302 -0.3097 -0.1137  0.1267
  264MOL0     N35522   5.997   5.703   6.270 -0.6942 -0.8568 -0.0141
  264MOL0     C35523   6.084   5.816   6.253 -0.2653  0.4258  0.3219
  264MOL0     C35524   5.991   5.923   6.260  0.5216  0.7848 -0.9637
  264MOL0     C35525   6.021   6.066   6.222  0.2521  0.8049  0.7081
  264MOL0     C35526   6.037   6.076   6.073 -0.1597 -0.8361  0.3167
  264MOL0     C35527   5.913   6.026   5.997 -0.2108  1.5189 -0.5751
  264MOL0     C35528   5.917   6.055   5.845  0.5940 -0.7717  0.0234
  264MOL0     O35529   5.966   6.185   5.804 -0.3165 -0.2897 -0.2148
  264MOL0     C35530   5.975   6.193   5.670  0.0973  0.2772  0.9676
  264MOL0     C35531   6.093   6.243   5.622 -1.4245  0.0161 -0.4881
  264MOL0     C35532   6.115   6.280   5.484 -0.2471 -1.4768  0.4203
  264MOL0     C35533   6.004   6.254   5.398 -0.4696 -0.1045 -1.3187
  264MOL0     C35534   6.015   6.280   5.258 -0.2200 -0.0748  0.2388
  264MOL0     O35535   5.924   6.232   5.177  0.0699 -0.0221  1.0708
  264MOL0     C35536   5.939   6.227   5.039 -0.3486  0.7308  0.1474
  264MOL0     C35537   5.823   6.196   4.979  1.1506  0.4295  0.8906
  264MOL0     C35538   5.820   6.192   4.837 -0.8377  0.2671  0.4100
  264MOL0     C35539   5.947   6.206   4.765  0.4931 -0.1471  0.4704
  264MOL0     O35540   5.945   6.183   4.634  0.0950  0.3691  0.0409
  264MOL0     C35541   5.978   6.298   4.552  0.0641 -0.1668 -0.5368
  264MOL0     C35542   5.861   6.380   4.536 -0.1780 -0.4255  0.2155
  264MOL0     C35543   5.733   6.319   4.476  0.3850  0.7727 -0.0498
  264MOL0     C35544   5.674   6.397   4.352  0.1332 -0.5124  0.6625
  264MOL0     C35545   5.767   6.379   4.234  0.1614 -0.6021 -0.9020
  264MOL0     C35546   5.728   6.454   4.108  0.1501  0.2586 -1.0042
  264MOL0     C35547   5.736   6.369   3.977 -0.2691  0.0954  0.5663
  264MOL0     C35548   5.863   6.409   3.895  0.0474 -0.0239  0.2653
  264MOL0    Cl35549   6.013   6.317   3.952  0.0705  0.2559 -0.4907
  264MOL0     C35550   6.057   6.238   4.834  0.9954 -0.5680 -0.3474
  264MOL0     C35551   6.061   6.247   4.969 -0.3942 -0.8093  0.0437
  264MOL0     O35552   6.109   6.361   5.226  0.0106  0.2102 -0.4482
  264MOL0     C35553   5.886   6.197   5.447  1.5713 -0.1757  0.0518
  264MOL0     C35554   5.869   6.172   5.579  0.1654 -0.5900 -0.2995
  264MOL0     N35555   5.859   5.870   6.275  0.3884 -0.2590  0.3804
  264MOL0     N35556   5.871   5.743   6.283 -0.4396 -1.2623  0.3320
  264MOL0     C35557   6.993   5.295   6.795  0.4749 -0.7116 -0.3908
  264MOL0     C35558   7.041   5.207   6.889 -0.0801  0.5341  0.4017
  264MOL0     C35559   7.225   4.773   7.004  0.1541  0.4304 -0.0838
  264MOL0     C35560   7.147   4.773   7.122  0.1613 -1.0842 -0.0767
  264MOL0     C35561   7.148   4.686   7.224  0.8914  0.3081 -0.0350
  264MOL0     C35562   7.244   4.582   7.218  0.1374  0.4333 -0.4976
  264MOL0     O35563   7.255   4.493   7.322  0.6640 -0.6584  0.0831
  264MOL0     C35564   7.388   4.466   7.378  0.9619  0.4173 -1.1486
  264MOL0     C35565   7.373   4.416   7.509  0.2228 -0.1389 -1.2534
  264MOL0     C35566   7.514   4.418   7.586  0.1337  0.0026 -0.1361
  264MOL0     C35567   7.492   4.460   7.723  0.4362 -0.5085 -0.1291
  264MOL0     C35568   7.621   4.458   7.799  0.5191 -0.2195  0.7693
  264MOL0     C35569   7.718   4.461   7.869 -0.6737  0.1362  0.1976
  264MOL0     C35570   7.322   4.574   7.103 -0.3638  1.4359 -0.1458
  264MOL0     C35571   7.314   4.662   6.993 -0.1616  0.1069  0.1662
  264MOL0     C35572   7.402   4.629   6.874 -1.3373  0.6380  0.0570
  264MOL0     H35573   7.137   4.969   6.656 -0.8944 -0.8351  1.1049
  264MOL0     H35574   7.043   5.133   6.508 -0.2663 -3.0777  0.4736
  264MOL0     H35575   6.823   5.453   6.689 -1.7709  2.4905 -0.3309
  264MOL0     H35576   6.955   5.532   6.590 -0.4808  1.5624 -1.0057
  264MOL0     H35577   6.799   5.461   6.402 -1.3967 -0.0805  0.2051
  264MOL0     H35578   6.785   5.613   6.488 -0.3075 -0.1008  0.4236
  264MOL0     H35579   6.600   5.515   6.622  0.9148 -1.5601  1.3010
  264MOL0     H35580   6.624   5.363   6.544  0.7880 -0.3756 -1.6698
  264MOL0     H35581   6.547   5.618   6.395  2.0464  0.0444  2.2546
  264MOL0     H35582   6.531   5.458   6.331  0.9848  0.3616  0.3884
  264MOL0     H35583   6.380   5.397   6.495  3.7692 -0.8238 -2.9100
  264MOL0     H35584   6.364   5.566   6.561  0.3435 -1.8943  1.7434
  264MOL0     H35585   6.310   5.645   6.321  0.4176 -0.1535  0.0318
  264MOL0     H35586   6.314   5.483   6.278  1.9877 -0.3691  0.1586
  264MOL0     H35587   6.130   5.608   6.490 -0.6514 -0.8185  0.9430
  264MOL0     H35588   6.123   5.434   6.449 -1.2509 -0.3901 -1.8801
  264MOL0     H35589   6.066   5.499   6.216 -0.8101 -1.6622  0.9444
  264MOL0     H35590   5.937   5.508   6.325 -0.8754  0.5166 -0.7828
  264MOL0     H35591   6.188   5.815   6.224 -0.7826  0.4272 -1.6324
  264MOL0     H35592   5.944   6.141   6.245 -0.3609  0.7954 -1.1329
  264MOL0     H35593   6.118   6.107   6.249  1.0428 -0.8093  0.4267
  264MOL0     H35594   6.066   6.178   6.049  2.3696 -1.6823 -0.6051
  264MOL0     H35595   6.126   6.018   6.044  0.0037 -0.9076  0.9360
  264MOL0     H35596   5.818   6.058   6.038 -0.5214  1.3712 -1.1616
  264MOL0     H35597   5.906   5.917   5.994  0.6846  1.4104  0.6443
  264MOL0     H35598   5.814   6.047   5.809  1.5499  0.7634 -3.5640
  264MOL0     H35599   5.973   5.975   5.794 -0.6337 -1.7597  0.1996
  264MOL0     H35600   6.176   6.266   5.689 -0.6273  0.3095 -1.5503
  264MOL0     H35601   6.204   6.329   5.445 -1.2337 -1.1874 -1.5750
  264MOL0     H35602   5.729   6.173   5.028 -0.5217  0.1444 -2.2130
  264MOL0     H35603   5.732   6.170   4.777 -0.5547 -0.1723  0.1453
  264MOL0     H35604   6.064   6.358   4.584  0.4749 -0.5016 -0.9866
  264MOL0     H35605   6.006   6.254   4.456 -2.7481 -1.4476 -0.8609
  264MOL0     H35606   5.836   6.422   4.633 -0.6531 -2.0848  0.8567
  264MOL0     H35607   5.890   6.460   4.467 -0.2475  0.1682  0.8684
  264MOL0     H35608   5.749   6.219   4.435 -3.3845 -0.7908  1.8023
  264MOL0     H35609   5.659   6.314   4.556  0.2754 -3.3195 -0.1824
  264MOL0     H35610   5.667   6.504   4.373 -0.2131 -0.7173  1.6189
  264MOL0     H35611   5.573   6.357   4.338 -1.4790  3.7627 -2.1937
  264MOL0     H35612   5.761   6.273   4.209 -2.8444 -0.7752  0.0717
  264MOL0     H35613   5.873   6.396   4.255  0.2321 -1.5071 -0.4923
  264MOL0     H35614   5.624   6.486   4.114  0.1213 -0.1097  0.8844
  264MOL0     H35615   5.785   6.547   4.094  0.2329  0.1434 -1.4593
  264MOL0     H35616   5.656   6.402   3.910  1.5836 -0.8897 -2.3188
  264MOL0     H35617   5.737   6.259   3.980  0.1800 -0.1019 -2.8564
  264MOL0     H35618   5.851   6.387   3.789 -0.9573 -1.2896  0.6245
  264MOL0     H35619   5.887   6.515   3.906 -0.6399 -0.0352  2.5016
  264MOL0     H35620   6.144   6.263   4.773  0.8279 -0.2448 -0.4527
  264MOL0     H35621   6.155   6.270   5.019 -0.8024  2.6081 -0.4897
  264MOL0     H35622   5.793   6.175   5.395  0.8311  0.5991  0.9948
  264MOL0     H35623   5.772   6.150   5.624  0.7137  0.7861  1.6904
  264MOL0     H35624   6.941   5.384   6.828 -0.5797 -2.1876  2.1644
  264MOL0     H35625   7.030   5.246   6.990  0.3131 -0.8356  0.9886
  264MOL0     H35626   7.080   4.858   7.135  0.4200 -1.2663  3.1556
  264MOL0     H35627   7.075   4.703   7.302 -0.9116  2.3177 -2.0395
  264MOL0     H35628   7.441   4.562   7.385 -2.0698  2.2540 -1.7965
  264MOL0     H35629   7.448   4.404   7.311  0.3245  1.2508 -2.5120
  264MOL0     H35630   7.342   4.311   7.511  1.9566 -0.7184 -2.3312
  264MOL0     H35631   7.289   4.458   7.565 -0.6580 -1.0810 -1.8192
  264MOL0     H35632   7.588   4.479   7.534 -2.8476  1.8766 -2.5750
  264MOL0     H35633   7.552   4.315   7.583 -1.0072 -0.4778  1.0977
  264MOL0     H35634   7.455   4.563   7.723 -1.7750 -1.2417  0.8189
  264MOL0     H35635   7.422   4.393   7.774  0.0474 -2.1857 -2.6663
  264MOL0     H35636   7.803   4.465   7.935 -1.5083  0.5839  1.2757
  264MOL0     H35637   7.383   4.486   7.085 -2.4345  0.1973 -1.5209
  264MOL0     H35638   7.476   4.709   6.857  0.5892 -0.2884  3.2493
  264MOL0     H35639   7.442   4.528   6.882 -0.8355  0.5241 -2.7518
  264MOL0     H35640   7.348   4.617   6.780  0.1095 -1.5049 -0.5691
  265MOL0     O35641   1.570   6.607   5.275  0.6336  0.5948 -0.0951
  265MOL0     C35642   1.509   6.535   5.202 -0.1524  0.4366  0.0648
  265MOL0     O35643   1.420   6.434   5.242  0.0156 -0.2161 -0.2663
  265MOL0     C35644   1.430   6.371   5.363  0.2825 -0.4269 -0.5731
  265MOL0     C35645   1.453   6.432   5.490  0.5780 -0.5757  0.6503
  265MOL0     C35646   1.455   6.360   5.609 -0.1012  0.0268 -0.5810
  265MOL0     C35647   1.421   6.222   5.609  0.1706  0.2158 -0.9885
  265MOL0     O35648   1.428   6.156   5.728 -0.0450  0.7638  0.1319
  265MOL0     C35649   1.551   6.088   5.757  0.4053  0.2258 -0.7337
  265MOL0     C35650   1.547   5.968   5.857  0.0698 -0.0041  0.9874
  265MOL0     C35651   1.684   5.938   5.923 -0.2987 -0.3366  0.1764
  265MOL0     C35652   1.669   5.820   6.027  0.2149 -0.2180  0.4414
  265MOL0     C35653   1.779   5.834   6.133 -0.4848  0.3610  0.4342
  265MOL0     C35654   1.770   5.720   6.223 -0.1481 -0.1076  0.2371
  265MOL0     C35655   1.900   5.730   6.314  0.2265  0.5748  0.0875
  265MOL0     C35656   1.886   5.845   6.409  0.1189  0.2966 -0.2250
  265MOL0     N35657   1.999   5.846   6.504  0.4693  0.0027  1.3592
  265MOL0     C35658   2.035   5.738   6.585 -1.0648 -1.0089 -0.0946
  265MOL0     C35659   2.132   5.783   6.673 -0.2306 -0.9955  0.5391
  265MOL0     C35660   2.213   5.702   6.763  0.5374  0.4719 -1.1944
  265MOL0     C35661   2.349   5.762   6.792  0.4630  0.6456 -0.2332
  265MOL0     C35662   2.460   5.746   6.691 -0.8339 -0.0389 -0.2720
  265MOL0     C35663   2.454   5.810   6.543 -0.3941  0.1495 -0.6733
  265MOL0     O35664   2.344   5.756   6.473 -0.0673 -0.4080 -0.0488
  265MOL0     C35665   2.360   5.748   6.333  0.2557  0.3646 -0.3771
  265MOL0     C35666   2.278   5.652   6.269  0.8272  0.5144 -0.2639
  265MOL0     C35667   2.273   5.632   6.130 -0.2702  0.9527 -0.3848
  265MOL0     C35668   2.382   5.678   6.060 -0.7259 -0.4976 -0.6990
  265MOL0     C35669   2.404   5.645   5.911 -0.5950  0.6126 -1.0834
  265MOL0     O35670   2.358   5.520   5.882 -0.0270  0.4989 -0.4005
  265MOL0     C35671   2.376   5.484   5.746  0.1608  0.2832 -0.5748
  265MOL0     C35672   2.474   5.397   5.717 -0.0090  0.4528 -0.5848
  265MOL0     C35673   2.485   5.349   5.591 -0.2818 -0.2331 -0.7895
  265MOL0     C35674   2.406   5.403   5.485  1.3410  0.7581 -1.0373
  265MOL0     O35675   2.430   5.364   5.351  0.5197  0.2132  0.0021
  265MOL0     C35676   2.498   5.237   5.317 -0.0692 -0.7886  0.2890
  265MOL0     C35677   2.468   5.189   5.177  0.6804 -0.3041  0.2471
  265MOL0     C35678   2.409   5.293   5.084 -0.7370 -0.3550 -0.0834
  265MOL0     C35679   2.408   5.237   4.945 -0.1903 -0.0902  0.9592
  265MOL0     C35680   2.341   5.338   4.848  0.0518  0.2482 -0.5147
  265MOL0     C35681   2.339   5.260   4.716 -0.0286 -0.0563  0.3003
  265MOL0     C35682   2.283   5.351   4.602 -0.2730 -0.4419 -0.4008
  265MOL0     C35683   2.315   5.301   4.454 -1.0933  0.2023 -1.0290
  265MOL0    Cl35684   2.217   5.160   4.421  0.1195 -0.4556 -0.2691
  265MOL0     C35685   2.310   5.488   5.519 -0.2748 -0.3865 -0.4719
  265MOL0     C35686   2.284   5.528   5.651 -0.1037 -0.2663 -0.2136
  265MOL0     O35687   2.462   5.726   5.835 -0.7989  0.0646  0.0288
  265MOL0     C35688   2.466   5.782   6.118 -0.1883  0.7423 -0.1284
  265MOL0     C35689   2.452   5.809   6.252  0.5035 -0.4132  1.2431
  265MOL0     N35690   2.152   5.916   6.640 -0.8004  0.2934  0.0706
  265MOL0     N35691   2.074   5.951   6.541 -0.1088  0.3831  0.2619
  265MOL0     C35692   1.393   6.159   5.487 -0.6794  0.0108  0.4872
  265MOL0     C35693   1.396   6.236   5.368 -0.1280  0.1100 -0.2907
  265MOL0     C35694   1.540   6.545   5.057  0.7266 -0.7467  0.7633
  265MOL0     C35695   1.601   6.664   5.010 -0.1287  0.3078  0.0894
  265MOL0     C35696   1.635   6.682   4.880  0.2779 -0.6513  0.3412
  265MOL0     C35697   1.590   6.605   4.777  0.5174 -0.1031  0.0230
  265MOL0     O35698   1.634   6.629   4.649  0.0597  0.4369 -0.8153
  265MOL0     C35699   1.568   6.587   4.528  0.5132  0.3968 -0.1428
  265MOL0     C35700   1.663   6.509   4.441 -0.9874 -0.0949 -0.3549
  265MOL0     C35701   1.692   6.363   4.502 -0.9134  0.4548 -0.2903
  265MOL0     C35702   1.821   6.304   4.444  1.0854  0.1160  0.4080
  265MOL0     C35703   1.846   6.157   4.474 -0.6556 -0.4911 -0.4300
  265MOL0     C35704   1.860   6.038   4.481  0.3615  0.5923  0.7202
  265MOL0     C35705   1.515   6.490   4.815  0.0506  0.5288 -0.4508
  265MOL0     C35706   1.485   6.460   4.955  0.2471  0.1382  0.4357
  265MOL0     C35707   1.405   6.339   4.985  0.4642  0.1893 -1.0610
  265MOL0     H35708   1.468   6.539   5.492  2.7571 -0.4024 -5.4083
  265MOL0     H35709   1.483   6.421   5.694 -1.5286  1.5773 -1.1665
  265MOL0     H35710   1.605   6.053   5.668  1.6422 -1.5374  0.6369
  265MOL0     H35711   1.613   6.161   5.810 -0.9929 -0.3221  1.7820
  265MOL0     H35712   1.507   5.888   5.794  2.2432 -0.9288  0.6983
  265MOL0     H35713   1.476   5.989   5.938 -2.4318  5.6956 -2.0846
  265MOL0     H35714   1.734   6.020   5.975 -1.8626 -0.5237  2.0976
  265MOL0     H35715   1.751   5.911   5.841  0.4118 -3.4299  1.6676
  265MOL0     H35716   1.579   5.842   6.085  0.8753  1.2666  0.9412
  265MOL0     H35717   1.673   5.722   5.978  1.3973  0.4514 -0.8979
  265MOL0     H35718   1.876   5.832   6.082 -0.4457 -0.8274  0.5273
  265MOL0     H35719   1.761   5.931   6.181  1.9479  0.7085  0.8196
  265MOL0     H35720   1.676   5.738   6.276 -1.1624  3.3225 -2.2849
  265MOL0     H35721   1.767   5.619   6.181  0.6749 -0.5170  1.1271
  265MOL0     H35722   1.992   5.734   6.256 -0.7014  2.7108 -1.3860
  265MOL0     H35723   1.910   5.634   6.364 -0.4112 -1.6356 -3.6512
  265MOL0     H35724   1.887   5.938   6.352 -2.9057  1.2640  1.0847
  265MOL0     H35725   1.793   5.842   6.467  1.2555  0.0882  1.6951
  265MOL0     H35726   2.016   5.631   6.578  0.8416 -1.2869 -2.3479
  265MOL0     H35727   2.156   5.711   6.856  3.1435  0.9138  0.4627
  265MOL0     H35728   2.227   5.597   6.736  0.7854  0.1349  0.1697
  265MOL0     H35729   2.357   5.871   6.798  0.8909  0.5636  0.9758
  265MOL0     H35730   2.375   5.724   6.891 -3.1712 -0.7466  0.3166
  265MOL0     H35731   2.481   5.638   6.688  2.0369  0.4134  0.7139
  265MOL0     H35732   2.549   5.796   6.729  0.1335 -2.0427  0.2595
  265MOL0     H35733   2.550   5.789   6.496  0.3371 -0.1078  0.8856
  265MOL0     H35734   2.431   5.916   6.553 -0.8525 -0.0978  1.1511
  265MOL0     H35735   2.196   5.611   6.327 -1.2686  2.4870 -1.6617
  265MOL0     H35736   2.198   5.563   6.091 -0.4395  0.1789  1.2412
  265MOL0     H35737   2.539   5.355   5.794 -1.0727  1.1607  0.7526
  265MOL0     H35738   2.569   5.283   5.571 -0.2356 -0.5590  0.3959
  265MOL0     H35739   2.605   5.255   5.324 -0.2753  1.8147 -1.8168
  265MOL0     H35740   2.471   5.165   5.395  0.6834 -1.4389 -0.0392
  265MOL0     H35741   2.558   5.143   5.134  2.0964 -2.2217  4.6110
  265MOL0     H35742   2.396   5.107   5.183 -1.2098  1.0031 -2.5879
  265MOL0     H35743   2.312   5.324   5.124 -0.6943  1.6835 -1.4020
  265MOL0     H35744   2.471   5.381   5.101 -0.4017 -0.5646 -0.2130
  265MOL0     H35745   2.336   5.155   4.951 -0.7248  0.0054 -2.5546
  265MOL0     H35746   2.506   5.210   4.907 -0.8229 -1.1691  0.0596
  265MOL0     H35747   2.399   5.430   4.840  0.7707 -0.1716 -0.1562
  265MOL0     H35748   2.242   5.369   4.882 -0.5284 -1.5449 -0.4418
  265MOL0     H35749   2.444   5.235   4.704 -0.0970 -0.5918  0.7345
  265MOL0     H35750   2.277   5.169   4.720 -1.7385  1.0322 -0.3942
  265MOL0     H35751   2.315   5.456   4.602  1.2046 -0.7804 -3.4827
  265MOL0     H35752   2.174   5.347   4.612 -0.0764 -0.8989  1.9916
  265MOL0     H35753   2.297   5.368   4.368  0.7153 -0.6896 -2.1732
  265MOL0     H35754   2.416   5.261   4.444 -1.2869 -0.7794  0.6217
  265MOL0     H35755   2.242   5.518   5.440 -0.0663  1.0459 -0.1377
  265MOL0     H35756   2.207   5.587   5.699  0.5145 -0.0897  0.5859
  265MOL0     H35757   2.546   5.816   6.054 -0.1522  1.0482  0.0799
  265MOL0     H35758   2.517   5.891   6.281  0.7302  0.1617 -0.7458
  265MOL0     H35759   1.355   6.058   5.494  0.1322 -0.1816  3.6132
  265MOL0     H35760   1.366   6.184   5.278  0.0695  0.4223 -0.5387
  265MOL0     H35761   1.626   6.739   5.084 -1.1045  0.0209  0.7263
  265MOL0     H35762   1.693   6.773   4.865 -0.8307 -0.1033 -0.7919
  265MOL0     H35763   1.536   6.681   4.481 -1.5032 -0.4721 -0.6186
  265MOL0     H35764   1.484   6.518   4.543  1.0597 -0.3042 -0.2405
  265MOL0     H35765   1.753   6.567   4.418 -2.1039  1.0030 -2.2228
  265MOL0     H35766   1.623   6.488   4.341  0.6075 -3.1419 -0.4733
  265MOL0     H35767   1.612   6.289   4.497  0.7771 -1.6936  2.0534
  265MOL0     H35768   1.702   6.369   4.611  1.6348  0.7356 -0.4858
  265MOL0     H35769   1.811   6.314   4.336  0.8169  1.6678  0.5498
  265MOL0     H35770   1.903   6.367   4.480  0.0099  0.4860  2.3700
  265MOL0     H35771   1.888   5.936   4.467  1.6077  1.1660 -1.4799
  265MOL0     H35772   1.490   6.419   4.736 -0.1806 -0.8969  0.8542
  265MOL0     H35773   1.381   6.295   4.888  0.2085  0.3130 -1.0559
  265MOL0     H35774   1.456   6.264   5.046 -0.3257 -0.3452 -1.0474
  265MOL0     H35775   1.311   6.372   5.031  0.7511 -0.0166 -0.3131
  266MOL0     O35776  10.532   9.785   9.984 -0.5771  0.3005 -0.2374
  266MOL0     C35777  10.453   9.862   9.933 -0.6304  0.2482  0.2603
  266MOL0     O35778  10.484   9.972   9.859  0.8367  0.0389 -0.1295
  266MOL0     C35779  10.611  10.026   9.862 -0.6330  0.0412  0.3161
  266MOL0     C35780  10.622  10.169   9.894 -0.3083  0.0601  0.1738
  266MOL0     C35781  10.753  10.232   9.887  0.5696  0.0963 -0.4622
  266MOL0     C35782  10.874  10.144   9.867 -0.0894 -0.5994  0.5572
  266MOL0     O35783  11.004  10.186   9.888 -0.1335  0.5223 -1.3215
  266MOL0     C35784  11.029  10.328   9.880  0.2639  0.6267 -0.2356
  266MOL0     C35785  11.169  10.364   9.850 -0.2941 -0.0166  0.0882
  266MOL0     C35786  11.265  10.295   9.941 -0.0821 -0.3188 -0.9570
  266MOL0     C35787  11.414  10.329   9.923  0.4470  0.5170 -0.4407
  266MOL0     C35788  11.499  10.258  10.018 -0.1526  0.1451 -0.2562
  266MOL0     C35789  11.644  10.319   9.986  0.2535 -0.1535  0.0736
  266MOL0     C35790  11.767  10.265  10.059  0.2773 -0.1695 -1.2041
  266MOL0     C35791  11.897  10.325  10.009  0.3932 -0.6404 -0.5316
  266MOL0     N35792  12.002  10.315  10.105  0.6108 -0.7682 -0.8701
  266MOL0     C35793  12.122  10.253  10.076  0.5815 -0.6936 -0.4019
  266MOL0     C35794  12.188  10.280  10.195 -0.3128  0.1703 -0.1337
  266MOL0     C35795  12.319  10.235  10.245  0.1090  0.2817 -1.2670
  266MOL0     C35796  12.423  10.352  10.270 -0.2053 -0.1522  0.6000
  266MOL0     C35797  12.442  10.445  10.146 -0.4236 -0.0670 -1.3948
  266MOL0     C35798  12.591  10.474  10.121 -0.2264 -0.2224 -0.1976
  266MOL0     O35799  12.665  10.521  10.244  0.6113  0.0129 -0.3013
  266MOL0     C35800  12.797  10.555  10.248  0.1135 -0.4130  0.3147
  266MOL0     C35801  12.838  10.613  10.361 -0.5037  0.3332  0.5822
  266MOL0     C35802  12.974  10.665  10.377 -0.0281  0.5821 -0.4641
  266MOL0     C35803  13.060  10.664  10.274  0.2705 -0.0792  0.5520
  266MOL0     C35804  13.183  10.737  10.280  0.1575 -0.7021  0.5766
  266MOL0     O35805  13.230  10.802  10.165 -0.3388  0.2812 -0.4299
  266MOL0     C35806  13.340  10.886  10.180 -0.5088  0.0719 -0.9481
  266MOL0     C35807  13.309  11.022  10.191  0.3514 -0.1847  0.1128
  266MOL0     C35808  13.410  11.112  10.203 -0.2924 -0.4439 -0.1387
  266MOL0     C35809  13.544  11.070  10.203  0.0729  0.4255 -0.2491
  266MOL0     O35810  13.641  11.165  10.216  0.3086 -0.3038  0.7850
  266MOL0     C35811  13.772  11.110  10.197 -0.4366 -0.9238  1.1138
  266MOL0     C35812  13.876  11.220  10.177 -0.1337 -0.0784 -0.7673
  266MOL0     C35813  13.881  11.308  10.310  0.6990 -0.5007  0.0924
  266MOL0     C35814  13.972  11.426  10.269  0.0278  0.2851 -0.1073
  266MOL0     C35815  13.984  11.519  10.390  0.4039  0.5543 -0.2044
  266MOL0     C35816  14.073  11.445  10.494  0.1589 -0.9327  0.4842
  266MOL0     C35817  14.094  11.531  10.627  0.1738 -0.3299  0.0316
  266MOL0     C35818  14.168  11.459  10.741 -0.2602  0.7284  0.3882
  266MOL0    Cl35819  14.098  11.297  10.785 -0.5752 -0.2501  0.3974
  266MOL0     C35820  13.566  10.932  10.213 -0.1349  0.1862  0.3376
  266MOL0     C35821  13.469  10.838  10.196 -0.3705 -0.8254  0.4762
  266MOL0     O35822  13.242  10.731  10.384 -0.4263  0.2953  0.0473
  266MOL0     C35823  13.008  10.616  10.150 -0.1764 -0.2710  0.2438
  266MOL0     C35824  12.881  10.554  10.138  0.3178 -0.6283 -0.6482
  266MOL0     N35825  12.111  10.365  10.271 -0.3834  0.2727  0.3685
  266MOL0     N35826  11.997  10.381  10.222 -0.0719 -1.0688 -0.1308
  266MOL0     C35827  10.851  10.011   9.845  0.3618 -1.5288 -0.3716
  266MOL0     C35828  10.728   9.947   9.845 -0.0772 -0.6649  0.1601
  266MOL0     C35829  10.314   9.826   9.948 -0.0321 -0.3390  0.3299
  266MOL0     C35830  10.253   9.833  10.071 -0.1672  0.7982 -1.1741
  266MOL0     C35831  10.116   9.827  10.082  0.4609 -0.4200 -0.1155
  266MOL0     C35832  10.035   9.785   9.966  0.5301  0.2493 -0.2107
  266MOL0     O35833   9.901   9.755   9.955  0.3503 -0.4021  0.7433
  266MOL0     C35834   9.817   9.792  10.069  0.5355 -0.2360  0.6307
  266MOL0     C35835   9.673   9.765  10.033 -0.1911  0.0145  0.2856
  266MOL0     C35836   9.577   9.774  10.147 -0.0534  0.5393  0.1139
  266MOL0     C35837   9.429   9.772  10.110  1.0401  1.2029  0.5585
  266MOL0     C35838   9.349   9.829  10.221 -0.8506  0.1377 -0.3464
  266MOL0     C35839   9.272   9.879  10.306 -0.5846 -0.5965 -0.9253
  266MOL0     C35840  10.099   9.777   9.845  0.1815 -0.1192  0.5751
  266MOL0     C35841  10.236   9.809   9.833  0.1845 -0.5191 -0.1606
  266MOL0     C35842  10.314   9.804   9.700 -0.1051  0.3069  0.0924
  266MOL0     H35843  10.543  10.235   9.927  1.5962  1.6591  1.8789
  266MOL0     H35844  10.747  10.340   9.899  1.9495  0.1601 -0.1378
  266MOL0     H35845  10.964  10.384   9.812 -2.1536 -0.9155  0.6778
  266MOL0     H35846  10.997  10.381   9.971 -2.0522 -0.2643 -0.4653
  266MOL0     H35847  11.172  10.473   9.853 -0.3284 -0.0216  0.3761
  266MOL0     H35848  11.198  10.334   9.749 -1.9488 -1.2465 -0.0612
  266MOL0     H35849  11.256  10.186   9.937  0.0043 -0.3575 -0.2862
  266MOL0     H35850  11.236  10.325  10.042  1.7778 -2.6889  0.4050
  266MOL0     H35851  11.448  10.301   9.823 -1.9693  1.8197 -1.7318
  266MOL0     H35852  11.431  10.437   9.934 -0.3772  0.5770  0.3738
  266MOL0     H35853  11.470  10.286  10.119  1.4256 -3.0674  1.2192
  266MOL0     H35854  11.496  10.149  10.018 -4.8850  0.0620  0.2586
  266MOL0     H35855  11.671  10.309   9.881 -0.2449  0.3239 -0.1022
  266MOL0     H35856  11.636  10.425  10.008 -1.3396 -0.7072  2.6283
  266MOL0     H35857  11.775  10.156  10.053  0.2777 -0.1329 -2.0247
  266MOL0     H35858  11.750  10.289  10.164  1.1152  0.9898 -1.3184
  266MOL0     H35859  11.934  10.285   9.915  0.3113  2.0308 -1.7985
  266MOL0     H35860  11.864  10.429   9.997  1.6402  0.0113  1.2174
  266MOL0     H35861  12.161  10.197   9.992  0.6404  0.4005 -1.1243
  266MOL0     H35862  12.319  10.174  10.336  0.6334  2.5867  0.3460
  266MOL0     H35863  12.354  10.166  10.168 -1.8388 -2.5943  0.2362
  266MOL0     H35864  12.399  10.412  10.358  1.6411  2.0465 -0.2901
  266MOL0     H35865  12.519  10.301  10.286  0.3736  0.2244 -1.5002
  266MOL0     H35866  12.383  10.536  10.165  1.1129  0.5392  0.9556
  266MOL0     H35867  12.392  10.403  10.059 -1.3886 -1.1422 -0.3562
  266MOL0     H35868  12.600  10.541  10.035  0.9686  0.3280  0.3261
  266MOL0     H35869  12.627  10.378  10.083  0.3120 -0.0816 -0.0596
  266MOL0     H35870  12.769  10.611  10.444  0.7287  0.9511  1.6591
  266MOL0     H35871  12.990  10.687  10.482 -1.7892 -1.3917  0.2805
  266MOL0     H35872  13.210  11.061  10.172  1.8753  2.6260 -3.2239
  266MOL0     H35873  13.389  11.218  10.212  0.6626 -0.1967 -0.6479
  266MOL0     H35874  13.791  11.039  10.278 -3.7323 -1.7368  1.2876
  266MOL0     H35875  13.782  11.053  10.105  4.9509 -0.0183  0.7625
  266MOL0     H35876  13.982  11.192  10.171  0.5962  2.5512 -1.3177
  266MOL0     H35877  13.850  11.261  10.079 -1.9617 -1.7677 -1.0494
  266MOL0     H35878  13.780  11.339  10.340  0.2337 -3.0721  1.3782
  266MOL0     H35879  13.921  11.241  10.386  0.6501  2.3651  2.8681
  266MOL0     H35880  13.925  11.484  10.188  1.5401 -1.8556 -2.6866
  266MOL0     H35881  14.070  11.399  10.229 -0.8742  0.0830 -2.3303
  266MOL0     H35882  13.890  11.545  10.440 -0.1912  2.4187 -2.1331
  266MOL0     H35883  14.017  11.619  10.360 -2.0997  1.4431 -0.2922
  266MOL0     H35884  14.021  11.355  10.527 -0.3822 -1.6679 -2.1579
  266MOL0     H35885  14.164  11.413  10.443 -0.0523  0.8890 -1.1852
  266MOL0     H35886  13.995  11.558  10.664  0.0993 -0.6023  0.0274
  266MOL0     H35887  14.147  11.623  10.598 -3.9006  2.3662  0.2843
  266MOL0     H35888  14.270  11.447  10.705  0.0084  4.2098 -0.3444
  266MOL0     H35889  14.177  11.523  10.830  3.8317  0.6423  0.2487
  266MOL0     H35890  13.665  10.889  10.221  0.2236  0.2576 -2.6086
  266MOL0     H35891  13.504  10.735  10.193 -1.0748 -1.1015  1.4295
  266MOL0     H35892  13.064  10.628  10.058 -0.6321 -2.1591 -0.3158
  266MOL0     H35893  12.830  10.505  10.055 -2.9047  2.2063 -0.5562
  266MOL0     H35894  10.941   9.951   9.843  0.9888 -0.6850  0.7720
  266MOL0     H35895  10.718   9.841   9.826 -0.9183 -0.6925  0.6626
  266MOL0     H35896  10.310   9.853  10.161 -0.6756  2.2302 -1.1548
  266MOL0     H35897  10.063   9.842  10.175  0.4318 -0.9957 -0.0321
  266MOL0     H35898   9.823   9.901  10.071 -1.8873 -0.0279  0.1814
  266MOL0     H35899   9.853   9.743  10.160  2.8836  1.9744  0.9831
  266MOL0     H35900   9.658   9.663   9.996 -0.1842  0.0169  0.2785
  266MOL0     H35901   9.654   9.829   9.946  2.8746  0.4000 -0.1936
  266MOL0     H35902   9.595   9.878  10.177  0.0842  1.1969 -2.0996
  266MOL0     H35903   9.603   9.701  10.224 -2.3382  1.0832  1.5162
  266MOL0     H35904   9.393   9.845  10.037 -1.7265  0.4506  1.0550
  266MOL0     H35905   9.400   9.670  10.085 -3.4013  2.5940 -0.9577
  266MOL0     H35906   9.201   9.917  10.377 -0.7962 -0.5605 -1.1543
  266MOL0     H35907  10.044   9.754   9.754 -2.2502  1.8884  1.4436
  266MOL0     H35908  10.335   9.904   9.662 -1.8635  1.1046  1.0704
  266MOL0     H35909  10.406   9.744   9.704 -0.7799 -0.9198 -1.6371
  266MOL0     H35910  10.253   9.756   9.623 -2.9196  1.6955  1.2894
  267MOL0     O35911   8.481   9.943   1.866 -0.2252 -0.1283 -0.3340
  267MOL0     C35912   8.443  10.021   1.951  0.2411 -0.2788 -0.1769
  267MOL0     O35913   8.515  10.114   2.014 -0.0562  0.4439  0.3126
  267MOL0     C35914   8.646  10.104   2.019  0.0566  1.4198  0.5229
  267MOL0     C35915   8.711   9.982   2.057 -0.3886  1.0761  1.3716
  267MOL0     C35916   8.845   9.987   2.095 -0.4800 -0.0178  1.0081
  267MOL0     C35917   8.913  10.109   2.080 -0.5812  0.8962  0.2978
  267MOL0     O35918   9.047  10.129   2.116 -0.6733 -0.8899  0.7392
  267MOL0     C35919   9.131  10.030   2.181  0.4171  0.0939  0.2735
  267MOL0     C35920   9.280  10.039   2.145  0.5527 -0.5431  0.2036
  267MOL0     C35921   9.325   9.937   2.037  0.2421  0.4807 -0.4221
  267MOL0     C35922   9.251   9.945   1.901 -0.3092  0.3204 -0.6657
  267MOL0     C35923   9.299   9.835   1.808 -0.1519  0.2803 -0.3181
  267MOL0     C35924   9.227   9.852   1.674  0.0223 -0.2044  0.4756
  267MOL0     C35925   9.297   9.765   1.561 -0.3650  0.0505  0.9159
  267MOL0     C35926   9.328   9.849   1.430 -0.0748  0.2128  0.0736
  267MOL0     N35927   9.460   9.909   1.455 -0.3156 -0.2879  0.5512
  267MOL0     C35928   9.505  10.017   1.541  0.2101 -0.2114 -0.0449
  267MOL0     C35929   9.637  10.046   1.503  0.1446  0.4001  0.6327
  267MOL0     C35930   9.725  10.138   1.581 -0.1891  0.1027 -0.4302
  267MOL0     C35931   9.864  10.174   1.516  0.2929 -0.3222  0.0136
  267MOL0     C35932   9.987  10.171   1.614 -1.3248  0.8788 -0.7816
  267MOL0     C35933   9.972  10.285   1.721  0.6135 -0.9342  1.3181
  267MOL0     O35934   9.939  10.408   1.655  0.2300  0.8023 -0.0651
  267MOL0     C35935  10.048  10.495   1.638 -0.4782 -0.7359  0.0835
  267MOL0     C35936  10.016  10.615   1.568  0.2116 -0.4363 -0.9528
  267MOL0     C35937  10.108  10.701   1.520 -0.3875  0.3365  0.9164
  267MOL0     C35938  10.249  10.687   1.555 -0.4624  0.1100  0.0696
  267MOL0     C35939  10.339  10.792   1.501 -0.5888  1.2591 -0.2683
  267MOL0     O35940  10.472  10.750   1.472  0.1627 -0.1092  0.3521
  267MOL0     C35941  10.550  10.830   1.388  0.2828  0.5651  0.3841
  267MOL0     C35942  10.685  10.841   1.426  0.1461  0.2915  1.3551
  267MOL0     C35943  10.763  10.927   1.345 -0.2893 -1.1723 -0.4312
  267MOL0     C35944  10.723  10.995   1.229  0.9341  0.1691  0.5166
  267MOL0     O35945  10.813  11.061   1.146  0.4019  0.7257 -0.2151
  267MOL0     C35946  10.874  11.184   1.182  0.1522 -0.2503  0.1164
  267MOL0     C35947  10.875  11.279   1.050  0.9694 -0.3475  0.3168
  267MOL0     C35948  10.928  11.227   0.921  0.5196  0.0309  0.0802
  267MOL0     C35949  10.897  11.309   0.793  0.6561 -0.5175 -0.3394
  267MOL0     C35950  10.984  11.435   0.782  0.2666  0.2966  0.1173
  267MOL0     C35951  10.961  11.513   0.652 -0.0132  0.0822 -0.9409
  267MOL0     C35952  11.019  11.447   0.533  0.0860  0.8734 -0.4359
  267MOL0     C35953  11.130  11.524   0.465 -0.3956 -0.1606  0.3187
  267MOL0    Cl35954  11.174  11.454   0.298 -0.5506 -0.6229  0.3049
  267MOL0     C35955  10.596  10.983   1.194  0.4800  0.1425 -0.6786
  267MOL0     C35956  10.511  10.889   1.266  0.5193  0.4316  0.6592
  267MOL0     O35957  10.294  10.899   1.480 -0.1435  0.0000 -0.2615
  267MOL0     C35958  10.289  10.560   1.616 -0.0757 -1.0209  0.4590
  267MOL0     C35959  10.189  10.476   1.664  0.1233  0.3045 -0.9858
  267MOL0     N35960   9.661   9.963   1.398  0.1503  0.5003 -0.7028
  267MOL0     N35961   9.561   9.878   1.368 -1.0995  0.0604 -0.5430
  267MOL0     C35962   8.847  10.225   2.038  0.1286  0.1943 -0.8381
  267MOL0     C35963   8.711  10.230   1.996 -0.5590  0.7271 -0.7420
  267MOL0     C35964   8.302  10.000   2.003 -0.7176 -0.1577  0.7149
  267MOL0     C35965   8.301  10.033   2.140  0.4407  0.2019 -0.3612
  267MOL0     C35966   8.177  10.020   2.206 -1.3491  0.0002  0.5671
  267MOL0     C35967   8.060   9.991   2.131  0.0399 -0.8655  0.0266
  267MOL0     O35968   7.926   9.994   2.175  0.1863  0.2784  0.0096
  267MOL0     C35969   7.882   9.948   2.298  0.1062 -0.1010  0.2506
  267MOL0     C35970   7.835   9.801   2.282 -1.1010 -1.2479  0.0386
  267MOL0     C35971   7.695   9.782   2.218  0.2507 -0.0668 -0.0872
  267MOL0     C35972   7.588   9.858   2.290  0.4873  0.3142  0.7333
  267MOL0     C35973   7.458   9.848   2.215 -0.8321 -1.0419 -0.2332
  267MOL0     C35974   7.350   9.839   2.157  0.8265 -0.3087 -1.1782
  267MOL0     C35975   8.074   9.953   1.998 -0.7782 -0.5101 -0.4184
  267MOL0     C35976   8.191   9.958   1.927  0.4122  0.1234  0.0218
  267MOL0     C35977   8.195   9.931   1.774 -0.0000  0.6302 -0.8010
  267MOL0     H35978   8.649   9.895   2.076 -0.4095 -0.1057 -3.0670
  267MOL0     H35979   8.899   9.907   2.144  1.0875 -1.1232 -2.2403
  267MOL0     H35980   9.118  10.023   2.289 -1.6224 -1.6762 -0.0095
  267MOL0     H35981   9.102   9.933   2.139  1.3032 -0.6795  1.3939
  267MOL0     H35982   9.350  10.033   2.229 -0.7114 -0.1402  1.3205
  267MOL0     H35983   9.287  10.140   2.104  1.0701 -0.6371  0.0487
  267MOL0     H35984   9.319   9.835   2.076 -0.1272 -1.1420 -4.2744
  267MOL0     H35985   9.432   9.952   2.020  0.7540 -0.3036  1.8297
  267MOL0     H35986   9.148   9.922   1.929  0.6158 -4.2752 -0.1239
  267MOL0     H35987   9.278  10.039   1.852  1.8156  1.5523  2.5165
  267MOL0     H35988   9.407   9.850   1.800 -0.0872  0.5583  0.8566
  267MOL0     H35989   9.286   9.736   1.853 -1.4088  0.2641 -0.6899
  267MOL0     H35990   9.122   9.824   1.681  0.3801 -1.8248 -0.1513
  267MOL0     H35991   9.247   9.956   1.645  2.4490 -1.3238 -2.2741
  267MOL0     H35992   9.230   9.684   1.532 -3.6388  2.9841 -0.4046
  267MOL0     H35993   9.391   9.719   1.592  1.2766 -0.7923 -4.3760
  267MOL0     H35994   9.344   9.787   1.342 -0.4755  0.8032 -0.4230
  267MOL0     H35995   9.249   9.916   1.396  1.3485  1.8121 -0.1998
  267MOL0     H35996   9.466  10.067   1.629 -1.1216  0.3992 -0.9633
  267MOL0     H35997   9.666  10.230   1.585  4.3753  3.3305  0.4686
  267MOL0     H35998   9.739  10.102   1.684  0.1977  0.3173 -0.4030
  267MOL0     H35999   9.900  10.117   1.430  1.4866  2.6758 -1.6171
  267MOL0     H36000   9.860  10.275   1.473  1.5931  0.8167  2.3490
  267MOL0     H36001  10.084  10.174   1.564  2.1021 -1.3418  4.7855
  267MOL0     H36002   9.982  10.080   1.675  1.2859  0.1339 -1.5695
  267MOL0     H36003  10.050  10.295   1.797  0.7544 -2.0624  1.3391
  267MOL0     H36004   9.882  10.254   1.775 -0.7065 -0.5503 -0.5524
  267MOL0     H36005   9.914  10.643   1.542  0.7096  1.4027 -1.0671
  267MOL0     H36006  10.081  10.791   1.465  0.2874  1.9676  3.1189
  267MOL0     H36007  10.732  10.799   1.514  2.5398 -0.1798 -0.0249
  267MOL0     H36008  10.866  10.952   1.368 -1.4506  1.4327  2.7431
  267MOL0     H36009  10.822  11.244   1.257  2.8581  3.3232 -0.5891
  267MOL0     H36010  10.979  11.166   1.204 -0.0519 -1.4742  0.1344
  267MOL0     H36011  10.772  11.305   1.024  1.3974 -0.3675 -1.4946
  267MOL0     H36012  10.928  11.372   1.070  1.7146 -1.0564  1.7922
  267MOL0     H36013  11.037  11.219   0.928  0.8765  0.8276 -3.0803
  267MOL0     H36014  10.884  11.131   0.892 -0.6503  0.7899 -0.7623
  267MOL0     H36015  10.794  11.342   0.804  0.4659 -1.6180  1.5681
  267MOL0     H36016  10.907  11.256   0.698 -0.5558  1.2155 -1.4945
  267MOL0     H36017  11.088  11.403   0.794 -0.0998 -1.2995 -0.6827
  267MOL0     H36018  10.974  11.498   0.871 -0.6204  0.2507  0.0606
  267MOL0     H36019  10.855  11.534   0.633  0.5483  2.4818 -1.8184
  267MOL0     H36020  11.002  11.615   0.661 -2.0069  1.2127 -3.3908
  267MOL0     H36021  10.934  11.430   0.466 -0.0521  3.0103 -0.8472
  267MOL0     H36022  11.055  11.351   0.572 -2.0054  0.1267 -0.1684
  267MOL0     H36023  11.104  11.630   0.455  0.4894  0.2357  1.9144
  267MOL0     H36024  11.221  11.522   0.525  1.7117 -0.8110 -2.6808
  267MOL0     H36025  10.561  11.043   1.111  2.8469  3.2321  0.3479
  267MOL0     H36026  10.407  10.878   1.236  0.0640  2.8194  1.1881
  267MOL0     H36027  10.393  10.536   1.635  0.3943 -2.2820 -3.0130
  267MOL0     H36028  10.219  10.384   1.715 -5.0201 -0.5505  1.0849
  267MOL0     H36029   8.898  10.321   2.049  1.6167 -0.5652 -0.8492
  267MOL0     H36030   8.657  10.322   1.977 -3.7062 -0.7316  0.5346
  267MOL0     H36031   8.383  10.079   2.196  0.0045  2.3278 -1.3595
  267MOL0     H36032   8.183  10.038   2.313  3.9738  0.7753  0.3786
  267MOL0     H36033   7.799  10.010   2.334 -1.2623 -0.6287 -1.7769
  267MOL0     H36034   7.956   9.963   2.377 -0.0003  1.7563  0.0442
  267MOL0     H36035   7.834   9.763   2.385 -1.1037 -2.6081 -0.4568
  267MOL0     H36036   7.902   9.728   2.237  0.5784 -0.1417  0.6530
  267MOL0     H36037   7.668   9.677   2.207  2.3928 -0.4271 -3.0448
  267MOL0     H36038   7.700   9.826   2.118 -1.4435  0.8307  0.1696
  267MOL0     H36039   7.578   9.797   2.381 -0.9697 -0.7481 -0.0952
  267MOL0     H36040   7.603   9.964   2.310 -3.8771  1.8635 -2.5180
  267MOL0     H36041   7.264   9.828   2.094  1.2964 -2.1941 -1.5637
  267MOL0     H36042   7.982   9.922   1.948 -2.4365  2.6785  0.4336
  267MOL0     H36043   8.093   9.939   1.736  0.6650  1.9235 -2.4784
  267MOL0     H36044   8.256   9.997   1.712  0.3324 -0.2839 -1.4777
  267MOL0     H36045   8.239   9.831   1.762 -0.6982  0.1628  0.3865
  268MOL0     O36046   2.853   7.216   4.047  0.6627  0.1999 -0.4750
  268MOL0     C36047   2.938   7.202   4.135 -0.5024 -0.8302  0.6970
  268MOL0     O36048   3.004   7.305   4.189  0.0705 -0.2061  0.0162
  268MOL0     C36049   2.948   7.425   4.178  0.1556  0.6294  0.2184
  268MOL0     C36050   2.905   7.485   4.296  0.5124 -0.3077  0.1543
  268MOL0     C36051   2.884   7.623   4.298  0.0584 -0.2335 -0.0209
  268MOL0     C36052   2.889   7.699   4.177 -0.2570 -1.0378 -0.3675
  268MOL0     O36053   2.846   7.828   4.180 -0.1235  0.0157  0.1057
  268MOL0     C36054   2.949   7.910   4.215 -0.3661 -0.7091 -0.3151
  268MOL0     C36055   2.901   8.050   4.236  0.1641 -0.5133 -0.2203
  268MOL0     C36056   2.796   8.066   4.350 -0.4937  0.1938  0.6531
  268MOL0     C36057   2.863   8.095   4.486 -0.6651  0.1079  0.3187
  268MOL0     C36058   2.759   8.093   4.602 -0.0328  0.3256 -0.2950
  268MOL0     C36059   2.815   8.125   4.750 -0.1427  1.1286  0.8719
  268MOL0     C36060   2.713   8.216   4.819 -0.2194  0.2832  0.2950
  268MOL0     C36061   2.735   8.213   4.968 -0.1094 -0.1208  0.0362
  268MOL0     N36062   2.854   8.283   5.015  0.1006 -0.1750 -0.2384
  268MOL0     C36063   2.844   8.425   5.022  0.4754  0.0071 -0.2801
  268MOL0     C36064   2.978   8.463   5.016 -0.0151  0.5912 -0.7000
  268MOL0     C36065   3.029   8.595   5.044 -0.4170  0.0142  0.6701
  268MOL0     C36066   2.997   8.694   4.930 -0.1328  0.3542  0.4282
  268MOL0     C36067   3.048   8.844   4.971 -0.3134  0.5327  0.0595
  268MOL0     C36068   3.204   8.846   4.981  0.4411  0.3097  0.4837
  268MOL0     O36069   3.277   8.813   4.855  0.4649  0.7214 -0.1786
  268MOL0     C36070   3.388   8.735   4.870  0.2307  0.4572  0.5056
  268MOL0     C36071   3.400   8.636   4.769  0.3025 -0.1859 -0.1196
  268MOL0     C36072   3.508   8.546   4.780  0.7836 -0.4441 -0.7256
  268MOL0     C36073   3.603   8.554   4.878 -0.6305  0.0459  0.0313
  268MOL0     C36074   3.712   8.453   4.886  0.6363  0.7434  1.0330
  268MOL0     O36075   3.726   8.378   4.769 -0.1587 -1.4922 -0.7603
  268MOL0     C36076   3.802   8.263   4.782  0.5319 -0.4814  0.4011
  268MOL0     C36077   3.752   8.146   4.839 -0.2973  0.3928  0.2198
  268MOL0     C36078   3.831   8.038   4.834  0.3911  0.3234 -1.4378
  268MOL0     C36079   3.963   8.033   4.791 -0.3602  0.3696 -0.6247
  268MOL0     O36080   4.034   7.921   4.824  0.8668  0.1068  0.5485
  268MOL0     C36081   4.177   7.923   4.828  1.4566 -0.2582  0.3573
  268MOL0     C36082   4.240   7.786   4.865 -1.0289  0.6699 -0.0174
  268MOL0     C36083   4.288   7.703   4.742  0.2060 -0.1680  0.3314
  268MOL0     C36084   4.374   7.586   4.767 -0.5586 -0.2804  0.1839
  268MOL0     C36085   4.300   7.468   4.829 -0.1711  0.0505 -0.0573
  268MOL0     C36086   4.399   7.365   4.875  0.1543  0.0138 -1.1886
  268MOL0     C36087   4.340   7.269   4.979  0.7564  0.1820  0.0054
  268MOL0     C36088   4.220   7.189   4.929  0.2511 -1.0608 -0.4577
  268MOL0    Cl36089   4.066   7.278   4.955  0.3428 -0.1716 -0.0623
  268MOL0     C36090   4.015   8.151   4.726 -0.1141  0.2620  0.1729
  268MOL0     C36091   3.927   8.261   4.720  0.2420  0.0321  0.0392
  268MOL0     O36092   3.781   8.442   4.984 -0.7661 -0.3458 -0.3404
  268MOL0     C36093   3.589   8.653   4.978  0.1522  0.0156  0.3123
  268MOL0     C36094   3.483   8.745   4.967  0.4247  0.2857  0.6280
  268MOL0     N36095   3.054   8.343   5.014 -0.1375  0.6780 -0.7078
  268MOL0     N36096   2.976   8.239   5.017 -0.8425  0.3284 -0.2271
  268MOL0     C36097   2.908   7.633   4.058 -0.3327  0.3880 -0.0718
  268MOL0     C36098   2.941   7.498   4.061 -0.8510  0.1619  0.4449
  268MOL0     C36099   2.986   7.061   4.169  0.7908 -0.9412  0.7007
  268MOL0     C36100   3.017   6.976   4.066  0.6001  0.5581 -0.1699
  268MOL0     C36101   3.061   6.846   4.086  0.6907  0.0667  0.7449
  268MOL0     C36102   3.072   6.799   4.214 -0.5703  0.5177  0.1923
  268MOL0     O36103   3.137   6.682   4.244  0.2817 -0.5018  0.3422
  268MOL0     C36104   3.278   6.668   4.212 -0.0532  0.5697 -0.2950
  268MOL0     C36105   3.334   6.533   4.240 -0.0404  0.9503 -0.1761
  268MOL0     C36106   3.463   6.543   4.340  0.0436 -0.0110  0.2523
  268MOL0     C36107   3.517   6.399   4.374  0.4356 -1.0791 -0.2881
  268MOL0     C36108   3.598   6.338   4.270  0.4976 -0.3433 -1.3773
  268MOL0     C36109   3.661   6.287   4.181 -0.3117 -1.1716 -0.2659
  268MOL0     C36110   3.055   6.889   4.319 -0.1783 -0.0530 -0.4450
  268MOL0     C36111   3.006   7.023   4.298  0.4939 -0.5499 -0.4076
  268MOL0     C36112   2.983   7.120   4.407  0.0100  0.4238  0.3160
  268MOL0     H36113   2.911   7.425   4.386  1.5137 -2.1971 -1.1039
  268MOL0     H36114   2.861   7.671   4.393 -1.6969 -0.2227 -0.4124
  268MOL0     H36115   2.999   7.880   4.307  1.1224  0.5101 -0.6839
  268MOL0     H36116   3.016   7.921   4.130  1.0826  1.3129  0.9840
  268MOL0     H36117   2.856   8.094   4.146 -3.1981 -0.7921  1.1792
  268MOL0     H36118   2.991   8.108   4.257 -0.9733  1.4054 -0.4317
  268MOL0     H36119   2.738   7.973   4.355  0.7134 -0.8050 -1.8873
  268MOL0     H36120   2.721   8.140   4.320 -1.2267 -1.3728 -1.6772
  268MOL0     H36121   2.948   8.031   4.511  0.2842  1.3685  0.3746
  268MOL0     H36122   2.905   8.194   4.468 -0.6072 -0.1840 -1.3325
  268MOL0     H36123   2.688   8.173   4.581  2.1630  2.7433  0.8356
  268MOL0     H36124   2.705   7.998   4.600 -1.1802  0.9052  1.5854
  268MOL0     H36125   2.829   8.027   4.798  0.4597  0.3324 -0.8466
  268MOL0     H36126   2.911   8.176   4.757 -0.2106  1.1671  1.7475
  268MOL0     H36127   2.621   8.160   4.801  0.5879 -1.5875  1.6503
  268MOL0     H36128   2.714   8.318   4.780 -0.6461 -0.2279 -1.0788
  268MOL0     H36129   2.643   8.252   5.013  0.2430  1.4100 -0.5054
  268MOL0     H36130   2.755   8.107   4.989 -1.2152  0.1483  2.7936
  268MOL0     H36131   2.756   8.487   5.037  0.5046  0.3757 -1.4710
  268MOL0     H36132   2.990   8.629   5.140  0.0158 -0.7485  1.1182
  268MOL0     H36133   3.137   8.575   5.039 -1.0937 -4.9685  1.2013
  268MOL0     H36134   3.040   8.672   4.831  3.3166  2.4888  1.2819
  268MOL0     H36135   2.889   8.694   4.918 -0.1523  1.1848  0.6036
  268MOL0     H36136   2.996   8.899   5.050  0.1745  1.6494 -0.3634
  268MOL0     H36137   3.025   8.912   4.888  2.3591  0.9148 -0.4474
  268MOL0     H36138   3.233   8.787   5.069 -0.6169 -0.7826  0.1184
  268MOL0     H36139   3.235   8.949   5.003  2.0380 -0.3720  1.6326
  268MOL0     H36140   3.323   8.641   4.692 -0.0736  0.4563  0.2844
  268MOL0     H36141   3.512   8.464   4.710 -0.8982  1.1421 -2.8475
  268MOL0     H36142   3.647   8.153   4.866 -0.4146 -0.4831  0.0412
  268MOL0     H36143   3.790   7.938   4.846 -0.5399  0.9752  1.7052
  268MOL0     H36144   4.222   7.967   4.738 -1.7796 -1.3305 -1.9326
  268MOL0     H36145   4.207   7.993   4.907  3.7378 -1.7767  0.9346
  268MOL0     H36146   4.329   7.811   4.923  0.3697 -0.3524 -1.6438
  268MOL0     H36147   4.164   7.740   4.928 -0.7696 -0.5711 -0.5947
  268MOL0     H36148   4.196   7.672   4.692  0.8947 -0.7850 -0.5796
  268MOL0     H36149   4.344   7.781   4.689  0.1213 -0.1191  0.3127
  268MOL0     H36150   4.459   7.621   4.825  0.9812 -0.0839 -2.0735
  268MOL0     H36151   4.418   7.560   4.671 -1.4707  2.7918 -1.1952
  268MOL0     H36152   4.219   7.422   4.772 -0.1586  0.8768 -0.7707
  268MOL0     H36153   4.262   7.503   4.925 -0.7747 -3.1656  0.9793
  268MOL0     H36154   4.440   7.305   4.793  1.0442 -1.6841  0.4256
  268MOL0     H36155   4.478   7.418   4.929 -1.1593  1.8839 -0.9817
  268MOL0     H36156   4.318   7.320   5.073  2.3773  0.0373  0.5100
  268MOL0     H36157   4.413   7.191   5.001  0.2072 -0.0510  1.0505
  268MOL0     H36158   4.226   7.173   4.821  1.2624  3.4412 -1.2746
  268MOL0     H36159   4.198   7.088   4.964 -1.3958 -2.7367 -5.4576
  268MOL0     H36160   4.115   8.150   4.683 -0.2876  2.1789 -0.3507
  268MOL0     H36161   3.952   8.351   4.664 -2.8046  0.9259 -0.0522
  268MOL0     H36162   3.659   8.669   5.059  0.1393  1.1583  0.1259
  268MOL0     H36163   3.484   8.827   5.039 -0.3855  1.9031 -1.1102
  268MOL0     H36164   2.884   7.685   3.966  1.9043 -0.2315 -1.0880
  268MOL0     H36165   2.949   7.439   3.970 -1.2506  0.3149  0.3086
  268MOL0     H36166   3.008   7.003   3.962 -0.4406 -2.3633 -0.9332
  268MOL0     H36167   3.084   6.788   3.997 -0.9931  0.4417  0.0208
  268MOL0     H36168   3.336   6.747   4.260  2.4628 -0.5642 -1.2902
  268MOL0     H36169   3.291   6.692   4.106  1.3277  2.3404  0.2129
  268MOL0     H36170   3.354   6.467   4.155 -0.4645 -1.0278  1.1709
  268MOL0     H36171   3.253   6.473   4.282 -1.9534  0.5414 -4.0488
  268MOL0     H36172   3.439   6.596   4.432 -1.4548 -0.9817  0.4577
  268MOL0     H36173   3.542   6.599   4.288 -1.0684  1.0944 -0.3044
  268MOL0     H36174   3.575   6.411   4.466 -2.9980 -2.1149  2.2183
  268MOL0     H36175   3.433   6.333   4.395 -1.0074  0.7723  0.0626
  268MOL0     H36176   3.740   6.257   4.115  1.1076 -2.2477  1.8025
  268MOL0     H36177   3.072   6.844   4.416  3.0740 -3.8117 -2.4602
  268MOL0     H36178   3.074   7.181   4.415  0.0715  0.6225 -1.4232
  268MOL0     H36179   2.900   7.190   4.393 -1.0219 -0.8114  0.0989
  268MOL0     H36180   2.959   7.068   4.500 -3.1850  0.7548 -0.1949
  269MOL0     O36181   7.345   7.997   9.208 -0.7372  0.1738  0.3183
  269MOL0     C36182   7.359   7.872   9.194  0.5215 -0.2708  0.0597
  269MOL0     O36183   7.275   7.780   9.256 -0.0093  0.6771 -0.0231
  269MOL0     C36184   7.160   7.813   9.317 -0.0974 -0.1506  0.1515
  269MOL0     C36185   7.136   7.759   9.445  0.2482  1.0344  0.9403
  269MOL0     C36186   7.021   7.780   9.509 -0.1273  0.7578  0.5792
  269MOL0     C36187   6.928   7.869   9.464 -0.5519  0.0878  0.6714
  269MOL0     O36188   6.812   7.875   9.537 -0.3285 -0.2185  0.4443
  269MOL0     C36189   6.757   8.012   9.562  0.7226 -0.7297  0.3182
  269MOL0     C36190   6.640   8.019   9.666  0.9930 -0.2304  0.2574
  269MOL0     C36191   6.666   8.119   9.781  0.7703  0.2008 -0.0108
  269MOL0     C36192   6.672   8.263   9.720 -0.0769 -0.2159  0.0569
  269MOL0     C36193   6.676   8.382   9.811  0.2920 -0.2837 -0.8624
  269MOL0     C36194   6.792   8.364   9.910  0.7114  0.5268 -0.0599
  269MOL0     C36195   6.860   8.495   9.955 -0.1754 -0.9557  0.6713
  269MOL0     C36196   6.927   8.560   9.829 -0.0277 -0.1418  0.1667
  269MOL0     N36197   6.997   8.675   9.861 -0.2044 -0.4201  0.2999
  269MOL0     C36198   6.939   8.778   9.941  0.1483 -0.4377 -0.7568
  269MOL0     C36199   7.016   8.892   9.944  0.5432  0.6661  0.3048
  269MOL0     C36200   6.963   9.019  10.000 -0.4895 -0.4690 -0.4011
  269MOL0     C36201   7.025   9.015  10.141 -0.5105  0.1191  0.8750
  269MOL0     C36202   6.985   9.138  10.225 -0.8135  0.2126 -0.1246
  269MOL0     C36203   7.026   9.129  10.379  0.8742 -0.4380  0.3189
  269MOL0     O36204   7.171   9.140  10.396 -0.4060  1.0704 -0.1472
  269MOL0     C36205   7.240   9.260  10.385 -0.2208  0.3356 -0.3975
  269MOL0     C36206   7.376   9.253  10.407 -0.1054 -0.2706  0.6706
  269MOL0     C36207   7.452   9.358  10.377 -0.1213 -0.4398 -0.7514
  269MOL0     C36208   7.398   9.483  10.352 -0.0988 -0.8361  1.2870
  269MOL0     C36209   7.481   9.608  10.347 -0.2149 -0.2009 -0.6310
  269MOL0     O36210   7.416   9.726  10.338  0.7678 -0.0698  0.3266
  269MOL0     C36211   7.485   9.842  10.335  0.6559 -0.0478 -0.7283
  269MOL0     C36212   7.464   9.939  10.428 -0.8096 -0.2440  0.0944
  269MOL0     C36213   7.546  10.058  10.418  0.1137  0.6204  0.3964
  269MOL0     C36214   7.630  10.078  10.305  0.3925  0.8983  1.3090
  269MOL0     O36215   7.682  10.200  10.307 -0.2907  0.1972  0.2437
  269MOL0     C36216   7.782  10.220  10.202 -0.7389  0.9626  0.0548
  269MOL0     C36217   7.840  10.355  10.226 -0.2657  0.1973  0.2066
  269MOL0     C36218   7.942  10.406  10.120 -0.7182  0.6252 -0.7670
  269MOL0     C36219   7.987  10.549  10.149 -0.8630  0.5263  0.8831
  269MOL0     C36220   8.069  10.607  10.031  0.0650  0.4349  0.2589
  269MOL0     C36221   8.204  10.538  10.020  1.0204 -1.1659  0.4790
  269MOL0     C36222   8.268  10.559   9.886 -0.1318 -0.2612 -0.0071
  269MOL0     C36223   8.415  10.531   9.882  0.3270  0.4325  0.1787
  269MOL0    Cl36224   8.482  10.598   9.740 -0.4431 -0.5135 -0.3513
  269MOL0     C36225   7.641   9.980  10.212 -0.1441  0.9238 -0.7347
  269MOL0     C36226   7.570   9.858  10.225  0.3039 -0.2307 -0.5567
  269MOL0     O36227   7.603   9.597  10.345 -0.4843  0.1724  0.1698
  269MOL0     C36228   7.258   9.493  10.335  0.7209 -0.3690  0.4938
  269MOL0     C36229   7.185   9.380  10.343 -0.4786  0.9362 -0.3979
  269MOL0     N36230   7.124   8.861   9.858 -0.6068  0.9753  0.4183
  269MOL0     N36231   7.119   8.736   9.819  0.6926  0.0926  0.2452
  269MOL0     C36232   6.952   7.925   9.338  0.0767 -0.3522  0.1731
  269MOL0     C36233   7.065   7.901   9.267 -0.4150  0.6443 -0.2550
  269MOL0     C36234   7.469   7.820   9.128 -0.2891  0.7960  0.7384
  269MOL0     C36235   7.502   7.683   9.143  1.0975  1.8688 -1.1221
  269MOL0     C36236   7.603   7.616   9.078  0.0381 -0.3291 -0.3167
  269MOL0     C36237   7.694   7.690   9.006 -0.8233 -0.7342 -0.4058
  269MOL0     O36238   7.810   7.648   8.949  0.1116  0.2760 -0.1775
  269MOL0     C36239   7.818   7.520   8.895 -0.3695  0.6497 -0.1453
  269MOL0     C36240   7.969   7.496   8.860  0.7675 -0.1507  0.6328
  269MOL0     C36241   8.033   7.611   8.771 -0.0758  0.5456 -0.8963
  269MOL0     C36242   7.992   7.601   8.630  0.9455  0.6141  1.0293
  269MOL0     C36243   8.018   7.477   8.558  0.1751 -0.1663 -0.7384
  269MOL0     C36244   8.055   7.375   8.515 -0.5035  0.4896  0.0018
  269MOL0     C36245   7.679   7.831   8.992  0.1560  0.5265  0.2168
  269MOL0     C36246   7.575   7.898   9.052  0.5983  0.6680 -0.1213
  269MOL0     C36247   7.584   8.050   9.044  0.0972  0.8158 -0.2339
  269MOL0     H36248   7.213   7.698   9.492  0.0911 -0.6142 -0.8217
  269MOL0     H36249   7.019   7.735   9.608  0.9004  3.4710  1.9367
  269MOL0     H36250   6.840   8.078   9.590  0.3936 -0.5428  0.8624
  269MOL0     H36251   6.708   8.038   9.468 -2.7350  0.0401  2.1887
  269MOL0     H36252   6.627   7.915   9.699  0.3341 -0.1835  0.1660
  269MOL0     H36253   6.549   8.040   9.608  0.3789 -0.5651  1.0782
  269MOL0     H36254   6.764   8.093   9.822  2.0303  2.7907 -1.1550
  269MOL0     H36255   6.596   8.111   9.865  1.4369  0.3541  0.5731
  269MOL0     H36256   6.767   8.267   9.667  0.2808  1.7820  0.7606
  269MOL0     H36257   6.586   8.269   9.652 -1.2449  2.4618  1.6308
  269MOL0     H36258   6.668   8.466   9.743 -1.6909 -0.0654 -0.4133
  269MOL0     H36259   6.587   8.385   9.874 -0.1637  0.0408 -1.5174
  269MOL0     H36260   6.764   8.312  10.002  3.9139  0.5396  1.0218
  269MOL0     H36261   6.866   8.307   9.853  0.0206  0.5188 -0.9891
  269MOL0     H36262   6.939   8.481  10.029 -0.6717 -2.0967  1.0172
  269MOL0     H36263   6.780   8.553  10.002  0.9882  1.8697 -0.6571
  269MOL0     H36264   7.007   8.505   9.779 -0.3775  1.7319 -2.7723
  269MOL0     H36265   6.849   8.584   9.755 -1.3218 -3.2934  0.3937
  269MOL0     H36266   6.840   8.775   9.986  0.7272  1.0346  0.7052
  269MOL0     H36267   6.994   9.105   9.940 -1.6379 -0.8346 -1.5692
  269MOL0     H36268   6.854   9.017   9.995 -0.7631  1.0755  2.7342
  269MOL0     H36269   6.990   8.921  10.184 -0.6861 -0.1032  0.2550
  269MOL0     H36270   7.133   9.008  10.130 -0.2648  0.8491  2.4907
  269MOL0     H36271   6.875   9.140  10.232 -0.8566 -0.6307 -0.4507
  269MOL0     H36272   7.017   9.234  10.183 -2.8162  0.0617 -2.2428
  269MOL0     H36273   6.984   9.038  10.425  0.7203 -0.5370 -0.0201
  269MOL0     H36274   6.983   9.208  10.442  0.7927  0.1694 -0.4918
  269MOL0     H36275   7.431   9.167  10.445  2.2748  1.2031  0.8010
  269MOL0     H36276   7.558   9.347  10.396  0.3946  1.5576 -2.1391
  269MOL0     H36277   7.391   9.921  10.507  2.3273 -0.1190  3.3009
  269MOL0     H36278   7.540  10.140  10.488  0.8687 -0.2678  1.5424
  269MOL0     H36279   7.867  10.153  10.216 -0.4217  1.8890  3.2590
  269MOL0     H36280   7.735  10.198  10.106  1.1732 -0.1010 -0.6909
  269MOL0     H36281   7.758  10.427  10.233 -1.2647 -1.0019  1.1392
  269MOL0     H36282   7.895  10.357  10.321 -3.3198  1.6314  2.0972
  269MOL0     H36283   8.028  10.339  10.112 -1.8771 -0.8144 -1.6601
  269MOL0     H36284   7.894  10.409  10.022 -1.4919  1.6414 -0.3765
  269MOL0     H36285   8.042  10.562  10.242  0.6807  0.7395 -0.0271
  269MOL0     H36286   7.894  10.606  10.147 -3.3492 -3.1861 -0.6843
  269MOL0     H36287   8.084  10.713  10.055 -1.0507  0.7059 -0.1636
  269MOL0     H36288   8.012  10.598   9.938  3.0780 -1.8974 -1.5463
  269MOL0     H36289   8.268  10.560  10.106  0.7893 -2.6158  1.0451
  269MOL0     H36290   8.195  10.429  10.030  2.1828 -1.1923  1.5680
  269MOL0     H36291   8.245  10.662   9.860  0.3274 -0.0914  0.2621
  269MOL0     H36292   8.215  10.506   9.806 -3.4160  0.3365  1.6134
  269MOL0     H36293   8.463  10.577   9.969 -2.0176 -2.2185  3.1145
  269MOL0     H36294   8.425  10.422   9.883 -2.2126  0.1027  2.8889
  269MOL0     H36295   7.699   9.998  10.122  0.4482 -0.6471 -0.6979
  269MOL0     H36296   7.573   9.794  10.137 -1.4634 -2.2939  0.7681
  269MOL0     H36297   7.198   9.581  10.315  0.7961  0.3746  3.1600
  269MOL0     H36298   7.081   9.394  10.315 -0.7966  2.9214  1.5825
  269MOL0     H36299   6.882   7.994   9.292  1.6727  0.6441 -0.8247
  269MOL0     H36300   7.084   7.938   9.167  2.3330 -2.0811 -0.8776
  269MOL0     H36301   7.445   7.612   9.202  3.6778 -1.6287 -2.5344
  269MOL0     H36302   7.632   7.513   9.098 -1.4303 -0.6506  0.2448
  269MOL0     H36303   7.744   7.512   8.814 -1.7528  3.5977  0.7082
  269MOL0     H36304   7.797   7.443   8.970  0.5608 -1.3213 -1.8003
  269MOL0     H36305   7.969   7.404   8.801 -1.7397  0.1297  0.0868
  269MOL0     H36306   8.020   7.478   8.955  0.5444 -1.2505  0.5516
  269MOL0     H36307   8.141   7.595   8.771 -0.4807 -4.1362  2.2734
  269MOL0     H36308   8.025   7.714   8.806  2.7873  0.0149  1.7823
  269MOL0     H36309   7.884   7.616   8.630  0.9733  1.1230 -0.9612
  269MOL0     H36310   8.028   7.684   8.569  1.1898 -1.3568 -1.6842
  269MOL0     H36311   8.111   7.292   8.477 -2.3227 -0.5965 -0.3745
  269MOL0     H36312   7.749   7.880   8.925 -0.0415 -1.0291 -1.2062
  269MOL0     H36313   7.502   8.089   8.982 -0.5534 -1.3442 -0.8401
  269MOL0     H36314   7.573   8.086   9.146  2.6020 -2.5481  1.4233
  269MOL0     H36315   7.678   8.075   8.995  1.0012  0.2644  1.1805
  270MOL0     O36316   5.795   1.229   5.856  0.4962  0.1583 -0.1812
  270MOL0     C36317   5.802   1.153   5.763  0.0962 -0.0957 -0.1821
  270MOL0     O36318   5.917   1.105   5.705  0.6513  0.1351  0.1046
  270MOL0     C36319   6.036   1.128   5.765 -0.7239 -0.5736 -0.1989
  270MOL0     C36320   6.069   1.147   5.899  0.1620 -0.3831  0.1101
  270MOL0     C36321   6.196   1.172   5.953 -0.4310  0.3322 -0.4689
  270MOL0     C36322   6.311   1.162   5.860  0.0597  0.0557 -1.2491
  270MOL0     O36323   6.427   1.172   5.912 -0.5554 -0.3488 -1.1378
  270MOL0     C36324   6.480   1.056   5.970 -0.1745 -0.0134  0.5568
  270MOL0     C36325   6.588   0.979   5.893 -0.0088 -0.4002 -0.6916
  270MOL0     C36326   6.628   0.866   5.996 -0.2308  0.1466  0.7691
  270MOL0     C36327   6.529   0.744   6.004 -0.0703 -0.0291 -0.0737
  270MOL0     C36328   6.589   0.630   6.095 -0.3665  0.7768 -0.1960
  270MOL0     C36329   6.722   0.586   6.030  0.4235  0.2341  0.5019
  270MOL0     C36330   6.773   0.455   6.097 -0.6250 -0.3608 -0.6774
  270MOL0     C36331   6.928   0.443   6.060  0.0351 -0.2869  0.0620
  270MOL0     N36332   6.946   0.436   5.911 -0.5840  0.2506 -0.2426
  270MOL0     C36333   6.877   0.361   5.825  0.4247 -0.2436 -0.1739
  270MOL0     C36334   6.901   0.412   5.697  0.1721  0.4093 -0.9424
  270MOL0     C36335   6.855   0.347   5.563 -0.3107  0.5512 -0.2063
  270MOL0     C36336   6.949   0.236   5.497  0.2162 -0.1253  0.0921
  270MOL0     C36337   7.053   0.306   5.417 -0.7094 -0.2433  0.6397
  270MOL0     C36338   7.186   0.224   5.401 -0.5166  0.8325  1.1683
  270MOL0     O36339   7.256   0.219   5.529  0.2093  0.3367  0.5533
  270MOL0     C36340   7.362   0.300   5.531  0.0883 -0.7848  0.3076
  270MOL0     C36341   7.478   0.277   5.456 -0.1694  0.0838  0.6348
  270MOL0     C36342   7.594   0.353   5.484 -0.0524  0.3790  0.2683
  270MOL0     C36343   7.602   0.453   5.581  0.3898 -0.5435  0.2895
  270MOL0     C36344   7.723   0.518   5.621 -1.5358 -0.2377  0.0805
  270MOL0     O36345   7.842   0.487   5.553  0.9244 -0.1943  1.0844
  270MOL0     C36346   7.973   0.484   5.604  0.2389 -0.2691  0.5310
  270MOL0     C36347   8.008   0.519   5.731  0.0473  0.2789  0.0825
  270MOL0     C36348   8.139   0.514   5.772  0.5465 -0.2684  0.2203
  270MOL0     C36349   8.236   0.469   5.684 -0.0787 -0.0200 -0.7648
  270MOL0     O36350   8.375   0.478   5.709 -0.8794 -0.4860  0.6706
  270MOL0     C36351   8.417   0.488   5.849 -0.5991  0.4454 -0.4412
  270MOL0     C36352   8.575   0.492   5.847  0.3552 -0.0166  0.6567
  270MOL0     C36353   8.641   0.522   5.977  0.8430  0.3051 -0.4855
  270MOL0     C36354   8.656   0.388   6.062  0.2729 -0.6124 -0.5374
  270MOL0     C36355   8.684   0.422   6.206  0.0483 -0.3677 -0.0615
  270MOL0     C36356   8.831   0.412   6.240 -0.1157  0.2158  0.5774
  270MOL0     C36357   8.884   0.436   6.378  0.7654  0.1332  0.1566
  270MOL0     C36358   8.838   0.327   6.477 -0.4181 -0.4196 -0.5008
  270MOL0    Cl36359   8.954   0.326   6.612 -0.7791  0.3378  0.0807
  270MOL0     C36360   8.201   0.447   5.550 -0.7188  0.2793  0.7928
  270MOL0     C36361   8.069   0.458   5.509 -0.1906  0.5514 -1.2953
  270MOL0     O36362   7.714   0.612   5.701 -0.0552 -0.4997 -0.6963
  270MOL0     C36363   7.474   0.482   5.646 -1.3245 -1.0078 -0.1130
  270MOL0     C36364   7.366   0.406   5.624 -0.4623  0.0026  0.3585
  270MOL0     N36365   6.999   0.516   5.710  0.9516  0.4631 -0.7792
  270MOL0     N36366   7.017   0.521   5.842  0.1145 -0.4143 -0.1055
  270MOL0     C36367   6.281   1.155   5.722  0.4688  0.3645  0.5379
  270MOL0     C36368   6.148   1.135   5.679  0.3670 -0.7801  0.2918
  270MOL0     C36369   5.671   1.128   5.694  0.1566  0.4188 -0.0153
  270MOL0     C36370   5.565   1.228   5.704  0.3254  0.5947 -0.5243
  270MOL0     C36371   5.436   1.205   5.665  1.2580 -0.1799 -0.1903
  270MOL0     C36372   5.403   1.086   5.605 -0.2023 -0.2155 -0.4174
  270MOL0     O36373   5.282   1.047   5.547  0.1768  0.6424  0.4106
  270MOL0     C36374   5.179   1.150   5.516  0.2293  1.0456 -0.4367
  270MOL0     C36375   5.060   1.071   5.464 -0.3878 -0.2006 -0.3907
  270MOL0     C36376   5.101   0.999   5.324 -0.0622  0.2793 -0.2435
  270MOL0     C36377   4.984   0.922   5.265  0.0781  0.5422  0.3035
  270MOL0     C36378   4.937   0.802   5.337 -0.1807 -0.7604  0.7623
  270MOL0     C36379   4.867   0.718   5.399  0.3983 -0.2747 -0.8467
  270MOL0     C36380   5.506   0.990   5.589  0.0970 -0.1841  0.2984
  270MOL0     C36381   5.644   1.006   5.628  0.1459  0.0702  0.8105
  270MOL0     C36382   5.741   0.889   5.614  0.1558 -0.1312 -0.7177
  270MOL0     H36383   5.982   1.160   5.962  0.4267 -0.9716  0.5981
  270MOL0     H36384   6.211   1.182   6.060  1.4789  0.3773 -0.7108
  270MOL0     H36385   6.507   1.079   6.074 -0.4074  0.3096  0.5475
  270MOL0     H36386   6.396   0.987   5.982  0.2084 -0.9978 -1.9007
  270MOL0     H36387   6.676   1.043   5.886 -0.3378 -0.0680 -2.2274
  270MOL0     H36388   6.567   0.952   5.789 -2.9337  0.9192 -0.5437
  270MOL0     H36389   6.643   0.904   6.097 -0.6748  0.5247  0.6996
  270MOL0     H36390   6.727   0.834   5.962 -0.1666  0.3476  0.7627
  270MOL0     H36391   6.430   0.771   6.043 -1.6928 -1.2754 -3.0477
  270MOL0     H36392   6.503   0.716   5.902  1.3924  1.2741 -0.8616
  270MOL0     H36393   6.613   0.668   6.195  3.4284 -0.6819 -0.3872
  270MOL0     H36394   6.522   0.544   6.094  1.5641 -0.8268  1.5042
  270MOL0     H36395   6.719   0.572   5.922 -1.8599 -0.5176  0.6209
  270MOL0     H36396   6.791   0.670   6.047  1.3515 -0.1251 -1.3115
  270MOL0     H36397   6.712   0.369   6.068  1.7000 -1.6089 -2.1787
  270MOL0     H36398   6.767   0.467   6.205  1.9111 -4.4534  0.1267
  270MOL0     H36399   6.977   0.527   6.111 -0.7950 -0.8869  1.9239
  270MOL0     H36400   6.966   0.358   6.117 -1.5093 -1.0274  0.0154
  270MOL0     H36401   6.818   0.270   5.833  1.2111 -0.6593  1.3663
  270MOL0     H36402   6.764   0.288   5.578  1.0502 -1.3900  0.7500
  270MOL0     H36403   6.839   0.419   5.482 -0.5721 -0.6326 -1.2415
  270MOL0     H36404   6.997   0.165   5.565 -2.4605 -0.8412  1.3479
  270MOL0     H36405   6.882   0.177   5.434 -0.8992  1.4618 -0.2648
  270MOL0     H36406   7.092   0.395   5.466  0.8380 -1.3253  1.4475
  270MOL0     H36407   7.009   0.332   5.320  0.4801 -1.8948 -0.4008
  270MOL0     H36408   7.245   0.261   5.317  0.1881 -1.6368  0.4945
  270MOL0     H36409   7.161   0.120   5.377  0.2537  0.7146  0.8563
  270MOL0     H36410   7.469   0.192   5.390 -0.2595 -0.5072  1.3965
  270MOL0     H36411   7.681   0.338   5.421  1.7619 -0.5777  2.8308
  270MOL0     H36412   7.935   0.537   5.809  0.6194  0.9823  0.4642
  270MOL0     H36413   8.156   0.551   5.872  0.0910 -0.6921  0.4563
  270MOL0     H36414   8.385   0.586   5.886  1.9493  1.1382  0.1325
  270MOL0     H36415   8.375   0.415   5.917 -2.5936  1.1775 -0.8245
  270MOL0     H36416   8.617   0.400   5.806 -0.0495  0.0139  0.1577
  270MOL0     H36417   8.599   0.574   5.778 -0.4404 -0.7154 -0.5006
  270MOL0     H36418   8.735   0.578   5.982  1.2653 -0.4743  0.9004
  270MOL0     H36419   8.557   0.582   6.010  0.1329  0.5216 -2.5197
  270MOL0     H36420   8.736   0.326   6.021 -1.4675 -1.8841 -2.2222
  270MOL0     H36421   8.563   0.329   6.056  0.4917 -1.7857  3.8633
  270MOL0     H36422   8.625   0.350   6.264  0.1330 -2.0214 -1.9556
  270MOL0     H36423   8.651   0.523   6.232  0.4922 -0.4296  0.7771
  270MOL0     H36424   8.858   0.309   6.213 -0.6123  0.1970  0.1133
  270MOL0     H36425   8.887   0.476   6.171  2.5983 -0.5174  1.9557
  270MOL0     H36426   8.867   0.534   6.423  2.4554  0.1229  0.8643
  270MOL0     H36427   8.993   0.428   6.375  1.1000  3.0513  1.3234
  270MOL0     H36428   8.736   0.358   6.502  0.0675  1.7477 -0.9323
  270MOL0     H36429   8.839   0.229   6.429  0.6556  1.2004 -4.2192
  270MOL0     H36430   8.292   0.435   5.493 -0.3613  0.3321  1.3434
  270MOL0     H36431   8.027   0.445   5.410 -1.3850 -0.8860 -0.6360
  270MOL0     H36432   7.467   0.558   5.723  0.4686 -0.5949 -0.3238
  270MOL0     H36433   7.276   0.437   5.675  0.4968  3.0401  0.4478
  270MOL0     H36434   6.361   1.172   5.651  0.4536  0.0048  0.4321
  270MOL0     H36435   6.129   1.146   5.573  0.2750  1.8881  0.5266
  270MOL0     H36436   5.573   1.308   5.777  2.2409 -0.2700  0.2777
  270MOL0     H36437   5.364   1.277   5.704  1.7294  1.9952 -3.0193
  270MOL0     H36438   5.216   1.231   5.453  1.3372  0.6910 -0.2752
  270MOL0     H36439   5.155   1.206   5.607  5.3311  1.2472  1.1357
  270MOL0     H36440   4.972   1.135   5.453  1.0491  2.0681  0.7520
  270MOL0     H36441   5.046   0.990   5.536  0.3358  0.4464  0.4896
  270MOL0     H36442   5.189   0.935   5.322 -0.4428 -0.3239 -3.4702
  270MOL0     H36443   5.113   1.076   5.247  0.6757  1.2469  0.8005
  270MOL0     H36444   4.893   0.983   5.260 -0.6349 -0.3631  1.5388
  270MOL0     H36445   5.008   0.892   5.163  0.4115  1.2636  0.1641
  270MOL0     H36446   4.819   0.630   5.437  1.6286  0.0343  1.6487
  270MOL0     H36447   5.480   0.897   5.538 -1.2267  0.6074 -0.5068
  270MOL0     H36448   5.802   0.863   5.701 -0.2639  1.5749  0.1337
  270MOL0     H36449   5.682   0.800   5.592  1.8220 -0.9052 -2.2714
  270MOL0     H36450   5.813   0.919   5.538  1.3959  0.2661  0.5666
  271MOL0     O36451   0.478   4.667  10.068  0.8929  0.1876  0.1930
  271MOL0     C36452   0.595   4.650  10.099 -0.4210 -0.8653 -0.5519
  271MOL0     O36453   0.694   4.625  10.016 -0.2764 -0.0764  0.7516
  271MOL0     C36454   0.659   4.582   9.895 -0.6018 -0.1695  0.7207
  271MOL0     C36455   0.678   4.670   9.780 -1.0644  0.7991 -0.1482
  271MOL0     C36456   0.625   4.629   9.654 -0.3034 -0.5413  0.4470
  271MOL0     C36457   0.574   4.499   9.638  0.5160 -0.2399 -0.7468
  271MOL0     O36458   0.515   4.455   9.523 -0.1149 -0.6462  0.0203
  271MOL0     C36459   0.521   4.543   9.403  0.1905  0.5273  0.0008
  271MOL0     C36460   0.389   4.519   9.327  0.1060 -0.1486  0.2418
  271MOL0     C36461   0.382   4.379   9.283  0.0713  0.3786 -0.2171
  271MOL0     C36462   0.265   4.357   9.202  0.5648 -0.4738  0.4546
  271MOL0     C36463   0.258   4.218   9.131 -0.1722  0.4117 -0.2867
  271MOL0     C36464   0.390   4.194   9.042  0.8163 -0.6759 -0.1553
  271MOL0     C36465   0.397   4.083   8.937 -0.5629 -0.3066  1.0164
  271MOL0     C36466   0.402   3.940   8.990 -1.0273  0.6020  0.3674
  271MOL0     N36467   0.523   3.903   9.071 -0.7758  0.2874  0.2114
  271MOL0     C36468   0.639   3.976   9.094 -0.8536 -0.3569 -0.2256
  271MOL0     C36469   0.706   3.892   9.181  0.9732 -0.3657  1.2005
  271MOL0     C36470   0.833   3.925   9.256  0.1562 -0.3763 -1.2084
  271MOL0     C36471   0.864   3.804   9.348 -1.4347  0.8336  0.3648
  271MOL0     C36472   0.971   3.852   9.442 -0.0201 -0.7048  1.1204
  271MOL0     C36473   0.927   3.938   9.562  0.7592  0.8828  0.9623
  271MOL0     O36474   1.022   3.937   9.665  0.2876  0.7803 -0.0532
  271MOL0     C36475   1.015   4.037   9.766  0.0294 -0.5439 -0.6025
  271MOL0     C36476   1.133   4.068   9.831 -0.1665 -0.2777 -0.3152
  271MOL0     C36477   1.133   4.162   9.933  0.6616  0.2809  0.4918
  271MOL0     C36478   1.013   4.224   9.972 -0.3887  0.8052 -0.6039
  271MOL0     C36479   1.014   4.322  10.070 -0.3465  0.4346  0.2489
  271MOL0     O36480   1.133   4.324  10.146 -0.1711  0.1860 -0.0043
  271MOL0     C36481   1.146   4.418  10.248 -0.0759  0.2426 -0.6894
  271MOL0     C36482   1.194   4.377  10.376  0.6953 -0.5355  0.4884
  271MOL0     C36483   1.195   4.457  10.487  0.2394 -0.4190 -0.6712
  271MOL0     C36484   1.150   4.588  10.490  0.1306 -0.7313 -0.5446
  271MOL0     O36485   1.175   4.664  10.607 -0.0570 -0.0645  0.4739
  271MOL0     C36486   1.212   4.799  10.584 -0.4713  0.8393  0.1197
  271MOL0     C36487   1.234   4.857  10.727  0.1669 -0.1556 -0.5942
  271MOL0     C36488   1.348   4.960  10.735  0.4562  0.8099 -0.5551
  271MOL0     C36489   1.359   5.003  10.880  0.1991 -0.6714  0.4334
  271MOL0     C36490   1.460   5.117  10.903  1.2083 -0.9339  0.5122
  271MOL0     C36491   1.606   5.095  10.867 -0.2873  0.7103 -0.1433
  271MOL0     C36492   1.699   5.197  10.928  0.7609  0.1763  0.9549
  271MOL0     C36493   1.714   5.198  11.078 -0.5637  0.3199  0.0412
  271MOL0    Cl36494   1.799   5.051  11.160 -0.3813  0.1435  0.1848
  271MOL0     C36495   1.091   4.635  10.366  0.8099 -0.0146  0.5284
  271MOL0     C36496   1.091   4.547  10.251 -0.2053  0.6400 -0.2360
  271MOL0     O36497   0.915   4.389  10.102  0.5816  0.6955 -0.5518
  271MOL0     C36498   0.890   4.183   9.920 -0.4451 -1.0556  0.5494
  271MOL0     C36499   0.895   4.094   9.809  0.1353 -0.5652  0.8230
  271MOL0     N36500   0.631   3.780   9.191 -0.3347 -0.3793 -0.4661
  271MOL0     N36501   0.524   3.785   9.126 -0.7005  0.4433  0.4526
  271MOL0     C36502   0.580   4.405   9.745  0.6594 -0.6595 -0.5383
  271MOL0     C36503   0.611   4.446   9.873  0.5742  0.2534  0.5517
  271MOL0     C36504   0.626   4.649  10.243 -0.3137  0.9092 -0.2500
  271MOL0     C36505   0.722   4.559  10.295 -1.2728 -0.7755 -1.3289
  271MOL0     C36506   0.755   4.553  10.430 -0.1197 -0.2915 -0.0025
  271MOL0     C36507   0.681   4.633  10.523 -0.2114 -0.3933  0.0537
  271MOL0     O36508   0.714   4.627  10.662 -0.2424 -0.4699  0.4633
  271MOL0     C36509   0.802   4.733  10.700 -1.1308 -0.9111  0.9456
  271MOL0     C36510   0.877   4.698  10.824  0.5314 -0.4125  0.1506
  271MOL0     C36511   0.969   4.580  10.797 -0.1367  0.2098 -0.7563
  271MOL0     C36512   0.923   4.459  10.875  0.5663 -0.2196 -0.5700
  271MOL0     C36513   1.021   4.352  10.858  0.7478 -0.0960 -0.3437
  271MOL0     C36514   1.104   4.276  10.821 -0.2479 -0.2642  0.7785
  271MOL0     C36515   0.584   4.721  10.472  0.4313 -0.2204  0.6340
  271MOL0     C36516   0.551   4.727  10.336  0.7736 -0.6770 -0.2728
  271MOL0     C36517   0.460   4.843  10.306  0.0762  0.2161  0.2225
  271MOL0     H36518   0.723   4.769   9.791 -0.6166  0.4910  0.8783
  271MOL0     H36519   0.592   4.706   9.585 -2.2395 -2.5029 -0.9621
  271MOL0     H36520   0.529   4.651   9.416  3.2603  0.1159  3.5915
  271MOL0     H36521   0.604   4.519   9.336  0.6698 -1.7667  1.2847
  271MOL0     H36522   0.384   4.576   9.234 -0.4711 -3.7023 -2.1121
  271MOL0     H36523   0.308   4.551   9.393  0.5449  3.5716 -0.7923
  271MOL0     H36524   0.377   4.316   9.373 -2.2430 -2.8140 -2.3720
  271MOL0     H36525   0.478   4.342   9.247  1.5015  0.3996  3.1757
  271MOL0     H36526   0.175   4.374   9.262 -0.4188  0.8331 -1.3088
  271MOL0     H36527   0.258   4.432   9.122  0.8831 -1.4042 -0.4761
  271MOL0     H36528   0.239   4.138   9.202 -2.1187  2.1015  1.2108
  271MOL0     H36529   0.176   4.211   9.058 -1.1984 -2.3474  1.0079
  271MOL0     H36530   0.398   4.283   8.980 -2.0149  0.8788  1.4846
  271MOL0     H36531   0.475   4.190   9.110  1.0683  0.2378 -0.3995
  271MOL0     H36532   0.488   4.103   8.880 -0.0767  0.2377  1.9589
  271MOL0     H36533   0.311   4.092   8.871 -1.1480  3.1371  2.0532
  271MOL0     H36534   0.310   3.908   9.040  0.3692 -3.4680  0.6736
  271MOL0     H36535   0.409   3.870   8.906  1.9564  1.4462 -0.2047
  271MOL0     H36536   0.658   4.076   9.058 -1.9231 -0.6480 -1.6861
  271MOL0     H36537   0.919   3.947   9.192 -0.5706  1.6361 -1.5962
  271MOL0     H36538   0.835   4.025   9.302  3.8378  1.6666 -5.0750
  271MOL0     H36539   0.769   3.778   9.396 -2.0392 -0.1571 -1.3064
  271MOL0     H36540   0.893   3.726   9.278 -0.3793  0.5889  1.0458
  271MOL0     H36541   1.041   3.915   9.387  0.2545  0.4802  2.7631
  271MOL0     H36542   1.018   3.759   9.478  1.0330 -1.2534 -1.4852
  271MOL0     H36543   0.826   3.901   9.583  0.6754 -0.6635 -1.7168
  271MOL0     H36544   0.925   4.042   9.528  2.2028  0.3019 -1.1638
  271MOL0     H36545   1.223   4.019   9.793 -0.8704 -1.4523 -0.5111
  271MOL0     H36546   1.219   4.185   9.995  0.9828 -1.9730  0.9880
  271MOL0     H36547   1.226   4.273  10.372  0.2633 -0.6408 -0.6135
  271MOL0     H36548   1.230   4.416  10.581 -1.8414  0.5806  0.6206
  271MOL0     H36549   1.311   4.783  10.541  0.6584  1.5944  2.3154
  271MOL0     H36550   1.146   4.862  10.523  1.7768  2.4071 -0.8415
  271MOL0     H36551   1.139   4.903  10.757 -0.3281  0.5700 -3.1012
  271MOL0     H36552   1.255   4.774  10.795 -0.5820  0.6208  0.6248
  271MOL0     H36553   1.440   4.904  10.719 -0.7553 -2.6519  2.9776
  271MOL0     H36554   1.341   5.052  10.674 -2.2703  0.4434 -0.9475
  271MOL0     H36555   1.389   4.917  10.940 -2.8859 -0.9086  1.8133
  271MOL0     H36556   1.263   5.048  10.906  0.3187  0.5031 -1.0251
  271MOL0     H36557   1.457   5.161  11.003  4.1878  1.3799 -0.2505
  271MOL0     H36558   1.416   5.195  10.840 -3.2515 -2.4139  1.4192
  271MOL0     H36559   1.637   5.000  10.912 -2.6278 -0.2841 -0.4532
  271MOL0     H36560   1.617   5.099  10.758  0.9663  2.9742  0.0105
  271MOL0     H36561   1.671   5.297  10.896 -1.0634  0.4920  3.2924
  271MOL0     H36562   1.789   5.172  10.871 -0.3434 -0.4860 -0.5737
  271MOL0     H36563   1.788   5.277  11.093  0.6339 -0.9687  1.2185
  271MOL0     H36564   1.633   5.220  11.148 -0.3371  0.7119  0.1877
  271MOL0     H36565   1.050   4.735  10.360 -2.5374 -1.2967  0.0695
  271MOL0     H36566   1.054   4.592  10.160  1.7693  0.4993 -1.1612
  271MOL0     H36567   0.791   4.209   9.955 -1.3019  0.7950 -2.7940
  271MOL0     H36568   0.802   4.046   9.782  1.7459 -2.6649 -1.4207
  271MOL0     H36569   0.540   4.307   9.721 -1.3116  0.5116 -2.4431
  271MOL0     H36570   0.594   4.372   9.951  2.1710 -0.1060  0.5963
  271MOL0     H36571   0.782   4.490  10.237  2.8789  1.9405 -0.7179
  271MOL0     H36572   0.828   4.479  10.461 -0.9174 -0.0243  2.8188
  271MOL0     H36573   0.755   4.830  10.717 -0.8228 -0.8733  1.6116
  271MOL0     H36574   0.876   4.754  10.624  0.2439 -1.3781  2.1111
  271MOL0     H36575   0.795   4.692  10.896 -2.0019  0.8020 -2.4252
  271MOL0     H36576   0.943   4.778  10.860 -0.4469  0.5765 -0.1916
  271MOL0     H36577   1.071   4.607  10.826  0.3575 -1.9844 -0.2601
  271MOL0     H36578   0.970   4.545  10.694 -1.8216  0.2782 -0.8234
  271MOL0     H36579   0.940   4.488  10.979 -1.8760 -0.1288 -0.1516
  271MOL0     H36580   0.817   4.440  10.858  0.5459  0.8427 -1.8086
  271MOL0     H36581   1.170   4.203  10.778 -1.0656 -0.1961 -0.6580
  271MOL0     H36582   0.534   4.788  10.542 -1.3656 -2.6322  1.8424
  271MOL0     H36583   0.501   4.910  10.230  0.7506 -2.0664 -1.5286
  271MOL0     H36584   0.369   4.813  10.253 -0.7694  2.6811  0.1327
  271MOL0     H36585   0.424   4.905  10.389 -1.5654 -0.8904  0.3922
  272MOL0     O36586   1.476  10.056   5.480 -0.4780  0.5698 -0.2653
  272MOL0     C36587   1.405  10.157   5.495  0.0531  0.3073 -0.1391
  272MOL0     O36588   1.457  10.287   5.469 -0.7724 -0.5001  0.3832
  272MOL0     C36589   1.577  10.297   5.401 -0.3444 -0.5685  0.1083
  272MOL0     C36590   1.695  10.327   5.473  0.3277 -0.0288 -0.6100
  272MOL0     C36591   1.813  10.365   5.408 -0.4130  0.6706  0.1593
  272MOL0     C36592   1.817  10.368   5.267 -0.6633  1.0456  0.5888
  272MOL0     O36593   1.930  10.390   5.199  1.2129  0.1700  0.5789
  272MOL0     C36594   1.923  10.496   5.103 -0.5543 -0.2387  0.0867
  272MOL0     C36595   2.062  10.562   5.084  1.1511  1.0125  0.0705
  272MOL0     C36596   2.052  10.697   5.026  0.6688  0.6305 -0.1497
  272MOL0     C36597   2.044  10.802   5.148 -0.0264  0.5981 -0.0751
  272MOL0     C36598   1.992  10.939   5.114 -0.3980  0.1723  0.7799
  272MOL0     C36599   1.973  11.022   5.235 -0.3117 -0.2909 -1.1737
  272MOL0     C36600   2.091  11.079   5.309 -0.0084 -0.5388  0.2033
  272MOL0     C36601   2.177  11.176   5.232  0.3567  0.3702 -0.7283
  272MOL0     N36602   2.265  11.262   5.322  0.7573  1.4839  0.2247
  272MOL0     C36603   2.237  11.381   5.388  0.0370 -0.5301 -0.2970
  272MOL0     C36604   2.358  11.431   5.432  0.1774  0.2660 -0.3521
  272MOL0     C36605   2.367  11.551   5.520 -0.1290 -1.1316  0.5305
  272MOL0     C36606   2.515  11.598   5.531  0.2067 -0.8341 -0.7418
  272MOL0     C36607   2.522  11.704   5.642  0.3748 -0.6892  0.3550
  272MOL0     C36608   2.664  11.700   5.691  0.3028 -0.4077  0.6339
  272MOL0     O36609   2.749  11.739   5.578 -0.4940 -0.1706  0.0585
  272MOL0     C36610   2.871  11.675   5.574  0.5866 -0.7600 -0.4875
  272MOL0     C36611   2.913  11.633   5.447  0.1270 -0.5615  0.1913
  272MOL0     C36612   3.018  11.545   5.437  0.1415  0.1106  0.0073
  272MOL0     C36613   3.081  11.494   5.547  0.9466 -0.5068 -0.4324
  272MOL0     C36614   3.194  11.402   5.526 -0.5474  0.6148  0.5997
  272MOL0     O36615   3.211  11.300   5.614 -0.4813  0.2957 -0.5102
  272MOL0     C36616   3.297  11.193   5.586 -0.6496 -1.1789 -0.3049
  272MOL0     C36617   3.420  11.210   5.520  0.4198  0.0103 -0.3342
  272MOL0     C36618   3.502  11.101   5.511  0.3494 -1.0026  0.7402
  272MOL0     C36619   3.485  10.976   5.566  0.6883  0.9840 -0.2253
  272MOL0     O36620   3.567  10.866   5.559  0.1014  0.4531  0.0717
  272MOL0     C36621   3.645  10.839   5.445 -0.3456 -0.9048  0.8392
  272MOL0     C36622   3.709  10.702   5.466 -0.0778 -0.3074  0.0262
  272MOL0     C36623   3.812  10.700   5.580  0.7620 -0.1012  1.0344
  272MOL0     C36624   3.885  10.563   5.592 -0.0954 -0.4983  0.4877
  272MOL0     C36625   4.011  10.567   5.682 -0.1682  0.4076  0.3661
  272MOL0     C36626   4.003  10.617   5.828  0.4048 -0.6153 -0.1192
  272MOL0     C36627   4.130  10.594   5.916 -0.5636  0.9273  0.6108
  272MOL0     C36628   4.084  10.600   6.059  0.1331  0.5034 -0.2500
  272MOL0    Cl36629   3.997  10.453   6.107  0.2514 -0.4991  0.0743
  272MOL0     C36630   3.368  10.964   5.646  0.4672  0.6339 -0.0674
  272MOL0     C36631   3.269  11.070   5.653 -0.8923  0.7275  0.5071
  272MOL0     O36632   3.256  11.415   5.423 -0.5067 -0.4576  0.2121
  272MOL0     C36633   3.043  11.539   5.676  0.3225 -0.6493  0.9488
  272MOL0     C36634   2.933  11.627   5.688 -0.2114  0.1595  0.1867
  272MOL0     N36635   2.453  11.333   5.388  0.2443  0.2364  0.1119
  272MOL0     N36636   2.402  11.249   5.305  0.0342 -0.1016 -0.4386
  272MOL0     C36637   1.699  10.337   5.199 -0.2439  0.1603  0.6243
  272MOL0     C36638   1.586  10.294   5.263  0.1529 -0.4028  0.2096
  272MOL0     C36639   1.274  10.159   5.567  0.2308  0.3587  0.7660
  272MOL0     C36640   1.261  10.234   5.686 -0.1259  0.2903 -0.2034
  272MOL0     C36641   1.132  10.231   5.748 -0.3929 -0.1774 -0.9203
  272MOL0     C36642   1.030  10.146   5.705 -0.7151  0.1946  0.0221
  272MOL0     O36643   0.907  10.123   5.771  0.2833  0.0657 -0.3742
  272MOL0     C36644   0.897  10.172   5.904  0.5116  0.3035  0.1408
  272MOL0     C36645   0.766  10.136   5.963  0.2599 -0.6595  0.1505
  272MOL0     C36646   0.647  10.208   5.901  0.8776  0.8406  0.7363
  272MOL0     C36647   0.511  10.173   5.952  0.2323  0.0562 -0.5083
  272MOL0     C36648   0.474  10.031   5.919  0.3833 -0.2517  0.4557
  272MOL0     C36649   0.451   9.917   5.919  0.7229 -0.3869  0.0889
  272MOL0     C36650   1.055  10.068   5.594 -0.2060  0.1225  1.6889
  272MOL0     C36651   1.178  10.064   5.531 -0.8222  0.5073  0.6419
  272MOL0     C36652   1.194   9.980   5.401 -0.0784 -0.3506 -0.1984
  272MOL0     H36653   1.693  10.325   5.582  0.4268  0.8963 -0.5856
  272MOL0     H36654   1.902  10.386   5.467  1.3215 -2.8289 -0.9677
  272MOL0     H36655   1.878  10.462   5.010 -1.8429  1.2491  0.1441
  272MOL0     H36656   1.852  10.571   5.139 -2.1507  1.4501 -5.6262
  272MOL0     H36657   2.134  10.505   5.025  1.9405 -0.1212  2.0313
  272MOL0     H36658   2.108  10.568   5.183 -0.3223 -0.9959  0.9673
  272MOL0     H36659   1.955  10.721   4.981  0.2408 -0.0000  0.4277
  272MOL0     H36660   2.136  10.725   4.961 -0.5471  0.4823 -1.8383
  272MOL0     H36661   1.996  10.753   5.234  1.0545  0.2683  0.3558
  272MOL0     H36662   2.146  10.812   5.187  0.2816 -0.3441 -0.6035
  272MOL0     H36663   2.060  10.980   5.039  1.9761 -2.1532  1.4931
  272MOL0     H36664   1.893  10.923   5.071 -0.3043  0.1070  0.5881
  272MOL0     H36665   1.920  11.112   5.202 -1.0274 -2.0359 -5.4614
  272MOL0     H36666   1.913  10.969   5.308 -1.6860 -1.0342 -2.7731
  272MOL0     H36667   2.162  11.016   5.363 -0.4823  0.2908  1.8629
  272MOL0     H36668   2.036  11.130   5.389  0.0250  0.1989 -0.2241
  272MOL0     H36669   2.253  11.124   5.173 -1.1680  1.9539 -4.4294
  272MOL0     H36670   2.123  11.238   5.159  1.0699  3.3263  1.0803
  272MOL0     H36671   2.139  11.426   5.403 -0.9748 -3.4580  3.1758
  272MOL0     H36672   2.296  11.624   5.481 -0.8820 -3.0226 -1.8740
  272MOL0     H36673   2.332  11.534   5.622  0.3975 -1.9326  0.5906
  272MOL0     H36674   2.573  11.511   5.565  2.0283  0.8888  0.8228
  272MOL0     H36675   2.553  11.615   5.430 -2.0665 -1.0522 -1.6926
  272MOL0     H36676   2.461  11.676   5.728  0.5135 -4.3106 -0.5759
  272MOL0     H36677   2.494  11.805   5.608  1.6700 -0.5350 -0.3127
  272MOL0     H36678   2.692  11.603   5.733  2.2637 -0.1052  0.0956
  272MOL0     H36679   2.679  11.773   5.771  1.5419  1.0164 -0.8401
  272MOL0     H36680   2.856  11.659   5.359  0.4089 -2.6272 -0.6502
  272MOL0     H36681   3.046  11.517   5.336  0.8285 -0.7365  0.4190
  272MOL0     H36682   3.446  11.306   5.476 -0.0327 -0.1846 -1.0539
  272MOL0     H36683   3.594  11.113   5.455  0.6483 -0.5584  1.3137
  272MOL0     H36684   3.585  10.838   5.354 -0.1239  0.7342  0.6345
  272MOL0     H36685   3.719  10.920   5.436  1.1198 -2.0024  2.3873
  272MOL0     H36686   3.631  10.626   5.480 -0.9827  0.3089 -1.4217
  272MOL0     H36687   3.747  10.669   5.369  2.9205 -1.8349  1.5724
  272MOL0     H36688   3.877  10.786   5.562 -0.0178  0.9829  3.0169
  272MOL0     H36689   3.761  10.717   5.676 -0.0638  1.7487  0.3103
  272MOL0     H36690   3.914  10.543   5.489 -3.4757 -1.6367 -0.3721
  272MOL0     H36691   3.814  10.485   5.624 -0.2903 -1.0532 -1.2200
  272MOL0     H36692   4.098  10.603   5.626  0.8593 -3.2185 -0.5995
  272MOL0     H36693   4.028  10.460   5.690  2.1740  0.7500  0.9328
  272MOL0     H36694   3.981  10.723   5.839 -0.3401 -1.0462  4.1789
  272MOL0     H36695   3.917  10.564   5.869  1.0021 -0.9180  0.7610
  272MOL0     H36696   4.214  10.660   5.893  2.3913 -3.7997 -5.0444
  272MOL0     H36697   4.169  10.495   5.890  1.0055  1.3719  1.1848
  272MOL0     H36698   4.166  10.606   6.131 -0.0790  2.1619 -0.1135
  272MOL0     H36699   4.021  10.686   6.084 -1.1617 -0.4124 -0.2448
  272MOL0     H36700   3.362  10.873   5.705  0.2423  1.0704  0.5912
  272MOL0     H36701   3.177  11.049   5.708 -0.6381 -1.7288  0.1166
  272MOL0     H36702   3.100  11.508   5.763  4.3199 -1.7993 -1.7973
  272MOL0     H36703   2.907  11.674   5.782  1.5399 -1.4390  1.5415
  272MOL0     H36704   1.706  10.342   5.091 -1.7593 -3.9931  0.1839
  272MOL0     H36705   1.497  10.288   5.201  0.2646  2.1724 -0.3218
  272MOL0     H36706   1.345  10.295   5.716 -1.1547  1.3219  0.6934
  272MOL0     H36707   1.112  10.282   5.842 -0.2209 -0.7267 -0.5726
  272MOL0     H36708   0.895  10.281   5.904 -1.4919  0.4078 -3.3051
  272MOL0     H36709   0.983  10.136   5.961  0.1601 -2.9396 -1.1322
  272MOL0     H36710   0.758  10.157   6.070  1.2677 -1.9558  0.4998
  272MOL0     H36711   0.754  10.028   5.952  1.9224 -1.0033  1.3389
  272MOL0     H36712   0.637  10.200   5.792 -0.8110  1.0961  0.8339
  272MOL0     H36713   0.660  10.317   5.909 -0.8825  1.2954 -1.3909
  272MOL0     H36714   0.508  10.191   6.060  2.0588  2.1145 -0.7400
  272MOL0     H36715   0.434  10.243   5.919 -3.6540 -2.6114  1.9896
  272MOL0     H36716   0.442   9.814   5.893  2.1986 -0.6475  0.5793
  272MOL0     H36717   0.974  10.012   5.549 -1.7465  3.5036 -0.1287
  272MOL0     H36718   1.229  10.032   5.311  1.3052 -0.7784  0.0838
  272MOL0     H36719   1.267   9.900   5.411  1.7604  1.0351 -1.7381
  272MOL0     H36720   1.092   9.954   5.370 -1.1401  3.0145  0.0506
  273MOL0     O36721  10.301  10.894   0.135 -0.2663 -0.1712  0.1591
  273MOL0     C36722  10.347  10.784   0.179  0.1367 -0.7317  0.3078
  273MOL0     O36723  10.270  10.679   0.224 -0.5499  0.0207 -0.5289
  273MOL0     C36724  10.144  10.676   0.186  0.5517  0.6013  0.3421
  273MOL0     C36725  10.039  10.665   0.279 -0.5834 -0.2781 -0.6412
  273MOL0     C36726   9.905  10.649   0.236  0.2439 -0.2659 -1.0376
  273MOL0     C36727   9.875  10.640   0.102 -0.8442 -0.3461 -0.3324
  273MOL0     O36728   9.751  10.613   0.047 -1.0038 -0.1155 -0.5203
  273MOL0     C36729   9.636  10.612   0.138 -0.4633  0.1765  0.3731
  273MOL0     C36730   9.511  10.569   0.067  0.1910 -0.3371 -0.4370
  273MOL0     C36731   9.531  10.434  -0.009 -0.0440 -0.1069 -0.9222
  273MOL0     C36732   9.400  10.388  -0.080 -1.2460  0.2541  0.5830
  273MOL0     C36733   9.319  10.294   0.015 -0.3026 -0.7046 -0.2534
  273MOL0     C36734   9.197  10.238  -0.059  1.1171  0.7765  0.8069
  273MOL0     C36735   9.123  10.120  -0.003  0.2360 -0.0535  0.1955
  273MOL0     C36736   9.000  10.079  -0.091 -0.4026  0.1076 -0.1293
  273MOL0     N36737   8.925   9.964  -0.036 -0.1778  0.4901  0.2640
  273MOL0     C36738   8.886   9.944   0.095 -0.3586 -0.0784 -1.0526
  273MOL0     C36739   8.820   9.830   0.109  0.7257  0.4602  1.0523
  273MOL0     C36740   8.782   9.748   0.228 -0.3472  0.2231  0.4857
  273MOL0     C36741   8.773   9.828   0.361  0.1035  0.1823  0.0143
  273MOL0     C36742   8.668   9.940   0.361 -0.1950 -1.2554  0.6130
  273MOL0     C36743   8.583   9.945   0.486  0.2786  0.5141  0.3446
  273MOL0     O36744   8.489  10.053   0.471  0.1285  0.2456  0.3350
  273MOL0     C36745   8.367  10.032   0.406 -1.1291  0.8643  0.0048
  273MOL0     C36746   8.344   9.913   0.325  0.2340 -0.3544  0.7365
  273MOL0     C36747   8.220   9.900   0.266  0.0768  1.0757  0.0516
  273MOL0     C36748   8.115   9.989   0.284  0.2993 -0.6050  0.0043
  273MOL0     C36749   7.984   9.960   0.219 -0.3424 -0.6534  0.3759
  273MOL0     O36750   7.987   9.855   0.132 -0.1836 -0.6139  0.1032
  273MOL0     C36751   7.880   9.819   0.061  0.3819 -0.1199  0.3919
  273MOL0     C36752   7.875   9.683   0.036  0.4439 -0.3337 -0.3713
  273MOL0     C36753   7.766   9.627  -0.038  0.2874 -0.4098  0.6063
  273MOL0     C36754   7.666   9.709  -0.093 -0.2716 -0.3117 -0.3454
  273MOL0     O36755   7.571   9.651  -0.179  0.0295 -0.4721 -0.4607
  273MOL0     C36756   7.471   9.564  -0.133  0.5480 -0.5917 -0.6721
  273MOL0     C36757   7.445   9.462  -0.244  0.8041  0.7290 -0.0104
  273MOL0     C36758   7.539   9.349  -0.227 -0.7771 -0.2148 -0.4162
  273MOL0     C36759   7.510   9.236  -0.328  0.0558 -1.0336  0.5974
  273MOL0     C36760   7.618   9.126  -0.349 -0.3119 -0.1749  0.9934
  273MOL0     C36761   7.567   9.024  -0.455 -0.3202  0.5627 -0.0004
  273MOL0     C36762   7.662   8.905  -0.474 -0.3564 -0.0237 -0.7773
  273MOL0     C36763   7.769   8.929  -0.581  0.7718  1.1905  0.2235
  273MOL0    Cl36764   7.887   8.790  -0.619 -0.2471  0.0435 -0.2542
  273MOL0     C36765   7.675   9.851  -0.071  0.5810 -0.3897 -0.3419
  273MOL0     C36766   7.778   9.901   0.012 -0.1346  0.7936 -0.1661
  273MOL0     O36767   7.884  10.026   0.258  0.0214 -0.0233  0.4399
  273MOL0     C36768   8.142  10.100   0.371  0.1948  1.3151 -0.4600
  273MOL0     C36769   8.267  10.117   0.432  0.1893  0.9275  0.1507
  273MOL0     N36770   8.812   9.774  -0.017  0.3061  0.1701 -0.5935
  273MOL0     N36771   8.862   9.853  -0.103 -0.6310 -1.3666  0.7604
  273MOL0     C36772   9.977  10.651   0.009 -0.0110 -1.2182  0.2070
  273MOL0     C36773  10.113  10.671   0.048  0.7605  0.9392  0.2572
  273MOL0     C36774  10.496  10.771   0.185  0.0073  0.4632 -0.5893
  273MOL0     C36775  10.562  10.838   0.086  0.4197  0.5649 -0.2955
  273MOL0     C36776  10.701  10.817   0.083 -0.0075 -0.6069 -0.0294
  273MOL0     C36777  10.770  10.734   0.164  0.7698 -0.2805  0.9655
  273MOL0     O36778  10.907  10.721   0.150 -0.1880 -0.0540 -0.1966
  273MOL0     C36779  10.982  10.840   0.129 -0.7541  0.2834 -0.4937
  273MOL0     C36780  11.027  10.849  -0.021 -0.3085  0.2091 -0.4260
  273MOL0     C36781  11.140  10.950  -0.035 -0.1714 -0.6208 -0.0763
  273MOL0     C36782  11.126  11.072   0.053 -0.0736  0.4779  0.7239
  273MOL0     C36783  11.214  11.184   0.032 -0.1531  0.0972 -0.7147
  273MOL0     C36784  11.286  11.282   0.024  0.0845 -0.0092  1.1008
  273MOL0     C36785  10.698  10.669   0.265  0.2705  0.1853 -0.6008
  273MOL0     C36786  10.562  10.689   0.282 -0.3031 -0.1131 -0.4292
  273MOL0     C36787  10.482  10.606   0.379  0.3822  0.2655 -0.1018
  273MOL0     H36788  10.060  10.673   0.385  1.1711  2.7110 -1.1017
  273MOL0     H36789   9.840  10.635   0.322 -0.0679 -3.1873 -1.6579
  273MOL0     H36790   9.649  10.532   0.212  1.0548  0.4371  0.4046
  273MOL0     H36791   9.626  10.701   0.201 -2.1369  1.0023 -0.9561
  273MOL0     H36792   9.479  10.651   0.002  0.1959 -0.7972 -1.0263
  273MOL0     H36793   9.425  10.564   0.134 -0.7509 -1.3897 -1.6781
  273MOL0     H36794   9.576  10.358   0.057  1.2571  2.7910  1.7832
  273MOL0     H36795   9.605  10.438  -0.090  2.3340 -2.8578  0.8707
  273MOL0     H36796   9.347  10.477  -0.116 -0.6569 -0.1159 -1.2979
  273MOL0     H36797   9.435  10.326  -0.162 -2.5692  0.0397  0.1558
  273MOL0     H36798   9.383  10.212   0.047  1.1955 -0.4380 -2.3336
  273MOL0     H36799   9.287  10.342   0.107 -1.5157 -1.2731 -0.3596
  273MOL0     H36800   9.131  10.323  -0.074  1.0608  0.1799 -3.7153
  273MOL0     H36801   9.227  10.209  -0.160  0.8190  0.2944  0.8532
  273MOL0     H36802   9.086  10.151   0.096  0.7483  0.8663  0.1086
  273MOL0     H36803   9.183  10.032   0.020 -0.7007 -0.2807  2.0168
  273MOL0     H36804   8.929  10.159  -0.117 -0.2943  0.0520 -0.6148
  273MOL0     H36805   9.035  10.035  -0.185 -2.1592 -0.7761 -0.4036
  273MOL0     H36806   8.911  10.003   0.182  1.3715 -3.2591  0.8116
  273MOL0     H36807   8.687   9.695   0.219 -1.3847  1.5016  2.9085
  273MOL0     H36808   8.864   9.676   0.240  0.1846  0.8223  0.5082
  273MOL0     H36809   8.747   9.756   0.438  0.8199 -2.3413 -1.9645
  273MOL0     H36810   8.874   9.867   0.380  0.1603  0.2917 -0.4833
  273MOL0     H36811   8.609   9.936   0.269  0.9349  2.3453 -0.4228
  273MOL0     H36812   8.731  10.029   0.359  1.1420 -2.0079  3.6924
  273MOL0     H36813   8.648   9.968   0.571  4.5854  1.8128 -2.9136
  273MOL0     H36814   8.548   9.844   0.510  2.3208 -0.1063  0.9078
  273MOL0     H36815   8.424   9.846   0.294  1.1431  1.4290 -1.0094
  273MOL0     H36816   8.219   9.817   0.195  3.7452 -1.2135  2.3177
  273MOL0     H36817   7.952   9.613   0.066  0.4186 -0.3783 -0.4117
  273MOL0     H36818   7.772   9.520  -0.060 -1.7558 -0.6769  1.1234
  273MOL0     H36819   7.483   9.536  -0.028  1.2233  0.5043 -0.4439
  273MOL0     H36820   7.382   9.626  -0.119  0.7968 -0.8308  2.6962
  273MOL0     H36821   7.345   9.420  -0.228  2.2437 -3.3135 -0.5134
  273MOL0     H36822   7.452   9.512  -0.341 -1.0225 -0.9337 -1.0768
  273MOL0     H36823   7.647   9.367  -0.224 -0.3125 -2.8237  1.2437
  273MOL0     H36824   7.511   9.313  -0.128  1.5410  0.3146  0.4965
  273MOL0     H36825   7.521   9.288  -0.423 -1.8282  0.7693  1.2930
  273MOL0     H36826   7.408   9.202  -0.309 -0.0008 -0.6490  0.9880
  273MOL0     H36827   7.648   9.076  -0.257  0.7395 -0.0158  0.7545
  273MOL0     H36828   7.709   9.174  -0.386  0.9978 -1.9578  1.7694
  273MOL0     H36829   7.469   8.988  -0.420  2.4442 -3.3680  5.1825
  273MOL0     H36830   7.556   9.067  -0.555  2.3537  1.7067  0.1200
  273MOL0     H36831   7.601   8.816  -0.495  0.3001 -0.5025 -0.6884
  273MOL0     H36832   7.713   8.890  -0.378  0.3258 -2.1689 -1.4102
  273MOL0     H36833   7.715   8.937  -0.676  0.7309  1.2522  0.2520
  273MOL0     H36834   7.824   9.021  -0.562  2.1487  0.3174  0.5712
  273MOL0     H36835   7.610   9.920  -0.124 -0.2480  0.2085  1.3952
  273MOL0     H36836   7.795  10.004   0.043  0.6374  0.9579 -1.0928
  273MOL0     H36837   8.068  10.179   0.367 -0.3327  0.8143 -0.8279
  273MOL0     H36838   8.283  10.206   0.492  1.6381  0.4703  0.4794
  273MOL0     H36839   9.966  10.637  -0.098 -0.0848  2.3459 -0.3767
  273MOL0     H36840  10.192  10.665  -0.026 -0.4350  2.5273 -1.2221
  273MOL0     H36841  10.520  10.899   0.007 -1.3113  1.0129  0.8985
  273MOL0     H36842  10.754  10.868   0.003  1.0900 -0.1791  0.9436
  273MOL0     H36843  11.072  10.833   0.190 -0.7934  1.8813 -0.2191
  273MOL0     H36844  10.925  10.927   0.161 -2.4526 -0.4239 -1.4665
  273MOL0     H36845  10.946  10.885  -0.084  0.0446  1.6970 -0.0660
  273MOL0     H36846  11.057  10.751  -0.059 -0.7372 -0.1318  0.1022
  273MOL0     H36847  11.143  10.964  -0.144  2.0036 -0.4250 -0.0400
  273MOL0     H36848  11.236  10.911  -0.001  0.5704  2.0486  1.1718
  273MOL0     H36849  11.022  11.099   0.034 -0.0721 -1.0434 -1.9058
  273MOL0     H36850  11.129  11.056   0.162 -4.1356  0.5190  0.9788
  273MOL0     H36851  11.356  11.361   0.037 -0.9110  1.0585  0.1977
  273MOL0     H36852  10.763  10.609   0.327  0.0835  1.6056  1.0592
  273MOL0     H36853  10.447  10.511   0.337  1.7581 -0.0035 -0.6804
  273MOL0     H36854  10.549  10.572   0.457  0.5574 -0.9490 -0.7585
  273MOL0     H36855  10.400  10.666   0.420  1.6539  1.5891  0.5847
  274MOL0     O36856   0.887   7.386   4.436 -0.0240 -0.0919  0.5768
  274MOL0     C36857   0.898   7.272   4.490 -0.7887 -0.7912  0.4003
  274MOL0     O36858   0.972   7.173   4.426 -0.0044  0.2326  0.5097
  274MOL0     C36859   1.050   7.216   4.320 -0.0881 -0.2157  0.0868
  274MOL0     C36860   1.188   7.196   4.319  0.6867 -0.5427  0.0320
  274MOL0     C36861   1.274   7.229   4.214 -0.3282  1.4806 -0.2581
  274MOL0     C36862   1.217   7.280   4.099 -0.8701 -0.1671 -0.2148
  274MOL0     O36863   1.288   7.305   3.990 -0.4071  0.6269  0.1283
  274MOL0     C36864   1.392   7.214   3.965  0.2080 -0.3062  0.0245
  274MOL0     C36865   1.461   7.250   3.836 -1.1731  0.2517  0.5054
  274MOL0     C36866   1.563   7.358   3.853  0.3711 -0.5390  0.8539
  274MOL0     C36867   1.610   7.407   3.707  0.1807  0.0761  0.1952
  274MOL0     C36868   1.735   7.487   3.717 -0.8176  0.7392 -0.4534
  274MOL0     C36869   1.731   7.635   3.759  0.0657  0.1299  0.7408
  274MOL0     C36870   1.869   7.688   3.789 -0.5476 -0.0938  0.4256
  274MOL0     C36871   1.889   7.828   3.829 -0.7437 -0.4528  0.0481
  274MOL0     N36872   1.815   7.935   3.755  0.3101 -0.0346 -0.3022
  274MOL0     C36873   1.865   7.999   3.651  0.1479  0.0715 -0.5916
  274MOL0     C36874   1.764   8.057   3.589 -0.2090  0.2490  1.1474
  274MOL0     C36875   1.771   8.125   3.453  0.7263 -0.1339 -0.0437
  274MOL0     C36876   1.661   8.069   3.367  0.2767 -0.1946  0.7552
  274MOL0     C36877   1.521   8.118   3.383  0.8423 -0.5374 -0.2954
  274MOL0     C36878   1.429   8.104   3.253 -0.6987 -0.4520  0.2729
  274MOL0     O36879   1.282   8.131   3.271  0.1467  0.4203  0.3479
  274MOL0     C36880   1.201   8.069   3.182 -1.0096 -0.7289 -0.7584
  274MOL0     C36881   1.202   7.932   3.160  0.1792 -0.5302  0.6265
  274MOL0     C36882   1.140   7.884   3.040 -0.5251 -0.4358 -0.1811
  274MOL0     C36883   1.063   7.958   2.956  0.3901 -1.2633 -1.2007
  274MOL0     C36884   0.985   7.903   2.847 -1.3250  0.3406  0.4047
  274MOL0     O36885   0.929   7.992   2.770  0.2508  0.3775 -0.6542
  274MOL0     C36886   0.866   7.960   2.658  0.4412 -0.0766  0.8462
  274MOL0     C36887   0.928   7.930   2.532  0.5521  0.0243  0.5643
  274MOL0     C36888   0.845   7.892   2.432  0.9982 -1.1449 -0.1319
  274MOL0     C36889   0.711   7.910   2.424 -0.3726 -0.6687  0.0877
  274MOL0     O36890   0.623   7.895   2.318 -0.2440  0.0071  0.0129
  274MOL0     C36891   0.636   7.999   2.213 -0.1084  0.8169 -0.2293
  274MOL0     C36892   0.588   8.131   2.275  0.4420 -0.6356  0.7666
  274MOL0     C36893   0.596   8.253   2.178  0.1700  0.4039  0.5669
  274MOL0     C36894   0.518   8.373   2.231 -0.7434  0.8108 -0.1975
  274MOL0     C36895   0.536   8.496   2.154 -0.2305 -0.4476 -0.8761
  274MOL0     C36896   0.653   8.577   2.214 -0.0117  0.0815 -0.4386
  274MOL0     C36897   0.673   8.708   2.134 -0.3791  0.4906  0.5529
  274MOL0     C36898   0.780   8.797   2.193 -0.7996  0.6229  0.3288
  274MOL0    Cl36899   0.733   8.858   2.347 -0.0407 -0.2530 -0.1944
  274MOL0     C36900   0.648   7.950   2.543 -0.6565  0.1828  0.0511
  274MOL0     C36901   0.727   7.976   2.661 -0.2046  0.6058 -0.3027
  274MOL0     O36902   1.002   7.789   2.826  0.2059 -0.1485 -0.1582
  274MOL0     C36903   1.054   8.096   2.988  0.8291  0.6395  0.0173
  274MOL0     C36904   1.118   8.149   3.097  0.1515 -1.0477 -0.1070
  274MOL0     N36905   1.657   8.045   3.668  0.0678  0.2794  0.8121
  274MOL0     N36906   1.688   7.969   3.766 -1.4978  0.4881 -0.4008
  274MOL0     C36907   1.075   7.308   4.100 -0.8246 -0.2469  0.7640
  274MOL0     C36908   0.995   7.271   4.201  0.4623  0.0488 -0.2853
  274MOL0     C36909   0.849   7.249   4.628  0.1568 -0.3949  0.3961
  274MOL0     C36910   0.905   7.134   4.685 -0.5508  0.0142 -0.1921
  274MOL0     C36911   0.896   7.113   4.827  0.2701  0.2290 -1.0025
  274MOL0     C36912   0.813   7.193   4.904  0.1256  0.3523  0.0921
  274MOL0     O36913   0.790   7.173   5.043 -0.0930 -0.0333  0.0859
  274MOL0     C36914   0.891   7.106   5.121 -0.7726 -0.8191  1.4104
  274MOL0     C36915   0.850   7.083   5.269  0.2379  0.9500 -0.4616
  274MOL0     C36916   0.827   7.214   5.348 -0.5716 -0.3016 -0.6938
  274MOL0     C36917   0.741   7.200   5.469 -0.1875  0.2903  0.1937
  274MOL0     C36918   0.806   7.114   5.570 -0.3250  0.9776 -1.0504
  274MOL0     C36919   0.846   7.028   5.650  0.0418  0.4680  0.0437
  274MOL0     C36920   0.744   7.298   4.844  0.2982 -0.7707 -0.7164
  274MOL0     C36921   0.754   7.324   4.703 -0.0196 -0.7872 -0.3675
  274MOL0     C36922   0.676   7.443   4.643  0.2400 -0.3563  0.0469
  274MOL0     H36923   1.235   7.139   4.399  0.7286 -2.5879 -1.3676
  274MOL0     H36924   1.380   7.210   4.228 -0.0797 -0.2923 -3.4195
  274MOL0     H36925   1.465   7.215   4.047 -1.3151  1.8440  1.4692
  274MOL0     H36926   1.347   7.116   3.951  1.9968 -0.9129 -2.1710
  274MOL0     H36927   1.384   7.289   3.769 -1.2298 -1.3789 -0.4293
  274MOL0     H36928   1.524   7.173   3.791  1.0623  1.3237  1.6265
  274MOL0     H36929   1.652   7.330   3.910 -0.0647 -0.5658  1.5345
  274MOL0     H36930   1.528   7.444   3.912  1.5999 -1.6718  3.3497
  274MOL0     H36931   1.635   7.321   3.644  0.5802  1.6813 -1.9383
  274MOL0     H36932   1.532   7.467   3.661  0.8413 -0.2884 -1.4514
  274MOL0     H36933   1.800   7.433   3.787 -1.5987  2.4100  1.6741
  274MOL0     H36934   1.782   7.494   3.619  1.9059  5.1794  0.8877
  274MOL0     H36935   1.694   7.704   3.683  2.0602 -1.2483 -1.6772
  274MOL0     H36936   1.671   7.653   3.848  1.4840  2.3919  1.3266
  274MOL0     H36937   1.929   7.669   3.700 -0.2751 -0.1915  0.6313
  274MOL0     H36938   1.905   7.631   3.876 -0.6486 -0.0462  0.4989
  274MOL0     H36939   1.859   7.827   3.934 -3.9299  2.1653 -0.6759
  274MOL0     H36940   1.995   7.842   3.809 -0.9082 -0.0082 -0.5291
  274MOL0     H36941   1.968   7.995   3.619  0.9248 -1.1762  1.8029
  274MOL0     H36942   1.748   8.232   3.459 -0.3124 -0.1866 -1.9474
  274MOL0     H36943   1.861   8.092   3.401 -0.7526 -3.7704 -0.5584
  274MOL0     H36944   1.701   8.075   3.265  2.0792  1.2583  1.5126
  274MOL0     H36945   1.658   7.960   3.380 -1.3300 -0.8137 -3.3515
  274MOL0     H36946   1.511   8.221   3.419  0.7915 -0.4039 -0.6864
  274MOL0     H36947   1.465   8.061   3.458 -0.1877  2.5443  1.4550
  274MOL0     H36948   1.447   8.014   3.195 -0.6780  1.3046 -2.6551
  274MOL0     H36949   1.461   8.184   3.186  1.1832 -3.0895 -2.1703
  274MOL0     H36950   1.276   7.867   3.206  1.8152 -1.8043 -3.3276
  274MOL0     H36951   1.153   7.777   3.028 -0.4847 -0.8362  2.6255
  274MOL0     H36952   1.033   7.910   2.514  1.1010  3.6719 -1.3404
  274MOL0     H36953   0.893   7.847   2.346  0.2485 -3.5078  0.5983
  274MOL0     H36954   0.740   8.010   2.179  0.0371 -2.9364 -1.4118
  274MOL0     H36955   0.577   7.977   2.124 -0.7090 -0.4673  0.4714
  274MOL0     H36956   0.489   8.126   2.322  0.1791 -0.0807  0.2918
  274MOL0     H36957   0.648   8.155   2.363 -1.5514  1.4641  1.6763
  274MOL0     H36958   0.701   8.281   2.164  0.3456  0.1305  1.2827
  274MOL0     H36959   0.558   8.221   2.081  2.9383 -0.7733 -0.2330
  274MOL0     H36960   0.540   8.393   2.337 -0.9562 -0.3257  0.0772
  274MOL0     H36961   0.412   8.345   2.230  0.0276 -2.4528 -0.8272
  274MOL0     H36962   0.442   8.550   2.142  0.3545  0.4277 -1.6050
  274MOL0     H36963   0.553   8.470   2.049  1.0249  2.8291 -1.5960
  274MOL0     H36964   0.636   8.601   2.320  4.2959 -0.9411  0.6791
  274MOL0     H36965   0.741   8.512   2.218 -2.2133 -3.1503  2.8213
  274MOL0     H36966   0.582   8.767   2.120 -0.2502  0.7977  0.9860
  274MOL0     H36967   0.706   8.680   2.034  0.6366 -1.2438  1.3168
  274MOL0     H36968   0.865   8.730   2.200 -1.2692  0.0040  0.1854
  274MOL0     H36969   0.795   8.881   2.124  5.1694  0.2045  0.6165
  274MOL0     H36970   0.539   7.952   2.535 -0.7561 -1.4455  0.5475
  274MOL0     H36971   0.705   7.992   2.766  3.7364 -1.4500  1.0510
  274MOL0     H36972   0.997   8.162   2.922  3.9607  2.1943 -1.3297
  274MOL0     H36973   1.101   8.255   3.110 -0.9873 -1.3537  1.0124
  274MOL0     H36974   1.054   7.349   4.002  1.1708  0.4755  0.5881
  274MOL0     H36975   0.892   7.295   4.175  0.1581  0.0268  0.8469
  274MOL0     H36976   0.979   7.076   4.631  2.8169  1.2041  2.8127
  274MOL0     H36977   0.939   7.023   4.867 -0.5304 -1.0145 -2.8048
  274MOL0     H36978   0.976   7.173   5.134  1.2243 -3.0890  0.7994
  274MOL0     H36979   0.919   7.010   5.077 -0.2227  0.3765 -1.0512
  274MOL0     H36980   0.930   7.014   5.300 -0.4549  0.0239 -0.6963
  274MOL0     H36981   0.761   7.019   5.274 -0.3940  1.7439 -1.2940
  274MOL0     H36982   0.790   7.292   5.281  0.5748  0.2825 -0.6763
  274MOL0     H36983   0.924   7.238   5.394 -0.4318 -3.0031  0.6138
  274MOL0     H36984   0.708   7.295   5.511  0.7464  1.5926 -1.8730
  274MOL0     H36985   0.646   7.157   5.437 -0.6423 -0.6445  2.6042
  274MOL0     H36986   0.879   6.950   5.715 -1.9976 -0.5180 -0.0283
  274MOL0     H36987   0.674   7.353   4.906  1.2311  0.3573 -0.6251
  274MOL0     H36988   0.740   7.531   4.644 -2.2526  1.7102 -3.2640
  274MOL0     H36989   0.638   7.413   4.545  0.1865 -2.7146  0.7322
  274MOL0     H36990   0.590   7.467   4.706 -0.0630  0.4082 -0.6382
  275MOL0     O36991   5.471   2.951   5.615 -0.5293  0.1420 -0.4021
  275MOL0     C36992   5.544   2.884   5.688 -0.3863  0.0192  1.2975
  275MOL0     O36993   5.527   2.748   5.704 -0.0366  0.9280  0.5074
  275MOL0     C36994   5.413   2.692   5.642  0.1927  0.1511  0.2976
  275MOL0     C36995   5.387   2.682   5.509  0.0015 -0.8376  0.7672
  275MOL0     C36996   5.276   2.607   5.464 -0.4711  0.3339 -1.0118
  275MOL0     C36997   5.184   2.542   5.543  0.1134  0.3931 -0.4078
  275MOL0     O36998   5.072   2.465   5.517 -0.1394 -0.3946  0.4105
  275MOL0     C36999   5.065   2.403   5.390 -0.2737  0.7294 -0.8560
  275MOL0     C37000   4.952   2.288   5.393  1.0441 -0.8252 -0.4088
  275MOL0     C37001   4.956   2.200   5.269 -0.0591  0.9590 -0.5353
  275MOL0     C37002   4.907   2.051   5.298  1.3177  0.3174  0.7626
  275MOL0     C37003   4.863   1.977   5.179  0.0421  0.8314 -0.2088
  275MOL0     C37004   4.984   1.931   5.092 -0.1291  0.0606  0.0116
  275MOL0     C37005   4.944   1.844   4.973  0.2021 -0.0490  0.9395
  275MOL0     C37006   4.888   1.924   4.856  0.9172 -0.2564 -0.4035
  275MOL0     N37007   4.760   1.984   4.880 -0.2636 -0.3890 -0.1268
  275MOL0     C37008   4.652   1.914   4.929  0.1221  0.1823  0.5241
  275MOL0     C37009   4.554   2.010   4.928  0.2974 -0.5795 -0.2947
  275MOL0     C37010   4.412   1.995   4.981 -0.3743 -0.3931  0.7932
  275MOL0     C37011   4.422   1.972   5.125 -0.3835 -0.6225  0.3871
  275MOL0     C37012   4.395   2.099   5.204  0.2490 -0.9692 -0.2948
  275MOL0     C37013   4.389   2.057   5.352  0.0664 -0.3571 -0.0135
  275MOL0     O37014   4.369   2.175   5.425 -1.0659  0.0163 -1.0029
  275MOL0     C37015   4.239   2.218   5.448 -0.1307 -0.0779 -0.0041
  275MOL0     C37016   4.238   2.356   5.487  0.1429 -0.1153  0.3531
  275MOL0     C37017   4.119   2.416   5.506 -0.1034 -0.0257  0.0895
  275MOL0     C37018   4.000   2.339   5.492 -0.2952 -0.4225 -0.8787
  275MOL0     C37019   3.877   2.412   5.529 -0.0567  0.0430  0.5479
  275MOL0     O37020   3.883   2.515   5.621 -0.6838  0.0006  0.2921
  275MOL0     C37021   3.768   2.565   5.673 -0.2254  0.6993 -0.0128
  275MOL0     C37022   3.764   2.610   5.809 -0.2207 -0.3394  0.1776
  275MOL0     C37023   3.649   2.674   5.855 -0.0142  0.9811  1.0074
  275MOL0     C37024   3.533   2.682   5.781  0.8705  1.0193  1.2955
  275MOL0     O37025   3.419   2.733   5.840 -0.4963  0.0989 -0.2290
  275MOL0     C37026   3.285   2.737   5.784  0.3020  0.0368 -1.3565
  275MOL0     C37027   3.184   2.811   5.877 -0.3509  0.1130 -0.5207
  275MOL0     C37028   3.197   2.821   6.038 -0.6814  0.1738  0.5926
  275MOL0     C37029   3.072   2.894   6.095 -0.1453  0.9090  1.0599
  275MOL0     C37030   3.083   2.945   6.235  0.3361  0.1172 -0.4072
  275MOL0     C37031   3.061   2.830   6.341 -0.0418 -0.0850  0.1725
  275MOL0     C37032   3.030   2.879   6.491 -0.4270  1.1368  0.7239
  275MOL0     C37033   3.156   2.931   6.557  0.5743 -0.4399  0.0608
  275MOL0    Cl37034   3.239   3.079   6.488 -0.0445 -0.1776  0.0055
  275MOL0     C37035   3.531   2.638   5.648 -0.4597  0.1820 -0.5406
  275MOL0     C37036   3.648   2.583   5.596  0.4180  0.0486 -0.3609
  275MOL0     O37037   3.772   2.353   5.484  0.2884  0.2975 -0.5158
  275MOL0     C37038   4.007   2.207   5.467  0.1501 -0.4299  0.1614
  275MOL0     C37039   4.124   2.142   5.441 -0.1468  0.7083 -0.1888
  275MOL0     N37040   4.607   2.136   4.889 -0.2420 -0.0393 -0.1655
  275MOL0     N37041   4.735   2.122   4.872 -0.0037  0.3199 -0.6072
  275MOL0     C37042   5.204   2.559   5.684 -0.3022 -0.7205 -0.8814
  275MOL0     C37043   5.324   2.624   5.732  0.3611  1.1322  1.0265
  275MOL0     C37044   5.646   2.949   5.780 -0.2576 -1.0928 -0.0980
  275MOL0     C37045   5.721   2.867   5.868 -0.1439 -0.0127 -0.3647
  275MOL0     C37046   5.794   2.920   5.980 -0.2433  0.2732  0.9191
  275MOL0     C37047   5.816   3.061   5.987  0.3186  0.3930 -0.7836
  275MOL0     O37048   5.901   3.109   6.083 -0.7386  0.0107 -0.5571
  275MOL0     C37049   5.836   3.130   6.211 -0.5707  0.0499 -0.0134
  275MOL0     C37050   5.944   3.146   6.308 -0.2159 -0.1899 -0.6001
  275MOL0     C37051   5.993   3.000   6.344  0.0511  0.1054  0.0373
  275MOL0     C37052   6.062   2.995   6.483 -0.7027 -0.0561  0.2618
  275MOL0     C37053   6.178   3.084   6.478  0.1043 -0.4185 -0.2594
  275MOL0     C37054   6.271   3.165   6.476  0.3481  0.3480  0.3768
  275MOL0     C37055   5.766   3.147   5.892 -0.5938  0.3419  0.5360
  275MOL0     C37056   5.681   3.092   5.793 -1.1076 -0.5392 -0.1153
  275MOL0     C37057   5.626   3.206   5.713  0.3679  0.5362  0.0082
  275MOL0     H37058   5.454   2.725   5.435 -0.4714 -2.6588 -0.8050
  275MOL0     H37059   5.275   2.617   5.356  2.9413  3.2177 -0.9802
  275MOL0     H37060   5.054   2.462   5.299 -1.0858 -0.4667 -1.5646
  275MOL0     H37061   5.161   2.353   5.372 -0.8985 -0.0768 -2.1583
  275MOL0     H37062   4.854   2.338   5.396  1.2189 -0.1279  5.1603
  275MOL0     H37063   4.970   2.241   5.490  0.5250  3.4459  2.0485
  275MOL0     H37064   5.053   2.199   5.219 -0.0106  1.9410 -0.4961
  275MOL0     H37065   4.885   2.245   5.199  0.1382  1.7973 -0.2175
  275MOL0     H37066   4.997   1.997   5.329  1.3652 -0.0146  0.0582
  275MOL0     H37067   4.833   2.045   5.378  0.5020  1.3698  0.1159
  275MOL0     H37068   4.811   1.892   5.224 -0.4415 -0.2853 -2.7002
  275MOL0     H37069   4.796   2.041   5.120 -0.5254 -0.1224 -0.6366
  275MOL0     H37070   5.026   2.021   5.046 -0.2170 -2.2571 -5.4334
  275MOL0     H37071   5.060   1.877   5.149  2.9195  2.3728 -1.5978
  275MOL0     H37072   4.865   1.776   5.008  0.5404 -1.3210 -0.6452
  275MOL0     H37073   5.030   1.793   4.930  0.8092  3.6587 -2.9363
  275MOL0     H37074   4.957   1.999   4.817 -0.0808 -0.0096 -1.7632
  275MOL0     H37075   4.873   1.859   4.770  2.7858 -1.4970  0.1466
  275MOL0     H37076   4.644   1.810   4.959 -0.8523  0.5525  1.5731
  275MOL0     H37077   4.364   2.092   4.959  3.5596  1.1136 -2.2910
  275MOL0     H37078   4.351   1.915   4.939 -0.0892 -1.6879  2.7640
  275MOL0     H37079   4.342   1.901   5.149 -2.1653  1.8147  2.2130
  275MOL0     H37080   4.519   1.936   5.162 -0.2541  0.7409  1.4774
  275MOL0     H37081   4.302   2.149   5.177 -1.9332 -3.3345  2.3138
  275MOL0     H37082   4.475   2.173   5.188 -1.2132  0.8144  0.2976
  275MOL0     H37083   4.489   2.022   5.381  0.5170  0.1199 -0.9393
  275MOL0     H37084   4.311   1.982   5.370 -5.2897  4.1483 -1.6179
  275MOL0     H37085   4.329   2.415   5.487 -0.5422  1.0071  1.5591
  275MOL0     H37086   4.123   2.523   5.526 -0.8847  0.3981 -1.8470
  275MOL0     H37087   3.854   2.603   5.870  0.2456 -2.7305 -0.6754
  275MOL0     H37088   3.648   2.725   5.951 -3.3882  0.0931  1.5655
  275MOL0     H37089   3.287   2.788   5.687 -0.8076  1.2084 -0.7936
  275MOL0     H37090   3.248   2.634   5.789 -1.7605  0.7711  2.6076
  275MOL0     H37091   3.176   2.915   5.843  0.1083  1.3091  2.6852
  275MOL0     H37092   3.095   2.749   5.867 -0.9754  0.6597  1.3200
  275MOL0     H37093   3.226   2.723   6.079  1.0741 -0.2330 -1.4228
  275MOL0     H37094   3.283   2.886   6.056 -1.6845  2.1430 -1.2222
  275MOL0     H37095   2.988   2.824   6.093  1.7484 -1.4837 -1.2462
  275MOL0     H37096   3.053   2.980   6.030  0.0814  0.8594  0.9283
  275MOL0     H37097   3.015   3.030   6.231  2.8646  2.2297 -2.8738
  275MOL0     H37098   3.180   2.991   6.254 -0.4950  1.2349  1.4063
  275MOL0     H37099   2.965   2.782   6.318 -2.7574  2.2573  4.9514
  275MOL0     H37100   3.144   2.761   6.325  0.5508  1.0891 -2.1451
  275MOL0     H37101   2.996   2.794   6.552 -2.7247  0.3941 -1.4039
  275MOL0     H37102   2.947   2.949   6.505  1.2021  4.1483 -3.0479
  275MOL0     H37103   3.130   2.953   6.661  2.0874  1.1102  0.1375
  275MOL0     H37104   3.223   2.845   6.568 -0.3769 -1.2149  0.0168
  275MOL0     H37105   3.441   2.648   5.588 -0.3461  2.5843 -0.4021
  275MOL0     H37106   3.642   2.553   5.492  3.8257  0.3979 -0.7600
  275MOL0     H37107   3.917   2.150   5.488 -1.0053  1.2396 -0.1007
  275MOL0     H37108   4.138   2.037   5.419  1.4145  1.0093 -0.7630
  275MOL0     H37109   5.141   2.522   5.765  0.7744  5.0230  3.1408
  275MOL0     H37110   5.328   2.631   5.841 -1.0302  1.7517  1.0566
  275MOL0     H37111   5.715   2.758   5.869  1.1797 -0.1083  1.7277
  275MOL0     H37112   5.837   2.855   6.056 -0.0383 -2.6590 -1.5135
  275MOL0     H37113   5.767   3.048   6.234 -0.1732 -0.3976 -0.3924
  275MOL0     H37114   5.779   3.223   6.205 -0.1465  0.2237 -2.0808
  275MOL0     H37115   5.913   3.202   6.397  0.3132 -0.7581 -0.0491
  275MOL0     H37116   6.020   3.213   6.267 -1.0735 -1.2091 -4.1877
  275MOL0     H37117   6.044   2.957   6.257 -0.8842 -1.8959  0.4316
  275MOL0     H37118   5.908   2.933   6.355 -0.2352  0.3694 -0.5459
  275MOL0     H37119   6.004   3.019   6.573  1.9928  2.9871  1.4046
  275MOL0     H37120   6.096   2.892   6.492 -0.9203 -0.0740  0.9626
  275MOL0     H37121   6.354   3.232   6.472 -0.3373  1.1897  0.0541
  275MOL0     H37122   5.791   3.252   5.904  2.8516 -0.4667  1.7418
  275MOL0     H37123   5.542   3.178   5.648  0.6911  0.4563 -0.3804
  275MOL0     H37124   5.586   3.288   5.773  0.7790  3.2537 -3.1332
  275MOL0     H37125   5.701   3.245   5.643 -0.0428  2.5598  0.6188
  276MOL0     O37126   6.371   7.798   0.872 -0.1535  0.5019  0.1338
  276MOL0     C37127   6.461   7.727   0.821  0.8058  0.0407  0.2285
  276MOL0     O37128   6.524   7.631   0.889 -1.0416  0.5316  0.0313
  276MOL0     C37129   6.462   7.594   1.004  0.3546  0.6753 -0.0692
  276MOL0     C37130   6.508   7.629   1.129 -0.0259 -1.0574 -0.2092
  276MOL0     C37131   6.448   7.583   1.244  0.4096  0.2986  0.5488
  276MOL0     C37132   6.332   7.503   1.246  0.1861 -0.0324  0.4827
  276MOL0     O37133   6.272   7.442   1.356  0.3781 -0.0895  0.0421
  276MOL0     C37134   6.335   7.466   1.486 -0.0568  0.1470 -0.6263
  276MOL0     C37135   6.238   7.408   1.586  0.4256  0.0197  0.2984
  276MOL0     C37136   6.236   7.252   1.598 -0.3862 -0.5847  0.5609
  276MOL0     C37137   6.094   7.201   1.619 -1.3651 -0.8441 -0.4809
  276MOL0     C37138   6.114   7.059   1.671  0.6136 -0.3867 -1.1406
  276MOL0     C37139   5.991   7.034   1.755 -0.2544  0.4857  0.3544
  276MOL0     C37140   5.990   6.892   1.811  0.4256 -0.0560  0.0565
  276MOL0     C37141   5.951   6.783   1.700 -0.5965  0.1811 -0.2073
  276MOL0     N37142   5.927   6.652   1.758 -0.1554 -0.4899  0.4063
  276MOL0     C37143   6.021   6.560   1.778 -1.6504 -0.2176  0.1595
  276MOL0     C37144   5.954   6.449   1.826  0.2097 -0.0625 -0.2597
  276MOL0     C37145   6.009   6.318   1.876  0.2881 -0.1349 -0.6021
  276MOL0     C37146   5.938   6.192   1.820 -0.0806  0.2669 -0.6002
  276MOL0     C37147   5.789   6.185   1.867 -0.3674 -0.2585 -0.0492
  276MOL0     C37148   5.718   6.069   1.790 -0.0922 -0.7902 -0.2866
  276MOL0     O37149   5.729   5.948   1.863  0.7597 -0.3266  0.1678
  276MOL0     C37150   5.740   5.834   1.788  0.8986  0.6524 -0.0103
  276MOL0     C37151   5.827   5.733   1.818 -0.8013  0.3084 -0.9168
  276MOL0     C37152   5.834   5.606   1.761  0.5097 -0.7952  1.2297
  276MOL0     C37153   5.735   5.570   1.668 -0.6859  0.2436 -0.8048
  276MOL0     C37154   5.740   5.434   1.602  0.3034  0.4200  0.3115
  276MOL0     O37155   5.829   5.347   1.650 -0.1135 -0.4153 -0.3804
  276MOL0     C37156   5.878   5.251   1.564 -0.3644  0.6480 -0.6651
  276MOL0     C37157   5.908   5.124   1.613  0.3012 -0.4778  0.1328
  276MOL0     C37158   5.947   5.021   1.523  0.4162 -0.1723 -0.1303
  276MOL0     C37159   5.960   5.049   1.387  0.1029 -1.3382  0.8391
  276MOL0     O37160   6.012   4.957   1.302 -0.0036 -0.5596 -0.0954
  276MOL0     C37161   5.920   4.846   1.282 -0.6450 -0.5585 -0.2400
  276MOL0     C37162   5.977   4.736   1.212 -0.2642  0.6753 -1.0643
  276MOL0     C37163   5.946   4.736   1.064  0.7872  0.0508  0.1128
  276MOL0     C37164   6.011   4.858   0.994  0.5417  0.5105 -0.3902
  276MOL0     C37165   6.164   4.864   1.009 -1.0553 -0.3909  0.4889
  276MOL0     C37166   6.240   4.752   0.943  0.8010  0.0477 -0.6356
  276MOL0     C37167   6.298   4.658   1.041 -1.0658 -0.0184  0.1949
  276MOL0     C37168   6.431   4.702   1.108 -0.0363  0.3821  0.4234
  276MOL0    Cl37169   6.562   4.715   0.981  0.0250 -0.0984 -0.3387
  276MOL0     C37170   5.967   5.185   1.345  0.2523  0.2442 -0.2415
  276MOL0     C37171   5.916   5.283   1.430 -0.2930 -0.3031  0.6717
  276MOL0     O37172   5.657   5.406   1.511  0.2402 -0.2870 -0.2481
  276MOL0     C37173   5.629   5.658   1.646 -0.4140  0.5718 -0.9615
  276MOL0     C37174   5.633   5.791   1.705 -0.3016 -0.0759  0.2468
  276MOL0     N37175   5.815   6.482   1.838 -0.1876 -0.5308 -0.5200
  276MOL0     N37176   5.810   6.602   1.779  0.9561  0.7554 -0.5071
  276MOL0     C37177   6.279   7.472   1.113 -0.6223 -0.7726 -0.5360
  276MOL0     C37178   6.345   7.516   0.996 -0.8028 -0.3032 -0.5561
  276MOL0     C37179   6.506   7.756   0.682  0.7753 -0.3809 -0.3046
  276MOL0     C37180   6.638   7.727   0.649  0.4477 -0.3106 -0.6742
  276MOL0     C37181   6.699   7.793   0.542  0.4997  0.0211  0.8345
  276MOL0     C37182   6.619   7.861   0.449  0.3090 -0.6347  0.0353
  276MOL0     O37183   6.679   7.920   0.339  0.1985  0.5692 -0.1044
  276MOL0     C37184   6.634   7.872   0.213  0.3179  0.4206 -1.4339
  276MOL0     C37185   6.707   7.736   0.175  0.2627  0.0043 -0.4849
  276MOL0     C37186   6.706   7.716   0.029  0.4407  0.7329 -0.3894
  276MOL0     C37187   6.748   7.573  -0.002 -0.2910 -0.9737 -0.5088
  276MOL0     C37188   6.656   7.466   0.019  0.1686 -1.0756  0.2002
  276MOL0     C37189   6.571   7.393   0.057  0.2176  0.0788  0.4245
  276MOL0     C37190   6.492   7.880   0.474  0.5302 -0.2885 -0.1915
  276MOL0     C37191   6.432   7.837   0.595  0.3825  0.5561 -0.1101
  276MOL0     C37192   6.289   7.880   0.620  0.2680  0.5411 -1.0465
  276MOL0     H37193   6.592   7.697   1.144  0.8280 -2.0959 -0.1474
  276MOL0     H37194   6.495   7.612   1.338  0.6747  1.4766  0.0664
  276MOL0     H37195   6.433   7.419   1.495 -1.2376 -2.0590  2.3515
  276MOL0     H37196   6.351   7.569   1.521 -0.8263 -0.2062  0.8505
  276MOL0     H37197   6.146   7.454   1.549  1.5230  0.9821 -1.3471
  276MOL0     H37198   6.246   7.454   1.686 -2.9232  0.7745  0.3355
  276MOL0     H37199   6.311   7.233   1.674  0.0787  1.7757  0.7432
  276MOL0     H37200   6.278   7.219   1.502  2.1109 -2.0563  2.0553
  276MOL0     H37201   6.047   7.273   1.687 -3.3472  0.5950 -3.1677
  276MOL0     H37202   6.031   7.207   1.529  0.7738  0.4273 -2.0111
  276MOL0     H37203   6.123   6.993   1.584  0.4953  1.7770 -2.9072
  276MOL0     H37204   6.202   7.045   1.735 -0.3291 -0.6229  0.1280
  276MOL0     H37205   5.991   7.108   1.836 -0.4485 -0.2060  0.9964
  276MOL0     H37206   5.904   7.039   1.689 -1.1680 -3.3192  1.0190
  276MOL0     H37207   5.912   6.879   1.887  0.8973 -1.0979  0.3847
  276MOL0     H37208   6.079   6.866   1.870 -0.9473 -1.7617  1.4902
  276MOL0     H37209   5.861   6.816   1.648 -2.0166  2.0681  3.1219
  276MOL0     H37210   6.028   6.785   1.623 -1.4816  0.0671 -1.1112
  276MOL0     H37211   6.125   6.570   1.751 -2.1559  2.0881 -1.2125
  276MOL0     H37212   6.105   6.315   1.825  1.3884 -0.7522  1.4121
  276MOL0     H37213   6.022   6.313   1.985  1.5198 -1.3111 -0.7798
  276MOL0     H37214   5.953   6.187   1.711 -0.5735 -2.5696 -0.6175
  276MOL0     H37215   5.994   6.111   1.867 -1.4153  0.1154  0.7980
  276MOL0     H37216   5.732   6.266   1.821 -4.3783 -3.7836 -1.9024
  276MOL0     H37217   5.774   6.185   1.975  0.6947  0.6943  0.1219
  276MOL0     H37218   5.747   6.066   1.685  1.6788 -2.1924  0.1966
  276MOL0     H37219   5.614   6.102   1.791 -1.2754 -4.1306  0.3856
  276MOL0     H37220   5.905   5.755   1.890  0.3741  1.5192 -2.4934
  276MOL0     H37221   5.922   5.549   1.788  2.4872  1.6283  0.2660
  276MOL0     H37222   5.882   5.108   1.717 -3.0551  0.9698 -0.3648
  276MOL0     H37223   5.957   4.920   1.562 -1.5518  0.4974  2.3029
  276MOL0     H37224   5.893   4.812   1.383 -3.4811  3.5794  0.6723
  276MOL0     H37225   5.824   4.876   1.237 -0.2143 -0.0844 -0.8622
  276MOL0     H37226   6.086   4.732   1.226  0.2968  0.6017 -4.5468
  276MOL0     H37227   5.940   4.648   1.264 -0.7972  2.0805  1.0806
  276MOL0     H37228   5.987   4.648   1.014  2.5854 -0.4836  2.3589
  276MOL0     H37229   5.838   4.742   1.047  1.1533  2.8606 -1.9181
  276MOL0     H37230   5.957   4.950   1.019  2.0051  1.7420 -1.5192
  276MOL0     H37231   5.995   4.845   0.886  1.6213  0.5381 -0.5705
  276MOL0     H37232   6.193   4.880   1.113  0.6254 -3.9161  0.6813
  276MOL0     H37233   6.214   4.946   0.957 -1.1444 -0.3695  0.4349
  276MOL0     H37234   6.167   4.694   0.885  1.1944 -1.8298  0.6654
  276MOL0     H37235   6.323   4.793   0.884  2.4950 -0.6585  1.1614
  276MOL0     H37236   6.319   4.559   0.998 -1.3511 -0.1331  0.3131
  276MOL0     H37237   6.217   4.645   1.113 -1.8609 -1.2556 -0.8774
  276MOL0     H37238   6.416   4.799   1.156 -1.0882 -0.2609  1.4494
  276MOL0     H37239   6.455   4.631   1.188  1.7969  0.7249  0.2112
  276MOL0     H37240   6.008   5.194   1.245  3.9703 -1.0902  0.9873
  276MOL0     H37241   5.913   5.388   1.403  0.3497 -0.7691 -1.3937
  276MOL0     H37242   5.547   5.628   1.582 -1.7717 -2.9765  2.1410
  276MOL0     H37243   5.556   5.866   1.690  0.0838 -0.0916 -2.1974
  276MOL0     H37244   6.185   7.419   1.108 -1.0698 -0.2537  1.5299
  276MOL0     H37245   6.295   7.483   0.906 -1.2166  1.7141 -1.1211
  276MOL0     H37246   6.701   7.673   0.719  0.1715  0.8717  0.5224
  276MOL0     H37247   6.804   7.785   0.516  0.3447 -1.6779  0.6740
  276MOL0     H37248   6.655   7.948   0.137  4.1621  1.1484  0.1353
  276MOL0     H37249   6.526   7.856   0.212 -0.1463  2.8253 -4.2639
  276MOL0     H37250   6.658   7.649   0.222 -0.1368  0.9998  1.0141
  276MOL0     H37251   6.809   7.748   0.212 -0.9010  0.4859  2.9087
  276MOL0     H37252   6.773   7.792  -0.013  0.2297  1.9784  1.3985
  276MOL0     H37253   6.611   7.730  -0.023  1.2502 -0.1062 -2.1723
  276MOL0     H37254   6.770   7.571  -0.109 -0.0871  2.9823 -0.6585
  276MOL0     H37255   6.842   7.556   0.050 -0.2826  1.2005  0.2695
  276MOL0     H37256   6.484   7.338   0.088 -1.1562  0.9557 -1.6312
  276MOL0     H37257   6.438   7.940   0.402 -0.9350 -0.7222  0.5138
  276MOL0     H37258   6.215   7.802   0.640  0.0140  1.0789  0.2024
  276MOL0     H37259   6.278   7.948   0.705  3.4704  0.7035 -0.6334
  276MOL0     H37260   6.253   7.929   0.529 -2.5179 -1.3944 -1.1051
  277MOL0     O37261   0.853   4.985  10.957 -0.3434 -0.2393  0.7916
  277MOL0     C37262   0.871   5.098  10.920  0.1709 -0.5262 -1.3020
  277MOL0     O37263   0.935   5.199  10.993  0.0231  0.2232 -0.5953
  277MOL0     C37264   0.954   5.184  11.131  0.2058  0.0080 -0.1089
  277MOL0     C37265   0.851   5.156  11.225  0.2025 -0.0990  0.6280
  277MOL0     C37266   0.888   5.150  11.361  0.2904 -0.9283 -0.0953
  277MOL0     C37267   1.018   5.167  11.406 -1.1824 -1.2425  0.3170
  277MOL0     O37268   1.068   5.190  11.533  0.5373  0.4283 -0.8830
  277MOL0     C37269   0.976   5.262  11.623  0.5482 -0.6369  0.6329
  277MOL0     C37270   1.054   5.383  11.696  0.5459 -0.3171  0.6955
  277MOL0     C37271   1.093   5.476  11.588  0.0706  0.2426  0.5293
  277MOL0     C37272   1.182   5.589  11.643 -0.4275  0.3781  0.1397
  277MOL0     C37273   1.110   5.701  11.714 -0.8259 -0.8476  0.1298
  277MOL0     C37274   1.032   5.789  11.610  0.4603 -0.3913  0.5785
  277MOL0     C37275   0.934   5.891  11.675 -0.8000 -0.4512  0.3917
  277MOL0     C37276   0.991   5.989  11.775  0.3632 -0.5583 -0.4541
  277MOL0     N37277   0.942   5.975  11.915  0.0131  0.1765  0.6669
  277MOL0     C37278   0.981   6.055  12.014 -0.0293  0.5575  0.0083
  277MOL0     C37279   0.922   5.985  12.122 -1.3046  0.7801  0.3545
  277MOL0     C37280   0.938   6.037  12.268  0.1863 -0.1339  1.5755
  277MOL0     C37281   1.056   5.975  12.341  0.5022 -0.2018  0.0243
  277MOL0     C37282   1.023   5.923  12.485 -0.6947  0.1294  1.1355
  277MOL0     C37283   1.149   5.884  12.553  0.1201 -0.6195  0.4566
  277MOL0     O37284   1.131   5.811  12.677  0.1712  0.3617 -0.3828
  277MOL0     C37285   1.235   5.797  12.769  0.5408 -0.6796  1.1159
  277MOL0     C37286   1.205   5.749  12.900 -0.7623 -0.5953 -0.4292
  277MOL0     C37287   1.314   5.724  12.986  0.5080 -0.4194  0.0512
  277MOL0     C37288   1.444   5.766  12.961  0.4846  1.3434  0.2436
  277MOL0     C37289   1.554   5.733  13.058  0.0731 -0.9444  0.2670
  277MOL0     O37290   1.526   5.676  13.173  0.4917 -0.3316  0.2650
  277MOL0     C37291   1.619   5.663  13.280  0.2583  0.3082  0.5714
  277MOL0     C37292   1.570   5.582  13.381  0.5200  0.6706  0.1505
  277MOL0     C37293   1.627   5.565  13.508 -0.4244 -0.9608 -0.1668
  277MOL0     C37294   1.760   5.619  13.525  1.0672  0.6873 -0.6262
  277MOL0     O37295   1.835   5.589  13.632  0.2414 -0.6687 -0.1319
  277MOL0     C37296   1.760   5.584  13.759  0.1343  0.0989  0.9235
  277MOL0     C37297   1.847   5.602  13.882 -0.7522 -0.2576 -0.1145
  277MOL0     C37298   1.977   5.519  13.867 -0.0384  0.1782  0.4120
  277MOL0     C37299   2.032   5.484  14.007  0.0359 -0.5968  0.4125
  277MOL0     C37300   2.096   5.347  14.000 -0.0005  0.3996  0.0079
  277MOL0     C37301   2.139   5.304  14.149  0.0410  0.7001 -0.8862
  277MOL0     C37302   2.196   5.162  14.155  0.6751  1.2101  0.8116
  277MOL0     C37303   2.319   5.138  14.069 -0.2798  0.1152 -0.2384
  277MOL0    Cl37304   2.428   5.029  14.154 -0.3307  0.4615  0.0678
  277MOL0     C37305   1.815   5.686  13.424 -0.3685  0.1104  0.3828
  277MOL0     C37306   1.748   5.725  13.307 -0.0194  0.2111  0.2109
  277MOL0     O37307   1.657   5.783  13.025 -0.3361 -0.3568 -0.8187
  277MOL0     C37308   1.468   5.826  12.832  0.5719 -0.1182  0.7783
  277MOL0     C37309   1.367   5.847  12.737 -0.4175  0.5063  0.5839
  277MOL0     N37310   0.860   5.866  12.080  0.1450  0.3257 -0.0519
  277MOL0     N37311   0.868   5.865  11.960 -0.4214  0.5945  0.9064
  277MOL0     C37312   1.117   5.195  11.302  0.1128 -0.3477 -0.4527
  277MOL0     C37313   1.085   5.200  11.167  0.2250 -0.4908  0.2196
  277MOL0     C37314   0.840   5.132  10.777  0.0108  0.0402  0.3624
  277MOL0     C37315   0.703   5.100  10.751  0.2402 -0.8022  0.7873
  277MOL0     C37316   0.663   5.100  10.616 -0.4453 -0.9496  0.2386
  277MOL0     C37317   0.753   5.139  10.507  0.5532 -0.2062  0.2232
  277MOL0     O37318   0.698   5.112  10.377  0.8191  0.0143 -0.4617
  277MOL0     C37319   0.764   5.005  10.292  0.0416  0.4330  0.1739
  277MOL0     C37320   0.905   5.035  10.239 -0.1361  0.8171 -0.6344
  277MOL0     C37321   0.929   5.154  10.138  0.5417  0.9653  0.3612
  277MOL0     C37322   0.869   5.292  10.175  0.2711  0.2465  0.5052
  277MOL0     C37323   0.903   5.387  10.071  0.1657 -0.1073  0.4606
  277MOL0     C37324   0.927   5.473   9.984 -0.6927  0.1711 -0.3847
  277MOL0     C37325   0.885   5.180  10.532 -0.6433  0.6719 -0.0318
  277MOL0     C37326   0.920   5.178  10.671 -0.1113  0.0794 -0.3141
  277MOL0     C37327   1.064   5.213  10.702 -0.2873  0.8366  0.7150
  277MOL0     H37328   0.749   5.141  11.191  0.0555 -2.4092  1.9624
  277MOL0     H37329   0.812   5.130  11.436  1.6880 -2.5341  0.9723
  277MOL0     H37330   0.895   5.303  11.562  0.9399 -0.6059  0.1234
  277MOL0     H37331   0.934   5.197  11.700 -0.7268  0.7355  1.1410
  277MOL0     H37332   1.143   5.344  11.746  1.9532  3.0767  1.1325
  277MOL0     H37333   0.980   5.434  11.759 -1.3979 -2.0280 -0.0720
  277MOL0     H37334   1.002   5.505  11.536  0.4561 -1.7586 -1.3930
  277MOL0     H37335   1.153   5.422  11.515  0.9467 -0.0207  1.4178
  277MOL0     H37336   1.242   5.535  11.716 -0.4573 -2.3621 -1.7022
  277MOL0     H37337   1.238   5.636  11.562  0.3693 -0.0134  0.4538
  277MOL0     H37338   1.030   5.663  11.778  0.3436 -3.4769  0.1377
  277MOL0     H37339   1.173   5.760  11.781 -1.5991 -1.2750  1.2543
  277MOL0     H37340   1.110   5.832  11.546 -1.9071  0.3387 -2.0079
  277MOL0     H37341   0.967   5.724  11.552  1.5978 -0.2179 -0.9718
  277MOL0     H37342   0.865   5.820  11.720  0.4394 -2.8108 -1.2166
  277MOL0     H37343   0.882   5.949  11.598 -0.6186  0.7408  1.1348
  277MOL0     H37344   1.098   5.970  11.786  1.0287  3.2283  1.0320
  277MOL0     H37345   0.989   6.091  11.735  1.3718 -1.1211 -2.0807
  277MOL0     H37346   1.042   6.144  12.025 -0.2483  0.4823  2.2902
  277MOL0     H37347   0.950   6.145  12.252  2.6702 -0.3327  1.7617
  277MOL0     H37348   0.838   6.024  12.311 -0.4689 -1.1813 -0.1516
  277MOL0     H37349   1.095   5.890  12.283  2.9812 -0.1291  1.4370
  277MOL0     H37350   1.125   6.060  12.350  1.3258 -1.1262  3.8811
  277MOL0     H37351   0.949   5.843  12.487  0.6279 -1.1329  0.9804
  277MOL0     H37352   0.990   6.009  12.543  0.2178  0.7330  0.7780
  277MOL0     H37353   1.203   5.972  12.589  1.4167 -1.6911  1.2737
  277MOL0     H37354   1.221   5.835  12.486 -0.1460 -0.4870  0.0719
  277MOL0     H37355   1.100   5.728  12.923 -1.0704  2.2596  1.2352
  277MOL0     H37356   1.289   5.670  13.077 -2.9327  1.5300  0.4474
  277MOL0     H37357   1.474   5.534  13.367  2.4117 -3.4671 -0.1869
  277MOL0     H37358   1.569   5.509  13.580  0.0220 -0.5203  0.5533
  277MOL0     H37359   1.676   5.653  13.756 -0.2693 -0.4374 -1.2945
  277MOL0     H37360   1.715   5.487  13.783 -3.1429  1.2465 -0.1454
  277MOL0     H37361   1.870   5.709  13.889  2.0241 -0.7689 -0.3397
  277MOL0     H37362   1.778   5.576  13.962 -4.4802 -1.0362 -3.2820
  277MOL0     H37363   1.958   5.429  13.808 -3.7797  1.3593 -0.4711
  277MOL0     H37364   2.049   5.582  13.814 -1.2202  2.4290  1.3281
  277MOL0     H37365   1.951   5.504  14.077  1.9742  3.0004  1.9443
  277MOL0     H37366   2.093   5.565  14.049 -0.5562 -0.5625  1.2273
  277MOL0     H37367   2.185   5.349  13.937 -1.7295  2.8527 -2.6310
  277MOL0     H37368   2.030   5.275  13.951  1.9067  0.4284 -2.8234
  277MOL0     H37369   2.218   5.371  14.182  0.7895 -0.6280  0.0870
  277MOL0     H37370   2.058   5.311  14.222  1.4768 -0.4752  0.8980
  277MOL0     H37371   2.124   5.098  14.104  2.1014  0.0924  0.1502
  277MOL0     H37372   2.209   5.119  14.255 -1.3873 -0.2329  0.5190
  277MOL0     H37373   2.273   5.081  13.988 -4.1548 -1.0393  2.4819
  277MOL0     H37374   2.374   5.230  14.045 -1.1961  1.5578  2.6844
  277MOL0     H37375   1.916   5.719  13.448 -0.5630 -1.6101  4.4793
  277MOL0     H37376   1.784   5.783  13.223 -1.2280 -3.6020 -3.3224
  277MOL0     H37377   1.568   5.859  12.806  0.2452  1.3638  1.2950
  277MOL0     H37378   1.392   5.878  12.636 -2.2984  1.4671  0.3811
  277MOL0     H37379   1.216   5.222  11.339  0.2500 -2.0676  0.5789
  277MOL0     H37380   1.158   5.234  11.093 -0.6731  0.0217 -0.4461
  277MOL0     H37381   0.633   5.066  10.826 -1.2798  1.8732  0.7113
  277MOL0     H37382   0.564   5.075  10.579 -1.1945  0.3999  1.2590
  277MOL0     H37383   0.709   4.977  10.201  1.4936 -4.2507  0.4499
  277MOL0     H37384   0.777   4.913  10.349 -0.8842 -0.7085 -1.3584
  277MOL0     H37385   0.946   4.944  10.193  2.3140  1.8368 -0.6506
  277MOL0     H37386   0.973   5.052  10.323 -0.4004 -1.7931  0.1973
  277MOL0     H37387   0.874   5.127  10.048  4.7733 -0.0601 -2.2434
  277MOL0     H37388   1.037   5.162  10.119  1.0550 -3.1442  0.4966
  277MOL0     H37389   0.760   5.286  10.184  0.4277  0.5523  3.4268
  277MOL0     H37390   0.914   5.325  10.269  1.8909 -0.5471  0.0520
  277MOL0     H37391   0.955   5.544   9.908  3.5487 -1.7585 -0.8711
  277MOL0     H37392   0.933   5.221  10.445 -0.7311  0.6186 -0.1058
  277MOL0     H37393   1.099   5.279  10.622  0.6582 -0.6950 -0.1815
  277MOL0     H37394   1.081   5.262  10.798 -0.8450  0.9085  0.7801
  277MOL0     H37395   1.123   5.121  10.695 -1.8531 -0.7593  5.1961
  278MOL0     O37396   7.953   4.918  11.400  0.5235 -0.4202 -0.2645
  278MOL0     C37397   7.984   4.800  11.395 -0.0554  0.0432  0.4956
  278MOL0     O37398   7.889   4.701  11.382  0.0496  0.2155  0.0524
  278MOL0     C37399   7.752   4.739  11.376 -0.1221  0.3471 -0.2337
  278MOL0     C37400   7.689   4.804  11.479 -0.5652 -1.0608 -0.2106
  278MOL0     C37401   7.551   4.826  11.484 -0.4992 -0.6882 -0.0888
  278MOL0     C37402   7.467   4.778  11.379 -1.3754 -0.3820  0.0193
  278MOL0     O37403   7.332   4.799  11.386  0.1776  0.8698  0.3709
  278MOL0     C37404   7.254   4.691  11.340  1.0118 -0.6128 -0.1243
  278MOL0     C37405   7.148   4.645  11.453 -0.0803  0.1166  0.0452
  278MOL0     C37406   7.030   4.572  11.382  0.3871 -0.9414  0.3076
  278MOL0     C37407   6.928   4.518  11.484  0.7634 -0.6957 -1.0233
  278MOL0     C37408   6.836   4.435  11.403  0.1847 -0.9963  0.1430
  278MOL0     C37409   6.715   4.383  11.483 -0.0833 -0.7529 -0.6214
  278MOL0     C37410   6.605   4.304  11.396  0.5332  0.2274  0.0787
  278MOL0     C37411   6.490   4.269  11.490 -0.0048  0.9863  0.6525
  278MOL0     N37412   6.523   4.166  11.589  0.1915 -0.0308  0.4365
  278MOL0     C37413   6.465   4.177  11.715  0.1083  0.1574  0.2540
  278MOL0     C37414   6.495   4.059  11.773  0.2132  0.4371 -0.4439
  278MOL0     C37415   6.435   3.995  11.902  0.6793  0.4339  0.4749
  278MOL0     C37416   6.556   3.960  11.990 -0.0377 -0.5955  0.2747
  278MOL0     C37417   6.508   3.880  12.117 -0.8864 -0.8295 -0.0119
  278MOL0     C37418   6.434   3.948  12.231 -0.0822  0.7070  0.2089
  278MOL0     O37419   6.461   4.094  12.233 -0.3088  0.2086  0.4132
  278MOL0     C37420   6.354   4.177  12.227  0.9720 -0.0945  0.0594
  278MOL0     C37421   6.213   4.142  12.206 -0.4188 -0.2797  1.1694
  278MOL0     C37422   6.115   4.241  12.180  0.2458  0.8135  0.1169
  278MOL0     C37423   6.153   4.375  12.177  0.2736  0.3895 -1.0100
  278MOL0     C37424   6.052   4.471  12.148 -0.3010 -0.5660 -0.9307
  278MOL0     O37425   5.929   4.431  12.113  0.6902  0.6006  0.2661
  278MOL0     C37426   5.830   4.515  12.068  0.3828 -0.4227 -0.1435
  278MOL0     C37427   5.703   4.474  12.108  1.0506 -0.3824  0.2478
  278MOL0     C37428   5.594   4.554  12.058  0.5861  0.5750  0.2468
  278MOL0     C37429   5.604   4.676  11.991  0.4100 -0.0691 -0.5534
  278MOL0     O37430   5.489   4.745  11.967 -0.0721  0.3087 -0.2062
  278MOL0     C37431   5.488   4.842  11.863  0.2964 -0.9173 -0.2661
  278MOL0     C37432   5.353   4.860  11.826  0.4034 -1.0586  0.4383
  278MOL0     C37433   5.325   4.991  11.736 -0.3702 -0.5812 -0.1570
  278MOL0     C37434   5.231   4.962  11.617  0.0190  0.5155  1.1263
  278MOL0     C37435   5.084   4.932  11.679 -0.4199 -0.3879 -0.6050
  278MOL0     C37436   4.984   4.882  11.583 -0.2981 -0.4988  0.1720
  278MOL0     C37437   4.873   4.809  11.660 -0.2939  0.0798  0.6798
  278MOL0     C37438   4.764   4.904  11.715 -0.0836  0.0962 -0.3803
  278MOL0    Cl37439   4.660   4.818  11.846  0.1104  0.4392  0.4093
  278MOL0     C37440   5.735   4.717  11.957  0.0487  0.1418 -0.2675
  278MOL0     C37441   5.846   4.637  11.995  0.5101  0.1955  0.2022
  278MOL0     O37442   6.091   4.585  12.135  0.1346 -0.1399 -0.2943
  278MOL0     C37443   6.290   4.409  12.204 -0.3311  0.4247  1.1132
  278MOL0     C37444   6.384   4.309  12.224 -0.3385  0.9638 -0.2772
  278MOL0     N37445   6.581   3.994  11.691 -0.2262 -0.3464  0.2178
  278MOL0     N37446   6.591   4.052  11.578  0.6701  0.9803  0.6898
  278MOL0     C37447   7.536   4.732  11.267 -0.4091  0.3432  0.5965
  278MOL0     C37448   7.676   4.707  11.264  0.2562 -0.6790  0.4423
  278MOL0     C37449   8.116   4.754  11.436 -0.8596 -1.1010 -0.6044
  278MOL0     C37450   8.130   4.691  11.555  0.0901 -1.1807 -0.8838
  278MOL0     C37451   8.248   4.645  11.597  0.1075 -0.0680 -0.0714
  278MOL0     C37452   8.360   4.683  11.522 -0.0972  0.9705  0.9679
  278MOL0     O37453   8.485   4.640  11.563 -0.2980 -0.1332  0.5090
  278MOL0     C37454   8.591   4.649  11.471 -0.1510  0.1679  0.3376
  278MOL0     C37455   8.698   4.568  11.521 -0.3223 -0.2714  0.1471
  278MOL0     C37456   8.831   4.591  11.440 -0.0234  1.0438 -0.2801
  278MOL0     C37457   8.886   4.733  11.471 -0.1246  0.4484  0.1002
  278MOL0     C37458   9.032   4.746  11.474 -0.0296  0.3973 -0.9020
  278MOL0     C37459   9.155   4.766  11.485  0.0141  0.1063  0.0751
  278MOL0     C37460   8.353   4.769  11.405  0.3070 -0.0156  0.1859
  278MOL0     C37461   8.229   4.797  11.361  0.5229  0.2437  0.7151
  278MOL0     C37462   8.217   4.864  11.226  0.0574 -0.9624  0.7629
  278MOL0     H37463   7.739   4.835  11.570 -0.0967 -2.2336 -0.0545
  278MOL0     H37464   7.506   4.879  11.568 -2.2567 -0.5009 -1.0834
  278MOL0     H37465   7.208   4.725  11.246  1.2793 -0.5990 -0.2513
  278MOL0     H37466   7.317   4.603  11.320  2.9434  0.0322  2.6724
  278MOL0     H37467   7.128   4.736  11.509 -3.7326 -0.4459 -0.1229
  278MOL0     H37468   7.201   4.585  11.528  2.3824  3.3008  1.0885
  278MOL0     H37469   7.079   4.492  11.325 -2.3300 -2.9810  0.6317
  278MOL0     H37470   6.985   4.639  11.308 -0.8219  0.5603  2.2837
  278MOL0     H37471   6.991   4.463  11.554  0.8776  0.3054 -0.3177
  278MOL0     H37472   6.877   4.601  11.536  0.3593 -1.5729  0.0218
  278MOL0     H37473   6.803   4.489  11.313 -1.5941 -2.2751 -0.0213
  278MOL0     H37474   6.882   4.347  11.359 -0.1978 -0.8215 -0.6197
  278MOL0     H37475   6.755   4.314  11.557  1.1457 -3.6974 -3.7727
  278MOL0     H37476   6.665   4.471  11.527 -0.9003  0.0934 -3.0767
  278MOL0     H37477   6.655   4.214  11.358  0.7616  0.4554 -0.1622
  278MOL0     H37478   6.572   4.364  11.311 -1.3852  0.6071  1.0367
  278MOL0     H37479   6.459   4.363  11.538 -0.2853  0.0767  2.3383
  278MOL0     H37480   6.416   4.227  11.421 -0.9843 -1.2986  2.9165
  278MOL0     H37481   6.415   4.262  11.758  1.1109  2.1288 -2.2267
  278MOL0     H37482   6.378   4.074  11.953  0.0449 -0.7028  1.5988
  278MOL0     H37483   6.373   3.906  11.890 -1.4526  2.0025 -0.8262
  278MOL0     H37484   6.639   3.912  11.939  0.8453  1.9348 -0.8330
  278MOL0     H37485   6.599   4.058  12.017  0.0720 -1.1565  2.3468
  278MOL0     H37486   6.589   3.838  12.178 -1.8760  0.7044  2.5088
  278MOL0     H37487   6.452   3.794  12.079 -2.4822  0.4645 -0.7126
  278MOL0     H37488   6.455   3.892  12.322  0.1217 -1.3301 -1.0281
  278MOL0     H37489   6.326   3.927  12.226  0.1505 -0.8255  1.1540
  278MOL0     H37490   6.189   4.039  12.183  0.4279 -0.6997  2.0702
  278MOL0     H37491   6.018   4.203  12.151  0.6381 -0.2788  0.2062
  278MOL0     H37492   5.692   4.398  12.185  1.2925 -0.6001  0.0686
  278MOL0     H37493   5.490   4.538  12.085  1.2191  3.6644  5.7995
  278MOL0     H37494   5.531   4.937  11.898 -1.1113 -0.4789  0.3434
  278MOL0     H37495   5.540   4.805  11.775 -2.7783 -1.5574 -1.9476
  278MOL0     H37496   5.316   4.766  11.785  1.3163 -2.5665  2.8732
  278MOL0     H37497   5.286   4.873  11.912 -1.0986  1.6535 -1.0067
  278MOL0     H37498   5.292   5.075  11.799  0.0107  1.0318 -2.0225
  278MOL0     H37499   5.418   5.025  11.691 -0.9170 -1.0646 -1.6936
  278MOL0     H37500   5.261   4.876  11.556 -1.6567  2.8003 -3.3511
  278MOL0     H37501   5.217   5.047  11.550  1.5863 -0.2365 -0.2135
  278MOL0     H37502   5.041   5.010  11.742  0.5519 -0.3255  0.0006
  278MOL0     H37503   5.085   4.856  11.758 -0.5757  2.1942  2.0136
  278MOL0     H37504   4.942   4.959  11.518 -2.8913 -2.1175 -0.2161
  278MOL0     H37505   5.025   4.805  11.518 -0.1454  0.8979 -1.4531
  278MOL0     H37506   4.918   4.745  11.736  3.9227  0.0422 -1.5777
  278MOL0     H37507   4.822   4.746  11.588  0.7919  0.8864 -0.8398
  278MOL0     H37508   4.813   4.990  11.761 -0.7659  0.0484  0.4532
  278MOL0     H37509   4.702   4.943  11.634 -2.0152 -2.3121 -0.1659
  278MOL0     H37510   5.751   4.813  11.910  3.4492 -0.3935 -0.4601
  278MOL0     H37511   5.943   4.665  11.954  2.1831  0.6347  4.0420
  278MOL0     H37512   6.336   4.506  12.217  2.3441 -0.9269  2.5669
  278MOL0     H37513   6.487   4.341  12.236  0.1800 -0.7069  0.0211
  278MOL0     H37514   7.489   4.728  11.169  4.8336  1.2914 -2.3280
  278MOL0     H37515   7.725   4.668  11.175  1.3444 -0.3860  0.9028
  278MOL0     H37516   8.042   4.674  11.617  0.4259  0.4420  0.0994
  278MOL0     H37517   8.251   4.577  11.682 -2.0687  0.3691  0.3952
  278MOL0     H37518   8.624   4.753  11.464  2.4395 -0.6494 -0.8212
  278MOL0     H37519   8.574   4.605  11.372 -0.1901  0.7827  0.0684
  278MOL0     H37520   8.672   4.462  11.516  2.0338 -0.9062  0.0212
  278MOL0     H37521   8.715   4.588  11.628 -2.5562  1.3588  0.2823
  278MOL0     H37522   8.819   4.593  11.332  2.4102  0.0224 -0.6550
  278MOL0     H37523   8.897   4.507  11.463 -3.4251 -1.4845  1.0948
  278MOL0     H37524   8.842   4.810  11.407  0.7766  0.1827 -0.8607
  278MOL0     H37525   8.855   4.761  11.572 -2.4430  1.6271 -0.8710
  278MOL0     H37526   9.262   4.766  11.488  0.1199  1.2393 -1.9708
  278MOL0     H37527   8.431   4.792  11.332 -2.0109 -3.1994 -3.7017
  278MOL0     H37528   8.131   4.840  11.163  0.7247 -3.6885  0.8011
  278MOL0     H37529   8.191   4.966  11.259  0.7989 -0.6819  0.5007
  278MOL0     H37530   8.310   4.866  11.168 -0.7400  0.9202 -0.5777
  279MOL0     O37531  10.384   9.770   3.237  0.6013  0.4968 -0.2491
  279MOL0     C37532  10.283   9.800   3.173  0.1029  0.1398  0.3173
  279MOL0     O37533  10.273   9.913   3.095 -0.1150 -0.4559  0.1480
  279MOL0     C37534  10.361  10.020   3.120  0.2802 -0.2202  0.2567
  279MOL0     C37535  10.501  10.004   3.109 -0.5935  0.4768 -0.4165
  279MOL0     C37536  10.589  10.108   3.103 -0.1418 -0.0745 -0.1051
  279MOL0     C37537  10.536  10.242   3.113  0.2133 -0.3731  0.4555
  279MOL0     O37538  10.627  10.344   3.121 -0.4853 -0.4529 -0.9186
  279MOL0     C37539  10.595  10.449   3.211 -0.0518  0.5872 -0.4474
  279MOL0     C37540  10.725  10.519   3.246  0.8048  0.2821 -0.3951
  279MOL0     C37541  10.791  10.579   3.129  0.5085  0.5209 -0.1579
  279MOL0     C37542  10.923  10.632   3.159  0.0464 -0.3823  0.3365
  279MOL0     C37543  10.982  10.686   3.025 -0.6835 -0.1767 -0.1597
  279MOL0     C37544  11.134  10.720   3.029  0.6595 -0.8638 -0.1792
  279MOL0     C37545  11.222  10.601   3.067 -0.6232  0.4339 -0.3921
  279MOL0     C37546  11.373  10.639   3.099 -0.9486  0.4745 -0.4400
  279MOL0     N37547  11.446  10.702   2.993 -0.4072  0.6186 -0.2508
  279MOL0     C37548  11.471  10.831   2.978  0.0225 -0.0192 -1.1264
  279MOL0     C37549  11.533  10.845   2.858  0.4282 -0.0390  0.1453
  279MOL0     C37550  11.581  10.975   2.800 -0.2275 -0.4412 -0.0031
  279MOL0     C37551  11.504  11.017   2.674  0.1979  0.0123  0.1752
  279MOL0     C37552  11.358  11.053   2.718 -0.3787 -0.4637  0.1024
  279MOL0     C37553  11.268  11.096   2.604 -0.9575 -0.9513 -0.8836
  279MOL0     O37554  11.164  11.180   2.662  0.0372 -0.3045  0.1777
  279MOL0     C37555  11.048  11.129   2.710  0.2834  1.8849  0.3551
  279MOL0     C37556  10.953  11.224   2.753  0.3449 -0.1613 -0.4930
  279MOL0     C37557  10.830  11.178   2.805  0.2765  0.2544  0.1039
  279MOL0     C37558  10.808  11.037   2.821 -0.7975 -0.1307  0.4765
  279MOL0     C37559  10.679  10.995   2.875 -0.0908  0.2550 -0.3574
  279MOL0     O37560  10.660  10.855   2.872 -0.2220 -0.2510  0.7386
  279MOL0     C37561  10.541  10.792   2.900  0.1776 -0.2249 -0.3786
  279MOL0     C37562  10.421  10.850   2.938  0.3078 -0.6709  1.3277
  279MOL0     C37563  10.305  10.768   2.949  0.6894  0.4394 -0.4608
  279MOL0     C37564  10.325  10.626   2.938 -0.6314 -0.6545  0.0643
  279MOL0     O37565  10.228  10.530   2.956 -0.3296 -0.0082  1.0764
  279MOL0     C37566  10.096  10.567   2.924 -0.1695  1.0450 -0.3373
  279MOL0     C37567  10.010  10.459   2.864 -0.2103  0.4311  0.4949
  279MOL0     C37568  10.001  10.336   2.962 -1.0641  0.0703 -0.4473
  279MOL0     C37569   9.885  10.242   2.941  0.2953 -0.4470 -0.5858
  279MOL0     C37570   9.903  10.107   3.012  0.0094 -0.2480 -0.0192
  279MOL0     C37571   9.770  10.034   3.003  0.2331 -0.2591 -0.6313
  279MOL0     C37572   9.781   9.907   3.089 -0.0617  0.5352 -0.3231
  279MOL0     C37573   9.768   9.918   3.249 -0.0888 -0.9294 -0.7567
  279MOL0    Cl37574   9.613  10.002   3.294 -0.0593 -0.0141  0.1501
  279MOL0     C37575  10.447  10.575   2.905  0.5043  0.3684  0.7168
  279MOL0     C37576  10.551  10.657   2.876  0.1843  0.3781  0.7270
  279MOL0     O37577  10.601  11.077   2.924  0.0787 -0.0924 -0.1104
  279MOL0     C37578  10.913  10.945   2.789 -0.3846  0.2947 -0.8031
  279MOL0     C37579  11.023  10.990   2.729 -0.0944 -0.9891  0.7808
  279MOL0     N37580  11.540  10.719   2.798 -0.2821 -0.2809  0.3108
  279MOL0     N37581  11.499  10.631   2.886 -0.6051  0.2461 -0.1945
  279MOL0     C37582  10.397  10.260   3.140  0.6732  0.2590 -0.6043
  279MOL0     C37583  10.304  10.152   3.142  0.2046 -0.2350  0.2642
  279MOL0     C37584  10.167   9.701   3.158 -0.3468 -0.2364  0.5376
  279MOL0     C37585  10.123   9.676   3.030 -0.4775 -0.7069  0.4312
  279MOL0     C37586  10.024   9.582   3.003 -0.0516  0.7759 -0.0257
  279MOL0     C37587   9.964   9.516   3.116  0.5601  0.2068 -0.4370
  279MOL0     O37588   9.874   9.416   3.107  0.0407 -0.0284  0.1585
  279MOL0     C37589   9.829   9.355   2.983 -0.3588 -0.7118  0.4738
  279MOL0     C37590   9.689   9.406   2.935  0.3696  0.1958 -0.9444
  279MOL0     C37591   9.588   9.357   3.039  0.3399  0.4803 -0.1659
  279MOL0     C37592   9.450   9.435   3.033  0.3079  0.5537  0.2868
  279MOL0     C37593   9.459   9.583   3.033  0.4987  0.8102 -0.0916
  279MOL0     C37594   9.464   9.702   3.037 -0.0479 -0.9993 -0.3731
  279MOL0     C37595  10.007   9.536   3.245 -0.8545 -0.5794 -0.4520
  279MOL0     C37596  10.107   9.631   3.269  0.5385 -0.1585 -0.2925
  279MOL0     C37597  10.136   9.657   3.418 -0.4277 -0.2591  0.5398
  279MOL0     H37598  10.542   9.904   3.101 -1.9449 -0.1773  0.3708
  279MOL0     H37599  10.693  10.076   3.101 -0.3638 -0.9586  0.9690
  279MOL0     H37600  10.516  10.516   3.175 -2.0328 -1.6829 -0.5823
  279MOL0     H37601  10.547  10.413   3.302  1.1098  0.4159  0.1212
  279MOL0     H37602  10.792  10.456   3.305 -2.6128 -1.6935  1.7253
  279MOL0     H37603  10.685  10.596   3.313 -0.6152  0.1858 -1.1000
  279MOL0     H37604  10.739  10.663   3.082 -0.3241  1.0112  1.5417
  279MOL0     H37605  10.808  10.503   3.052 -0.4605 -0.7152  0.8010
  279MOL0     H37606  10.902  10.705   3.238 -0.7320 -2.1217  1.7935
  279MOL0     H37607  10.980  10.554   3.209 -1.0154 -1.0149  0.5941
  279MOL0     H37608  10.967  10.621   2.939 -2.4713 -1.5157  1.0983
  279MOL0     H37609  10.927  10.779   3.008 -1.4677 -0.5561  0.2538
  279MOL0     H37610  11.158  10.767   2.934  0.6104  1.3643  0.8402
  279MOL0     H37611  11.157  10.805   3.094 -0.0005 -0.1372 -0.8722
  279MOL0     H37612  11.217  10.519   2.995  2.3786 -1.6502  1.5715
  279MOL0     H37613  11.193  10.554   3.161  3.6407 -2.3476 -0.1812
  279MOL0     H37614  11.378  10.709   3.183 -1.7336 -1.0158  0.8988
  279MOL0     H37615  11.430  10.547   3.113  1.9561  2.1860 -0.1722
  279MOL0     H37616  11.447  10.905   3.053  1.0395 -1.6087  0.8380
  279MOL0     H37617  11.589  11.051   2.878  0.5996  0.0060 -0.5083
  279MOL0     H37618  11.686  10.961   2.772  0.1292 -1.5727  1.6908
  279MOL0     H37619  11.560  11.094   2.621  0.3790  0.4951  1.0628
  279MOL0     H37620  11.501  10.929   2.609 -0.3892  0.3122 -0.2167
  279MOL0     H37621  11.362  11.133   2.793 -0.9230 -2.0627  1.9102
  279MOL0     H37622  11.317  10.966   2.769 -1.3658 -0.2111 -0.2369
  279MOL0     H37623  11.231  11.010   2.548  0.9609 -3.0411  0.9172
  279MOL0     H37624  11.330  11.162   2.542  0.2444 -0.8224  0.4290
  279MOL0     H37625  10.977  11.330   2.746  0.9058 -0.3708 -2.6246
  279MOL0     H37626  10.751  11.246   2.834  2.3268  2.1418  1.6221
  279MOL0     H37627  10.403  10.957   2.941 -0.2221 -0.6896 -0.2923
  279MOL0     H37628  10.210  10.818   2.964  0.5464 -0.5118  2.7441
  279MOL0     H37629  10.052  10.602   3.018  0.4568  1.9380 -0.3611
  279MOL0     H37630  10.088  10.645   2.847  0.6430  0.8303 -0.6525
  279MOL0     H37631   9.915  10.503   2.832  1.7822  3.5308 -1.6379
  279MOL0     H37632  10.055  10.422   2.771 -0.1700  0.1773  0.6127
  279MOL0     H37633  10.095  10.279   2.959  0.6832  2.7520 -2.8076
  279MOL0     H37634  10.011  10.372   3.065  0.4725 -1.1649 -0.1169
  279MOL0     H37635   9.889  10.211   2.837 -0.1280 -1.9572 -0.1714
  279MOL0     H37636   9.790  10.290   2.968 -0.8222 -2.6026 -0.4812
  279MOL0     H37637   9.916  10.125   3.119 -2.6794 -0.4867  0.4101
  279MOL0     H37638   9.986  10.044   2.979 -1.1917 -1.8804 -0.0305
  279MOL0     H37639   9.683  10.087   3.043 -0.1387 -2.0879  1.1000
  279MOL0     H37640   9.753  10.016   2.896  1.6626 -0.0056 -0.9309
  279MOL0     H37641   9.867   9.855   3.046  0.9670  1.1730  0.8850
  279MOL0     H37642   9.694   9.844   3.068  0.2948 -0.2624  0.5207
  279MOL0     H37643   9.780   9.816   3.287  6.4127 -1.5522 -3.2930
  279MOL0     H37644   9.842   9.985   3.292 -2.3787  2.4499 -1.6881
  279MOL0     H37645  10.464  10.469   2.888  0.9899  0.5171  0.2565
  279MOL0     H37646  10.648  10.613   2.853  0.8280  2.9248 -1.8729
  279MOL0     H37647  10.889  10.840   2.800  1.0759 -0.1096 -1.1766
  279MOL0     H37648  11.092  10.914   2.695 -1.7759 -1.9381 -0.6964
  279MOL0     H37649  10.355  10.360   3.151 -2.0191 -0.6563 -1.6813
  279MOL0     H37650  10.199  10.178   3.146  0.1983 -0.2802  0.3765
  279MOL0     H37651  10.179   9.730   2.954  2.0487 -0.9699  2.0039
  279MOL0     H37652   9.987   9.555   2.905 -0.1912  1.0301 -0.0452
  279MOL0     H37653   9.820   9.247   3.000 -3.1455 -0.5656  0.2983
  279MOL0     H37654   9.900   9.372   2.901 -0.6021  0.2941  0.4641
  279MOL0     H37655   9.667   9.356   2.840 -0.1961 -3.7145  1.0380
  279MOL0     H37656   9.687   9.515   2.925 -0.7542  0.2885  0.0786
  279MOL0     H37657   9.631   9.353   3.139 -2.4036  1.4870  1.1686
  279MOL0     H37658   9.567   9.254   3.011 -1.0380  0.6410  0.1857
  279MOL0     H37659   9.402   9.403   2.940  1.1697  1.2671 -0.4220
  279MOL0     H37660   9.389   9.397   3.116 -0.7244 -1.4371 -1.2866
  279MOL0     H37661   9.452   9.808   3.036  1.9793 -0.6168  2.5277
  279MOL0     H37662   9.976   9.485   3.336 -1.7672  1.3667  0.3790
  279MOL0     H37663  10.169   9.569   3.474  0.7755  1.0300  1.9158
  279MOL0     H37664  10.225   9.718   3.431 -1.5410  1.2653  1.3885
  279MOL0     H37665  10.047   9.699   3.467 -0.3925  1.1451 -0.5558
  280MOL0     O37666   5.035   0.917   2.744  0.7144  0.8393  0.6448
  280MOL0     C37667   5.068   1.037   2.755 -0.1063  1.7771  0.0616
  280MOL0     O37668   5.190   1.086   2.738  0.0574 -0.5266  0.2209
  280MOL0     C37669   5.286   1.008   2.687  0.5965  0.2536 -0.3856
  280MOL0     C37670   5.275   0.971   2.550  1.2639  0.0496  0.0270
  280MOL0     C37671   5.372   0.890   2.493  0.2073  0.9331  0.6180
  280MOL0     C37672   5.485   0.848   2.563  0.7173 -0.1680 -0.4580
  280MOL0     O37673   5.594   0.792   2.498 -0.2214  1.0697 -0.3556
  280MOL0     C37674   5.616   0.802   2.357 -0.1082  0.2057  0.1111
  280MOL0     C37675   5.627   0.941   2.303 -0.0505 -0.5622 -1.0615
  280MOL0     C37676   5.657   0.944   2.153 -0.3062 -0.5678  1.0811
  280MOL0     C37677   5.651   1.083   2.089  0.2122 -0.1965  0.2554
  280MOL0     C37678   5.597   1.084   1.941 -0.8744  0.2398 -0.4446
  280MOL0     C37679   5.526   1.220   1.902  0.4835  0.3557 -0.3734
  280MOL0     C37680   5.376   1.225   1.950 -0.0936 -0.8300 -0.2352
  280MOL0     C37681   5.274   1.290   1.864 -0.4629 -0.2343 -0.5333
  280MOL0     N37682   5.275   1.436   1.858  0.3056  0.8448 -1.1783
  280MOL0     C37683   5.195   1.505   1.770  0.3668  0.1097  0.0674
  280MOL0     C37684   5.253   1.627   1.778 -0.7580 -0.4421 -1.0012
  280MOL0     C37685   5.212   1.753   1.706  0.1448 -0.5574  0.3894
  280MOL0     C37686   5.271   1.764   1.565  0.4314 -0.3568  0.1716
  280MOL0     C37687   5.252   1.888   1.494  0.8453 -0.2283 -1.1004
  280MOL0     C37688   5.330   1.902   1.361  0.4189  0.2646  0.0497
  280MOL0     O37689   5.298   1.785   1.274 -1.0614  0.2683 -0.2814
  280MOL0     C37690   5.166   1.749   1.260  1.1766  0.4693 -0.7367
  280MOL0     C37691   5.134   1.616   1.281  0.3551  0.7507  0.5331
  280MOL0     C37692   5.012   1.565   1.254  1.6946  0.2326  0.5293
  280MOL0     C37693   4.915   1.644   1.188  0.6633  0.3626  0.7905
  280MOL0     C37694   4.791   1.569   1.133  0.8472 -0.4753  0.8184
  280MOL0     O37695   4.698   1.644   1.056 -0.3019 -0.2444  0.6555
  280MOL0     C37696   4.590   1.575   1.005  0.6409 -0.6837 -0.5906
  280MOL0     C37697   4.459   1.621   1.047 -1.3971  0.0566  0.1364
  280MOL0     C37698   4.347   1.582   0.975 -0.0849  1.1227  0.3790
  280MOL0     C37699   4.355   1.481   0.875  0.2270  0.6150 -1.0446
  280MOL0     O37700   4.241   1.434   0.819  0.7915  0.2677  0.1840
  280MOL0     C37701   4.245   1.327   0.725  0.1540  0.3643 -0.3949
  280MOL0     C37702   4.102   1.266   0.717 -0.2515 -0.3415  0.0404
  280MOL0     C37703   3.995   1.364   0.656  0.7647 -0.2529  0.3991
  280MOL0     C37704   4.010   1.399   0.507  0.2210 -0.3918 -0.6635
  280MOL0     C37705   3.918   1.511   0.453  0.7074 -0.3318 -0.7387
  280MOL0     C37706   3.928   1.527   0.311  0.1695 -0.6805  0.2866
  280MOL0     C37707   3.895   1.670   0.256 -0.2472 -0.4279  1.8390
  280MOL0     C37708   3.930   1.665   0.097 -0.2276  0.5418 -0.4461
  280MOL0    Cl37709   3.856   1.530   0.009  0.4513 -0.7005 -0.8268
  280MOL0     C37710   4.483   1.432   0.843  0.7116  0.4744  0.1152
  280MOL0     C37711   4.597   1.468   0.907 -0.0894 -0.0344 -0.3125
  280MOL0     O37712   4.777   1.454   1.170  0.7342  1.0574  0.2829
  280MOL0     C37713   4.940   1.781   1.168 -0.7419 -1.4411  0.2309
  280MOL0     C37714   5.069   1.834   1.211  0.1595  0.1314  0.2378
  280MOL0     N37715   5.345   1.638   1.880 -0.0339 -0.1537 -0.0177
  280MOL0     N37716   5.356   1.518   1.921 -0.2168 -0.1833 -0.5554
  280MOL0     C37717   5.498   0.892   2.694 -0.8300 -0.1536 -0.2095
  280MOL0     C37718   5.394   0.959   2.763 -0.3402  0.7342  0.0652
  280MOL0     C37719   4.959   1.130   2.763  1.0306 -1.5351 -0.5109
  280MOL0     C37720   4.828   1.082   2.741  0.4496 -1.2977 -0.9853
  280MOL0     C37721   4.716   1.162   2.745  0.8078 -1.2426 -0.2679
  280MOL0     C37722   4.719   1.297   2.770  0.6184  0.4869 -0.3302
  280MOL0     O37723   4.603   1.367   2.781  0.6602 -0.2507  0.5056
  280MOL0     C37724   4.625   1.508   2.779 -0.9161 -0.1155  0.4323
  280MOL0     C37725   4.496   1.566   2.711 -0.0532 -0.6641  0.8711
  280MOL0     C37726   4.387   1.597   2.803  1.1022 -0.6359  0.3302
  280MOL0     C37727   4.258   1.616   2.729 -0.8451 -0.3536 -1.2911
  280MOL0     C37728   4.263   1.732   2.631 -0.2730  0.3024 -0.6664
  280MOL0     C37729   4.279   1.810   2.542  0.3052  0.0661  0.5431
  280MOL0     C37730   4.845   1.347   2.801  0.2673 -0.4417 -0.7862
  280MOL0     C37731   4.960   1.268   2.801  0.0331  0.0991  0.8077
  280MOL0     C37732   5.088   1.343   2.836  0.0443  0.0566  1.2294
  280MOL0     H37733   5.191   1.002   2.489 -0.3998  0.6738  2.5236
  280MOL0     H37734   5.356   0.854   2.392 -0.7442  1.5255  0.5462
  280MOL0     H37735   5.707   0.751   2.325  1.8676  3.0195  0.8689
  280MOL0     H37736   5.528   0.754   2.314 -0.0964  1.5046 -1.4421
  280MOL0     H37737   5.712   0.989   2.351  1.5801 -2.5930 -1.7298
  280MOL0     H37738   5.535   0.997   2.317  0.2072  0.1427 -2.0556
  280MOL0     H37739   5.575   0.884   2.111 -0.4291 -1.5283  2.5954
  280MOL0     H37740   5.751   0.894   2.128 -0.9113 -0.8289 -0.8468
  280MOL0     H37741   5.581   1.147   2.144  0.5488  0.2636  0.1586
  280MOL0     H37742   5.747   1.136   2.093 -0.9153  2.1394 -1.0217
  280MOL0     H37743   5.682   1.076   1.872  0.5794 -1.3125  1.4124
  280MOL0     H37744   5.520   1.007   1.926  1.0110 -1.3779 -2.5951
  280MOL0     H37745   5.583   1.312   1.922 -1.0056  1.0775  0.7223
  280MOL0     H37746   5.531   1.230   1.793 -0.3418  2.5773 -0.2598
  280MOL0     H37747   5.375   1.272   2.049  1.0191 -3.1190  0.9337
  280MOL0     H37748   5.354   1.122   1.977  1.3181 -1.4211 -1.2417
  280MOL0     H37749   5.269   1.240   1.766  0.4109 -1.7178  0.1514
  280MOL0     H37750   5.176   1.257   1.901 -0.0804 -0.5327  0.2265
  280MOL0     H37751   5.135   1.465   1.689 -1.2973 -2.2948  2.3218
  280MOL0     H37752   5.103   1.750   1.701  0.0561 -1.2429  2.1930
  280MOL0     H37753   5.266   1.830   1.763  1.9609 -0.8041 -0.8995
  280MOL0     H37754   5.380   1.764   1.573  0.3537  2.7634  2.8032
  280MOL0     H37755   5.227   1.676   1.517 -3.3928  0.7828  1.2391
  280MOL0     H37756   5.280   1.970   1.560  0.7361  1.7174 -3.3407
  280MOL0     H37757   5.143   1.900   1.484  1.0418  1.7680 -1.3384
  280MOL0     H37758   5.439   1.902   1.373  0.8278 -1.0855 -2.8588
  280MOL0     H37759   5.295   1.998   1.321  0.3551  0.0391 -0.4441
  280MOL0     H37760   5.209   1.539   1.300 -0.7905 -0.2102  1.2617
  280MOL0     H37761   4.994   1.461   1.276 -0.9300 -0.6443 -4.3079
  280MOL0     H37762   4.450   1.695   1.126 -1.1671 -0.1162  0.3242
  280MOL0     H37763   4.252   1.619   1.014 -0.0504  1.5298  0.0793
  280MOL0     H37764   4.265   1.380   0.632 -0.2969  2.1931  0.5111
  280MOL0     H37765   4.313   1.245   0.749  0.6068  0.9693  0.4506
  280MOL0     H37766   4.106   1.171   0.663  0.6945 -0.0184 -0.4850
  280MOL0     H37767   4.079   1.243   0.821 -0.8114 -0.7032 -0.1641
  280MOL0     H37768   3.893   1.327   0.671  0.3120  1.3111  1.4995
  280MOL0     H37769   4.002   1.453   0.719 -1.7803  0.7274 -0.5554
  280MOL0     H37770   3.993   1.313   0.442  1.1143  0.1378 -1.6182
  280MOL0     H37771   4.111   1.438   0.496  0.2943 -0.3259  0.1892
  280MOL0     H37772   3.942   1.598   0.515  0.7729 -1.7750  1.3616
  280MOL0     H37773   3.816   1.482   0.480  0.8439 -2.6336 -2.4182
  280MOL0     H37774   4.035   1.522   0.287  0.0022 -0.3119 -0.5937
  280MOL0     H37775   3.863   1.452   0.264 -0.4990  0.2568 -0.3055
  280MOL0     H37776   3.960   1.743   0.304  0.8555 -0.0208 -0.1529
  280MOL0     H37777   3.792   1.693   0.287 -0.3568 -1.3476  2.2093
  280MOL0     H37778   3.897   1.761   0.054  0.1886  0.8282 -0.1326
  280MOL0     H37779   4.038   1.650   0.098 -0.0952  1.1316  2.7440
  280MOL0     H37780   4.500   1.350   0.774 -0.9678 -1.7414  2.1584
  280MOL0     H37781   4.694   1.431   0.877 -0.7654 -1.6285 -0.6429
  280MOL0     H37782   4.880   1.845   1.103 -1.0274  0.2672  2.0984
  280MOL0     H37783   5.100   1.937   1.199  2.3343 -0.3417  1.2836
  280MOL0     H37784   5.590   0.871   2.747 -1.2049  1.3651  1.1205
  280MOL0     H37785   5.397   0.970   2.871  1.3373 -1.6097  0.3204
  280MOL0     H37786   4.820   0.975   2.721 -0.2329 -1.5608  0.5397
  280MOL0     H37787   4.618   1.121   2.724  0.7937 -0.7177 -1.2562
  280MOL0     H37788   4.711   1.541   2.719 -0.4364 -0.2496  1.0436
  280MOL0     H37789   4.637   1.552   2.878 -0.0057 -0.2732  0.4003
  280MOL0     H37790   4.464   1.494   2.634 -0.9972 -0.9385  1.5063
  280MOL0     H37791   4.538   1.657   2.666  1.0534 -0.8790  1.4289
  280MOL0     H37792   4.411   1.685   2.864  1.8320 -0.0597 -0.7459
  280MOL0     H37793   4.373   1.524   2.884  0.8278  1.4955  2.3067
  280MOL0     H37794   4.230   1.517   2.693  3.2589 -2.4012  0.4341
  280MOL0     H37795   4.186   1.640   2.808 -0.8253  3.5192 -2.2741
  280MOL0     H37796   4.292   1.872   2.456 -2.3788 -0.6794 -0.5170
  280MOL0     H37797   4.862   1.448   2.837  5.2964 -0.2587 -2.9216
  280MOL0     H37798   5.068   1.438   2.886 -0.0187 -0.0558  1.4170
  280MOL0     H37799   5.149   1.288   2.909 -1.2225  1.2524  3.2786
  280MOL0     H37800   5.159   1.339   2.753  0.9505 -1.1119  2.0136
  281MOL0     O37801   2.650   9.472   0.406  0.4978 -0.0991  0.4462
  281MOL0     C37802   2.552   9.411   0.359 -0.5032  0.3876 -0.0703
  281MOL0     O37803   2.542   9.354   0.236 -0.2146 -0.1652  0.5967
  281MOL0     C37804   2.625   9.398   0.134  1.0460 -0.0872  0.0873
  281MOL0     C37805   2.672   9.529   0.121 -0.0301 -0.8045  0.6687
  281MOL0     C37806   2.771   9.550   0.018  0.8262  0.0783 -1.2361
  281MOL0     C37807   2.819   9.449  -0.069  0.1431  0.2884  0.3042
  281MOL0     O37808   2.916   9.493  -0.160  0.6359 -0.1344  0.6947
  281MOL0     C37809   2.909   9.439  -0.291 -0.4584  0.3388  0.2149
  281MOL0     C37810   2.773   9.462  -0.351 -0.0528  0.0881  0.0923
  281MOL0     C37811   2.787   9.418  -0.495 -0.0454 -0.6077  0.3100
  281MOL0     C37812   2.718   9.503  -0.594 -0.3632 -0.4095  0.0159
  281MOL0     C37813   2.739   9.455  -0.740  0.0144 -0.5974  0.0961
  281MOL0     C37814   2.712   9.577  -0.829 -0.4795 -0.1328  0.9292
  281MOL0     C37815   2.744   9.543  -0.977 -0.7154  0.2630  0.7130
  281MOL0     C37816   2.698   9.658  -1.067 -0.1367 -0.7781  0.7465
  281MOL0     N37817   2.707   9.629  -1.214  0.2912 -1.1088  0.1125
  281MOL0     C37818   2.635   9.526  -1.270  0.1982 -1.2741 -0.9121
  281MOL0     C37819   2.698   9.489  -1.375 -0.2967 -0.2172  0.9508
  281MOL0     C37820   2.689   9.379  -1.468 -0.0959 -0.2028 -0.4874
  281MOL0     C37821   2.734   9.252  -1.401  0.0169  0.6235  0.2458
  281MOL0     C37822   2.880   9.254  -1.343  0.3251  0.7586  0.3801
  281MOL0     C37823   2.872   9.251  -1.187  0.1413  0.2173 -0.3317
  281MOL0     O37824   2.846   9.123  -1.145 -0.9078  0.2828 -0.6109
  281MOL0     C37825   2.814   9.078  -1.020  0.2236 -0.4480 -0.8846
  281MOL0     C37826   2.827   9.162  -0.908  1.1107  0.1413  1.0111
  281MOL0     C37827   2.786   9.122  -0.779 -0.1953 -0.1237  0.1950
  281MOL0     C37828   2.715   9.002  -0.766 -0.4557  0.0070 -0.0623
  281MOL0     C37829   2.679   8.953  -0.634 -0.8219  0.1100  0.1750
  281MOL0     O37830   2.712   9.031  -0.525  0.2687  0.1886  0.5503
  281MOL0     C37831   2.696   8.986  -0.399 -0.7108  0.3792 -0.5779
  281MOL0     C37832   2.582   8.912  -0.364 -0.2384  0.6489 -0.0134
  281MOL0     C37833   2.558   8.874  -0.230 -1.2470  0.7392 -0.1198
  281MOL0     C37834   2.656   8.903  -0.129  0.4070  0.6933  0.2603
  281MOL0     O37835   2.635   8.862  -0.003 -0.0063  0.0585 -0.1370
  281MOL0     C37836   2.737   8.874   0.104  0.0388 -0.3981 -0.3863
  281MOL0     C37837   2.682   8.834   0.241 -0.3081 -0.1262 -0.7057
  281MOL0     C37838   2.585   8.945   0.289 -0.0050 -0.0037 -0.3807
  281MOL0     C37839   2.535   8.926   0.438 -0.4250  0.3007 -0.2373
  281MOL0     C37840   2.462   9.051   0.488  0.2165 -0.6191  0.3197
  281MOL0     C37841   2.406   9.048   0.628 -0.6189 -0.3443 -0.0433
  281MOL0     C37842   2.509   9.106   0.724  0.6476  0.7308 -0.5263
  281MOL0     C37843   2.458   9.061   0.864 -1.1870 -0.1519  0.4943
  281MOL0    Cl37844   2.495   9.182   0.983  0.1410 -0.5483 -0.0082
  281MOL0     C37845   2.756   8.989  -0.161 -0.5688  1.1128 -0.3392
  281MOL0     C37846   2.779   9.039  -0.293 -0.2101  0.2556 -0.0734
  281MOL0     O37847   2.643   8.837  -0.632 -0.0670  0.0545 -0.4404
  281MOL0     C37848   2.687   8.925  -0.879  0.0016 -0.7047  0.1099
  281MOL0     C37849   2.737   8.961  -1.004  0.3430  0.1722 -0.9783
  281MOL0     N37850   2.813   9.573  -1.392  0.0599  0.6825  0.2105
  281MOL0     N37851   2.818   9.644  -1.286 -0.8351  0.4505 -0.0321
  281MOL0     C37852   2.764   9.319  -0.050 -0.0462  0.0597 -0.6345
  281MOL0     C37853   2.671   9.290   0.053  0.2119 -0.3342 -0.3242
  281MOL0     C37854   2.430   9.410   0.442 -0.5384 -0.1028 -0.2016
  281MOL0     C37855   2.441   9.425   0.585  0.0882  0.3716  0.2324
  281MOL0     C37856   2.333   9.412   0.674  0.8936  0.1559  0.5813
  281MOL0     C37857   2.205   9.390   0.621 -0.5869 -0.2908  0.9966
  281MOL0     O37858   2.088   9.384   0.688 -0.2227 -0.0812 -1.3146
  281MOL0     C37859   2.081   9.423   0.825  0.0605 -0.1636 -0.7145
  281MOL0     C37860   2.070   9.578   0.845 -0.6772  0.3993 -0.0852
  281MOL0     C37861   1.946   9.628   0.774 -0.2224 -0.2508  0.5903
  281MOL0     C37862   1.912   9.774   0.781 -0.3995 -0.2691  0.0295
  281MOL0     C37863   1.872   9.804   0.919 -0.1303  0.2036  0.2817
  281MOL0     C37864   1.859   9.798   1.039 -0.4004  0.5001 -0.4031
  281MOL0     C37865   2.194   9.362   0.483  0.5536  0.3028 -0.0984
  281MOL0     C37866   2.306   9.367   0.396  0.4226  0.6879 -0.4567
  281MOL0     C37867   2.275   9.330   0.251 -0.3938 -0.3103  0.6417
  281MOL0     H37868   2.631   9.593   0.199 -1.0441 -1.0793  0.3856
  281MOL0     H37869   2.820   9.646   0.010 -2.6297  2.5718  2.7900
  281MOL0     H37870   2.982   9.504  -0.341  0.3516 -3.2777 -3.9502
  281MOL0     H37871   2.936   9.333  -0.291 -1.6954  0.0096 -0.2012
  281MOL0     H37872   2.753   9.570  -0.350 -1.3175 -0.1392  0.4518
  281MOL0     H37873   2.704   9.400  -0.294  0.9577 -0.3729  0.8342
  281MOL0     H37874   2.737   9.321  -0.500 -1.0411 -0.0620 -3.1970
  281MOL0     H37875   2.888   9.408  -0.534 -0.5305  0.8882 -1.4746
  281MOL0     H37876   2.609   9.515  -0.583 -0.2897  3.0875 -1.5748
  281MOL0     H37877   2.769   9.599  -0.584 -0.6900  0.0989 -2.4174
  281MOL0     H37878   2.840   9.420  -0.763  0.1898  0.8080 -1.5006
  281MOL0     H37879   2.656   9.384  -0.747  0.3613 -0.8756 -2.6039
  281MOL0     H37880   2.605   9.589  -0.812 -0.9350 -1.1219 -1.0020
  281MOL0     H37881   2.771   9.663  -0.793  1.8109 -1.1536 -0.1695
  281MOL0     H37882   2.690   9.453  -1.008 -0.1249  0.1728 -0.0777
  281MOL0     H37883   2.851   9.530  -0.998 -0.9746 -0.1084 -0.4444
  281MOL0     H37884   2.592   9.676  -1.045  0.1612  0.2803  1.3614
  281MOL0     H37885   2.739   9.758  -1.053 -1.7122  0.3341 -1.7910
  281MOL0     H37886   2.538   9.492  -1.234 -0.0873 -0.2039 -0.6274
  281MOL0     H37887   2.585   9.377  -1.505 -0.6904  0.9219  1.0330
  281MOL0     H37888   2.751   9.391  -1.557 -0.3470 -2.1989 -1.0046
  281MOL0     H37889   2.654   9.231  -1.329 -0.1967 -1.3739 -0.5106
  281MOL0     H37890   2.735   9.173  -1.477 -2.0465  1.7888 -1.0803
  281MOL0     H37891   2.937   9.341  -1.377  2.2557 -0.4066  0.4849
  281MOL0     H37892   2.935   9.175  -1.394 -0.3712  0.0606  0.6860
  281MOL0     H37893   2.792   9.315  -1.148  0.8099  0.4286  0.7374
  281MOL0     H37894   2.967   9.285  -1.145 -0.8515  2.1638  0.4671
  281MOL0     H37895   2.865   9.262  -0.924 -1.4863  0.8925 -1.2206
  281MOL0     H37896   2.805   9.186  -0.694 -0.0472 -0.3820  0.3587
  281MOL0     H37897   2.503   8.881  -0.433 -0.9581  1.5879  0.3631
  281MOL0     H37898   2.475   8.814  -0.195 -2.4207 -0.1923 -3.9683
  281MOL0     H37899   2.823   8.813   0.076  0.4313  1.1689 -2.9165
  281MOL0     H37900   2.778   8.975   0.116 -0.1515 -0.5512  2.1716
  281MOL0     H37901   2.636   8.735   0.252  0.0411 -0.2255 -0.0470
  281MOL0     H37902   2.773   8.829   0.303 -0.3063  1.9456 -0.4784
  281MOL0     H37903   2.628   9.045   0.277  0.1122  0.1247  0.9971
  281MOL0     H37904   2.500   8.951   0.219  0.5302  2.7344 -0.8868
  281MOL0     H37905   2.626   8.921   0.498 -0.9401  1.1874  0.6289
  281MOL0     H37906   2.475   8.834   0.436 -0.2674  0.1831  0.2797
  281MOL0     H37907   2.380   9.064   0.417  0.5606  0.0885  0.0505
  281MOL0     H37908   2.530   9.135   0.474 -1.6100  0.6706 -1.2843
  281MOL0     H37909   2.322   9.117   0.629 -0.0756  0.3736  2.2898
  281MOL0     H37910   2.386   8.941   0.644 -2.4144 -0.7500 -3.9678
  281MOL0     H37911   2.532   9.213   0.714 -2.3612  1.6732  1.3947
  281MOL0     H37912   2.603   9.051   0.721 -1.3873 -3.3187  1.7825
  281MOL0     H37913   2.353   9.032   0.867 -0.8157 -1.5466  0.6165
  281MOL0     H37914   2.517   8.970   0.881  2.1230  1.0318 -3.0796
  281MOL0     H37915   2.831   9.016  -0.087 -1.5817  3.4138 -0.0500
  281MOL0     H37916   2.854   9.113  -0.319  0.6985 -0.0850  1.4860
  281MOL0     H37917   2.612   8.846  -0.878 -1.6549  0.7399 -1.8031
  281MOL0     H37918   2.708   8.902  -1.090  0.1005 -0.6784 -0.3317
  281MOL0     H37919   2.810   9.237  -0.104  0.1413 -0.2775  0.0228
  281MOL0     H37920   2.631   9.189   0.050 -2.1841  0.5580 -1.3979
  281MOL0     H37921   2.539   9.456   0.619  0.4358  2.3504 -2.2616
  281MOL0     H37922   2.352   9.399   0.780  1.2910 -0.2409  0.4646
  281MOL0     H37923   2.169   9.383   0.877 -0.7188 -0.6426  0.2576
  281MOL0     H37924   1.992   9.372   0.863 -0.3078 -0.0272 -1.3746
  281MOL0     H37925   2.153   9.626   0.793  0.9144 -2.1098 -0.0688
  281MOL0     H37926   2.078   9.603   0.951  3.3107 -1.9436  0.3739
  281MOL0     H37927   1.853   9.584   0.811 -1.2672  2.1945  1.0954
  281MOL0     H37928   1.943   9.595   0.670 -0.1276  0.4530  0.3523
  281MOL0     H37929   2.004   9.830   0.765  1.0075 -2.1389  1.1732
  281MOL0     H37930   1.841   9.814   0.708  1.3595  1.8227 -0.6409
  281MOL0     H37931   1.847   9.791   1.145  2.0477  2.1689  0.0625
  281MOL0     H37932   2.094   9.342   0.447  0.0747  1.2771  0.6220
  281MOL0     H37933   2.169   9.339   0.223  0.5036  2.7136 -2.4951
  281MOL0     H37934   2.333   9.397   0.186  1.8750 -2.3969  0.3911
  281MOL0     H37935   2.304   9.226   0.240 -0.9095 -0.6737  2.4405
  282MOL0     O37936   6.351  10.493   9.141 -0.1349  0.0878 -0.1912
  282MOL0     C37937   6.329  10.534   9.031 -0.0001 -0.8499  0.5339
  282MOL0     O37938   6.420  10.596   8.954 -1.0897  0.6664  0.2551
  282MOL0     C37939   6.556  10.586   8.977 -0.5305 -0.0286 -0.3923
  282MOL0     C37940   6.638  10.498   8.895  1.1372 -0.7582 -0.1284
  282MOL0     C37941   6.769  10.474   8.920  0.2140  0.2662 -0.6622
  282MOL0     C37942   6.841  10.554   9.020  0.8541 -0.4733  0.6591
  282MOL0     O37943   6.978  10.541   9.046 -0.2230  0.0417 -0.7278
  282MOL0     C37944   7.063  10.515   8.933  0.3914  0.5829 -0.2105
  282MOL0     C37945   7.140  10.640   8.875 -0.9476  0.6449  0.4947
  282MOL0     C37946   7.048  10.758   8.840 -0.5838 -0.3587 -0.2267
  282MOL0     C37947   7.002  10.741   8.697 -0.1105 -0.8352  0.1219
  282MOL0     C37948   6.887  10.842   8.644  0.6432 -0.0904 -0.3850
  282MOL0     C37949   6.742  10.804   8.689 -0.0577  0.5752 -0.1259
  282MOL0     C37950   6.671  10.935   8.728 -0.5356 -0.3067  0.3867
  282MOL0     C37951   6.523  10.916   8.762  0.0079 -0.2716  0.4158
  282MOL0     N37952   6.449  10.865   8.650  0.6318 -0.2864  0.4610
  282MOL0     C37953   6.419  10.920   8.526  0.0677  0.0199 -0.5087
  282MOL0     C37954   6.333  10.832   8.466 -0.2050  0.4509  0.5100
  282MOL0     C37955   6.263  10.853   8.338  0.0617  0.3383  0.2678
  282MOL0     C37956   6.107  10.829   8.341 -0.7266 -0.2551 -0.1029
  282MOL0     C37957   6.041  10.804   8.204 -0.0288  0.1796  0.8118
  282MOL0     C37958   5.897  10.762   8.221  0.1277  0.0955 -0.4064
  282MOL0     O37959   5.822  10.848   8.310 -0.5228 -0.7476 -0.8134
  282MOL0     C37960   5.758  10.959   8.272 -0.0409 -0.0322  0.1791
  282MOL0     C37961   5.697  11.030   8.380 -1.1417  0.1842 -0.3751
  282MOL0     C37962   5.633  11.147   8.354  0.2935  0.2475 -0.4739
  282MOL0     C37963   5.613  11.190   8.219 -0.2827  0.1178 -0.8367
  282MOL0     C37964   5.547  11.315   8.196 -0.6286 -0.2585  0.1950
  282MOL0     O37965   5.501  11.376   8.306  0.6032 -1.3254 -0.0287
  282MOL0     C37966   5.421  11.491   8.279 -0.6239  0.7611 -0.1249
  282MOL0     C37967   5.481  11.616   8.266  0.3294 -0.0575 -0.7987
  282MOL0     C37968   5.398  11.726   8.233  0.3731  0.6705  0.6627
  282MOL0     C37969   5.261  11.721   8.226  0.2856  0.4311 -0.0282
  282MOL0     O37970   5.199  11.843   8.201  0.0807  0.4759  0.2938
  282MOL0     C37971   5.079  11.825   8.117 -0.0427  0.2152 -0.0354
  282MOL0     C37972   5.046  11.952   8.038  0.0041 -0.0959 -0.1039
  282MOL0     C37973   4.921  11.941   7.943 -0.1779 -0.3483  0.0698
  282MOL0     C37974   4.919  12.058   7.848  0.4059  0.8393  1.0810
  282MOL0     C37975   4.804  12.053   7.749  0.4808 -1.4692 -0.9622
  282MOL0     C37976   4.662  12.041   7.802 -0.1532 -0.6454  0.7240
  282MOL0     C37977   4.608  11.902   7.789  0.6263 -0.7071  0.3502
  282MOL0     C37978   4.534  11.865   7.660 -0.7105 -0.3160 -1.2542
  282MOL0    Cl37979   4.506  11.693   7.662 -0.2912  0.2584 -0.0909
  282MOL0     C37980   5.198  11.592   8.244  0.8592 -0.5407 -0.5579
  282MOL0     C37981   5.283  11.475   8.252 -0.0135 -1.3368 -0.1781
  282MOL0     O37982   5.527  11.347   8.079 -0.6958  0.3824 -0.3194
  282MOL0     C37983   5.658  11.114   8.108 -0.2557  0.0438 -1.3037
  282MOL0     C37984   5.731  10.999   8.138  0.1405 -0.3357 -0.1601
  282MOL0     N37985   6.327  10.714   8.540 -0.5028 -0.0752  0.0121
  282MOL0     N37986   6.402  10.734   8.642  0.2474  0.3202 -0.9098
  282MOL0     C37987   6.764  10.638   9.105 -0.3692  0.4764  0.8858
  282MOL0     C37988   6.625  10.665   9.084 -0.3743  0.2391  0.8825
  282MOL0     C37989   6.198  10.499   8.968  0.1228 -0.0721 -0.4587
  282MOL0     C37990   6.195  10.499   8.832 -0.4826 -0.2495  0.3109
  282MOL0     C37991   6.084  10.446   8.765  0.0168 -0.0584 -0.7951
  282MOL0     C37992   5.972  10.398   8.834  0.6036  0.1449  0.0013
  282MOL0     O37993   5.877  10.339   8.757 -0.7021 -0.4340 -0.4265
  282MOL0     C37994   5.778  10.243   8.816  0.2403  0.9356  0.3468
  282MOL0     C37995   5.696  10.175   8.710 -0.5085 -0.3821 -0.7036
  282MOL0     C37996   5.599  10.271   8.627 -0.3923 -1.0126 -0.2119
  282MOL0     C37997   5.570  10.209   8.489  0.4468 -0.7934  0.0240
  282MOL0     C37998   5.461  10.112   8.511 -0.4028 -0.5824 -0.0039
  282MOL0     C37999   5.385  10.022   8.511 -0.3788 -0.8671 -0.3571
  282MOL0     C38000   5.966  10.415   8.970  0.4652 -1.2218 -0.5177
  282MOL0     C38001   6.087  10.462   9.043 -0.1685  0.8926 -0.0271
  282MOL0     C38002   6.064  10.477   9.187  0.4590 -0.4724 -0.7694
  282MOL0     H38003   6.598  10.445   8.809  2.4874  1.2468 -2.1179
  282MOL0     H38004   6.820  10.398   8.861  0.4839 -1.3600  1.5334
  282MOL0     H38005   7.144  10.448   8.963 -1.2737 -1.7732 -0.6866
  282MOL0     H38006   7.008  10.468   8.851  1.1901  0.4888 -0.7061
  282MOL0     H38007   7.192  10.608   8.784  0.1276 -1.6653  1.8355
  282MOL0     H38008   7.219  10.681   8.939  4.3323 -2.0698 -3.5174
  282MOL0     H38009   7.100  10.854   8.846  0.6426 -0.7509 -2.8451
  282MOL0     H38010   6.961  10.763   8.906 -0.2329 -0.7152  0.2689
  282MOL0     H38011   7.083  10.767   8.627 -1.1045  0.1036 -0.7188
  282MOL0     H38012   6.970  10.642   8.666 -1.2079  0.2128 -2.3976
  282MOL0     H38013   6.900  10.937   8.698 -4.4433  0.5287  0.2257
  282MOL0     H38014   6.891  10.855   8.536 -0.0711 -2.3839 -0.7443
  282MOL0     H38015   6.700  10.735   8.616  2.7048 -1.0641 -0.2994
  282MOL0     H38016   6.746  10.741   8.778  0.9083 -0.5476 -0.9188
  282MOL0     H38017   6.687  11.005   8.646  0.4327  0.5526  1.2713
  282MOL0     H38018   6.720  10.977   8.817 -3.6527  2.5250  0.9472
  282MOL0     H38019   6.516  10.849   8.848  2.0510 -1.7875 -0.5213
  282MOL0     H38020   6.483  11.014   8.789 -4.9771 -1.8094 -0.2783
  282MOL0     H38021   6.451  11.020   8.501  1.1619  0.2861  1.7499
  282MOL0     H38022   6.284  10.953   8.300  4.5745 -0.3031  0.5085
  282MOL0     H38023   6.306  10.788   8.261 -2.4592 -2.0420  0.7000
  282MOL0     H38024   6.085  10.748   8.411 -0.2336 -1.6972 -1.5462
  282MOL0     H38025   6.075  10.924   8.385  1.1130  0.3158  0.0570
  282MOL0     H38026   6.095  10.724   8.152  0.1869  0.1686  1.0491
  282MOL0     H38027   6.059  10.897   8.150  1.8026  1.5427  3.5392
  282MOL0     H38028   5.900  10.663   8.269 -0.3215 -1.0762 -2.6504
  282MOL0     H38029   5.853  10.744   8.123 -1.1138 -0.8994  0.3039
  282MOL0     H38030   5.698  10.998   8.483  0.6970 -1.4171 -0.8296
  282MOL0     H38031   5.602  11.203   8.442 -1.0941 -1.1714 -0.0083
  282MOL0     H38032   5.589  11.625   8.269  0.3084  0.5624 -1.5148
  282MOL0     H38033   5.450  11.819   8.213  3.2881 -0.7332  1.2574
  282MOL0     H38034   5.092  11.747   8.041  1.9227  1.4014 -0.9977
  282MOL0     H38035   4.999  11.784   8.179  3.9165 -1.6889  4.4681
  282MOL0     H38036   5.029  12.035   8.106 -0.1933 -1.2622  1.3216
  282MOL0     H38037   5.133  11.974   7.975 -0.1591 -0.4510 -0.4624
  282MOL0     H38038   4.924  11.851   7.882  1.0677  0.5433 -1.2355
  282MOL0     H38039   4.829  11.936   8.002  0.5491 -0.9084  1.2058
  282MOL0     H38040   5.011  12.046   7.791  0.3316  0.2446  1.0824
  282MOL0     H38041   4.922  12.152   7.906 -1.6750  0.7495  1.4347
  282MOL0     H38042   4.831  11.974   7.679  1.7201  0.1056 -2.3562
  282MOL0     H38043   4.808  12.147   7.693 -4.0488  0.9799  2.2141
  282MOL0     H38044   4.654  12.093   7.897  1.1514  1.4512 -0.2545
  282MOL0     H38045   4.598  12.098   7.733 -1.9271  1.2300  3.7153
  282MOL0     H38046   4.542  11.881   7.874  1.0983  2.1700  1.5452
  282MOL0     H38047   4.699  11.840   7.791 -0.0981 -1.7773  1.2099
  282MOL0     H38048   4.441  11.921   7.654 -1.9751 -2.0997  0.4717
  282MOL0     H38049   4.585  11.899   7.570 -0.5299  0.4783 -0.8683
  282MOL0     H38050   5.090  11.594   8.231  0.2074  1.7955  3.4504
  282MOL0     H38051   5.235  11.378   8.256 -3.5478  0.0843 -2.6380
  282MOL0     H38052   5.626  11.142   8.008 -4.8725 -0.6814 -0.2537
  282MOL0     H38053   5.761  10.956   8.044 -2.2745 -1.0204 -0.6996
  282MOL0     H38054   6.804  10.677   9.198 -0.2483  0.5145  0.8186
  282MOL0     H38055   6.570  10.726   9.155 -0.8393  2.1243 -0.9978
  282MOL0     H38056   6.288  10.518   8.779 -0.7455  0.7086  0.1662
  282MOL0     H38057   6.095  10.430   8.658 -3.4420 -6.0716 -0.6910
  282MOL0     H38058   5.706  10.292   8.882  0.1086  0.8827  0.2411
  282MOL0     H38059   5.836  10.169   8.873 -1.6331 -0.4274  0.5780
  282MOL0     H38060   5.645  10.085   8.747  1.4701 -0.7604  1.3055
  282MOL0     H38061   5.762  10.154   8.625  1.6960  1.5940  0.4235
  282MOL0     H38062   5.650  10.365   8.604 -0.8488 -0.3138  1.4704
  282MOL0     H38063   5.509  10.297   8.684  1.3493  2.4994  1.2539
  282MOL0     H38064   5.533  10.295   8.432  4.3301  0.0777 -1.4914
  282MOL0     H38065   5.654  10.161   8.438 -0.0822  1.2422 -3.0424
  282MOL0     H38066   5.300   9.959   8.518 -1.0569  0.1496  1.1769
  282MOL0     H38067   5.880  10.376   9.022  1.0520 -2.5230 -0.4750
  282MOL0     H38068   5.964  10.439   9.211  0.1825  1.2858  1.1283
  282MOL0     H38069   6.135  10.426   9.252  0.0488 -1.8013 -1.3199
  282MOL0     H38070   6.068  10.586   9.199  0.3224 -0.1275 -3.2870
  283MOL0     O38071   6.614   4.032   1.583  0.1895  0.0506 -0.1100
  283MOL0     C38072   6.728   3.997   1.621 -0.1660 -0.5108  0.4434
  283MOL0     O38073   6.764   3.928   1.738  0.2742 -0.3399 -0.1130
  283MOL0     C38074   6.655   3.899   1.812  0.3480 -1.9439 -0.6950
  283MOL0     C38075   6.632   3.760   1.845 -0.1614 -0.4581 -0.3244
  283MOL0     C38076   6.522   3.719   1.918 -0.3508 -0.0485  0.8245
  283MOL0     C38077   6.433   3.817   1.968  0.1325  0.6607  0.3201
  283MOL0     O38078   6.341   3.777   2.057 -0.4634  0.5080  0.0686
  283MOL0     C38079   6.223   3.699   2.017 -0.5609  0.0780  0.9205
  283MOL0     C38080   6.106   3.802   1.995 -0.8479  0.2793  0.5485
  283MOL0     C38081   6.045   3.827   2.133 -1.0232  0.0709  0.5244
  283MOL0     C38082   5.909   3.898   2.130 -0.6273  0.4417  0.5572
  283MOL0     C38083   5.874   3.977   2.252  0.2336  0.1246  0.3973
  283MOL0     C38084   5.720   3.996   2.277 -0.8596  0.3685 -0.5189
  283MOL0     C38085   5.707   4.089   2.407  0.3471 -0.5384 -0.5627
  283MOL0     C38086   5.700   4.019   2.550 -0.2520  0.0236  0.0275
  283MOL0     N38087   5.648   4.114   2.658  0.5917  0.1704  0.2617
  283MOL0     C38088   5.669   4.248   2.669  1.1365 -0.4602  1.7379
  283MOL0     C38089   5.593   4.287   2.769  0.5339  0.1353  0.4023
  283MOL0     C38090   5.583   4.436   2.815  0.1194  0.3605  0.4449
  283MOL0     C38091   5.700   4.477   2.907 -0.0526 -0.5253 -0.0151
  283MOL0     C38092   5.666   4.513   3.051 -0.0647  0.9749 -0.0901
  283MOL0     C38093   5.787   4.531   3.141 -0.8345 -0.2050  0.5214
  283MOL0     O38094   5.897   4.597   3.070 -0.5874 -0.0083  0.5247
  283MOL0     C38095   5.880   4.729   3.041 -0.2366  0.2066  0.7094
  283MOL0     C38096   5.968   4.784   2.953  0.0360  0.2237  0.1322
  283MOL0     C38097   5.958   4.922   2.919 -0.6634  0.4199 -0.6298
  283MOL0     C38098   5.849   5.001   2.965 -0.8430 -0.4022 -0.4546
  283MOL0     C38099   5.833   5.137   2.913 -0.2043  0.0009  0.3552
  283MOL0     O38100   5.935   5.185   2.838  0.6650 -0.1264 -1.0548
  283MOL0     C38101   5.951   5.310   2.783 -0.5476 -0.4752  0.8643
  283MOL0     C38102   5.877   5.423   2.816  0.0257  0.0694 -0.3622
  283MOL0     C38103   5.916   5.543   2.756  0.1066  0.1258  0.5702
  283MOL0     C38104   6.003   5.546   2.645  0.0687 -1.2406 -0.4274
  283MOL0     O38105   6.021   5.665   2.579 -0.5166 -0.2408 -0.0592
  283MOL0     C38106   6.154   5.712   2.593 -0.3804 -1.1327 -0.3631
  283MOL0     C38107   6.155   5.832   2.695 -0.3056 -0.1803  0.1480
  283MOL0     C38108   6.195   5.960   2.616  0.0291  0.0137  0.0176
  283MOL0     C38109   6.097   6.066   2.667 -0.1697 -0.1622 -0.3116
  283MOL0     C38110   6.142   6.201   2.615  0.3018  0.7677 -0.1603
  283MOL0     C38111   6.047   6.311   2.655 -0.3373 -0.3072 -0.0963
  283MOL0     C38112   6.082   6.447   2.607 -0.1838 -0.6024 -0.4218
  283MOL0     C38113   6.187   6.526   2.691  0.8836 -0.1344 -0.0401
  283MOL0    Cl38114   6.119   6.595   2.827  0.2638 -0.0641 -0.1680
  283MOL0     C38115   6.072   5.430   2.618  0.3131  0.1200  0.5318
  283MOL0     C38116   6.050   5.315   2.689  0.2137 -0.3226  0.2532
  283MOL0     O38117   5.726   5.201   2.929 -0.1154 -0.3244  0.3710
  283MOL0     C38118   5.766   4.944   3.063 -0.3272  0.7699 -0.2816
  283MOL0     C38119   5.775   4.807   3.090  0.1179 -0.0488  0.9910
  283MOL0     N38120   5.532   4.179   2.831  0.5707  0.3793  0.7995
  283MOL0     N38121   5.556   4.078   2.755  0.7536 -0.0752 -0.0686
  283MOL0     C38122   6.459   3.955   1.950  0.3140  0.8471  0.4179
  283MOL0     C38123   6.570   3.992   1.870 -0.7437 -0.7751 -0.7857
  283MOL0     C38124   6.835   4.048   1.529  0.2172  1.1500  0.2827
  283MOL0     C38125   6.786   4.078   1.397 -0.4801 -0.6007 -0.6848
  283MOL0     C38126   6.876   4.112   1.296 -0.9360 -0.3583  0.4710
  283MOL0     C38127   7.010   4.132   1.314 -0.1190 -0.4050 -0.6035
  283MOL0     O38128   7.083   4.179   1.211  0.2962 -0.5346  0.8063
  283MOL0     C38129   7.207   4.238   1.221  0.3295  0.0054 -0.7474
  283MOL0     C38130   7.255   4.257   1.075 -0.2075  0.2959 -0.2708
  283MOL0     C38131   7.181   4.381   1.014 -0.2563  0.2932 -0.2887
  283MOL0     C38132   7.217   4.426   0.868 -1.3432 -0.0308  0.5009
  283MOL0     C38133   7.178   4.311   0.787 -0.1095  0.4181  0.3408
  283MOL0     C38134   7.140   4.221   0.716  0.6769  0.0326 -0.5564
  283MOL0     C38135   7.053   4.108   1.445 -0.0212 -0.5620  0.5427
  283MOL0     C38136   6.974   4.052   1.549 -0.0729  0.0632  0.3425
  283MOL0     C38137   7.040   4.013   1.674  0.4296 -0.2443 -0.6892
  283MOL0     H38138   6.691   3.684   1.796 -1.8365  0.5547 -4.2553
  283MOL0     H38139   6.507   3.611   1.920  0.6607 -0.2462 -0.5268
  283MOL0     H38140   6.256   3.647   1.927  1.4860  2.5847  0.1009
  283MOL0     H38141   6.200   3.623   2.093 -2.6550 -1.7421 -1.3404
  283MOL0     H38142   6.042   3.744   1.929  1.2036 -1.6160  0.1134
  283MOL0     H38143   6.141   3.897   1.953  1.0071  1.0639  3.5587
  283MOL0     H38144   6.112   3.873   2.206 -0.6849 -2.9511  2.2489
  283MOL0     H38145   6.024   3.728   2.175  3.8017 -1.2960  0.2409
  283MOL0     H38146   5.896   3.966   2.045 -0.7848  0.1591  0.3533
  283MOL0     H38147   5.833   3.823   2.106 -1.5088  2.2639 -2.9199
  283MOL0     H38148   5.923   3.925   2.334  1.5243  1.0401  0.2378
  283MOL0     H38149   5.925   4.069   2.220 -3.2834  1.0364 -3.4412
  283MOL0     H38150   5.686   4.050   2.188 -0.1769  1.5461 -0.0928
  283MOL0     H38151   5.673   3.898   2.271  2.4003 -1.2950 -1.5152
  283MOL0     H38152   5.606   4.130   2.398  0.4636  0.0193  0.5811
  283MOL0     H38153   5.770   4.178   2.404  0.5308 -0.6807 -1.0726
  283MOL0     H38154   5.648   3.924   2.537  2.0907 -1.2864 -0.3652
  283MOL0     H38155   5.803   4.003   2.582 -0.0261  0.4926 -0.4481
  283MOL0     H38156   5.726   4.305   2.595 -0.9399 -0.5513 -0.0181
  283MOL0     H38157   5.596   4.500   2.727  6.5575  0.1651  0.7364
  283MOL0     H38158   5.490   4.471   2.859  0.0402  3.9745 -2.1241
  283MOL0     H38159   5.774   4.397   2.910  0.1472 -0.3190  1.5853
  283MOL0     H38160   5.740   4.563   2.853 -1.4854 -0.8864 -1.7519
  283MOL0     H38161   5.609   4.434   3.099  1.1782  0.2681  0.2538
  283MOL0     H38162   5.596   4.598   3.049 -0.5760  0.6101  1.2190
  283MOL0     H38163   5.812   4.433   3.181 -1.4326 -1.7807 -2.6582
  283MOL0     H38164   5.770   4.591   3.231  2.5455  0.7850  0.6410
  283MOL0     H38165   6.048   4.724   2.910  1.1421  0.8239  1.2899
  283MOL0     H38166   6.034   4.968   2.857  0.3690  1.3034  1.2117
  283MOL0     H38167   5.812   5.417   2.903 -1.5340  0.2578 -1.4638
  283MOL0     H38168   5.879   5.631   2.808 -1.9456 -0.2979 -0.0751
  283MOL0     H38169   6.234   5.642   2.619  0.8659  0.9691  1.8548
  283MOL0     H38170   6.177   5.741   2.490  1.8216  1.9145  0.8722
  283MOL0     H38171   6.054   5.841   2.735 -1.5845 -4.0824 -1.7303
  283MOL0     H38172   6.207   5.817   2.790  0.2835  0.5120 -0.0597
  283MOL0     H38173   6.303   5.976   2.626  0.0063 -0.8505  2.2285
  283MOL0     H38174   6.167   5.944   2.511 -1.1404 -0.8399  0.4373
  283MOL0     H38175   6.105   6.071   2.776  2.9330  7.5035 -0.2842
  283MOL0     H38176   5.992   6.042   2.648 -0.0790 -1.1779  0.3398
  283MOL0     H38177   6.154   6.196   2.506 -0.6980  3.3025 -0.4446
  283MOL0     H38178   6.238   6.231   2.658 -0.2583  3.2543 -0.5226
  283MOL0     H38179   5.947   6.290   2.616 -0.7559  0.2055  0.6662
  283MOL0     H38180   6.037   6.304   2.764 -1.9431 -0.9262 -0.2543
  283MOL0     H38181   5.988   6.502   2.615 -0.5737 -1.4537  1.9009
  283MOL0     H38182   6.118   6.435   2.505  1.3843  2.5532 -0.3753
  283MOL0     H38183   6.267   6.456   2.715 -1.0729 -3.6512 -2.7928
  283MOL0     H38184   6.229   6.609   2.633  3.2245 -0.8098  0.5750
  283MOL0     H38185   6.133   5.435   2.529  3.0097  0.3758  2.2649
  283MOL0     H38186   6.090   5.218   2.664  0.8589  0.2690 -1.0928
  283MOL0     H38187   5.687   5.008   3.100 -0.0204 -0.7797  3.5244
  283MOL0     H38188   5.685   4.765   3.135 -2.4056  1.8347 -1.8989
  283MOL0     H38189   6.395   4.028   1.997 -0.6813  0.9537 -1.0700
  283MOL0     H38190   6.584   4.098   1.851 -2.5939 -0.2830  0.3139
  283MOL0     H38191   6.685   4.065   1.361 -2.0188  0.3759  2.8153
  283MOL0     H38192   6.844   4.133   1.195  0.7343  0.5777  0.0927
  283MOL0     H38193   7.277   4.176   1.279 -0.6391 -1.1370 -0.7588
  283MOL0     H38194   7.200   4.336   1.270  2.0331 -0.6313  0.9113
  283MOL0     H38195   7.237   4.155   1.040 -0.0359 -0.4188  1.5993
  283MOL0     H38196   7.363   4.268   1.061  0.2186 -3.1568 -0.5481
  283MOL0     H38197   7.206   4.469   1.073  1.9118  0.6548 -1.6280
  283MOL0     H38198   7.073   4.380   1.033 -0.2223  3.6410  0.7463
  283MOL0     H38199   7.166   4.518   0.839  2.3250  2.2141  0.5199
  283MOL0     H38200   7.323   4.451   0.855 -1.3050 -0.3565  0.1724
  283MOL0     H38201   7.099   4.142   0.656  0.6583  1.1803 -2.1294
  283MOL0     H38202   7.158   4.119   1.470  0.1343 -4.2433  2.1140
  283MOL0     H38203   7.149   4.008   1.659  0.5784  1.7021 -0.5030
  283MOL0     H38204   7.021   4.080   1.758 -1.6648 -2.2981  0.6092
  283MOL0     H38205   7.004   3.914   1.705 -0.3158 -0.2377 -1.5078
  284MOL0     O38206   8.573   9.297   2.888 -0.0919  0.5016  0.0967
  284MOL0     C38207   8.463   9.324   2.923  0.3640  0.0052 -0.3322
  284MOL0     O38208   8.401   9.268   3.033  0.8162  0.2794 -0.2885
  284MOL0     C38209   8.454   9.150   3.063  0.6089 -0.4644 -0.5295
  284MOL0     C38210   8.374   9.035   3.045  0.0163  0.2335  0.2004
  284MOL0     C38211   8.417   8.908   3.079 -0.1519  0.0104 -0.1486
  284MOL0     C38212   8.543   8.894   3.124  0.2053  1.1314  0.6423
  284MOL0     O38213   8.610   8.779   3.166  0.2439 -0.5585 -0.4786
  284MOL0     C38214   8.609   8.657   3.087 -0.5632 -0.3739 -0.2909
  284MOL0     C38215   8.655   8.535   3.163  0.3696  0.5603  0.8986
  284MOL0     C38216   8.543   8.478   3.254  0.8482 -1.0164  0.1916
  284MOL0     C38217   8.600   8.402   3.368  0.2646  0.0491 -0.0565
  284MOL0     C38218   8.487   8.334   3.445 -0.3796 -0.2101 -1.0398
  284MOL0     C38219   8.513   8.302   3.598 -0.0699 -0.5002 -0.1024
  284MOL0     C38220   8.558   8.425   3.676 -0.0128  0.2167  0.3590
  284MOL0     C38221   8.446   8.528   3.691 -0.0501  0.2496  0.4293
  284MOL0     N38222   8.351   8.475   3.793  0.0854 -0.5557  0.6608
  284MOL0     C38223   8.236   8.398   3.759 -0.1660 -0.8410  0.0516
  284MOL0     C38224   8.168   8.375   3.873  0.8577 -0.4878  0.5354
  284MOL0     C38225   8.041   8.297   3.893 -1.1427 -0.2503 -0.2226
  284MOL0     C38226   7.925   8.389   3.896 -0.4873 -0.0611 -1.2605
  284MOL0     C38227   7.802   8.302   3.900  0.7436  0.0170  0.2566
  284MOL0     C38228   7.671   8.373   3.945 -0.2698 -0.4224 -0.3025
  284MOL0     O38229   7.559   8.280   3.915 -0.6009 -0.3918  0.1166
  284MOL0     C38230   7.442   8.301   3.971  0.6509  0.3828  0.2466
  284MOL0     C38231   7.407   8.414   4.038  1.3372 -0.2573 -0.6872
  284MOL0     C38232   7.275   8.432   4.098 -0.7954 -0.2967 -0.0651
  284MOL0     C38233   7.180   8.333   4.084 -0.5045 -0.0377 -0.0535
  284MOL0     C38234   7.047   8.340   4.157 -0.0263 -0.6958 -0.0521
  284MOL0     O38235   7.018   8.467   4.214  0.3028 -0.1573 -0.3422
  284MOL0     C38236   6.894   8.494   4.268 -0.0523 -0.0643 -0.1543
  284MOL0     C38237   6.824   8.405   4.352 -0.6343  0.2072  0.5528
  284MOL0     C38238   6.709   8.438   4.418  1.0715 -0.3143 -0.5577
  284MOL0     C38239   6.658   8.571   4.408  0.5552 -0.1798 -0.2832
  284MOL0     O38240   6.550   8.607   4.492  0.1494  0.1913  0.1784
  284MOL0     C38241   6.526   8.746   4.508  0.0810 -0.8300  0.1431
  284MOL0     C38242   6.425   8.786   4.616 -0.4645  0.4472 -0.0354
  284MOL0     C38243   6.481   8.777   4.758 -0.3733 -0.4009  0.6515
  284MOL0     C38244   6.359   8.803   4.841  0.5700 -0.7692 -0.9886
  284MOL0     C38245   6.394   8.789   4.985  0.7045  0.1074 -0.8863
  284MOL0     C38246   6.290   8.830   5.076  0.3712 -0.4355 -0.5885
  284MOL0     C38247   6.343   8.843   5.220 -0.4023 -0.1701 -0.6616
  284MOL0     C38248   6.264   8.956   5.290 -0.5618 -0.4210 -0.8936
  284MOL0    Cl38249   6.098   8.892   5.293  0.0672 -0.0551  0.1517
  284MOL0     C38250   6.725   8.659   4.328 -0.4059  0.6132 -0.3582
  284MOL0     C38251   6.850   8.622   4.269 -0.9698  0.8401  0.8227
  284MOL0     O38252   6.970   8.246   4.166 -0.0157  0.0942  0.0414
  284MOL0     C38253   7.215   8.212   4.013 -0.6777 -0.5989  0.4141
  284MOL0     C38254   7.339   8.197   3.951 -0.3353 -0.2543 -0.0385
  284MOL0     N38255   8.242   8.428   3.979 -0.4390  0.0531  0.4948
  284MOL0     N38256   8.350   8.477   3.928 -0.3153 -0.3929 -0.6042
  284MOL0     C38257   8.622   9.012   3.143  0.8955  0.5801 -0.1747
  284MOL0     C38258   8.575   9.138   3.115 -0.1901 -0.1509  0.2374
  284MOL0     C38259   8.384   9.406   2.837 -0.2501 -0.7603 -1.1434
  284MOL0     C38260   8.288   9.482   2.895 -0.5123  0.1212  0.7503
  284MOL0     C38261   8.199   9.560   2.808 -1.5341  0.5970 -0.3504
  284MOL0     C38262   8.202   9.552   2.667 -0.5223  0.8855 -0.7482
  284MOL0     O38263   8.120   9.628   2.592  0.5518  0.7006 -0.2441
  284MOL0     C38264   8.059   9.557   2.485 -0.7626  0.6776 -0.1781
  284MOL0     C38265   7.959   9.451   2.547  0.0584  0.0383  0.9121
  284MOL0     C38266   7.848   9.427   2.441 -0.0825  0.2995  0.0480
  284MOL0     C38267   7.738   9.331   2.484  0.2668 -0.0379 -1.0185
  284MOL0     C38268   7.637   9.316   2.382 -0.4112  0.4541  0.6480
  284MOL0     C38269   7.567   9.282   2.291 -0.1053  0.2426  0.1760
  284MOL0     C38270   8.292   9.462   2.613  0.4931  0.1419 -0.0019
  284MOL0     C38271   8.388   9.398   2.699 -0.6060 -0.3005  1.2456
  284MOL0     C38272   8.487   9.310   2.618 -0.5296  0.3082  0.1441
  284MOL0     H38273   8.274   9.047   3.004  1.3395 -0.9375 -3.7947
  284MOL0     H38274   8.358   8.819   3.059 -1.5201  0.6161  1.0278
  284MOL0     H38275   8.507   8.632   3.058 -0.8006  0.3834 -0.1304
  284MOL0     H38276   8.673   8.676   3.001  0.8840  0.4335  0.9140
  284MOL0     H38277   8.739   8.573   3.222 -0.4106  0.5278  2.0672
  284MOL0     H38278   8.696   8.455   3.100 -0.8098  0.6119  0.0312
  284MOL0     H38279   8.477   8.412   3.196  1.1250 -0.6755 -0.5250
  284MOL0     H38280   8.466   8.547   3.289 -3.4594 -3.5749 -3.1262
  284MOL0     H38281   8.676   8.333   3.332  0.7361  0.9935 -0.9292
  284MOL0     H38282   8.659   8.473   3.427  0.5403 -0.9744  0.9394
  284MOL0     H38283   8.400   8.399   3.431 -1.7294 -1.9537 -0.9988
  284MOL0     H38284   8.465   8.239   3.395  1.2767  0.0463 -2.3688
  284MOL0     H38285   8.420   8.267   3.645 -1.6488  1.5041 -1.5379
  284MOL0     H38286   8.589   8.224   3.609 -1.3972 -1.8853 -0.4051
  284MOL0     H38287   8.647   8.478   3.640 -0.9016  1.2594 -0.3564
  284MOL0     H38288   8.582   8.393   3.778 -0.8869  0.4685  0.6577
  284MOL0     H38289   8.483   8.621   3.734 -3.2394  3.3940 -2.8957
  284MOL0     H38290   8.394   8.565   3.602 -1.9888  3.9021  2.8500
  284MOL0     H38291   8.212   8.374   3.656 -1.6405  0.1791  0.1285
  284MOL0     H38292   8.045   8.221   3.814  3.5220  0.9745 -1.4946
  284MOL0     H38293   8.047   8.240   3.986  2.0369  0.3041  0.0403
  284MOL0     H38294   7.931   8.446   3.989  0.0531 -1.1175 -0.6340
  284MOL0     H38295   7.922   8.466   3.817  0.8242 -0.1260 -1.3821
  284MOL0     H38296   7.822   8.215   3.962  0.3322  1.4026  2.4137
  284MOL0     H38297   7.797   8.270   3.795  0.6938  1.4260 -0.1893
  284MOL0     H38298   7.657   8.462   3.884  0.5493 -0.9123 -1.2371
  284MOL0     H38299   7.665   8.407   4.049 -2.3855  0.9137 -0.8152
  284MOL0     H38300   7.465   8.505   4.040 -1.7506  1.8769 -0.6944
  284MOL0     H38301   7.249   8.517   4.159 -2.9377 -2.2812  1.9655
  284MOL0     H38302   6.870   8.308   4.365  1.1473  0.3137 -3.4543
  284MOL0     H38303   6.654   8.366   4.476 -0.0772 -0.9695 -2.3654
  284MOL0     H38304   6.621   8.796   4.528  0.4016 -1.7496  0.9914
  284MOL0     H38305   6.481   8.785   4.416 -2.2654 -0.8293  1.2129
  284MOL0     H38306   6.385   8.885   4.596  1.2240  1.5087  1.4764
  284MOL0     H38307   6.341   8.716   4.616 -1.0034  0.8102  4.0881
  284MOL0     H38308   6.509   8.673   4.778 -1.0499 -0.6974  0.0999
  284MOL0     H38309   6.559   8.849   4.783  1.1770 -1.3426 -1.2120
  284MOL0     H38310   6.275   8.737   4.816  0.5448 -0.5173 -1.5984
  284MOL0     H38311   6.335   8.909   4.832  3.3562  0.0673  0.4355
  284MOL0     H38312   6.484   8.846   5.009  1.4211 -1.1758 -0.4400
  284MOL0     H38313   6.418   8.683   4.999 -2.5337 -1.1640 -3.5444
  284MOL0     H38314   6.253   8.926   5.039  0.5236 -0.4096 -0.6719
  284MOL0     H38315   6.209   8.756   5.078  0.6396 -0.7262  1.5186
  284MOL0     H38316   6.451   8.861   5.228 -0.9142  3.2893 -0.0757
  284MOL0     H38317   6.328   8.746   5.268 -0.7922  0.3840  0.3598
  284MOL0     H38318   6.301   8.984   5.390  0.3603  0.5374 -1.4834
  284MOL0     H38319   6.269   9.043   5.224 -1.3099  1.2311  1.0856
  284MOL0     H38320   6.711   8.767   4.324 -1.0731  0.5233 -0.5458
  284MOL0     H38321   6.903   8.694   4.206 -2.5696  0.7568 -0.7008
  284MOL0     H38322   7.137   8.142   3.985 -0.0438 -1.1713  0.0687
  284MOL0     H38323   7.354   8.108   3.890  0.4332  1.5936 -2.7278
  284MOL0     H38324   8.726   8.992   3.167  0.9129 -0.4631 -1.0454
  284MOL0     H38325   8.638   9.224   3.136  2.0090 -2.0091  1.7292
  284MOL0     H38326   8.283   9.488   3.003  0.8722  1.0683  0.7926
  284MOL0     H38327   8.135   9.623   2.868 -0.7927 -0.6410  1.8288
  284MOL0     H38328   8.132   9.519   2.413  0.9458  0.9496  1.3270
  284MOL0     H38329   7.992   9.626   2.434  0.6488  3.6465  1.7215
  284MOL0     H38330   7.916   9.476   2.644 -1.8124  1.6231 -0.2468
  284MOL0     H38331   8.017   9.360   2.561 -0.7113 -1.1482 -2.5800
  284MOL0     H38332   7.902   9.382   2.357 -0.9549  0.9776 -0.8971
  284MOL0     H38333   7.798   9.512   2.394 -0.3959 -1.4461 -3.1075
  284MOL0     H38334   7.785   9.234   2.495  1.9465  0.8651  0.1476
  284MOL0     H38335   7.689   9.360   2.577  1.2722 -0.7251 -0.2594
  284MOL0     H38336   7.497   9.225   2.235 -0.7518 -0.0574  1.2530
  284MOL0     H38337   8.300   9.446   2.506  2.9147 -2.4811  0.4428
  284MOL0     H38338   8.469   9.318   2.511 -2.4483 -1.0392  0.3079
  284MOL0     H38339   8.591   9.335   2.641 -0.2125 -0.4488 -0.4468
  284MOL0     H38340   8.479   9.204   2.645  1.6338  0.9225  4.0066
  285MOL0     O38341   8.794  11.450  10.252  0.0291  0.4043  0.0358
  285MOL0     C38342   8.768  11.569  10.262  0.1377 -0.3045  0.7760
  285MOL0     O38343   8.786  11.656  10.159 -0.3948 -0.3965 -0.3075
  285MOL0     C38344   8.835  11.617  10.047 -0.2014 -0.4793 -0.2239
  285MOL0     C38345   8.740  11.609   9.947 -0.4196 -0.7051  0.4619
  285MOL0     C38346   8.774  11.573   9.814 -0.0828  0.0656 -0.0905
  285MOL0     C38347   8.911  11.573   9.782 -0.4558  0.1353 -0.5006
  285MOL0     O38348   8.944  11.557   9.650 -0.0996  0.0217 -0.6803
  285MOL0     C38349   9.081  11.591   9.608 -0.3638 -0.2955 -0.3126
  285MOL0     C38350   9.094  11.587   9.458  0.3998 -0.3998  1.2119
  285MOL0     C38351   9.246  11.577   9.412  0.5544 -0.2812 -0.9969
  285MOL0     C38352   9.235  11.552   9.262 -0.2878 -0.0767 -0.2356
  285MOL0     C38353   9.351  11.459   9.220  0.8982 -0.2831 -0.2998
  285MOL0     C38354   9.357  11.448   9.063  0.1194 -0.4867  0.7904
  285MOL0     C38355   9.479  11.360   9.037  0.4494  0.3885  0.5565
  285MOL0     C38356   9.612  11.431   8.989 -0.2014  0.3935 -0.4010
  285MOL0     N38357   9.618  11.438   8.845  0.7899 -1.7534  0.3450
  285MOL0     C38358   9.543  11.521   8.764 -0.2313  0.5629  0.2817
  285MOL0     C38359   9.607  11.528   8.650  0.4379 -0.4903 -0.1528
  285MOL0     C38360   9.556  11.615   8.541 -1.0909 -0.5966  0.7250
  285MOL0     C38361   9.438  11.556   8.471  0.4946 -0.1319  0.9945
  285MOL0     C38362   9.461  11.406   8.432  0.1383 -0.0334  0.4334
  285MOL0     C38363   9.585  11.376   8.347 -0.5570 -0.9693  0.2130
  285MOL0     O38364   9.591  11.485   8.245  0.3707  0.7006 -0.0776
  285MOL0     C38365   9.680  11.451   8.148 -0.2098 -0.3831  1.3596
  285MOL0     C38366   9.816  11.423   8.167  1.3742  0.2717 -0.8651
  285MOL0     C38367   9.883  11.387   8.057 -0.6241 -0.2170 -0.3173
  285MOL0     C38368   9.840  11.402   7.922  0.0050  0.7945 -0.5598
  285MOL0     C38369   9.942  11.384   7.817  0.2163 -0.3786  0.2986
  285MOL0     O38370   9.922  11.443   7.691  0.1343 -0.7085  0.4963
  285MOL0     C38371   9.994  11.410   7.580  1.4950  0.2392  0.5726
  285MOL0     C38372   9.999  11.492   7.473  0.2990 -0.6660  0.5858
  285MOL0     C38373  10.057  11.455   7.354 -0.9655  0.0291  0.4412
  285MOL0     C38374  10.121  11.328   7.340 -0.1808 -0.8589  0.7117
  285MOL0     O38375  10.185  11.297   7.219  1.1565 -0.3252  0.0312
  285MOL0     C38376  10.321  11.323   7.205  0.0927 -0.2619  0.1688
  285MOL0     C38377  10.399  11.187   7.189  0.1060 -0.4516 -0.5635
  285MOL0     C38378  10.545  11.216   7.175  0.4416 -0.0765  0.3215
  285MOL0     C38379  10.572  11.237   7.024 -0.5747 -0.0950  0.3441
  285MOL0     C38380  10.719  11.240   7.005  1.3152 -0.3789 -0.0501
  285MOL0     C38381  10.775  11.095   7.008  0.3329  0.2514 -0.4694
  285MOL0     C38382  10.934  11.084   7.017 -0.2662  0.6528  1.0496
  285MOL0     C38383  10.987  11.015   6.894 -0.0457  0.5035  0.7419
  285MOL0    Cl38384  10.973  11.136   6.754 -0.2440  0.3883 -0.0349
  285MOL0     C38385  10.112  11.239   7.441  0.0803 -0.3940  0.3000
  285MOL0     C38386  10.039  11.275   7.557 -1.0939 -0.0769 -0.6110
  285MOL0     O38387  10.038  11.310   7.847  0.0644 -0.6421  0.0345
  285MOL0     C38388   9.709  11.444   7.905  0.5403 -0.2675 -0.0050
  285MOL0     C38389   9.630  11.465   8.019 -0.2640  0.4096 -0.2168
  285MOL0     N38390   9.717  11.447   8.654  0.3449 -0.2887  0.2719
  285MOL0     N38391   9.719  11.389   8.765  0.2506 -0.6035  0.2173
  285MOL0     C38392   9.000  11.580   9.885 -0.2272  0.5163  0.2260
  285MOL0     C38393   8.970  11.594  10.015  0.4124  1.3047  0.0819
  285MOL0     C38394   8.723  11.625  10.390 -0.2195 -0.5912  0.9271
  285MOL0     C38395   8.749  11.767  10.411 -0.9142 -0.1262 -1.0782
  285MOL0     C38396   8.714  11.828  10.536  0.9292 -0.0381  0.6888
  285MOL0     C38397   8.648  11.752  10.629  0.2457  0.4463  0.4555
  285MOL0     O38398   8.604  11.782  10.758 -0.5461 -0.1889  0.5739
  285MOL0     C38399   8.611  11.924  10.800 -1.3271 -0.0849  0.3535
  285MOL0     C38400   8.478  12.002  10.752 -0.6468 -0.2862 -0.8943
  285MOL0     C38401   8.346  11.965  10.828  0.0714 -0.0690  0.2622
  285MOL0     C38402   8.239  12.054  10.778 -0.1176 -0.0980 -0.5326
  285MOL0     C38403   8.114  11.988  10.783 -0.1750  0.7902  0.1093
  285MOL0     C38404   8.006  11.930  10.780  0.3707 -0.5526 -0.3155
  285MOL0     C38405   8.633  11.623  10.602 -0.8478  0.3115 -0.3282
  285MOL0     C38406   8.668  11.553  10.496 -0.7321 -0.4086  0.1138
  285MOL0     C38407   8.619  11.406  10.490  0.3027 -0.3532 -0.0527
  285MOL0     H38408   8.639  11.646   9.957  0.6141  3.7377 -2.5407
  285MOL0     H38409   8.693  11.562   9.742  0.5088  0.2906 -0.7916
  285MOL0     H38410   9.110  11.692   9.639  1.1639 -0.8750  0.2340
  285MOL0     H38411   9.153  11.523   9.654 -1.5997 -1.1348  0.4649
  285MOL0     H38412   9.036  11.673   9.422 -2.0294 -1.5519  2.1548
  285MOL0     H38413   9.047  11.493   9.427  1.9473 -0.4853 -1.1922
  285MOL0     H38414   9.294  11.494   9.465 -0.7256 -0.4971 -0.1054
  285MOL0     H38415   9.307  11.663   9.440 -0.7209 -0.3009  2.3002
  285MOL0     H38416   9.147  11.499   9.224  0.7252 -1.2093 -1.1074
  285MOL0     H38417   9.243  11.643   9.201  3.0452 -1.2045 -1.7623
  285MOL0     H38418   9.445  11.506   9.250  1.6353  0.1312 -3.0234
  285MOL0     H38419   9.331  11.370   9.280 -0.6129  0.2708  0.0781
  285MOL0     H38420   9.266  11.398   9.028  0.6000 -0.4878 -0.5449
  285MOL0     H38421   9.364  11.546   9.016 -1.4830  0.0247  1.5636
  285MOL0     H38422   9.449  11.296   8.953  1.9585  1.6745 -1.0419
  285MOL0     H38423   9.501  11.293   9.121 -2.0791  0.3161  1.2426
  285MOL0     H38424   9.632  11.527   9.037  1.4703 -0.1652  0.0740
  285MOL0     H38425   9.686  11.355   9.013 -0.2353  1.1036  2.2440
  285MOL0     H38426   9.452  11.577   8.783  0.3550  1.0090  1.9182
  285MOL0     H38427   9.530  11.713   8.581  0.1730  0.2193 -0.3621
  285MOL0     H38428   9.641  11.623   8.472 -1.2020 -0.7784  0.5641
  285MOL0     H38429   9.354  11.568   8.540  0.9523 -1.0897  1.7377
  285MOL0     H38430   9.412  11.615   8.382 -2.3212 -1.2729  0.9741
  285MOL0     H38431   9.378  11.371   8.370  0.0122 -0.2771  0.7371
  285MOL0     H38432   9.464  11.343   8.522 -1.8967 -0.7788  0.0358
  285MOL0     H38433   9.588  11.281   8.293 -0.2841 -0.9495  0.1881
  285MOL0     H38434   9.670  11.375   8.415 -0.0660 -1.0551 -0.3880
  285MOL0     H38435   9.864  11.399   8.261  4.3149 -0.3995 -2.4108
  285MOL0     H38436   9.978  11.337   8.075  0.0986  0.0559 -2.9100
  285MOL0     H38437   9.982  11.598   7.483  0.5301 -0.4947 -0.6971
  285MOL0     H38438  10.078  11.524   7.273  2.3991  0.0935  1.2196
  285MOL0     H38439  10.326  11.396   7.124 -2.1955  0.9058  0.9693
  285MOL0     H38440  10.361  11.384   7.287 -2.2029 -0.4562  1.5323
  285MOL0     H38441  10.376  11.127   7.277 -0.4820  3.2551  2.0465
  285MOL0     H38442  10.357  11.141   7.098  1.5908 -2.6543 -0.2126
  285MOL0     H38443  10.573  11.304   7.234  0.1973 -0.8167  1.5605
  285MOL0     H38444  10.596  11.130   7.219 -0.2384  0.0641  1.4191
  285MOL0     H38445  10.528  11.326   6.978 -1.5503 -1.4355 -1.3963
  285MOL0     H38446  10.534  11.153   6.966 -0.4297  1.7904 -2.6768
  285MOL0     H38447  10.759  11.302   7.085 -0.1786  2.3809 -1.2840
  285MOL0     H38448  10.734  11.298   6.913 -0.6886 -0.3422 -0.4008
  285MOL0     H38449  10.743  11.049   7.102 -1.4569  1.4177 -0.4795
  285MOL0     H38450  10.725  11.029   6.937 -1.4980 -1.9450  2.6379
  285MOL0     H38451  10.967  11.040   7.112 -3.1465  1.5215  2.5456
  285MOL0     H38452  10.986  11.179   7.008  1.2339 -0.0522  1.8696
  285MOL0     H38453  11.093  10.989   6.906  0.5785  0.6019 -3.2846
  285MOL0     H38454  10.938  10.921   6.868  4.4366 -1.5262 -1.5543
  285MOL0     H38455  10.148  11.139   7.419  0.0562  0.1253 -2.4461
  285MOL0     H38456  10.014  11.202   7.634 -1.1003  1.5492  0.9770
  285MOL0     H38457   9.651  11.472   7.817 -3.4536  0.7742  2.6852
  285MOL0     H38458   9.533  11.512   8.009 -0.0522  1.2570  1.4180
  285MOL0     H38459   9.103  11.555   9.866 -1.1615 -1.1434 -3.5939
  285MOL0     H38460   9.034  11.608  10.101 -1.9643 -4.0137  3.2376
  285MOL0     H38461   8.808  11.818  10.336  0.4213  1.6870  1.0593
  285MOL0     H38462   8.735  11.934  10.548  0.4217  0.4326 -1.8922
  285MOL0     H38463   8.690  11.980  10.749  0.2867 -2.3536  0.2041
  285MOL0     H38464   8.621  11.930  10.909  0.8782 -2.5431  0.3774
  285MOL0     H38465   8.455  11.973  10.648 -4.4199  0.0723 -0.2945
  285MOL0     H38466   8.492  12.109  10.764 -0.2220 -0.2094 -1.9143
  285MOL0     H38467   8.352  11.968  10.937 -0.2794  0.7305  0.2691
  285MOL0     H38468   8.319  11.860  10.816  1.1117 -0.3059 -0.1888
  285MOL0     H38469   8.233  12.142  10.843 -0.0749  1.1909 -2.2238
  285MOL0     H38470   8.266  12.083  10.676  1.0116 -2.2876 -0.9283
  285MOL0     H38471   7.915  11.877  10.799 -0.8210  1.9013  1.2724
  285MOL0     H38472   8.573  11.572  10.677 -3.2573  1.8868 -1.0713
  285MOL0     H38473   8.523  11.395  10.543 -0.2021  0.5863 -0.7471
  285MOL0     H38474   8.606  11.386  10.383  5.6467 -3.6286 -0.4334
  285MOL0     H38475   8.698  11.344  10.534  0.8964 -0.8943 -1.8121
  286MOL0     O38476   0.151   3.477   8.159  0.2020  0.3776 -0.0599
  286MOL0     C38477   0.049   3.517   8.216 -0.2015  1.2817  0.0129
  286MOL0     O38478  -0.050   3.591   8.161 -0.5317 -0.2591 -0.7826
  286MOL0     C38479  -0.030   3.620   8.031  0.0726  0.8793 -0.0877
  286MOL0     C38480  -0.063   3.530   7.924  0.0260  0.6282 -0.4823
  286MOL0     C38481  -0.059   3.577   7.791 -0.3149  0.4435 -0.6061
  286MOL0     C38482  -0.011   3.705   7.767  0.6792  0.5960 -0.2971
  286MOL0     O38483  -0.018   3.760   7.643 -0.1114 -0.0889 -0.0782
  286MOL0     C38484  -0.153   3.778   7.586  0.2813 -0.6385 -0.0491
  286MOL0     C38485  -0.153   3.840   7.441  0.0623  0.0452  0.6541
  286MOL0     C38486  -0.170   3.988   7.427  0.9009  0.2728  0.4505
  286MOL0     C38487  -0.322   4.021   7.420  0.5338  0.6656 -1.2840
  286MOL0     C38488  -0.345   4.165   7.439 -0.1174 -0.2043 -0.1572
  286MOL0     C38489  -0.317   4.259   7.316 -0.1224  0.5958 -0.4127
  286MOL0     C38490  -0.390   4.400   7.324  0.2366  0.8168 -0.3245
  286MOL0     C38491  -0.313   4.508   7.404  0.8132 -0.2473  0.1083
  286MOL0     N38492  -0.336   4.504   7.550  0.7713  0.5952 -0.3163
  286MOL0     C38493  -0.466   4.515   7.609 -0.0676  0.1845 -0.5329
  286MOL0     C38494  -0.453   4.468   7.733  0.1178  0.0730  0.2621
  286MOL0     C38495  -0.546   4.471   7.853 -0.2508  0.2696  0.2401
  286MOL0     C38496  -0.533   4.588   7.949  0.4069 -0.4366  0.1756
  286MOL0     C38497  -0.567   4.722   7.890 -0.3782 -0.4292  1.4822
  286MOL0     C38498  -0.559   4.847   7.989  0.7213 -0.0795 -0.1180
  286MOL0     O38499  -0.636   4.951   7.926 -0.1067 -0.0088  0.1512
  286MOL0     C38500  -0.622   5.074   7.986 -0.4961  1.2398  0.6097
  286MOL0     C38501  -0.623   5.185   7.897 -0.5000  0.8928  0.1454
  286MOL0     C38502  -0.599   5.319   7.938 -0.0759 -0.2233 -0.2742
  286MOL0     C38503  -0.607   5.342   8.079 -0.7356  0.0204 -1.0201
  286MOL0     C38504  -0.618   5.477   8.130 -0.4641 -0.0870  0.1054
  286MOL0     O38505  -0.637   5.491   8.258 -0.1587  0.7424  0.1237
  286MOL0     C38506  -0.610   5.621   8.310 -0.1715 -0.0876  0.1741
  286MOL0     C38507  -0.492   5.691   8.286 -0.1030 -0.1178 -0.1810
  286MOL0     C38508  -0.466   5.822   8.336  0.2753  0.8950 -0.0183
  286MOL0     C38509  -0.578   5.888   8.402  0.0124  0.9069 -0.3463
  286MOL0     O38510  -0.578   6.024   8.404 -0.3765  0.0935 -0.5853
  286MOL0     C38511  -0.660   6.085   8.305  0.0855  0.0776  0.5701
  286MOL0     C38512  -0.789   6.131   8.358  0.7792 -0.4786 -0.9034
  286MOL0     C38513  -0.877   6.174   8.228 -1.5672  0.1368 -0.2116
  286MOL0     C38514  -0.979   6.276   8.274 -0.2726 -0.0144 -0.4370
  286MOL0     C38515  -1.123   6.219   8.283 -1.0019 -0.0219  0.4798
  286MOL0     C38516  -1.231   6.327   8.296 -0.1497 -0.7599 -0.0937
  286MOL0     C38517  -1.367   6.270   8.328 -0.5516 -0.2499 -0.4416
  286MOL0     C38518  -1.474   6.378   8.343 -0.3881 -1.1276 -0.3399
  286MOL0    Cl38519  -1.495   6.444   8.180 -0.0360  0.2017  0.5746
  286MOL0     C38520  -0.696   5.813   8.429  0.7374  0.1748 -0.8505
  286MOL0     C38521  -0.704   5.678   8.392 -0.7528 -0.2559 -0.0321
  286MOL0     O38522  -0.622   5.573   8.052  0.0028  0.6463 -0.2005
  286MOL0     C38523  -0.595   5.236   8.165  0.1316  1.1030 -0.2146
  286MOL0     C38524  -0.600   5.100   8.117 -0.5529  0.9891 -0.3888
  286MOL0     N38525  -0.320   4.424   7.746 -0.2712  0.2460  0.0940
  286MOL0     N38526  -0.252   4.448   7.638 -0.6413 -0.5469  0.3312
  286MOL0     C38527   0.031   3.791   7.868 -0.3452  0.9471 -0.6045
  286MOL0     C38528   0.018   3.750   7.995 -0.4519  0.1330 -0.4621
  286MOL0     C38529   0.023   3.480   8.361 -0.0956 -0.3334 -0.1774
  286MOL0     C38530  -0.107   3.464   8.411 -0.1549  0.6084 -0.3242
  286MOL0     C38531  -0.135   3.404   8.534  0.0185 -0.4014  0.7043
  286MOL0     C38532  -0.034   3.369   8.621  0.6580  0.3187  1.0479
  286MOL0     O38533  -0.039   3.314   8.745 -0.1066  0.0566 -0.5873
  286MOL0     C38534  -0.173   3.288   8.798  0.6939  0.6671  0.0966
  286MOL0     C38535  -0.170   3.224   8.945 -0.5154  0.4149  0.1335
  286MOL0     C38536  -0.323   3.237   8.990 -0.2138 -0.0943  0.0843
  286MOL0     C38537  -0.337   3.200   9.138 -0.2067  0.0508  1.5006
  286MOL0     C38538  -0.478   3.177   9.168  0.3632  0.5557 -0.0535
  286MOL0     C38539  -0.601   3.171   9.198  0.5103 -0.6024 -0.5076
  286MOL0     C38540   0.097   3.389   8.571  0.9101 -0.4403 -0.2582
  286MOL0     C38541   0.126   3.447   8.453 -0.6236 -0.7867  0.1306
  286MOL0     C38542   0.268   3.494   8.430 -0.6241  0.7521  0.5294
  286MOL0     H38543  -0.082   3.427   7.950  1.6552  0.9750  2.4494
  286MOL0     H38544  -0.086   3.510   7.710 -2.8529 -2.1785  2.1450
  286MOL0     H38545  -0.202   3.680   7.579  3.5822 -2.4478  0.0737
  286MOL0     H38546  -0.211   3.847   7.648 -1.1901 -0.3691 -1.6628
  286MOL0     H38547  -0.220   3.786   7.374  0.8119  1.6708 -1.5113
  286MOL0     H38548  -0.051   3.824   7.405 -0.6031 -0.2027 -1.1864
  286MOL0     H38549  -0.125   4.017   7.331  0.5625 -5.6776 -1.9108
  286MOL0     H38550  -0.120   4.037   7.511 -0.7537  1.9964  0.4882
  286MOL0     H38551  -0.362   3.994   7.322  0.6034 -1.8745 -0.6889
  286MOL0     H38552  -0.373   3.955   7.491 -1.0295 -0.7919 -3.6458
  286MOL0     H38553  -0.452   4.170   7.461  0.3789  1.7355  2.2394
  286MOL0     H38554  -0.285   4.200   7.523  0.4755  0.1724 -0.7215
  286MOL0     H38555  -0.208   4.270   7.304 -0.2097  1.4745 -0.5015
  286MOL0     H38556  -0.347   4.206   7.225  0.8240  2.3272 -1.8017
  286MOL0     H38557  -0.487   4.381   7.372 -0.0303 -1.1141 -1.5358
  286MOL0     H38558  -0.406   4.450   7.229 -2.4993 -0.8105 -0.8318
  286MOL0     H38559  -0.204   4.496   7.403  1.2335  2.5661  1.5293
  286MOL0     H38560  -0.351   4.604   7.367 -4.7563 -0.8883  3.0017
  286MOL0     H38561  -0.556   4.552   7.561 -1.1445 -1.2619  0.3158
  286MOL0     H38562  -0.649   4.477   7.815 -0.3970 -0.3858  0.5110
  286MOL0     H38563  -0.545   4.373   7.902 -3.4757  0.8279  1.6665
  286MOL0     H38564  -0.603   4.567   8.030 -1.0239 -0.4516 -1.0134
  286MOL0     H38565  -0.435   4.587   7.995  0.5182  0.7623 -0.0175
  286MOL0     H38566  -0.670   4.721   7.854  0.5118  0.5566 -1.3033
  286MOL0     H38567  -0.502   4.737   7.804 -2.0620 -2.2237 -0.2177
  286MOL0     H38568  -0.456   4.877   8.012  0.5465  1.0705 -0.7930
  286MOL0     H38569  -0.609   4.824   8.084 -0.3112 -1.0450 -0.8700
  286MOL0     H38570  -0.628   5.163   7.791  1.1394  1.1274 -0.0118
  286MOL0     H38571  -0.592   5.399   7.866  0.8458 -0.9862 -1.0723
  286MOL0     H38572  -0.422   5.635   8.225 -0.9383  1.3591 -2.6490
  286MOL0     H38573  -0.377   5.880   8.311  0.1894  0.3892 -1.6197
  286MOL0     H38574  -0.609   6.180   8.287 -0.1037  0.4950  2.1420
  286MOL0     H38575  -0.667   6.021   8.216  3.3287 -1.4997  1.3122
  286MOL0     H38576  -0.843   6.059   8.421 -1.9011  3.4204  1.7957
  286MOL0     H38577  -0.768   6.223   8.413  1.3465 -0.1053 -1.7215
  286MOL0     H38578  -0.811   6.219   8.154 -0.3965 -0.4700  0.4386
  286MOL0     H38579  -0.941   6.094   8.188 -3.2782  1.1915  0.2829
  286MOL0     H38580  -0.981   6.375   8.228  1.0900  1.8120  3.0661
  286MOL0     H38581  -0.962   6.320   8.372 -0.5921  1.3869 -0.9945
  286MOL0     H38582  -1.129   6.147   8.365  1.0117 -1.8539 -0.8520
  286MOL0     H38583  -1.137   6.150   8.200 -1.3195  0.4729  0.1154
  286MOL0     H38584  -1.222   6.416   8.359  0.8340 -1.1000  0.2657
  286MOL0     H38585  -1.242   6.371   8.196  1.7644  0.1603  0.0505
  286MOL0     H38586  -1.357   6.216   8.423  2.2185 -3.4245 -2.3498
  286MOL0     H38587  -1.399   6.204   8.247 -0.1637  1.2351 -1.8712
  286MOL0     H38588  -1.562   6.322   8.377  0.2441 -1.3296  1.0093
  286MOL0     H38589  -1.446   6.457   8.413 -1.2582  0.0459 -1.2605
  286MOL0     H38590  -0.778   5.865   8.476 -0.9689 -3.4256  0.5004
  286MOL0     H38591  -0.790   5.614   8.409 -0.7948 -0.6637 -1.5945
  286MOL0     H38592  -0.606   5.250   8.272  2.5902  2.6299 -0.0924
  286MOL0     H38593  -0.609   5.023   8.193  1.5745  0.1491 -0.9123
  286MOL0     H38594   0.066   3.893   7.852  0.7777  1.0004  1.7494
  286MOL0     H38595   0.063   3.808   8.074  4.0573 -1.7102 -1.3533
  286MOL0     H38596  -0.191   3.486   8.345 -0.2726  1.6656  0.1606
  286MOL0     H38597  -0.236   3.390   8.571 -0.9864 -1.0490 -2.0686
  286MOL0     H38598  -0.228   3.220   8.732  3.0028 -1.2584  0.0075
  286MOL0     H38599  -0.221   3.386   8.799 -0.9905 -0.1050 -0.4647
  286MOL0     H38600  -0.095   3.275   9.007 -1.4364  2.4781 -0.3611
  286MOL0     H38601  -0.142   3.119   8.950  2.6278  1.1753  0.7322
  286MOL0     H38602  -0.381   3.170   8.925  0.6260 -1.0500  0.2957
  286MOL0     H38603  -0.361   3.338   8.972  0.2292 -0.3321 -2.7088
  286MOL0     H38604  -0.272   3.115   9.160  0.6771  0.2204 -0.3361
  286MOL0     H38605  -0.299   3.289   9.189 -2.3812  2.0044 -0.1082
  286MOL0     H38606  -0.704   3.150   9.221  1.0393 -1.0415  1.6553
  286MOL0     H38607   0.177   3.372   8.643  0.6753  0.8585  0.3388
  286MOL0     H38608   0.317   3.419   8.368 -2.7153 -1.0559  0.9774
  286MOL0     H38609   0.269   3.588   8.374  3.2229 -0.2142 -1.3426
  286MOL0     H38610   0.319   3.506   8.527  0.0623  2.1351  0.0332
  287MOL0     O38611   5.078   3.718   9.143  0.1801  0.5207 -0.1209
  287MOL0     C38612   4.994   3.638   9.192 -0.8193 -0.2936  0.7917
  287MOL0     O38613   4.870   3.681   9.241 -0.0035  0.5740  0.3102
  287MOL0     C38614   4.838   3.812   9.212  0.9053  0.1083  0.5840
  287MOL0     C38615   4.854   3.903   9.321 -0.4297  0.8123 -0.3002
  287MOL0     C38616   4.822   4.041   9.306 -0.6791  0.4317 -0.4533
  287MOL0     C38617   4.792   4.083   9.179  0.0129 -0.6692 -0.0165
  287MOL0     O38618   4.800   4.220   9.159 -0.5712  0.4496  0.5563
  287MOL0     C38619   4.726   4.278   9.052 -0.0206 -0.6803 -0.5034
  287MOL0     C38620   4.822   4.309   8.933 -0.1944 -0.4102 -0.2580
  287MOL0     C38621   4.921   4.428   8.969 -0.5674 -0.0347 -0.3767
  287MOL0     C38622   4.996   4.476   8.846  0.4189 -0.6455 -0.3759
  287MOL0     C38623   5.134   4.544   8.879 -0.4594 -0.4234  0.0218
  287MOL0     C38624   5.221   4.592   8.768  0.9161  0.6445 -0.8534
  287MOL0     C38625   5.251   4.486   8.665 -0.2653  0.2759  0.5591
  287MOL0     C38626   5.354   4.379   8.704 -0.5734  0.0788  0.1346
  287MOL0     N38627   5.389   4.298   8.588  0.4423  0.3836  0.3189
  287MOL0     C38628   5.466   4.349   8.486 -0.4883 -0.1885  0.1959
  287MOL0     C38629   5.492   4.239   8.406 -0.3712 -0.3561 -0.0761
  287MOL0     C38630   5.560   4.234   8.271 -0.4127 -0.2042 -0.4564
  287MOL0     C38631   5.640   4.098   8.240 -0.1114 -0.6696 -0.6443
  287MOL0     C38632   5.767   4.102   8.319  0.5726  0.1605  0.5157
  287MOL0     C38633   5.845   3.978   8.285 -0.0817 -0.0742  1.2271
  287MOL0     O38634   5.961   3.956   8.358 -0.5437  0.4843  0.1224
  287MOL0     C38635   6.083   4.003   8.315 -1.1597 -0.5206 -0.3124
  287MOL0     C38636   6.200   3.945   8.375 -0.2822  1.0428  0.8802
  287MOL0     C38637   6.322   3.991   8.338 -0.9990 -0.6455 -0.3460
  287MOL0     C38638   6.343   4.106   8.254 -0.2421 -0.5723  0.9794
  287MOL0     C38639   6.478   4.148   8.208  0.4155  0.3188  1.0300
  287MOL0     O38640   6.568   4.035   8.209  0.1738 -0.1253 -0.4928
  287MOL0     C38641   6.692   4.034   8.154 -0.1326 -0.0839  0.4685
  287MOL0     C38642   6.793   4.121   8.205 -0.0598  0.1212  0.4614
  287MOL0     C38643   6.926   4.117   8.155 -0.6096 -0.5502  0.5130
  287MOL0     C38644   6.958   4.027   8.056 -0.6043  0.3136 -0.5171
  287MOL0     O38645   7.082   4.024   8.009 -0.3173  0.0032  0.8228
  287MOL0     C38646   7.195   4.049   8.086  0.1310 -0.2867 -0.6246
  287MOL0     C38647   7.252   4.194   8.065  0.5238  0.1952 -0.4037
  287MOL0     C38648   7.365   4.219   8.175 -0.2489 -0.5972 -0.2131
  287MOL0     C38649   7.410   4.367   8.173  0.3473  0.4497 -0.2345
  287MOL0     C38650   7.527   4.391   8.270 -0.3333 -0.8198 -0.0209
  287MOL0     C38651   7.580   4.536   8.261  0.4896  1.1664 -0.2738
  287MOL0     C38652   7.722   4.560   8.323 -0.1262 -0.0015  1.0026
  287MOL0     C38653   7.721   4.693   8.402 -0.2914  0.7787 -0.2858
  287MOL0    Cl38654   7.880   4.710   8.474  0.2578 -0.7567 -0.1905
  287MOL0     C38655   6.860   3.937   7.999 -0.5705 -0.3537 -1.3197
  287MOL0     C38656   6.730   3.948   8.049  0.9637  0.4253  0.7692
  287MOL0     O38657   6.503   4.253   8.160  0.2566 -0.1739  0.5474
  287MOL0     C38658   6.231   4.166   8.195 -0.2129  0.0295 -0.5512
  287MOL0     C38659   6.105   4.113   8.232  0.3307 -0.1016 -0.0573
  287MOL0     N38660   5.444   4.130   8.480 -0.1210  0.3838  0.4740
  287MOL0     N38661   5.368   4.166   8.583  0.2892  0.4469 -0.6867
  287MOL0     C38662   4.765   3.986   9.070  0.0879 -0.2564 -0.2564
  287MOL0     C38663   4.789   3.854   9.089 -0.2298 -0.6539  0.3040
  287MOL0     C38664   5.031   3.490   9.196 -0.0596 -1.7795 -0.5394
  287MOL0     C38665   4.929   3.407   9.218  0.2054 -0.3869 -0.6904
  287MOL0     C38666   4.947   3.266   9.214 -0.6149 -0.5898  0.4824
  287MOL0     C38667   5.075   3.218   9.189 -0.9735  1.1874 -1.4307
  287MOL0     O38668   5.108   3.082   9.193  0.7437 -0.4028 -0.0367
  287MOL0     C38669   5.011   2.978   9.194 -0.8677 -0.3556  0.9949
  287MOL0     C38670   5.073   2.841   9.212  0.6819  0.0399 -0.4482
  287MOL0     C38671   5.189   2.813   9.111 -0.0509  0.2411  0.2682
  287MOL0     C38672   5.246   2.671   9.114 -0.2728 -0.7434  0.7631
  287MOL0     C38673   5.290   2.625   9.245  0.0743 -0.6268 -0.3942
  287MOL0     C38674   5.333   2.596   9.359 -0.1411  0.4406  1.4292
  287MOL0     C38675   5.183   3.306   9.178  0.5694  1.2555 -0.1945
  287MOL0     C38676   5.165   3.444   9.168  0.3333 -1.0206  0.6577
  287MOL0     C38677   5.290   3.531   9.157 -0.8460 -0.9994  0.0064
  287MOL0     H38678   4.879   3.867   9.420 -0.5899 -0.0809 -0.5734
  287MOL0     H38679   4.843   4.102   9.394 -1.8082 -0.8321  0.7464
  287MOL0     H38680   4.644   4.217   9.011 -1.8009  1.0356  0.3392
  287MOL0     H38681   4.664   4.362   9.084  1.1366  0.2435 -0.6309
  287MOL0     H38682   4.751   4.340   8.855 -2.3607 -1.3271  1.2611
  287MOL0     H38683   4.873   4.217   8.905 -0.7322 -0.1702 -2.1768
  287MOL0     H38684   5.000   4.396   9.038 -2.4148  0.3193  2.0456
  287MOL0     H38685   4.854   4.499   9.018 -3.6443 -1.6934 -1.8748
  287MOL0     H38686   5.013   4.381   8.794 -1.8893 -0.3775 -1.7529
  287MOL0     H38687   4.945   4.555   8.791 -1.3355 -2.1050 -0.9429
  287MOL0     H38688   5.102   4.630   8.938 -0.4504 -0.7325  0.4754
  287MOL0     H38689   5.181   4.469   8.943 -0.9280  1.2271  2.4309
  287MOL0     H38690   5.166   4.674   8.721  2.0165  0.0643 -3.3439
  287MOL0     H38691   5.317   4.638   8.795  0.7518  0.4448  0.0897
  287MOL0     H38692   5.284   4.540   8.576 -3.8887 -0.7584 -1.6168
  287MOL0     H38693   5.168   4.428   8.624  1.0018 -0.3006 -1.2937
  287MOL0     H38694   5.444   4.426   8.746 -0.8838 -1.6942  3.0367
  287MOL0     H38695   5.314   4.314   8.783  1.4132 -1.4571 -0.0544
  287MOL0     H38696   5.510   4.448   8.481  1.0332 -0.6761  2.2841
  287MOL0     H38697   5.474   4.236   8.203 -0.5688 -0.3537 -0.2656
  287MOL0     H38698   5.624   4.320   8.252 -0.5783 -0.0924 -0.5091
  287MOL0     H38699   5.580   4.010   8.265 -0.1160 -0.7778 -1.0258
  287MOL0     H38700   5.666   4.099   8.133  3.4888  0.6937  0.0994
  287MOL0     H38701   5.755   4.104   8.427  0.7809  1.4256  0.5205
  287MOL0     H38702   5.826   4.189   8.288 -0.4866  0.7915  0.2375
  287MOL0     H38703   5.867   3.975   8.178 -0.6920 -1.8526  1.1219
  287MOL0     H38704   5.782   3.891   8.306 -0.0107 -0.3051  0.4966
  287MOL0     H38705   6.199   3.867   8.450  1.0695 -0.0266 -0.1644
  287MOL0     H38706   6.418   3.949   8.365 -0.0278  0.4249 -1.9320
  287MOL0     H38707   6.765   4.189   8.285 -1.0987  0.0400  0.1853
  287MOL0     H38708   7.007   4.184   8.183 -0.3560  0.0545 -1.4777
  287MOL0     H38709   7.170   4.022   8.189 -4.0115 -0.8186 -1.6138
  287MOL0     H38710   7.281   3.987   8.057 -0.6391 -1.2506 -0.9079
  287MOL0     H38711   7.302   4.205   7.969  1.1931  1.8128  0.0900
  287MOL0     H38712   7.174   4.271   8.071 -0.9548 -1.2736  0.1465
  287MOL0     H38713   7.311   4.185   8.264  1.9499 -1.6279  0.7985
  287MOL0     H38714   7.458   4.161   8.169 -1.3281 -2.3765 -0.5221
  287MOL0     H38715   7.321   4.427   8.196  0.3383  0.2813  0.1818
  287MOL0     H38716   7.439   4.391   8.070  1.9959 -0.5557 -0.0461
  287MOL0     H38717   7.600   4.326   8.222  1.3237  1.0945 -0.2365
  287MOL0     H38718   7.517   4.361   8.375  0.4002  0.0345  0.3099
  287MOL0     H38719   7.583   4.568   8.157 -1.2668 -0.1123 -0.7681
  287MOL0     H38720   7.511   4.599   8.318  0.5311  0.2078  0.8701
  287MOL0     H38721   7.801   4.554   8.248  0.1850 -2.6819  1.4655
  287MOL0     H38722   7.748   4.470   8.379 -1.5692 -0.8030  0.4355
  287MOL0     H38723   7.704   4.775   8.332  0.3164  1.0134 -0.1555
  287MOL0     H38724   7.642   4.700   8.477  0.0835 -0.1272  0.2063
  287MOL0     H38725   6.893   3.864   7.926 -0.8578  1.5552 -3.4975
  287MOL0     H38726   6.653   3.889   7.999  0.9539  2.2938 -1.6274
  287MOL0     H38727   6.251   4.230   8.110  5.5994  0.9469  1.0623
  287MOL0     H38728   6.011   4.130   8.181  0.4868 -0.2128 -0.3892
  287MOL0     H38729   4.739   4.015   8.969 -1.0506  0.7026  0.2817
  287MOL0     H38730   4.750   3.797   9.006 -2.7214  2.8199 -1.1770
  287MOL0     H38731   4.827   3.436   9.241  1.1259  1.0649  1.9094
  287MOL0     H38732   4.857   3.210   9.236  0.5035 -3.0298 -0.7968
  287MOL0     H38733   4.965   2.989   9.095 -0.3543 -0.8016  0.6989
  287MOL0     H38734   4.941   3.004   9.274 -0.0623  1.1927  1.2297
  287MOL0     H38735   4.992   2.767   9.207  0.4444  0.2767 -0.1548
  287MOL0     H38736   5.111   2.850   9.314 -1.3899  2.4628  0.2263
  287MOL0     H38737   5.260   2.893   9.130 -2.6116  2.9213 -0.6694
  287MOL0     H38738   5.147   2.829   9.011  2.5970  0.6462 -0.8628
  287MOL0     H38739   5.164   2.603   9.091 -2.3569  1.9613 -0.3389
  287MOL0     H38740   5.321   2.664   9.035 -2.3828  0.3458 -1.4885
  287MOL0     H38741   5.368   2.561   9.454  0.5861  2.8638  2.1225
  287MOL0     H38742   5.274   3.253   9.156 -1.3208 -1.9326 -0.9869
  287MOL0     H38743   5.292   3.605   9.237  1.1243 -1.2769  0.2704
  287MOL0     H38744   5.378   3.467   9.160 -1.0505 -1.3043 -0.4110
  287MOL0     H38745   5.286   3.583   9.061  1.1343  1.3781  1.0888
  288MOL0     O38746   3.443   1.457   0.876 -0.2406  0.2303 -0.4911
  288MOL0     C38747   3.461   1.388   0.981 -0.2870 -0.0752  0.7916
  288MOL0     O38748   3.384   1.276   1.020 -0.5629 -0.1354  0.2919
  288MOL0     C38749   3.260   1.255   0.977 -1.0592 -0.1914  0.1050
  288MOL0     C38750   3.221   1.125   0.984 -0.3199  0.5412  0.2822
  288MOL0     C38751   3.083   1.090   0.969 -0.4540 -0.3090  0.4724
  288MOL0     C38752   2.992   1.187   0.940  0.4760 -0.3675  0.1967
  288MOL0     O38753   2.865   1.143   0.951  0.5295 -0.5583 -0.8344
  288MOL0     C38754   2.756   1.219   0.904 -0.1547  1.6896 -0.7680
  288MOL0     C38755   2.753   1.215   0.745  0.3940  1.0512  0.4647
  288MOL0     C38756   2.621   1.269   0.703 -0.0489  0.5752  0.3374
  288MOL0     C38757   2.623   1.287   0.552 -0.2405 -0.2115 -0.7427
  288MOL0     C38758   2.559   1.164   0.487  0.2379 -0.2510  0.0349
  288MOL0     C38759   2.556   1.158   0.332  0.1312  0.6797 -0.9219
  288MOL0     C38760   2.694   1.179   0.267  0.3124  0.4370 -0.3434
  288MOL0     C38761   2.672   1.197   0.118 -0.2804 -0.2228 -0.7676
  288MOL0     N38762   2.802   1.228   0.058  0.0167 -1.1336  0.9352
  288MOL0     C38763   2.896   1.143   0.015 -0.1335 -0.1238 -0.8974
  288MOL0     C38764   3.017   1.208   0.013 -0.0357  0.1368  0.4341
  288MOL0     C38765   3.147   1.156  -0.037 -0.7669 -0.0260 -0.0641
  288MOL0     C38766   3.164   1.183  -0.186 -0.7447 -0.0793 -0.0785
  288MOL0     C38767   3.273   1.087  -0.240  0.2698 -0.2919 -0.6614
  288MOL0     C38768   3.340   1.139  -0.368 -0.2078  0.2650 -0.1356
  288MOL0     O38769   3.463   1.084  -0.387 -0.6083  0.5898  0.5652
  288MOL0     C38770   3.449   0.968  -0.468  0.1620 -0.2662 -0.4315
  288MOL0     C38771   3.384   0.956  -0.594 -0.0107  0.1979 -1.2406
  288MOL0     C38772   3.374   0.829  -0.664 -0.2202 -0.3646 -0.3126
  288MOL0     C38773   3.435   0.713  -0.609 -0.3248 -1.3866  0.0436
  288MOL0     C38774   3.438   0.581  -0.671  0.4986 -0.1990  0.0361
  288MOL0     O38775   3.491   0.476  -0.600 -0.0921  0.7211 -0.1341
  288MOL0     C38776   3.470   0.340  -0.635  0.1521 -0.4544 -0.6185
  288MOL0     C38777   3.564   0.253  -0.572 -0.0224  0.5709  0.5532
  288MOL0     C38778   3.560   0.110  -0.597  0.1998 -0.2798  0.5847
  288MOL0     C38779   3.458   0.053  -0.674  1.1621 -0.5485 -0.8137
  288MOL0     O38780   3.450  -0.086  -0.683  1.1481 -0.3765 -0.5968
  288MOL0     C38781   3.563  -0.160  -0.661 -0.8757 -0.2743 -0.8008
  288MOL0     C38782   3.536  -0.299  -0.695  0.7049 -0.1283  0.2120
  288MOL0     C38783   3.632  -0.408  -0.670  0.1813 -0.4147 -0.5037
  288MOL0     C38784   3.574  -0.545  -0.687  0.3711  0.6785  0.3168
  288MOL0     C38785   3.671  -0.670  -0.664 -0.4855 -0.1528 -0.3727
  288MOL0     C38786   3.624  -0.802  -0.731  0.3296 -0.8082 -0.4216
  288MOL0     C38787   3.506  -0.855  -0.654 -0.6953 -0.6369  0.4618
  288MOL0     C38788   3.523  -1.001  -0.617 -0.1428 -0.3641 -0.0403
  288MOL0    Cl38789   3.508  -1.114  -0.754 -0.1623  0.1262 -0.2106
  288MOL0     C38790   3.366   0.140  -0.741  0.4029 -0.1588 -0.9182
  288MOL0     C38791   3.375   0.279  -0.719  0.3424  0.4724  0.0314
  288MOL0     O38792   3.373   0.565  -0.774 -0.2463 -0.2890 -0.4967
  288MOL0     C38793   3.511   0.731  -0.487  0.3699  0.7704  0.2052
  288MOL0     C38794   3.513   0.849  -0.420  1.3761  0.2461  0.0178
  288MOL0     N38795   3.002   1.348   0.051  0.1359  0.2494  1.1985
  288MOL0     N38796   2.877   1.346   0.086  0.1906  0.6941 -1.0019
  288MOL0     C38797   3.031   1.325   0.924 -1.2342 -0.4077  0.7111
  288MOL0     C38798   3.172   1.360   0.951 -0.2294 -0.2751  0.2056
  288MOL0     C38799   3.595   1.425   1.042  0.5540 -0.5091 -0.1738
  288MOL0     C38800   3.701   1.445   0.953 -0.2064  0.6755 -0.1947
  288MOL0     C38801   3.829   1.479   0.999 -0.3336 -0.5413  0.3593
  288MOL0     C38802   3.850   1.468   1.135  0.6610 -0.0263 -0.8480
  288MOL0     O38803   3.979   1.491   1.179 -0.2065 -0.0397  0.0231
  288MOL0     C38804   4.004   1.509   1.321  0.0311 -0.3096 -1.2407
  288MOL0     C38805   4.163   1.511   1.348 -0.1299  0.2112  0.5014
  288MOL0     C38806   4.246   1.430   1.248  0.0462  0.2779 -0.1325
  288MOL0     C38807   4.257   1.279   1.274  0.4786  0.2125 -0.0311
  288MOL0     C38808   4.370   1.235   1.355 -0.2558 -0.4076  0.0347
  288MOL0     C38809   4.455   1.205   1.435  0.4063  0.2146 -0.7159
  288MOL0     C38810   3.750   1.437   1.226  0.2739 -0.0035 -1.4394
  288MOL0     C38811   3.615   1.417   1.179 -0.8319 -0.6512 -0.5544
  288MOL0     C38812   3.492   1.384   1.268 -0.6338 -1.0100 -0.1427
  288MOL0     H38813   3.296   1.056   1.021  1.1615  0.8787 -1.9507
  288MOL0     H38814   3.048   0.994   1.005  0.8645 -0.9721  0.0579
  288MOL0     H38815   2.665   1.170   0.941  0.5935 -0.8600 -2.0716
  288MOL0     H38816   2.752   1.324   0.936  0.2032  0.9867  1.8429
  288MOL0     H38817   2.769   1.115   0.704 -1.3093  0.9145  0.0910
  288MOL0     H38818   2.838   1.274   0.709 -1.0549  1.0108 -3.4406
  288MOL0     H38819   2.611   1.363   0.759  1.4163  0.2206  1.2549
  288MOL0     H38820   2.537   1.208   0.739  1.3165 -2.7719 -1.6513
  288MOL0     H38821   2.554   1.369   0.532 -2.9716 -0.6872  4.8058
  288MOL0     H38822   2.722   1.316   0.515  0.5730  0.5671  1.8408
  288MOL0     H38823   2.620   1.083   0.529  0.9352  0.6187  0.7400
  288MOL0     H38824   2.457   1.151   0.523 -0.1552  0.0170 -0.9763
  288MOL0     H38825   2.512   1.060   0.314 -2.2591  1.2968  0.9309
  288MOL0     H38826   2.475   1.223   0.297 -0.1124  0.4176 -0.8544
  288MOL0     H38827   2.762   1.094   0.275  0.3830  0.3496 -1.6859
  288MOL0     H38828   2.732   1.274   0.305 -0.6240  1.3362 -1.5643
  288MOL0     H38829   2.640   1.103   0.071  0.9173 -0.5845 -0.8950
  288MOL0     H38830   2.593   1.272   0.111 -0.5314 -0.5270 -1.2589
  288MOL0     H38831   2.881   1.038  -0.010 -1.3917 -0.4711  1.0814
  288MOL0     H38832   3.225   1.207   0.021 -0.5758  0.7526 -0.9885
  288MOL0     H38833   3.157   1.048  -0.021 -2.6009 -0.2151  0.0190
  288MOL0     H38834   3.067   1.164  -0.231 -0.5847 -0.9768 -0.0525
  288MOL0     H38835   3.195   1.285  -0.210 -0.2429 -0.3577 -0.6490
  288MOL0     H38836   3.228   0.988  -0.256 -0.9517 -0.4953  3.0517
  288MOL0     H38837   3.348   1.089  -0.160  2.2863 -0.3386 -2.4713
  288MOL0     H38838   3.364   1.244  -0.347  0.1141  0.4926 -1.5058
  288MOL0     H38839   3.273   1.146  -0.454 -0.7736 -0.0942  0.2709
  288MOL0     H38840   3.318   1.036  -0.627 -0.1373  0.5263 -0.2437
  288MOL0     H38841   3.318   0.836  -0.757 -3.2640  2.1454  1.5011
  288MOL0     H38842   3.650   0.294  -0.518  1.4918  0.6665 -1.8119
  288MOL0     H38843   3.632   0.050  -0.544 -2.6410 -0.8842  4.1821
  288MOL0     H38844   3.643  -0.104  -0.708 -0.4177  3.1275  3.4186
  288MOL0     H38845   3.582  -0.174  -0.554 -0.0218  0.4106 -0.8612
  288MOL0     H38846   3.435  -0.325  -0.660  0.9185 -1.9141 -0.4144
  288MOL0     H38847   3.532  -0.283  -0.803  1.0475  1.9866  0.4596
  288MOL0     H38848   3.714  -0.405  -0.743 -1.3018  0.9929 -2.2172
  288MOL0     H38849   3.669  -0.398  -0.568  0.9781  0.3032 -0.8547
  288MOL0     H38850   3.519  -0.549  -0.781 -0.5656  0.8418  0.8503
  288MOL0     H38851   3.506  -0.553  -0.602 -0.8085  1.2506 -0.5436
  288MOL0     H38852   3.694  -0.692  -0.560  0.6333 -1.4550 -0.8543
  288MOL0     H38853   3.762  -0.652  -0.722 -0.6810  3.3697  0.2292
  288MOL0     H38854   3.595  -0.781  -0.835 -1.7733 -1.0753  0.0508
  288MOL0     H38855   3.710  -0.869  -0.731  0.6149 -0.4723 -1.6586
  288MOL0     H38856   3.413  -0.830  -0.705 -0.0717  1.6397  0.3324
  288MOL0     H38857   3.508  -0.813  -0.553  0.4756 -1.5548  0.8473
  288MOL0     H38858   3.623  -1.019  -0.576  1.3103  0.5863 -2.8513
  288MOL0     H38859   3.438  -1.022  -0.552 -0.0897  0.2772  0.2418
  288MOL0     H38860   3.288   0.095  -0.802 -1.2174 -2.4051  2.4967
  288MOL0     H38861   3.301   0.342  -0.767 -0.3446  1.1579  1.8976
  288MOL0     H38862   3.563   0.648  -0.440 -0.0741  0.9104  0.9638
  288MOL0     H38863   3.578   0.867  -0.335  1.6606 -1.9019  0.3038
  288MOL0     H38864   2.954   1.401   0.912  0.3813  0.8340 -2.9421
  288MOL0     H38865   3.197   1.466   0.954 -3.0995  0.5127  0.2610
  288MOL0     H38866   3.682   1.423   0.848  1.0084 -4.1300  0.3530
  288MOL0     H38867   3.906   1.509   0.929 -0.2516  2.0785  1.4993
  288MOL0     H38868   3.960   1.435   1.388 -1.3639  2.3702  1.0583
  288MOL0     H38869   3.960   1.600   1.365 -0.6106 -2.1134  2.2239
  288MOL0     H38870   4.186   1.479   1.450  0.1625 -0.5931  0.1863
  288MOL0     H38871   4.194   1.616   1.337 -0.8672  0.4187  0.3474
  288MOL0     H38872   4.344   1.479   1.248 -1.1156  2.8332  1.5001
  288MOL0     H38873   4.206   1.439   1.146  0.3403 -0.9901 -0.3782
  288MOL0     H38874   4.168   1.237   1.320  0.0128  1.7859  0.5791
  288MOL0     H38875   4.270   1.235   1.174 -3.6252  0.9301 -1.0623
  288MOL0     H38876   4.523   1.171   1.511  0.4545 -2.2481 -1.7594
  288MOL0     H38877   3.763   1.436   1.334 -1.7067 -1.6338 -1.1507
  288MOL0     H38878   3.427   1.472   1.271  0.1289 -0.4498  0.3513
  288MOL0     H38879   3.433   1.297   1.238  0.0465 -1.9399  1.1413
  288MOL0     H38880   3.523   1.381   1.373  0.9584  2.7935 -0.3277
  289MOL0     O38881   9.114  10.164   2.546  0.3645  0.0123 -0.3597
  289MOL0     C38882   9.045  10.254   2.499  0.1152 -0.2020  1.1560
  289MOL0     O38883   9.087  10.349   2.415  0.1642 -0.4826 -0.6433
  289MOL0     C38884   9.227  10.369   2.410  0.8838 -0.0291 -0.2180
  289MOL0     C38885   9.312  10.386   2.523 -0.0178  0.6834 -0.0293
  289MOL0     C38886   9.452  10.391   2.512 -0.0971  0.0949 -0.1381
  289MOL0     C38887   9.516  10.388   2.381  0.3646 -0.2950 -0.0472
  289MOL0     O38888   9.646  10.379   2.381  0.2280 -0.0314  0.9341
  289MOL0     C38889   9.714  10.294   2.467  0.2933  0.1426 -0.0628
  289MOL0     C38890   9.864  10.295   2.434  0.4681  0.2508  0.3078
  289MOL0     C38891   9.930  10.180   2.520 -0.3230 -1.0029 -0.6091
  289MOL0     C38892   9.916  10.049   2.449 -0.0864  0.1488 -0.4231
  289MOL0     C38893   9.974   9.942   2.545  0.2618  1.2828 -0.1900
  289MOL0     C38894  10.122   9.924   2.508  0.4926 -0.9428 -0.4227
  289MOL0     C38895  10.179   9.807   2.590  0.0931 -0.8077 -0.0645
  289MOL0     C38896  10.330   9.797   2.576 -0.1708  0.0386  0.2152
  289MOL0     N38897  10.378   9.794   2.438 -0.1983  0.2661  0.3456
  289MOL0     C38898  10.371   9.686   2.355  0.5390 -0.1325  0.0228
  289MOL0     C38899  10.392   9.736   2.235  0.1809 -0.8299  0.5839
  289MOL0     C38900  10.387   9.653   2.112  0.8685  0.0034  1.3820
  289MOL0     C38901  10.524   9.681   2.034  0.4533  0.5771  0.1239
  289MOL0     C38902  10.531   9.638   1.890  0.3397  0.7365 -0.1080
  289MOL0     C38903  10.675   9.622   1.832  0.4821 -0.0011  0.4950
  289MOL0     O38904  10.750   9.514   1.883 -0.6808  0.2285 -0.2559
  289MOL0     C38905  10.709   9.398   1.837  0.2162  0.0938 -0.2160
  289MOL0     C38906  10.613   9.362   1.737  0.1433  0.1737 -0.2070
  289MOL0     C38907  10.576   9.236   1.688  0.1879 -0.4867  0.5962
  289MOL0     C38908  10.649   9.125   1.728 -0.9916  0.6180 -0.0112
  289MOL0     C38909  10.629   8.996   1.657 -0.8193  0.0980  0.3083
  289MOL0     O38910  10.554   8.999   1.545  0.9188 -0.3536  0.4106
  289MOL0     C38911  10.531   8.865   1.488 -0.0279 -0.4600  0.6541
  289MOL0     C38912  10.399   8.820   1.477  0.5044  0.1376  0.3538
  289MOL0     C38913  10.372   8.698   1.429 -0.2953  0.5052 -0.0128
  289MOL0     C38914  10.475   8.615   1.377 -1.3001 -0.7093  0.5811
  289MOL0     O38915  10.460   8.500   1.305 -0.2118 -0.3280 -0.0296
  289MOL0     C38916  10.327   8.478   1.244  0.4124  0.4276  0.4026
  289MOL0     C38917  10.346   8.367   1.139  0.0702  0.3016  1.0341
  289MOL0     C38918  10.308   8.228   1.192 -0.9167  0.2109 -0.2720
  289MOL0     C38919  10.428   8.170   1.278  0.8904  0.0110  0.0129
  289MOL0     C38920  10.378   8.066   1.373  0.5358 -0.9701  0.4835
  289MOL0     C38921  10.494   8.005   1.443 -0.5310  0.6566  0.4702
  289MOL0     C38922  10.453   7.899   1.539  0.5118  0.5831 -0.6504
  289MOL0     C38923  10.567   7.859   1.637  0.4810  0.5990 -0.0183
  289MOL0    Cl38924  10.589   7.980   1.769 -0.0899  0.0478 -0.2459
  289MOL0     C38925  10.612   8.663   1.391  0.7355 -0.2582 -0.5011
  289MOL0     C38926  10.637   8.790   1.443  0.6335  0.0238 -0.1469
  289MOL0     O38927  10.666   8.893   1.723 -0.7369 -0.2626  0.4712
  289MOL0     C38928  10.749   9.149   1.830 -0.5869  0.0442 -0.5263
  289MOL0     C38929  10.779   9.284   1.886  0.4736  0.5520  0.3165
  289MOL0     N38930  10.413   9.870   2.239  0.8187  0.2676  0.1211
  289MOL0     N38931  10.412   9.895   2.355  0.7715  0.6981  0.0562
  289MOL0     C38932   9.434  10.375   2.269  0.9415 -0.2265  0.0771
  289MOL0     C38933   9.289  10.357   2.282 -0.4288  0.4387 -0.1027
  289MOL0     C38934   8.901  10.255   2.505 -0.3436  0.6278 -0.4996
  289MOL0     C38935   8.825  10.234   2.394  0.0168  1.0081 -0.4629
  289MOL0     C38936   8.690  10.245   2.404  0.3748 -0.2466 -0.1898
  289MOL0     C38937   8.625  10.254   2.528 -0.1817 -0.7191  0.6694
  289MOL0     O38938   8.489  10.238   2.511 -0.2142 -0.3139 -0.6664
  289MOL0     C38939   8.416  10.286   2.622 -0.0498  0.0102 -0.3556
  289MOL0     C38940   8.264  10.261   2.629  0.7214  0.4151  0.4368
  289MOL0     C38941   8.179  10.322   2.503  0.1559 -0.1547 -1.1603
  289MOL0     C38942   8.031  10.284   2.500  0.2479  0.4231 -0.7490
  289MOL0     C38943   7.929  10.390   2.542  0.4208  0.7008 -0.1209
  289MOL0     C38944   7.857  10.478   2.583  0.6320 -0.0618 -0.4077
  289MOL0     C38945   8.702  10.285   2.640  0.2531  0.5632  0.2559
  289MOL0     C38946   8.838  10.276   2.628 -0.5657  0.4316  0.2130
  289MOL0     C38947   8.915  10.288   2.757  0.1884 -0.2659  0.7406
  289MOL0     H38948   9.275  10.396   2.625  0.5954 -0.1904  0.2883
  289MOL0     H38949   9.506  10.405   2.604  0.2950 -2.6791  0.1393
  289MOL0     H38950   9.698  10.334   2.567  0.3409 -0.6478  0.2675
  289MOL0     H38951   9.679  10.191   2.453  1.9538 -0.1916 -2.3658
  289MOL0     H38952   9.909  10.392   2.460 -0.8003  0.9788 -0.1272
  289MOL0     H38953   9.878  10.270   2.329 -0.7915  0.9982 -0.0586
  289MOL0     H38954   9.857  10.162   2.600 -1.9719  1.5717 -1.4135
  289MOL0     H38955  10.030  10.212   2.549 -0.2045 -1.9398  0.0482
  289MOL0     H38956   9.808  10.034   2.436 -0.3197 -0.0273  1.4765
  289MOL0     H38957   9.967  10.059   2.353 -1.4611  2.1039 -1.0203
  289MOL0     H38958   9.953   9.960   2.651  2.4641 -3.0057  1.1925
  289MOL0     H38959   9.930   9.845   2.519  0.7975  0.9553  0.1295
  289MOL0     H38960  10.135   9.900   2.402  0.2537  2.7238 -1.4140
  289MOL0     H38961  10.179  10.014   2.529  1.0557 -1.1965 -0.8322
  289MOL0     H38962  10.128   9.714   2.562  0.8954 -0.8465 -1.5064
  289MOL0     H38963  10.162   9.818   2.697 -1.4193 -0.0186 -0.3660
  289MOL0     H38964  10.375   9.887   2.618  3.2585 -1.1402 -0.6690
  289MOL0     H38965  10.368   9.716   2.638  1.7946  0.6419 -0.1421
  289MOL0     H38966  10.349   9.581   2.372 -2.1227  0.4264  0.4437
  289MOL0     H38967  10.374   9.545   2.124  0.0721 -0.0597  0.1051
  289MOL0     H38968  10.313   9.701   2.048  3.4736 -0.4536 -2.3536
  289MOL0     H38969  10.540   9.789   2.031 -0.8958  0.7813 -1.2059
  289MOL0     H38970  10.599   9.629   2.093  2.9684  1.1618 -2.3429
  289MOL0     H38971  10.463   9.709   1.843  0.4366  0.0817 -1.2850
  289MOL0     H38972  10.486   9.538   1.885  2.0494 -0.0160 -3.0467
  289MOL0     H38973  10.734   9.708   1.867  3.0935 -1.5217  0.1556
  289MOL0     H38974  10.690   9.619   1.724 -1.2260  1.4492  0.1796
  289MOL0     H38975  10.563   9.449   1.696  0.6339  2.2658  3.1938
  289MOL0     H38976  10.517   9.241   1.597  2.6296 -1.7933 -1.1767
  289MOL0     H38977  10.326   8.893   1.510  0.9936  0.8632 -0.1579
  289MOL0     H38978  10.268   8.676   1.410  0.0335 -1.6250  0.3981
  289MOL0     H38979  10.245   8.454   1.312 -0.5173  1.0490 -0.4722
  289MOL0     H38980  10.296   8.566   1.188  2.5165  2.3413  2.0790
  289MOL0     H38981  10.281   8.390   1.055  0.6905 -1.9237 -0.1454
  289MOL0     H38982  10.447   8.367   1.097  0.9599 -1.4137  2.9691
  289MOL0     H38983  10.209   8.225   1.237 -0.1647  0.4498  1.4902
  289MOL0     H38984  10.304   8.158   1.109 -0.0022  0.1251 -0.2517
  289MOL0     H38985  10.460   8.256   1.338  0.9191 -0.0813  0.1307
  289MOL0     H38986  10.501   8.136   1.204  0.3946 -0.4891 -0.2542
  289MOL0     H38987  10.306   8.000   1.326 -2.3034  0.4511  2.4883
  289MOL0     H38988  10.314   8.108   1.452  2.8073 -0.2749  2.0737
  289MOL0     H38989  10.563   7.962   1.370 -0.0762 -0.5629  1.5580
  289MOL0     H38990  10.566   8.076   1.485  2.5414 -1.6906 -0.4936
  289MOL0     H38991  10.424   7.812   1.479  0.0585  0.4931 -0.3125
  289MOL0     H38992  10.361   7.925   1.592  1.1265 -0.2563  0.8840
  289MOL0     H38993  10.540   7.762   1.678 -5.1460  1.1859 -1.5829
  289MOL0     H38994  10.664   7.857   1.586  0.8299 -1.3294  0.6545
  289MOL0     H38995  10.686   8.589   1.364  0.1735 -0.5749 -1.2097
  289MOL0     H38996  10.738   8.830   1.443 -0.0108  2.0360  2.9941
  289MOL0     H38997  10.800   9.069   1.881 -0.1399  2.3308  2.9585
  289MOL0     H38998  10.854   9.297   1.963 -0.4376  3.5081  0.8311
  289MOL0     H38999   9.482  10.364   2.172 -2.8172  1.6122 -2.2380
  289MOL0     H39000   9.220  10.349   2.198 -1.5754  1.3852  0.7271
  289MOL0     H39001   8.860  10.209   2.294 -0.9780 -1.4492 -0.2724
  289MOL0     H39002   8.618  10.224   2.325 -2.1017 -2.8750  2.5456
  289MOL0     H39003   8.432  10.394   2.629 -3.2362  0.4938  2.0079
  289MOL0     H39004   8.452  10.250   2.719  2.0614 -0.9756 -1.4355
  289MOL0     H39005   8.228  10.304   2.723  2.5149 -2.3774  2.5707
  289MOL0     H39006   8.250  10.152   2.626  0.5257  0.3763  1.8414
  289MOL0     H39007   8.226  10.289   2.410 -1.6500  0.1165 -2.2176
  289MOL0     H39008   8.182  10.431   2.512  4.9091 -0.2368  1.8452
  289MOL0     H39009   8.013  10.244   2.400  2.9825  0.5620 -1.3580
  289MOL0     H39010   8.021  10.194   2.561  0.9139 -0.2590 -1.6234
  289MOL0     H39011   7.788  10.557   2.606 -0.1206  0.2429 -3.3308
  289MOL0     H39012   8.649  10.302   2.734  0.2455  1.3412  0.1243
  289MOL0     H39013   8.938  10.391   2.786 -1.5027  0.6179 -0.8920
  289MOL0     H39014   8.860  10.237   2.837 -2.3557  1.0883 -0.0163
  289MOL0     H39015   9.011  10.237   2.751  0.6607  0.8044 -2.1831
  290MOL0     O39016  10.261   3.375   0.270 -1.1113 -0.2197 -0.0888
  290MOL0     C39017  10.362   3.425   0.332  0.3162  0.0883  0.5097
  290MOL0     O39018  10.375   3.551   0.368 -0.0142 -0.2244  0.4546
  290MOL0     C39019  10.262   3.628   0.342 -0.4106  0.1370  0.1617
  290MOL0     C39020  10.280   3.728   0.245  0.1237  0.7707  0.7096
  290MOL0     C39021  10.152   3.782   0.196  0.1103  0.3406  1.2863
  290MOL0     C39022  10.021   3.733   0.238 -1.6215  0.2596 -0.1768
  290MOL0     O39023   9.908   3.781   0.174  0.3382 -0.2104  0.5879
  290MOL0     C39024   9.867   3.725   0.048  0.0960  0.3137  0.1462
  290MOL0     C39025   9.736   3.656   0.051 -0.4302 -0.1390  0.4289
  290MOL0     C39026   9.724   3.511   0.125 -0.1302  0.6748  0.1858
  290MOL0     C39027   9.843   3.412   0.098 -0.4952  0.0586 -0.2566
  290MOL0     C39028   9.859   3.319   0.215 -0.3403 -0.1618  0.0637
  290MOL0     C39029   9.734   3.225   0.223  0.7104 -0.4588 -0.9860
  290MOL0     C39030   9.739   3.132   0.358 -0.1046  0.2479  0.1939
  290MOL0     C39031   9.687   3.208   0.481 -1.5571  0.0164  0.2084
  290MOL0     N39032   9.558   3.279   0.467 -0.4406  0.2505 -0.1631
  290MOL0     C39033   9.534   3.401   0.432 -0.1178 -0.9446  0.2571
  290MOL0     C39034   9.404   3.421   0.416 -0.8583 -0.4609 -0.2445
  290MOL0     C39035   9.350   3.559   0.373  0.1978 -0.6251  0.3920
  290MOL0     C39036   9.240   3.611   0.465  0.6304 -0.3718 -0.2476
  290MOL0     C39037   9.175   3.742   0.418  0.1766  0.1958 -0.1674
  290MOL0     C39038   9.048   3.791   0.490  0.1291  0.5927 -1.1049
  290MOL0     O39039   8.937   3.700   0.474  0.0003  0.8043 -0.1792
  290MOL0     C39040   8.807   3.744   0.472  0.0412  0.3852  0.2000
  290MOL0     C39041   8.770   3.872   0.495 -0.4857 -0.5995 -0.5806
  290MOL0     C39042   8.641   3.912   0.457  0.4256 -0.8182 -0.7643
  290MOL0     C39043   8.545   3.825   0.398  0.1560 -0.4767 -0.0984
  290MOL0     C39044   8.422   3.870   0.343 -0.3702  0.0983  0.1516
  290MOL0     O39045   8.323   3.771   0.323 -0.2979 -0.1430  0.2716
  290MOL0     C39046   8.191   3.792   0.287 -0.2648  0.8591  0.0791
  290MOL0     C39047   8.135   3.704   0.192 -0.4790 -0.3942 -1.0498
  290MOL0     C39048   8.001   3.713   0.171  0.5012  0.4711  0.0942
  290MOL0     C39049   7.921   3.805   0.238 -0.2298  0.4874 -1.1199
  290MOL0     O39050   7.800   3.818   0.177 -0.7435  0.8331  0.7281
  290MOL0     C39051   7.695   3.899   0.238  0.4122  0.3362 -1.0299
  290MOL0     C39052   7.646   3.831   0.373  0.7572 -0.4149  0.9953
  290MOL0     C39053   7.515   3.887   0.411  0.7978  0.0466 -0.6764
  290MOL0     C39054   7.535   4.036   0.450 -0.5646  0.0390  0.6213
  290MOL0     C39055   7.460   4.071   0.576 -0.2024  0.2495 -0.3062
  290MOL0     C39056   7.524   4.014   0.702  0.6132  0.4254 -0.3218
  290MOL0     C39057   7.446   4.028   0.832 -1.0894 -0.0131  0.2774
  290MOL0     C39058   7.547   4.020   0.949  0.1481  0.5983  0.1264
  290MOL0    Cl39059   7.669   3.882   0.943  0.2590  0.4407 -0.2353
  290MOL0     C39060   7.977   3.893   0.334  0.2328  0.0007 -0.3115
  290MOL0     C39061   8.113   3.884   0.349  0.1205 -0.3545  0.2294
  290MOL0     O39062   8.408   3.989   0.317  0.2342 -0.2757  0.3237
  290MOL0     C39063   8.581   3.691   0.386 -0.0357 -0.9085  1.1557
  290MOL0     C39064   8.715   3.662   0.410 -0.1510  0.1939 -1.0652
  290MOL0     N39065   9.345   3.299   0.438 -0.0875 -0.1364  0.8105
  290MOL0     N39066   9.439   3.211   0.444  0.4351 -0.4109 -0.4624
  290MOL0     C39067  10.019   3.637   0.341  0.9536  0.6259  0.2191
  290MOL0     C39068  10.134   3.576   0.392  0.5462  0.1766  0.1100
  290MOL0     C39069  10.488   3.342   0.349  1.6083  0.0188  0.7585
  290MOL0     C39070  10.478   3.203   0.361  0.8230  0.3495 -0.0024
  290MOL0     C39071  10.588   3.122   0.399  0.0591  0.0532  1.3938
  290MOL0     C39072  10.712   3.181   0.419 -0.4737  0.6519 -0.5746
  290MOL0     O39073  10.831   3.106   0.438 -0.6910  0.0937  0.5639
  290MOL0     C39074  10.834   2.972   0.484  0.1653 -0.1362  0.2914
  290MOL0     C39075  10.979   2.943   0.548  0.5376 -0.7542  1.3115
  290MOL0     C39076  11.013   2.799   0.533 -0.1827  0.2680 -0.1365
  290MOL0     C39077  10.956   2.713   0.646 -0.0606 -0.0361  0.8053
  290MOL0     C39078  10.997   2.573   0.607  0.0426 -0.1847 -0.1172
  290MOL0     C39079  11.008   2.459   0.560  1.1180  0.2134  0.1731
  290MOL0     C39080  10.718   3.319   0.394 -0.2507  1.4100  0.2666
  290MOL0     C39081  10.617   3.397   0.360  0.3054 -0.5713 -0.0977
  290MOL0     C39082  10.655   3.549   0.337  0.0681 -0.3378  0.0372
  290MOL0     H39083  10.376   3.745   0.196  0.7006 -1.9427  0.7251
  290MOL0     H39084  10.149   3.849   0.111  0.7321  0.4100  1.3139
  290MOL0     H39085   9.862   3.807  -0.023 -0.2860  0.3972  0.2634
  290MOL0     H39086   9.938   3.648   0.016  0.7748  1.5316 -1.3700
  290MOL0     H39087   9.704   3.641  -0.052 -1.7585  1.9319  0.4807
  290MOL0     H39088   9.664   3.733   0.082 -0.4889 -0.5338  1.3034
  290MOL0     H39089   9.632   3.466   0.088  0.9558 -1.4901 -0.0111
  290MOL0     H39090   9.708   3.518   0.233  0.3663 -0.8606  0.3763
  290MOL0     H39091   9.819   3.355   0.008  1.5027 -1.6129  0.1777
  290MOL0     H39092   9.942   3.453   0.074  0.0983 -1.8912 -1.3561
  290MOL0     H39093   9.951   3.261   0.205 -1.3676 -2.0716  0.9967
  290MOL0     H39094   9.867   3.371   0.311  0.1896 -0.2700  0.0788
  290MOL0     H39095   9.642   3.283   0.220  0.3231 -1.0831 -3.4406
  290MOL0     H39096   9.733   3.159   0.135 -2.4967 -0.6995 -0.8845
  290MOL0     H39097   9.839   3.090   0.370 -0.4881 -0.2994  1.5840
  290MOL0     H39098   9.667   3.050   0.345 -2.6338  2.3284  0.1056
  290MOL0     H39099   9.687   3.136   0.564 -2.7841 -0.4246 -0.1655
  290MOL0     H39100   9.756   3.280   0.526  0.3448 -2.1290  0.9207
  290MOL0     H39101   9.600   3.486   0.418 -3.6739  2.1830  0.8919
  290MOL0     H39102   9.432   3.631   0.371 -0.1507 -0.2021  0.9287
  290MOL0     H39103   9.312   3.550   0.271 -0.6319 -0.3189  0.6640
  290MOL0     H39104   9.165   3.531   0.456  0.0639  0.2130 -0.8526
  290MOL0     H39105   9.270   3.614   0.570 -2.2938 -1.5397  0.7367
  290MOL0     H39106   9.143   3.741   0.313 -3.1010 -0.2621  0.7251
  290MOL0     H39107   9.253   3.817   0.434  0.6775 -0.4168  0.3003
  290MOL0     H39108   9.018   3.888   0.449 -1.8765  0.4408 -0.0922
  290MOL0     H39109   9.067   3.804   0.597 -3.3437  0.7019 -0.4131
  290MOL0     H39110   8.840   3.945   0.534 -0.4384 -1.1930  0.5087
  290MOL0     H39111   8.603   4.014   0.456 -3.0757 -1.8866  1.9180
  290MOL0     H39112   8.197   3.626   0.148 -1.3427 -0.6285 -1.8987
  290MOL0     H39113   7.953   3.648   0.099 -0.2462  0.6678  0.4096
  290MOL0     H39114   7.728   4.003   0.242 -2.2125  1.2234 -0.7638
  290MOL0     H39115   7.615   3.904   0.162 -0.8496 -0.0020  0.2377
  290MOL0     H39116   7.632   3.727   0.344 -0.0919  0.4465 -2.0307
  290MOL0     H39117   7.717   3.848   0.455 -0.6340 -1.4559  2.4658
  290MOL0     H39118   7.449   3.895   0.325  0.7535  2.0276 -0.4910
  290MOL0     H39119   7.456   3.838   0.490 -0.3836  0.3753 -1.3371
  290MOL0     H39120   7.509   4.107   0.371  4.0315  0.7907 -0.5223
  290MOL0     H39121   7.639   4.068   0.466  0.6310 -2.0146 -2.1696
  290MOL0     H39122   7.354   4.047   0.565 -0.0313  0.5033 -3.5114
  290MOL0     H39123   7.458   4.181   0.574 -0.0429  0.2488 -1.1971
  290MOL0     H39124   7.567   3.914   0.709 -0.4568  0.0631  2.4689
  290MOL0     H39125   7.612   4.076   0.721  0.8813 -0.1682  0.4300
  290MOL0     H39126   7.358   3.965   0.845 -1.3105  0.3636  0.6429
  290MOL0     H39127   7.397   4.125   0.844  4.8136  3.1377  2.7907
  290MOL0     H39128   7.604   4.113   0.955 -0.4333  0.8727  2.9673
  290MOL0     H39129   7.488   4.011   1.041 -0.6657 -0.1795 -0.4462
  290MOL0     H39130   7.930   3.976   0.386  0.2954 -0.7102  0.9105
  290MOL0     H39131   8.166   3.959   0.407 -2.0136  0.7946  0.7707
  290MOL0     H39132   8.514   3.615   0.348  0.9064 -1.1731 -0.0256
  290MOL0     H39133   8.752   3.563   0.384 -4.2413 -1.0873 -2.8222
  290MOL0     H39134   9.918   3.613   0.374  0.3273  0.4933 -1.6723
  290MOL0     H39135  10.136   3.488   0.455 -0.1705  0.9535  1.2705
  290MOL0     H39136  10.386   3.147   0.360  0.8755  0.2679 -1.3403
  290MOL0     H39137  10.568   3.016   0.411 -0.6694  0.3122  2.6915
  290MOL0     H39138  10.809   2.905   0.401  1.4855 -3.7246  2.5700
  290MOL0     H39139  10.758   2.944   0.557 -1.5204  1.8363 -0.5800
  290MOL0     H39140  10.975   2.983   0.650 -2.6759  0.9817  0.6249
  290MOL0     H39141  11.047   3.013   0.497  1.7934 -1.1910  2.3247
  290MOL0     H39142  11.123   2.797   0.536 -0.1164 -3.7781  2.0844
  290MOL0     H39143  10.975   2.756   0.440  3.2256 -2.5745 -0.4412
  290MOL0     H39144  10.978   2.760   0.742 -0.7260  1.4840  0.2576
  290MOL0     H39145  10.847   2.712   0.642 -0.0426  0.2070  0.1344
  290MOL0     H39146  11.016   2.367   0.507  1.1661  0.0390  0.4770
  290MOL0     H39147  10.810   3.372   0.416  0.3481  0.5055 -0.0060
  290MOL0     H39148  10.617   3.591   0.243  0.9012  1.5438  0.4989
  290MOL0     H39149  10.619   3.611   0.420  2.4938  0.8906  0.2618
  290MOL0     H39150  10.764   3.563   0.330 -0.1365  0.4534 -2.2320
  291MOL0     O39151   5.026  10.507   7.588 -0.4663 -0.3678  0.1178
  291MOL0     C39152   5.073  10.591   7.660  0.1942  0.0233  0.3632
  291MOL0     O39153   5.203  10.615   7.688 -1.1914  0.5702  1.1181
  291MOL0     C39154   5.288  10.545   7.600 -0.1020 -0.1383 -0.2318
  291MOL0     C39155   5.303  10.408   7.621  0.1316  0.0853  0.3255
  291MOL0     C39156   5.369  10.330   7.514 -0.1072 -0.9537  0.9726
  291MOL0     C39157   5.418  10.390   7.402  0.1349 -0.1486  0.2542
  291MOL0     O39158   5.486  10.302   7.322 -0.0802  0.0607  0.2883
  291MOL0     C39159   5.505  10.344   7.190  0.9664  0.6690 -0.3903
  291MOL0     C39160   5.555  10.224   7.101 -0.1214 -0.6965 -0.7078
  291MOL0     C39161   5.709  10.186   7.107  0.3523 -0.1545 -0.2187
  291MOL0     C39162   5.731  10.100   6.987  0.0957  0.0629  1.2254
  291MOL0     C39163   5.885  10.070   6.967  0.4908 -0.8185  0.0515
  291MOL0     C39164   5.915   9.989   6.834 -0.4768 -0.4000  0.2645
  291MOL0     C39165   5.869   9.840   6.832  0.2623 -0.0084 -0.2771
  291MOL0     C39166   5.920   9.772   6.706  0.8614  0.2769  0.2003
  291MOL0     N39167   5.995   9.651   6.732  0.4606 -0.1006  0.2860
  291MOL0     C39168   5.946   9.530   6.774  1.2470  0.3009 -0.3559
  291MOL0     C39169   6.064   9.456   6.799  0.5963 -1.0749  1.3105
  291MOL0     C39170   6.073   9.317   6.849 -0.0863 -0.3619  0.1318
  291MOL0     C39171   5.983   9.219   6.770  0.1137  0.9090 -0.0627
  291MOL0     C39172   6.044   9.074   6.758 -0.2935 -0.9085 -0.0925
  291MOL0     C39173   6.076   9.010   6.894  0.3415 -0.5278  0.6467
  291MOL0     O39174   6.134   8.877   6.889  0.5741 -1.1502  0.2227
  291MOL0     C39175   6.067   8.784   6.816 -0.9910 -0.5852 -0.6917
  291MOL0     C39176   6.137   8.680   6.754 -0.2938 -1.2045  0.4530
  291MOL0     C39177   6.062   8.588   6.685  0.0533 -0.3167  0.9510
  291MOL0     C39178   5.923   8.592   6.670  0.1822 -0.0651 -0.7319
  291MOL0     C39179   5.847   8.473   6.613 -0.3600  0.3020  0.0734
  291MOL0     O39180   5.709   8.472   6.619  0.8756 -0.0968 -0.1430
  291MOL0     C39181   5.637   8.356   6.582 -0.0504 -0.3960  0.7969
  291MOL0     C39182   5.675   8.227   6.618  0.3101 -0.5791 -0.1868
  291MOL0     C39183   5.585   8.126   6.575 -0.7458  0.3388  0.6594
  291MOL0     C39184   5.466   8.153   6.510 -0.8960 -1.3005  0.0251
  291MOL0     O39185   5.364   8.066   6.477 -0.5819  0.0157  0.1692
  291MOL0     C39186   5.392   7.916   6.495 -0.5447  0.5231 -0.3965
  291MOL0     C39187   5.376   7.875   6.637  0.2573 -0.7127  0.4196
  291MOL0     C39188   5.234   7.919   6.682 -0.4293 -0.0043 -0.5207
  291MOL0     C39189   5.168   7.842   6.792  0.0019 -0.1652 -0.7118
  291MOL0     C39190   5.029   7.897   6.820 -0.0770 -0.1321  0.4075
  291MOL0     C39191   5.019   7.991   6.949 -0.2235 -0.6811 -0.2453
  291MOL0     C39192   5.110   8.111   6.938 -0.1163 -0.3754 -1.0238
  291MOL0     C39193   5.078   8.214   7.045 -0.1187  0.2898  0.0609
  291MOL0    Cl39194   4.929   8.295   6.993 -0.0908  0.2483 -0.2793
  291MOL0     C39195   5.439   8.287   6.479 -0.0509  0.2929  0.6700
  291MOL0     C39196   5.523   8.382   6.513  0.7294 -1.1719 -0.3759
  291MOL0     O39197   5.916   8.383   6.558  0.5150 -0.3617 -0.0359
  291MOL0     C39198   5.851   8.689   6.735 -0.2064 -0.3565 -0.6985
  291MOL0     C39199   5.928   8.780   6.810  0.1713  0.7721 -0.4726
  291MOL0     N39200   6.182   9.533   6.768  0.4736 -0.4446  0.0759
  291MOL0     N39201   6.133   9.650   6.726  0.9619  0.5336 -0.6218
  291MOL0     C39202   5.400  10.530   7.384 -0.5967 -0.3763 -0.0364
  291MOL0     C39203   5.337  10.605   7.489  0.7977  0.1385  0.3519
  291MOL0     C39204   4.976  10.672   7.725  0.3338  0.0601 -0.4468
  291MOL0     C39205   4.841  10.648   7.703  0.7221 -0.4304 -0.1758
  291MOL0     C39206   4.735  10.725   7.751 -0.1830 -0.9348 -0.8577
  291MOL0     C39207   4.763  10.831   7.833 -0.3614 -0.8021  0.1068
  291MOL0     O39208   4.662  10.909   7.886  0.6587 -0.2900 -0.4581
  291MOL0     C39209   4.530  10.890   7.837 -0.7881  0.4211  0.6464
  291MOL0     C39210   4.459  10.771   7.900  1.0950  0.2196 -0.5545
  291MOL0     C39211   4.308  10.785   7.896 -0.1427  0.0474  0.2828
  291MOL0     C39212   4.229  10.735   8.012 -0.2280  0.1333  0.2900
  291MOL0     C39213   4.252  10.583   8.019  0.3744 -0.6288 -0.3745
  291MOL0     C39214   4.265  10.466   8.028  0.0390 -0.0257 -0.7112
  291MOL0     C39215   4.898  10.847   7.878 -0.3684  0.7137  0.3948
  291MOL0     C39216   5.002  10.779   7.823 -0.0932  0.1979 -0.5668
  291MOL0     C39217   5.142  10.825   7.870 -0.8946  0.0676  0.1462
  291MOL0     H39218   5.267  10.356   7.708  1.7733 -1.3782  0.1907
  291MOL0     H39219   5.391  10.227   7.541 -0.6433 -0.8513  1.8473
  291MOL0     H39220   5.410  10.386   7.157  0.0655 -0.8572  0.1506
  291MOL0     H39221   5.580  10.423   7.190  2.3165 -0.5605  0.6210
  291MOL0     H39222   5.532  10.246   6.996  0.6009  1.1333 -0.5154
  291MOL0     H39223   5.493  10.135   7.116 -0.1626 -0.8531 -1.7019
  291MOL0     H39224   5.741  10.136   7.199  1.4194  0.3738 -0.2895
  291MOL0     H39225   5.765  10.280   7.101 -1.1905  1.0887  2.6937
  291MOL0     H39226   5.677  10.005   6.987 -0.0805  0.0579 -2.2286
  291MOL0     H39227   5.706  10.155   6.895 -3.7728 -0.0478  2.0225
  291MOL0     H39228   5.941  10.163   6.973 -0.4603 -0.3243  2.7807
  291MOL0     H39229   5.914  10.005   7.050  0.2098 -1.2078 -0.1487
  291MOL0     H39230   5.864  10.039   6.751  0.5988 -0.1448 -0.2627
  291MOL0     H39231   6.022   9.999   6.815 -0.5133  2.3752  0.9696
  291MOL0     H39232   5.761   9.831   6.847  0.1603  2.8975  1.5678
  291MOL0     H39233   5.903   9.771   6.910 -2.2546 -1.2173 -0.1751
  291MOL0     H39234   5.836   9.745   6.641 -1.2707  4.6238  0.7690
  291MOL0     H39235   5.983   9.837   6.645  1.3491 -0.8704 -0.5381
  291MOL0     H39236   5.841   9.502   6.779  2.0080 -3.1678 -1.0393
  291MOL0     H39237   6.174   9.275   6.850 -0.5084 -1.4191 -0.2509
  291MOL0     H39238   6.043   9.310   6.954 -0.4445 -1.9483 -0.0474
  291MOL0     H39239   5.885   9.207   6.818  0.2747  1.1210  0.3233
  291MOL0     H39240   5.949   9.259   6.674 -2.6133 -0.1056  0.3744
  291MOL0     H39241   6.143   9.085   6.712 -0.3238 -0.5293 -0.0724
  291MOL0     H39242   5.982   9.004   6.701  2.2737 -5.2229  1.8946
  291MOL0     H39243   5.992   9.004   6.963 -0.5245  1.2676 -0.1692
  291MOL0     H39244   6.151   9.070   6.946 -0.5212 -0.1593  1.4875
  291MOL0     H39245   6.245   8.684   6.750 -0.3585  0.8112 -0.8161
  291MOL0     H39246   6.110   8.503   6.638  0.4664  0.6712 -0.4796
  291MOL0     H39247   5.755   8.199   6.687 -2.5797 -3.0866  2.4670
  291MOL0     H39248   5.613   8.026   6.608 -2.2005 -0.2841  0.0581
  291MOL0     H39249   5.315   7.865   6.436  1.1735  0.1627 -2.4736
  291MOL0     H39250   5.481   7.876   6.445 -0.0596  0.9650  0.1005
  291MOL0     H39251   5.389   7.767   6.652 -1.9623 -1.3062 -1.3019
  291MOL0     H39252   5.448   7.919   6.707 -0.8605  0.5766  0.7915
  291MOL0     H39253   5.241   8.024   6.714 -1.3266 -0.4013  1.0845
  291MOL0     H39254   5.164   7.938   6.599 -0.5914  3.5093  0.2332
  291MOL0     H39255   5.230   7.844   6.882  0.4698 -0.1977 -1.0291
  291MOL0     H39256   5.160   7.739   6.757  2.0419 -0.8731  0.7052
  291MOL0     H39257   4.960   7.812   6.824  0.5555 -0.6578  0.1778
  291MOL0     H39258   4.997   7.961   6.737  3.5023  1.2318 -0.0827
  291MOL0     H39259   4.919   8.030   6.969  0.5608  0.6527  1.3037
  291MOL0     H39260   5.053   7.932   7.035  0.8890 -0.0940 -0.2629
  291MOL0     H39261   5.087   8.166   6.846  0.3741 -0.5480 -1.2533
  291MOL0     H39262   5.217   8.090   6.948 -0.2331 -0.5133  0.1369
  291MOL0     H39263   5.080   8.175   7.148  0.9416 -1.7501 -0.6900
  291MOL0     H39264   5.152   8.295   7.038 -2.7054  2.6560 -3.2874
  291MOL0     H39265   5.352   8.305   6.416  1.4296  1.2826 -1.2089
  291MOL0     H39266   5.500   8.477   6.466 -1.2361 -0.5741  1.6389
  291MOL0     H39267   5.742   8.692   6.730 -0.1562 -0.6364 -2.9701
  291MOL0     H39268   5.880   8.863   6.861  0.3666  0.5684  0.0583
  291MOL0     H39269   5.436  10.579   7.294  3.2548  0.2327  1.6229
  291MOL0     H39270   5.306  10.706   7.466 -1.6160 -0.6116 -0.0101
  291MOL0     H39271   4.812  10.565   7.640 -1.3545  0.7054 -0.8104
  291MOL0     H39272   4.634  10.704   7.718 -1.4272  0.4615  1.7394
  291MOL0     H39273   4.531  10.897   7.728  2.8196 -4.2148  0.0486
  291MOL0     H39274   4.484  10.985   7.865 -1.1024  0.9306 -1.3998
  291MOL0     H39275   4.492  10.763   8.004 -0.4193  0.3771 -0.0312
  291MOL0     H39276   4.472  10.673   7.854 -1.0235 -0.0175 -0.7486
  291MOL0     H39277   4.261  10.729   7.815  0.6750  0.8699 -0.7835
  291MOL0     H39278   4.285  10.892   7.890  3.7351  1.2501  2.9194
  291MOL0     H39279   4.269  10.780   8.104 -0.8269 -1.3234  1.3053
  291MOL0     H39280   4.126  10.768   7.997 -0.4278 -0.8908 -0.7290
  291MOL0     H39281   4.268  10.359   8.020  1.6955 -0.1292  0.7403
  291MOL0     H39282   4.911  10.920   7.958 -2.6151  1.3124  0.2762
  291MOL0     H39283   5.141  10.901   7.947  0.4438 -1.2432  1.5165
  291MOL0     H39284   5.197  10.740   7.912 -0.6738 -0.2856 -0.8095
  291MOL0     H39285   5.193  10.876   7.788 -1.8343 -0.4175 -0.7666
  292MOL0     O39286   3.837   1.658   6.594 -0.1959 -1.3972 -0.6204
  292MOL0     C39287   3.792   1.558   6.547 -0.0454  0.1123 -0.0702
  292MOL0     O39288   3.833   1.438   6.567 -0.3200  0.1825  0.3871
  292MOL0     C39289   3.947   1.425   6.649 -0.3732 -0.0125 -0.4296
  292MOL0     C39290   4.069   1.410   6.584  0.3525 -0.5460  0.2669
  292MOL0     C39291   4.189   1.410   6.661 -0.3154 -0.2611 -0.1614
  292MOL0     C39292   4.186   1.410   6.798 -1.2233 -0.2823  1.4194
  292MOL0     O39293   4.292   1.420   6.876 -0.6391 -0.8040 -0.1225
  292MOL0     C39294   4.426   1.429   6.832  0.2495  0.5413 -0.4222
  292MOL0     C39295   4.502   1.437   6.967  0.2339 -0.1447  0.0498
  292MOL0     C39296   4.655   1.456   6.947  0.2820 -0.0348 -0.5584
  292MOL0     C39297   4.680   1.579   6.861  0.6271 -0.6721 -0.2653
  292MOL0     C39298   4.824   1.644   6.869 -0.5659 -0.9062  0.4182
  292MOL0     C39299   4.838   1.729   7.001 -0.4221  0.0221  0.1034
  292MOL0     C39300   4.976   1.787   7.021  0.7256 -0.6399  0.5104
  292MOL0     C39301   5.005   1.835   7.161 -0.3502  0.2736  0.3347
  292MOL0     N39302   5.142   1.867   7.195 -0.2748  0.9005 -0.0057
  292MOL0     C39303   5.208   1.986   7.158 -0.8007  1.0140  1.0516
  292MOL0     C39304   5.318   1.986   7.243 -0.1611 -0.7355  0.9422
  292MOL0     C39305   5.419   2.097   7.247  0.1598 -0.2960 -0.5378
  292MOL0     C39306   5.504   2.073   7.379  0.3343 -0.0725 -0.1582
  292MOL0     C39307   5.604   2.192   7.403  0.6322 -0.6361 -1.1102
  292MOL0     C39308   5.705   2.198   7.296  0.8821  0.4483  0.3412
  292MOL0     O39309   5.778   2.325   7.306 -0.2436 -0.4796  0.5384
  292MOL0     C39310   5.887   2.327   7.386  0.6249  0.4040  0.2838
  292MOL0     C39311   5.896   2.414   7.504 -0.4875 -0.8261  0.0342
  292MOL0     C39312   6.025   2.416   7.567 -0.8330  0.9001  0.4810
  292MOL0     C39313   6.128   2.331   7.516  0.2922 -0.4877  0.3370
  292MOL0     C39314   6.259   2.338   7.591 -0.1893  0.2182  0.1074
  292MOL0     O39315   6.369   2.267   7.538  0.2887  0.0138 -0.4536
  292MOL0     C39316   6.486   2.279   7.606  0.2428  0.2066 -1.1690
  292MOL0     C39317   6.505   2.182   7.717  0.1815  0.2873  1.0074
  292MOL0     C39318   6.626   2.178   7.777  0.6549  0.6346 -0.0244
  292MOL0     C39319   6.725   2.277   7.748 -0.1278  0.8399  0.3818
  292MOL0     O39320   6.839   2.285   7.828 -0.3917  0.4504  0.1731
  292MOL0     C39321   6.905   2.161   7.856 -0.7474 -0.5704 -0.2685
  292MOL0     C39322   6.890   2.138   8.009  0.2685 -0.8935  0.1477
  292MOL0     C39323   7.008   2.047   8.061  0.2843  0.0406  0.3830
  292MOL0     C39324   7.082   2.110   8.184  0.7874  0.0370 -0.2889
  292MOL0     C39325   7.183   2.025   8.260  0.4186  0.2684 -0.0029
  292MOL0     C39326   7.327   2.049   8.191  0.1346  0.2138 -0.2508
  292MOL0     C39327   7.396   2.180   8.247  0.0657  0.1006 -0.1756
  292MOL0     C39328   7.553   2.197   8.215  0.2446  0.2375  0.4903
  292MOL0    Cl39329   7.589   2.171   8.040  0.0247  0.0616 -0.3772
  292MOL0     C39330   6.705   2.370   7.656 -0.0659 -0.0181  0.5990
  292MOL0     C39331   6.584   2.374   7.580 -0.1029 -0.9992  0.1568
  292MOL0     O39332   6.267   2.409   7.694  0.3653  0.5091 -0.2609
  292MOL0     C39333   6.108   2.252   7.407  0.3369  0.0093 -0.7582
  292MOL0     C39334   5.997   2.259   7.332 -0.1688  0.0774  0.2862
  292MOL0     N39335   5.316   1.874   7.327 -0.5833  0.7667 -0.0266
  292MOL0     N39336   5.217   1.796   7.294  0.5134 -0.7062  0.1451
  292MOL0     C39337   4.060   1.401   6.859 -0.3962  0.0809  0.3887
  292MOL0     C39338   3.942   1.411   6.790  0.4249  0.5144 -0.0723
  292MOL0     C39339   3.682   1.580   6.455  1.1892  0.0050 -0.0076
  292MOL0     C39340   3.629   1.471   6.387 -0.2128  0.4535 -0.1622
  292MOL0     C39341   3.532   1.483   6.287  1.0379  0.4926 -0.0820
  292MOL0     C39342   3.502   1.612   6.243 -0.5119 -0.0239  0.2230
  292MOL0     O39343   3.424   1.644   6.136  0.7876  0.1055  0.1369
  292MOL0     C39344   3.450   1.586   6.003 -0.0705 -0.0046  0.6462
  292MOL0     C39345   3.309   1.540   5.950 -0.1573  0.0849  0.3983
  292MOL0     C39346   3.227   1.449   6.050 -0.4844 -0.8282 -0.6467
  292MOL0     C39347   3.140   1.341   5.973 -0.0612  0.0648  0.1913
  292MOL0     C39348   3.028   1.405   5.885 -0.6952 -0.8762  0.0022
  292MOL0     C39349   2.945   1.476   5.825  0.0660 -0.3816 -0.4739
  292MOL0     C39350   3.556   1.718   6.311  0.7695  0.3675  0.0117
  292MOL0     C39351   3.633   1.712   6.418 -0.0205  0.1453  0.6754
  292MOL0     C39352   3.692   1.842   6.476  0.1347 -0.7685  0.1929
  292MOL0     H39353   4.082   1.433   6.479  1.8447  1.2971  0.7960
  292MOL0     H39354   4.282   1.420   6.606 -0.0071  0.1542  0.4336
  292MOL0     H39355   4.448   1.346   6.764 -0.5249 -1.2298  1.3719
  292MOL0     H39356   4.435   1.522   6.775  0.3862  0.1010 -1.1367
  292MOL0     H39357   4.491   1.337   7.009  0.7911 -1.3181 -2.3850
  292MOL0     H39358   4.475   1.522   7.029  0.7720  1.1091 -1.3501
  292MOL0     H39359   4.712   1.369   6.914  0.4590 -1.8732  3.9481
  292MOL0     H39360   4.692   1.480   7.047  0.5448  0.6053 -0.7999
  292MOL0     H39361   4.661   1.564   6.754  0.9104  2.4669 -0.8700
  292MOL0     H39362   4.606   1.656   6.886  1.6908  0.7031 -1.1749
  292MOL0     H39363   4.903   1.574   6.843  0.8721  1.7501 -3.2544
  292MOL0     H39364   4.838   1.716   6.788  1.2487 -0.8219  0.7789
  292MOL0     H39365   4.767   1.811   6.987 -0.9015  0.0858  2.4072
  292MOL0     H39366   4.813   1.667   7.088  3.1101 -3.1362 -0.8586
  292MOL0     H39367   4.987   1.874   6.955 -0.5248  0.1740  1.3042
  292MOL0     H39368   5.043   1.708   6.988 -0.7155 -2.0629  0.8748
  292MOL0     H39369   4.946   1.925   7.182  0.6122  0.9875  0.0471
  292MOL0     H39370   4.974   1.755   7.229  3.4443 -1.3665  0.3638
  292MOL0     H39371   5.185   2.045   7.070 -0.3508  0.0677  0.2790
  292MOL0     H39372   5.471   2.093   7.151  0.0887  1.3787 -0.6661
  292MOL0     H39373   5.369   2.194   7.241 -1.5529 -0.6947  3.5582
  292MOL0     H39374   5.442   2.059   7.469  0.7299  0.7947  0.2644
  292MOL0     H39375   5.554   1.977   7.369  0.4509 -0.3263  2.2133
  292MOL0     H39376   5.641   2.164   7.502 -1.4657  0.8441  0.1894
  292MOL0     H39377   5.546   2.283   7.420 -1.6341 -2.0697 -0.6968
  292MOL0     H39378   5.664   2.193   7.195  0.8272  1.8426  0.2757
  292MOL0     H39379   5.769   2.109   7.303  1.4355  0.8765  0.7924
  292MOL0     H39380   5.816   2.482   7.532  0.0046 -0.1744 -0.1154
  292MOL0     H39381   6.038   2.483   7.652  3.2770 -0.3637  1.0584
  292MOL0     H39382   6.428   2.108   7.739 -2.3814  3.0454  2.0795
  292MOL0     H39383   6.620   2.105   7.857 -1.0342  0.8843  0.1069
  292MOL0     H39384   6.861   2.074   7.805  0.9592 -1.6645  0.0107
  292MOL0     H39385   7.011   2.165   7.827 -0.9131  1.0169 -0.7161
  292MOL0     H39386   6.902   2.233   8.062 -1.2636  0.3502 -1.5860
  292MOL0     H39387   6.797   2.089   8.039 -0.2882 -0.3839 -0.6873
  292MOL0     H39388   6.976   1.945   8.083  0.0747  0.3750  1.7250
  292MOL0     H39389   7.089   2.046   7.987 -1.2264  0.1287 -1.3272
  292MOL0     H39390   7.011   2.133   8.264 -0.0932  1.4897 -1.4390
  292MOL0     H39391   7.133   2.202   8.155  0.0210  0.5971  0.1215
  292MOL0     H39392   7.158   1.919   8.253  0.7070 -0.3436  4.7007
  292MOL0     H39393   7.197   2.049   8.366  1.3598  2.0988 -0.5038
  292MOL0     H39394   7.383   1.965   8.235 -0.0069  1.5351  2.6250
  292MOL0     H39395   7.322   2.023   8.084 -1.1704  1.4755 -0.5221
  292MOL0     H39396   7.368   2.193   8.352  0.5463  0.3068 -0.0702
  292MOL0     H39397   7.353   2.272   8.205  1.3263  1.1616  0.7710
  292MOL0     H39398   7.590   2.297   8.238 -2.8956  2.0157 -1.4835
  292MOL0     H39399   7.608   2.118   8.267 -0.1079 -0.3492 -0.0060
  292MOL0     H39400   6.792   2.433   7.640  0.2203 -0.6752 -0.6136
  292MOL0     H39401   6.577   2.435   7.490  0.5181  1.0407  1.4089
  292MOL0     H39402   6.181   2.191   7.354 -2.0131 -1.9355 -1.9386
  292MOL0     H39403   5.980   2.201   7.242  1.2321  0.6390 -0.3672
  292MOL0     H39404   4.053   1.390   6.967  0.4072  3.3329  0.8724
  292MOL0     H39405   3.848   1.412   6.843  0.9604  0.2264  0.9084
  292MOL0     H39406   3.651   1.372   6.425 -2.4602 -0.0066  0.0707
  292MOL0     H39407   3.498   1.391   6.241  3.1483 -0.3610 -0.0578
  292MOL0     H39408   3.530   1.511   6.009  0.0638  0.1719  1.1299
  292MOL0     H39409   3.485   1.668   5.939  3.2918  0.3466  2.6756
  292MOL0     H39410   3.323   1.491   5.853 -1.6939  0.6296 -0.1416
  292MOL0     H39411   3.246   1.629   5.939 -1.5453 -1.0301 -1.2979
  292MOL0     H39412   3.166   1.508   6.119 -2.7651 -2.8639 -0.8316
  292MOL0     H39413   3.287   1.385   6.115 -0.5388 -2.3201 -2.0090
  292MOL0     H39414   3.197   1.272   5.910  0.1861  0.4586 -0.0218
  292MOL0     H39415   3.081   1.283   6.044 -0.1543 -1.3929 -1.0286
  292MOL0     H39416   2.865   1.532   5.782 -2.2653 -1.6153  1.9312
  292MOL0     H39417   3.540   1.819   6.274  1.8787  0.8809  0.8727
  292MOL0     H39418   3.685   1.844   6.585 -0.2740  3.1403  0.2421
  292MOL0     H39419   3.791   1.865   6.435  0.0415 -1.1170 -0.2428
  292MOL0     H39420   3.627   1.925   6.447  2.2681  0.9533  0.1511
  293MOL0     O39421   0.469   7.154   8.359 -0.2233  0.3312 -0.1254
  293MOL0     C39422   0.469   7.083   8.458  0.8404  0.6223 -0.4644
  293MOL0     O39423   0.577   7.050   8.533 -0.1251 -0.1370 -0.0502
  293MOL0     C39424   0.691   7.115   8.498  0.0395 -0.1181  0.3139
  293MOL0     C39425   0.803   7.044   8.446  0.6595 -0.3934 -0.3829
  293MOL0     C39426   0.911   7.115   8.395 -1.0127  0.9555  0.2107
  293MOL0     C39427   0.913   7.253   8.399 -0.5425 -0.0202 -0.2533
  293MOL0     O39428   1.021   7.314   8.342  0.0386  0.2865 -0.3672
  293MOL0     C39429   1.082   7.415   8.420 -0.8184  0.2815 -0.1582
  293MOL0     C39430   1.214   7.442   8.346 -0.4977  0.9754  0.5461
  293MOL0     C39431   1.181   7.500   8.199 -0.1464  0.5244  0.0992
  293MOL0     C39432   1.099   7.627   8.196  0.3032 -0.0567 -1.0010
  293MOL0     C39433   1.097   7.687   8.056  0.0356 -0.9423  0.8102
  293MOL0     C39434   1.235   7.761   8.028  0.2855  0.1867  0.2744
  293MOL0     C39435   1.280   7.733   7.886 -0.4506 -0.4243  0.6394
  293MOL0     C39436   1.189   7.800   7.785  0.3088 -0.5972 -0.7405
  293MOL0     N39437   1.243   7.797   7.652 -0.5988  0.3735  0.6366
  293MOL0     C39438   1.199   7.883   7.553 -1.2067  0.7807 -0.3410
  293MOL0     C39439   1.278   7.850   7.447  0.3876  0.1999 -0.4373
  293MOL0     C39440   1.241   7.903   7.315  0.3533 -0.1120  0.3332
  293MOL0     C39441   1.348   7.989   7.255 -0.6800  0.6767 -0.5824
  293MOL0     C39442   1.330   8.004   7.106  0.2755  0.1007 -0.0823
  293MOL0     C39443   1.215   8.111   7.078 -1.3835 -0.9107  0.2276
  293MOL0     O39444   1.219   8.147   6.936 -0.0606 -0.7633 -0.2363
  293MOL0     C39445   1.322   8.231   6.894  0.2980 -0.2135  1.1807
  293MOL0     C39446   1.397   8.322   6.965  0.2734  0.2400  0.1437
  293MOL0     C39447   1.500   8.402   6.902  1.0509  0.5327 -0.8951
  293MOL0     C39448   1.532   8.378   6.763  0.0801 -0.5937  0.5763
  293MOL0     C39449   1.626   8.463   6.686  0.9678  0.1781  0.3075
  293MOL0     O39450   1.658   8.566   6.762  0.0508 -0.2331  0.3711
  293MOL0     C39451   1.711   8.669   6.690  0.7459  0.6562 -0.0169
  293MOL0     C39452   1.618   8.769   6.651 -0.6695  1.0079 -0.9722
  293MOL0     C39453   1.657   8.874   6.581 -0.5555 -0.1083  0.9916
  293MOL0     C39454   1.789   8.877   6.529 -0.3348 -0.4843 -0.0602
  293MOL0     O39455   1.838   8.968   6.438 -0.2993  0.2239  0.7621
  293MOL0     C39456   1.736   9.046   6.362 -0.2020  0.0599 -0.2911
  293MOL0     C39457   1.779   9.187   6.392 -0.6377  0.2531 -0.2380
  293MOL0     C39458   1.708   9.299   6.319 -0.7013 -0.9613 -0.6081
  293MOL0     C39459   1.810   9.402   6.260 -0.4470 -0.2444  0.6094
  293MOL0     C39460   1.878   9.360   6.125  0.0300 -0.5949 -0.5446
  293MOL0     C39461   1.940   9.488   6.066 -0.4101  0.2586  0.4148
  293MOL0     C39462   2.072   9.435   5.985  0.8019  0.5435 -1.4793
  293MOL0     C39463   2.136   9.552   5.905 -0.1060  0.0272  0.5571
  293MOL0    Cl39464   2.302   9.494   5.868  0.0970  0.0600  0.0609
  293MOL0     C39465   1.880   8.777   6.566  0.1913  1.2125 -0.1554
  293MOL0     C39466   1.841   8.675   6.647  0.2067 -0.1626  0.4272
  293MOL0     O39467   1.664   8.444   6.568 -0.0206 -0.0487  0.1047
  293MOL0     C39468   1.453   8.286   6.690 -0.4363 -0.4451 -0.1224
  293MOL0     C39469   1.364   8.215   6.755  0.9014  0.9198 -0.4722
  293MOL0     N39470   1.364   7.740   7.480 -0.2110 -0.7452 -0.2622
  293MOL0     N39471   1.337   7.704   7.602  0.2660  0.1471 -0.3794
  293MOL0     C39472   0.808   7.323   8.461 -0.5670 -1.1247  0.4662
  293MOL0     C39473   0.700   7.254   8.511  0.1227  0.2024 -0.6377
  293MOL0     C39474   0.336   7.048   8.502  0.5154  0.4205 -0.1544
  293MOL0     C39475   0.326   7.048   8.647 -0.4536  0.1984  0.3127
  293MOL0     C39476   0.198   7.034   8.701 -0.6335 -0.7647 -0.1287
  293MOL0     C39477   0.086   7.009   8.619 -0.5215  0.6246 -0.6544
  293MOL0     O39478  -0.033   6.994   8.686 -0.1538 -0.4824 -0.2457
  293MOL0     C39479  -0.148   6.928   8.629  0.0568 -0.2250 -0.8491
  293MOL0     C39480  -0.238   7.024   8.561  0.1194  0.3125  0.5129
  293MOL0     C39481  -0.289   7.146   8.649 -0.4285 -0.1270  0.9439
  293MOL0     C39482  -0.409   7.208   8.576  0.4195 -0.5368 -0.3389
  293MOL0     C39483  -0.521   7.254   8.664  0.1200 -0.2869 -0.0526
  293MOL0     C39484  -0.621   7.294   8.725  0.4033 -0.2256  0.1844
  293MOL0     C39485   0.101   7.004   8.473  0.7161 -0.7174  0.7069
  293MOL0     C39486   0.227   7.018   8.413 -1.1114 -0.3715 -0.5775
  293MOL0     C39487   0.240   7.018   8.272 -0.0507 -1.0804  0.0901
  293MOL0     H39488   0.799   6.937   8.427  0.9000 -0.2675 -1.1481
  293MOL0     H39489   1.003   7.072   8.355  1.2187  1.3408  4.3919
  293MOL0     H39490   1.011   7.498   8.433 -1.7147 -0.5568  0.4618
  293MOL0     H39491   1.100   7.376   8.521 -0.5639  3.6827  1.2388
  293MOL0     H39492   1.267   7.347   8.333  2.4082  2.7436 -2.3134
  293MOL0     H39493   1.286   7.510   8.394  1.0791 -0.8819  0.9353
  293MOL0     H39494   1.129   7.425   8.138  3.6988 -3.1207  0.7807
  293MOL0     H39495   1.274   7.539   8.156  1.7796  2.3478  5.1370
  293MOL0     H39496   0.997   7.594   8.218  1.3469 -3.3360 -0.4950
  293MOL0     H39497   1.134   7.693   8.276  0.1042 -0.2638 -0.7403
  293MOL0     H39498   1.081   7.603   7.988  2.8395 -1.6568  0.9329
  293MOL0     H39499   1.013   7.757   8.045 -1.1184 -2.4639 -0.5938
  293MOL0     H39500   1.223   7.868   8.048 -0.6537 -0.2751  2.3947
  293MOL0     H39501   1.313   7.726   8.096  0.8143  0.9355  0.0806
  293MOL0     H39502   1.277   7.625   7.868 -1.1066 -0.5504  1.4217
  293MOL0     H39503   1.376   7.784   7.874 -2.0082  3.3635  2.6051
  293MOL0     H39504   1.099   7.739   7.778 -0.7799  1.1417 -3.0874
  293MOL0     H39505   1.160   7.900   7.816 -2.3103 -1.9201  1.5121
  293MOL0     H39506   1.118   7.954   7.555 -2.3497 -0.4364  2.7992
  293MOL0     H39507   1.249   7.814   7.252  0.0528  0.5952 -0.7259
  293MOL0     H39508   1.139   7.940   7.312  0.5496  0.6813  2.1038
  293MOL0     H39509   1.343   8.085   7.306  2.0076 -0.1959  1.5765
  293MOL0     H39510   1.440   7.939   7.287 -1.5822 -1.6802 -1.4547
  293MOL0     H39511   1.315   7.911   7.050 -2.5114  0.7454 -0.5681
  293MOL0     H39512   1.420   8.042   7.057  1.7443 -0.2146  2.2334
  293MOL0     H39513   1.224   8.194   7.148 -0.1627 -1.8774  1.2858
  293MOL0     H39514   1.121   8.063   7.105 -1.0045 -1.7232  0.1409
  293MOL0     H39515   1.383   8.325   7.072 -0.9672 -3.2064  0.2133
  293MOL0     H39516   1.568   8.466   6.957 -0.7246 -0.7178  3.0880
  293MOL0     H39517   1.515   8.775   6.685  0.1308 -1.2777  2.4227
  293MOL0     H39518   1.584   8.951   6.561 -1.6617 -0.9811  1.6048
  293MOL0     H39519   1.749   9.039   6.254  2.5369 -3.5239  0.0693
  293MOL0     H39520   1.633   9.018   6.382  0.2886 -1.6733  0.0011
  293MOL0     H39521   1.771   9.202   6.500 -0.5026 -0.0678 -0.1827
  293MOL0     H39522   1.884   9.199   6.363 -1.1068 -0.9029 -2.6118
  293MOL0     H39523   1.650   9.245   6.243 -1.7066  0.2252 -0.7008
  293MOL0     H39524   1.649   9.351   6.394  2.7752  2.4431  0.0885
  293MOL0     H39525   1.876   9.441   6.338 -2.3952  2.4500  1.0929
  293MOL0     H39526   1.753   9.494   6.242  1.1835  0.2175 -3.0487
  293MOL0     H39527   1.799   9.336   6.054 -0.9454  0.6813  0.0520
  293MOL0     H39528   1.951   9.283   6.152  2.5028  1.4065 -1.1584
  293MOL0     H39529   1.862   9.539   6.009  1.4939  1.9506 -0.7872
  293MOL0     H39530   1.974   9.559   6.142  1.9394  2.4675 -2.4613
  293MOL0     H39531   2.053   9.359   5.908  2.2178  1.6638 -3.0151
  293MOL0     H39532   2.142   9.389   6.054  0.1571 -1.2260 -1.9520
  293MOL0     H39533   2.079   9.578   5.815  1.5346 -3.4709 -1.7468
  293MOL0     H39534   2.154   9.637   5.971 -3.2391  1.0562  0.2560
  293MOL0     H39535   1.976   8.773   6.515  1.7587 -2.0847  2.6537
  293MOL0     H39536   1.921   8.602   6.652  2.8620  2.4233 -1.2308
  293MOL0     H39537   1.476   8.287   6.584 -2.6255 -0.3999 -0.6299
  293MOL0     H39538   1.292   8.153   6.702  0.3381  0.4736  0.7745
  293MOL0     H39539   0.813   7.431   8.458 -0.6145 -1.1449 -1.2786
  293MOL0     H39540   0.620   7.319   8.546  1.0519 -0.2350  2.5747
  293MOL0     H39541   0.412   7.049   8.712  1.7341  0.1094 -2.3934
  293MOL0     H39542   0.175   7.040   8.807 -0.8259 -1.2319 -0.1412
  293MOL0     H39543  -0.198   6.872   8.709  2.3934 -0.1521  0.7602
  293MOL0     H39544  -0.098   6.855   8.565 -0.3593 -1.9574  0.7003
  293MOL0     H39545  -0.321   6.961   8.529 -0.1688  1.3952 -0.9389
  293MOL0     H39546  -0.189   7.074   8.477 -0.3164 -1.8374 -1.1010
  293MOL0     H39547  -0.209   7.220   8.644 -4.1494  4.2863 -2.1758
  293MOL0     H39548  -0.302   7.106   8.750 -0.3157  0.7034  1.2934
  293MOL0     H39549  -0.383   7.303   8.529  0.6113 -0.1653  0.4914
  293MOL0     H39550  -0.442   7.136   8.501  1.1715  0.7886 -1.9879
  293MOL0     H39551  -0.717   7.305   8.771  1.6495  2.2658  2.5289
  293MOL0     H39552   0.008   6.987   8.420  0.5162 -0.2408  0.8954
  293MOL0     H39553   0.262   7.117   8.231  0.0388 -0.7015  1.0210
  293MOL0     H39554   0.316   6.948   8.237 -0.7420 -0.9751 -1.6932
  293MOL0     H39555   0.154   6.986   8.213  2.7271 -1.5200 -4.1154
  294MOL0     O39556   4.620   3.074   7.961 -0.0921 -0.6387  0.3979
  294MOL0     C39557   4.541   3.127   7.884 -0.2765  0.2046 -0.6304
  294MOL0     O39558   4.496   3.077   7.764  0.0934 -0.0461 -0.5636
  294MOL0     C39559   4.507   2.941   7.751  0.7239  0.5967 -0.9370
  294MOL0     C39560   4.397   2.862   7.803 -0.4907  0.5400 -0.6764
  294MOL0     C39561   4.398   2.723   7.778 -0.4587 -0.1480  0.3805
  294MOL0     C39562   4.501   2.664   7.705 -0.0114 -0.2280 -0.8388
  294MOL0     O39563   4.498   2.528   7.695  0.6475 -0.1063  0.1975
  294MOL0     C39564   4.616   2.450   7.693  0.2810 -0.0305 -0.0122
  294MOL0     C39565   4.623   2.365   7.814 -0.9552  0.7189  0.5071
  294MOL0     C39566   4.752   2.282   7.817  0.2878 -0.6483  0.7329
  294MOL0     C39567   4.765   2.143   7.741  0.6410  0.3060  0.5632
  294MOL0     C39568   4.899   2.081   7.783  1.2905 -0.1814  0.0906
  294MOL0     C39569   4.904   1.930   7.750 -0.4391 -0.3464 -1.1104
  294MOL0     C39570   5.052   1.887   7.769 -0.3112 -0.2600 -1.2175
  294MOL0     C39571   5.065   1.741   7.744 -0.3426  0.4620  0.1210
  294MOL0     N39572   5.205   1.702   7.760  0.9760 -0.4649 -0.7016
  294MOL0     C39573   5.307   1.742   7.678  1.1919 -0.6367  0.0051
  294MOL0     C39574   5.420   1.690   7.736  0.6762 -0.7327  0.7345
  294MOL0     C39575   5.565   1.712   7.696 -0.3685  0.0748 -0.2398
  294MOL0     C39576   5.657   1.765   7.805  1.1076 -0.0007 -0.2424
  294MOL0     C39577   5.807   1.773   7.768 -0.2330 -0.2290  0.4902
  294MOL0     C39578   5.832   1.868   7.649 -0.1235  0.5111  0.2684
  294MOL0     O39579   5.793   2.001   7.682  0.0822  0.2329  1.2257
  294MOL0     C39580   5.882   2.062   7.771 -0.2742  0.4354  0.2323
  294MOL0     C39581   6.014   2.024   7.790 -0.4196 -1.4805 -0.8223
  294MOL0     C39582   6.105   2.093   7.879  0.8342 -0.1734  0.3675
  294MOL0     C39583   6.063   2.221   7.932 -0.2005  0.1262 -0.0726
  294MOL0     C39584   6.150   2.290   8.023  0.7858 -0.0310  0.5483
  294MOL0     O39585   6.278   2.232   8.042 -1.2388  0.2398  0.2310
  294MOL0     C39586   6.362   2.267   8.142  0.8202 -1.1557 -0.3869
  294MOL0     C39587   6.366   2.192   8.265 -0.1151 -0.1986 -0.2278
  294MOL0     C39588   6.477   2.199   8.350  0.2996  0.0320 -0.1332
  294MOL0     C39589   6.587   2.279   8.314  0.7285  0.9529 -0.2982
  294MOL0     O39590   6.692   2.265   8.405 -0.2720 -0.7620  0.0578
  294MOL0     C39591   6.806   2.344   8.380  0.3121  0.7897  1.0604
  294MOL0     C39592   6.919   2.308   8.477  0.4589  0.2059  0.1441
  294MOL0     C39593   7.040   2.406   8.467  0.4983 -0.1007 -0.5166
  294MOL0     C39594   7.161   2.359   8.548 -0.0733 -0.7880  0.3369
  294MOL0     C39595   7.292   2.435   8.513 -0.4603 -0.3312 -0.5287
  294MOL0     C39596   7.298   2.571   8.579  0.6073  0.9834 -0.3802
  294MOL0     C39597   7.433   2.645   8.542  1.0123  0.5169  0.6150
  294MOL0     C39598   7.528   2.626   8.664  0.4738 -0.5399  0.8626
  294MOL0    Cl39599   7.479   2.698   8.822 -0.4778 -0.3913 -0.3409
  294MOL0     C39600   6.589   2.359   8.194 -0.1770  0.0227 -0.1796
  294MOL0     C39601   6.472   2.353   8.111  0.1970 -0.0915 -0.6052
  294MOL0     O39602   6.093   2.375   8.096  0.4857 -0.0802  0.9899
  294MOL0     C39603   5.932   2.260   7.894  0.0159  0.0450  1.3000
  294MOL0     C39604   5.835   2.175   7.832 -0.1315 -0.2379 -0.1244
  294MOL0     N39605   5.387   1.623   7.847 -0.5990  0.1841 -0.3189
  294MOL0     N39606   5.257   1.632   7.863  1.0825 -0.0395  0.0882
  294MOL0     C39607   4.604   2.744   7.655 -0.0091 -0.2522 -0.3535
  294MOL0     C39608   4.602   2.880   7.681 -0.6325 -0.3410  0.2364
  294MOL0     C39609   4.498   3.266   7.931 -0.3151 -0.3002  0.1784
  294MOL0     C39610   4.384   3.325   7.864  0.2564  0.4564 -0.7268
  294MOL0     C39611   4.337   3.450   7.908 -1.3052 -0.5369 -0.2048
  294MOL0     C39612   4.393   3.504   8.026 -0.1367  0.6446  0.3905
  294MOL0     O39613   4.358   3.626   8.078  0.0737  0.2808 -0.8058
  294MOL0     C39614   4.322   3.724   7.981  0.0974  0.2925  0.5157
  294MOL0     C39615   4.437   3.777   7.909  0.8352  0.5394 -0.1013
  294MOL0     C39616   4.398   3.905   7.818 -0.8630 -0.0075  0.4049
  294MOL0     C39617   4.528   3.985   7.788  0.5325 -0.2934 -0.3265
  294MOL0     C39618   4.609   3.922   7.681 -0.2239 -0.6228 -0.3120
  294MOL0     C39619   4.658   3.876   7.577  0.3238 -0.9383 -0.4242
  294MOL0     C39620   4.512   3.452   8.086  0.4197  0.1025 -0.1196
  294MOL0     C39621   4.570   3.337   8.032  0.0397 -0.4735 -0.0173
  294MOL0     C39622   4.706   3.299   8.088  0.8059  0.3165 -0.1504
  294MOL0     H39623   4.313   2.901   7.860 -1.1267  1.0390 -1.9066
  294MOL0     H39624   4.312   2.664   7.809 -2.6232  3.7480  2.5465
  294MOL0     H39625   4.615   2.386   7.605 -2.8559  1.2587 -1.0731
  294MOL0     H39626   4.706   2.512   7.690 -0.5511  1.2096 -2.2156
  294MOL0     H39627   4.537   2.297   7.816  1.4977 -2.5757  0.6463
  294MOL0     H39628   4.611   2.421   7.908 -0.8606  2.4522 -0.4618
  294MOL0     H39629   4.764   2.258   7.923 -0.1091  1.7133  1.3888
  294MOL0     H39630   4.843   2.338   7.792  0.0602  0.3518  2.0487
  294MOL0     H39631   4.688   2.074   7.777  1.8290 -1.1447  0.3826
  294MOL0     H39632   4.763   2.142   7.632 -2.1492  2.9146  0.4494
  294MOL0     H39633   4.980   2.130   7.728 -2.1490  2.2129 -3.3742
  294MOL0     H39634   4.908   2.073   7.892 -0.1572 -4.2186  0.0655
  294MOL0     H39635   4.844   1.865   7.815 -1.3497  1.2069 -0.3370
  294MOL0     H39636   4.862   1.910   7.651  0.6371 -1.9821 -1.2730
  294MOL0     H39637   5.094   1.919   7.865 -2.3179  1.2327 -0.7773
  294MOL0     H39638   5.110   1.941   7.693  0.8894  2.0506  1.1349
  294MOL0     H39639   5.002   1.684   7.813 -0.6799 -1.8472 -1.9312
  294MOL0     H39640   5.029   1.728   7.641  1.4676  1.6426 -0.7031
  294MOL0     H39641   5.292   1.798   7.587 -2.0861 -0.7650  0.3458
  294MOL0     H39642   5.602   1.613   7.669  1.4206  0.5645  0.2697
  294MOL0     H39643   5.566   1.772   7.605  0.6934 -2.1028 -1.7472
  294MOL0     H39644   5.634   1.865   7.842  1.4615 -1.1083  3.3827
  294MOL0     H39645   5.643   1.698   7.891 -0.7064  0.4147 -0.1872
  294MOL0     H39646   5.842   1.671   7.752 -3.9488 -2.0758  2.6689
  294MOL0     H39647   5.860   1.815   7.854  0.4556 -0.1976  0.0504
  294MOL0     H39648   5.770   1.830   7.568  1.4445  1.0284 -1.2283
  294MOL0     H39649   5.937   1.862   7.620  0.5844  1.3191  2.4674
  294MOL0     H39650   6.057   1.932   7.751 -2.4922 -1.7610 -2.6555
  294MOL0     H39651   6.200   2.052   7.910  1.3419  1.5026  1.1516
  294MOL0     H39652   6.284   2.122   8.278 -3.0704  2.0163 -4.5633
  294MOL0     H39653   6.497   2.145   8.442  0.2810 -0.3404 -0.3435
  294MOL0     H39654   6.844   2.321   8.280  4.6729  1.0328  2.4242
  294MOL0     H39655   6.773   2.446   8.400 -1.9906  0.2196  0.4523
  294MOL0     H39656   6.889   2.307   8.582  2.6588 -0.2231  0.8398
  294MOL0     H39657   6.962   2.210   8.456 -1.4758 -0.6163 -0.1212
  294MOL0     H39658   7.076   2.421   8.365  0.1608 -0.9925 -0.7781
  294MOL0     H39659   7.005   2.506   8.494  2.4729  0.4074  0.3469
  294MOL0     H39660   7.191   2.255   8.533  0.7446 -0.6659  0.9817
  294MOL0     H39661   7.139   2.371   8.655  4.0227  0.2207  1.2719
  294MOL0     H39662   7.296   2.437   8.404 -2.0814 -1.5223 -0.6423
  294MOL0     H39663   7.382   2.379   8.542 -1.3507 -1.5164  0.0683
  294MOL0     H39664   7.220   2.634   8.534  1.1492  1.1761 -1.0765
  294MOL0     H39665   7.270   2.568   8.684  0.2008  2.5903 -0.4083
  294MOL0     H39666   7.419   2.753   8.549  1.4022  0.4838  2.0924
  294MOL0     H39667   7.469   2.614   8.443 -0.0994  2.4979 -0.4667
  294MOL0     H39668   7.544   2.521   8.691 -1.5934 -1.4099 -0.9419
  294MOL0     H39669   7.624   2.667   8.632 -0.4868  0.6164 -0.6291
  294MOL0     H39670   6.684   2.396   8.156 -0.7775  0.3551 -1.4123
  294MOL0     H39671   6.484   2.397   8.012  0.4756  1.0371 -0.0881
  294MOL0     H39672   5.911   2.350   7.951  1.8169  2.5633 -1.6897
  294MOL0     H39673   5.736   2.211   7.806 -0.9779 -2.7496 -0.6284
  294MOL0     H39674   4.699   2.706   7.620  0.0427  1.0276 -1.7090
  294MOL0     H39675   4.688   2.944   7.664  1.3042 -2.2895  2.1056
  294MOL0     H39676   4.323   3.274   7.791 -3.0937  4.4457 -1.1215
  294MOL0     H39677   4.254   3.480   7.845 -0.2834  0.6596 -1.0045
  294MOL0     H39678   4.266   3.795   8.042 -4.2899 -1.9081 -0.5429
  294MOL0     H39679   4.249   3.690   7.906  0.9743 -1.8160  0.5785
  294MOL0     H39680   4.482   3.698   7.849  2.6079  0.8364  0.7420
  294MOL0     H39681   4.515   3.799   7.983  1.7150 -0.5639 -0.6683
  294MOL0     H39682   4.317   3.964   7.863 -1.4520 -0.7810  0.3838
  294MOL0     H39683   4.358   3.867   7.724 -1.0477  1.1986 -0.0139
  294MOL0     H39684   4.516   4.087   7.750  3.9157  0.6005  0.6790
  294MOL0     H39685   4.593   3.996   7.876 -1.7171  0.1140  1.4014
  294MOL0     H39686   4.697   3.843   7.483  0.5437 -1.7820 -0.0488
  294MOL0     H39687   4.557   3.495   8.175  2.4330 -2.9478  0.4847
  294MOL0     H39688   4.753   3.383   8.139  0.8582  2.3355 -3.3094
  294MOL0     H39689   4.694   3.219   8.162 -0.8294 -0.0771 -0.8070
  294MOL0     H39690   4.780   3.273   8.012  2.0851  1.0275  0.7985
  295MOL0     O39691   5.294   3.244   8.839  0.1477 -0.4772 -0.8639
  295MOL0     C39692   5.309   3.260   8.724  0.4572  0.1020 -0.7884
  295MOL0     O39693   5.400   3.346   8.666  0.6086 -0.2109  0.3334
  295MOL0     C39694   5.463   3.430   8.757  0.4010  1.2330 -0.2281
  295MOL0     C39695   5.585   3.382   8.827  1.4688  0.1624 -0.1385
  295MOL0     C39696   5.655   3.465   8.909 -0.2589  0.1690  0.1634
  295MOL0     C39697   5.617   3.596   8.922 -0.4088 -0.0390  0.2704
  295MOL0     O39698   5.676   3.692   8.999  0.1558 -0.4515 -0.6182
  295MOL0     C39699   5.764   3.662   9.109  0.5775  0.6552 -0.0841
  295MOL0     C39700   5.691   3.575   9.227  0.5655 -0.4223  0.0144
  295MOL0     C39701   5.764   3.587   9.363 -0.2549  0.2800  0.1766
  295MOL0     C39702   5.726   3.693   9.449  0.5063  0.2558  0.0080
  295MOL0     C39703   5.806   3.708   9.570 -0.5519 -0.2585 -0.1124
  295MOL0     C39704   5.756   3.835   9.643  0.0225 -0.9025 -0.0281
  295MOL0     C39705   5.821   3.838   9.781  1.1072  0.5097 -0.8281
  295MOL0     C39706   5.822   3.974   9.838 -0.4674  0.7306  0.4195
  295MOL0     N39707   5.880   3.981   9.978  0.3287 -0.2781  0.4522
  295MOL0     C39708   5.830   4.081  10.055 -0.8501  0.1930 -0.5744
  295MOL0     C39709   5.924   4.090  10.147  0.2714  0.2523  0.0376
  295MOL0     C39710   5.936   4.192  10.257  0.1541  0.3978 -0.0847
  295MOL0     C39711   5.883   4.123  10.397  0.1494  0.4595 -0.1815
  295MOL0     C39712   5.970   4.166  10.516 -0.3839 -0.7489  0.0939
  295MOL0     C39713   5.916   4.127  10.645 -0.7241  0.4826 -0.1992
  295MOL0     O39714   6.026   4.107  10.743  0.5807 -0.3469  0.0286
  295MOL0     C39715   6.084   4.210  10.805  0.2552 -0.7223 -0.0557
  295MOL0     C39716   6.062   4.347  10.778 -1.3429  0.4513 -0.1088
  295MOL0     C39717   6.128   4.448  10.844 -0.1140  0.0726 -0.4305
  295MOL0     C39718   6.223   4.407  10.952  0.4336  0.3953  0.4668
  295MOL0     C39719   6.295   4.509  11.032 -0.2814 -0.2075  0.1028
  295MOL0     O39720   6.383   4.472  11.119 -0.1964 -1.1335 -0.6269
  295MOL0     C39721   6.436   4.571  11.199 -0.6559 -0.0659 -0.5777
  295MOL0     C39722   6.363   4.610  11.312 -0.6106 -0.7518 -0.0860
  295MOL0     C39723   6.420   4.701  11.405 -0.0713  0.1744 -0.2333
  295MOL0     C39724   6.552   4.749  11.370  0.3462  0.8224 -0.1627
  295MOL0     O39725   6.631   4.829  11.448  0.6935 -0.3219 -0.5580
  295MOL0     C39726   6.608   4.848  11.586 -0.2000  0.1339 -0.3255
  295MOL0     C39727   6.744   4.883  11.647  0.3783  0.2629  0.0187
  295MOL0     C39728   6.740   4.949  11.788  0.5805 -0.5215  0.1868
  295MOL0     C39729   6.876   5.013  11.824 -0.7415  0.2795  0.3164
  295MOL0     C39730   6.994   4.916  11.811 -0.1239 -0.5117 -0.2530
  295MOL0     C39731   7.110   4.927  11.915  0.4699  0.2245 -0.1026
  295MOL0     C39732   7.165   4.789  11.961 -0.0330 -0.0503  0.6339
  295MOL0     C39733   7.200   4.685  11.845 -0.3739 -0.9006  0.4480
  295MOL0    Cl39734   7.348   4.718  11.743  0.0956 -0.0369  0.4147
  295MOL0     C39735   6.616   4.716  11.258  0.1436 -0.2567  0.4489
  295MOL0     C39736   6.557   4.631  11.161 -0.1350 -0.0972 -0.5487
  295MOL0     O39737   6.269   4.628  11.001  0.4488 -0.8899 -0.1650
  295MOL0     C39738   6.244   4.267  10.979 -1.1219 -1.0179  0.3556
  295MOL0     C39739   6.174   4.176  10.911  1.0982  0.4019 -0.4599
  295MOL0     N39740   6.028   4.001  10.128 -0.4016 -0.4645 -1.0433
  295MOL0     N39741   5.995   3.933  10.025 -0.4717 -0.7265  0.1874
  295MOL0     C39742   5.506   3.646   8.850 -1.0919  0.1363  0.3184
  295MOL0     C39743   5.426   3.562   8.774 -0.2947  0.2829  0.0884
  295MOL0     C39744   5.217   3.181   8.631  0.5797 -0.2942 -0.8790
  295MOL0     C39745   5.221   3.215   8.503  0.2049 -0.4980 -0.0339
  295MOL0     C39746   5.136   3.155   8.414 -0.4297 -0.2442 -0.2695
  295MOL0     C39747   5.042   3.063   8.449 -0.0628  0.0855  0.2719
  295MOL0     O39748   4.948   3.014   8.362  0.6321 -0.7199  0.4104
  295MOL0     C39749   4.952   3.035   8.219 -0.7944 -0.1636  0.1543
  295MOL0     C39750   4.861   2.939   8.139 -0.0679  0.2395 -0.2078
  295MOL0     C39751   4.901   2.926   7.986 -0.1669  0.3986 -0.1589
  295MOL0     C39752   4.997   2.813   7.953 -0.6565  0.4589 -0.3713
  295MOL0     C39753   5.030   2.800   7.814  0.8126  0.1719  0.2211
  295MOL0     C39754   5.048   2.787   7.692 -0.3551  0.5089  0.1494
  295MOL0     C39755   5.034   3.028   8.578  0.3367 -0.3237  0.9089
  295MOL0     C39756   5.123   3.084   8.679 -0.0219  0.0804  0.5728
  295MOL0     C39757   5.116   3.030   8.817  1.0298 -0.5625  0.2778
  295MOL0     H39758   5.610   3.277   8.828 -1.9264 -0.7650  0.9386
  295MOL0     H39759   5.747   3.424   8.950 -0.1015  0.9488  0.6203
  295MOL0     H39760   5.852   3.607   9.075 -1.6526 -2.1828 -1.7629
  295MOL0     H39761   5.790   3.759   9.152 -0.4606  0.3381  1.3359
  295MOL0     H39762   5.676   3.469   9.205 -1.9046  0.2171 -1.8479
  295MOL0     H39763   5.592   3.620   9.237 -0.0985 -0.8888 -3.2470
  295MOL0     H39764   5.869   3.603   9.337 -0.0634  0.1115  0.8240
  295MOL0     H39765   5.757   3.495   9.422 -1.3054  0.2792  0.0712
  295MOL0     H39766   5.750   3.788   9.401  1.7683  0.0450  0.1906
  295MOL0     H39767   5.623   3.684   9.483  0.1501 -2.8299 -1.5846
  295MOL0     H39768   5.789   3.620   9.634 -1.7425 -1.2043 -1.6850
  295MOL0     H39769   5.913   3.717   9.549 -0.3722 -2.4371 -0.3704
  295MOL0     H39770   5.768   3.930   9.591  0.2264 -0.8893  0.0439
  295MOL0     H39771   5.648   3.818   9.652 -0.0008 -1.4470 -1.2168
  295MOL0     H39772   5.923   3.802   9.764  1.2271  0.9015 -0.9425
  295MOL0     H39773   5.779   3.768   9.853  4.1060  0.6945  1.3086
  295MOL0     H39774   5.884   4.039   9.775 -0.7904  0.6677  0.0346
  295MOL0     H39775   5.716   3.999   9.849 -1.1562 -1.5429 -0.5379
  295MOL0     H39776   5.750   4.151  10.034  0.7844  2.9317  1.5379
  295MOL0     H39777   6.036   4.235  10.262  1.4712 -1.7496 -3.5284
  295MOL0     H39778   5.859   4.269  10.242 -0.3468  0.5284  2.6483
  295MOL0     H39779   5.780   4.158  10.406  1.0792  2.9917  1.9586
  295MOL0     H39780   5.874   4.015  10.385 -2.0072  0.6444 -0.6830
  295MOL0     H39781   5.994   4.273  10.525 -0.4367 -0.8747  2.2152
  295MOL0     H39782   6.056   4.101  10.504 -1.5017 -2.1522 -0.5662
  295MOL0     H39783   5.858   4.034  10.646 -1.8096  1.1147  2.3369
  295MOL0     H39784   5.842   4.202  10.670 -0.5133  1.6337 -2.7079
  295MOL0     H39785   5.998   4.371  10.693  0.7411  0.7809 -1.6769
  295MOL0     H39786   6.104   4.549  10.813 -2.4366 -0.5695 -0.9601
  295MOL0     H39787   6.268   4.563  11.337 -0.7445 -1.7443 -2.2796
  295MOL0     H39788   6.387   4.739  11.501  1.6658 -0.6734  0.7509
  295MOL0     H39789   6.539   4.931  11.604  0.7824  0.9773 -0.3243
  295MOL0     H39790   6.569   4.759  11.635  2.5771 -1.2737 -0.4473
  295MOL0     H39791   6.797   4.789  11.663 -3.1597 -1.9409 -0.1074
  295MOL0     H39792   6.801   4.947  11.579  1.8296  1.0315  1.8560
  295MOL0     H39793   6.668   5.031  11.792  0.3306 -0.7305 -0.0335
  295MOL0     H39794   6.719   4.870  11.860 -1.6085 -1.2374 -1.1253
  295MOL0     H39795   6.869   5.066  11.919  0.1863 -0.0114  0.5593
  295MOL0     H39796   6.889   5.095  11.754 -0.7732 -2.1300 -2.7120
  295MOL0     H39797   7.026   4.907  11.707 -0.7573  0.1792 -0.5147
  295MOL0     H39798   6.952   4.818  11.836  2.7047 -1.4648  1.3186
  295MOL0     H39799   7.197   4.979  11.873  0.5369  0.3492  0.1859
  295MOL0     H39800   7.074   4.985  12.001 -2.1051 -1.0594 -0.2342
  295MOL0     H39801   7.091   4.752  12.032 -0.8461  0.5573  0.1234
  295MOL0     H39802   7.254   4.802  12.023  0.1677 -0.7594  0.5002
  295MOL0     H39803   7.215   4.593  11.902 -2.0518 -0.7741  1.1464
  295MOL0     H39804   7.114   4.667  11.779 -0.1980 -0.9579  0.2330
  295MOL0     H39805   6.717   4.748  11.239  0.3920 -1.0130  0.4603
  295MOL0     H39806   6.619   4.599  11.078  1.8066  0.6689  0.5366
  295MOL0     H39807   6.310   4.233  11.059  1.0196 -0.2290 -0.9865
  295MOL0     H39808   6.189   4.076  10.951 -1.8494 -0.3482 -1.0076
  295MOL0     H39809   5.469   3.746   8.869  0.0092  0.8589 -1.1799
  295MOL0     H39810   5.339   3.607   8.729 -0.8683  0.8876  1.7263
  295MOL0     H39811   5.295   3.283   8.463  1.6294 -3.0609 -2.0721
  295MOL0     H39812   5.154   3.190   8.313  1.9198  1.3605  0.6004
  295MOL0     H39813   5.050   3.020   8.173 -0.6311  0.1602  0.3913
  295MOL0     H39814   4.917   3.135   8.193 -1.5246 -0.9801 -2.2537
  295MOL0     H39815   4.757   2.970   8.148 -0.1014  0.0218  0.1724
  295MOL0     H39816   4.869   2.842   8.190 -1.6315  0.1109 -0.1583
  295MOL0     H39817   4.946   3.024   7.970  0.5240  0.6418  2.7602
  295MOL0     H39818   4.811   2.916   7.924 -0.4703  0.5162  0.2586
  295MOL0     H39819   5.085   2.837   8.014 -2.4335  2.9571  1.3922
  295MOL0     H39820   4.969   2.713   7.985  0.0765  1.0347  2.3286
  295MOL0     H39821   5.062   2.768   7.588  2.0416  2.4393  0.0256
  295MOL0     H39822   4.955   2.958   8.601  0.7815 -1.4448 -0.8390
  295MOL0     H39823   5.043   2.949   8.827  1.2517 -0.6665  1.1211
  295MOL0     H39824   5.213   2.981   8.833  1.2832  0.7129  3.3362
  295MOL0     H39825   5.101   3.112   8.889  0.7045  0.1490 -0.5772
  296MOL0     O39826  10.960   1.679  11.034 -0.3254 -0.0468  0.1028
  296MOL0     C39827  11.041   1.591  11.019  0.3408 -0.4438  0.3462
  296MOL0     O39828  11.146   1.559  11.106 -0.2665  0.4478  0.3682
  296MOL0     C39829  11.165   1.641  11.213 -0.8247  0.7728  0.0407
  296MOL0     C39830  11.236   1.766  11.203  0.9519 -0.7475 -0.0554
  296MOL0     C39831  11.272   1.834  11.317  0.4111 -0.1241 -0.0549
  296MOL0     C39832  11.233   1.785  11.444  0.2729 -0.7719  0.4094
  296MOL0     O39833  11.250   1.858  11.559  0.2852  0.0477  0.0597
  296MOL0     C39834  11.376   1.922  11.567  0.8436 -0.5321  0.3214
  296MOL0     C39835  11.379   1.982  11.704  0.2428 -0.0131 -0.8335
  296MOL0     C39836  11.368   1.880  11.811 -0.0754  0.4994 -1.6371
  296MOL0     C39837  11.372   1.959  11.946 -0.3673 -0.0347 -0.4957
  296MOL0     C39838  11.367   1.873  12.079 -0.0422 -0.2574  0.3277
  296MOL0     C39839  11.462   1.762  12.086  0.0544  0.2748 -0.6061
  296MOL0     C39840  11.614   1.781  12.038  0.2727 -0.4041  0.9954
  296MOL0     C39841  11.680   1.885  12.123  0.2298 -0.5044  0.4565
  296MOL0     N39842  11.817   1.924  12.076  0.4472  0.0985 -0.1179
  296MOL0     C39843  11.925   1.848  12.109 -0.4675 -0.3539 -0.0166
  296MOL0     C39844  12.023   1.926  12.067  0.6980 -0.9773  0.3817
  296MOL0     C39845  12.169   1.922  12.118  0.5226 -0.5455  0.1634
  296MOL0     C39846  12.171   1.969  12.259 -0.5728 -0.0597 -0.2076
  296MOL0     C39847  12.096   2.103  12.284  0.0168  0.1686 -0.3802
  296MOL0     C39848  12.106   2.139  12.427 -0.3314  0.0357  0.1064
  296MOL0     O39849  12.051   2.034  12.508 -0.3492  0.4340 -0.0704
  296MOL0     C39850  12.078   2.059  12.642  0.2464 -0.2243 -0.6741
  296MOL0     C39851  11.993   2.126  12.736  0.1975  0.6786  0.4224
  296MOL0     C39852  12.033   2.135  12.875 -0.3732 -0.5886  0.7348
  296MOL0     C39853  12.149   2.066  12.921 -0.2954  0.1493 -0.1387
  296MOL0     C39854  12.184   2.059  13.066  0.9002 -0.7185  0.1007
  296MOL0     O39855  12.088   2.081  13.151 -0.0592 -0.1423 -0.0411
  296MOL0     C39856  12.112   2.065  13.289  0.2725 -0.6308 -1.0019
  296MOL0     C39857  12.079   2.165  13.385  0.2471  1.0135  0.1240
  296MOL0     C39858  12.090   2.140  13.524 -0.3984 -0.3874 -0.0991
  296MOL0     C39859  12.138   2.011  13.562  0.6262 -0.0592 -0.8127
  296MOL0     O39860  12.144   1.967  13.690  0.4364  0.4152 -0.3910
  296MOL0     C39861  12.060   2.030  13.789 -0.4949  0.4167 -0.2536
  296MOL0     C39862  12.070   1.946  13.923  0.4494 -0.3539  0.7600
  296MOL0     C39863  12.216   1.947  13.972  0.4153 -1.0114  0.5313
  296MOL0     C39864  12.230   1.889  14.117 -0.6982 -0.6682 -0.6138
  296MOL0     C39865  12.376   1.887  14.157  0.0485  1.0476  0.1532
  296MOL0     C39866  12.458   1.771  14.101 -0.0464  0.4740  0.3182
  296MOL0     C39867  12.603   1.760  14.155  0.0365 -0.7195  0.2766
  296MOL0     C39868  12.659   1.635  14.089 -0.5057 -0.6278  0.2153
  296MOL0    Cl39869  12.646   1.617  13.912  0.1734  0.1595  0.1810
  296MOL0     C39870  12.178   1.916  13.473 -0.2166 -0.0023 -0.1013
  296MOL0     C39871  12.165   1.942  13.337  0.1900 -0.3584 -0.1555
  296MOL0     O39872  12.306   2.032  13.090 -0.7623  0.9842 -0.3068
  296MOL0     C39873  12.228   2.000  12.826 -0.4679 -0.5360  0.3970
  296MOL0     C39874  12.191   1.994  12.692  0.3675  0.3022  0.1198
  296MOL0     N39875  11.971   2.025  11.986 -0.1693 -0.0673  0.1631
  296MOL0     N39876  11.848   2.019  11.990  0.0494 -0.1176 -0.0174
  296MOL0     C39877  11.153   1.672  11.450 -0.3601 -1.2474 -0.8678
  296MOL0     C39878  11.116   1.598  11.335 -0.0166 -0.1514 -0.2856
  296MOL0     C39879  11.034   1.512  10.894  0.2873 -0.6957  0.4211
  296MOL0     C39880  10.958   1.562  10.790  1.0502  0.6350 -0.4709
  296MOL0     C39881  10.964   1.509  10.667 -1.2151 -0.4474  0.2695
  296MOL0     C39882  11.050   1.415  10.622 -0.2365  0.0377 -0.6360
  296MOL0     O39883  11.057   1.382  10.484  1.0264 -0.2182  0.2030
  296MOL0     C39884  11.153   1.281  10.440  0.2737 -0.0982 -0.1558
  296MOL0     C39885  11.097   1.214  10.315  0.1299 -0.8211  0.3662
  296MOL0     C39886  10.952   1.172  10.338  0.2112  0.0005 -0.9323
  296MOL0     C39887  10.892   1.082  10.234 -0.0035 -0.0807  0.4274
  296MOL0     C39888  10.809   1.137  10.133  0.3130 -0.1564  0.3760
  296MOL0     C39889  10.745   1.196  10.043  0.1709 -0.4404  0.0960
  296MOL0     C39890  11.117   1.352  10.735 -0.5893  0.6207 -0.2360
  296MOL0     C39891  11.096   1.392  10.869  0.2087 -0.0045  0.1221
  296MOL0     C39892  11.171   1.320  10.978  0.5676  0.4765  0.0068
  296MOL0     H39893  11.270   1.792  11.104 -0.8190 -1.0610 -0.7818
  296MOL0     H39894  11.333   1.924  11.307  3.8459 -2.1145  1.0560
  296MOL0     H39895  11.465   1.859  11.557  1.4402  0.1482  1.1871
  296MOL0     H39896  11.384   2.007  11.499  1.9711 -1.4220 -0.7080
  296MOL0     H39897  11.296   2.053  11.716  1.7146  1.8014 -0.8650
  296MOL0     H39898  11.476   2.030  11.723 -0.2399  0.2718  1.1829
  296MOL0     H39899  11.453   1.811  11.808  0.8552  1.1279  2.9537
  296MOL0     H39900  11.273   1.826  11.800  0.9552 -0.9386 -4.0755
  296MOL0     H39901  11.467   2.013  11.939 -1.4249  2.1152  1.0445
  296MOL0     H39902  11.305   2.044  11.937  1.5252  1.4065 -2.0473
  296MOL0     H39903  11.374   1.938  12.167  0.7153 -0.3954  0.3771
  296MOL0     H39904  11.266   1.832  12.086 -0.5619  0.8745 -0.2199
  296MOL0     H39905  11.471   1.741  12.193  1.6217  0.1591 -0.7271
  296MOL0     H39906  11.424   1.678  12.028  2.6208 -2.2780  1.1119
  296MOL0     H39907  11.613   1.798  11.930 -3.1031 -2.7377  0.4827
  296MOL0     H39908  11.656   1.681  12.050 -3.2462 -2.5741 -2.2701
  296MOL0     H39909  11.624   1.979  12.114 -0.7590 -0.8815  2.2071
  296MOL0     H39910  11.684   1.866  12.230 -1.7309  0.4368  0.7328
  296MOL0     H39911  11.934   1.756  12.168  1.8095  1.1449  2.1947
  296MOL0     H39912  12.208   1.820  12.117  0.5273 -0.5445 -0.9617
  296MOL0     H39913  12.242   1.984  12.065  0.9459 -4.1863 -4.1805
  296MOL0     H39914  12.126   1.888  12.317  2.8627 -1.3956  0.8447
  296MOL0     H39915  12.267   1.994  12.305 -1.2814  2.0479  0.2476
  296MOL0     H39916  11.991   2.081  12.261  0.3602 -2.9710  0.5820
  296MOL0     H39917  12.132   2.186  12.222  2.4378  0.2646  1.0295
  296MOL0     H39918  12.045   2.227  12.448 -0.4865  0.6866 -2.7399
  296MOL0     H39919  12.212   2.155  12.445  0.4522  1.5411 -4.6285
  296MOL0     H39920  11.900   2.175  12.708 -0.1822  0.4906  1.3186
  296MOL0     H39921  11.966   2.191  12.939  1.8338  2.0223  0.9607
  296MOL0     H39922  12.039   2.259  13.348  1.9154  0.9704 -1.9812
  296MOL0     H39923  12.075   2.200  13.614  2.0106  0.0987  0.0569
  296MOL0     H39924  12.083   2.136  13.796  0.0328  0.2068  1.5740
  296MOL0     H39925  11.957   2.027  13.752 -0.4822 -2.8682 -0.3180
  296MOL0     H39926  12.004   1.984  14.002 -0.8727  0.7163 -0.7955
  296MOL0     H39927  12.043   1.841  13.904  3.6406 -1.2490  0.4996
  296MOL0     H39928  12.275   1.889  13.900 -0.0081  0.5530 -1.1555
  296MOL0     H39929  12.243   2.053  13.962 -1.0455 -0.6967 -0.3495
  296MOL0     H39930  12.182   1.791  14.121 -1.9793 -0.1047 -1.6557
  296MOL0     H39931  12.175   1.957  14.182  0.6873 -1.4767  1.5117
  296MOL0     H39932  12.374   1.881  14.266 -0.7891  0.9517  0.1337
  296MOL0     H39933  12.430   1.978  14.129  1.3314  0.5759  0.9640
  296MOL0     H39934  12.407   1.676  14.118 -3.0058  1.9797  0.5338
  296MOL0     H39935  12.469   1.777  13.993  1.2485 -0.7098  0.3510
  296MOL0     H39936  12.606   1.733  14.261  1.2310  2.1162  1.0555
  296MOL0     H39937  12.669   1.847  14.145 -1.5688  0.4766 -0.5206
  296MOL0     H39938  12.765   1.635  14.115 -0.1971 -0.9641 -0.9999
  296MOL0     H39939  12.608   1.550  14.134 -0.7261  0.3840  1.9597
  296MOL0     H39940  12.215   1.820  13.507 -1.1372  0.1591  1.4591
  296MOL0     H39941  12.198   1.880  13.255  1.2224  1.1908 -0.9632
  296MOL0     H39942  12.323   1.953  12.847 -1.1922 -1.4793  1.7578
  296MOL0     H39943  12.259   1.948  12.621  2.3275  2.1491  0.6928
  296MOL0     H39944  11.112   1.648  11.548  0.3442 -3.1443 -1.0037
  296MOL0     H39945  11.062   1.504  11.345 -1.7805  0.5690 -2.1572
  296MOL0     H39946  10.892   1.645  10.814  0.3772 -0.3498  1.3634
  296MOL0     H39947  10.903   1.549  10.587 -0.8161 -1.0536 -0.3547
  296MOL0     H39948  11.173   1.204  10.516  1.7029 -0.3218 -0.7240
  296MOL0     H39949  11.250   1.330  10.427  0.4928 -0.7315 -1.0329
  296MOL0     H39950  11.170   1.136  10.294 -0.6473 -1.9404  1.6756
  296MOL0     H39951  11.090   1.290  10.237  3.0996 -1.1212 -0.3100
  296MOL0     H39952  10.882   1.254  10.355  2.6234  2.3476 -1.7597
  296MOL0     H39953  10.959   1.111  10.430 -3.5036  1.3865  0.4408
  296MOL0     H39954  10.966   1.015  10.190 -0.6778 -0.5333 -0.0463
  296MOL0     H39955  10.824   1.016  10.289 -0.5717 -0.4218 -0.6646
  296MOL0     H39956  10.695   1.248   9.964  3.9005 -0.0484 -2.2861
  296MOL0     H39957  11.187   1.270  10.720 -1.8987 -0.9390  1.6404
  296MOL0     H39958  11.110   1.308  11.068 -1.8150 -0.4709 -1.6603
  296MOL0     H39959  11.199   1.218  10.950  2.0418 -0.1971  3.3861
  296MOL0     H39960  11.262   1.380  10.992 -0.6202  1.9794  1.7818
  297MOL0     O39961  10.323   8.123   0.066 -0.0659  0.4485 -1.2956
  297MOL0     C39962  10.413   8.150  -0.008 -0.8120 -0.7677  0.4670
  297MOL0     O39963  10.436   8.268  -0.060  0.2168 -0.1764  0.7590
  297MOL0     C39964  10.394   8.383  -0.013  1.5355 -0.8411 -0.5268
  297MOL0     C39965  10.388   8.423   0.121 -0.0537  0.0159  0.6031
  297MOL0     C39966  10.347   8.553   0.147 -0.7468 -0.1033 -0.6797
  297MOL0     C39967  10.328   8.647   0.043 -0.3004 -0.8140  0.1009
  297MOL0     O39968  10.295   8.777   0.080  0.0552  0.1285 -0.1672
  297MOL0     C39969  10.152   8.809   0.069  0.0569 -0.8188 -0.4970
  297MOL0     C39970  10.135   8.950   0.100  0.4912 -1.3299  0.1319
  297MOL0     C39971   9.997   8.992   0.040  0.7038 -0.8321  0.4263
  297MOL0     C39972   9.961   9.128   0.073 -0.4219 -0.1640  0.3818
  297MOL0     C39973   9.831   9.183   0.016  0.4953 -0.1736  0.3672
  297MOL0     C39974   9.826   9.332  -0.012 -0.0655 -0.9711 -0.0472
  297MOL0     C39975   9.859   9.411   0.116 -0.9078 -0.4932 -0.2625
  297MOL0     C39976   9.847   9.565   0.101  0.1022  1.1822  0.0347
  297MOL0     N39977   9.945   9.620   0.011 -0.7485  0.2272 -0.1568
  297MOL0     C39978  10.076   9.644   0.038 -0.4426  0.1493  0.7450
  297MOL0     C39979  10.131   9.656  -0.079  0.1891  0.6063  0.2109
  297MOL0     C39980  10.285   9.681  -0.099 -0.1431  1.0919 -0.1866
  297MOL0     C39981  10.340   9.762   0.022 -0.8574 -0.0082 -0.1461
  297MOL0     C39982  10.476   9.832  -0.001  0.0050  0.6433  0.1534
  297MOL0     C39983  10.609   9.762   0.036 -0.0847  0.7146 -0.9484
  297MOL0     O39984  10.614   9.622  -0.008  0.2118 -0.1336  0.1574
  297MOL0     C39985  10.730   9.573  -0.068  0.1124  0.7970 -0.9560
  297MOL0     C39986  10.706   9.446  -0.129  0.1139 -0.3170 -0.2529
  297MOL0     C39987  10.803   9.372  -0.185 -0.9622  0.8417  0.7070
  297MOL0     C39988  10.936   9.427  -0.184 -0.0397  0.1821  0.1047
  297MOL0     C39989  11.054   9.335  -0.216  0.0136  0.1320  0.5913
  297MOL0     O39990  11.025   9.216  -0.289 -0.1731 -0.3972  0.3377
  297MOL0     C39991  11.127   9.145  -0.352  0.3484 -0.9631  1.0353
  297MOL0     C39992  11.187   9.188  -0.469 -0.2904 -0.2949 -0.5041
  297MOL0     C39993  11.272   9.104  -0.551  0.4016 -0.0097 -1.3495
  297MOL0     C39994  11.283   8.969  -0.520  0.9733  0.6041  0.3960
  297MOL0     O39995  11.347   8.879  -0.602 -0.5610  0.1885  0.1433
  297MOL0     C39996  11.437   8.923  -0.705  0.9233  0.2658  0.4222
  297MOL0     C39997  11.560   8.980  -0.637  0.2585  0.3640 -1.7551
  297MOL0     C39998  11.651   9.054  -0.728 -0.2270 -0.7935  0.7967
  297MOL0     C39999  11.751   9.138  -0.662  0.5791  0.6030 -1.0004
  297MOL0     C40000  11.840   9.214  -0.757  0.1847 -0.4492  0.9470
  297MOL0     C40001  11.984   9.232  -0.708 -0.9362  0.5264  0.1192
  297MOL0     C40002  11.989   9.313  -0.578 -0.5111 -0.1282 -0.0592
  297MOL0     C40003  11.995   9.452  -0.623 -0.4356 -0.2095 -0.3820
  297MOL0    Cl40004  12.154   9.514  -0.667 -0.1493 -0.1445  0.2328
  297MOL0     C40005  11.215   8.926  -0.406  1.0083  0.3792  0.5846
  297MOL0     C40006  11.139   9.009  -0.320  0.2176  0.2142 -0.4354
  297MOL0     O40007  11.168   9.375  -0.194  0.0337 -0.3559 -1.4195
  297MOL0     C40008  10.965   9.555  -0.130  0.0380  0.3161  0.6906
  297MOL0     C40009  10.861   9.634  -0.076  0.8613  0.1781  0.6598
  297MOL0     N40010  10.041   9.660  -0.178  0.5710  0.4085  0.1203
  297MOL0     N40011   9.926   9.635  -0.119  0.6607  0.2905  0.5954
  297MOL0     C40012  10.328   8.604  -0.091  0.1497  0.2618 -0.1210
  297MOL0     C40013  10.374   8.475  -0.116 -0.2194  0.0413 -0.2112
  297MOL0     C40014  10.489   8.036  -0.059  0.7101 -0.0069  0.7208
  297MOL0     C40015  10.587   8.044  -0.163 -0.1983 -0.7007  0.0750
  297MOL0     C40016  10.666   7.939  -0.203  0.5952 -0.0406 -0.2747
  297MOL0     C40017  10.646   7.809  -0.159 -0.1923 -0.2588  0.5335
  297MOL0     O40018  10.722   7.698  -0.200 -0.0970  0.2119  0.6389
  297MOL0     C40019  10.691   7.657  -0.330 -0.4417  0.3291  0.0634
  297MOL0     C40020  10.555   7.595  -0.354  0.2130  0.3959 -0.3927
  297MOL0     C40021  10.533   7.558  -0.503 -0.3392 -0.5548 -0.8691
  297MOL0     C40022  10.468   7.664  -0.594  0.5600  0.6255 -0.1279
  297MOL0     C40023  10.559   7.766  -0.633 -0.0972  0.3008  0.5527
  297MOL0     C40024  10.625   7.854  -0.676  0.1370 -1.3259  0.2533
  297MOL0     C40025  10.553   7.792  -0.060  0.0261 -0.0608  0.3160
  297MOL0     C40026  10.481   7.901  -0.003 -0.4719  0.4923  0.2354
  297MOL0     C40027  10.416   7.867   0.130 -0.1896  0.5795  0.3465
  297MOL0     H40028  10.428   8.356   0.197  1.9383 -0.0542 -0.4580
  297MOL0     H40029  10.347   8.598   0.246 -2.5332  0.6441 -0.9953
  297MOL0     H40030  10.121   8.789  -0.034  1.7545 -2.2777 -0.7768
  297MOL0     H40031  10.091   8.751   0.138 -0.3126 -0.8239 -0.8284
  297MOL0     H40032  10.217   9.002   0.048 -1.0923  0.3751 -0.7737
  297MOL0     H40033  10.137   8.966   0.208 -3.7277 -2.0428  0.4841
  297MOL0     H40034   9.912   8.925   0.060 -2.3012  1.5068 -3.1136
  297MOL0     H40035  10.020   8.986  -0.067  0.5354  2.1921  0.1443
  297MOL0     H40036   9.968   9.138   0.182 -1.0466  0.0555  0.4124
  297MOL0     H40037  10.039   9.193   0.032  0.3526 -0.6428  1.0753
  297MOL0     H40038   9.825   9.135  -0.082  2.8210  0.6296 -0.2375
  297MOL0     H40039   9.749   9.147   0.079 -0.0643  0.4205 -0.0089
  297MOL0     H40040   9.892   9.362  -0.094 -1.1806  0.9540 -0.2857
  297MOL0     H40041   9.725   9.360  -0.041  0.9458  0.4521 -2.5285
  297MOL0     H40042   9.964   9.396   0.143 -1.3538  1.5288  3.2620
  297MOL0     H40043   9.799   9.370   0.198  2.7630 -6.4290  0.0453
  297MOL0     H40044   9.746   9.594   0.069 -0.1845 -0.5602 -0.7664
  297MOL0     H40045   9.863   9.606   0.201  0.3685 -0.5917  0.7637
  297MOL0     H40046  10.129   9.612   0.127  2.7629 -1.1495 -1.4640
  297MOL0     H40047  10.351   9.594  -0.107  0.2574  1.5465 -5.8603
  297MOL0     H40048  10.297   9.744  -0.188  0.2462  0.9366 -0.2431
  297MOL0     H40049  10.272   9.845   0.046 -1.5663 -0.1676 -1.5044
  297MOL0     H40050  10.353   9.698   0.109 -0.1727 -3.1399 -2.3779
  297MOL0     H40051  10.470   9.907   0.079  1.7161 -1.3847  2.3491
  297MOL0     H40052  10.478   9.880  -0.099 -0.6772  1.5874  0.5832
  297MOL0     H40053  10.610   9.752   0.145 -2.5847  1.9929 -0.7464
  297MOL0     H40054  10.697   9.820   0.006  0.4160  0.1237 -0.6578
  297MOL0     H40055  10.614   9.389  -0.131  1.7513 -3.1333 -2.2453
  297MOL0     H40056  10.779   9.274  -0.225 -1.0470  1.0042  0.3558
  297MOL0     H40057  11.168   9.289  -0.502 -0.4444  0.1207  0.8094
  297MOL0     H40058  11.327   9.159  -0.627 -0.8347  0.4481 -1.9285
  297MOL0     H40059  11.478   8.849  -0.774  2.2346  1.7717 -0.4902
  297MOL0     H40060  11.394   9.004  -0.765  2.2559  1.7914  1.4239
  297MOL0     H40061  11.535   9.047  -0.554  1.0599  0.1257 -1.3200
  297MOL0     H40062  11.613   8.901  -0.584  0.6561  1.5257 -0.3497
  297MOL0     H40063  11.700   8.980  -0.793  1.9574  1.5665 -0.4202
  297MOL0     H40064  11.597   9.121  -0.795 -0.8480  1.9394  3.8234
  297MOL0     H40065  11.810   9.057  -0.616  1.6687  1.5145 -0.7507
  297MOL0     H40066  11.689   9.203  -0.600 -3.7890 -1.5218 -2.7363
  297MOL0     H40067  11.807   9.317  -0.773  0.6405  0.7149  5.8511
  297MOL0     H40068  11.833   9.174  -0.858  0.8321  1.5128  0.0856
  297MOL0     H40069  12.031   9.136  -0.687 -1.6887  0.0092 -0.4944
  297MOL0     H40070  12.038   9.277  -0.792 -1.1557 -3.0782 -2.1753
  297MOL0     H40071  12.085   9.296  -0.526 -0.3159  2.1710  0.4348
  297MOL0     H40072  11.909   9.283  -0.510 -0.3805 -3.4956 -1.2129
  297MOL0     H40073  11.933   9.464  -0.712  1.0522 -0.8980 -1.5601
  297MOL0     H40074  11.950   9.520  -0.550 -1.0244 -0.2451 -0.7034
  297MOL0     H40075  11.235   8.821  -0.383 -0.4495 -0.4095 -1.4371
  297MOL0     H40076  11.096   8.974  -0.226 -2.4248 -0.1072 -1.6847
  297MOL0     H40077  11.066   9.596  -0.129  0.7445 -1.3353 -0.0599
  297MOL0     H40078  10.881   9.734  -0.039  1.2027  0.9199 -1.4064
  297MOL0     H40079  10.287   8.674  -0.163 -0.1115 -0.0708 -0.2983
  297MOL0     H40080  10.393   8.446  -0.219  1.3739 -0.1299  0.1131
  297MOL0     H40081  10.597   8.144  -0.204  2.3636  0.2981  2.7901
  297MOL0     H40082  10.743   7.965  -0.275  0.8537 -2.8313 -1.1242
  297MOL0     H40083  10.773   7.589  -0.356 -0.2108  0.6464 -0.0525
  297MOL0     H40084  10.686   7.746  -0.394 -1.2744 -0.4755 -1.0162
  297MOL0     H40085  10.474   7.664  -0.330 -0.0171  0.5132 -1.4463
  297MOL0     H40086  10.563   7.504  -0.295  0.7248 -1.0248 -2.5353
  297MOL0     H40087  10.457   7.479  -0.514 -1.5879  0.7761 -2.3145
  297MOL0     H40088  10.629   7.529  -0.546 -0.2419 -2.8580  0.7229
  297MOL0     H40089  10.439   7.621  -0.690  0.5203 -0.3090  0.2899
  297MOL0     H40090  10.373   7.702  -0.555  0.5732 -0.3499  0.9216
  297MOL0     H40091  10.658   7.941  -0.727  0.5079 -1.5726  0.0709
  297MOL0     H40092  10.547   7.691  -0.021  3.2381  0.3387  2.1498
  297MOL0     H40093  10.310   7.891   0.123 -0.3093 -0.3292 -1.3821
  297MOL0     H40094  10.416   7.759   0.141  5.5183 -0.1967 -2.9249
  297MOL0     H40095  10.470   7.908   0.217  0.2838 -0.7789  0.7094
  298MOL0     O40096   0.917   2.857   2.323  0.4225 -0.1175  0.0492
  298MOL0     C40097   0.815   2.879   2.256 -1.0467  0.1465 -0.8932
  298MOL0     O40098   0.740   2.783   2.201  0.2180 -0.1746  0.9220
  298MOL0     C40099   0.777   2.650   2.208  0.1238  0.0949 -0.1118
  298MOL0     C40100   0.799   2.575   2.098 -0.2393 -0.5586  0.2813
  298MOL0     C40101   0.863   2.443   2.107  0.3201  0.0035  0.4463
  298MOL0     C40102   0.885   2.388   2.238 -0.0748 -0.1783  0.0058
  298MOL0     O40103   0.953   2.268   2.234 -0.3568 -0.1088  0.7855
  298MOL0     C40104   0.990   2.206   2.358  0.1540 -0.5251  0.1094
  298MOL0     C40105   1.038   2.058   2.340  0.0950  1.2615 -0.7738
  298MOL0     C40106   1.177   2.058   2.271 -0.4116  0.0512 -0.3157
  298MOL0     C40107   1.264   1.934   2.313 -0.3249  0.4746 -0.2961
  298MOL0     C40108   1.412   1.935   2.261 -0.4557 -0.1223  0.1044
  298MOL0     C40109   1.473   1.800   2.298  0.2854 -0.0216 -0.0470
  298MOL0     C40110   1.620   1.814   2.277  0.4696 -0.1121  0.2994
  298MOL0     C40111   1.703   1.693   2.322  0.3695  0.1250  1.1251
  298MOL0     N40112   1.840   1.738   2.338  0.3556 -0.0998  0.1065
  298MOL0     C40113   1.887   1.815   2.440  0.0714  0.3654  0.2731
  298MOL0     C40114   2.021   1.841   2.409  0.2441  0.3328 -0.2724
  298MOL0     C40115   2.129   1.894   2.499  0.4141  0.3555  0.7125
  298MOL0     C40116   2.098   1.872   2.650  0.6121 -0.1436  0.6545
  298MOL0     C40117   2.226   1.915   2.743  0.1625  0.5582  0.2488
  298MOL0     C40118   2.196   1.846   2.880 -0.2115 -0.9137 -0.2577
  298MOL0     O40119   2.068   1.893   2.937  0.1825 -0.1545  0.0174
  298MOL0     C40120   2.001   1.810   3.024  0.0480 -0.2938 -0.7147
  298MOL0     C40121   2.065   1.700   3.090  0.1010  0.4913  0.6717
  298MOL0     C40122   1.997   1.601   3.155  0.7066 -0.1485 -1.7613
  298MOL0     C40123   1.860   1.628   3.177  0.4515  0.4118  0.3684
  298MOL0     C40124   1.785   1.530   3.264 -0.4531 -0.4471  0.5929
  298MOL0     O40125   1.868   1.429   3.317 -0.1061  0.3879  0.5847
  298MOL0     C40126   1.796   1.336   3.378  0.1568  0.7725  0.1279
  298MOL0     C40127   1.709   1.258   3.303 -0.2619 -0.2403 -0.1342
  298MOL0     C40128   1.644   1.146   3.364  0.5814  0.0708  0.0684
  298MOL0     C40129   1.661   1.119   3.498  0.3132  0.7287 -0.4405
  298MOL0     O40130   1.576   1.034   3.558 -0.5053 -0.6079 -0.2088
  298MOL0     C40131   1.588   0.962   3.684 -0.4671 -0.1844  0.6057
  298MOL0     C40132   1.623   0.815   3.656  0.8437 -0.3374 -0.4982
  298MOL0     C40133   1.629   0.749   3.803  0.4015 -0.3807  0.4756
  298MOL0     C40134   1.700   0.618   3.805  0.4869 -0.6362 -0.7264
  298MOL0     C40135   1.675   0.526   3.927 -0.9825 -0.9935  0.2120
  298MOL0     C40136   1.776   0.569   4.047  0.1998 -0.9955  0.4438
  298MOL0     C40137   1.722   0.516   4.181 -0.2211  1.1043  0.8885
  298MOL0     C40138   1.718   0.362   4.175  0.8666  0.8187  0.8682
  298MOL0    Cl40139   1.631   0.325   4.332  0.0032  0.1517 -0.4742
  298MOL0     C40140   1.753   1.195   3.570  0.0929 -0.2258 -1.4921
  298MOL0     C40141   1.819   1.303   3.506 -0.0330  0.3406 -0.7108
  298MOL0     O40142   1.664   1.539   3.264 -0.0988  0.3328 -0.0610
  298MOL0     C40143   1.798   1.748   3.134  0.4427  0.2680  0.5076
  298MOL0     C40144   1.871   1.842   3.059 -0.2281  0.8197  0.4337
  298MOL0     N40145   2.045   1.782   2.283 -0.1902 -0.1265 -0.3955
  298MOL0     N40146   1.936   1.725   2.240 -0.0512  0.5453 -1.1629
  298MOL0     C40147   0.862   2.467   2.349 -0.2954 -0.1059 -1.5098
  298MOL0     C40148   0.813   2.599   2.340 -0.2708  0.3211 -0.1443
  298MOL0     C40149   0.772   3.018   2.227 -0.7729  0.7378 -0.4103
  298MOL0     C40150   0.648   3.060   2.244  1.1633 -0.9885 -0.6660
  298MOL0     C40151   0.607   3.196   2.220  0.4117  0.3829  0.1831
  298MOL0     C40152   0.688   3.278   2.145  0.1155 -0.4112  2.3087
  298MOL0     O40153   0.648   3.402   2.103 -0.2478 -0.7085 -0.5906
  298MOL0     C40154   0.517   3.448   2.108 -0.3019  0.8472  1.2832
  298MOL0     C40155   0.497   3.569   2.017  0.8988 -0.2098 -0.4195
  298MOL0     C40156   0.576   3.563   1.889 -0.0527  0.3804  1.5858
  298MOL0     C40157   0.503   3.613   1.765  0.7128 -0.4014  0.0863
  298MOL0     C40158   0.441   3.749   1.796 -0.4651 -0.3334 -0.0208
  298MOL0     C40159   0.414   3.864   1.816 -1.0061  0.7796  0.4450
  298MOL0     C40160   0.816   3.232   2.117  0.4422  0.5126  0.4659
  298MOL0     C40161   0.864   3.105   2.156  0.3098 -0.2405  0.7461
  298MOL0     C40162   0.993   3.049   2.104  0.4859 -0.3049  0.6424
  298MOL0     H40163   0.779   2.625   2.003  1.2471  2.4891  1.4484
  298MOL0     H40164   0.901   2.394   2.019 -0.2730 -0.0747  0.2272
  298MOL0     H40165   1.065   2.268   2.408  1.1275 -0.4837 -1.3557
  298MOL0     H40166   0.897   2.199   2.416  0.4221 -1.3545  0.4460
  298MOL0     H40167   0.972   1.981   2.302  2.8737 -1.8447  0.2053
  298MOL0     H40168   1.055   2.017   2.440  0.6150 -0.1914 -1.4251
  298MOL0     H40169   1.228   2.154   2.282  0.9610 -0.5866 -0.9195
  298MOL0     H40170   1.160   2.047   2.164 -2.3370 -0.2071 -0.0287
  298MOL0     H40171   1.267   1.935   2.422 -0.1480  0.5516 -0.3011
  298MOL0     H40172   1.213   1.843   2.281 -0.3491  1.1114 -2.1886
  298MOL0     H40173   1.424   1.966   2.157  2.1903  0.2456  0.4555
  298MOL0     H40174   1.463   2.019   2.310  0.4876  0.7644 -2.2446
  298MOL0     H40175   1.465   1.785   2.406 -1.6097 -0.4761 -0.2311
  298MOL0     H40176   1.425   1.721   2.241 -0.5482  0.7381 -0.4216
  298MOL0     H40177   1.645   1.904   2.334  3.5086  0.0099 -1.0142
  298MOL0     H40178   1.634   1.834   2.170  1.5032  3.1394  0.9321
  298MOL0     H40179   1.657   1.654   2.413  1.2475  1.7852  2.3344
  298MOL0     H40180   1.698   1.612   2.248 -0.0196  0.4381  0.8017
  298MOL0     H40181   1.841   1.833   2.537  0.5656  0.4741  0.4886
  298MOL0     H40182   2.227   1.848   2.485 -0.5074 -1.2300 -0.9272
  298MOL0     H40183   2.142   2.002   2.483  2.7080  0.0224  0.0216
  298MOL0     H40184   2.009   1.929   2.675  1.0240  1.3863 -1.1955
  298MOL0     H40185   2.071   1.767   2.670 -1.1979  0.2083  0.2291
  298MOL0     H40186   2.236   2.023   2.753 -0.8421  0.6953 -0.0898
  298MOL0     H40187   2.317   1.867   2.705  0.9239  1.6931  0.6087
  298MOL0     H40188   2.276   1.875   2.949 -1.2558 -1.1753  1.0953
  298MOL0     H40189   2.195   1.739   2.858 -4.0952 -1.1952  0.6082
  298MOL0     H40190   2.162   1.676   3.046 -1.2310 -1.5927 -1.3754
  298MOL0     H40191   2.050   1.512   3.189 -1.3554 -1.5353 -1.9625
  298MOL0     H40192   1.691   1.287   3.200  0.2694  1.9823  0.3461
  298MOL0     H40193   1.581   1.087   3.299  2.3802  0.3723 -2.0710
  298MOL0     H40194   1.659   1.002   3.758  0.1227  3.4494 -1.6796
  298MOL0     H40195   1.491   0.965   3.734 -0.9340  0.3771 -0.3212
  298MOL0     H40196   1.548   0.777   3.585 -0.2710  0.0787  0.4300
  298MOL0     H40197   1.723   0.808   3.611  0.1141  0.5583 -2.3888
  298MOL0     H40198   1.669   0.832   3.862 -1.9770  0.6644  0.7648
  298MOL0     H40199   1.533   0.735   3.854  1.5676 -1.7102  2.4468
  298MOL0     H40200   1.805   0.640   3.786  0.4861  2.9246  2.2999
  298MOL0     H40201   1.675   0.554   3.720 -0.5462 -2.5076  0.8865
  298MOL0     H40202   1.687   0.425   3.889 -4.0894 -0.3527 -2.9851
  298MOL0     H40203   1.574   0.534   3.969 -0.8161  1.7573  0.2706
  298MOL0     H40204   1.877   0.542   4.017  0.5176  1.5271 -1.0134
  298MOL0     H40205   1.787   0.676   4.068  2.1484 -1.3070  1.2331
  298MOL0     H40206   1.625   0.566   4.197 -1.2122 -0.4894  0.0597
  298MOL0     H40207   1.787   0.543   4.265 -0.5491  0.5275  1.3337
  298MOL0     H40208   1.671   0.318   4.086  1.1382  3.3828 -0.6434
  298MOL0     H40209   1.817   0.315   4.182  0.0282 -1.0913  0.6285
  298MOL0     H40210   1.760   1.190   3.678 -2.2076 -1.1816 -1.3349
  298MOL0     H40211   1.897   1.357   3.559  0.8542 -0.6866 -0.9228
  298MOL0     H40212   1.694   1.776   3.148 -0.2820 -0.4062 -2.6763
  298MOL0     H40213   1.818   1.930   3.024  0.7660  0.9455 -0.8263
  298MOL0     H40214   0.915   2.448   2.442  0.2862  2.7622 -1.1804
  298MOL0     H40215   0.787   2.660   2.426 -0.7513  0.3488 -0.3086
  298MOL0     H40216   0.572   3.007   2.300  1.8477 -0.3347  0.9241
  298MOL0     H40217   0.516   3.241   2.258  1.6562  2.8310  0.4510
  298MOL0     H40218   0.485   3.471   2.210 -0.9234  4.7361  0.3605
  298MOL0     H40219   0.456   3.370   2.062  2.9717 -0.8747 -0.5384
  298MOL0     H40220   0.522   3.659   2.074  1.6361  0.2626 -1.4742
  298MOL0     H40221   0.390   3.593   2.006  0.5960  0.4653  2.8394
  298MOL0     H40222   0.601   3.459   1.867  2.2828  0.9146  1.4501
  298MOL0     H40223   0.674   3.611   1.894  0.5898 -0.8603  1.3492
  298MOL0     H40224   0.568   3.618   1.677 -1.1758  0.9511 -1.3297
  298MOL0     H40225   0.415   3.551   1.742 -0.5037  0.6105  1.8248
  298MOL0     H40226   0.382   3.965   1.827  3.2630  2.2287  1.7738
  298MOL0     H40227   0.888   3.288   2.058  1.1071 -1.9298 -1.1889
  298MOL0     H40228   1.053   3.022   2.192  0.8620  2.0870  1.2064
  298MOL0     H40229   0.982   2.962   2.039 -1.4455  1.5412 -1.6700
  298MOL0     H40230   1.046   3.116   2.036 -1.3303 -1.4477 -2.0512
  299MOL0     O40231   2.351   4.314   4.880 -0.7911 -0.1480  0.2600
  299MOL0     C40232   2.270   4.234   4.927 -0.7306 -0.0312 -0.8371
  299MOL0     O40233   2.222   4.122   4.867 -0.3976  0.1474  0.4017
  299MOL0     C40234   2.289   4.073   4.756 -0.3331  0.5358  1.0000
  299MOL0     C40235   2.303   3.936   4.745 -0.2722  0.0340 -0.3369
  299MOL0     C40236   2.376   3.872   4.643  0.8502 -0.6958  0.3056
  299MOL0     C40237   2.431   3.945   4.540  1.0063  0.6115 -0.4564
  299MOL0     O40238   2.495   3.886   4.435 -0.3754  0.3223 -0.4395
  299MOL0     C40239   2.546   3.749   4.428  0.4125  0.6496  0.2108
  299MOL0     C40240   2.563   3.717   4.282 -0.7495  0.7922 -0.1524
  299MOL0     C40241   2.651   3.584   4.255  0.5743 -0.1934 -0.6272
  299MOL0     C40242   2.684   3.585   4.105  0.7860 -0.3430 -0.3952
  299MOL0     C40243   2.789   3.478   4.069  0.3336 -0.1127  0.0299
  299MOL0     C40244   2.777   3.466   3.910  0.8769 -0.2773  0.1434
  299MOL0     C40245   2.875   3.354   3.867  0.1900 -0.4455 -0.5277
  299MOL0     C40246   3.030   3.372   3.887  0.5324 -0.3034  0.9248
  299MOL0     N40247   3.099   3.293   3.778  0.1402 -0.4496 -0.4958
  299MOL0     C40248   3.099   3.161   3.745  0.3734 -0.7331 -0.4331
  299MOL0     C40249   3.180   3.150   3.636  0.1172  0.8838 -0.3061
  299MOL0     C40250   3.181   3.014   3.573 -0.5985 -0.3283  1.0173
  299MOL0     C40251   3.075   3.014   3.457 -0.1235 -0.0209 -0.5511
  299MOL0     C40252   3.083   2.874   3.382  0.3061  0.4572  0.5899
  299MOL0     C40253   3.080   2.874   3.225 -0.7937 -0.5309 -0.3607
  299MOL0     O40254   3.051   2.752   3.159 -1.3276  1.0770  0.9763
  299MOL0     C40255   3.142   2.642   3.161 -0.7364  0.5529 -0.2032
  299MOL0     C40256   3.088   2.524   3.112 -0.0127  0.3575  0.0921
  299MOL0     C40257   3.165   2.410   3.114 -0.9965 -0.1187 -0.6835
  299MOL0     C40258   3.291   2.402   3.173 -0.5270 -0.4668  0.8261
  299MOL0     C40259   3.353   2.269   3.201 -0.8813 -0.6341  0.3864
  299MOL0     O40260   3.291   2.150   3.151 -0.6423  0.4577  0.2608
  299MOL0     C40261   3.317   2.028   3.204 -0.4955 -0.5739 -0.7874
  299MOL0     C40262   3.211   1.951   3.248  0.7306  0.8035  0.3150
  299MOL0     C40263   3.235   1.825   3.303  0.6550 -0.1665 -0.6697
  299MOL0     C40264   3.368   1.782   3.322 -0.3733 -0.3087  0.2340
  299MOL0     O40265   3.380   1.653   3.378  0.3795 -0.4232 -0.1296
  299MOL0     C40266   3.509   1.608   3.424  0.0959  0.9537  0.5665
  299MOL0     C40267   3.541   1.680   3.560  0.9249  0.5361  0.8195
  299MOL0     C40268   3.643   1.611   3.643 -0.6645  0.0394 -1.3439
  299MOL0     C40269   3.627   1.658   3.785 -0.4335 -0.4562 -0.1568
  299MOL0     C40270   3.733   1.582   3.859  0.7250  0.0721 -0.2725
  299MOL0     C40271   3.742   1.631   4.012 -1.2277 -0.7767 -0.0174
  299MOL0     C40272   3.802   1.518   4.088  0.6480 -0.2719 -0.4233
  299MOL0     C40273   3.873   1.559   4.211  1.0699 -0.5171  0.4788
  299MOL0    Cl40274   4.030   1.625   4.159 -0.2045 -0.3661  0.0198
  299MOL0     C40275   3.475   1.856   3.282 -0.4677 -0.0214  0.0375
  299MOL0     C40276   3.454   1.985   3.229 -0.0087  0.3128 -0.3628
  299MOL0     O40277   3.453   2.271   3.281  0.6977  0.3465 -0.1606
  299MOL0     C40278   3.345   2.526   3.199  0.7047  0.6356  0.5606
  299MOL0     C40279   3.276   2.642   3.201 -0.0207 -0.2750 -0.2729
  299MOL0     N40280   3.229   3.272   3.600  0.1537  0.3929 -0.1910
  299MOL0     N40281   3.176   3.356   3.683  1.6317  0.3467 -0.6862
  299MOL0     C40282   2.403   4.080   4.541  0.1551  0.0043 -0.6562
  299MOL0     C40283   2.338   4.149   4.644 -0.2151  1.0793  0.3400
  299MOL0     C40284   2.204   4.270   5.052  0.6520  0.1675 -0.0198
  299MOL0     C40285   2.062   4.249   5.079 -0.9406 -0.4463 -0.3179
  299MOL0     C40286   2.009   4.255   5.209  0.1235 -0.5600 -0.4248
  299MOL0     C40287   2.089   4.303   5.314  0.3785  0.5688 -0.3763
  299MOL0     O40288   2.028   4.317   5.435  0.3795 -0.6048 -0.2081
  299MOL0     C40289   2.095   4.412   5.520 -0.0194 -0.2099 -0.3714
  299MOL0     C40290   2.012   4.433   5.647 -0.4110 -0.9959 -0.0343
  299MOL0     C40291   1.892   4.527   5.614 -0.0753 -0.5102 -0.4021
  299MOL0     C40292   1.811   4.542   5.746  0.2691  1.1334 -0.7155
  299MOL0     C40293   1.886   4.626   5.839  0.2584 -0.8883 -0.0084
  299MOL0     C40294   1.959   4.691   5.918 -0.7703 -0.1063 -0.1595
  299MOL0     C40295   2.224   4.334   5.288  0.5207  0.0089 -0.5445
  299MOL0     C40296   2.282   4.310   5.163 -1.2588  0.6427 -0.0128
  299MOL0     C40297   2.431   4.308   5.167  0.4275 -0.0834  0.7207
  299MOL0     H40298   2.280   3.881   4.836  0.5771 -0.2721 -0.3024
  299MOL0     H40299   2.390   3.764   4.647  3.2979 -0.4154  0.9731
  299MOL0     H40300   2.643   3.751   4.477  1.4293  1.3624 -1.7230
  299MOL0     H40301   2.480   3.675   4.474 -0.3764  1.3780  0.2764
  299MOL0     H40302   2.607   3.809   4.242 -0.7111  1.3555  1.1202
  299MOL0     H40303   2.459   3.704   4.252 -1.6348  3.0997  1.5873
  299MOL0     H40304   2.580   3.503   4.271 -0.4782  0.9918  1.1486
  299MOL0     H40305   2.736   3.577   4.324 -1.9023  1.7625  3.0111
  299MOL0     H40306   2.588   3.580   4.053 -1.0762  3.0965  2.2819
  299MOL0     H40307   2.715   3.687   4.082 -1.5936  0.4032 -0.5293
  299MOL0     H40308   2.892   3.504   4.093  1.7177 -1.2619 -4.0210
  299MOL0     H40309   2.767   3.381   4.116 -1.7149  0.9153  1.3778
  299MOL0     H40310   2.677   3.442   3.875  0.1864  1.0917  1.0894
  299MOL0     H40311   2.798   3.561   3.860  0.7969 -0.6238 -0.5673
  299MOL0     H40312   2.858   3.344   3.759  0.8068 -1.1314 -0.5673
  299MOL0     H40313   2.841   3.261   3.912 -0.0324 -0.9059 -1.5957
  299MOL0     H40314   3.057   3.478   3.884  1.6558 -0.5734  1.0267
  299MOL0     H40315   3.067   3.341   3.985  0.9902  0.2792  0.9447
  299MOL0     H40316   3.047   3.081   3.797 -2.0296  0.2506 -1.1514
  299MOL0     H40317   3.281   2.995   3.533 -2.2400 -3.5695 -2.1773
  299MOL0     H40318   3.155   2.940   3.649 -1.4642 -0.9669  0.1338
  299MOL0     H40319   2.977   3.036   3.500  0.4179  1.8499 -0.1898
  299MOL0     H40320   3.091   3.095   3.385 -0.2634 -0.8516 -1.5365
  299MOL0     H40321   2.991   2.822   3.407  1.8208 -1.6472  2.1415
  299MOL0     H40322   3.175   2.819   3.404  2.5403  2.5246 -2.5994
  299MOL0     H40323   3.175   2.906   3.181 -1.6728  1.3208 -1.0223
  299MOL0     H40324   3.010   2.953   3.194 -0.3149 -0.2393 -0.7058
  299MOL0     H40325   2.983   2.534   3.088  0.0315  4.1563  0.9166
  299MOL0     H40326   3.114   2.318   3.088  0.1374 -0.7264 -0.7970
  299MOL0     H40327   3.108   1.985   3.242 -0.6517 -2.8357  0.6362
  299MOL0     H40328   3.157   1.768   3.352 -0.3689  0.8572 -1.0689
  299MOL0     H40329   3.503   1.501   3.445 -1.4661  0.6632 -1.1048
  299MOL0     H40330   3.597   1.608   3.359 -0.3224  0.6491 -0.0084
  299MOL0     H40331   3.584   1.780   3.546 -1.9915  1.6939 -0.7192
  299MOL0     H40332   3.449   1.700   3.615  1.0512 -0.3915  1.3905
  299MOL0     H40333   3.617   1.505   3.652  0.3487 -0.1002  0.3165
  299MOL0     H40334   3.743   1.632   3.604  0.2699  1.4842  1.5312
  299MOL0     H40335   3.529   1.628   3.824  1.1173 -3.5488  1.7212
  299MOL0     H40336   3.665   1.760   3.801 -3.1009  0.9642 -2.0450
  299MOL0     H40337   3.826   1.603   3.805 -0.8618  1.1247 -2.7702
  299MOL0     H40338   3.722   1.473   3.852  4.5376 -0.4475 -0.3190
  299MOL0     H40339   3.812   1.714   4.014 -0.5017 -1.3888  1.5538
  299MOL0     H40340   3.649   1.671   4.054  0.1012  2.9901 -0.2913
  299MOL0     H40341   3.876   1.468   4.025 -1.0633 -0.6034 -2.2736
  299MOL0     H40342   3.719   1.455   4.121 -1.7506  1.4649 -2.6875
  299MOL0     H40343   3.817   1.635   4.267  0.5920 -0.6414  0.1732
  299MOL0     H40344   3.902   1.472   4.271  1.4592  0.0852  1.1903
  299MOL0     H40345   3.575   1.815   3.281 -1.6828 -3.2407 -1.3162
  299MOL0     H40346   3.535   2.051   3.199 -0.2219  0.7414 -0.0089
  299MOL0     H40347   3.450   2.542   3.223  1.3174  3.5960 -3.0640
  299MOL0     H40348   3.323   2.733   3.235  0.4050 -0.2714 -0.8341
  299MOL0     H40349   2.450   4.129   4.456  1.0397 -2.1337 -1.4699
  299MOL0     H40350   2.331   4.257   4.640  2.2309  1.2703 -0.6543
  299MOL0     H40351   1.990   4.216   5.004 -1.1541 -2.8679  0.8462
  299MOL0     H40352   1.908   4.221   5.229  1.0535 -3.0046  0.4764
  299MOL0     H40353   2.117   4.508   5.473  0.8153 -0.1060  0.2161
  299MOL0     H40354   2.187   4.369   5.559 -0.6069 -0.7550  0.4376
  299MOL0     H40355   2.080   4.481   5.718 -1.7385 -0.9229  1.2303
  299MOL0     H40356   1.968   4.345   5.696 -1.7035 -0.4228 -0.1220
  299MOL0     H40357   1.830   4.499   5.528 -2.4120 -0.4863  1.1853
  299MOL0     H40358   1.926   4.629   5.595 -2.3531  0.3492 -0.1834
  299MOL0     H40359   1.717   4.596   5.734 -1.5721 -1.9324 -1.0695
  299MOL0     H40360   1.784   4.441   5.777  0.8960  0.8803 -0.9681
  299MOL0     H40361   2.024   4.748   5.982  0.4786  0.1167 -1.5824
  299MOL0     H40362   2.290   4.347   5.373 -1.1898 -3.5590  1.5614
  299MOL0     H40363   2.471   4.352   5.259 -1.1921 -0.8590  1.8513
  299MOL0     H40364   2.473   4.208   5.151  1.9682  0.7105 -0.4493
  299MOL0     H40365   2.473   4.372   5.090  1.4717 -0.8580  0.6215
  300MOL0     O40366   3.072   9.066  11.385  0.3781  0.3110 -0.1300
  300MOL0     C40367   3.122   9.129  11.479  0.1428  0.3861 -0.4665
  300MOL0     O40368   3.235   9.206  11.469 -0.3829 -0.2123  0.0598
  300MOL0     C40369   3.267   9.224  11.339  0.2040 -0.6663  0.7999
  300MOL0     C40370   3.214   9.339  11.273 -0.7144  0.3068 -0.6838
  300MOL0     C40371   3.243   9.373  11.144  0.1624  0.4575  0.3750
  300MOL0     C40372   3.336   9.292  11.079  1.2367  0.6992  0.1140
  300MOL0     O40373   3.388   9.346  10.962  0.2879  0.1182  0.0928
  300MOL0     C40374   3.501   9.277  10.898  0.3927 -0.7687 -0.4601
  300MOL0     C40375   3.513   9.338  10.756 -0.2765  0.0851 -0.2541
  300MOL0     C40376   3.635   9.287  10.684 -0.1949 -0.9541 -0.5681
  300MOL0     C40377   3.617   9.340  10.550  0.4911  0.6577  0.3970
  300MOL0     C40378   3.724   9.440  10.506 -0.1327  0.2787 -1.5797
  300MOL0     C40379   3.681   9.495  10.369 -0.3792  0.3917  0.1485
  300MOL0     C40380   3.796   9.590  10.319  0.2731 -0.6607  1.3635
  300MOL0     C40381   3.904   9.507  10.259  0.0443  0.6146  0.1659
  300MOL0     N40382   3.867   9.434  10.142 -0.3157 -0.4874 -0.1343
  300MOL0     C40383   3.836   9.498  10.025 -0.1709 -0.4780 -0.3323
  300MOL0     C40384   3.778   9.407   9.947  0.0594  0.0647 -0.7171
  300MOL0     C40385   3.715   9.438   9.813  0.4903  0.2044 -0.6410
  300MOL0     C40386   3.820   9.401   9.707  0.4412 -0.2583 -0.4703
  300MOL0     C40387   3.776   9.419   9.562  0.3309 -1.4647  0.2444
  300MOL0     C40388   3.792   9.569   9.517 -0.1880 -0.5177  0.4339
  300MOL0     O40389   3.726   9.667   9.595  0.9634  0.4074 -0.8761
  300MOL0     C40390   3.614   9.712   9.533  0.1389 -0.3565  0.0390
  300MOL0     C40391   3.495   9.658   9.579  0.0358  1.0706  0.0891
  300MOL0     C40392   3.377   9.722   9.538  0.3324  0.6278  0.0787
  300MOL0     C40393   3.375   9.827   9.442 -0.1121 -0.9772  0.3818
  300MOL0     C40394   3.247   9.872   9.388 -0.2627 -0.0480 -0.5252
  300MOL0     O40395   3.254   9.976   9.307  0.0955  0.8801  0.4575
  300MOL0     C40396   3.135  10.021   9.252  0.4630 -0.2291 -0.1003
  300MOL0     C40397   3.069   9.958   9.146  0.6308  1.2774  0.4857
  300MOL0     C40398   2.941  10.000   9.106  0.6591  0.2355  0.5682
  300MOL0     C40399   2.877  10.104   9.172 -0.2800  0.0024  0.4368
  300MOL0     O40400   2.753  10.138   9.136 -0.0039 -0.2577  0.1059
  300MOL0     C40401   2.737  10.275   9.096  0.2547  1.0726  0.3203
  300MOL0     C40402   2.796  10.316   8.960 -0.3152 -0.3527  0.5106
  300MOL0     C40403   2.785  10.465   8.934 -0.3021 -0.0204 -0.1962
  300MOL0     C40404   2.856  10.504   8.805  0.1066  0.0945 -0.1045
  300MOL0     C40405   2.851  10.651   8.802  0.6316  0.1643  0.5152
  300MOL0     C40406   2.924  10.706   8.685  0.5639 -0.1315 -0.5665
  300MOL0     C40407   2.950  10.852   8.693 -0.8681 -0.4777 -0.7132
  300MOL0     C40408   3.029  10.887   8.564  0.5137  0.3458  0.7399
  300MOL0    Cl40409   3.053  11.065   8.552 -0.3190  0.1996  0.1316
  300MOL0     C40410   2.938  10.166   9.283  0.0250 -0.5081 -0.3322
  300MOL0     C40411   3.065  10.123   9.321  0.5443 -0.0247  0.2219
  300MOL0     O40412   3.143   9.808   9.409 -0.0109  0.4505  0.4588
  300MOL0     C40413   3.493   9.877   9.401  1.0187 -0.8594  0.2846
  300MOL0     C40414   3.618   9.826   9.441  0.2667 -0.3425 -1.6621
  300MOL0     N40415   3.778   9.287  10.016 -0.0516  0.5770 -0.1888
  300MOL0     N40416   3.829   9.305  10.131  0.5999  0.2249  0.0453
  300MOL0     C40417   3.389   9.175  11.137  0.4080 -0.1353 -0.9223
  300MOL0     C40418   3.362   9.146  11.268 -0.5244 -0.6570  0.7034
  300MOL0     C40419   3.057   9.113  11.613 -0.2843  0.6994  0.3401
  300MOL0     C40420   2.977   9.223  11.664  0.2735 -0.1467  0.3720
  300MOL0     C40421   2.896   9.203  11.775  0.3219 -0.5120  0.3285
  300MOL0     C40422   2.906   9.086  11.846 -0.0944  1.0094 -1.0817
  300MOL0     O40423   2.852   9.079  11.973 -0.7507 -0.2081  0.3494
  300MOL0     C40424   2.915   9.004  12.080 -0.4861  0.6817  0.7350
  300MOL0     C40425   2.902   9.073  12.214  0.7826  0.2265  0.8668
  300MOL0     C40426   2.875   8.963  12.317  0.4366 -0.3670  0.1396
  300MOL0     C40427   2.860   9.029  12.452 -0.7013  0.0760 -0.2887
  300MOL0     C40428   2.784   8.931  12.535 -0.4609  1.1047  0.1674
  300MOL0     C40429   2.735   8.850  12.613 -0.8942 -0.2542  0.1696
  300MOL0     C40430   2.984   8.976  11.794 -0.0877 -0.3808 -0.0432
  300MOL0     C40431   3.060   8.987  11.676 -0.4236  0.8988 -0.0917
  300MOL0     C40432   3.163   8.880  11.635  1.1348 -0.3984 -0.2770
  300MOL0     H40433   3.135   9.394  11.324 -0.1343  1.9038 -1.4517
  300MOL0     H40434   3.197   9.458  11.094 -1.0079 -0.2024  0.3045
  300MOL0     H40435   3.593   9.299  10.953  1.6257 -2.4795 -1.7101
  300MOL0     H40436   3.501   9.167  10.899 -0.3678 -0.7811 -0.8653
  300MOL0     H40437   3.525   9.446  10.767 -0.2732  0.3275 -2.2335
  300MOL0     H40438   3.423   9.311  10.699 -1.4474  0.4456  1.3648
  300MOL0     H40439   3.632   9.178  10.679 -0.9895 -1.1238  2.1541
  300MOL0     H40440   3.725   9.298  10.746 -0.6740  0.3998 -0.0818
  300MOL0     H40441   3.613   9.249  10.488  0.9729 -1.1769  2.9091
  300MOL0     H40442   3.526   9.401  10.545 -0.3908 -0.6068  0.2723
  300MOL0     H40443   3.731   9.525  10.575 -3.8312 -0.8645  0.4885
  300MOL0     H40444   3.820   9.390  10.520 -0.2124  0.4998  0.0522
  300MOL0     H40445   3.658   9.413  10.301  0.0309  0.4018 -0.0049
  300MOL0     H40446   3.599   9.564  10.389  0.3507  1.0346  1.0590
  300MOL0     H40447   3.841   9.635  10.409 -2.0754  0.3292  2.1318
  300MOL0     H40448   3.761   9.676  10.261 -1.3305 -0.9913  1.7982
  300MOL0     H40449   3.990   9.572  10.245 -0.5975  0.9942 -2.5741
  300MOL0     H40450   3.932   9.432  10.333 -0.8846 -0.0766 -0.1528
  300MOL0     H40451   3.854   9.604  10.013 -0.4314 -0.1303  2.0220
  300MOL0     H40452   3.628   9.374   9.798  1.9478 -1.2522 -3.7888
  300MOL0     H40453   3.683   9.542   9.802 -3.1683 -0.6324  0.7731
  300MOL0     H40454   3.918   9.447   9.722  0.3705  0.1007 -1.0592
  300MOL0     H40455   3.841   9.296   9.727  1.6283 -0.3760 -2.0910
  300MOL0     H40456   3.671   9.390   9.551 -0.7531  1.9605  0.1628
  300MOL0     H40457   3.838   9.369   9.488 -1.6317 -0.2134 -2.4065
  300MOL0     H40458   3.758   9.574   9.413  3.9857  1.4380 -1.0452
  300MOL0     H40459   3.900   9.586   9.509  0.5414 -4.2373  0.3975
  300MOL0     H40460   3.497   9.592   9.665 -0.9388 -0.6140 -1.1152
  300MOL0     H40461   3.284   9.683   9.578  0.9993 -1.1213  0.0241
  300MOL0     H40462   3.119   9.873   9.101  2.5012  1.7552  1.5484
  300MOL0     H40463   2.876   9.948   9.036 -0.2798 -1.6237  2.7126
  300MOL0     H40464   2.628  10.282   9.090  0.0500 -1.4077  0.0932
  300MOL0     H40465   2.770  10.342   9.176  2.7237 -0.6886  0.8721
  300MOL0     H40466   2.902  10.294   8.970 -0.2328 -1.8249 -2.4219
  300MOL0     H40467   2.757  10.255   8.878 -1.0444 -0.0888  0.6465
  300MOL0     H40468   2.679  10.492   8.927 -0.0845  2.0177  2.5896
  300MOL0     H40469   2.819  10.531   9.014  0.2317  1.1088 -1.3329
  300MOL0     H40470   2.805  10.459   8.719  1.0203  1.3679 -1.3651
  300MOL0     H40471   2.957  10.464   8.810  0.0758  0.1932  2.3393
  300MOL0     H40472   2.895  10.689   8.895  2.1467 -0.8283  0.2282
  300MOL0     H40473   2.745  10.678   8.797  0.6448  0.4072  1.2674
  300MOL0     H40474   3.023  10.659   8.683  1.6385  1.9639  0.0201
  300MOL0     H40475   2.863  10.693   8.595  0.4909 -0.2079 -0.5047
  300MOL0     H40476   3.005  10.880   8.784 -0.0782  0.7412 -1.5326
  300MOL0     H40477   2.858  10.912   8.693  0.4036  1.6744  1.6567
  300MOL0     H40478   3.130  10.846   8.556  0.4797  0.0083  1.8386
  300MOL0     H40479   2.969  10.840   8.485  0.9102 -0.0999  0.7002
  300MOL0     H40480   2.869  10.235   9.330 -0.3096 -1.4015  0.5374
  300MOL0     H40481   3.118  10.149   9.413  3.7586 -2.1368 -0.8276
  300MOL0     H40482   3.484   9.963   9.336 -0.9110 -1.6694 -0.6153
  300MOL0     H40483   3.716   9.869   9.425  0.8502 -1.5711 -1.5101
  300MOL0     H40484   3.451   9.113  11.072 -3.6304 -2.3370 -3.1244
  300MOL0     H40485   3.409   9.064  11.321  1.8206  1.5170  2.1658
  300MOL0     H40486   2.970   9.323  11.622 -2.9371  0.1442  1.3635
  300MOL0     H40487   2.850   9.295  11.812  3.0917  0.9309  0.4264
  300MOL0     H40488   3.020   8.977  12.066 -0.7009  0.4142 -0.4993
  300MOL0     H40489   2.862   8.908  12.080 -2.5425  1.7413  2.3564
  300MOL0     H40490   2.815   9.138  12.201  1.1682  0.3296 -1.7960
  300MOL0     H40491   2.988   9.139  12.228  2.2351 -1.7870  1.7556
  300MOL0     H40492   2.949   8.883  12.324  0.6770 -0.2962 -1.3302
  300MOL0     H40493   2.779   8.912  12.304  1.0380 -2.1908  2.2661
  300MOL0     H40494   2.959   9.060  12.487  0.6864 -2.9177 -1.2846
  300MOL0     H40495   2.799   9.120  12.448 -1.2385 -0.2492  0.4207
  300MOL0     H40496   2.698   8.780  12.684  1.0558  0.1077  1.6429
  300MOL0     H40497   2.985   8.888  11.857 -2.1103 -1.4339 -1.3912
  300MOL0     H40498   3.248   8.916  11.575  2.6868 -1.6874  1.0317
  300MOL0     H40499   3.205   8.829  11.722  0.2890 -0.5038  0.0771
  300MOL0     H40500   3.112   8.803  11.577  0.9074 -1.8695  1.7493
  301MOL0     O40501   4.514   6.586  10.575  0.3412 -0.0939  0.1676
  301MOL0     C40502   4.515   6.618  10.700 -0.7326 -1.5439  0.8549
  301MOL0     O40503   4.438   6.558  10.791 -0.3541 -0.1765 -0.7817
  301MOL0     C40504   4.370   6.437  10.768 -0.4627  0.5681 -0.2478
  301MOL0     C40505   4.424   6.334  10.678  0.2171  0.8258 -0.2217
  301MOL0     C40506   4.335   6.228  10.655  0.6107  0.3472  0.6869
  301MOL0     C40507   4.217   6.208  10.727 -0.4517 -0.4823 -0.5349
  301MOL0     O40508   4.127   6.104  10.693 -0.2397 -0.7811 -0.1476
  301MOL0     C40509   4.162   5.996  10.606 -0.0726 -0.2271  0.2089
  301MOL0     C40510   4.046   5.896  10.579  0.5982 -0.0711  0.9385
  301MOL0     C40511   3.962   5.967  10.469 -0.1115 -0.0879  0.2473
  301MOL0     C40512   3.816   5.938  10.492  0.3781 -0.5217 -0.7970
  301MOL0     C40513   3.730   6.010  10.374 -0.3806  0.2539 -0.9154
  301MOL0     C40514   3.579   5.966  10.380 -0.1414 -0.2713  1.4041
  301MOL0     C40515   3.559   5.834  10.308 -0.0827 -0.1615 -0.5463
  301MOL0     C40516   3.412   5.791  10.310 -0.7339 -0.7942 -0.0776
  301MOL0     N40517   3.377   5.662  10.263 -0.3052 -0.4575  0.5183
  301MOL0     C40518   3.353   5.545  10.340 -0.3213 -0.8229  0.1292
  301MOL0     C40519   3.327   5.458  10.240 -0.1393 -0.3580  0.0556
  301MOL0     C40520   3.287   5.315  10.270 -0.1639 -0.1136 -0.1143
  301MOL0     C40521   3.364   5.210  10.191  0.1455  0.6567  0.0845
  301MOL0     C40522   3.504   5.189  10.251 -0.4916 -0.9545  0.3143
  301MOL0     C40523   3.596   5.081  10.185 -0.3988 -0.7800 -0.3093
  301MOL0     O40524   3.639   5.112  10.054 -0.1037 -0.5799  0.2712
  301MOL0     C40525   3.710   5.022   9.977 -0.7211 -0.1711  0.3275
  301MOL0     C40526   3.713   4.881   9.999 -0.6158  0.0502  0.2278
  301MOL0     C40527   3.784   4.804   9.913  0.1462  1.1670 -0.3324
  301MOL0     C40528   3.869   4.856   9.813  0.1177 -1.1143 -0.3758
  301MOL0     C40529   3.939   4.766   9.723 -0.6734 -0.2370  0.6231
  301MOL0     O40530   3.926   4.637   9.754  0.4641 -0.1225  0.2312
  301MOL0     C40531   3.970   4.528   9.677  0.2797  0.7684 -0.2615
  301MOL0     C40532   4.068   4.532   9.575 -0.7146  0.6491  0.6523
  301MOL0     C40533   4.102   4.413   9.511 -0.1325  0.6205 -1.1890
  301MOL0     C40534   4.040   4.289   9.546 -0.3850 -0.5182 -0.8495
  301MOL0     O40535   4.081   4.187   9.459 -0.4989 -0.4819 -0.3760
  301MOL0     C40536   3.970   4.099   9.424  0.2315 -0.1062 -0.5666
  301MOL0     C40537   3.895   4.179   9.319  0.5140  0.3567 -0.3903
  301MOL0     C40538   3.790   4.080   9.263  0.2358 -1.2637  1.1843
  301MOL0     C40539   3.667   4.057   9.350 -0.4614 -0.6485 -0.9776
  301MOL0     C40540   3.537   4.047   9.264  0.1922  0.6009 -0.4554
  301MOL0     C40541   3.532   3.915   9.204  0.7460 -0.3213  0.9648
  301MOL0     C40542   3.385   3.864   9.189 -0.3438  0.2539 -0.1916
  301MOL0     C40543   3.341   3.882   9.044  0.4547 -0.1971 -0.6821
  301MOL0    Cl40544   3.350   4.049   8.993  0.1495  0.1493 -0.0822
  301MOL0     C40545   3.949   4.288   9.653  0.2367  0.0550  0.0886
  301MOL0     C40546   3.922   4.405   9.722  0.4415 -0.3678 -0.1902
  301MOL0     O40547   4.001   4.815   9.625  0.1166  0.0149 -0.6533
  301MOL0     C40548   3.870   4.996   9.795  0.5420  0.2130  0.1078
  301MOL0     C40549   3.788   5.079   9.878  0.2268  0.9130 -0.0352
  301MOL0     N40550   3.357   5.513  10.117  0.0489  0.4388  0.1183
  301MOL0     N40551   3.382   5.639  10.127  0.6925  0.1927  0.5599
  301MOL0     C40552   4.170   6.310  10.809  0.4274  0.4780  0.8018
  301MOL0     C40553   4.247   6.425  10.831 -1.2690 -0.4260 -0.0533
  301MOL0     C40554   4.612   6.718  10.757 -0.2240 -0.5515 -0.2353
  301MOL0     C40555   4.591   6.779  10.879 -0.1594  0.0227 -0.1416
  301MOL0     C40556   4.667   6.877  10.923 -0.0637  1.1337  0.1248
  301MOL0     C40557   4.767   6.931  10.847 -0.2927  0.7012  0.5860
  301MOL0     O40558   4.831   7.049  10.867  0.2462  0.0622  0.7466
  301MOL0     C40559   4.778   7.169  10.797 -0.6762 -0.0754 -0.1813
  301MOL0     C40560   4.646   7.201  10.859  0.2614  0.7016 -0.0124
  301MOL0     C40561   4.657   7.228  11.011 -0.7259  0.4033  0.7262
  301MOL0     C40562   4.731   7.357  11.061 -0.0770  0.5427  0.7516
  301MOL0     C40563   4.724   7.363  11.205 -0.4235 -0.2570 -0.6236
  301MOL0     C40564   4.726   7.378  11.326  0.0116  0.6796  0.1726
  301MOL0     C40565   4.806   6.861  10.729 -0.2176  0.8141 -0.5789
  301MOL0     C40566   4.733   6.754  10.687  0.1273 -0.7527  0.3522
  301MOL0     C40567   4.782   6.695  10.560 -0.4603 -0.5703 -0.6169
  301MOL0     H40568   4.525   6.349  10.641  0.8174  1.3601  1.5205
  301MOL0     H40569   4.356   6.152  10.580 -0.3591  2.0867 -1.4491
  301MOL0     H40570   4.195   6.037  10.510 -1.5875  1.2324  0.2561
  301MOL0     H40571   4.245   5.931  10.635 -0.6887 -1.3227 -0.4010
  301MOL0     H40572   3.982   5.877  10.666 -2.5922  1.5818 -0.8683
  301MOL0     H40573   4.087   5.801  10.541 -1.6341 -0.5532 -0.4462
  301MOL0     H40574   3.994   5.950  10.365  3.8220 -2.9265  1.6678
  301MOL0     H40575   3.982   6.075  10.467 -0.6892  0.0173 -1.4153
  301MOL0     H40576   3.804   5.829  10.489  1.0629 -0.6583  0.6106
  301MOL0     H40577   3.780   5.979  10.587  3.0119  0.2461 -0.0456
  301MOL0     H40578   3.731   6.119  10.386 -0.9353 -0.0057  2.5401
  301MOL0     H40579   3.770   5.989  10.275 -1.8079  2.0761 -1.9342
  301MOL0     H40580   3.552   5.956  10.485 -2.2339  0.1869  0.9533
  301MOL0     H40581   3.519   6.043  10.331 -0.3928  0.6806  3.1267
  301MOL0     H40582   3.625   5.764  10.361 -0.4373  1.5336  2.3967
  301MOL0     H40583   3.591   5.838  10.203  0.9124  1.8059 -0.2242
  301MOL0     H40584   3.372   5.791  10.412  1.8909 -1.1158  1.0441
  301MOL0     H40585   3.372   5.864  10.239 -0.3927  2.0534  2.4339
  301MOL0     H40586   3.356   5.529  10.447  1.6458  0.2253  0.2807
  301MOL0     H40587   3.286   5.285  10.375  1.4572 -0.0084 -0.0450
  301MOL0     H40588   3.178   5.306  10.258 -0.4888  0.2040  2.2021
  301MOL0     H40589   3.313   5.114  10.200  2.0863 -0.2446  3.1098
  301MOL0     H40590   3.367   5.243  10.087 -0.1000 -1.6084 -0.6924
  301MOL0     H40591   3.495   5.168  10.358  1.1693 -2.1561  0.2685
  301MOL0     H40592   3.552   5.283  10.225  0.9070 -1.3089  1.4562
  301MOL0     H40593   3.534   4.990  10.188 -1.2478 -0.2514 -1.2085
  301MOL0     H40594   3.680   5.069  10.254 -0.2924  0.6336 -0.1686
  301MOL0     H40595   3.673   4.842  10.092  2.9882  0.7108  2.2400
  301MOL0     H40596   3.782   4.699   9.942  1.3490  1.3187  0.3987
  301MOL0     H40597   4.127   4.621   9.557  0.1857  0.3025  1.7148
  301MOL0     H40598   4.171   4.423   9.428 -1.2000 -1.9065 -2.4710
  301MOL0     H40599   4.004   4.011   9.368 -1.3553 -0.0631 -1.6359
  301MOL0     H40600   3.909   4.069   9.510  0.7998 -1.5907 -0.6386
  301MOL0     H40601   3.848   4.272   9.353  1.6561  0.7519  0.1749
  301MOL0     H40602   3.958   4.198   9.232  1.6153  1.5665  0.6413
  301MOL0     H40603   3.763   4.126   9.168  0.8878 -1.7875  0.7353
  301MOL0     H40604   3.833   3.981   9.245  0.5551 -0.9268  0.0470
  301MOL0     H40605   3.669   4.138   9.423  1.3796 -1.0056 -0.5916
  301MOL0     H40606   3.689   3.971   9.414  0.1800  0.6230  0.5965
  301MOL0     H40607   3.542   4.122   9.185  2.4592  0.9777 -0.0412
  301MOL0     H40608   3.445   4.069   9.318  0.7412  0.8046  0.4254
  301MOL0     H40609   3.598   3.909   9.117 -1.9595 -1.5949 -1.1854
  301MOL0     H40610   3.583   3.847   9.273  1.0129 -0.9541  0.1575
  301MOL0     H40611   3.325   3.898   9.274 -0.0923  0.3318 -0.0455
  301MOL0     H40612   3.391   3.755   9.197  0.9705 -0.1859 -4.5053
  301MOL0     H40613   3.396   3.813   8.979 -0.1213 -0.0069 -1.3860
  301MOL0     H40614   3.239   3.843   9.042  0.6180 -0.8062  1.0646
  301MOL0     H40615   3.899   4.193   9.666  0.8327 -0.0612  1.7702
  301MOL0     H40616   3.850   4.400   9.803 -1.7994  2.4442 -1.8380
  301MOL0     H40617   3.946   5.029   9.725 -0.5780  0.3364 -1.0807
  301MOL0     H40618   3.790   5.185   9.855  1.6167  0.6453 -1.3254
  301MOL0     H40619   4.080   6.281  10.861  0.5557  1.0439  1.3478
  301MOL0     H40620   4.215   6.509  10.892  1.2337  0.4838  0.1170
  301MOL0     H40621   4.507   6.743  10.939  0.2193 -2.4737 -0.9677
  301MOL0     H40622   4.653   6.912  11.025  2.4893  1.6502  0.3626
  301MOL0     H40623   4.780   7.164  10.688  1.5712 -0.5296 -0.1703
  301MOL0     H40624   4.855   7.240  10.829 -1.2026  0.0705  0.8228
  301MOL0     H40625   4.587   7.112  10.834 -0.2637  0.8856  0.5390
  301MOL0     H40626   4.597   7.290  10.818  0.2221 -0.0450 -1.6769
  301MOL0     H40627   4.698   7.136  11.054 -2.1734 -2.1297 -2.7799
  301MOL0     H40628   4.555   7.230  11.048 -1.4274 -0.3163 -1.0514
  301MOL0     H40629   4.839   7.350  11.046 -0.3348 -1.6092 -0.5617
  301MOL0     H40630   4.703   7.451  11.013  0.7534  1.4942  2.0712
  301MOL0     H40631   4.742   7.382  11.432 -0.3696  2.1744  0.1983
  301MOL0     H40632   4.891   6.901  10.674  2.0026 -1.6591  0.8145
  301MOL0     H40633   4.750   6.594  10.533 -2.7621 -0.4421  1.2853
  301MOL0     H40634   4.784   6.764  10.476  2.5200  0.3236  0.0794
  301MOL0     H40635   4.890   6.686  10.579  0.2988  0.9911 -3.6190
  302MOL0     O40636   6.842   7.897   3.705  0.0140 -0.1239  0.4396
  302MOL0     C40637   6.770   7.802   3.711 -0.5794  0.4975  1.2443
  302MOL0     O40638   6.781   7.692   3.629  0.2993  0.3538  0.3479
  302MOL0     C40639   6.864   7.700   3.520 -0.1787  0.4015  0.1787
  302MOL0     C40640   7.000   7.735   3.520  0.5861  0.9843 -0.0866
  302MOL0     C40641   7.068   7.741   3.397 -0.0733  0.4090  0.7005
  302MOL0     C40642   7.013   7.704   3.276  0.0511  0.4688 -0.6143
  302MOL0     O40643   7.095   7.701   3.169  0.4692 -0.6063  0.0011
  302MOL0     C40644   7.034   7.665   3.045 -0.3984 -0.3557 -0.5174
  302MOL0     C40645   6.939   7.772   2.988 -0.5549 -0.8333  0.1015
  302MOL0     C40646   7.017   7.897   2.958 -0.6541  0.5376 -0.2328
  302MOL0     C40647   7.142   7.889   2.866  0.3129 -0.7570 -0.2196
  302MOL0     C40648   7.217   8.024   2.861 -0.2869  0.2027  0.0750
  302MOL0     C40649   7.362   7.991   2.797  0.3831 -0.4421 -0.2525
  302MOL0     C40650   7.444   8.120   2.785  0.3670 -1.0408 -0.7488
  302MOL0     C40651   7.588   8.099   2.733  0.6741  0.5272 -0.2347
  302MOL0     N40652   7.675   8.219   2.746 -0.3683  0.7858  0.2956
  302MOL0     C40653   7.717   8.270   2.868 -0.4408  0.8409  1.3019
  302MOL0     C40654   7.745   8.405   2.851  0.0250  0.6875 -0.0470
  302MOL0     C40655   7.788   8.497   2.960 -0.6436 -0.6410  0.9961
  302MOL0     C40656   7.680   8.531   3.053  0.6416 -0.1399 -0.5519
  302MOL0     C40657   7.550   8.602   2.999 -1.1311  0.2406 -0.1998
  302MOL0     C40658   7.452   8.602   3.106  0.1102  0.4307 -0.8844
  302MOL0     O40659   7.512   8.658   3.225 -0.5793  0.3179  1.1764
  302MOL0     C40660   7.419   8.695   3.313  0.1913 -0.3220 -0.6933
  302MOL0     C40661   7.404   8.836   3.353  0.4190  0.2353  0.7718
  302MOL0     C40662   7.294   8.874   3.434  0.1129  0.2335  0.9503
  302MOL0     C40663   7.198   8.781   3.480  0.6673  0.1994 -0.4697
  302MOL0     C40664   7.085   8.821   3.563  0.1584  0.0561  1.4061
  302MOL0     O40665   7.065   8.751   3.677 -0.7738  0.4796  0.6740
  302MOL0     C40666   6.959   8.783   3.752 -1.5543 -0.1834  0.2434
  302MOL0     C40667   6.995   8.845   3.873  0.2839 -0.4079  0.5519
  302MOL0     C40668   6.895   8.878   3.963  1.2294 -0.6387 -0.4213
  302MOL0     C40669   6.759   8.869   3.917  1.4016 -0.3014 -0.2001
  302MOL0     O40670   6.658   8.911   4.008 -0.1301 -0.8632 -0.3218
  302MOL0     C40671   6.524   8.857   4.014  0.0401  0.2187  0.0813
  302MOL0     C40672   6.414   8.954   3.991 -0.1348 -1.1292 -0.2855
  302MOL0     C40673   6.277   8.893   4.030 -0.6667 -0.3960  0.1912
  302MOL0     C40674   6.255   8.876   4.178  0.2112  1.2940  0.0315
  302MOL0     C40675   6.115   8.822   4.223  0.3626 -0.9222 -0.5464
  302MOL0     C40676   6.090   8.824   4.373 -0.3477 -0.0793 -0.8203
  302MOL0     C40677   5.960   8.737   4.400  0.2583  0.4736 -0.4222
  302MOL0     C40678   5.948   8.722   4.548 -0.3128  0.2351  0.9385
  302MOL0    Cl40679   6.052   8.593   4.608 -0.7284 -0.2738  0.3348
  302MOL0     C40680   6.730   8.814   3.793  0.4012  0.1793  0.1286
  302MOL0     C40681   6.833   8.758   3.721  0.1398 -0.4800 -0.3701
  302MOL0     O40682   7.012   8.914   3.523 -0.8292  0.5191  0.0024
  302MOL0     C40683   7.219   8.647   3.444  0.0971 -0.1591  0.1142
  302MOL0     C40684   7.332   8.603   3.374  0.5542 -0.3681 -0.2032
  302MOL0     N40685   7.725   8.429   2.714 -0.3528  1.7722  0.1139
  302MOL0     N40686   7.687   8.318   2.654 -0.5788 -0.0598 -0.2157
  302MOL0     C40687   6.880   7.658   3.279  0.1285  0.0589 -0.6472
  302MOL0     C40688   6.806   7.658   3.402 -0.2427 -0.3743  0.8489
  302MOL0     C40689   6.671   7.789   3.824 -0.0318 -0.2524  0.3716
  302MOL0     C40690   6.584   7.676   3.822 -0.3173  0.3052 -0.5828
  302MOL0     C40691   6.492   7.659   3.921  0.2385 -1.0732  0.8515
  302MOL0     C40692   6.473   7.753   4.025 -0.0187 -0.0160 -0.0348
  302MOL0     O40693   6.381   7.745   4.122 -0.3923 -0.1132 -0.1605
  302MOL0     C40694   6.325   7.617   4.140 -0.3017 -0.7405  0.4135
  302MOL0     C40695   6.282   7.593   4.281 -0.1092  0.4198 -0.9100
  302MOL0     C40696   6.391   7.628   4.385 -0.0367 -0.1171 -0.7306
  302MOL0     C40697   6.527   7.546   4.381  1.0346  0.1954 -0.6365
  302MOL0     C40698   6.608   7.572   4.494  0.2052 -0.3065  0.1287
  302MOL0     C40699   6.669   7.607   4.590 -0.3399 -0.4830 -0.6925
  302MOL0     C40700   6.561   7.857   4.038 -0.6403 -0.0168  0.8347
  302MOL0     C40701   6.661   7.878   3.946 -0.1178  0.5869  1.4726
  302MOL0     C40702   6.746   7.997   3.965 -0.4484 -0.1583 -0.0611
  302MOL0     H40703   7.049   7.761   3.613 -0.5567  1.5633  0.3644
  302MOL0     H40704   7.171   7.776   3.403 -1.2331  4.1729  0.8467
  302MOL0     H40705   7.113   7.639   2.974  0.4810 -3.9127  1.4670
  302MOL0     H40706   6.968   7.577   3.049 -1.1686  0.1888 -1.1736
  302MOL0     H40707   6.854   7.804   3.049  0.5485  0.3938  1.0560
  302MOL0     H40708   6.910   7.744   2.886  2.4915 -0.8260 -0.8717
  302MOL0     H40709   7.054   7.952   3.045  2.4218  0.2529 -1.2598
  302MOL0     H40710   6.942   7.966   2.918 -0.2959  1.8558  1.2714
  302MOL0     H40711   7.207   7.809   2.900 -0.6952 -0.4743  2.7429
  302MOL0     H40712   7.103   7.858   2.769  0.1796 -0.7460 -0.1709
  302MOL0     H40713   7.165   8.091   2.792 -0.8048  0.7478  0.9734
  302MOL0     H40714   7.233   8.075   2.957  2.6405 -0.7831  0.2114
  302MOL0     H40715   7.418   7.925   2.865 -0.1617 -0.3383  0.3050
  302MOL0     H40716   7.363   7.938   2.702  1.5835 -0.3476 -0.3139
  302MOL0     H40717   7.447   8.169   2.882  0.5594 -0.3914 -1.0786
  302MOL0     H40718   7.397   8.194   2.719  1.1308 -0.7665 -0.9865
  302MOL0     H40719   7.636   8.009   2.774 -0.0920 -0.1010 -0.6710
  302MOL0     H40720   7.575   8.068   2.628  0.1178  0.5642 -0.1821
  302MOL0     H40721   7.711   8.210   2.958  0.0132 -0.5400  0.4488
  302MOL0     H40722   7.867   8.449   3.018 -0.2726 -0.7930  0.3719
  302MOL0     H40723   7.825   8.586   2.909  0.5934 -2.6858 -2.0147
  302MOL0     H40724   7.654   8.436   3.100  1.4450  0.3132  0.8696
  302MOL0     H40725   7.715   8.598   3.132  0.2409 -0.1079 -0.4029
  302MOL0     H40726   7.516   8.543   2.914 -0.6809 -1.1829  0.5647
  302MOL0     H40727   7.574   8.703   2.965  0.4568 -0.2649 -0.6729
  302MOL0     H40728   7.415   8.500   3.121 -0.7558  0.9572  0.7209
  302MOL0     H40729   7.365   8.657   3.069 -0.7319 -1.4492 -1.8790
  302MOL0     H40730   7.472   8.911   3.314 -0.8454 -0.5237 -3.3743
  302MOL0     H40731   7.286   8.973   3.476 -1.0044 -0.1379  1.6700
  302MOL0     H40732   7.098   8.865   3.901  0.6043 -1.5709  0.2541
  302MOL0     H40733   6.934   8.923   4.054  1.1118  2.9574 -1.9596
  302MOL0     H40734   6.516   8.776   3.942 -0.2145 -1.4320  1.8700
  302MOL0     H40735   6.505   8.816   4.114 -2.4775 -1.1639 -0.8887
  302MOL0     H40736   6.435   9.045   4.047  0.4870 -1.6246  0.3043
  302MOL0     H40737   6.429   8.967   3.883 -0.0343 -1.0071 -0.2567
  302MOL0     H40738   6.192   8.946   3.985  0.9148  0.1704 -2.3798
  302MOL0     H40739   6.274   8.793   3.985 -0.9378 -0.8153  1.1305
  302MOL0     H40740   6.284   8.966   4.232  0.3824  2.1782 -1.4998
  302MOL0     H40741   6.326   8.800   4.215  0.6301  1.1123 -1.0963
  302MOL0     H40742   6.088   8.726   4.179 -1.0917 -0.4506 -0.7321
  302MOL0     H40743   6.044   8.889   4.174 -0.6604 -1.6322 -0.0677
  302MOL0     H40744   6.176   8.788   4.430  0.8834  0.7145 -2.1273
  302MOL0     H40745   6.076   8.927   4.407  0.5158 -0.4443  0.7638
  302MOL0     H40746   5.965   8.634   4.364 -1.2316 -0.9858  3.1083
  302MOL0     H40747   5.870   8.780   4.355  0.4479 -1.3395 -2.7170
  302MOL0     H40748   5.970   8.815   4.601 -0.0782  1.4069 -1.0982
  302MOL0     H40749   5.848   8.689   4.577  0.1631 -1.5788  0.7073
  302MOL0     H40750   6.631   8.807   3.748 -0.2648  2.3500  1.1392
  302MOL0     H40751   6.808   8.713   3.625 -1.0481 -2.1994  0.6836
  302MOL0     H40752   7.158   8.563   3.475  0.1796 -0.1349  0.3465
  302MOL0     H40753   7.341   8.498   3.348  1.8162 -0.3671  0.1642
  302MOL0     H40754   6.824   7.623   3.193 -2.5753  0.1726  0.9420
  302MOL0     H40755   6.704   7.623   3.390  1.4780 -5.4327 -2.2272
  302MOL0     H40756   6.596   7.600   3.746  1.6147 -2.5341  2.2602
  302MOL0     H40757   6.426   7.573   3.909  0.8029 -1.3798 -0.1860
  302MOL0     H40758   6.402   7.541   4.121  0.9647  0.8433 -1.1300
  302MOL0     H40759   6.245   7.601   4.067  1.2243  1.6176 -1.9568
  302MOL0     H40760   6.243   7.492   4.297  0.2423  0.6602  2.2131
  302MOL0     H40761   6.197   7.659   4.297  1.5641  2.1546  1.7442
  302MOL0     H40762   6.344   7.601   4.481 -2.3948  0.0386 -1.7857
  302MOL0     H40763   6.405   7.736   4.383  0.9878 -0.2431 -0.9076
  302MOL0     H40764   6.493   7.442   4.371  1.6423  0.0482 -1.2827
  302MOL0     H40765   6.579   7.565   4.287  2.0091 -1.0359 -0.3769
  302MOL0     H40766   6.731   7.642   4.670 -0.9964 -1.4405  0.2611
  302MOL0     H40767   6.550   7.911   4.132 -0.0167  0.4770  0.6366
  302MOL0     H40768   6.742   8.032   4.068 -1.2906  1.6682 -0.6746
  302MOL0     H40769   6.848   7.963   3.941  0.5080  2.1239  0.4717
  302MOL0     H40770   6.713   8.079   3.901 -1.0691  2.3201  3.1765
  303MOL0     O40771   9.289   5.692   0.718 -0.6287 -0.0320 -0.0643
  303MOL0     C40772   9.287   5.810   0.733 -1.0431  0.0395  0.1485
  303MOL0     O40773   9.268   5.883   0.854  0.6073  0.3986 -0.7903
  303MOL0     C40774   9.235   5.839   0.982 -0.7640  0.3565 -0.6957
  303MOL0     C40775   9.221   5.924   1.096  0.4130 -0.0291  0.1072
  303MOL0     C40776   9.194   5.869   1.225 -1.0509  0.0767 -0.2089
  303MOL0     C40777   9.203   5.730   1.258 -1.1832  0.0850  1.0087
  303MOL0     O40778   9.184   5.699   1.385  0.0029  0.1892  0.7692
  303MOL0     C40779   9.171   5.563   1.427  0.6569 -0.6209  0.6078
  303MOL0     C40780   9.190   5.558   1.575 -0.1217  0.4159 -0.1774
  303MOL0     C40781   9.066   5.505   1.655 -1.3169  0.3146  0.2426
  303MOL0     C40782   9.096   5.451   1.797  0.8800 -0.0696 -0.3137
  303MOL0     C40783   8.973   5.395   1.860 -0.8697 -0.3596 -0.5474
  303MOL0     C40784   9.012   5.348   2.002  0.7912 -0.9791 -0.4687
  303MOL0     C40785   8.893   5.289   2.073  0.3209 -0.2694  0.0797
  303MOL0     C40786   8.911   5.279   2.227  0.2422  0.0012  0.2711
  303MOL0     N40787   8.825   5.174   2.288  0.1780  0.3598  0.1623
  303MOL0     C40788   8.816   5.143   2.421  1.4437  0.0773 -0.3215
  303MOL0     C40789   8.715   5.055   2.428  0.3690 -0.6186  0.3350
  303MOL0     C40790   8.665   4.980   2.549  0.5969  0.2025 -0.0491
  303MOL0     C40791   8.673   5.063   2.680 -0.0545 -0.0850 -0.6745
  303MOL0     C40792   8.598   4.996   2.782 -1.7805  0.4677 -0.0136
  303MOL0     C40793   8.672   4.863   2.828 -0.1603  0.3647 -0.3539
  303MOL0     O40794   8.801   4.899   2.885 -0.4925  0.5742  0.2963
  303MOL0     C40795   8.873   4.809   2.956 -0.2339 -0.2061  0.0737
  303MOL0     C40796   8.828   4.681   2.983  1.2367  0.2041  0.3415
  303MOL0     C40797   8.912   4.589   3.047  0.6888 -0.8243 -0.1677
  303MOL0     C40798   9.039   4.632   3.086 -0.7483 -0.2602  1.1680
  303MOL0     C40799   9.132   4.539   3.149  0.1143  0.3392  0.3133
  303MOL0     O40800   9.268   4.539   3.127 -0.9049 -0.1512 -0.1942
  303MOL0     C40801   9.343   4.445   3.197 -0.5889  1.1530  0.0353
  303MOL0     C40802   9.325   4.305   3.195  0.8163  0.7343  0.9042
  303MOL0     C40803   9.424   4.213   3.253  0.2251 -0.5222 -0.2644
  303MOL0     C40804   9.535   4.270   3.315  0.1326 -0.0097 -0.1350
  303MOL0     O40805   9.641   4.196   3.364 -0.6599  0.0183 -0.3130
  303MOL0     C40806   9.621   4.064   3.408  0.9336  0.1212 -0.6530
  303MOL0     C40807   9.734   4.020   3.497 -0.3293 -0.3299 -0.0416
  303MOL0     C40808   9.688   3.942   3.616  0.8477  0.3096  0.4025
  303MOL0     C40809   9.805   3.901   3.700 -0.9569 -1.2234 -1.0425
  303MOL0     C40810   9.764   3.817   3.817  0.4946  0.3640 -0.7098
  303MOL0     C40811   9.631   3.844   3.890  0.5924 -0.3967  0.6146
  303MOL0     C40812   9.636   3.786   4.034 -0.4095 -0.6632  0.3396
  303MOL0     C40813   9.513   3.822   4.119  0.0149 -0.0693  0.2549
  303MOL0    Cl40814   9.514   3.795   4.289  0.1041 -0.4990  0.3044
  303MOL0     C40815   9.547   4.407   3.333  0.4613  0.1712  0.3386
  303MOL0     C40816   9.458   4.484   3.266 -0.0506 -0.0282  1.0226
  303MOL0     O40817   9.072   4.467   3.236  0.3401  0.4651 -0.0758
  303MOL0     C40818   9.082   4.764   3.061 -0.6032 -0.3201 -0.7093
  303MOL0     C40819   9.001   4.847   3.000  0.8913 -0.5882 -0.0781
  303MOL0     N40820   8.656   5.038   2.307  0.2695 -0.1765  0.2045
  303MOL0     N40821   8.726   5.105   2.221  0.4016 -0.9035  0.8821
  303MOL0     C40822   9.228   5.644   1.148  0.8037  0.8729  0.3424
  303MOL0     C40823   9.238   5.697   1.017 -0.5576 -0.0197 -0.9339
  303MOL0     C40824   9.309   5.883   0.617  0.2836 -0.2917  0.5509
  303MOL0     C40825   9.406   5.984   0.609 -0.5064 -0.0626  0.6039
  303MOL0     C40826   9.419   6.053   0.483  0.4063  0.3464 -0.0523
  303MOL0     C40827   9.362   6.003   0.362  0.2676 -1.0899 -0.4297
  303MOL0     O40828   9.384   6.057   0.236  0.2132  0.1224  0.3121
  303MOL0     C40829   9.514   6.104   0.182 -0.0094 -0.4271 -0.5009
  303MOL0     C40830   9.619   5.994   0.167 -0.0236 -1.0708 -1.0891
  303MOL0     C40831   9.586   5.906   0.047  0.3307 -0.0237 -0.8584
  303MOL0     C40832   9.671   5.777   0.043  0.4195  0.1960  0.4261
  303MOL0     C40833   9.644   5.709  -0.079  1.0058 -0.8711  0.3334
  303MOL0     C40834   9.631   5.661  -0.189  0.4240  0.6929 -0.4002
  303MOL0     C40835   9.261   5.912   0.375  0.6615  1.8442 -0.5411
  303MOL0     C40836   9.229   5.852   0.497 -0.5535  0.1398  0.0536
  303MOL0     C40837   9.104   5.779   0.498  1.2118  0.9225 -0.1366
  303MOL0     H40838   9.210   6.031   1.083  0.6828 -0.2285 -2.4049
  303MOL0     H40839   9.164   5.935   1.305  0.2353  0.2724  0.1402
  303MOL0     H40840   9.078   5.513   1.399  1.4875 -1.4149 -0.8664
  303MOL0     H40841   9.241   5.495   1.377 -0.0928 -0.3081 -0.9205
  303MOL0     H40842   9.220   5.659   1.602  3.3887 -0.9079  1.5430
  303MOL0     H40843   9.266   5.487   1.611  1.0961  1.9021  0.2722
  303MOL0     H40844   9.022   5.429   1.589 -0.9068  0.4554 -0.1978
  303MOL0     H40845   8.993   5.586   1.665 -3.3048 -1.2913 -0.6155
  303MOL0     H40846   9.156   5.362   1.779 -2.3215 -2.0027 -2.4958
  303MOL0     H40847   9.140   5.528   1.861 -1.0998  1.7657 -0.9980
  303MOL0     H40848   8.895   5.472   1.867  0.2921  0.8474 -0.3670
  303MOL0     H40849   8.940   5.308   1.803 -0.7139 -0.9600  0.2553
  303MOL0     H40850   9.104   5.290   2.003  1.2891 -0.2884 -2.0006
  303MOL0     H40851   9.039   5.445   2.046  1.1208 -0.4771 -1.7220
  303MOL0     H40852   8.878   5.191   2.027 -1.5110 -0.2631  0.5836
  303MOL0     H40853   8.801   5.347   2.056 -1.3501 -2.5278  0.8512
  303MOL0     H40854   9.018   5.259   2.240  1.0165  3.8126  0.8033
  303MOL0     H40855   8.889   5.375   2.274  2.1236  0.1226  0.9933
  303MOL0     H40856   8.868   5.172   2.512 -1.0230 -0.2773  1.2792
  303MOL0     H40857   8.568   4.933   2.532  1.2638 -0.4185 -2.5855
  303MOL0     H40858   8.732   4.894   2.555 -2.1171 -2.3060 -2.3003
  303MOL0     H40859   8.773   5.104   2.703  0.4444 -1.3502 -0.5298
  303MOL0     H40860   8.623   5.160   2.670  0.7541  0.4992  0.6442
  303MOL0     H40861   8.504   4.961   2.739 -1.8300 -0.3221  0.7072
  303MOL0     H40862   8.582   5.064   2.866 -1.5840  1.1521 -0.5225
  303MOL0     H40863   8.677   4.786   2.752  0.3771 -3.1727  2.9574
  303MOL0     H40864   8.606   4.821   2.906 -1.5266  2.3150 -0.3662
  303MOL0     H40865   8.735   4.640   2.946 -0.8295  1.8722  3.3178
  303MOL0     H40866   8.886   4.486   3.070  1.7545 -0.8937  0.8030
  303MOL0     H40867   9.237   4.280   3.137 -0.1464  1.7560  1.8739
  303MOL0     H40868   9.424   4.108   3.226  0.5283 -0.2168 -1.5150
  303MOL0     H40869   9.528   4.048   3.464  1.9469 -1.2082  0.7286
  303MOL0     H40870   9.621   4.001   3.318  3.8222 -0.5549 -0.2743
  303MOL0     H40871   9.796   3.955   3.434 -1.5700 -0.3513 -1.2971
  303MOL0     H40872   9.796   4.100   3.538  0.6268 -1.3011  0.4861
  303MOL0     H40873   9.631   4.010   3.680  0.9336  1.1683 -0.4227
  303MOL0     H40874   9.634   3.854   3.579  3.7500 -0.9288 -1.2892
  303MOL0     H40875   9.845   3.997   3.732 -0.1117 -0.4096 -4.1152
  303MOL0     H40876   9.890   3.861   3.643 -0.2430 -0.5181 -0.4889
  303MOL0     H40877   9.844   3.804   3.890  1.0710 -2.3567 -1.7118
  303MOL0     H40878   9.735   3.719   3.777 -2.0268  1.2240 -1.1676
  303MOL0     H40879   9.615   3.952   3.896 -0.0634 -0.5379  1.5681
  303MOL0     H40880   9.543   3.803   3.840  1.2045 -0.7570 -0.1953
  303MOL0     H40881   9.718   3.828   4.092 -2.1388  0.7289  1.9189
  303MOL0     H40882   9.646   3.677   4.029  0.8261 -0.5353 -0.1039
  303MOL0     H40883   9.496   3.928   4.097 -1.2452  0.1811  2.1353
  303MOL0     H40884   9.437   3.754   4.080 -1.7637  1.9671  0.0124
  303MOL0     H40885   9.627   4.452   3.390 -0.6599 -0.7733  2.7670
  303MOL0     H40886   9.474   4.591   3.264 -0.8089  0.0868 -0.5699
  303MOL0     H40887   9.180   4.791   3.100 -0.8126 -0.8592  0.2294
  303MOL0     H40888   9.028   4.952   2.992 -1.8973  0.2110  0.0818
  303MOL0     H40889   9.229   5.536   1.163  0.1266  0.5146 -1.9142
  303MOL0     H40890   9.272   5.631   0.938  2.4074 -0.3807  0.5519
  303MOL0     H40891   9.464   6.015   0.695 -1.6289 -0.7560  1.6395
  303MOL0     H40892   9.486   6.138   0.476  0.8935  0.0584  0.9730
  303MOL0     H40893   9.564   6.188   0.232 -0.6593  0.1748 -0.8429
  303MOL0     H40894   9.499   6.147   0.083 -3.3152  0.1310  0.1304
  303MOL0     H40895   9.614   5.942   0.263 -1.3551 -0.7433 -0.9614
  303MOL0     H40896   9.717   6.043   0.162 -0.8028  0.6169 -0.4473
  303MOL0     H40897   9.613   5.970  -0.038  1.9406  1.2904  0.5782
  303MOL0     H40898   9.483   5.873   0.062  1.4792 -2.5532  2.6443
  303MOL0     H40899   9.775   5.808   0.055  0.2597  0.7478  0.4218
  303MOL0     H40900   9.648   5.718   0.132 -0.7039 -1.6905 -1.0415
  303MOL0     H40901   9.631   5.606  -0.281  3.6990 -1.8384  0.8827
  303MOL0     H40902   9.198   5.893   0.288 -0.4859  1.9532  0.2340
  303MOL0     H40903   9.117   5.671   0.511 -2.9759  0.3457  0.8561
  303MOL0     H40904   9.032   5.807   0.576  2.3593  0.3462  1.1716
  303MOL0     H40905   9.044   5.791   0.407 -0.5872 -1.6147  0.5780
  304MOL0     O40906   5.153   1.877   8.945  0.3117  0.3348 -0.2907
  304MOL0     C40907   5.117   1.953   8.855  0.8204 -0.2560  0.2160
  304MOL0     O40908   4.996   1.946   8.776 -1.1589 -0.2573  0.0626
  304MOL0     C40909   4.905   1.851   8.800  0.9559 -0.0188 -0.7304
  304MOL0     C40910   4.929   1.718   8.848  0.5715 -0.1211 -0.4658
  304MOL0     C40911   4.833   1.626   8.867 -0.7669 -0.1319 -0.4199
  304MOL0     C40912   4.698   1.665   8.867 -0.9666 -0.6712  0.4083
  304MOL0     O40913   4.612   1.573   8.928  0.0381  0.0540  0.9221
  304MOL0     C40914   4.474   1.602   8.899  0.4329  1.0658 -0.3175
  304MOL0     C40915   4.377   1.484   8.931 -0.6251 -0.3855  1.1338
  304MOL0     C40916   4.428   1.377   9.030 -0.9193 -0.0029  0.0293
  304MOL0     C40917   4.303   1.313   9.090  0.2183  0.8991  0.2820
  304MOL0     C40918   4.253   1.189   9.019  0.3167 -0.1181  0.5329
  304MOL0     C40919   4.347   1.074   9.016 -0.8670  0.2568 -0.1643
  304MOL0     C40920   4.275   0.939   9.013  0.0548  0.2428 -0.5881
  304MOL0     C40921   4.353   0.808   8.981  0.8213  0.5316 -0.8186
  304MOL0     N40922   4.457   0.780   9.079 -0.4619  0.1352  0.0531
  304MOL0     C40923   4.587   0.842   9.075 -0.4024  0.6232  0.2467
  304MOL0     C40924   4.665   0.762   9.153 -0.2488  0.4226 -0.2092
  304MOL0     C40925   4.814   0.784   9.164 -1.0369  0.7975 -0.6472
  304MOL0     C40926   4.899   0.739   9.043  0.5499 -0.4552 -0.2261
  304MOL0     C40927   4.878   0.593   9.005 -0.4212 -0.1659  0.1743
  304MOL0     C40928   4.963   0.544   8.880 -0.0504  0.4224 -0.4860
  304MOL0     O40929   5.101   0.556   8.894  0.6003 -0.8021 -0.0795
  304MOL0     C40930   5.154   0.679   8.853  0.1848 -0.5299  0.7628
  304MOL0     C40931   5.130   0.747   8.733 -0.1609 -0.3730 -0.3569
  304MOL0     C40932   5.197   0.865   8.694 -0.5869 -0.2559 -0.2428
  304MOL0     C40933   5.295   0.920   8.776  0.2115  0.4150  0.2931
  304MOL0     C40934   5.377   1.031   8.730 -0.1002 -0.1319  0.8449
  304MOL0     O40935   5.488   1.074   8.801  0.4171  0.8254 -0.2948
  304MOL0     C40936   5.569   1.183   8.771 -0.7931  0.7510  0.3543
  304MOL0     C40937   5.557   1.280   8.671 -0.1324  0.0876 -0.2927
  304MOL0     C40938   5.656   1.375   8.653  0.2252 -0.1630  0.2927
  304MOL0     C40939   5.761   1.392   8.740  0.0423 -0.2736 -0.3639
  304MOL0     O40940   5.855   1.486   8.709 -1.1657 -0.2783  0.0017
  304MOL0     C40941   5.981   1.474   8.772 -1.0098  0.2131  0.4871
  304MOL0     C40942   6.072   1.590   8.730 -0.2180  0.0568 -0.0179
  304MOL0     C40943   6.064   1.630   8.584  0.1671 -0.1090  0.1725
  304MOL0     C40944   6.171   1.741   8.554 -0.1580 -0.3789 -0.0620
  304MOL0     C40945   6.172   1.808   8.418 -0.4176 -1.0723 -0.5075
  304MOL0     C40946   6.228   1.718   8.306 -0.3460  0.2461 -0.5935
  304MOL0     C40947   6.257   1.799   8.180  0.3984 -0.0279 -0.1710
  304MOL0     C40948   6.317   1.710   8.067  0.2478 -0.2530 -0.2635
  304MOL0    Cl40949   6.350   1.822   7.926  0.8391 -0.2156  0.3325
  304MOL0     C40950   5.768   1.297   8.841 -0.7045 -0.2277 -0.0747
  304MOL0     C40951   5.675   1.189   8.851 -0.0504 -0.1736 -0.8618
  304MOL0     O40952   5.345   1.083   8.624 -0.1494 -0.2937 -0.0997
  304MOL0     C40953   5.312   0.862   8.904 -0.3834  0.1253  0.5041
  304MOL0     C40954   5.243   0.743   8.943 -0.4909 -0.1565  0.3122
  304MOL0     N40955   4.586   0.670   9.207 -0.3819 -0.1230  0.2490
  304MOL0     N40956   4.470   0.676   9.159 -0.3497 -0.3248  0.5882
  304MOL0     C40957   4.672   1.800   8.816  0.3884  0.0825 -0.1754
  304MOL0     C40958   4.770   1.885   8.780 -0.8142 -0.6303 -0.8431
  304MOL0     C40959   5.222   2.057   8.814  1.2903  0.3965  0.9653
  304MOL0     C40960   5.357   2.011   8.796  0.2568 -0.3389 -0.7299
  304MOL0     C40961   5.458   2.109   8.774  0.7405  0.1389 -0.1498
  304MOL0     C40962   5.429   2.249   8.767 -0.6087  0.1553  0.1640
  304MOL0     O40963   5.526   2.345   8.751 -0.0248  0.0012  0.1143
  304MOL0     C40964   5.547   2.406   8.878 -0.0191  0.6766 -0.3787
  304MOL0     C40965   5.528   2.559   8.863  0.8415 -0.1838  1.5818
  304MOL0     C40966   5.630   2.607   8.755 -0.4133  1.1626 -1.1931
  304MOL0     C40967   5.667   2.751   8.792 -0.6067 -0.6858 -0.1640
  304MOL0     C40968   5.562   2.843   8.739 -0.1948 -0.0689 -0.0064
  304MOL0     C40969   5.459   2.886   8.693 -0.2905  0.0554  0.1694
  304MOL0     C40970   5.294   2.289   8.795  0.6052 -0.5140  0.1469
  304MOL0     C40971   5.184   2.201   8.819  0.4690  0.8399 -0.0449
  304MOL0     C40972   5.049   2.255   8.829  0.2129 -0.6789 -0.1417
  304MOL0     H40973   5.033   1.686   8.850 -0.0105 -2.1578  1.4123
  304MOL0     H40974   4.856   1.522   8.884 -0.2449 -0.1693 -1.2982
  304MOL0     H40975   4.450   1.682   8.969  1.0366  0.1970  0.9243
  304MOL0     H40976   4.458   1.627   8.794  1.1636  0.5383 -0.5599
  304MOL0     H40977   4.362   1.429   8.837 -0.9591 -0.2645  1.1134
  304MOL0     H40978   4.282   1.534   8.955 -0.9179 -0.0054 -0.6598
  304MOL0     H40979   4.491   1.422   9.107  0.1153  1.8687 -1.7838
  304MOL0     H40980   4.478   1.295   8.977 -0.9293  1.2050 -1.9990
  304MOL0     H40981   4.318   1.276   9.192 -0.2487 -1.4822 -0.4500
  304MOL0     H40982   4.227   1.390   9.109 -1.0673 -0.2591  0.0208
  304MOL0     H40983   4.173   1.161   9.088  0.2381 -0.0498  0.4697
  304MOL0     H40984   4.209   1.213   8.922  0.3542  0.0865  0.5674
  304MOL0     H40985   4.405   1.086   8.924 -2.3126 -2.4814 -1.5657
  304MOL0     H40986   4.422   1.086   9.095 -0.6762 -1.0906 -0.1161
  304MOL0     H40987   4.188   0.952   8.948  0.2960  0.6765 -0.8273
  304MOL0     H40988   4.235   0.914   9.112 -1.1868 -2.6111 -1.6990
  304MOL0     H40989   4.280   0.728   8.972  0.4254  0.9415 -1.2677
  304MOL0     H40990   4.390   0.826   8.880 -0.7782  1.2953 -1.3016
  304MOL0     H40991   4.625   0.924   9.014  2.3507  2.1336  3.6692
  304MOL0     H40992   4.849   0.887   9.164 -0.7735  0.7080 -1.0846
  304MOL0     H40993   4.838   0.743   9.262 -1.3184  2.8552  0.3396
  304MOL0     H40994   4.873   0.801   8.957  2.6251 -2.7670 -2.6997
  304MOL0     H40995   5.005   0.750   9.067  0.3024  1.1860  0.2869
  304MOL0     H40996   4.770   0.578   8.989 -0.8533  3.2276 -0.7307
  304MOL0     H40997   4.904   0.526   9.088 -0.9663 -0.2031  0.3198
  304MOL0     H40998   4.925   0.567   8.780 -2.8468 -0.8591  0.1910
  304MOL0     H40999   4.957   0.435   8.886  1.8074  0.1766 -2.1794
  304MOL0     H41000   5.052   0.709   8.668 -0.2607 -1.5491  0.4232
  304MOL0     H41001   5.188   0.914   8.598  1.4681  1.5664  0.4078
  304MOL0     H41002   5.482   1.285   8.593  1.7622  2.6055 -2.1102
  304MOL0     H41003   5.631   1.444   8.573 -0.0768  0.2529  0.7346
  304MOL0     H41004   5.977   1.476   8.882  3.4451  0.2959  0.8597
  304MOL0     H41005   6.035   1.380   8.757  3.1524  2.2813  1.0259
  304MOL0     H41006   6.046   1.682   8.784 -1.1175 -0.2048 -0.0024
  304MOL0     H41007   6.170   1.547   8.752 -0.4042 -0.4498 -0.1902
  304MOL0     H41008   6.084   1.543   8.521  2.4148  0.7533 -0.4033
  304MOL0     H41009   5.961   1.659   8.562 -0.1825 -2.5790 -1.8933
  304MOL0     H41010   6.272   1.697   8.552 -1.1979 -2.8881 -1.0264
  304MOL0     H41011   6.168   1.821   8.628  3.9826 -1.6269  1.8058
  304MOL0     H41012   6.223   1.905   8.414 -1.9247 -0.2637 -1.0983
  304MOL0     H41013   6.069   1.840   8.400  0.4301  0.5397 -2.8961
  304MOL0     H41014   6.319   1.671   8.343 -0.5814  2.1872  2.8603
  304MOL0     H41015   6.160   1.641   8.269  0.4550 -1.6211  1.6164
  304MOL0     H41016   6.319   1.889   8.191 -0.0690  0.2796  0.0032
  304MOL0     H41017   6.167   1.837   8.131 -0.8343 -1.9469  0.5055
  304MOL0     H41018   6.417   1.668   8.083 -0.2536 -2.0577 -1.5125
  304MOL0     H41019   6.249   1.627   8.047  0.9896 -1.5687  2.2384
  304MOL0     H41020   5.835   1.294   8.926 -0.9075  2.1383  0.2284
  304MOL0     H41021   5.694   1.097   8.907 -2.6071 -0.5019 -0.3969
  304MOL0     H41022   5.374   0.909   8.979 -1.6710  2.7391  0.0297
  304MOL0     H41023   5.272   0.707   9.041 -0.3277  0.2563  0.4188
  304MOL0     H41024   4.575   1.848   8.818  0.7353  0.9559 -2.0464
  304MOL0     H41025   4.754   1.991   8.764  0.0022 -0.3165  0.2922
  304MOL0     H41026   5.376   1.905   8.802 -3.0924 -0.9817  0.5605
  304MOL0     H41027   5.561   2.076   8.770  0.0421 -2.6307  1.6682
  304MOL0     H41028   5.649   2.382   8.910  1.8532 -0.5328 -6.0686
  304MOL0     H41029   5.479   2.374   8.958 -1.1537  5.0834  0.6752
  304MOL0     H41030   5.540   2.604   8.962 -1.8533  1.2512  1.3639
  304MOL0     H41031   5.425   2.576   8.829  0.0912 -1.6066  3.0219
  304MOL0     H41032   5.579   2.591   8.659 -1.0246 -0.4043 -0.6475
  304MOL0     H41033   5.720   2.549   8.773 -0.7375  1.1062  0.4047
  304MOL0     H41034   5.672   2.764   8.901 -1.9630  1.2281 -0.2897
  304MOL0     H41035   5.766   2.776   8.752 -1.0114  2.7413  0.6694
  304MOL0     H41036   5.375   2.936   8.649 -1.2763 -2.1842 -0.6240
  304MOL0     H41037   5.272   2.395   8.789  2.0715 -0.1873  0.2573
  304MOL0     H41038   5.047   2.363   8.844  1.3402 -0.7889  0.8663
  304MOL0     H41039   5.008   2.222   8.733 -0.5513  1.4913 -0.6154
  304MOL0     H41040   5.005   2.195   8.909  3.6056 -3.1619  0.0599
  305MOL0     O41041   1.360   9.715   7.876 -0.7489  0.5229  0.7005
  305MOL0     C41042   1.466   9.721   7.940  0.4633 -0.1986  0.1668
  305MOL0     O41043   1.492   9.814   8.035 -0.9114  0.2744 -0.3129
  305MOL0     C41044   1.401   9.916   8.041  0.5370  0.1521  0.3852
  305MOL0     C41045   1.331   9.943   8.157  0.2027 -0.3717  0.8394
  305MOL0     C41046   1.239  10.049   8.157  0.0872  0.1699 -0.3329
  305MOL0     C41047   1.202  10.121   8.047 -0.3766  0.2149  0.4895
  305MOL0     O41048   1.107  10.223   8.034 -1.2144  0.6838 -1.0801
  305MOL0     C41049   1.081  10.308   8.144 -0.8826 -0.5865  0.1700
  305MOL0     C41050   0.943  10.263   8.194  0.4628 -0.1668 -0.5259
  305MOL0     C41051   0.864  10.379   8.266  1.3003 -0.3155 -0.1088
  305MOL0     C41052   0.840  10.497   8.172  0.0067 -0.5646  0.6839
  305MOL0     C41053   0.722  10.583   8.228  0.1256 -0.7519 -0.1703
  305MOL0     C41054   0.739  10.655   8.357 -0.1855 -0.6285 -0.3467
  305MOL0     C41055   0.608  10.722   8.396  0.4717 -0.0266  0.3161
  305MOL0     C41056   0.607  10.795   8.536  0.6403  0.4610  0.1342
  305MOL0     N41057   0.684  10.913   8.535 -0.4297 -0.9894  0.2201
  305MOL0     C41058   0.822  10.922   8.552  0.1643 -0.6148  0.2597
  305MOL0     C41059   0.858  11.050   8.512  0.3932 -0.3938  1.1980
  305MOL0     C41060   0.994  11.119   8.524  0.3127  0.1469 -0.6964
  305MOL0     C41061   1.055  11.156   8.665 -0.3186  0.1917 -0.1855
  305MOL0     C41062   1.002  11.287   8.714 -0.7008 -0.3540 -0.8160
  305MOL0     C41063   1.019  11.407   8.624  1.1449  0.9597 -0.6110
  305MOL0     O41064   1.148  11.425   8.574  0.4134  0.3283  0.3163
  305MOL0     C41065   1.255  11.465   8.650  0.4613  0.1576 -0.1110
  305MOL0     C41066   1.244  11.515   8.775 -0.0210 -0.4070 -0.4323
  305MOL0     C41067   1.360  11.567   8.843 -0.5141 -0.0131  0.8996
  305MOL0     C41068   1.492  11.549   8.789  0.4654  0.6150 -0.5723
  305MOL0     C41069   1.617  11.577   8.867  0.5230  0.3259 -0.5230
  305MOL0     O41070   1.591  11.639   8.989  0.4504  0.4726  0.3962
  305MOL0     C41071   1.700  11.686   9.053  0.3358  0.3618 -0.2030
  305MOL0     C41072   1.728  11.821   9.050 -0.2629  0.1645  0.0381
  305MOL0     C41073   1.848  11.867   9.095  0.4719 -0.0065  1.1115
  305MOL0     C41074   1.947  11.776   9.141  0.4998  0.0631  0.2463
  305MOL0     O41075   2.070  11.835   9.165 -0.0970  0.3543  0.0865
  305MOL0     C41076   2.149  11.782   9.268 -0.6372  0.1934 -0.5569
  305MOL0     C41077   2.163  11.893   9.376 -0.0448  0.8772  0.2250
  305MOL0     C41078   2.257  12.004   9.324  0.0376  0.0056  0.1523
  305MOL0     C41079   2.290  12.115   9.422 -0.6915  0.1701  0.4693
  305MOL0     C41080   2.170  12.201   9.457  0.0670  0.5860  0.6608
  305MOL0     C41081   2.213  12.318   9.537  0.6711  0.2798  0.1908
  305MOL0     C41082   2.092  12.391   9.589  1.2649  0.2171  0.2619
  305MOL0     C41083   2.133  12.516   9.677 -0.4478  0.7873  0.4922
  305MOL0    Cl41084   2.001  12.578   9.778  0.2351  0.4477  0.1946
  305MOL0     C41085   1.916  11.637   9.145 -0.0473 -1.0022 -1.1722
  305MOL0     C41086   1.794  11.592   9.100  0.0191 -0.2355  0.0220
  305MOL0     O41087   1.724  11.529   8.835 -0.4614  0.0000 -0.7451
  305MOL0     C41088   1.499  11.472   8.676 -0.0803  1.1993  0.4347
  305MOL0     C41089   1.389  11.436   8.601  0.6005 -0.1036 -0.1084
  305MOL0     N41090   0.741  11.124   8.494 -0.2019  0.2667 -0.0897
  305MOL0     N41091   0.649  11.041   8.506  0.0919 -0.0946  0.1484
  305MOL0     C41092   1.264  10.090   7.927 -0.9163 -0.0595  0.2878
  305MOL0     C41093   1.366   9.993   7.925 -0.8635  0.2767  0.5234
  305MOL0     C41094   1.575   9.618   7.909  0.6503  0.2853  0.0212
  305MOL0     C41095   1.694   9.624   7.987  0.6574  0.1732  0.0187
  305MOL0     C41096   1.815   9.552   7.958 -0.4222 -1.1570 -0.1860
  305MOL0     C41097   1.821   9.464   7.855  0.0594  0.0104  0.5188
  305MOL0     O41098   1.921   9.385   7.837  0.6242 -0.1029  0.0480
  305MOL0     C41099   2.047   9.447   7.807  0.0710 -0.0218  1.1480
  305MOL0     C41100   2.121   9.373   7.700 -0.0467 -1.5033  0.5939
  305MOL0     C41101   2.053   9.399   7.553 -1.1904  0.5563  0.0144
  305MOL0     C41102   2.143   9.337   7.441  0.4286 -0.2818  0.5085
  305MOL0     C41103   2.059   9.284   7.344  0.0469  0.4643  0.6711
  305MOL0     C41104   1.991   9.270   7.245  0.5988  0.1934 -0.2921
  305MOL0     C41105   1.704   9.450   7.777 -0.4160  0.2942  0.1604
  305MOL0     C41106   1.580   9.518   7.809  0.5487  0.4114  0.4113
  305MOL0     C41107   1.447   9.483   7.739 -0.5504 -0.2303  0.3092
  305MOL0     H41108   1.346   9.897   8.254  2.7082 -1.3500  0.0721
  305MOL0     H41109   1.179  10.072   8.244 -1.4957  3.1489 -2.0329
  305MOL0     H41110   1.158  10.328   8.219 -1.7696  0.6469  0.7824
  305MOL0     H41111   1.068  10.404   8.094 -0.2125 -0.1126  0.8890
  305MOL0     H41112   0.954  10.180   8.264 -0.6413 -2.7737 -3.1833
  305MOL0     H41113   0.889  10.235   8.102  2.5162  1.5767 -2.3596
  305MOL0     H41114   0.921  10.420   8.349 -1.8171  2.8701  0.6894
  305MOL0     H41115   0.768  10.332   8.290  0.4544 -0.5874 -3.5163
  305MOL0     H41116   0.923  10.566   8.152 -1.4993  1.9720  2.5120
  305MOL0     H41117   0.815  10.453   8.075 -0.0198  0.0230  0.4213
  305MOL0     H41118   0.689  10.661   8.159 -0.6160 -1.1084 -0.2310
  305MOL0     H41119   0.637  10.515   8.242 -0.0562 -0.6959 -0.9408
  305MOL0     H41120   0.769  10.586   8.438  2.8001  1.3805  0.4336
  305MOL0     H41121   0.814  10.734   8.345  2.6081 -3.1869 -1.0037
  305MOL0     H41122   0.523  10.654   8.406  1.6808 -1.4047  1.7208
  305MOL0     H41123   0.590  10.794   8.315 -2.4793  1.4382  2.0696
  305MOL0     H41124   0.510  10.846   8.542  1.4782  2.0656  0.6255
  305MOL0     H41125   0.622  10.732   8.624 -0.7913 -1.1518 -0.7292
  305MOL0     H41126   0.883  10.843   8.593 -0.9934 -2.0863 -0.7425
  305MOL0     H41127   1.070  11.061   8.471  0.9319  0.7783 -0.5126
  305MOL0     H41128   1.002  11.210   8.465 -2.4780 -0.5973 -2.4003
  305MOL0     H41129   1.033  11.073   8.732  0.5950 -0.8244 -1.1008
  305MOL0     H41130   1.162  11.166   8.647 -0.3661  0.5486 -0.2734
  305MOL0     H41131   1.044  11.296   8.814 -0.6294 -0.6356 -0.8172
  305MOL0     H41132   0.896  11.261   8.728 -0.8806  0.1887 -1.1491
  305MOL0     H41133   0.989  11.498   8.678 -0.1773  0.0277  0.3014
  305MOL0     H41134   0.948  11.379   8.546 -0.7679 -1.6865  1.8508
  305MOL0     H41135   1.151  11.517   8.830 -0.5041  1.2326 -1.2406
  305MOL0     H41136   1.357  11.620   8.937 -0.7056  0.9548  0.3566
  305MOL0     H41137   1.653  11.893   9.017  2.6358  3.0968 -0.6912
  305MOL0     H41138   1.869  11.974   9.095  1.6989 -0.2153  2.1490
  305MOL0     H41139   2.118  11.690   9.317  0.4390  0.8325  1.4521
  305MOL0     H41140   2.245  11.750   9.228  0.3323 -2.1076  3.0856
  305MOL0     H41141   2.062  11.929   9.397 -1.0697 -0.6027 -1.8293
  305MOL0     H41142   2.209  11.844   9.463 -1.0195 -0.9420 -0.2397
  305MOL0     H41143   2.348  11.955   9.287 -1.2192 -3.3158  1.0900
  305MOL0     H41144   2.211  12.058   9.242  0.5737  2.2162  1.2374
  305MOL0     H41145   2.362  12.184   9.376 -0.7463 -0.1220 -0.0502
  305MOL0     H41146   2.338  12.077   9.513  0.2884 -0.8223 -0.4425
  305MOL0     H41147   2.106  12.131   9.512 -1.1180  0.4501 -0.8374
  305MOL0     H41148   2.116  12.234   9.368 -2.8454 -0.8956  1.7390
  305MOL0     H41149   2.283  12.286   9.615  4.3045  2.1293 -2.0334
  305MOL0     H41150   2.270  12.378   9.465  1.7569 -1.7537 -0.7168
  305MOL0     H41151   2.044  12.311   9.647  1.8022 -0.5254 -0.2943
  305MOL0     H41152   2.023  12.430   9.514  0.2165  0.6244  1.4035
  305MOL0     H41153   2.217  12.490   9.742 -1.8481 -1.4231  1.5258
  305MOL0     H41154   2.160  12.596   9.608 -0.3200 -0.5534 -1.0697
  305MOL0     H41155   1.992  11.572   9.186 -0.3769 -1.4274 -1.2297
  305MOL0     H41156   1.779  11.485   9.090  3.7175 -0.6693 -3.1831
  305MOL0     H41157   1.600  11.453   8.642  0.0896  0.4587  1.2903
  305MOL0     H41158   1.387  11.389   8.503  3.7813  2.4966 -1.6011
  305MOL0     H41159   1.235  10.163   7.853 -2.3567  2.2812  2.9933
  305MOL0     H41160   1.420   9.975   7.833 -0.2016 -0.5454  1.0583
  305MOL0     H41161   1.698   9.693   8.071 -2.4404 -0.4405  0.8235
  305MOL0     H41162   1.885   9.579   8.036 -2.3135  0.5761  1.0406
  305MOL0     H41163   2.120   9.468   7.886  0.9335  2.8697 -0.2569
  305MOL0     H41164   2.028   9.545   7.762 -3.1492 -0.7409  0.6841
  305MOL0     H41165   2.124   9.268   7.730  0.4095 -0.8926  2.8290
  305MOL0     H41166   2.216   9.425   7.712 -1.8447  2.1586  0.4240
  305MOL0     H41167   2.046   9.507   7.536 -2.6766  0.9303  2.4391
  305MOL0     H41168   1.957   9.347   7.555 -0.6822 -0.4367  2.8608
  305MOL0     H41169   2.209   9.408   7.390  2.9472 -5.6149 -4.7911
  305MOL0     H41170   2.210   9.260   7.479  1.1923 -0.2520 -0.7429
  305MOL0     H41171   1.934   9.250   7.157 -0.6811  2.3765 -0.0430
  305MOL0     H41172   1.698   9.381   7.693  2.5338 -0.2151  0.2657
  305MOL0     H41173   1.447   9.392   7.679 -0.3168 -0.2408  0.3238
  305MOL0     H41174   1.370   9.462   7.814  0.9299 -0.4946  1.8190
  305MOL0     H41175   1.434   9.569   7.673 -0.0354 -0.3569  0.0342
  306MOL0     O41176   4.191   4.646   5.299  0.1949 -0.4942  0.1495
  306MOL0     C41177   4.226   4.541   5.348 -0.2596  0.2564  0.1112
  306MOL0     O41178   4.342   4.528   5.409 -0.2511  0.2481 -0.0974
  306MOL0     C41179   4.415   4.639   5.424 -0.0676  0.2589 -0.9436
  306MOL0     C41180   4.365   4.758   5.474  0.4207  0.4739 -0.9088
  306MOL0     C41181   4.445   4.870   5.494  0.3718  0.5721 -1.0800
  306MOL0     C41182   4.580   4.864   5.469  0.4556 -0.0297 -0.1399
  306MOL0     O41183   4.666   4.975   5.493  0.6788  0.6382 -0.1985
  306MOL0     C41184   4.636   5.082   5.409 -0.4331  0.0233  0.0113
  306MOL0     C41185   4.757   5.103   5.315  0.0034  0.1494  0.0702
  306MOL0     C41186   4.762   4.993   5.207 -0.5255  0.1412  0.5060
  306MOL0     C41187   4.857   5.036   5.087  0.2592 -0.5278  1.0694
  306MOL0     C41188   4.863   4.940   4.968 -0.8461  1.4159  0.4907
  306MOL0     C41189   4.925   5.012   4.847  0.0287  0.1118  0.3543
  306MOL0     C41190   4.945   4.935   4.720  0.5146  0.9457  0.5804
  306MOL0     C41191   5.062   4.986   4.636 -0.7412  0.5464 -0.1055
  306MOL0     N41192   5.041   4.956   4.493  0.7221 -0.3609  0.4904
  306MOL0     C41193   5.075   4.841   4.436  0.3516 -0.4930  0.4473
  306MOL0     C41194   5.079   4.867   4.300  0.3607  0.4218 -0.2370
  306MOL0     C41195   5.125   4.782   4.178 -0.1615 -0.4418  0.8173
  306MOL0     C41196   5.014   4.700   4.093  0.1165  0.7626 -0.9526
  306MOL0     C41197   4.920   4.607   4.180 -0.1266 -0.2501 -1.3074
  306MOL0     C41198   4.974   4.468   4.196 -0.1986  0.8624 -0.3483
  306MOL0     O41199   4.866   4.380   4.233  0.1909 -0.5107 -0.6496
  306MOL0     C41200   4.898   4.261   4.304 -0.0942  0.1472  0.9347
  306MOL0     C41201   4.790   4.173   4.324  0.8772  1.0588  0.3952
  306MOL0     C41202   4.810   4.046   4.378 -0.2187 -0.7233 -0.6406
  306MOL0     C41203   4.934   4.001   4.423  0.0692  0.0993 -0.6309
  306MOL0     C41204   4.950   3.870   4.495  0.2526 -0.1276 -0.3723
  306MOL0     O41205   5.086   3.832   4.519  0.3477 -1.2695  0.3277
  306MOL0     C41206   5.123   3.712   4.587 -0.2435 -0.6998  0.3674
  306MOL0     C41207   5.256   3.697   4.619 -0.0322 -0.6488  0.5743
  306MOL0     C41208   5.320   3.589   4.670  0.5267  0.8349 -0.7026
  306MOL0     C41209   5.237   3.475   4.688 -0.4181  0.1898  0.1533
  306MOL0     O41210   5.276   3.362   4.755 -1.3074  0.4425 -0.0398
  306MOL0     C41211   5.417   3.322   4.739 -0.1348 -0.1861  0.4039
  306MOL0     C41212   5.487   3.325   4.877  0.8866 -0.1395 -0.1195
  306MOL0     C41213   5.639   3.300   4.881  0.1899  0.7469  0.6373
  306MOL0     C41214   5.677   3.166   4.819 -0.7625  0.2220 -0.2293
  306MOL0     C41215   5.832   3.128   4.850  0.5810  0.0852  0.0138
  306MOL0     C41216   5.937   3.212   4.763  0.6797 -0.5334 -0.5119
  306MOL0     C41217   6.038   3.280   4.853 -0.8750 -0.3532  0.4198
  306MOL0     C41218   5.982   3.409   4.904  0.4966  0.6263  0.1142
  306MOL0    Cl41219   6.116   3.518   4.977  0.5208  0.2464 -0.3133
  306MOL0     C41220   5.105   3.484   4.656  0.1596 -0.1030 -0.3512
  306MOL0     C41221   5.048   3.599   4.603 -0.0507  0.0091  0.0533
  306MOL0     O41222   4.855   3.801   4.509 -0.1572  0.1690 -0.6055
  306MOL0     C41223   5.041   4.091   4.403 -0.5734  0.0016 -0.7206
  306MOL0     C41224   5.019   4.216   4.344 -0.2555  0.1757  0.0593
  306MOL0     N41225   5.033   4.996   4.285  0.6591 -0.1468  0.6710
  306MOL0     N41226   5.014   5.049   4.399  0.6910 -0.1801  0.1041
  306MOL0     C41227   4.638   4.743   5.418  0.4705 -0.5415  0.3665
  306MOL0     C41228   4.552   4.635   5.397  0.1328  0.3354  1.0369
  306MOL0     C41229   4.144   4.427   5.333  0.0127  0.5894 -0.0733
  306MOL0     C41230   4.074   4.416   5.216 -1.2857 -1.0048  0.2321
  306MOL0     C41231   3.995   4.311   5.193  0.5676 -0.5519  0.1011
  306MOL0     C41232   3.981   4.205   5.284  0.4624 -0.6035  0.7185
  306MOL0     O41233   3.921   4.085   5.265  0.1462 -0.3817  0.2666
  306MOL0     C41234   3.806   4.085   5.179 -0.0522  1.1006  0.2196
  306MOL0     C41235   3.747   3.949   5.181 -0.1493  0.4550  0.2137
  306MOL0     C41236   3.809   3.860   5.071 -0.9036  0.4968  0.6679
  306MOL0     C41237   3.746   3.889   4.929 -0.3112  0.1170 -0.1634
  306MOL0     C41238   3.812   3.804   4.825  0.0998 -0.2175 -0.2731
  306MOL0     C41239   3.882   3.752   4.740 -0.5636  0.2975  0.0069
  306MOL0     C41240   4.047   4.226   5.408  0.3055  0.0081 -0.8462
  306MOL0     C41241   4.126   4.337   5.437 -0.8889  0.0476 -0.1908
  306MOL0     C41242   4.195   4.350   5.569  0.7805 -0.2158 -0.6268
  306MOL0     H41243   4.261   4.765   5.504  1.1521  3.1503  1.4006
  306MOL0     H41244   4.391   4.959   5.525  0.7803 -0.0401  1.6978
  306MOL0     H41245   4.548   5.068   5.345 -1.0338 -2.4982  1.2348
  306MOL0     H41246   4.623   5.168   5.474  0.0858  0.4040 -0.3809
  306MOL0     H41247   4.853   5.098   5.368 -1.8108 -0.9515  3.5884
  306MOL0     H41248   4.734   5.192   5.257 -0.2111 -0.3981 -0.7028
  306MOL0     H41249   4.661   4.976   5.167  0.3369 -1.8858 -0.9788
  306MOL0     H41250   4.801   4.898   5.244  0.5027 -0.0865 -1.0866
  306MOL0     H41251   4.826   5.130   5.042  2.7698 -0.7626 -1.4257
  306MOL0     H41252   4.956   5.046   5.132  2.3199 -2.7397 -2.4410
  306MOL0     H41253   4.924   4.856   5.002 -2.6359 -0.2821 -0.3502
  306MOL0     H41254   4.765   4.909   4.931  1.2243 -1.3180 -3.3336
  306MOL0     H41255   4.858   5.096   4.828 -3.2990 -2.1128  1.2717
  306MOL0     H41256   5.019   5.056   4.883 -0.4311  0.3562  1.3017
  306MOL0     H41257   4.853   4.939   4.662  1.8304 -1.9363 -1.9816
  306MOL0     H41258   4.964   4.832   4.751 -1.4453  0.4466  0.2330
  306MOL0     H41259   5.081   5.092   4.651  3.3835 -0.0326 -0.0519
  306MOL0     H41260   5.145   4.932   4.683 -1.8942  0.1273  1.5511
  306MOL0     H41261   5.129   4.759   4.482 -0.0372 -2.5143 -2.4008
  306MOL0     H41262   5.190   4.841   4.112 -0.6761  0.4406  1.0719
  306MOL0     H41263   5.191   4.707   4.223  2.6772  1.1143 -0.5120
  306MOL0     H41264   4.952   4.775   4.043 -1.1389 -1.3759 -2.7518
  306MOL0     H41265   5.057   4.642   4.011  2.6861  1.5161 -0.2608
  306MOL0     H41266   4.829   4.599   4.120 -1.7112  1.0515  0.7537
  306MOL0     H41267   4.900   4.653   4.277 -0.6086  0.9340 -1.9444
  306MOL0     H41268   5.048   4.465   4.277 -2.4516  0.3569  1.8031
  306MOL0     H41269   5.013   4.432   4.100 -1.0777 -0.2388 -0.3135
  306MOL0     H41270   4.697   4.206   4.280 -0.8233  0.2159  3.1090
  306MOL0     H41271   4.731   3.972   4.379 -0.8758 -0.0965  2.3660
  306MOL0     H41272   5.307   3.791   4.601 -0.5249 -0.7094 -1.2655
  306MOL0     H41273   5.423   3.590   4.703 -0.9649 -0.3999  5.2101
  306MOL0     H41274   5.410   3.222   4.694 -2.9774 -0.2122  0.7026
  306MOL0     H41275   5.470   3.376   4.660 -0.2351  0.9540  1.1039
  306MOL0     H41276   5.476   3.428   4.914  2.4882 -0.3972  1.1543
  306MOL0     H41277   5.455   3.246   4.945  0.0303  0.2473 -0.0510
  306MOL0     H41278   5.687   3.386   4.833  1.1010  1.7631  3.2206
  306MOL0     H41279   5.672   3.288   4.984 -2.0833 -3.5138  1.0766
  306MOL0     H41280   5.640   3.157   4.717 -3.2136  0.4220  0.5744
  306MOL0     H41281   5.622   3.090   4.876  1.4734  0.1344  1.9880
  306MOL0     H41282   5.850   3.020   4.844 -1.7549 -0.3551  0.0947
  306MOL0     H41283   5.845   3.151   4.956 -0.7810  2.3516 -0.2457
  306MOL0     H41284   5.967   3.137   4.689  1.3305 -0.5946 -0.1883
  306MOL0     H41285   5.880   3.288   4.708  1.0204  0.8483  0.9519
  306MOL0     H41286   6.127   3.306   4.795 -0.4189  2.3275  2.1183
  306MOL0     H41287   6.075   3.218   4.935  0.8484 -2.4556 -1.8252
  306MOL0     H41288   5.935   3.454   4.816 -1.1388 -4.3058 -1.9321
  306MOL0     H41289   5.902   3.391   4.976  0.0767 -0.1308 -0.5221
  306MOL0     H41290   5.051   3.390   4.662  0.3378 -0.1060  3.0189
  306MOL0     H41291   4.951   3.585   4.557  0.1728 -2.0824  0.0983
  306MOL0     H41292   5.143   4.068   4.433 -1.2773 -1.4739  0.7007
  306MOL0     H41293   5.106   4.280   4.354 -2.3343  2.8916  2.3401
  306MOL0     H41294   4.744   4.725   5.406  0.0428 -2.8272 -0.6351
  306MOL0     H41295   4.595   4.536   5.388 -0.0503  0.4055 -1.1187
  306MOL0     H41296   4.080   4.494   5.141  1.6893 -0.1887  1.1842
  306MOL0     H41297   3.948   4.317   5.095  3.5710 -2.4233 -1.6130
  306MOL0     H41298   3.833   4.105   5.075  0.7117 -0.9782 -0.0281
  306MOL0     H41299   3.732   4.152   5.223 -1.0727 -0.1626  0.4834
  306MOL0     H41300   3.639   3.969   5.176 -0.5766 -1.8521 -1.3774
  306MOL0     H41301   3.778   3.893   5.270 -0.4482 -2.2612 -1.2643
  306MOL0     H41302   3.790   3.756   5.102 -1.9798  1.5545  3.9197
  306MOL0     H41303   3.918   3.870   5.072 -0.6443 -1.3071 -1.6229
  306MOL0     H41304   3.642   3.859   4.944  0.7390 -2.9819  1.6594
  306MOL0     H41305   3.742   3.995   4.901 -3.5938 -0.5520 -3.0641
  306MOL0     H41306   3.950   3.713   4.667  1.6493  0.6057  1.7739
  306MOL0     H41307   4.041   4.143   5.477 -1.0359 -1.2850 -2.4483
  306MOL0     H41308   4.217   4.455   5.588  0.9880 -0.2033 -0.9276
  306MOL0     H41309   4.128   4.311   5.646  2.0321  0.3723  0.7956
  306MOL0     H41310   4.290   4.298   5.578  1.2873  1.0367  2.4652
  307MOL0     O41311   6.697   3.202   1.334  0.4657  0.7116  0.4346
  307MOL0     C41312   6.614   3.232   1.252 -0.6956 -0.2482 -0.4831
  307MOL0     O41313   6.632   3.286   1.133 -0.9289 -0.3318  0.7042
  307MOL0     C41314   6.764   3.319   1.092 -0.2678 -0.3669  0.4778
  307MOL0     C41315   6.852   3.386   1.178  0.0502 -0.0341  1.5867
  307MOL0     C41316   6.979   3.419   1.143  0.1070 -0.3081  0.8486
  307MOL0     C41317   7.018   3.396   1.009 -0.0961  0.1363  0.3417
  307MOL0     O41318   7.146   3.424   0.970  0.0075  0.2343  0.1276
  307MOL0     C41319   7.166   3.557   0.932 -0.4632 -0.1740 -0.1378
  307MOL0     C41320   7.287   3.563   0.836  0.0317  0.7117  0.0875
  307MOL0     C41321   7.427   3.525   0.886  0.0611  0.1152  0.2401
  307MOL0     C41322   7.522   3.584   0.791  0.9730  0.3399  0.4042
  307MOL0     C41323   7.656   3.514   0.798 -0.1618 -0.7477 -0.0594
  307MOL0     C41324   7.667   3.383   0.720  1.0039  0.4023 -0.1696
  307MOL0     C41325   7.805   3.324   0.712  0.3224 -0.3382 -0.0214
  307MOL0     C41326   7.904   3.399   0.623  0.7438 -0.4453 -0.1660
  307MOL0     N41327   7.902   3.343   0.485 -0.7129 -0.3317  0.2076
  307MOL0     C41328   7.998   3.251   0.442  0.1813  0.8248 -0.5832
  307MOL0     C41329   7.981   3.256   0.313 -0.4187 -0.9048  0.3308
  307MOL0     C41330   8.060   3.191   0.208 -0.1159 -0.0037  0.5818
  307MOL0     C41331   7.970   3.099   0.120 -0.1630  0.6974 -0.1815
  307MOL0     C41332   8.075   3.014   0.046 -0.0460 -0.2780 -0.2530
  307MOL0     C41333   8.010   2.893  -0.036  0.4641 -0.2033 -0.1579
  307MOL0     O41334   8.109   2.797  -0.070 -0.3491  0.0439  0.1570
  307MOL0     C41335   8.057   2.678  -0.111 -0.9884 -0.2542  0.1537
  307MOL0     C41336   8.152   2.585  -0.130 -0.1346 -0.1303 -0.2370
  307MOL0     C41337   8.132   2.464  -0.185 -0.7841 -0.6389 -0.1450
  307MOL0     C41338   8.006   2.426  -0.229  0.1087 -0.5164  0.5746
  307MOL0     C41339   7.988   2.294  -0.295 -0.4836  0.0811  0.4195
  307MOL0     O41340   7.880   2.269  -0.365  0.5892  0.1461 -0.0055
  307MOL0     C41341   7.840   2.140  -0.387  0.2209 -0.8479  0.7221
  307MOL0     C41342   7.778   2.065  -0.290  0.3105  0.0901 -0.9072
  307MOL0     C41343   7.728   1.941  -0.322 -0.6070  0.1465 -0.2879
  307MOL0     C41344   7.743   1.878  -0.450  0.0871 -0.6649  0.5071
  307MOL0     O41345   7.714   1.756  -0.497  0.7830  0.7359  0.0031
  307MOL0     C41346   7.633   1.672  -0.412  0.3292  0.6396  0.6437
  307MOL0     C41347   7.722   1.600  -0.305  0.7274  0.0637 -0.4995
  307MOL0     C41348   7.836   1.529  -0.365 -0.2131 -0.5980 -1.2065
  307MOL0     C41349   7.876   1.403  -0.284 -0.7408 -0.3505  0.1734
  307MOL0     C41350   7.786   1.285  -0.313 -0.6341  0.1826  0.4158
  307MOL0     C41351   7.811   1.169  -0.210 -0.0439  0.1632  0.9364
  307MOL0     C41352   7.720   1.044  -0.208 -0.9590  0.1373  0.0651
  307MOL0     C41353   7.806   0.910  -0.207  0.2133 -0.3372  0.1367
  307MOL0    Cl41354   7.883   0.875  -0.049  0.1280  0.3577  0.4734
  307MOL0     C41355   7.805   1.959  -0.555 -0.3218  0.9482  0.1959
  307MOL0     C41356   7.857   2.087  -0.514  0.4364 -1.1198 -0.5057
  307MOL0     O41357   8.075   2.210  -0.277 -0.4592  0.4604 -0.1621
  307MOL0     C41358   7.904   2.525  -0.221 -0.2898  0.1954  0.5379
  307MOL0     C41359   7.927   2.649  -0.155 -0.1613 -0.1151  0.3140
  307MOL0     N41360   7.872   3.340   0.281 -0.0624  0.1392  0.0766
  307MOL0     N41361   7.820   3.387   0.384 -0.9298 -0.2339 -0.9089
  307MOL0     C41362   6.918   3.343   0.916  0.1676  0.1606  0.2371
  307MOL0     C41363   6.794   3.309   0.960  0.5835 -0.6074 -0.3248
  307MOL0     C41364   6.473   3.204   1.277 -0.9997  0.4243 -0.4377
  307MOL0     C41365   6.371   3.296   1.244 -0.6547 -0.0149  0.7259
  307MOL0     C41366   6.239   3.284   1.277 -0.0104  0.5955  0.6006
  307MOL0     C41367   6.192   3.179   1.354  1.0681  0.9341  0.0016
  307MOL0     O41368   6.061   3.141   1.389  0.4093  0.4090 -0.2078
  307MOL0     C41369   5.948   3.241   1.367  0.0027 -0.3609 -0.4615
  307MOL0     C41370   5.950   3.343   1.474 -0.1495  0.3155 -0.2096
  307MOL0     C41371   5.829   3.431   1.488 -0.2764 -0.0882 -0.0448
  307MOL0     C41372   5.786   3.516   1.364  0.3133 -0.3709 -0.3886
  307MOL0     C41373   5.675   3.596   1.399  0.4562 -0.1420 -0.9591
  307MOL0     C41374   5.584   3.679   1.404  0.2897 -0.2003 -0.0013
  307MOL0     C41375   6.290   3.084   1.397 -0.3454  0.2882  0.1739
  307MOL0     C41376   6.431   3.094   1.356 -1.0633 -0.5433 -0.6882
  307MOL0     C41377   6.525   2.987   1.386  0.2442  0.6460 -0.7182
  307MOL0     H41378   6.829   3.401   1.283  0.4400  1.3209  1.4959
  307MOL0     H41379   7.029   3.475   1.221  0.7076  1.8819 -1.0156
  307MOL0     H41380   7.082   3.608   0.883 -1.0759 -1.5556 -0.5592
  307MOL0     H41381   7.196   3.610   1.023  2.7157 -0.2192 -1.0320
  307MOL0     H41382   7.285   3.673   0.828 -0.6440  0.6054 -1.7125
  307MOL0     H41383   7.267   3.502   0.748  2.9166  0.2117 -0.3300
  307MOL0     H41384   7.437   3.416   0.890 -0.0062  0.0941 -0.1608
  307MOL0     H41385   7.438   3.562   0.988  0.4497  2.1690 -0.5042
  307MOL0     H41386   7.488   3.569   0.688 -0.9855  3.6562  0.4231
  307MOL0     H41387   7.535   3.690   0.811  4.4689 -0.3279  2.4267
  307MOL0     H41388   7.723   3.585   0.749  2.2530 -1.1463  2.3723
  307MOL0     H41389   7.695   3.501   0.900 -0.4305 -1.7950 -0.0713
  307MOL0     H41390   7.597   3.320   0.776  0.6429  0.6616 -0.3229
  307MOL0     H41391   7.629   3.388   0.617  0.5963 -1.1603 -0.1181
  307MOL0     H41392   7.806   3.216   0.693 -0.5249 -0.7930  2.2608
  307MOL0     H41393   7.829   3.328   0.818  1.9036  0.8547 -0.3883
  307MOL0     H41394   7.891   3.506   0.642  2.8626 -0.7290  3.9754
  307MOL0     H41395   8.001   3.384   0.672 -0.1553 -0.6092  1.6673
  307MOL0     H41396   8.076   3.196   0.494 -0.6570 -0.4368 -0.6060
  307MOL0     H41397   8.094   3.270   0.141  0.4365  0.9746  1.9825
  307MOL0     H41398   8.139   3.135   0.258 -2.2141 -1.7355  2.1859
  307MOL0     H41399   7.912   3.032   0.183 -1.2492  1.5948 -0.1980
  307MOL0     H41400   7.902   3.138   0.044 -0.9036 -4.2149 -2.4205
  307MOL0     H41401   8.147   2.977   0.120 -0.5961  2.1676  1.6134
  307MOL0     H41402   8.126   3.088  -0.017 -0.1232  0.2914  0.3405
  307MOL0     H41403   7.958   2.927  -0.126 -1.0837 -0.3198  0.6589
  307MOL0     H41404   7.932   2.851   0.028 -1.2980 -1.1755 -2.7955
  307MOL0     H41405   8.253   2.606  -0.097  0.4549 -0.8765 -1.5200
  307MOL0     H41406   8.221   2.404  -0.203 -0.0170  0.8945 -1.8857
  307MOL0     H41407   7.765   2.117  -0.196 -1.6594 -1.8474 -0.0187
  307MOL0     H41408   7.665   1.891  -0.249  1.8419 -0.6547  1.4036
  307MOL0     H41409   7.567   1.745  -0.363  0.7151  0.6494  1.1583
  307MOL0     H41410   7.573   1.601  -0.470  1.9511 -0.5950  0.4235
  307MOL0     H41411   7.762   1.663  -0.225 -0.2252 -2.5063  2.1261
  307MOL0     H41412   7.652   1.534  -0.253 -1.5497  0.5356 -2.7363
  307MOL0     H41413   7.806   1.503  -0.467 -0.5910 -0.0015 -1.2532
  307MOL0     H41414   7.924   1.593  -0.372 -0.2975 -0.1901  0.8387
  307MOL0     H41415   7.870   1.425  -0.177  1.3170 -2.0944  0.7180
  307MOL0     H41416   7.978   1.380  -0.317 -0.9457 -1.1103  0.0446
  307MOL0     H41417   7.803   1.253  -0.416 -1.2842 -1.8042  0.8803
  307MOL0     H41418   7.686   1.329  -0.310 -0.5507  0.3539  0.6844
  307MOL0     H41419   7.913   1.135  -0.231  0.5957  1.9023  1.0666
  307MOL0     H41420   7.800   1.208  -0.108  0.1401 -0.8461  1.3534
  307MOL0     H41421   7.660   1.046  -0.299 -0.3684  1.1074 -0.3071
  307MOL0     H41422   7.656   1.035  -0.119 -0.6065  2.2683  0.5848
  307MOL0     H41423   7.746   0.824  -0.236  2.8576 -2.0648 -0.6362
  307MOL0     H41424   7.888   0.908  -0.280  0.8579 -1.1392  0.8502
  307MOL0     H41425   7.828   1.911  -0.649 -0.8824 -1.6780  1.3075
  307MOL0     H41426   7.913   2.146  -0.586  0.1485  1.9185  1.5706
  307MOL0     H41427   7.811   2.505  -0.273 -0.2856  3.0591 -0.7567
  307MOL0     H41428   7.856   2.730  -0.148 -1.9024 -1.3351 -1.8459
  307MOL0     H41429   6.955   3.328   0.815 -2.6138  0.5141 -0.9360
  307MOL0     H41430   6.720   3.264   0.895  0.8515 -0.3755 -0.7961
  307MOL0     H41431   6.400   3.385   1.189 -0.1048 -1.8671 -2.2006
  307MOL0     H41432   6.169   3.362   1.248  0.7924  0.5410 -1.6205
  307MOL0     H41433   5.849   3.194   1.364  0.8733 -2.2688 -0.8363
  307MOL0     H41434   5.948   3.288   1.269  3.4686 -0.6146 -0.7081
  307MOL0     H41435   6.034   3.409   1.450  0.7894 -0.4735  0.7876
  307MOL0     H41436   5.969   3.283   1.563  2.5011  0.4722 -0.5804
  307MOL0     H41437   5.861   3.498   1.568 -1.1907  1.0463 -0.6041
  307MOL0     H41438   5.746   3.362   1.507  1.8972 -2.3490  1.8350
  307MOL0     H41439   5.877   3.570   1.336 -0.0567  3.0859  3.9467
  307MOL0     H41440   5.759   3.453   1.279 -0.6072 -0.5871  0.0431
  307MOL0     H41441   5.497   3.741   1.402  1.8728  2.2903  1.8951
  307MOL0     H41442   6.254   2.998   1.452 -0.1825  1.0220  1.4575
  307MOL0     H41443   6.588   3.001   1.474  0.0228 -0.3222 -0.3984
  307MOL0     H41444   6.461   2.900   1.403  0.4213  0.7118  0.3184
  307MOL0     H41445   6.594   2.965   1.304  0.9420 -3.9294  0.8115
  308MOL0     O41446   8.327  11.118   8.669  0.5683  0.1301 -0.0423
  308MOL0     C41447   8.363  11.197   8.758  0.2915 -0.5983  0.0022
  308MOL0     O41448   8.273  11.251   8.844  0.1505 -0.2373  1.4141
  308MOL0     C41449   8.140  11.247   8.804  0.8531  0.7657 -0.1457
  308MOL0     C41450   8.117  11.307   8.679  0.2669 -0.1843  0.4210
  308MOL0     C41451   7.987  11.310   8.622  0.3475  0.0730  0.4390
  308MOL0     C41452   7.881  11.249   8.690  1.1470 -0.1179  0.0528
  308MOL0     O41453   7.753  11.228   8.636 -0.1164 -0.5461  0.1206
  308MOL0     C41454   7.754  11.185   8.501  0.3746 -0.1703 -0.1205
  308MOL0     C41455   7.614  11.161   8.477  1.2654  0.5795  0.8413
  308MOL0     C41456   7.549  11.049   8.546  0.6580  0.5518 -0.3729
  308MOL0     C41457   7.635  10.932   8.557 -0.5238  0.5568 -0.2352
  308MOL0     C41458   7.554  10.805   8.613 -0.5188 -1.2105  0.3210
  308MOL0     C41459   7.636  10.687   8.606 -0.1215  0.6341  0.2492
  308MOL0     C41460   7.563  10.572   8.684  0.3147 -0.1007  0.2910
  308MOL0     C41461   7.446  10.509   8.616 -0.2838 -0.2900  0.7499
  308MOL0     N41462   7.500  10.433   8.501 -0.1275 -0.5834  0.7039
  308MOL0     C41463   7.523  10.482   8.377 -0.0667 -1.0036  1.0173
  308MOL0     C41464   7.604  10.385   8.317  0.4369  0.2821 -1.9716
  308MOL0     C41465   7.681  10.377   8.196  0.3530  0.6161 -0.1361
  308MOL0     C41466   7.610  10.453   8.081 -1.0859 -0.1201 -0.2827
  308MOL0     C41467   7.638  10.409   7.940  0.2722  0.0000  0.5452
  308MOL0     C41468   7.777  10.436   7.887 -0.7776  0.3167  0.0004
  308MOL0     O41469   7.820  10.573   7.904 -1.0382  0.2944 -0.7754
  308MOL0     C41470   7.929  10.618   7.825  0.0552 -0.1270  0.5432
  308MOL0     C41471   7.949  10.597   7.688 -0.2428 -0.7567 -0.0423
  308MOL0     C41472   8.070  10.629   7.630  0.5471 -0.1915 -0.7047
  308MOL0     C41473   8.175  10.685   7.704  0.3512  0.5361 -0.3676
  308MOL0     C41474   8.300  10.726   7.636 -0.3420  0.0139  0.3646
  308MOL0     O41475   8.402  10.765   7.712 -0.2814  0.1769 -0.4503
  308MOL0     C41476   8.513  10.823   7.659 -0.2889 -0.3337  1.0185
  308MOL0     C41477   8.501  10.925   7.562  0.4527 -0.1518 -0.2389
  308MOL0     C41478   8.618  10.986   7.511  0.0015 -0.5879  0.2161
  308MOL0     C41479   8.741  10.958   7.566  0.4936 -0.0685  0.5257
  308MOL0     O41480   8.851  11.016   7.514 -0.7830  0.2835 -0.5273
  308MOL0     C41481   8.964  11.043   7.590  0.8716 -0.0671 -0.3166
  308MOL0     C41482   9.049  11.140   7.503 -0.0314  0.6549  0.2159
  308MOL0     C41483   9.167  11.175   7.584  0.1642  0.5566  0.0038
  308MOL0     C41484   9.263  11.259   7.510  0.3392 -0.7166 -0.9266
  308MOL0     C41485   9.388  11.282   7.600 -0.1135 -0.3963 -0.5587
  308MOL0     C41486   9.484  11.381   7.555 -0.3310 -0.3803  0.1620
  308MOL0     C41487   9.587  11.309   7.467  0.0864 -0.9607  0.1115
  308MOL0     C41488   9.681  11.203   7.527 -1.1383 -0.0732 -0.5181
  308MOL0    Cl41489   9.778  11.120   7.388 -0.1110 -0.0047 -0.2101
  308MOL0     C41490   8.754  10.870   7.674  0.9467 -0.4290  0.0788
  308MOL0     C41491   8.647  10.798   7.713 -0.0442  0.5231 -0.3338
  308MOL0     O41492   8.295  10.737   7.515 -0.6414  0.3544  0.1746
  308MOL0     C41493   8.142  10.712   7.841 -0.8432 -0.6694 -0.2243
  308MOL0     C41494   8.021  10.691   7.894 -0.6539  0.8278 -0.3951
  308MOL0     N41495   7.636  10.296   8.414  0.4718 -0.4080 -0.1514
  308MOL0     N41496   7.562  10.316   8.514 -0.4207  0.1941 -0.1448
  308MOL0     C41497   7.904  11.204   8.820  0.2073 -0.1344 -0.0315
  308MOL0     C41498   8.032  11.193   8.883  0.1167 -0.1732  1.0309
  308MOL0     C41499   8.506  11.234   8.782 -0.2156  0.9308  1.0939
  308MOL0     C41500   8.602  11.167   8.704 -0.4748 -0.2912  0.0780
  308MOL0     C41501   8.730  11.224   8.696  0.1583 -0.1892 -0.3918
  308MOL0     C41502   8.773  11.334   8.778 -0.7456  0.6492  0.5719
  308MOL0     O41503   8.907  11.359   8.782  0.5128  0.5303 -0.8061
  308MOL0     C41504   8.975  11.264   8.863  0.0292  1.1055 -0.0857
  308MOL0     C41505   9.048  11.155   8.785 -0.3033 -0.3555 -0.7964
  308MOL0     C41506   9.111  11.212   8.652 -0.2047  0.1317  0.1750
  308MOL0     C41507   9.189  11.106   8.569  0.6537 -0.7831 -0.2876
  308MOL0     C41508   9.312  11.085   8.636  0.4363  0.1091  0.4649
  308MOL0     C41509   9.417  11.059   8.681  0.2114  0.4463 -0.3081
  308MOL0     C41510   8.697  11.376   8.876 -0.2898  0.2307 -0.2540
  308MOL0     C41511   8.564  11.329   8.880  0.5872  0.2896 -0.1185
  308MOL0     C41512   8.496  11.369   9.010  0.1374 -0.5071 -0.2983
  308MOL0     H41513   8.187  11.369   8.623 -0.5086  1.6939  1.4105
  308MOL0     H41514   7.965  11.341   8.521 -0.7538 -1.7274  0.0838
  308MOL0     H41515   7.784  11.275   8.446 -3.0984  2.1742  1.3991
  308MOL0     H41516   7.819  11.099   8.483 -1.0567 -0.8083 -2.8122
  308MOL0     H41517   7.603  11.132   8.372 -2.9780 -1.0425  1.5232
  308MOL0     H41518   7.555  11.252   8.491 -0.0047  0.2975 -2.0827
  308MOL0     H41519   7.461  11.022   8.487  1.2623  3.4159 -2.8370
  308MOL0     H41520   7.496  11.079   8.637 -3.1340  1.1327 -2.5746
  308MOL0     H41521   7.672  10.907   8.457  0.7396  0.9285  0.1236
  308MOL0     H41522   7.717  10.959   8.623  2.3804  2.4915 -4.2179
  308MOL0     H41523   7.515  10.824   8.713  0.5044  1.8237  0.2138
  308MOL0     H41524   7.474  10.782   8.542 -0.1337  1.1711 -0.9844
  308MOL0     H41525   7.654  10.653   8.503 -2.2765 -1.7279  0.5375
  308MOL0     H41526   7.729  10.718   8.655 -2.0903  1.9482  3.4158
  308MOL0     H41527   7.522  10.628   8.768 -0.0290  1.4165 -0.8357
  308MOL0     H41528   7.638  10.502   8.721  1.0003  1.1419  1.3686
  308MOL0     H41529   7.399  10.441   8.688 -2.8053  1.4384  0.8379
  308MOL0     H41530   7.372  10.584   8.585 -0.7091  0.8847  4.1763
  308MOL0     H41531   7.483  10.569   8.325 -1.1933 -2.0735  0.0154
  308MOL0     H41532   7.784  10.409   8.209  0.3159  0.0196  1.8219
  308MOL0     H41533   7.673  10.277   8.152  0.8687  0.2228  0.6482
  308MOL0     H41534   7.502  10.441   8.095 -1.2161 -0.2063 -1.3026
  308MOL0     H41535   7.648  10.556   8.088  0.4700 -0.6480 -0.6279
  308MOL0     H41536   7.569  10.476   7.889 -0.5407 -0.2132  1.3472
  308MOL0     H41537   7.610  10.304   7.926 -0.8943  0.0102  2.4250
  308MOL0     H41538   7.787  10.408   7.781  1.4586  0.8184  0.0222
  308MOL0     H41539   7.846  10.375   7.946  0.6182  0.7260 -1.1521
  308MOL0     H41540   7.863  10.562   7.633 -1.4118  3.1646 -1.0496
  308MOL0     H41541   8.072  10.593   7.528 -1.8583 -2.1251 -0.1671
  308MOL0     H41542   8.407  10.954   7.516  0.2932  0.6720  0.5817
  308MOL0     H41543   8.613  11.074   7.446 -0.4918 -1.9763 -1.7282
  308MOL0     H41544   8.943  11.104   7.679  0.1270  1.6311 -1.5812
  308MOL0     H41545   9.025  10.956   7.614 -0.0317 -1.8291 -3.8330
  308MOL0     H41546   9.068  11.071   7.420 -5.1228 -0.8762 -0.0136
  308MOL0     H41547   9.001  11.230   7.465 -2.6335 -0.5068  0.5053
  308MOL0     H41548   9.136  11.228   7.675  2.5286  1.5266  0.2983
  308MOL0     H41549   9.233  11.094   7.617  2.5370  2.5761  0.4765
  308MOL0     H41550   9.217  11.356   7.489  0.9617 -0.3015 -0.3974
  308MOL0     H41551   9.292  11.212   7.416 -0.3240  2.2120 -2.7397
  308MOL0     H41552   9.444  11.191   7.620  0.9508  0.8038  2.7710
  308MOL0     H41553   9.347  11.318   7.695  0.9676 -0.5218 -0.0328
  308MOL0     H41554   9.436  11.465   7.505  1.1507 -0.0490 -0.7905
  308MOL0     H41555   9.534  11.418   7.646  0.5343  0.5393 -0.6672
  308MOL0     H41556   9.657  11.385   7.431 -1.2924  0.2610 -0.0391
  308MOL0     H41557   9.533  11.266   7.382  3.4082  0.7990 -3.1760
  308MOL0     H41558   9.750  11.256   7.594  0.3371  0.9738 -2.7637
  308MOL0     H41559   9.638  11.123   7.588  0.8070 -1.4856 -0.8947
  308MOL0     H41560   8.848  10.849   7.723  0.4359 -1.1971  0.7550
  308MOL0     H41561   8.647  10.725   7.794  1.2246 -1.2022 -1.8251
  308MOL0     H41562   8.198  10.773   7.911 -1.6519 -1.0133  0.7494
  308MOL0     H41563   8.001  10.705   8.000 -0.2279 -1.3452  0.0162
  308MOL0     H41564   7.822  11.162   8.877 -1.1899 -0.9665 -2.5146
  308MOL0     H41565   8.052  11.154   8.983 -0.4116  0.2688  1.3148
  308MOL0     H41566   8.570  11.096   8.628 -0.3069  0.2599 -0.5139
  308MOL0     H41567   8.792  11.200   8.611 -0.7717  0.3481 -1.2394
  308MOL0     H41568   8.900  11.201   8.911  0.3863 -1.7165 -2.9347
  308MOL0     H41569   9.038  11.302   8.945 -0.8423  1.6511  0.3398
  308MOL0     H41570   8.972  11.079   8.763 -1.1250  1.0072 -2.9830
  308MOL0     H41571   9.129  11.103   8.836  0.5054 -5.9340 -6.4359
  308MOL0     H41572   9.165  11.305   8.674  0.3651 -0.0107 -0.6159
  308MOL0     H41573   9.026  11.244   8.591  0.7937 -1.2976 -2.0586
  308MOL0     H41574   9.136  11.011   8.562  1.3216 -1.1980  0.1635
  308MOL0     H41575   9.204  11.143   8.467 -2.4098  1.7874  0.0201
  308MOL0     H41576   9.513  11.034   8.720  1.0557  3.0445 -0.5499
  308MOL0     H41577   8.737  11.444   8.952  1.7433 -1.4434  0.2695
  308MOL0     H41578   8.563  11.403   9.089 -1.6354  2.5424  0.0529
  308MOL0     H41579   8.433  11.455   8.986 -1.3618 -1.5957 -0.4881
  308MOL0     H41580   8.433  11.285   9.043 -1.1380  0.3690 -0.4220
  309MOL0     O41581   2.942   3.455   0.764 -0.3077 -0.5910  0.4574
  309MOL0     C41582   2.933   3.452   0.883 -0.6138  0.2235 -0.6826
  309MOL0     O41583   2.980   3.357   0.966  0.3962 -0.2039  0.7795
  309MOL0     C41584   3.065   3.251   0.937  0.3423 -0.5774  0.5816
  309MOL0     C41585   3.131   3.234   0.810 -0.6813  0.5732  0.1022
  309MOL0     C41586   3.209   3.119   0.787 -0.9349 -0.8750 -0.0708
  309MOL0     C41587   3.231   3.020   0.883  0.9203 -0.1582  0.0553
  309MOL0     O41588   3.322   2.923   0.855  0.3546 -0.4922  0.2520
  309MOL0     C41589   3.334   2.806   0.921 -0.2897 -0.7874 -0.1734
  309MOL0     C41590   3.441   2.720   0.864  0.7202 -0.4791  0.0749
  309MOL0     C41591   3.581   2.779   0.830 -0.6267  0.0404  0.3414
  309MOL0     C41592   3.669   2.814   0.950  0.5398  0.4164 -0.0883
  309MOL0     C41593   3.816   2.860   0.919  0.3638 -0.2491 -0.1671
  309MOL0     C41594   3.890   2.891   1.047 -0.5200 -0.6065  0.0018
  309MOL0     C41595   4.035   2.918   1.015  0.3917 -0.4729 -0.7173
  309MOL0     C41596   4.125   2.967   1.136  0.4110  0.3406  0.3767
  309MOL0     N41597   4.075   3.094   1.171 -0.4464 -0.3290 -0.0739
  309MOL0     C41598   4.150   3.204   1.153 -0.6798 -0.9008  0.2716
  309MOL0     C41599   4.089   3.300   1.221  0.5220 -0.6252  0.3394
  309MOL0     C41600   4.122   3.450   1.231  0.2045 -0.4547  0.2303
  309MOL0     C41601   3.999   3.533   1.184  0.0009  0.3995 -0.2028
  309MOL0     C41602   4.014   3.688   1.148 -0.0187 -0.8297  0.0881
  309MOL0     C41603   3.875   3.738   1.123  0.0339 -0.1354 -0.0516
  309MOL0     O41604   3.886   3.874   1.083 -0.1992 -0.2600 -0.0828
  309MOL0     C41605   3.769   3.933   1.035  0.1586  0.2335  0.0608
  309MOL0     C41606   3.796   4.064   0.991  0.4613  0.3171  0.1229
  309MOL0     C41607   3.681   4.136   0.933  0.1153 -0.1683 -0.2112
  309MOL0     C41608   3.556   4.078   0.929  0.2991  1.3899  0.6622
  309MOL0     C41609   3.449   4.147   0.865  0.7799 -0.4700  0.0017
  309MOL0     O41610   3.478   4.250   0.781  0.1633  0.2654  0.1737
  309MOL0     C41611   3.380   4.340   0.749  0.1722 -1.0986  0.2174
  309MOL0     C41612   3.290   4.303   0.649 -0.1530  0.4758  0.7931
  309MOL0     C41613   3.187   4.390   0.611  0.0580  0.5309 -0.9982
  309MOL0     C41614   3.165   4.514   0.661  0.1225 -0.2672 -0.7566
  309MOL0     O41615   3.068   4.596   0.611 -0.7897 -0.1271 -0.0079
  309MOL0     C41616   3.012   4.703   0.681  0.4944 -0.6061  0.1054
  309MOL0     C41617   2.870   4.731   0.639  0.2153 -0.0373  0.4991
  309MOL0     C41618   2.872   4.793   0.496  0.4741 -0.2506 -0.1625
  309MOL0     C41619   2.737   4.858   0.478  0.5882  0.3083  0.3256
  309MOL0     C41620   2.737   4.935   0.344  0.0901  0.4525 -0.4747
  309MOL0     C41621   2.797   5.074   0.355 -0.1749  0.0660  0.3675
  309MOL0     C41622   2.843   5.115   0.210  0.2283  0.3086  0.6458
  309MOL0     C41623   2.968   5.054   0.153 -0.2142  0.5106 -0.4139
  309MOL0    Cl41624   3.042   5.169   0.032  0.2841 -0.0294 -0.0547
  309MOL0     C41625   3.259   4.562   0.757  0.4778  0.4347 -0.4081
  309MOL0     C41626   3.362   4.470   0.811  0.0400  0.1392 -0.3349
  309MOL0     O41627   3.336   4.127   0.918  0.2100  0.1212 -0.2313
  309MOL0     C41628   3.535   3.948   0.964  0.4269  0.4376 -0.7033
  309MOL0     C41629   3.640   3.879   1.026  0.0830 -0.4584 -0.1149
  309MOL0     N41630   3.991   3.240   1.294  0.8835 -0.6646 -0.1951
  309MOL0     N41631   3.975   3.115   1.264 -0.1622  0.2100  0.3976
  309MOL0     C41632   3.167   3.041   1.006  1.4237 -0.2904  0.6063
  309MOL0     C41633   3.080   3.149   1.035 -0.1599 -0.5362 -0.1446
  309MOL0     C41634   2.873   3.578   0.945 -0.3129  0.6204 -0.1905
  309MOL0     C41635   2.806   3.664   0.871  0.2513  0.1870 -0.6726
  309MOL0     C41636   2.759   3.788   0.922  0.4007 -0.0695  0.8323
  309MOL0     C41637   2.768   3.821   1.060  0.2765  0.4811  0.8199
  309MOL0     O41638   2.722   3.946   1.100  0.2447 -0.0869 -0.6334
  309MOL0     C41639   2.685   3.967   1.238  0.6866 -0.2452  0.6476
  309MOL0     C41640   2.562   4.057   1.254 -0.3832 -0.1221 -0.6906
  309MOL0     C41641   2.574   4.191   1.178 -0.4308 -0.1569  0.1227
  309MOL0     C41642   2.447   4.269   1.153  0.0856  0.4930  0.7648
  309MOL0     C41643   2.341   4.197   1.087 -0.8841 -0.4012 -0.6094
  309MOL0     C41644   2.258   4.136   1.018  0.2224  0.5874 -0.0728
  309MOL0     C41645   2.823   3.722   1.141  0.2348  0.6894  0.5973
  309MOL0     C41646   2.876   3.598   1.090  0.3261  0.0526 -0.6293
  309MOL0     C41647   2.925   3.494   1.199 -0.0390 -0.6005 -0.7791
  309MOL0     H41648   3.109   3.299   0.725 -2.0818 -1.9676 -1.6200
  309MOL0     H41649   3.255   3.122   0.688 -0.4522  1.2037  0.1720
  309MOL0     H41650   3.363   2.831   1.023 -2.6447  1.3828  0.0795
  309MOL0     H41651   3.242   2.747   0.914  0.3844 -1.9316  0.4995
  309MOL0     H41652   3.402   2.700   0.763 -0.5712  2.7329 -0.1747
  309MOL0     H41653   3.457   2.629   0.922  2.9565 -0.8995 -1.0945
  309MOL0     H41654   3.575   2.863   0.760 -0.7854 -0.9069 -0.8208
  309MOL0     H41655   3.641   2.710   0.770 -1.5714  1.0354 -1.8473
  309MOL0     H41656   3.621   2.893   1.008 -0.2182 -0.0237 -0.1069
  309MOL0     H41657   3.662   2.723   1.011  0.1720  0.7554  0.3783
  309MOL0     H41658   3.869   2.779   0.868 -1.4224 -0.4539 -1.8362
  309MOL0     H41659   3.798   2.953   0.863 -1.0574 -0.2050  0.3320
  309MOL0     H41660   3.841   2.978   1.092 -1.0893 -0.8934 -0.0529
  309MOL0     H41661   3.871   2.806   1.113  0.9320  0.1887  1.5048
  309MOL0     H41662   4.046   2.974   0.922  0.6868  2.0326  0.7159
  309MOL0     H41663   4.068   2.817   0.992  1.8016  0.3429 -2.5270
  309MOL0     H41664   4.114   2.909   1.228 -1.0706 -2.5232 -1.4475
  309MOL0     H41665   4.233   2.967   1.115 -0.0685 -1.1850 -2.5987
  309MOL0     H41666   4.226   3.218   1.076  0.9886 -1.9207  1.6574
  309MOL0     H41667   4.140   3.475   1.336 -0.3601  3.8637 -0.5144
  309MOL0     H41668   4.212   3.474   1.173 -1.6205 -2.7538 -3.9978
  309MOL0     H41669   3.983   3.489   1.085  2.8932 -0.4739 -0.3606
  309MOL0     H41670   3.916   3.517   1.254  0.7869  0.9829  0.9043
  309MOL0     H41671   4.069   3.683   1.053  0.0094 -0.3363  0.0717
  309MOL0     H41672   4.068   3.740   1.228 -0.6810  0.9940 -0.5864
  309MOL0     H41673   3.810   3.732   1.211 -0.5404  1.2710 -0.3478
  309MOL0     H41674   3.812   3.683   1.053 -2.2683 -0.2939  1.9872
  309MOL0     H41675   3.897   4.102   0.988  0.8591 -0.7501 -1.9212
  309MOL0     H41676   3.699   4.232   0.886  0.1611  1.7357  3.3508
  309MOL0     H41677   3.291   4.210   0.595  0.2094  2.3022 -2.5970
  309MOL0     H41678   3.118   4.351   0.537 -1.2853 -2.4586  1.6588
  309MOL0     H41679   3.003   4.676   0.786 -1.3054 -0.3822  0.0325
  309MOL0     H41680   3.083   4.786   0.670 -1.2573  0.9643  0.2393
  309MOL0     H41681   2.803   4.645   0.627 -1.8379  1.3837  1.1927
  309MOL0     H41682   2.835   4.799   0.717 -0.7220 -1.0460  0.9797
  309MOL0     H41683   2.952   4.865   0.477 -0.7568  0.7358 -1.8987
  309MOL0     H41684   2.880   4.713   0.421  1.5959 -0.6266  0.3359
  309MOL0     H41685   2.709   4.932   0.554  0.2769  1.5741 -0.9642
  309MOL0     H41686   2.655   4.786   0.478 -0.5745  1.5639  1.7183
  309MOL0     H41687   2.636   4.946   0.304 -1.2250 -0.2768  2.3731
  309MOL0     H41688   2.811   4.876   0.289  1.6895  0.4606  1.5634
  309MOL0     H41689   2.718   5.140   0.391 -0.3681  0.9802 -1.6003
  309MOL0     H41690   2.877   5.082   0.429 -2.4806 -1.0080  3.1649
  309MOL0     H41691   2.842   5.224   0.211 -4.7128  0.4920  2.6578
  309MOL0     H41692   2.768   5.085   0.136  1.0584 -4.7763  1.5014
  309MOL0     H41693   3.037   5.043   0.237  0.8455  0.9550 -1.2033
  309MOL0     H41694   2.951   4.952   0.118 -3.4112  0.8405 -0.1407
  309MOL0     H41695   3.258   4.661   0.800  0.8443  0.7673 -1.1456
  309MOL0     H41696   3.439   4.495   0.884  2.1527 -0.5866 -2.2041
  309MOL0     H41697   3.444   3.892   0.947  0.2387  0.8518 -1.0873
  309MOL0     H41698   3.619   3.775   1.050  2.8215 -0.5339  2.4640
  309MOL0     H41699   3.189   2.973   1.088  1.6631 -1.6726 -0.5607
  309MOL0     H41700   3.042   3.138   1.136  0.3053  0.1372  0.1107
  309MOL0     H41701   2.780   3.649   0.767 -4.7408  0.7478  0.2548
  309MOL0     H41702   2.700   3.850   0.855  0.5048 -0.6915  0.1458
  309MOL0     H41703   2.770   4.012   1.289  1.5449 -0.5078 -0.5191
  309MOL0     H41704   2.666   3.876   1.296  3.6787 -0.7263  1.0373
  309MOL0     H41705   2.543   4.077   1.360 -0.4171 -1.2881 -0.4656
  309MOL0     H41706   2.480   3.990   1.226  1.9779 -4.6164  2.0247
  309MOL0     H41707   2.600   4.154   1.078 -2.3777 -0.6138 -0.2609
  309MOL0     H41708   2.659   4.250   1.212 -0.1641  1.4603 -2.9809
  309MOL0     H41709   2.411   4.310   1.248 -0.7780  0.4249  0.4752
  309MOL0     H41710   2.475   4.346   1.080 -2.0267  0.2326 -0.4266
  309MOL0     H41711   2.181   4.083   0.966  1.0639 -0.8068  0.0300
  309MOL0     H41712   2.826   3.748   1.246 -0.5491 -0.1055  0.8206
  309MOL0     H41713   2.931   3.550   1.292  1.1840  1.8681 -2.2327
  309MOL0     H41714   2.860   3.408   1.211  0.9062 -1.0880  1.1417
  309MOL0     H41715   3.025   3.455   1.178  1.3729  0.5344  3.0601
  310MOL0     O41716   8.400  10.917  11.380 -0.4375  0.1336  0.1473
  310MOL0     C41717   8.285  10.896  11.431 -0.5328  0.4242 -0.4890
  310MOL0     O41718   8.247  10.927  11.558  0.6058  0.0164 -0.0148
  310MOL0     C41719   8.348  10.992  11.624 -0.2455  0.0246 -0.8700
  310MOL0     C41720   8.349  11.124  11.664  0.0943 -0.3765  0.4396
  310MOL0     C41721   8.454  11.184  11.740  0.4952 -0.2113  0.8039
  310MOL0     C41722   8.558  11.108  11.782 -0.0359 -0.4995 -0.2965
  310MOL0     O41723   8.648  11.181  11.847 -0.7878  0.2430 -0.0676
  310MOL0     C41724   8.778  11.122  11.879  0.2952 -0.7599 -0.4255
  310MOL0     C41725   8.877  11.223  11.941 -0.2599 -1.0038 -0.6862
  310MOL0     C41726   8.809  11.287  12.070  0.7237 -0.1391 -0.3623
  310MOL0     C41727   8.903  11.389  12.146  0.0212 -0.0488  0.8918
  310MOL0     C41728   9.043  11.333  12.189  0.3304  0.6570 -0.2130
  310MOL0     C41729   9.084  11.398  12.324  0.7800  0.0827 -0.3598
  310MOL0     C41730   8.987  11.373  12.444 -0.2772 -0.1088  0.9726
  310MOL0     C41731   9.044  11.381  12.581  0.4699  1.1690 -0.0872
  310MOL0     N41732   9.031  11.503  12.652 -1.1186 -0.1171 -1.3543
  310MOL0     C41733   9.121  11.607  12.664  0.5244 -0.1991  0.8671
  310MOL0     C41734   9.063  11.689  12.761 -0.0784 -0.0875 -0.0200
  310MOL0     C41735   9.109  11.818  12.827  0.4534  0.0130 -0.2826
  310MOL0     C41736   9.208  11.804  12.935 -0.4313  0.6635 -0.8402
  310MOL0     C41737   9.244  11.927  13.014  0.2627 -0.3166  0.1289
  310MOL0     C41738   9.386  11.988  13.005  0.4997  0.5312 -0.4128
  310MOL0     O41739   9.414  12.043  12.874  0.0751  0.3339 -0.1735
  310MOL0     C41740   9.539  12.094  12.857 -0.2204 -0.1827  0.3081
  310MOL0     C41741   9.572  12.112  12.730 -0.0919  1.0327 -0.6978
  310MOL0     C41742   9.698  12.160  12.696  0.6250  0.2721 -0.6073
  310MOL0     C41743   9.789  12.191  12.795  0.4134 -0.2759  0.4840
  310MOL0     C41744   9.923  12.249  12.766 -0.1555  0.5023  0.1070
  310MOL0     O41745   9.958  12.249  12.628 -0.0505 -0.3901  0.3326
  310MOL0     C41746  10.089  12.252  12.595  0.2042  0.4465  0.9306
  310MOL0     C41747  10.120  12.324  12.478 -0.0704  0.2747  0.0059
  310MOL0     C41748  10.246  12.316  12.427  0.4581 -0.5855  0.9189
  310MOL0     C41749  10.339  12.234  12.490 -0.1656  0.1029  0.2216
  310MOL0     O41750  10.466  12.248  12.442 -0.5283 -0.4635  0.0009
  310MOL0     C41751  10.564  12.150  12.464  0.2840  0.3048 -0.4876
  310MOL0     C41752  10.678  12.172  12.359  0.4817  0.0649  0.2972
  310MOL0     C41753  10.756  12.303  12.385  0.0460  0.1475 -0.3957
  310MOL0     C41754  10.894  12.303  12.312  0.7863 -0.1898 -0.8020
  310MOL0     C41755  10.952  12.432  12.379 -1.0021 -1.0163  0.7992
  310MOL0     C41756  11.095  12.466  12.347 -0.9912 -0.2727 -0.2412
  310MOL0     C41757  11.153  12.596  12.402 -0.2497  0.0305  1.2311
  310MOL0     C41758  11.157  12.604  12.548 -0.9930  0.0083 -0.1416
  310MOL0    Cl41759  11.284  12.490  12.596 -0.2787 -0.7120  0.2506
  310MOL0     C41760  10.298  12.144  12.588  0.7785 -0.0300 -0.0018
  310MOL0     C41761  10.166  12.149  12.640 -0.0470  0.5755 -0.5026
  310MOL0     O41762   9.998  12.275  12.857  1.4590 -0.4417  0.5891
  310MOL0     C41763   9.739  12.187  12.927 -0.4197  0.1620 -0.2404
  310MOL0     C41764   9.623  12.123  12.960  0.0037  0.2863 -0.5598
  310MOL0     N41765   8.946  11.624  12.804 -0.2115 -0.2145 -2.2402
  310MOL0     N41766   8.934  11.516  12.745  0.0255 -0.4098  0.1118
  310MOL0     C41767   8.560  10.967  11.751  0.4320  0.1182 -0.4409
  310MOL0     C41768   8.456  10.917  11.677 -0.3991  0.8742  0.3856
  310MOL0     C41769   8.174  10.835  11.349  0.2446  1.0094  0.2428
  310MOL0     C41770   8.077  10.757  11.411 -0.6603 -0.0136  1.0452
  310MOL0     C41771   7.990  10.684  11.340 -0.2179 -0.2459  0.6222
  310MOL0     C41772   7.970  10.694  11.205 -0.1626  0.6938  0.0632
  310MOL0     O41773   7.878  10.628  11.131  0.3628  0.7050  1.1147
  310MOL0     C41774   7.843  10.495  11.176  0.9321  0.5419  0.0929
  310MOL0     C41775   7.706  10.425  11.135  0.4607 -0.0428  0.2597
  310MOL0     C41776   7.593  10.528  11.146 -0.1498  0.8553  0.2457
  310MOL0     C41777   7.461  10.462  11.110 -0.4298 -0.4471  0.6488
  310MOL0     C41778   7.340  10.556  11.106 -0.5219  0.0955  0.1049
  310MOL0     C41779   7.241  10.624  11.108  0.7897 -0.0966 -0.6206
  310MOL0     C41780   8.064  10.771  11.144 -0.6030 -0.0507 -0.2438
  310MOL0     C41781   8.155  10.852  11.207 -0.0469 -0.0800  0.0140
  310MOL0     C41782   8.230  10.948  11.120  0.6797 -0.2529 -0.5267
  310MOL0     H41783   8.261  11.177  11.631 -0.4400 -1.5568 -0.0570
  310MOL0     H41784   8.460  11.288  11.768 -1.4563  1.2650 -3.4488
  310MOL0     H41785   8.752  11.047  11.955  0.2558 -1.1876 -0.8620
  310MOL0     H41786   8.819  11.079  11.788 -0.1763 -0.0370 -0.9914
  310MOL0     H41787   8.902  11.305  11.873  2.8101 -1.7819 -0.6300
  310MOL0     H41788   8.972  11.179  11.972 -0.9071 -2.5670 -0.8149
  310MOL0     H41789   8.799  11.207  12.145  3.4804  0.3733  0.6587
  310MOL0     H41790   8.710  11.329  12.052  0.8388 -0.0332 -0.7507
  310MOL0     H41791   8.944  11.460  12.073  1.5080  1.1350  2.7925
  310MOL0     H41792   8.853  11.450  12.222  0.3542  1.4789 -0.0699
  310MOL0     H41793   9.049  11.225  12.208  1.1447  0.9175  1.1498
  310MOL0     H41794   9.121  11.350  12.114 -0.3991 -0.5343 -1.2896
  310MOL0     H41795   9.179  11.349  12.347  0.5414  1.6002  5.1598
  310MOL0     H41796   9.102  11.506  12.316 -1.5395  0.8090  2.5297
  310MOL0     H41797   8.940  11.274  12.441 -2.8487  1.0500  1.0160
  310MOL0     H41798   8.903  11.442  12.438  1.5136  2.0490 -1.1610
  310MOL0     H41799   9.003  11.303  12.646  2.0855  0.1569 -0.2154
  310MOL0     H41800   9.150  11.353  12.582  0.6885  1.6383  3.2202
  310MOL0     H41801   9.219  11.615  12.618 -0.1398  0.6688 -0.4470
  310MOL0     H41802   9.160  11.864  12.742 -1.3283  1.0759 -0.8180
  310MOL0     H41803   9.028  11.884  12.860  1.2687  1.2987 -0.7866
  310MOL0     H41804   9.170  11.733  13.009 -1.1849  0.7699 -1.1079
  310MOL0     H41805   9.300  11.763  12.891 -2.4249 -0.9100 -3.9740
  310MOL0     H41806   9.223  11.902  13.119  1.5580 -0.8113  0.2788
  310MOL0     H41807   9.174  12.007  12.986  1.5224  0.2651 -1.4917
  310MOL0     H41808   9.456  11.912  13.039  1.3680  1.7716  0.7065
  310MOL0     H41809   9.395  12.072  13.075 -0.3679  0.4152 -0.1456
  310MOL0     H41810   9.495  12.081  12.659  1.5516 -1.0344 -1.6946
  310MOL0     H41811   9.737  12.171  12.596  3.6123  3.3857  0.6743
  310MOL0     H41812  10.037  12.379  12.435  0.6356  2.0944  0.8630
  310MOL0     H41813  10.277  12.379  12.345  3.3651  0.4789  2.6770
  310MOL0     H41814  10.602  12.165  12.565 -1.1720 -0.7040  0.2254
  310MOL0     H41815  10.522  12.050  12.455 -1.0929  0.8189 -0.0486
  310MOL0     H41816  10.744  12.087  12.380  0.0794 -0.4338 -0.3943
  310MOL0     H41817  10.644  12.163  12.255 -1.6245 -2.9563  1.0949
  310MOL0     H41818  10.702  12.390  12.346 -2.7444 -1.0030  0.6112
  310MOL0     H41819  10.759  12.299  12.494 -0.6763  0.6008 -0.3522
  310MOL0     H41820  10.887  12.312  12.204 -1.3799 -1.5341 -0.8320
  310MOL0     H41821  10.959  12.218  12.333  1.0726  0.5594  1.7610
  310MOL0     H41822  10.948  12.421  12.488  0.1546  3.6240  1.5127
  310MOL0     H41823  10.887  12.518  12.359  2.0245  0.7753 -2.3857
  310MOL0     H41824  11.160  12.387  12.387 -0.5677  0.6139  0.8935
  310MOL0     H41825  11.105  12.460  12.239  1.6380 -3.8581  0.0035
  310MOL0     H41826  11.097  12.675  12.352  1.4081  0.0216 -0.7744
  310MOL0     H41827  11.257  12.616  12.374 -0.2017  0.1417  1.4836
  310MOL0     H41828  11.193  12.707  12.559  2.3363 -0.7361 -2.5959
  310MOL0     H41829  11.060  12.592  12.597 -0.1620  2.1416  2.2783
  310MOL0     H41830  10.377  12.074  12.612  1.9329  1.3673  0.4076
  310MOL0     H41831  10.113  12.086  12.711  0.2408  0.7806 -0.1061
  310MOL0     H41832   9.812  12.226  12.998  0.2571  0.0228 -0.8379
  310MOL0     H41833   9.609  12.110  13.066 -0.1576  3.6631 -0.0444
  310MOL0     H41834   8.643  10.901  11.774  0.8804  0.5299 -0.8624
  310MOL0     H41835   8.463  10.814  11.644 -1.0483  1.3798 -1.4597
  310MOL0     H41836   8.082  10.718  11.513 -0.4570 -1.0091  0.6657
  310MOL0     H41837   7.941  10.612  11.405  1.5471 -4.7398 -2.5782
  310MOL0     H41838   7.829  10.507  11.283  0.1278 -2.2556  0.3803
  310MOL0     H41839   7.924  10.423  11.164  0.8003  0.2396  0.9743
  310MOL0     H41840   7.691  10.341  11.203 -1.8537  0.8365  0.9241
  310MOL0     H41841   7.707  10.376  11.037 -2.5166 -0.4264  0.3174
  310MOL0     H41842   7.609  10.613  11.079 -1.7346  0.9812 -0.0253
  310MOL0     H41843   7.588  10.562  11.250  3.9818 -1.6169  1.4816
  310MOL0     H41844   7.476  10.421  11.010 -1.9824 -1.1635  0.6776
  310MOL0     H41845   7.433  10.378  11.175 -2.7193 -2.4600 -2.6125
  310MOL0     H41846   7.152  10.678  11.133  0.1015 -1.4222 -0.1003
  310MOL0     H41847   8.039  10.791  11.040 -0.5319  0.3594 -0.1822
  310MOL0     H41848   8.242  10.904  11.021 -3.0106 -0.6195 -0.9627
  310MOL0     H41849   8.177  11.042  11.104 -1.5712 -1.4821 -0.7324
  310MOL0     H41850   8.328  10.974  11.160 -0.0120  0.0835  1.0066
  311MOL0     O41851   2.713   4.091   9.237 -1.0610 -0.3034 -0.1261
  311MOL0     C41852   2.744   4.210   9.244 -0.0207  0.0275 -0.6079
  311MOL0     O41853   2.652   4.319   9.245  0.6126  0.0770  0.9639
  311MOL0     C41854   2.514   4.288   9.214 -0.7383 -0.6302  0.1760
  311MOL0     C41855   2.467   4.191   9.116 -0.5789 -0.1637  0.1317
  311MOL0     C41856   2.332   4.197   9.082 -0.4522 -0.9919  1.3208
  311MOL0     C41857   2.239   4.274   9.139  0.1988  0.2661 -0.0429
  311MOL0     O41858   2.108   4.252   9.102 -0.3924 -0.0236 -0.2686
  311MOL0     C41859   2.005   4.319   9.177 -0.6309  0.8772  0.0060
  311MOL0     C41860   1.867   4.278   9.137  0.2076 -0.0818  0.3795
  311MOL0     C41861   1.849   4.253   8.983  0.0025 -0.1175 -0.0338
  311MOL0     C41862   1.705   4.240   8.930  0.2645  0.3134 -0.7262
  311MOL0     C41863   1.713   4.223   8.777 -0.0056  0.0281 -0.0762
  311MOL0     C41864   1.588   4.192   8.707  0.1163 -0.5118  0.1342
  311MOL0     C41865   1.497   4.323   8.708 -0.8066 -0.2661 -0.3583
  311MOL0     C41866   1.357   4.313   8.650 -0.2075  1.2800 -0.4959
  311MOL0     N41867   1.346   4.254   8.516 -0.5000 -0.0722 -1.0512
  311MOL0     C41868   1.317   4.327   8.408  0.2803 -1.0641  0.1130
  311MOL0     C41869   1.285   4.238   8.312 -0.8119 -0.3909 -1.4034
  311MOL0     C41870   1.270   4.268   8.171 -0.7114 -0.4820  0.4431
  311MOL0     C41871   1.116   4.280   8.141 -0.5134  0.7151 -0.0168
  311MOL0     C41872   1.026   4.165   8.174  0.8250 -0.2335  0.1250
  311MOL0     C41873   1.062   4.039   8.088 -0.3229 -0.2846 -0.4744
  311MOL0     O41874   0.968   4.055   7.979 -0.4491  0.4541 -0.4344
  311MOL0     C41875   0.929   3.941   7.913  0.8944 -0.5880 -0.0071
  311MOL0     C41876   0.809   3.931   7.852  0.2916  0.1992  0.2591
  311MOL0     C41877   0.773   3.811   7.795 -1.2761 -0.1326  0.1330
  311MOL0     C41878   0.863   3.705   7.779 -0.4378  0.5848  0.6182
  311MOL0     C41879   0.822   3.575   7.732 -0.6413  0.2345  0.1753
  311MOL0     O41880   0.693   3.545   7.719 -0.0921  0.0618  0.2955
  311MOL0     C41881   0.669   3.415   7.687 -0.1607  0.4813  0.0609
  311MOL0     C41882   0.593   3.325   7.768 -0.1801  0.5295 -0.7427
  311MOL0     C41883   0.556   3.201   7.723  0.0353 -0.1117  0.4923
  311MOL0     C41884   0.602   3.156   7.604 -0.0834 -0.1835  0.3595
  311MOL0     O41885   0.585   3.029   7.562  0.1377 -0.0293  0.3345
  311MOL0     C41886   0.514   2.934   7.643  0.3867 -0.0684 -0.3156
  311MOL0     C41887   0.594   2.892   7.774  0.0924  1.2344 -0.1227
  311MOL0     C41888   0.486   2.837   7.868 -0.7939 -0.6598  0.5266
  311MOL0     C41889   0.555   2.769   7.985 -0.7798 -0.7863  0.4415
  311MOL0     C41890   0.457   2.724   8.094  0.2169  0.0030 -0.3024
  311MOL0     C41891   0.540   2.698   8.211 -1.1527 -0.0661 -1.3648
  311MOL0     C41892   0.456   2.639   8.330  0.7324 -0.1287  1.1967
  311MOL0     C41893   0.371   2.749   8.386 -0.7623 -0.1886 -0.1632
  311MOL0    Cl41894   0.253   2.692   8.495  0.3145 -0.1976 -0.3348
  311MOL0     C41895   0.675   3.234   7.520  0.6087 -0.3517  0.2405
  311MOL0     C41896   0.704   3.372   7.562  0.4121  0.1219 -0.7273
  311MOL0     O41897   0.915   3.492   7.711  0.1405  0.0309 -0.3921
  311MOL0     C41898   0.994   3.729   7.829 -0.0356  0.5735  0.1393
  311MOL0     C41899   1.027   3.844   7.894  0.0637 -0.1498 -0.3123
  311MOL0     N41900   1.285   4.115   8.370  0.1552  0.2023 -0.2988
  311MOL0     N41901   1.322   4.122   8.491 -0.2403 -0.5513 -0.3937
  311MOL0     C41902   2.286   4.365   9.234  0.2142 -0.1770  0.6065
  311MOL0     C41903   2.420   4.371   9.276  0.4559  0.0507 -0.1053
  311MOL0     C41904   2.883   4.245   9.279  0.7854  0.1881 -1.0339
  311MOL0     C41905   2.920   4.365   9.332 -0.8028 -0.4375 -0.2004
  311MOL0     C41906   3.052   4.390   9.375 -0.1647  0.8694 -0.3636
  311MOL0     C41907   3.158   4.306   9.335  0.0495  0.5693  0.3655
  311MOL0     O41908   3.288   4.313   9.362 -0.9426  0.0601  0.3175
  311MOL0     C41909   3.339   4.434   9.405  0.3017 -1.0752 -0.1216
  311MOL0     C41910   3.490   4.449   9.396 -0.7666 -0.3971  0.2086
  311MOL0     C41911   3.546   4.589   9.417 -0.5273 -0.2617 -0.1095
  311MOL0     C41912   3.663   4.592   9.513 -0.6898  0.4737 -0.5149
  311MOL0     C41913   3.610   4.596   9.652  0.6316  1.0232 -0.0592
  311MOL0     C41914   3.555   4.583   9.759  0.0357 -0.1562 -0.1909
  311MOL0     C41915   3.126   4.198   9.251  1.4740 -0.4782 -0.5302
  311MOL0     C41916   2.991   4.159   9.231 -0.8478  0.3131 -0.1680
  311MOL0     C41917   2.969   4.053   9.134 -0.5541 -0.0565 -0.1088
  311MOL0     H41918   2.536   4.128   9.062 -1.2712  0.0827 -1.0700
  311MOL0     H41919   2.300   4.133   9.000 -0.1730  3.3891 -2.6336
  311MOL0     H41920   2.021   4.305   9.284  0.5053  2.9996  0.1772
  311MOL0     H41921   2.020   4.427   9.169  1.5206  0.6154 -0.1673
  311MOL0     H41922   1.792   4.349   9.173 -0.1952 -1.4575  2.4715
  311MOL0     H41923   1.849   4.186   9.195  1.5081  0.6787  2.0937
  311MOL0     H41924   1.916   4.168   8.966  2.2809  1.2843  1.3744
  311MOL0     H41925   1.884   4.346   8.937 -2.4319  0.5913 -0.6011
  311MOL0     H41926   1.662   4.146   8.967 -1.0163  0.9090 -0.6337
  311MOL0     H41927   1.642   4.314   8.980  0.4061  0.5964 -0.9601
  311MOL0     H41928   1.766   4.310   8.740 -1.6890  0.9537 -0.4155
  311MOL0     H41929   1.783   4.140   8.762  1.0155  0.6996  0.8588
  311MOL0     H41930   1.616   4.177   8.602  2.1446  0.0776  0.5460
  311MOL0     H41931   1.536   4.108   8.753  2.0338 -0.1219  3.2905
  311MOL0     H41932   1.561   4.392   8.652 -1.1336 -0.1062 -0.5416
  311MOL0     H41933   1.493   4.354   8.813  0.6238 -3.7291  0.8611
  311MOL0     H41934   1.296   4.263   8.725 -0.4388  0.9201 -0.9162
  311MOL0     H41935   1.321   4.416   8.644 -1.3894  0.9152  0.0435
  311MOL0     H41936   1.323   4.434   8.389 -3.6851 -1.1566 -2.9069
  311MOL0     H41937   1.337   4.350   8.141 -0.3911 -1.1647 -0.7424
  311MOL0     H41938   1.322   4.185   8.124 -0.5955 -1.2977  1.9421
  311MOL0     H41939   1.088   4.370   8.197 -1.5994  1.3196 -1.4573
  311MOL0     H41940   1.107   4.308   8.035  1.5046  1.1486 -0.1119
  311MOL0     H41941   0.920   4.183   8.154  0.9008  0.4298  0.3151
  311MOL0     H41942   1.029   4.143   8.281 -0.4259 -2.1631 -0.1818
  311MOL0     H41943   1.032   3.951   8.145 -0.9917  0.0198 -0.3447
  311MOL0     H41944   1.170   4.032   8.071 -0.1419 -0.1666  0.5509
  311MOL0     H41945   0.745   4.019   7.857 -2.9675 -1.9043 -0.9872
  311MOL0     H41946   0.681   3.804   7.738 -0.0181 -4.5929 -1.7963
  311MOL0     H41947   0.553   3.375   7.856  0.7581 -0.2668  0.1628
  311MOL0     H41948   0.486   3.144   7.782 -0.3159 -0.9911 -0.7400
  311MOL0     H41949   0.414   2.977   7.655  0.7757  0.8936 -0.3842
  311MOL0     H41950   0.489   2.841   7.592 -3.0910  0.9191 -0.6806
  311MOL0     H41951   0.661   2.813   7.739 -3.5776 -0.9774 -2.9551
  311MOL0     H41952   0.647   2.971   7.827  0.3305  2.2007 -1.7161
  311MOL0     H41953   0.418   2.913   7.907  0.8828  2.2720 -1.8020
  311MOL0     H41954   0.422   2.761   7.822 -2.8543  0.9229  0.6250
  311MOL0     H41955   0.636   2.831   8.025 -1.4278  0.6264 -0.3626
  311MOL0     H41956   0.603   2.676   7.953 -1.1651 -1.3361  1.4196
  311MOL0     H41957   0.407   2.634   8.058 -1.0214  0.1642  0.9160
  311MOL0     H41958   0.394   2.808   8.123  0.7919  0.2010  0.4040
  311MOL0     H41959   0.612   2.616   8.197  0.1535  0.8444 -0.3114
  311MOL0     H41960   0.601   2.784   8.240 -0.6905 -0.6626 -0.4911
  311MOL0     H41961   0.512   2.603   8.417 -0.3096 -0.0994  1.8945
  311MOL0     H41962   0.392   2.561   8.290  0.1672  1.2657 -0.7489
  311MOL0     H41963   0.435   2.820   8.439 -1.1311  0.0533 -0.0376
  311MOL0     H41964   0.313   2.793   8.305  0.0137 -3.5870 -2.8046
  311MOL0     H41965   0.692   3.203   7.417  1.5567  3.6425 -0.9832
  311MOL0     H41966   0.759   3.438   7.495  0.1298 -0.2406 -1.3270
  311MOL0     H41967   1.075   3.659   7.842 -1.1054 -0.9783 -1.1106
  311MOL0     H41968   1.125   3.859   7.939 -0.2159 -0.3996  0.3798
  311MOL0     H41969   2.221   4.443   9.272 -1.4348 -1.8065  1.3299
  311MOL0     H41970   2.442   4.450   9.346 -1.9074 -0.3136  1.1477
  311MOL0     H41971   2.845   4.439   9.358  0.4002  1.0036 -0.6664
  311MOL0     H41972   3.058   4.483   9.431 -0.2516  0.6485  0.0203
  311MOL0     H41973   3.322   4.443   9.512 -0.0969 -1.5798 -0.1386
  311MOL0     H41974   3.287   4.520   9.363  3.4275  1.7185  1.2953
  311MOL0     H41975   3.513   4.408   9.297 -0.5373 -4.8276  1.8760
  311MOL0     H41976   3.531   4.379   9.470 -3.9093  0.0484  2.5616
  311MOL0     H41977   3.467   4.650   9.460  1.1904  0.6201  1.9509
  311MOL0     H41978   3.569   4.627   9.317 -0.8532 -2.3517 -1.0335
  311MOL0     H41979   3.728   4.505   9.497  1.0520  1.4537  0.8921
  311MOL0     H41980   3.727   4.678   9.496  1.2904  0.0945  3.7367
  311MOL0     H41981   3.512   4.570   9.856  0.0695 -0.3447 -0.2022
  311MOL0     H41982   3.211   4.142   9.214  0.7179 -0.8547 -1.7373
  311MOL0     H41983   2.938   3.963   9.188 -0.3704  0.2179  0.4621
  311MOL0     H41984   2.890   4.076   9.062 -0.5176  2.0653  0.4602
  311MOL0     H41985   3.066   4.024   9.092 -0.3036 -0.0927  0.4908
  312MOL0     O41986   2.755   3.790   1.508  0.2744 -1.2353 -0.2171
  312MOL0     C41987   2.837   3.863   1.561 -0.3292  0.5013  0.2441
  312MOL0     O41988   2.960   3.829   1.609  0.5180  0.7106 -0.1666
  312MOL0     C41989   3.000   3.693   1.590  0.3273  0.6546 -0.2650
  312MOL0     C41990   2.928   3.592   1.640 -0.0674  0.7336  0.6903
  312MOL0     C41991   2.977   3.462   1.637 -1.0192  0.5521 -0.3251
  312MOL0     C41992   3.086   3.424   1.567  0.6387 -0.7340  0.3010
  312MOL0     O41993   3.117   3.295   1.564  0.1282 -0.4269  0.4153
  312MOL0     C41994   3.231   3.270   1.655  0.0364  0.3077 -0.7626
  312MOL0     C41995   3.196   3.246   1.802 -0.1840  0.0741  0.1314
  312MOL0     C41996   3.324   3.248   1.890 -0.4860  0.0511 -0.6458
  312MOL0     C41997   3.408   3.120   1.861 -0.5542  0.1995  0.1617
  312MOL0     C41998   3.525   3.104   1.956  0.4602  0.9513 -0.0356
  312MOL0     C41999   3.497   3.047   2.094  0.1108  0.6830 -0.3496
  312MOL0     C42000   3.609   3.040   2.198 -0.3559 -0.7381 -0.5523
  312MOL0     C42001   3.633   3.172   2.264  0.3163 -0.8687  1.1607
  312MOL0     N42002   3.545   3.210   2.370 -0.3894  0.9497  0.1346
  312MOL0     C42003   3.560   3.156   2.496 -0.5703 -0.5579 -0.0461
  312MOL0     C42004   3.442   3.189   2.556 -0.7962  0.1651  0.1103
  312MOL0     C42005   3.389   3.145   2.695  0.1889 -0.4841  0.1043
  312MOL0     C42006   3.430   3.002   2.725 -1.1270  0.6787  0.5967
  312MOL0     C42007   3.376   2.895   2.623  0.8972 -0.5778 -1.0420
  312MOL0     C42008   3.470   2.778   2.608  0.8608  0.6706 -0.4619
  312MOL0     O42009   3.590   2.804   2.545 -1.1619  0.1482  0.2921
  312MOL0     C42010   3.682   2.698   2.540  0.2765  0.7784  0.8493
  312MOL0     C42011   3.799   2.722   2.466  0.8058 -0.5261  0.0416
  312MOL0     C42012   3.888   2.615   2.452 -0.3104  0.2889  0.8382
  312MOL0     C42013   3.861   2.483   2.501  0.9589  0.5823  0.3261
  312MOL0     C42014   3.948   2.374   2.466 -0.2465 -0.1040 -0.0155
  312MOL0     O42015   4.065   2.404   2.404 -0.5150  0.4139  0.1352
  312MOL0     C42016   4.113   2.320   2.309  1.3288  0.5956  0.4602
  312MOL0     C42017   4.032   2.229   2.231 -0.9746 -0.3767  1.1069
  312MOL0     C42018   4.088   2.120   2.163 -0.1094  0.4640 -0.1460
  312MOL0     C42019   4.229   2.109   2.154 -0.0519 -0.9369  0.5973
  312MOL0     O42020   4.274   1.999   2.084  0.5436 -0.1358  0.3866
  312MOL0     C42021   4.405   1.947   2.096 -0.8712  0.9698  0.1100
  312MOL0     C42022   4.395   1.793   2.098  0.1768 -0.4882 -0.1661
  312MOL0     C42023   4.339   1.734   1.966 -0.3397 -0.3162 -0.4532
  312MOL0     C42024   4.307   1.583   1.989 -0.3049  1.0198  0.3671
  312MOL0     C42025   4.264   1.515   1.863  0.4413 -0.0138  0.4363
  312MOL0     C42026   4.142   1.576   1.794 -0.5402  0.7266  0.2839
  312MOL0     C42027   4.007   1.552   1.865  0.4286 -0.4226 -0.2092
  312MOL0     C42028   3.892   1.619   1.786 -0.5450  0.8810  0.2580
  312MOL0    Cl42029   3.851   1.515   1.631  0.0567  0.2431  0.3145
  312MOL0     C42030   4.309   2.226   2.195 -0.4666  0.8931 -0.5048
  312MOL0     C42031   4.247   2.322   2.280 -1.0279 -0.2107  0.3195
  312MOL0     O42032   3.906   2.263   2.500 -0.4489 -0.3780  0.1373
  312MOL0     C42033   3.743   2.462   2.578  0.4076 -0.2955  0.9079
  312MOL0     C42034   3.660   2.567   2.592 -0.4278 -0.6226 -0.2000
  312MOL0     N42035   3.383   3.278   2.471  1.1244  0.2781  1.1710
  312MOL0     N42036   3.445   3.283   2.362  0.9612 -0.4933  0.0576
  312MOL0     C42037   3.157   3.522   1.506 -0.4644  0.3061  0.4110
  312MOL0     C42038   3.114   3.658   1.516 -0.5812 -0.5101 -0.8764
  312MOL0     C42039   2.810   4.011   1.572 -0.4223 -0.1519 -0.0817
  312MOL0     C42040   2.917   4.093   1.535  0.6658  0.8130  0.0632
  312MOL0     C42041   2.895   4.229   1.533  0.0602 -0.6188 -0.9910
  312MOL0     C42042   2.777   4.295   1.556 -0.1448 -0.9266  0.5720
  312MOL0     O42043   2.770   4.436   1.538  0.1317 -0.1463 -0.8906
  312MOL0     C42044   2.645   4.504   1.569 -0.8739  0.7085  0.0306
  312MOL0     C42045   2.563   4.517   1.437 -0.4667  0.5119 -0.2714
  312MOL0     C42046   2.638   4.616   1.337 -0.1674  0.5383  0.4503
  312MOL0     C42047   2.630   4.765   1.374  0.2408  0.7169 -0.1372
  312MOL0     C42048   2.748   4.798   1.458 -0.4178 -0.2928 -0.3941
  312MOL0     C42049   2.844   4.849   1.526 -0.3496  0.5257 -0.1554
  312MOL0     C42050   2.671   4.212   1.597 -1.0413  0.2943  0.3216
  312MOL0     C42051   2.693   4.068   1.616  0.1852 -0.3144 -0.1216
  312MOL0     C42052   2.575   3.988   1.671 -0.4561  0.1748  0.0297
  312MOL0     H42053   2.841   3.614   1.701  0.7407  0.6939  1.9058
  312MOL0     H42054   2.905   3.391   1.677  0.1102 -1.2775 -1.4144
  312MOL0     H42055   3.288   3.182   1.624 -0.0024  0.3982 -1.0923
  312MOL0     H42056   3.310   3.346   1.651  0.8827 -0.5288 -0.4673
  312MOL0     H42057   3.140   3.152   1.801  0.7601 -0.5435 -2.2331
  312MOL0     H42058   3.123   3.324   1.829 -1.6485 -0.1659 -2.7321
  312MOL0     H42059   3.288   3.244   1.994  0.5875 -0.9173 -0.2858
  312MOL0     H42060   3.375   3.342   1.870  0.0363 -0.4089 -1.5321
  312MOL0     H42061   3.354   3.025   1.856 -1.3717  0.6299  0.6386
  312MOL0     H42062   3.454   3.105   1.763  2.0738 -0.9041  1.4720
  312MOL0     H42063   3.598   3.034   1.915  1.5385  1.4379  0.9763
  312MOL0     H42064   3.580   3.199   1.959  1.1567  0.7081 -2.6483
  312MOL0     H42065   3.413   3.106   2.131  1.3576  2.9047 -0.9372
  312MOL0     H42066   3.453   2.947   2.078  3.3755 -1.2213  1.4718
  312MOL0     H42067   3.702   3.013   2.147 -1.4210  0.5576 -3.3999
  312MOL0     H42068   3.575   2.978   2.281 -1.2113  0.2094 -0.1688
  312MOL0     H42069   3.737   3.178   2.298  0.3662 -1.7078  1.1782
  312MOL0     H42070   3.621   3.248   2.186  0.4258  0.3972  2.3454
  312MOL0     H42071   3.643   3.092   2.523 -1.8921 -0.9347  3.6608
  312MOL0     H42072   3.435   3.213   2.767  1.5706 -0.4345 -0.7981
  312MOL0     H42073   3.284   3.175   2.707  1.0803  3.1094 -0.0456
  312MOL0     H42074   3.539   3.005   2.727 -0.6363 -3.4970 -3.0495
  312MOL0     H42075   3.392   2.980   2.825 -1.8780  2.6234  0.7846
  312MOL0     H42076   3.360   2.932   2.522 -0.0751  3.1546  0.3175
  312MOL0     H42077   3.277   2.870   2.663  1.5519 -0.7019  0.5871
  312MOL0     H42078   3.415   2.700   2.554  0.6340  1.3249 -1.1856
  312MOL0     H42079   3.478   2.740   2.711 -1.6883 -0.8464 -0.7442
  312MOL0     H42080   3.821   2.823   2.434 -1.9379  0.8583  2.1306
  312MOL0     H42081   3.976   2.621   2.388 -1.9274 -2.4475 -1.9203
  312MOL0     H42082   3.924   2.237   2.232 -0.8847  1.4904  2.4721
  312MOL0     H42083   4.021   2.046   2.122  0.6061 -0.2516 -0.0506
  312MOL0     H42084   4.460   1.975   2.005  0.2174 -0.2736  0.3672
  312MOL0     H42085   4.463   1.980   2.182  1.4436  1.0491 -1.3877
  312MOL0     H42086   4.497   1.753   2.108  0.2534 -0.3726 -0.4694
  312MOL0     H42087   4.333   1.762   2.183 -0.5045 -1.7002 -1.0767
  312MOL0     H42088   4.257   1.797   1.931 -0.5100 -0.5872 -0.5514
  312MOL0     H42089   4.427   1.752   1.903  1.8383  2.4502  2.9691
  312MOL0     H42090   4.228   1.579   2.065 -0.6357 -0.0334 -0.0233
  312MOL0     H42091   4.394   1.522   2.017  1.0778  2.3405 -0.8721
  312MOL0     H42092   4.255   1.408   1.881  0.6820 -0.1307 -0.1128
  312MOL0     H42093   4.343   1.514   1.788 -1.8053 -1.3039 -2.1160
  312MOL0     H42094   4.164   1.683   1.790  2.6469  0.3370  2.7398
  312MOL0     H42095   4.138   1.539   1.691 -2.7825  1.5830  0.0071
  312MOL0     H42096   4.009   1.594   1.966 -4.6990 -2.3133  0.9833
  312MOL0     H42097   3.990   1.445   1.879 -0.1062 -0.3113  0.0326
  312MOL0     H42098   3.802   1.636   1.846 -2.3291  1.9893 -2.5212
  312MOL0     H42099   3.915   1.722   1.754 -0.4023  0.7755  0.0184
  312MOL0     H42100   4.410   2.237   2.155  0.7048 -2.1031  1.2446
  312MOL0     H42101   4.307   2.398   2.328 -2.5593  1.3987 -0.2111
  312MOL0     H42102   3.713   2.358   2.591  1.1165 -0.6999 -0.4838
  312MOL0     H42103   3.568   2.530   2.637 -1.6069  1.2090 -0.9993
  312MOL0     H42104   3.247   3.488   1.455 -0.5893 -0.3445  0.6081
  312MOL0     H42105   3.183   3.731   1.474 -1.0383  0.5695  0.1671
  312MOL0     H42106   3.007   4.045   1.498 -1.2167 -3.8127  0.7159
  312MOL0     H42107   2.970   4.298   1.494  2.4821 -1.6577  1.4993
  312MOL0     H42108   2.665   4.599   1.621  1.0107  0.1801  0.3344
  312MOL0     H42109   2.590   4.448   1.645 -0.4043  0.1302 -0.0583
  312MOL0     H42110   2.465   4.550   1.473 -0.3847 -0.1660  0.6034
  312MOL0     H42111   2.555   4.417   1.391  0.1094 -0.0103  0.7305
  312MOL0     H42112   2.600   4.603   1.236  1.9941 -3.2710 -0.0210
  312MOL0     H42113   2.743   4.586   1.338 -0.9112 -2.3685  1.7369
  312MOL0     H42114   2.637   4.827   1.284 -0.1607  0.1446 -0.5675
  312MOL0     H42115   2.535   4.772   1.428  0.2958 -1.3588  0.3108
  312MOL0     H42116   2.932   4.877   1.580  1.1372 -1.5232 -1.3741
  312MOL0     H42117   2.568   4.242   1.615 -0.4390  0.7627  3.9258
  312MOL0     H42118   2.604   3.907   1.738  0.6749  3.5300  3.9680
  312MOL0     H42119   2.503   4.049   1.725 -0.4374 -1.2359  1.7135
  312MOL0     H42120   2.514   3.957   1.585 -1.4187  2.8807 -0.3771
  313MOL0     O42121   6.558   4.689  10.689 -0.8067  0.4179 -0.0316
  313MOL0     C42122   6.453   4.695  10.625  0.6987  0.8639 -0.5941
  313MOL0     O42123   6.422   4.611  10.517  0.0758  0.4626  0.0122
  313MOL0     C42124   6.497   4.497  10.508  0.2603  0.4341 -0.1664
  313MOL0     C42125   6.442   4.372  10.543 -1.0892 -0.6311  0.6566
  313MOL0     C42126   6.504   4.250  10.519  0.5431 -0.2901 -0.1387
  313MOL0     C42127   6.636   4.256  10.466 -0.8257  0.2786  0.0320
  313MOL0     O42128   6.723   4.151  10.442 -0.2991  0.3274  0.2843
  313MOL0     C42129   6.685   4.011  10.464 -0.6666  0.1285  0.0924
  313MOL0     C42130   6.779   3.911  10.394  0.8541  0.3578 -0.5922
  313MOL0     C42131   6.918   3.916  10.460 -0.2407 -0.6031  0.1515
  313MOL0     C42132   7.005   3.800  10.423  0.0236  0.5271 -0.1901
  313MOL0     C42133   7.139   3.806  10.490 -1.7857 -0.1144 -0.4581
  313MOL0     C42134   7.221   3.677  10.469 -0.0504  0.1038 -0.9204
  313MOL0     C42135   7.181   3.537  10.523  0.5799 -0.3189  0.0853
  313MOL0     C42136   7.300   3.450  10.577 -0.6477  0.0251  0.0637
  313MOL0     N42137   7.377   3.389  10.473  0.3163 -0.7585  0.2699
  313MOL0     C42138   7.424   3.259  10.482  0.3163  0.7805  0.6093
  313MOL0     C42139   7.514   3.239  10.380 -0.4752 -0.3838  0.9673
  313MOL0     C42140   7.605   3.129  10.356  0.4017  0.7955 -0.0780
  313MOL0     C42141   7.735   3.155  10.288 -0.0660  0.1024 -0.1974
  313MOL0     C42142   7.815   3.246  10.378  0.9573 -0.3828 -0.8339
  313MOL0     C42143   7.831   3.378  10.308 -0.2663 -0.3559  0.0081
  313MOL0     O42144   7.841   3.486  10.411 -0.0192 -0.0313  0.4402
  313MOL0     C42145   7.962   3.548  10.437  0.3842 -0.0971 -0.6225
  313MOL0     C42146   8.089   3.505  10.403 -0.2497  0.3711 -0.4334
  313MOL0     C42147   8.200   3.570  10.456 -0.2414 -0.6580 -0.0458
  313MOL0     C42148   8.190   3.681  10.536 -1.1821  0.0484 -0.1163
  313MOL0     C42149   8.312   3.755  10.567 -0.1973  0.5642  0.5125
  313MOL0     O42150   8.432   3.697  10.559  0.3000 -0.2734 -0.4440
  313MOL0     C42151   8.535   3.788  10.540  0.6117 -0.3175 -0.6340
  313MOL0     C42152   8.627   3.811  10.642  0.2114  0.3511  0.1601
  313MOL0     C42153   8.748   3.872  10.611  0.0198  0.1723 -0.9144
  313MOL0     C42154   8.780   3.911  10.481 -0.1113 -0.6593 -1.1193
  313MOL0     O42155   8.904   3.966  10.437  0.5636  0.4966  0.2433
  313MOL0     C42156   9.016   3.977  10.527  0.3530 -0.4100 -0.6789
  313MOL0     C42157   8.993   4.114  10.602 -0.4320 -0.0218 -0.2428
  313MOL0     C42158   8.957   4.235  10.516 -0.0271 -0.6116 -0.0582
  313MOL0     C42159   9.056   4.247  10.397  0.4289 -0.1686 -0.0406
  313MOL0     C42160   9.042   4.372  10.313  0.4720 -0.5205 -0.5209
  313MOL0     C42161   9.051   4.500  10.394  0.1298 -0.6775 -0.5833
  313MOL0     C42162   9.193   4.536  10.464  0.9632  0.5100  0.3725
  313MOL0     C42163   9.164   4.665  10.553  0.2904  0.4866 -0.1150
  313MOL0    Cl42164   9.178   4.808  10.468 -0.1059 -0.3816  0.3282
  313MOL0     C42165   8.688   3.894  10.384 -0.2829  0.0474 -0.3690
  313MOL0     C42166   8.573   3.831  10.410  0.0048 -0.5796  0.4683
  313MOL0     O42167   8.291   3.870  10.605 -0.5447 -0.1236 -0.3916
  313MOL0     C42168   8.063   3.727  10.570  0.2683  0.1357 -0.6471
  313MOL0     C42169   7.953   3.667  10.508 -0.4382 -0.2529 -0.1207
  313MOL0     N42170   7.521   3.357  10.313 -0.2645  0.3910  1.0672
  313MOL0     N42171   7.443   3.445  10.374 -0.0544 -0.5236  0.1112
  313MOL0     C42172   6.687   4.380  10.427  0.1659 -0.1653 -0.4314
  313MOL0     C42173   6.619   4.497  10.447 -0.8685  0.2830  0.1223
  313MOL0     C42174   6.355   4.810  10.648 -0.2395  0.5135  0.3447
  313MOL0     C42175   6.244   4.825  10.557  0.1600  0.4545  0.5801
  313MOL0     C42176   6.162   4.939  10.567  1.0630 -0.1067  0.1163
  313MOL0     C42177   6.196   5.042  10.649  0.2466  0.2340 -0.9179
  313MOL0     O42178   6.134   5.163  10.654  0.0904 -0.2077 -0.8362
  313MOL0     C42179   5.996   5.155  10.623 -0.2927 -0.0070 -1.0004
  313MOL0     C42180   5.931   5.237  10.735 -0.4333  0.2059  0.4670
  313MOL0     C42181   5.782   5.217  10.741  0.3759 -0.1932  0.4114
  313MOL0     C42182   5.719   5.340  10.808  0.6659  0.4374 -0.4752
  313MOL0     C42183   5.729   5.312  10.955 -0.6852 -0.8709  0.2052
  313MOL0     C42184   5.765   5.301  11.069  0.7538  0.1367 -0.1966
  313MOL0     C42185   6.306   5.028  10.728  0.2209 -0.1487  0.0825
  313MOL0     C42186   6.385   4.917  10.732  0.9658  0.3915 -0.9283
  313MOL0     C42187   6.490   4.931  10.837 -0.9789 -0.3075  0.3298
  313MOL0     H42188   6.350   4.372  10.601 -0.8803 -1.4851  1.0093
  313MOL0     H42189   6.464   4.150  10.531  0.5597 -1.0098 -4.4825
  313MOL0     H42190   6.682   3.994  10.572 -0.2927 -0.4726  0.0106
  313MOL0     H42191   6.583   3.999  10.426 -0.7914  1.9143 -0.2403
  313MOL0     H42192   6.785   3.933  10.287 -3.1420  2.8069 -0.5122
  313MOL0     H42193   6.734   3.813  10.413 -1.4584  1.5775  0.6088
  313MOL0     H42194   6.901   3.918  10.568 -1.5851 -1.6136 -0.0144
  313MOL0     H42195   6.961   4.010  10.425 -2.0227 -0.2391 -1.2482
  313MOL0     H42196   6.957   3.705  10.451 -0.0791 -0.3690 -3.0711
  313MOL0     H42197   7.025   3.785  10.317 -0.0536 -2.8046  0.1609
  313MOL0     H42198   7.208   3.885  10.460  2.7775 -2.1856  3.2712
  313MOL0     H42199   7.128   3.825  10.598 -0.5980 -1.2357 -0.1112
  313MOL0     H42200   7.243   3.662  10.363 -0.2358  0.2438 -0.9787
  313MOL0     H42201   7.316   3.688  10.522 -0.4116 -2.7848  0.4884
  313MOL0     H42202   7.125   3.483  10.446 -0.5546  0.5511  0.2732
  313MOL0     H42203   7.108   3.552  10.603  0.4723 -1.2345  0.1739
  313MOL0     H42204   7.374   3.511  10.630  1.0634  0.3262 -2.4786
  313MOL0     H42205   7.256   3.377  10.645  0.9460 -0.3280  0.7432
  313MOL0     H42206   7.400   3.180  10.551 -1.8106 -1.2187 -2.1679
  313MOL0     H42207   7.632   3.075  10.448  1.0977 -0.5830 -1.0369
  313MOL0     H42208   7.559   3.058  10.287  0.4789  0.2909  0.3793
  313MOL0     H42209   7.791   3.065  10.260 -0.6108  0.3714 -2.3352
  313MOL0     H42210   7.719   3.207  10.193  0.0817 -2.5872 -1.8035
  313MOL0     H42211   7.913   3.210  10.410  0.7610  0.9087  1.4641
  313MOL0     H42212   7.767   3.271  10.473  0.8619 -0.4750 -0.8573
  313MOL0     H42213   7.747   3.414  10.248  0.6904  2.1740  0.0825
  313MOL0     H42214   7.908   3.373  10.231 -3.6775 -1.8415 -3.6842
  313MOL0     H42215   8.107   3.412  10.351 -0.4321  1.8079 -3.2701
  313MOL0     H42216   8.297   3.536  10.423  0.6037  2.1001 -0.6367
  313MOL0     H42217   8.603   3.781  10.743 -0.6314 -0.1663 -0.1769
  313MOL0     H42218   8.816   3.873  10.696 -0.7836 -1.2908 -0.2114
  313MOL0     H42219   8.997   3.897  10.599  0.0474 -1.8215 -2.2851
  313MOL0     H42220   9.108   3.964  10.470 -1.0178  0.0702 -3.1007
  313MOL0     H42221   8.909   4.092  10.667 -0.2542 -2.5131 -0.7476
  313MOL0     H42222   9.080   4.149  10.659 -0.7104  1.2565 -0.5628
  313MOL0     H42223   8.852   4.232  10.485 -0.3998  0.1978  1.0933
  313MOL0     H42224   8.956   4.321  10.583 -2.2280 -0.3376 -0.3545
  313MOL0     H42225   9.037   4.157  10.339  2.1101 -2.0929  2.1992
  313MOL0     H42226   9.162   4.252  10.425  0.1865  0.2181  0.8361
  313MOL0     H42227   8.946   4.355  10.262  0.5297  0.5174 -1.0176
  313MOL0     H42228   9.120   4.368  10.237  1.1802  1.4893  0.0432
  313MOL0     H42229   9.027   4.582  10.326 -3.6174 -0.6293  0.5809
  313MOL0     H42230   8.974   4.484  10.470 -0.6979  0.5591 -1.1447
  313MOL0     H42231   9.266   4.549  10.384 -2.8554  0.4862 -3.4926
  313MOL0     H42232   9.222   4.448  10.523  1.2810 -0.2217 -0.8404
  313MOL0     H42233   9.068   4.652  10.604 -1.6359 -1.7800 -3.8671
  313MOL0     H42234   9.242   4.654  10.629  1.9787 -3.3556 -2.1191
  313MOL0     H42235   8.717   3.917  10.282  0.6254  0.5931  0.0074
  313MOL0     H42236   8.495   3.806  10.338  1.0987 -1.6064 -0.3956
  313MOL0     H42237   8.052   3.812  10.637  1.5934 -1.8570  2.2727
  313MOL0     H42238   7.851   3.695  10.536 -1.2176 -0.8608 -2.2070
  313MOL0     H42239   6.779   4.382  10.370 -2.0176 -4.0244 -4.7987
  313MOL0     H42240   6.664   4.589  10.412 -0.6028 -0.9492 -3.1322
  313MOL0     H42241   6.223   4.751  10.480  1.4294 -0.2304  0.8624
  313MOL0     H42242   6.073   4.937  10.505  0.2772 -1.8975  1.2290
  313MOL0     H42243   5.952   5.058  10.648 -0.4589  0.6427  1.4198
  313MOL0     H42244   5.984   5.193  10.521  4.5405 -1.1327 -2.2613
  313MOL0     H42245   5.966   5.338  10.711  4.5060 -0.4858  3.3088
  313MOL0     H42246   5.977   5.201  10.828  0.7188 -1.5741 -0.7331
  313MOL0     H42247   5.757   5.121  10.787  1.5646 -0.0246  1.4354
  313MOL0     H42248   5.731   5.225  10.644 -0.1890  2.1035  0.8243
  313MOL0     H42249   5.775   5.432  10.787  1.5354 -0.1578 -0.8536
  313MOL0     H42250   5.617   5.346  10.771  1.3356  0.1311 -2.5133
  313MOL0     H42251   5.813   5.287  11.164 -2.3777  1.3045  1.7016
  313MOL0     H42252   6.334   5.113  10.789  1.0903 -0.6589  0.4195
  313MOL0     H42253   6.486   4.846  10.906  0.9441 -1.1865 -0.5671
  313MOL0     H42254   6.592   4.922  10.800 -2.2353 -0.8378 -3.4014
  313MOL0     H42255   6.487   5.026  10.892  0.1449  0.5011 -0.9255
  314MOL0     O42256   8.221  11.118   7.675  0.7610  0.7154  0.5637
  314MOL0     C42257   8.115  11.149   7.729  0.4119  0.7589  0.5081
  314MOL0     O42258   8.095  11.248   7.824 -0.3810 -0.4699  0.2272
  314MOL0     C42259   8.197  11.336   7.838 -0.9850 -0.3115 -0.1767
  314MOL0     C42260   8.253  11.356   7.967  0.6810  0.6247 -1.0256
  314MOL0     C42261   8.341  11.459   8.003  1.1178  0.9199 -0.2979
  314MOL0     C42262   8.378  11.546   7.911 -0.6389 -0.7444  0.0237
  314MOL0     O42263   8.456  11.659   7.927  0.5159 -0.1045  0.8081
  314MOL0     C42264   8.533  11.655   8.048 -0.2949 -0.4507 -0.5470
  314MOL0     C42265   8.635  11.769   8.036  0.5054 -0.3919  0.4510
  314MOL0     C42266   8.714  11.805   8.160  0.3742  0.2792 -0.3063
  314MOL0     C42267   8.756  11.679   8.225  0.2498  0.7411  0.3107
  314MOL0     C42268   8.869  11.710   8.333  0.4827  0.7879  0.6260
  314MOL0     C42269   8.822  11.747   8.466  0.0748 -0.5909 -0.2969
  314MOL0     C42270   8.767  11.635   8.559 -0.5037  1.1094  0.7298
  314MOL0     C42271   8.677  11.686   8.675 -0.5514 -0.1657 -0.3747
  314MOL0     N42272   8.532  11.697   8.637 -0.3725 -0.1790 -1.1494
  314MOL0     C42273   8.479  11.732   8.517  0.8408  0.9095 -0.1474
  314MOL0     C42274   8.352  11.667   8.510 -0.6002  0.0350 -0.3110
  314MOL0     C42275   8.248  11.655   8.404  0.4557 -0.2718 -0.6738
  314MOL0     C42276   8.120  11.729   8.452  0.4592 -0.7331 -0.0836
  314MOL0     C42277   8.053  11.802   8.335 -0.3965  0.3968 -1.1292
  314MOL0     C42278   8.010  11.717   8.215 -0.2104 -0.1983  0.1044
  314MOL0     O42279   7.920  11.606   8.259  0.1750  0.5272  0.5862
  314MOL0     C42280   7.854  11.536   8.165 -0.0247 -0.0676 -0.7692
  314MOL0     C42281   7.737  11.466   8.203 -0.6988 -0.2544 -0.4267
  314MOL0     C42282   7.666  11.393   8.098  0.7033 -0.8010 -0.4223
  314MOL0     C42283   7.715  11.385   7.962  0.1713  0.8209 -0.1644
  314MOL0     C42284   7.644  11.314   7.853 -0.5227 -1.1685 -0.4615
  314MOL0     O42285   7.689  11.346   7.734 -0.0393 -0.3367 -0.3249
  314MOL0     C42286   7.621  11.310   7.626  1.6041  0.4028  0.3755
  314MOL0     C42287   7.702  11.238   7.526  0.5661 -0.2253  0.6192
  314MOL0     C42288   7.636  11.199   7.409  0.0276 -0.5838  0.3158
  314MOL0     C42289   7.500  11.227   7.380 -0.5007 -0.2335  0.2083
  314MOL0     O42290   7.446  11.187   7.257 -1.1002 -0.0248 -0.1211
  314MOL0     C42291   7.305  11.155   7.229 -0.0641  0.5220  0.5896
  314MOL0     C42292   7.229  11.289   7.196 -0.8198 -0.4654 -0.0127
  314MOL0     C42293   7.078  11.289   7.180  0.9810  0.4496 -0.4582
  314MOL0     C42294   7.025  11.400   7.088 -0.5787  0.0016 -0.2735
  314MOL0     C42295   6.872  11.400   7.080 -0.3664  0.0159  0.4271
  314MOL0     C42296   6.808  11.517   7.013 -0.3475 -0.4374  0.2193
  314MOL0     C42297   6.856  11.540   6.860 -0.0581  0.5995  0.5529
  314MOL0     C42298   6.779  11.661   6.796 -0.7362  0.5275  0.3635
  314MOL0    Cl42299   6.786  11.647   6.614  0.1026  0.0985  0.3474
  314MOL0     C42300   7.438  11.303   7.474 -0.3534  0.2226 -0.0531
  314MOL0     C42301   7.493  11.351   7.597 -0.7164  0.7247 -0.9539
  314MOL0     O42302   7.546  11.238   7.884 -0.6651 -0.8037 -0.2838
  314MOL0     C42303   7.836  11.453   7.939  0.2839 -0.8980  0.2677
  314MOL0     C42304   7.897  11.532   8.030 -0.4303  0.5144 -0.3597
  314MOL0     N42305   8.338  11.607   8.634  0.4733 -0.2106 -0.0730
  314MOL0     N42306   8.442  11.623   8.709  0.0286  0.6533  1.4424
  314MOL0     C42307   8.331  11.531   7.779  0.3519  0.2233  0.8424
  314MOL0     C42308   8.242  11.430   7.733 -0.7736  1.0015  1.0078
  314MOL0     C42309   8.002  11.054   7.706  0.3639 -0.3089  0.1089
  314MOL0     C42310   7.906  11.029   7.811 -1.0493 -0.9373  0.6587
  314MOL0     C42311   7.794  10.954   7.785  0.5791  0.0682 -0.4334
  314MOL0     C42312   7.766  10.907   7.656 -0.2021 -0.1132 -0.1335
  314MOL0     O42313   7.653  10.841   7.618 -0.4817 -0.6755 -0.4604
  314MOL0     C42314   7.553  10.809   7.715 -0.5336 -0.4730 -0.2241
  314MOL0     C42315   7.444  10.919   7.748 -1.1419  0.2351 -0.5325
  314MOL0     C42316   7.352  10.945   7.630  0.1320 -0.0367 -0.5949
  314MOL0     C42317   7.235  11.033   7.678 -0.1219 -0.0015  0.6912
  314MOL0     C42318   7.123  11.004   7.582  0.3376 -0.4423 -0.6842
  314MOL0     C42319   7.026  10.982   7.508 -0.4377 -0.3149  0.0273
  314MOL0     C42320   7.859  10.934   7.553  0.3095  0.5196  0.3387
  314MOL0     C42321   7.975  11.007   7.575  0.1922 -0.2277 -0.3368
  314MOL0     C42322   8.068  11.029   7.455  0.4290  0.7133  0.6109
  314MOL0     H42323   8.209  11.294   8.044  1.8890  0.5409 -0.3797
  314MOL0     H42324   8.357  11.467   8.110 -0.2592 -3.0584  0.3581
  314MOL0     H42325   8.477  11.669   8.141 -1.3864 -1.5067 -1.0081
  314MOL0     H42326   8.585  11.560   8.064  1.7125  0.9469  2.0976
  314MOL0     H42327   8.580  11.860   8.010  2.9343  1.1715  0.5024
  314MOL0     H42328   8.705  11.740   7.957 -0.3321 -3.8451  0.7850
  314MOL0     H42329   8.660  11.860   8.237  2.2454  1.9638 -0.1257
  314MOL0     H42330   8.803  11.864   8.138  0.4520  0.9228  1.5736
  314MOL0     H42331   8.671  11.628   8.271  1.2655 -1.0797  0.2849
  314MOL0     H42332   8.806  11.603   8.164 -0.6107  0.7077 -0.3611
  314MOL0     H42333   8.942  11.629   8.344  0.9854  1.0163 -0.8130
  314MOL0     H42334   8.933  11.790   8.295 -2.6923  2.5473 -1.4063
  314MOL0     H42335   8.903  11.803   8.513 -0.5987  1.3387 -1.3209
  314MOL0     H42336   8.739  11.818   8.463 -1.2171 -1.7698  3.0438
  314MOL0     H42337   8.852  11.576   8.594 -0.8150  0.1501 -0.0797
  314MOL0     H42338   8.710  11.560   8.505 -0.4616 -1.2227  3.6795
  314MOL0     H42339   8.675  11.621   8.763  1.1121  1.3375  0.8406
  314MOL0     H42340   8.698  11.784   8.718 -2.7914  0.0014  0.4885
  314MOL0     H42341   8.541  11.784   8.445  2.3656 -1.6995 -0.8678
  314MOL0     H42342   8.277  11.711   8.315 -1.4984 -1.8080 -2.3778
  314MOL0     H42343   8.226  11.551   8.376  0.2875 -0.2727 -0.5456
  314MOL0     H42344   8.057  11.663   8.512  0.4628  2.8447  4.3949
  314MOL0     H42345   8.154  11.808   8.519 -0.6925 -0.2418 -0.0632
  314MOL0     H42346   8.113  11.881   8.289 -0.4613  0.8904 -0.3706
  314MOL0     H42347   7.960  11.844   8.373 -1.6577 -2.0032 -1.3562
  314MOL0     H42348   8.096  11.674   8.163 -1.7338 -2.6513 -0.5635
  314MOL0     H42349   7.959  11.776   8.138 -2.2502 -0.2110  1.3602
  314MOL0     H42350   7.708  11.471   8.308 -2.4680 -2.8290 -0.7020
  314MOL0     H42351   7.580  11.333   8.125 -0.0578  0.1467 -0.6632
  314MOL0     H42352   7.804  11.203   7.541  0.3951 -3.6458 -3.8593
  314MOL0     H42353   7.695  11.146   7.334  0.9256  2.6344 -1.4468
  314MOL0     H42354   7.301  11.086   7.144  0.5582 -1.4036  2.0578
  314MOL0     H42355   7.261  11.106   7.317  0.9023 -2.1555 -0.3106
  314MOL0     H42356   7.257  11.357   7.277 -0.0646 -0.4792 -0.2513
  314MOL0     H42357   7.279  11.316   7.103 -1.5306 -1.3409 -0.6609
  314MOL0     H42358   7.044  11.194   7.137 -0.7742  0.7153  0.2362
  314MOL0     H42359   7.027  11.302   7.276 -1.2992  0.7296 -1.6217
  314MOL0     H42360   7.081  11.373   6.998  1.6360 -1.7063  1.4992
  314MOL0     H42361   7.048  11.503   7.116  0.4585  0.2293 -1.8660
  314MOL0     H42362   6.823  11.396   7.177 -3.6270  2.1608 -0.9616
  314MOL0     H42363   6.846  11.306   7.030 -1.0797  0.7873 -0.6909
  314MOL0     H42364   6.701  11.492   7.005 -1.1707  1.4110  3.4657
  314MOL0     H42365   6.819  11.611   7.067  0.8596  0.9448 -2.2771
  314MOL0     H42366   6.829  11.450   6.804  0.9703  0.5750  0.0771
  314MOL0     H42367   6.962  11.565   6.845  0.3161 -1.9269 -1.8077
  314MOL0     H42368   6.676  11.659   6.832 -1.2128 -1.0199 -0.9769
  314MOL0     H42369   6.829  11.755   6.822 -1.0772  0.2418  2.1440
  314MOL0     H42370   7.333  11.325   7.455 -0.8138 -2.0752 -0.4052
  314MOL0     H42371   7.431  11.415   7.658 -0.5692  0.3522 -0.4017
  314MOL0     H42372   7.886  11.440   7.844  0.5870 -2.1302  0.5754
  314MOL0     H42373   7.981  11.586   7.987  0.5030 -0.8069 -0.2585
  314MOL0     H42374   8.368  11.603   7.706 -0.3907 -1.1572 -0.9859
  314MOL0     H42375   8.193  11.437   7.637 -2.1635  3.2008  1.8021
  314MOL0     H42376   7.923  11.076   7.907 -0.2885 -3.1461  1.6641
  314MOL0     H42377   7.731  10.921   7.867 -4.6620  2.3613 -3.0808
  314MOL0     H42378   7.601  10.776   7.808 -0.6330 -2.1873 -0.7520
  314MOL0     H42379   7.489  10.727   7.681 -0.1293 -0.6680 -0.5180
  314MOL0     H42380   7.494  11.016   7.761 -1.5275  0.6208 -1.7548
  314MOL0     H42381   7.386  10.873   7.828 -0.1147 -1.4869 -0.7387
  314MOL0     H42382   7.307  10.851   7.598  3.2180 -2.3007  1.1754
  314MOL0     H42383   7.407  10.997   7.552  1.0568  1.5514  1.0286
  314MOL0     H42384   7.201  11.012   7.780  0.6159 -2.9431  0.3997
  314MOL0     H42385   7.258  11.140   7.674 -0.1104 -0.0186  0.2637
  314MOL0     H42386   6.939  10.973   7.446  0.3131  4.3293 -2.0730
  314MOL0     H42387   7.834  10.897   7.454 -0.5071 -1.0857  1.1096
  314MOL0     H42388   8.024  11.027   7.354  1.9070  1.8923 -0.0896
  314MOL0     H42389   8.107  11.131   7.456  0.7218  0.6289 -0.4619
  314MOL0     H42390   8.149  10.957   7.466 -3.0594 -3.5791  1.2853
  315MOL0     O42391   9.070   5.935   8.384 -0.1033 -0.7038  0.0199
  315MOL0     C42392   9.016   5.944   8.493 -0.5417  0.7251 -0.1469
  315MOL0     O42393   8.880   5.947   8.510  0.0586 -0.7715 -0.3859
  315MOL0     C42394   8.808   5.982   8.394  0.1313  1.6475 -0.5270
  315MOL0     C42395   8.725   5.891   8.326  0.0198 -0.8205 -0.6234
  315MOL0     C42396   8.651   5.928   8.221  0.2535  0.0332  0.5925
  315MOL0     C42397   8.648   6.065   8.188 -0.7592 -0.1768  0.4586
  315MOL0     O42398   8.561   6.105   8.085 -0.2942 -0.6611  0.0431
  315MOL0     C42399   8.583   6.058   7.958  0.2035  0.6020 -0.5723
  315MOL0     C42400   8.686   6.135   7.881 -0.9375  0.4879  0.0527
  315MOL0     C42401   8.667   6.291   7.865 -0.2970  0.6773  0.2747
  315MOL0     C42402   8.778   6.344   7.775 -0.2229 -0.7774 -0.1014
  315MOL0     C42403   8.771   6.306   7.632 -0.3209  0.7688 -0.1211
  315MOL0     C42404   8.864   6.368   7.534  0.7581 -0.3692  0.2125
  315MOL0     C42405   8.839   6.313   7.396 -0.8525  0.5826  0.0739
  315MOL0     C42406   8.847   6.157   7.395  0.0784  0.4464  0.1303
  315MOL0     N42407   8.856   6.111   7.252 -0.2406 -0.3199  0.1628
  315MOL0     C42408   8.797   6.171   7.137  0.1386 -1.0161 -0.0152
  315MOL0     C42409   8.844   6.104   7.028  0.2826  0.0434 -0.7413
  315MOL0     C42410   8.824   6.154   6.893  0.4517 -0.1134 -0.1814
  315MOL0     C42411   8.682   6.103   6.846 -0.2421  0.4188 -0.3408
  315MOL0     C42412   8.630   6.204   6.742  0.3104  0.7081 -0.5025
  315MOL0     C42413   8.496   6.172   6.687 -0.7733 -0.5158 -0.2947
  315MOL0     O42414   8.402   6.196   6.800 -0.1434 -0.4314  0.5942
  315MOL0     C42415   8.270   6.164   6.779  0.7257 -0.0385 -1.3710
  315MOL0     C42416   8.212   6.152   6.652 -0.0999 -0.2637 -0.2806
  315MOL0     C42417   8.069   6.131   6.643 -0.6016  0.9538 -0.3056
  315MOL0     C42418   7.992   6.124   6.754  0.0826 -1.1314  0.5290
  315MOL0     C42419   7.848   6.102   6.749  0.6278 -0.6160 -0.7995
  315MOL0     O42420   7.810   6.032   6.639  0.0220 -0.3912 -0.1125
  315MOL0     C42421   7.678   6.007   6.638 -0.0780 -0.2128 -0.0783
  315MOL0     C42422   7.647   5.867   6.640 -0.4604  0.5259  0.0920
  315MOL0     C42423   7.517   5.821   6.635 -0.5153  0.6588  0.5610
  315MOL0     C42424   7.413   5.911   6.650  1.1589  0.5224 -0.4197
  315MOL0     O42425   7.287   5.863   6.647  0.6497 -0.5587  0.7619
  315MOL0     C42426   7.170   5.945   6.683  0.4770 -0.0816 -0.7842
  315MOL0     C42427   7.053   5.857   6.735  0.0172  0.6891 -1.1076
  315MOL0     C42428   6.915   5.925   6.727  0.5516  0.6997  0.2191
  315MOL0     C42429   6.811   5.831   6.781  0.6467 -0.0360  0.1698
  315MOL0     C42430   6.657   5.884   6.753 -0.4818  0.1141 -0.1030
  315MOL0     C42431   6.611   5.851   6.615 -0.4474  1.0612  0.1985
  315MOL0     C42432   6.456   5.857   6.589 -0.0213 -0.6102  1.2115
  315MOL0     C42433   6.403   5.999   6.600 -0.6568  1.0517  1.0295
  315MOL0    Cl42434   6.230   5.999   6.566 -0.3569  0.1102 -0.4469
  315MOL0     C42435   7.440   6.042   6.634  0.9129  0.6073  0.4195
  315MOL0     C42436   7.570   6.095   6.622 -0.0834 -0.2537  0.2982
  315MOL0     O42437   7.771   6.143   6.837 -0.4690  0.1341 -0.7408
  315MOL0     C42438   8.049   6.154   6.880  0.2142  0.8068 -0.4593
  315MOL0     C42439   8.184   6.163   6.898 -0.7257  0.1314  0.7372
  315MOL0     N42440   8.930   6.012   7.077  0.1415 -0.2795 -0.2544
  315MOL0     N42441   8.938   6.012   7.206  0.3706  0.5649  0.1943
  315MOL0     C42442   8.732   6.164   8.254  0.3857  0.7266  0.0439
  315MOL0     C42443   8.808   6.117   8.364  0.3124 -0.2409 -0.0358
  315MOL0     C42444   9.108   5.935   8.608  0.5265 -1.1367  0.1359
  315MOL0     C42445   9.248   5.958   8.585 -0.3955 -0.3849 -0.5720
  315MOL0     C42446   9.336   5.927   8.689  0.0449  0.0778  0.2864
  315MOL0     C42447   9.297   5.901   8.818 -0.4363 -0.3654  0.8429
  315MOL0     O42448   9.373   5.890   8.927  0.2215 -0.3476  0.6580
  315MOL0     C42449   9.522   5.877   8.929  0.2942 -1.2734  0.6235
  315MOL0     C42450   9.577   5.815   9.062 -0.3529 -0.2225 -0.2349
  315MOL0     C42451   9.729   5.788   9.052  0.4427  0.4561  0.0853
  315MOL0     C42452   9.777   5.743   9.190 -0.2180 -0.4117  0.6346
  315MOL0     C42453   9.721   5.623   9.249  1.0256  0.0842 -1.0691
  315MOL0     C42454   9.692   5.518   9.290  0.2575 -0.6245  0.7299
  315MOL0     C42455   9.158   5.898   8.835 -0.5863 -0.1701 -0.1288
  315MOL0     C42456   9.061   5.911   8.735  0.7313  0.9440  0.4991
  315MOL0     C42457   8.922   5.878   8.780  0.4264 -0.5245  0.2350
  315MOL0     H42458   8.711   5.787   8.354 -1.0168 -1.3557 -2.9029
  315MOL0     H42459   8.597   5.854   8.163  2.1178  0.1514 -1.4018
  315MOL0     H42460   8.612   5.952   7.958 -3.0231 -0.4251 -1.7654
  315MOL0     H42461   8.494   6.057   7.894  0.5991  1.2665 -1.1460
  315MOL0     H42462   8.700   6.092   7.782 -0.6339 -1.9810  1.0914
  315MOL0     H42463   8.779   6.116   7.936  1.5334  2.1078 -3.2170
  315MOL0     H42464   8.671   6.337   7.964 -0.7272 -2.4277  1.8597
  315MOL0     H42465   8.573   6.316   7.815  1.9343  2.8170 -3.3066
  315MOL0     H42466   8.765   6.453   7.777  2.0855 -0.3202 -2.8675
  315MOL0     H42467   8.867   6.306   7.824 -1.2223 -2.2893  0.6136
  315MOL0     H42468   8.782   6.197   7.626 -3.4485  0.3555  0.0516
  315MOL0     H42469   8.667   6.318   7.600 -0.3069 -1.3436 -1.1558
  315MOL0     H42470   8.869   6.476   7.519  0.2215 -0.7340 -3.7528
  315MOL0     H42471   8.960   6.336   7.576  2.3685  2.3619 -1.0703
  315MOL0     H42472   8.914   6.359   7.330  0.7164 -1.8808  0.0236
  315MOL0     H42473   8.738   6.347   7.370 -0.8848  0.0309 -0.5382
  315MOL0     H42474   8.925   6.116   7.462 -0.3446 -0.6290 -0.0111
  315MOL0     H42475   8.755   6.120   7.440  0.0004  0.6081  0.1038
  315MOL0     H42476   8.713   6.240   7.129  2.3480  2.0216  1.1014
  315MOL0     H42477   8.825   6.263   6.898  4.8132 -0.0103  0.4533
  315MOL0     H42478   8.904   6.119   6.827  1.4627 -0.0695  0.9813
  315MOL0     H42479   8.702   6.007   6.797 -1.6172 -0.3507  0.5372
  315MOL0     H42480   8.614   6.087   6.930  0.5987 -1.3333  0.0561
  315MOL0     H42481   8.705   6.218   6.664 -0.5467  2.8789 -1.0328
  315MOL0     H42482   8.617   6.306   6.781  0.9541  0.5662  0.0934
  315MOL0     H42483   8.496   6.075   6.637  2.7459  0.5967 -2.8526
  315MOL0     H42484   8.488   6.249   6.610 -3.9402 -1.3701 -0.9530
  315MOL0     H42485   8.271   6.150   6.561  1.6244 -2.3698  0.7870
  315MOL0     H42486   8.019   6.115   6.548 -2.2297 -0.0804  0.6754
  315MOL0     H42487   7.729   5.798   6.623  0.9295  2.8971 -4.0448
  315MOL0     H42488   7.505   5.715   6.619  0.6173  0.4959  0.7364
  315MOL0     H42489   7.194   6.026   6.752  3.7402 -1.5923  0.0938
  315MOL0     H42490   7.131   5.994   6.594 -4.1824 -0.2399  0.8958
  315MOL0     H42491   7.050   5.763   6.679 -2.6292 -0.3964  0.6425
  315MOL0     H42492   7.081   5.840   6.839 -1.6371 -1.3747 -0.9173
  315MOL0     H42493   6.910   6.015   6.788 -0.4504  0.6991  0.1509
  315MOL0     H42494   6.898   5.961   6.625  1.1738  1.4208  0.3661
  315MOL0     H42495   6.829   5.820   6.888  1.9579 -2.7289 -0.2509
  315MOL0     H42496   6.821   5.726   6.755 -1.0097 -0.4283  0.9899
  315MOL0     H42497   6.661   5.992   6.768 -1.0170  0.1063  0.1114
  315MOL0     H42498   6.586   5.844   6.826 -0.4829  0.3652  0.0348
  315MOL0     H42499   6.672   5.908   6.544 -0.1947  1.2833  0.5962
  315MOL0     H42500   6.625   5.744   6.596  3.3343  1.5213 -0.2784
  315MOL0     H42501   6.395   5.799   6.659 -1.4441  1.5445  1.8369
  315MOL0     H42502   6.426   5.804   6.498  0.3316 -2.3038  2.0375
  315MOL0     H42503   6.434   6.035   6.699  1.3174  2.2098  0.0548
  315MOL0     H42504   6.458   6.054   6.523 -1.8589 -1.0635 -1.4976
  315MOL0     H42505   7.358   6.112   6.620  0.0084 -0.4876  0.0205
  315MOL0     H42506   7.582   6.201   6.602 -1.2298 -0.7198 -3.5471
  315MOL0     H42507   7.981   6.164   6.964  0.9200  1.6148  0.0213
  315MOL0     H42508   8.240   6.184   6.989 -3.5170  0.9721  2.3649
  315MOL0     H42509   8.733   6.264   8.212 -0.7816  0.7101 -0.0614
  315MOL0     H42510   8.879   6.188   8.404  2.1051 -1.5878 -0.6654
  315MOL0     H42511   9.283   5.992   8.489  0.9087 -0.0684  0.0053
  315MOL0     H42512   9.442   5.935   8.666 -0.2570 -1.0839 -1.7643
  315MOL0     H42513   9.572   5.970   8.902  0.5780 -2.0353 -1.6764
  315MOL0     H42514   9.548   5.807   8.849  2.2670 -1.5219  1.4261
  315MOL0     H42515   9.534   5.718   9.090 -0.9627  0.4478  1.2987
  315MOL0     H42516   9.564   5.878   9.150  0.5236 -2.8397  1.9221
  315MOL0     H42517   9.774   5.883   9.022 -2.1331  1.1128 -2.0542
  315MOL0     H42518   9.751   5.704   8.986 -2.1625 -1.0676  1.0131
  315MOL0     H42519   9.886   5.735   9.185 -0.1212 -0.0432  1.8133
  315MOL0     H42520   9.756   5.830   9.253 -2.4458  0.3942 -1.1005
  315MOL0     H42521   9.666   5.423   9.333 -0.6318 -0.6934  0.0713
  315MOL0     H42522   9.128   5.867   8.935  1.0894 -1.8441 -0.0732
  315MOL0     H42523   8.851   5.958   8.757  0.9337 -0.5925 -1.6583
  315MOL0     H42524   8.886   5.783   8.741  2.6058 -1.6983  0.9687
  315MOL0     H42525   8.925   5.862   8.889  2.7056 -1.1745  0.1148
  316MOL0     O42526   1.318   5.779   9.841 -0.2502  0.6190 -0.6025
  316MOL0     C42527   1.317   5.812   9.721 -0.1288  0.6322 -0.2361
  316MOL0     O42528   1.421   5.860   9.646  0.0496 -1.0853 -0.4847
  316MOL0     C42529   1.536   5.918   9.702  0.9083 -0.2659  1.0402
  316MOL0     C42530   1.629   5.956   9.611 -0.0831  0.2642  0.1774
  316MOL0     C42531   1.746   6.018   9.654 -0.5185 -0.6312  0.4626
  316MOL0     C42532   1.773   6.032   9.787  0.6894 -0.1702  0.4760
  316MOL0     O42533   1.893   6.082   9.816 -0.1120  0.7516 -0.6485
  316MOL0     C42534   1.899   6.217   9.851  0.8695  1.1205 -0.3413
  316MOL0     C42535   2.045   6.263   9.833 -0.2650  0.4282 -0.1813
  316MOL0     C42536   2.061   6.410   9.871  0.0540 -0.2385 -0.3556
  316MOL0     C42537   2.102   6.498   9.755  0.3154  1.1241 -0.4017
  316MOL0     C42538   2.135   6.643   9.793 -0.7981 -0.0822  0.0138
  316MOL0     C42539   2.151   6.733   9.671  0.4043 -0.2759  0.0831
  316MOL0     C42540   2.246   6.853   9.685  0.2010 -0.1751  0.4291
  316MOL0     C42541   2.392   6.811   9.687 -0.1726 -0.1303  0.1485
  316MOL0     N42542   2.491   6.913   9.690  0.3093  0.3966  0.7155
  316MOL0     C42543   2.476   7.039   9.752 -0.7723 -0.2295 -0.4551
  316MOL0     C42544   2.594   7.099   9.741  0.1013 -0.0916  0.2348
  316MOL0     C42545   2.628   7.241   9.781 -0.5553 -0.1817 -0.5126
  316MOL0     C42546   2.703   7.244   9.911  0.0354  0.1459 -0.1004
  316MOL0     C42547   2.763   7.388   9.940 -1.1981 -0.2241 -0.8256
  316MOL0     C42548   2.810   7.399  10.087  0.3247  0.2380 -0.3875
  316MOL0     O42549   2.711   7.339  10.174 -0.2324 -1.6524 -0.1722
  316MOL0     C42550   2.601   7.402  10.233  0.2309  0.5951 -0.1110
  316MOL0     C42551   2.575   7.536  10.231 -0.5913  0.1464 -0.2949
  316MOL0     C42552   2.467   7.582  10.300 -0.7913 -0.5668 -1.3830
  316MOL0     C42553   2.385   7.502  10.372  0.5619  0.3447  0.3958
  316MOL0     C42554   2.273   7.545  10.458  0.2769 -0.0091  0.6812
  316MOL0     O42555   2.205   7.451  10.524  0.5941  0.1805 -0.9651
  316MOL0     C42556   2.097   7.509  10.590 -0.7277 -0.4665  0.5378
  316MOL0     C42557   2.108   7.598  10.697  1.0258  0.5909  0.4103
  316MOL0     C42558   1.982   7.627  10.759 -0.5793 -0.7277  0.5510
  316MOL0     C42559   1.855   7.566  10.716 -0.1339  0.7131  0.3674
  316MOL0     O42560   1.735   7.583  10.783  0.4394  0.3816  0.4390
  316MOL0     C42561   1.719   7.710  10.845 -0.1078  0.6634  0.0749
  316MOL0     C42562   1.577   7.720  10.910 -0.0358  0.0904  0.1971
  316MOL0     C42563   1.467   7.681  10.817 -0.2590 -0.2145 -0.6998
  316MOL0     C42564   1.414   7.799  10.726  0.3061 -1.1163  0.2827
  316MOL0     C42565   1.478   7.820  10.589 -0.1045  0.1611 -0.1694
  316MOL0     C42566   1.423   7.690  10.513  0.2791  0.2315  0.2332
  316MOL0     C42567   1.445   7.702  10.361  0.4101 -0.0542 -0.6145
  316MOL0     C42568   1.461   7.578  10.276 -0.3495  0.2778 -0.5774
  316MOL0    Cl42569   1.608   7.496  10.351 -0.3848  0.1379  0.0906
  316MOL0     C42570   1.855   7.497  10.596  0.2455  0.5278 -1.2367
  316MOL0     C42571   1.977   7.461  10.544  0.0377 -1.0742 -0.0545
  316MOL0     O42572   2.257   7.666  10.459  0.4325 -0.6752 -0.0708
  316MOL0     C42573   2.421   7.359  10.380  0.3780 -0.3631  0.0940
  316MOL0     C42574   2.531   7.314  10.318 -0.4680  0.4147 -0.0442
  316MOL0     N42575   2.683   7.011   9.690  0.6150  0.0917  0.2640
  316MOL0     N42576   2.624   6.898   9.665  0.0947 -0.3025 -0.5485
  316MOL0     C42577   1.684   6.004   9.877  0.3410 -0.2819 -1.3715
  316MOL0     C42578   1.558   5.954   9.833 -0.3297  0.2298 -0.4744
  316MOL0     C42579   1.190   5.784   9.651  0.1769 -0.2417  0.5717
  316MOL0     C42580   1.114   5.672   9.692  0.2541 -0.4130  0.3155
  316MOL0     C42581   0.997   5.629   9.620  0.1960 -0.0832 -0.6021
  316MOL0     C42582   0.966   5.688   9.492 -0.0566  0.3100  0.2933
  316MOL0     O42583   0.871   5.644   9.404 -0.5414 -0.0662  0.0507
  316MOL0     C42584   0.909   5.562   9.304 -0.3846  0.1905  0.0379
  316MOL0     C42585   0.787   5.505   9.228 -0.5308  0.1566 -0.0451
  316MOL0     C42586   0.709   5.403   9.318 -0.4834 -0.3958  0.3890
  316MOL0     C42587   0.556   5.402   9.276 -0.2115  0.8067 -0.1031
  316MOL0     C42588   0.536   5.395   9.129 -1.0570  0.5315  0.9224
  316MOL0     C42589   0.539   5.378   9.009  0.4836 -0.9808  0.6321
  316MOL0     C42590   1.056   5.785   9.449 -0.1333  0.2596 -1.0319
  316MOL0     C42591   1.158   5.841   9.525  0.4869 -0.3006  1.0232
  316MOL0     C42592   1.243   5.953   9.462  0.4348 -0.2936 -0.8252
  316MOL0     H42593   1.611   5.941   9.505  3.7196  1.4532 -0.8125
  316MOL0     H42594   1.819   6.051   9.581 -0.4593  0.7349  1.1167
  316MOL0     H42595   1.831   6.270   9.784  0.7038  0.6950 -0.5150
  316MOL0     H42596   1.856   6.232   9.950 -2.0488 -1.6281 -1.0366
  316MOL0     H42597   2.075   6.238   9.731 -1.5154  0.9815 -0.6935
  316MOL0     H42598   2.105   6.202   9.902  0.6243  1.4970  0.0253
  316MOL0     H42599   2.139   6.412   9.948  0.2678 -0.6981 -0.5534
  316MOL0     H42600   1.969   6.456   9.907  0.1719 -0.5251  0.3203
  316MOL0     H42601   2.183   6.449   9.700 -0.3087 -1.8504  1.1194
  316MOL0     H42602   2.021   6.503   9.680  0.0219  1.7029 -0.0511
  316MOL0     H42603   2.061   6.692   9.858 -2.4927 -1.7034 -0.6000
  316MOL0     H42604   2.232   6.640   9.844 -1.1494 -3.8922  0.7583
  316MOL0     H42605   2.188   6.673   9.587 -1.9362 -2.2327  0.3498
  316MOL0     H42606   2.065   6.792   9.638 -0.4935 -0.2250  2.3580
  316MOL0     H42607   2.213   6.899   9.779  1.5581  1.7433  0.0336
  316MOL0     H42608   2.236   6.924   9.601  0.1698 -0.6533  0.0256
  316MOL0     H42609   2.425   6.745   9.769 -1.1340  0.4395  1.0214
  316MOL0     H42610   2.407   6.755   9.594 -3.8529 -0.3147 -0.4967
  316MOL0     H42611   2.386   7.069   9.805  1.5278  3.1926  1.9586
  316MOL0     H42612   2.694   7.280   9.703 -0.0268  1.6035  0.7480
  316MOL0     H42613   2.535   7.298   9.789 -0.7221 -0.4956 -0.2451
  316MOL0     H42614   2.629   7.216   9.986  1.0588  0.4516  1.0463
  316MOL0     H42615   2.778   7.165   9.922 -1.0487 -0.7186  1.3604
  316MOL0     H42616   2.679   7.456   9.924 -2.3013 -1.7283 -1.6815
  316MOL0     H42617   2.843   7.416   9.871 -1.4356  0.0127 -1.0051
  316MOL0     H42618   2.833   7.503  10.114  1.3343 -0.4632  1.6134
  316MOL0     H42619   2.913   7.361  10.085  1.0307  1.9645  0.8750
  316MOL0     H42620   2.646   7.605  10.186  0.6517  0.7238  2.3569
  316MOL0     H42621   2.440   7.687  10.298  2.8124  0.5716  0.9409
  316MOL0     H42622   2.206   7.627  10.734  0.8279  3.3199 -0.9943
  316MOL0     H42623   1.989   7.676  10.856  0.5466  0.1004  0.0624
  316MOL0     H42624   1.797   7.724  10.921  0.4285 -5.7510  1.2499
  316MOL0     H42625   1.731   7.784  10.765  1.0966  0.2161 -0.1856
  316MOL0     H42626   1.582   7.652  10.995 -0.5388  1.2999  1.2180
  316MOL0     H42627   1.573   7.819  10.956  0.1255 -0.4297  1.3608
  316MOL0     H42628   1.496   7.593  10.758 -4.3635 -3.0642  1.0843
  316MOL0     H42629   1.386   7.642  10.879  2.1590 -0.6386  2.4647
  316MOL0     H42630   1.427   7.889  10.786 -3.3964  0.9861 -1.6732
  316MOL0     H42631   1.306   7.790  10.708 -0.2840  1.8829  1.7226
  316MOL0     H42632   1.586   7.830  10.597 -0.1748  0.7308  0.0558
  316MOL0     H42633   1.433   7.909  10.544 -0.8948  0.1391  0.5371
  316MOL0     H42634   1.480   7.603  10.547  1.8387  2.0740  2.6600
  316MOL0     H42635   1.322   7.659  10.538  0.4986 -1.8436 -1.1795
  316MOL0     H42636   1.541   7.752  10.344  0.7919 -1.0087 -1.4170
  316MOL0     H42637   1.365   7.767  10.323 -0.4812 -1.0193 -0.4617
  316MOL0     H42638   1.377   7.510  10.295 -0.3908  0.8294  1.5187
  316MOL0     H42639   1.475   7.592  10.169  1.5109  0.7695 -0.3012
  316MOL0     H42640   1.761   7.455  10.564 -0.9265  1.9991  0.1150
  316MOL0     H42641   1.980   7.387  10.465  0.1518 -1.5830  0.4175
  316MOL0     H42642   2.371   7.291  10.450 -0.8636  0.5662  0.1430
  316MOL0     H42643   2.581   7.219  10.334 -1.3782 -0.1156 -0.2691
  316MOL0     H42644   1.698   6.012   9.984  2.4049 -0.0129 -1.6352
  316MOL0     H42645   1.472   5.945   9.898 -0.8506  2.2895 -0.8262
  316MOL0     H42646   1.133   5.623   9.787 -1.4527  2.1529  2.1062
  316MOL0     H42647   0.951   5.536   9.652  3.0428 -1.3128  0.2568
  316MOL0     H42648   0.974   5.484   9.344  1.8270  2.4040  1.0125
  316MOL0     H42649   0.964   5.621   9.229  1.8255  2.4457  3.1464
  316MOL0     H42650   0.835   5.448   9.147  0.8585  0.2623  0.6753
  316MOL0     H42651   0.730   5.584   9.178 -0.2986 -0.0574 -0.6660
  316MOL0     H42652   0.720   5.438   9.421  1.9697 -2.4212  0.9284
  316MOL0     H42653   0.772   5.313   9.313  0.6455  0.4111 -0.4297
  316MOL0     H42654   0.514   5.309   9.315 -0.3313  0.2122 -1.5797
  316MOL0     H42655   0.511   5.492   9.321  0.2196 -0.6215  3.5062
  316MOL0     H42656   0.525   5.358   8.904 -3.8552 -1.1854  1.0912
  316MOL0     H42657   1.032   5.817   9.348  1.2528 -2.3328 -2.2787
  316MOL0     H42658   1.326   5.920   9.398  0.0902  1.1814 -2.0982
  316MOL0     H42659   1.175   6.020   9.409 -1.2679 -0.8570  0.5510
  316MOL0     H42660   1.281   6.026   9.535 -2.6094  1.5846 -0.9473
  317MOL0     O42661   6.392   6.914   6.116  0.0833  0.6411 -0.0033
  317MOL0     C42662   6.378   7.036   6.105  1.0012  0.8524  0.4508
  317MOL0     O42663   6.266   7.100   6.064 -0.1750  0.0672  0.5036
  317MOL0     C42664   6.180   7.029   5.991 -0.8028  0.0407  0.3560
  317MOL0     C42665   6.200   7.004   5.851 -0.4998  0.0454 -0.6865
  317MOL0     C42666   6.117   6.911   5.776 -0.3105  0.2288 -0.1301
  317MOL0     C42667   5.997   6.871   5.842  0.3353  0.3015 -0.0497
  317MOL0     O42668   5.894   6.801   5.775  0.4617  0.0543 -0.2550
  317MOL0     C42669   5.882   6.667   5.832 -0.2666  0.5448 -0.2609
  317MOL0     C42670   5.795   6.587   5.750  0.1434  0.6094  0.9379
  317MOL0     C42671   5.807   6.606   5.596  0.8632  0.1513 -0.1656
  317MOL0     C42672   5.714   6.510   5.529 -0.5860 -0.9971 -0.8252
  317MOL0     C42673   5.741   6.499   5.378 -0.4320 -0.7794 -0.2021
  317MOL0     C42674   5.631   6.413   5.307 -0.0391 -0.4211  0.6088
  317MOL0     C42675   5.493   6.474   5.324  0.8320  0.8364  0.6543
  317MOL0     C42676   5.387   6.385   5.245  0.3374  0.0432  0.0123
  317MOL0     N42677   5.401   6.387   5.102 -0.0181  0.4321  0.0494
  317MOL0     C42678   5.451   6.480   5.015  0.1893 -0.1977 -0.9554
  317MOL0     C42679   5.476   6.408   4.911 -0.9420 -0.3433  1.0072
  317MOL0     C42680   5.528   6.478   4.779  0.1623  0.4341 -0.2090
  317MOL0     C42681   5.548   6.629   4.785  0.1961 -0.5631  0.2740
  317MOL0     C42682   5.593   6.685   4.644 -0.0908 -0.3506  0.2014
  317MOL0     C42683   5.649   6.829   4.664  0.0310 -0.8346  0.2697
  317MOL0     O42684   5.786   6.838   4.696  0.2707 -0.4797 -0.3509
  317MOL0     C42685   5.882   6.782   4.616  0.1961  0.7295 -0.4090
  317MOL0     C42686   5.897   6.823   4.483 -0.1177  0.6676  1.2831
  317MOL0     C42687   5.992   6.768   4.396  0.1301  0.1269 -1.0029
  317MOL0     C42688   6.094   6.685   4.456 -0.7159  0.1802 -0.5494
  317MOL0     C42689   6.206   6.627   4.377  0.3922 -0.4283 -0.7941
  317MOL0     O42690   6.199   6.654   4.238  0.2373  0.1440 -0.5471
  317MOL0     C42691   6.301   6.608   4.165 -1.1219  0.5301  0.1854
  317MOL0     C42692   6.397   6.701   4.144  0.1133 -0.3300  0.1783
  317MOL0     C42693   6.506   6.664   4.061  0.5379  0.2441  0.0263
  317MOL0     C42694   6.517   6.534   4.004  0.6453  0.3584 -1.0748
  317MOL0     O42695   6.620   6.476   3.935  0.3192  0.4872  0.3080
  317MOL0     C42696   6.725   6.564   3.894 -0.0098  0.8940  0.1829
  317MOL0     C42697   6.810   6.471   3.809  0.0601  0.6026  0.2796
  317MOL0     C42698   6.728   6.418   3.680  0.3301  0.2520 -0.3376
  317MOL0     C42699   6.721   6.521   3.558 -0.3212  0.2239  0.6480
  317MOL0     C42700   6.610   6.497   3.453 -0.1733 -0.9416 -0.2668
  317MOL0     C42701   6.475   6.470   3.516  0.5285 -1.1019  0.0797
  317MOL0     C42702   6.394   6.581   3.588 -0.0724 -0.3567 -0.0452
  317MOL0     C42703   6.295   6.508   3.684 -0.3385  0.5010  0.1084
  317MOL0    Cl42704   6.193   6.619   3.787  0.0521 -0.4414  0.4819
  317MOL0     C42705   6.404   6.452   4.030 -0.7473 -0.3249  0.2697
  317MOL0     C42706   6.285   6.490   4.098 -0.5585  0.5083 -0.0912
  317MOL0     O42707   6.295   6.563   4.437 -1.5036 -0.6599 -0.2604
  317MOL0     C42708   6.085   6.652   4.597  0.8510 -0.3995 -0.4719
  317MOL0     C42709   5.977   6.705   4.672 -0.4387 -0.5166 -0.3969
  317MOL0     N42710   5.450   6.278   4.924  0.3018  0.2574  0.1076
  317MOL0     N42711   5.407   6.265   5.038 -0.0745  0.6225 -0.7855
  317MOL0     C42712   5.975   6.905   5.974  1.1644 -0.2794 -0.9416
  317MOL0     C42713   6.064   6.976   6.054  0.0921  0.7235  0.1415
  317MOL0     C42714   6.489   7.119   6.153  0.1419 -0.1730 -0.2410
  317MOL0     C42715   6.629   7.089   6.117 -0.1372 -0.1562 -0.0897
  317MOL0     C42716   6.733   7.166   6.159 -0.1308  0.4130 -0.7723
  317MOL0     C42717   6.712   7.284   6.231 -0.4064  1.5729 -0.3070
  317MOL0     O42718   6.832   7.346   6.263 -0.1441 -0.2007 -0.8623
  317MOL0     C42719   6.829   7.496   6.263 -0.0846  0.0460  0.3018
  317MOL0     C42720   6.926   7.557   6.167  0.5526 -0.1876 -0.1592
  317MOL0     C42721   6.886   7.539   6.019 -0.1062  0.0828  0.5787
  317MOL0     C42722   6.960   7.637   5.926  0.0316 -0.3237 -0.1908
  317MOL0     C42723   6.972   7.591   5.784  0.3244  0.2278  0.1359
  317MOL0     C42724   7.000   7.573   5.664  0.4117 -0.1804 -1.1025
  317MOL0     C42725   6.585   7.311   6.274  0.4619  0.6481  0.2847
  317MOL0     C42726   6.470   7.233   6.236 -0.1363 -0.6983 -0.3105
  317MOL0     C42727   6.332   7.267   6.289  0.1213  0.5751 -0.4265
  317MOL0     H42728   6.295   7.037   5.811  1.5058 -2.8543  1.2346
  317MOL0     H42729   6.149   6.891   5.674  0.0574  0.2628 -0.0241
  317MOL0     H42730   5.980   6.621   5.813  0.5305  1.2049  1.9372
  317MOL0     H42731   5.865   6.663   5.940  3.1007 -2.2523  0.3734
  317MOL0     H42732   5.691   6.600   5.780  0.1898  1.1045  0.8870
  317MOL0     H42733   5.824   6.481   5.754 -1.7907 -0.1829 -2.2538
  317MOL0     H42734   5.911   6.587   5.565  0.8808  0.0740 -0.0627
  317MOL0     H42735   5.783   6.709   5.568 -1.3643 -0.0347  0.8754
  317MOL0     H42736   5.738   6.407   5.556 -1.8829 -1.1675 -0.2422
  317MOL0     H42737   5.615   6.546   5.559  1.5504  4.8844  0.5424
  317MOL0     H42738   5.744   6.591   5.319  0.5407 -1.4353 -1.2005
  317MOL0     H42739   5.838   6.452   5.361 -0.4988 -0.1500 -2.6566
  317MOL0     H42740   5.662   6.409   5.202 -1.5039 -1.1856  0.1816
  317MOL0     H42741   5.621   6.308   5.338  1.4396 -0.7576  0.0610
  317MOL0     H42742   5.489   6.580   5.293 -3.7720  1.4694  2.7233
  317MOL0     H42743   5.454   6.473   5.425  1.2195 -0.1647  0.7986
  317MOL0     H42744   5.385   6.282   5.282 -3.5362  0.9668  3.1469
  317MOL0     H42745   5.281   6.410   5.258  0.0448 -0.2889 -1.5426
  317MOL0     H42746   5.450   6.583   5.048 -0.1635  0.1538 -2.0370
  317MOL0     H42747   5.627   6.437   4.758  0.0750  0.4059 -0.5798
  317MOL0     H42748   5.451   6.452   4.705 -0.6363 -2.0189  1.3506
  317MOL0     H42749   5.457   6.676   4.823  1.5367  1.3201  1.3611
  317MOL0     H42750   5.634   6.654   4.848 -0.3069  0.9126  0.4186
  317MOL0     H42751   5.500   6.686   4.587 -1.6115 -0.5469  2.5683
  317MOL0     H42752   5.654   6.611   4.591 -2.6895 -1.3707 -1.5788
  317MOL0     H42753   5.593   6.868   4.750  0.8972  0.9747  0.0737
  317MOL0     H42754   5.635   6.902   4.584 -0.9448 -0.8358  0.4258
  317MOL0     H42755   5.820   6.887   4.441  0.6379 -0.5509 -2.3795
  317MOL0     H42756   6.005   6.800   4.293 -2.6342  2.8070 -0.6789
  317MOL0     H42757   6.389   6.803   4.180 -0.1740 -0.0228 -0.7260
  317MOL0     H42758   6.570   6.746   4.030  0.7825  0.3324  0.7435
  317MOL0     H42759   6.684   6.645   3.832  0.1954  1.2016  0.4455
  317MOL0     H42760   6.768   6.619   3.978  0.9035  0.2345  0.1647
  317MOL0     H42761   6.899   6.523   3.773 -0.9789  1.1844 -1.6273
  317MOL0     H42762   6.846   6.385   3.865 -0.3443  0.2906  0.0719
  317MOL0     H42763   6.773   6.326   3.643 -0.8706  0.0049 -1.2319
  317MOL0     H42764   6.629   6.391   3.717 -0.6305  2.3609 -1.1819
  317MOL0     H42765   6.813   6.512   3.498 -1.7252 -1.2927 -1.4060
  317MOL0     H42766   6.698   6.619   3.601  1.8946 -0.5666  4.0213
  317MOL0     H42767   6.634   6.413   3.387  0.6121 -1.0629  0.1558
  317MOL0     H42768   6.608   6.591   3.398  1.8465 -1.1132 -0.7194
  317MOL0     H42769   6.407   6.442   3.436  0.2346  1.6468 -0.7182
  317MOL0     H42770   6.497   6.386   3.583 -1.8183  0.5383  3.1623
  317MOL0     H42771   6.341   6.643   3.515  1.5595 -0.8392 -1.7432
  317MOL0     H42772   6.476   6.640   3.629 -0.3982 -0.5716  0.9281
  317MOL0     H42773   6.219   6.449   3.633 -0.6693 -1.3487  2.5997
  317MOL0     H42774   6.355   6.443   3.748  0.7348 -1.5731 -2.7820
  317MOL0     H42775   6.409   6.358   3.977 -1.8207  0.7200 -1.8120
  317MOL0     H42776   6.197   6.426   4.102  1.4890 -2.5156  0.2497
  317MOL0     H42777   6.168   6.607   4.650 -0.7561  0.2901  2.8484
  317MOL0     H42778   5.970   6.673   4.775  3.7185  0.1647  0.2464
  317MOL0     H42779   5.883   6.880   6.027  0.6918  4.2310  0.8025
  317MOL0     H42780   6.060   6.997   6.160 -1.6049 -3.3112  1.0600
  317MOL0     H42781   6.653   7.000   6.061 -2.1889 -0.4659 -0.5777
  317MOL0     H42782   6.833   7.132   6.133 -0.1619 -0.7763  0.5273
  317MOL0     H42783   6.866   7.517   6.363  2.9837 -0.4812 -0.6222
  317MOL0     H42784   6.727   7.531   6.241  0.2396 -0.2384 -1.8832
  317MOL0     H42785   7.024   7.515   6.187  0.2493 -1.4047 -1.1238
  317MOL0     H42786   6.928   7.664   6.191 -3.2075  0.0782 -0.4281
  317MOL0     H42787   6.780   7.555   5.997  0.1645  1.8019  0.3877
  317MOL0     H42788   6.915   7.437   5.991  1.4372  0.5017  0.5885
  317MOL0     H42789   6.915   7.737   5.925  0.8863  0.1171  1.4195
  317MOL0     H42790   7.063   7.649   5.962  0.4925  0.7492 -1.7499
  317MOL0     H42791   7.029   7.551   5.564  1.0120  1.1397 -1.2462
  317MOL0     H42792   6.573   7.405   6.327 -1.0212  1.7681 -1.8955
  317MOL0     H42793   6.255   7.290   6.214 -0.7028  1.3951  0.6410
  317MOL0     H42794   6.288   7.182   6.342 -0.6646 -1.5495 -4.1613
  317MOL0     H42795   6.327   7.360   6.347  0.0207  1.4899 -1.8337
  318MOL0     O42796   3.804   4.187  10.558  0.3543 -0.5474  0.2796
  318MOL0     C42797   3.844   4.084  10.612 -0.7468 -0.9851 -0.2096
  318MOL0     O42798   3.968   4.019  10.581  0.0173 -0.0454  0.5273
  318MOL0     C42799   4.031   4.069  10.470  0.5941  0.6000 -0.0259
  318MOL0     C42800   4.009   4.015  10.340 -0.1841  0.2926 -0.1386
  318MOL0     C42801   4.059   4.074  10.230 -0.6547  0.3933  0.4214
  318MOL0     C42802   4.150   4.184  10.236 -0.9556 -0.1232  0.7396
  318MOL0     O42803   4.209   4.246  10.125  0.5472  0.5854  0.3707
  318MOL0     C42804   4.149   4.241   9.991  1.1874 -0.0518 -0.2522
  318MOL0     C42805   4.252   4.268   9.885  0.6814  0.2166  0.1651
  318MOL0     C42806   4.337   4.394   9.898 -0.2797  0.4581  0.6528
  318MOL0     C42807   4.266   4.531   9.874  0.3466 -0.4400 -0.0316
  318MOL0     C42808   4.353   4.644   9.930  0.5457  0.3113 -0.1159
  318MOL0     C42809   4.299   4.790   9.895 -0.1345  0.6517  0.8014
  318MOL0     C42810   4.359   4.897   9.977 -0.2607 -0.1141  1.0678
  318MOL0     C42811   4.515   4.921   9.948  0.1796 -0.1577  1.6288
  318MOL0     N42812   4.584   4.940  10.078  0.1714 -1.3565  0.6119
  318MOL0     C42813   4.550   5.031  10.178 -0.2363  0.7208 -0.7158
  318MOL0     C42814   4.650   5.017  10.272 -0.6936 -0.2008 -0.3215
  318MOL0     C42815   4.650   5.080  10.408 -0.6099 -0.2203  0.7580
  318MOL0     C42816   4.713   5.226  10.414  0.4334  0.4114 -0.4210
  318MOL0     C42817   4.647   5.301  10.523  0.7306 -0.4478 -0.2306
  318MOL0     C42818   4.698   5.451  10.530  0.5660  0.2634 -0.1624
  318MOL0     O42819   4.836   5.442  10.553  0.1240  0.3042  0.0130
  318MOL0     C42820   4.917   5.559  10.539  0.4555 -0.0193 -0.5377
  318MOL0     C42821   5.050   5.534  10.509 -0.3188  0.4047 -0.2208
  318MOL0     C42822   5.151   5.636  10.517  1.0124  0.3050  0.4720
  318MOL0     C42823   5.109   5.765  10.520  0.2040 -0.1226 -0.3359
  318MOL0     C42824   5.196   5.885  10.500  0.2661 -0.0372 -0.4759
  318MOL0     O42825   5.149   5.989  10.427  0.3827  0.8662 -0.0800
  318MOL0     C42826   5.187   6.116  10.453 -0.0191 -0.9339  0.2580
  318MOL0     C42827   5.310   6.175  10.409 -0.3528 -0.5875  0.2078
  318MOL0     C42828   5.336   6.311  10.441 -0.1393  1.0645 -0.0220
  318MOL0     C42829   5.268   6.382  10.531 -0.9897  0.1761 -0.5846
  318MOL0     O42830   5.313   6.505  10.573 -0.2600  0.4475  0.4336
  318MOL0     C42831   5.454   6.527  10.613 -0.2808  0.0733  0.5764
  318MOL0     C42832   5.463   6.637  10.729  0.7905 -0.8062 -0.8202
  318MOL0     C42833   5.612   6.688  10.736  0.4946  0.2309 -0.7687
  318MOL0     C42834   5.640   6.775  10.864  0.3259 -0.2049  0.3244
  318MOL0     C42835   5.576   6.920  10.851 -0.3165 -0.1672 -0.4530
  318MOL0     C42836   5.619   7.008  10.972 -0.6491  0.0565  0.4365
  318MOL0     C42837   5.555   7.143  10.973  0.3621 -0.7936  0.3374
  318MOL0     C42838   5.531   7.198  11.113 -0.7115  0.5266 -0.0131
  318MOL0    Cl42839   5.473   7.361  11.090  0.0151 -0.0463 -0.1318
  318MOL0     C42840   5.154   6.322  10.583 -0.4769 -0.3015 -0.2714
  318MOL0     C42841   5.113   6.192  10.549 -0.4290  0.1987 -0.3106
  318MOL0     O42842   5.317   5.878  10.538  0.4883  0.6860  0.3514
  318MOL0     C42843   4.971   5.789  10.526 -0.0330  0.3888 -0.5935
  318MOL0     C42844   4.869   5.691  10.527 -0.4219  0.0994  0.4353
  318MOL0     N42845   4.742   4.925  10.233  0.6489 -0.5331 -0.8140
  318MOL0     N42846   4.697   4.875  10.116  0.1020 -1.2153  0.3278
  318MOL0     C42847   4.176   4.227  10.361 -0.1141 -0.0712 -0.4221
  318MOL0     C42848   4.109   4.178  10.478 -0.6540  0.4255  0.0606
  318MOL0     C42849   3.747   4.024  10.707  0.6803 -0.6647 -0.0476
  318MOL0     C42850   3.747   3.884  10.705 -0.6399  0.4575 -0.8175
  318MOL0     C42851   3.668   3.812  10.786  0.4910 -1.2522  0.3221
  318MOL0     C42852   3.577   3.880  10.872  0.1891  0.0174  0.0755
  318MOL0     O42853   3.495   3.803  10.946  0.5505  0.7075 -0.2895
  318MOL0     C42854   3.460   3.665  10.903 -0.2582  0.3559 -0.0846
  318MOL0     C42855   3.308   3.641  10.943  0.0696  1.0779  0.4927
  318MOL0     C42856   3.212   3.746  10.892  0.7431  0.2079  0.3126
  318MOL0     C42857   3.209   3.773  10.742 -0.3858 -0.5757 -0.3128
  318MOL0     C42858   3.143   3.904  10.713 -0.3309  0.6333 -0.2440
  318MOL0     C42859   3.095   4.007  10.688 -0.2375  0.0363 -0.5275
  318MOL0     C42860   3.577   4.012  10.877  0.4310 -0.6091  0.2685
  318MOL0     C42861   3.654   4.093  10.788 -1.1576 -0.0061 -0.7688
  318MOL0     C42862   3.662   4.245  10.791 -0.4910 -0.4309 -0.1254
  318MOL0     H42863   3.949   3.925  10.331 -1.3448  1.0474 -0.0764
  318MOL0     H42864   4.035   4.030  10.134  2.1062  1.5980 -0.9341
  318MOL0     H42865   4.105   4.141   9.980 -0.3025  0.2423  2.2051
  318MOL0     H42866   4.078   4.322   9.976 -1.7298 -2.5290 -0.9277
  318MOL0     H42867   4.193   4.284   9.794 -0.2623 -3.0377  0.0929
  318MOL0     H42868   4.300   4.172   9.866 -1.1943 -0.5160 -1.1056
  318MOL0     H42869   4.423   4.374   9.834  0.0076 -0.7548  1.3957
  318MOL0     H42870   4.384   4.389   9.997 -1.2756 -4.0112  1.1332
  318MOL0     H42871   4.251   4.542   9.766  0.6876 -0.5756 -0.0930
  318MOL0     H42872   4.176   4.515   9.933  1.7319 -2.9195  1.6128
  318MOL0     H42873   4.341   4.623  10.036 -0.4540 -1.4351 -0.5357
  318MOL0     H42874   4.453   4.640   9.886 -0.5437 -1.2759 -2.6884
  318MOL0     H42875   4.328   4.800   9.790  0.4312  1.7445  1.0533
  318MOL0     H42876   4.191   4.799   9.910  0.1132  0.9982  2.5394
  318MOL0     H42877   4.352   4.885  10.086  2.3214  2.8150  1.7114
  318MOL0     H42878   4.305   4.984   9.943 -1.8570 -1.6722 -0.5622
  318MOL0     H42879   4.562   4.837   9.894 -0.6016  0.7408 -0.5390
  318MOL0     H42880   4.521   5.013   9.889 -0.9616 -1.2217 -0.2375
  318MOL0     H42881   4.463   5.090  10.205 -1.2414 -1.9022  2.5653
  318MOL0     H42882   4.549   5.094  10.449 -0.6864 -0.6185  0.7185
  318MOL0     H42883   4.701   5.028  10.490  0.1514  0.5192  0.7622
  318MOL0     H42884   4.821   5.228  10.433  0.0235  3.7905  2.9092
  318MOL0     H42885   4.683   5.268  10.318  1.4275  0.3088 -0.7826
  318MOL0     H42886   4.657   5.255  10.622  0.8210 -0.4158 -0.2238
  318MOL0     H42887   4.545   5.308  10.485  1.5293  0.8029 -2.2527
  318MOL0     H42888   4.638   5.499  10.608 -0.2281  0.9873 -1.1953
  318MOL0     H42889   4.683   5.501  10.434  0.5949  1.2071  0.3121
  318MOL0     H42890   5.079   5.429  10.512  2.6227  1.0450 -2.3286
  318MOL0     H42891   5.257   5.611  10.511  2.0485  3.8221  1.8362
  318MOL0     H42892   5.384   6.125  10.347 -0.1721  2.1774 -2.0073
  318MOL0     H42893   5.426   6.358  10.405  1.1837 -0.9426  0.4765
  318MOL0     H42894   5.506   6.432  10.630  0.2295  0.1530 -0.4470
  318MOL0     H42895   5.512   6.578  10.535  0.6170  0.9000  1.7554
  318MOL0     H42896   5.391   6.719  10.719  0.5173 -1.1836 -2.0817
  318MOL0     H42897   5.454   6.581  10.823 -1.1886 -0.7917 -0.9598
  318MOL0     H42898   5.660   6.590  10.742  1.2620  0.6359 -0.0680
  318MOL0     H42899   5.632   6.742  10.643  1.3637  2.1113  0.4424
  318MOL0     H42900   5.750   6.777  10.870  0.5270  0.2143 -2.3520
  318MOL0     H42901   5.600   6.727  10.954  0.0207 -1.2849 -0.3776
  318MOL0     H42902   5.468   6.907  10.840 -0.4152  1.0584 -1.0876
  318MOL0     H42903   5.622   6.970  10.765 -0.8360  1.8522  0.3800
  318MOL0     H42904   5.590   6.959  11.066  0.0288  0.1301  0.6951
  318MOL0     H42905   5.728   7.020  10.967 -0.7306  0.3018 -1.8216
  318MOL0     H42906   5.463   7.150  10.914  0.1578  1.5817  0.8369
  318MOL0     H42907   5.627   7.205  10.920  1.5420 -0.7167  1.9411
  318MOL0     H42908   5.455   7.134  11.159 -0.3898 -0.6839 -1.0923
  318MOL0     H42909   5.628   7.187  11.161 -1.5071 -1.0318  1.3362
  318MOL0     H42910   5.098   6.372  10.661  1.8773  1.4311  0.4458
  318MOL0     H42911   5.027   6.157  10.604  0.5045  1.4266  2.0732
  318MOL0     H42912   4.937   5.892  10.538 -3.3050 -0.6895  0.4446
  318MOL0     H42913   4.764   5.719  10.527 -0.2215  0.8909  1.2611
  318MOL0     H42914   4.248   4.303  10.388  0.2366 -0.6448  0.2892
  318MOL0     H42915   4.138   4.216  10.575 -0.7241 -0.0126  0.2576
  318MOL0     H42916   3.816   3.823  10.648  1.0702 -0.4428  1.9637
  318MOL0     H42917   3.684   3.705  10.782 -1.1847 -1.5012 -0.7089
  318MOL0     H42918   3.527   3.592  10.951  0.1976  0.4165 -0.6252
  318MOL0     H42919   3.470   3.655  10.795  4.0282 -3.4811  0.3206
  318MOL0     H42920   3.304   3.633  11.052 -1.5322  0.4773  0.4169
  318MOL0     H42921   3.288   3.538  10.911 -2.0979  2.0655 -1.6856
  318MOL0     H42922   3.220   3.836  10.954  1.0973 -0.0785  0.6839
  318MOL0     H42923   3.112   3.710  10.916  0.6140  2.0639  3.0259
  318MOL0     H42924   3.312   3.784  10.707 -0.2959 -1.0505 -0.2042
  318MOL0     H42925   3.154   3.694  10.690 -2.3644 -0.3555  1.3082
  318MOL0     H42926   3.037   4.096  10.678 -2.3003 -0.7005  3.1342
  318MOL0     H42927   3.526   4.071  10.953 -1.3868  0.0931 -1.4142
  318MOL0     H42928   3.629   4.286  10.695  1.1089  1.0381 -0.1086
  318MOL0     H42929   3.592   4.293  10.860  0.1497  1.5394 -0.7852
  318MOL0     H42930   3.765   4.273  10.818 -1.1166 -0.9076  3.1662
  319MOL0     O42931  10.665   5.786   9.175  0.5395  0.3175 -0.6511
  319MOL0     C42932  10.701   5.807   9.287  0.4009 -0.9339  1.1549
  319MOL0     O42933  10.682   5.916   9.353 -0.1486 -0.4052 -0.2151
  319MOL0     C42934  10.594   6.017   9.327  0.7111 -0.4089  0.3150
  319MOL0     C42935  10.476   6.019   9.398 -0.5114 -0.2743 -0.0021
  319MOL0     C42936  10.388   6.120   9.377 -0.5895 -0.0771 -0.1930
  319MOL0     C42937  10.401   6.220   9.285  0.1789  0.0850  0.4152
  319MOL0     O42938  10.301   6.314   9.270 -0.5266 -0.3728  0.8152
  319MOL0     C42939  10.242   6.324   9.138 -0.3562  0.3566  0.0123
  319MOL0     C42940  10.139   6.446   9.131 -0.2698  0.0813 -0.1230
  319MOL0     C42941  10.224   6.567   9.182  0.3048 -0.1057  0.0357
  319MOL0     C42942  10.354   6.594   9.107 -0.1909 -0.1376 -0.1622
  319MOL0     C42943  10.432   6.704   9.171  0.7729 -0.0076 -0.3834
  319MOL0     C42944  10.572   6.712   9.110  1.4330 -1.0114  0.0727
  319MOL0     C42945  10.660   6.595   9.125  0.2592 -0.3278 -1.1639
  319MOL0     C42946  10.762   6.601   9.005  0.5091 -0.0175  0.5648
  319MOL0     N42947  10.882   6.515   9.027 -0.3949 -0.6710  0.3474
  319MOL0     C42948  10.888   6.378   8.992 -0.0864  0.5503 -0.0716
  319MOL0     C42949  11.006   6.329   9.041  0.0179  0.1427 -0.5278
  319MOL0     C42950  11.071   6.187   9.020  0.4028  0.4271 -0.0961
  319MOL0     C42951  11.116   6.127   9.150 -0.7499  0.8322  0.3608
  319MOL0     C42952  11.006   6.104   9.247 -0.0664 -0.1508 -0.0572
  319MOL0     C42953  11.065   6.116   9.385 -0.1865  0.5538 -0.3041
  319MOL0     O42954  10.968   6.117   9.491 -0.5156 -0.5115 -0.1216
  319MOL0     C42955  10.877   6.219   9.505  0.3328  0.5044 -1.1420
  319MOL0     C42956  10.768   6.183   9.586  0.3539  0.6978  0.9689
  319MOL0     C42957  10.668   6.275   9.611 -0.3237 -0.5682  0.4225
  319MOL0     C42958  10.674   6.407   9.552  0.8129  0.0578  0.6301
  319MOL0     C42959  10.566   6.496   9.565 -0.7774 -0.4419  0.5109
  319MOL0     O42960  10.458   6.450   9.632  0.2914 -0.2953 -0.7449
  319MOL0     C42961  10.355   6.534   9.662 -0.3817 -0.0477  0.3651
  319MOL0     C42962  10.359   6.648   9.745  0.1230  0.5747  0.4282
  319MOL0     C42963  10.244   6.729   9.764 -0.7214  0.6411  0.0306
  319MOL0     C42964  10.118   6.693   9.704 -0.4183  0.0645  0.0990
  319MOL0     O42965  10.010   6.774   9.724 -0.0586  0.2044  0.1693
  319MOL0     C42966   9.871   6.730   9.745  0.7540 -0.2670 -0.5570
  319MOL0     C42967   9.803   6.845   9.826  0.3358  1.3021  1.1724
  319MOL0     C42968   9.655   6.820   9.849  0.4640 -0.3686 -0.4321
  319MOL0     C42969   9.578   6.868   9.731  0.2179  0.0800  0.4313
  319MOL0     C42970   9.456   6.784   9.701 -0.7814 -0.1365 -0.7507
  319MOL0     C42971   9.356   6.859   9.613  0.1568  0.9670  0.6048
  319MOL0     C42972   9.413   6.932   9.500 -0.7375 -0.8775 -0.4364
  319MOL0     C42973   9.302   6.987   9.399  0.0629  0.2501 -0.0069
  319MOL0    Cl42974   9.382   7.067   9.253  0.2049  0.3171  0.1335
  319MOL0     C42975  10.126   6.580   9.620  0.0582  0.0129  0.0246
  319MOL0     C42976  10.239   6.503   9.608  0.5208 -0.0197  0.0825
  319MOL0     O42977  10.578   6.609   9.518  0.2975  0.0365 -0.6940
  319MOL0     C42978  10.780   6.437   9.466  0.3459  0.4046  0.2186
  319MOL0     C42979  10.882   6.344   9.442 -0.1562 -0.1588 -0.0075
  319MOL0     N42980  11.070   6.440   9.103 -0.3550 -0.2354  0.4164
  319MOL0     N42981  11.001   6.550   9.090 -0.1173  0.0367  0.6891
  319MOL0     C42982  10.515   6.219   9.201 -0.3960  0.1814 -0.4262
  319MOL0     C42983  10.618   6.123   9.224 -0.5334 -0.0937 -0.4852
  319MOL0     C42984  10.783   5.700   9.360  0.5623  0.1729 -0.2306
  319MOL0     C42985  10.854   5.745   9.475 -0.5037 -0.4993  0.8478
  319MOL0     C42986  10.936   5.667   9.546 -0.8319 -0.1408  0.0340
  319MOL0     C42987  10.962   5.540   9.499 -0.6546 -0.4482 -0.0515
  319MOL0     O42988  11.056   5.459   9.558  0.2901 -0.0803 -0.1389
  319MOL0     C42989  11.188   5.501   9.573 -0.4019  0.8923 -0.9030
  319MOL0     C42990  11.280   5.382   9.527 -0.7330 -0.7026 -0.2332
  319MOL0     C42991  11.246   5.245   9.604  0.3321  0.6212  0.1934
  319MOL0     C42992  11.325   5.137   9.534 -0.5197 -0.0796 -0.6256
  319MOL0     C42993  11.266   5.008   9.567  0.1644  0.5764  0.0076
  319MOL0     C42994  11.211   4.904   9.596 -0.0625  0.0528  0.1519
  319MOL0     C42995  10.900   5.485   9.390 -0.0308 -0.7252 -0.7193
  319MOL0     C42996  10.790   5.565   9.324 -1.8204  0.6569 -0.0026
  319MOL0     C42997  10.716   5.499   9.211 -0.1887 -0.2066  0.3553
  319MOL0     H42998  10.457   5.941   9.470 -0.2132  1.8301  2.4864
  319MOL0     H42999  10.284   6.109   9.407 -0.5754 -0.2958 -0.2270
  319MOL0     H43000  10.321   6.334   9.063  0.6921 -2.5634  0.5937
  319MOL0     H43001  10.194   6.227   9.118  2.2741 -1.7021  2.7521
  319MOL0     H43002  10.055   6.418   9.195 -0.0767 -2.0910 -0.7559
  319MOL0     H43003  10.106   6.463   9.028 -0.7836 -0.3122 -0.0272
  319MOL0     H43004  10.249   6.561   9.289 -0.1666 -2.1061  0.0833
  319MOL0     H43005  10.157   6.653   9.177 -2.8235 -2.2686  1.2370
  319MOL0     H43006  10.419   6.506   9.102 -0.7348 -0.5783  0.3470
  319MOL0     H43007  10.319   6.631   9.011  1.3482  1.5514 -0.1208
  319MOL0     H43008  10.380   6.799   9.154  4.7522  2.4313 -0.2415
  319MOL0     H43009  10.437   6.689   9.279  0.0684  0.8500 -0.2205
  319MOL0     H43010  10.564   6.741   9.005 -0.9487  1.5702  0.8408
  319MOL0     H43011  10.627   6.789   9.165  1.0651  0.8283 -2.0216
  319MOL0     H43012  10.610   6.498   9.134  0.7714 -0.4649  0.4833
  319MOL0     H43013  10.718   6.614   9.216  0.6370 -1.9792 -1.0263
  319MOL0     H43014  10.717   6.558   8.915  0.7649 -0.2409  0.5422
  319MOL0     H43015  10.787   6.706   8.989  0.6694  0.0883  1.4714
  319MOL0     H43016  10.819   6.313   8.940  3.3813 -2.8475 -0.8394
  319MOL0     H43017  10.987   6.123   8.992  0.9293 -1.8817  3.0313
  319MOL0     H43018  11.145   6.184   8.939  0.1011 -3.8781 -0.4658
  319MOL0     H43019  11.163   6.031   9.127 -1.7604  0.2466  0.6584
  319MOL0     H43020  11.190   6.197   9.190 -1.4358  3.3392 -2.3425
  319MOL0     H43021  10.967   6.002   9.242  0.2233 -0.2071 -1.8678
  319MOL0     H43022  10.922   6.174   9.238 -0.8963 -0.7329  2.4664
  319MOL0     H43023  11.116   6.209   9.410  0.2516 -0.1567  1.6539
  319MOL0     H43024  11.138   6.036   9.403 -0.1432  0.7144  0.2627
  319MOL0     H43025  10.761   6.079   9.616 -0.8819  0.3425 -0.3864
  319MOL0     H43026  10.576   6.256   9.667 -1.4364  1.1085 -0.7399
  319MOL0     H43027  10.456   6.676   9.786  0.7245 -0.0042 -0.5544
  319MOL0     H43028  10.262   6.821   9.818  0.5991  1.2846 -1.4517
  319MOL0     H43029   9.829   6.717   9.645  0.4420  1.2206 -0.6435
  319MOL0     H43030   9.864   6.636   9.801 -0.5403  0.2789  0.2357
  319MOL0     H43031   9.828   6.833   9.932 -2.1451  2.2300  1.9226
  319MOL0     H43032   9.816   6.937   9.769  0.3751  0.6689  0.1522
  319MOL0     H43033   9.647   6.712   9.866 -0.7176 -0.2366  0.0011
  319MOL0     H43034   9.637   6.871   9.944 -0.1069 -2.1509  0.4746
  319MOL0     H43035   9.647   6.871   9.646  1.1429 -2.0919  1.0250
  319MOL0     H43036   9.558   6.973   9.756  2.1773  0.2560  1.5474
  319MOL0     H43037   9.401   6.749   9.789  0.5354 -2.6074 -0.8121
  319MOL0     H43038   9.485   6.696   9.643 -0.5402  0.1593 -1.0811
  319MOL0     H43039   9.280   6.788   9.581  1.5381 -1.5752  2.6514
  319MOL0     H43040   9.314   6.933   9.683 -0.4120  2.3124 -1.0638
  319MOL0     H43041   9.491   6.877   9.448  1.9762 -1.3183  3.6372
  319MOL0     H43042   9.473   7.013   9.541 -2.6619 -0.7477  2.3967
  319MOL0     H43043   9.238   6.901   9.376  0.7753 -0.7143  1.4996
  319MOL0     H43044   9.234   7.062   9.441 -0.4897 -1.4563  2.3721
  319MOL0     H43045  10.035   6.552   9.569 -0.9114 -0.1086  1.7587
  319MOL0     H43046  10.240   6.427   9.530  1.3026  0.7870 -0.7174
  319MOL0     H43047  10.780   6.532   9.413  0.0612  1.1235  1.4672
  319MOL0     H43048  10.954   6.381   9.371  0.8019 -0.1053  0.9573
  319MOL0     H43049  10.522   6.288   9.117 -1.1293  2.7064  1.4655
  319MOL0     H43050  10.701   6.117   9.153  2.1915 -3.3733  2.5634
  319MOL0     H43051  10.846   5.847   9.510 -1.7315 -0.5378  0.7469
  319MOL0     H43052  10.994   5.714   9.625 -1.3058  0.9068 -0.2292
  319MOL0     H43053  11.204   5.514   9.680  4.2037 -0.8151 -1.1589
  319MOL0     H43054  11.223   5.590   9.521  4.5679  0.0780  0.4485
  319MOL0     H43055  11.385   5.410   9.534 -1.3244  1.6060  0.3043
  319MOL0     H43056  11.257   5.375   9.420 -1.4584  0.5088 -0.1883
  319MOL0     H43057  11.140   5.219   9.604  0.6462 -0.7972  0.8474
  319MOL0     H43058  11.282   5.249   9.708 -0.3363  4.0178  0.4212
  319MOL0     H43059  11.314   5.153   9.426  1.1185 -1.2818 -1.0214
  319MOL0     H43060  11.428   5.148   9.571 -0.8049 -1.0599  0.5204
  319MOL0     H43061  11.180   4.803   9.611  0.7119 -0.1340  0.5067
  319MOL0     H43062  10.942   5.387   9.367  1.1961 -0.0384 -1.4813
  319MOL0     H43063  10.738   5.544   9.114 -0.0006 -1.1100 -0.0292
  319MOL0     H43064  10.737   5.392   9.211 -2.2893 -0.7233  3.1310
  319MOL0     H43065  10.610   5.520   9.226  0.1631  3.5143 -1.2799
  320MOL0     O43066   9.266   2.983   9.400 -0.1778 -0.1864  0.2534
  320MOL0     C43067   9.316   2.869   9.411  0.0074 -0.1020  0.4956
  320MOL0     O43068   9.301   2.768   9.312  0.4401 -1.2132 -0.0585
  320MOL0     C43069   9.180   2.770   9.237  0.0586  0.0625 -0.0809
  320MOL0     C43070   9.181   2.727   9.102 -0.5595  1.1936  0.2691
  320MOL0     C43071   9.058   2.710   9.032 -1.2784  0.3416 -0.0759
  320MOL0     C43072   8.937   2.731   9.094  0.3403  0.0307 -0.0936
  320MOL0     O43073   8.820   2.714   9.016  0.3063  0.9582  0.6356
  320MOL0     C43074   8.693   2.731   9.070 -0.4707  0.9236 -0.6476
  320MOL0     C43075   8.583   2.673   8.985  0.4420 -0.1999 -0.8349
  320MOL0     C43076   8.600   2.714   8.846 -0.2942 -0.0329  0.7531
  320MOL0     C43077   8.499   2.637   8.769  0.4080  0.3062 -0.0629
  320MOL0     C43078   8.480   2.711   8.636  0.8914  0.6235  0.0370
  320MOL0     C43079   8.385   2.620   8.551 -0.5762 -0.3978  1.0054
  320MOL0     C43080   8.336   2.700   8.426  0.0585  0.1077  1.3065
  320MOL0     C43081   8.208   2.645   8.351  0.6517 -0.1982  0.4706
  320MOL0     N43082   8.098   2.643   8.451 -0.3285  0.5554  0.0025
  320MOL0     C43083   8.060   2.528   8.524  0.4708  0.5045  0.6571
  320MOL0     C43084   7.964   2.571   8.610  0.3653  0.3370  0.6315
  320MOL0     C43085   7.906   2.516   8.735 -0.3352  0.4650 -0.2265
  320MOL0     C43086   7.861   2.362   8.720  0.1042 -0.2637 -0.2045
  320MOL0     C43087   7.798   2.319   8.856 -0.3379 -0.5412  0.3380
  320MOL0     C43088   7.735   2.181   8.844 -0.7949  0.3754  0.0927
  320MOL0     O43089   7.738   2.101   8.961  0.2538  0.5986 -0.2880
  320MOL0     C43090   7.842   2.013   8.980 -0.2028  0.1535  0.5788
  320MOL0     C43091   7.823   1.907   9.069  0.0324  0.1953  0.4693
  320MOL0     C43092   7.922   1.808   9.092  0.8854  0.4827 -1.0678
  320MOL0     C43093   8.039   1.814   9.012 -0.4712 -0.0536  0.9166
  320MOL0     C43094   8.148   1.719   9.031  1.2054 -0.3181  0.4178
  320MOL0     O43095   8.241   1.703   8.923 -0.1086  0.1834 -0.3725
  320MOL0     C43096   8.357   1.640   8.953  0.4455 -0.2831 -0.4103
  320MOL0     C43097   8.433   1.648   9.070  0.1197 -0.2127 -0.6700
  320MOL0     C43098   8.555   1.588   9.083 -0.4794  0.7538 -0.3814
  320MOL0     C43099   8.620   1.530   8.976  1.7464  0.1268  1.2852
  320MOL0     O43100   8.750   1.486   8.974 -0.2859 -0.4066  0.4212
  320MOL0     C43101   8.851   1.553   9.050  0.1721  0.1081  0.7692
  320MOL0     C43102   8.889   1.678   8.979  0.0021 -0.0075 -0.5217
  320MOL0     C43103   9.019   1.743   9.042  0.7895 -0.2936  0.4415
  320MOL0     C43104   9.028   1.738   9.195  0.7945 -0.9357 -0.2161
  320MOL0     C43105   9.129   1.638   9.245 -0.4389 -0.4332  0.9118
  320MOL0     C43106   9.138   1.631   9.396  0.1634  0.1105 -0.9384
  320MOL0     C43107   9.230   1.515   9.442 -0.1548 -0.9104  0.3382
  320MOL0     C43108   9.230   1.522   9.599 -0.5843 -0.0517  0.8321
  320MOL0    Cl43109   9.306   1.364   9.644 -0.0423  0.2992  0.1415
  320MOL0     C43110   8.546   1.523   8.860  0.9309  0.0062 -0.3170
  320MOL0     C43111   8.418   1.575   8.843  0.1734 -0.1882 -0.0567
  320MOL0     O43112   8.151   1.667   9.141 -0.4538  0.2620 -0.0623
  320MOL0     C43113   8.057   1.917   8.925  0.3352 -1.1540  1.0523
  320MOL0     C43114   7.969   2.022   8.912  0.0222  0.4387 -0.1532
  320MOL0     N43115   7.933   2.703   8.572 -0.0045  0.2606 -0.1604
  320MOL0     N43116   8.019   2.748   8.482  0.2813  0.6547  0.0253
  320MOL0     C43117   8.935   2.787   9.228 -0.4521  0.2862  0.2117
  320MOL0     C43118   9.055   2.813   9.295 -0.0977  0.2907 -0.8897
  320MOL0     C43119   9.394   2.851   9.532 -0.0961  0.2289 -0.3093
  320MOL0     C43120   9.494   2.743   9.520  0.0689  0.3614 -0.6337
  320MOL0     C43121   9.578   2.705   9.630  0.0143 -0.3547 -0.8615
  320MOL0     C43122   9.568   2.784   9.746  0.3724 -0.1760 -0.5447
  320MOL0     O43123   9.653   2.774   9.854  0.3744  0.3484 -0.2838
  320MOL0     C43124   9.787   2.739   9.820 -0.4498 -0.3989 -0.9680
  320MOL0     C43125   9.891   2.820   9.911  0.4860  0.2710  0.6056
  320MOL0     C43126   9.847   2.799  10.048  0.0332 -0.3284 -0.2597
  320MOL0     C43127   9.967   2.765  10.139 -0.7576  0.2140  0.4886
  320MOL0     C43128   9.926   2.729  10.272  0.5030  0.5745  1.1155
  320MOL0     C43129   9.893   2.696  10.379 -0.6780  0.5767 -0.4918
  320MOL0     C43130   9.479   2.887   9.761  0.5084 -0.4744  0.0191
  320MOL0     C43131   9.394   2.927   9.657  0.2404 -0.4364 -0.0818
  320MOL0     C43132   9.309   3.053   9.675 -0.4425  0.1431  0.2251
  320MOL0     H43133   9.282   2.714   9.065 -0.3245  0.8534  1.0276
  320MOL0     H43134   9.050   2.674   8.930 -2.6044  1.9203 -0.5785
  320MOL0     H43135   8.692   2.674   9.162  1.5031 -1.1094 -1.7773
  320MOL0     H43136   8.678   2.838   9.087  1.5397  1.2882 -0.9055
  320MOL0     H43137   8.487   2.692   9.033 -1.0707 -1.6894 -3.0388
  320MOL0     H43138   8.580   2.564   8.994  0.0202 -0.1754 -0.6341
  320MOL0     H43139   8.701   2.694   8.808  1.0593 -0.3684  4.1558
  320MOL0     H43140   8.578   2.820   8.829 -4.2657 -1.0311 -1.7314
  320MOL0     H43141   8.534   2.537   8.740 -1.2222 -0.1805 -0.4349
  320MOL0     H43142   8.403   2.626   8.819 -0.7349  2.0042 -1.7522
  320MOL0     H43143   8.430   2.806   8.657 -3.4375 -1.5508  0.7915
  320MOL0     H43144   8.569   2.728   8.575 -0.5418 -1.3844 -2.8544
  320MOL0     H43145   8.436   2.531   8.512 -2.1355 -0.5292 -0.8796
  320MOL0     H43146   8.304   2.584   8.614 -1.4889  2.0084  1.2985
  320MOL0     H43147   8.418   2.699   8.354 -0.6681  1.2253  0.4255
  320MOL0     H43148   8.323   2.803   8.459  2.7707  2.0433 -2.8511
  320MOL0     H43149   8.187   2.719   8.274  1.6704 -1.3586 -0.9816
  320MOL0     H43150   8.211   2.544   8.307 -1.1008 -0.7879  1.6106
  320MOL0     H43151   8.110   2.433   8.543 -2.2261 -1.0607  0.4980
  320MOL0     H43152   7.986   2.519   8.810 -0.0917 -1.3429 -0.3555
  320MOL0     H43153   7.823   2.583   8.759  0.2611  2.7500 -3.7793
  320MOL0     H43154   7.773   2.378   8.656 -0.4271  0.2680  0.6399
  320MOL0     H43155   7.947   2.307   8.683  0.3631 -0.3848  0.5859
  320MOL0     H43156   7.725   2.395   8.882  0.9453  1.3536 -1.2586
  320MOL0     H43157   7.874   2.321   8.935 -1.8329  0.6532  1.8165
  320MOL0     H43158   7.767   2.132   8.751 -1.2158  0.7579 -0.2571
  320MOL0     H43159   7.627   2.187   8.831 -1.2738 -2.6041  1.9770
  320MOL0     H43160   7.725   1.898   9.115 -0.0969 -1.4429 -0.0515
  320MOL0     H43161   7.907   1.720   9.154 -1.3720  1.0956 -0.6461
  320MOL0     H43162   8.390   1.686   9.162 -1.8170 -1.8215 -0.8464
  320MOL0     H43163   8.607   1.584   9.178  2.0804  1.3269 -1.6683
  320MOL0     H43164   8.822   1.579   9.152  0.0535  2.6243  0.1536
  320MOL0     H43165   8.938   1.488   9.040  0.8059  1.1475 -0.9065
  320MOL0     H43166   8.903   1.643   8.876 -5.9784 -5.6808 -0.1377
  320MOL0     H43167   8.806   1.747   8.994  2.4749  2.8500  1.1834
  320MOL0     H43168   9.110   1.696   9.004  1.8617  1.8151  0.3131
  320MOL0     H43169   9.023   1.843   8.999 -0.1053  0.7326  2.6050
  320MOL0     H43170   8.927   1.726   9.236  1.8869 -1.6757  2.5406
  320MOL0     H43171   9.047   1.840   9.230 -1.4530  0.0174 -1.6001
  320MOL0     H43172   9.227   1.668   9.206 -0.3475 -1.1788  0.5377
  320MOL0     H43173   9.088   1.543   9.208  1.3384 -0.6034 -0.8367
  320MOL0     H43174   9.184   1.718   9.443 -1.8896  0.7770 -0.0870
  320MOL0     H43175   9.043   1.602   9.442  1.1538 -2.2969 -0.2127
  320MOL0     H43176   9.331   1.527   9.402  0.3451  1.4450  2.0508
  320MOL0     H43177   9.184   1.427   9.397 -1.0998  0.8748 -2.3773
  320MOL0     H43178   9.284   1.609   9.636  2.9214  0.2776 -4.0332
  320MOL0     H43179   9.129   1.519   9.641 -0.1919 -0.0868  1.8121
  320MOL0     H43180   8.592   1.472   8.776 -2.3645 -3.5991 -0.2005
  320MOL0     H43181   8.371   1.582   8.746  1.1693  0.2651 -0.5327
  320MOL0     H43182   8.143   1.910   8.859 -1.3208 -1.1089 -1.2372
  320MOL0     H43183   7.988   2.112   8.854  0.8677  1.0339  0.9997
  320MOL0     H43184   8.838   2.817   9.267 -0.0843  1.2012  0.4465
  320MOL0     H43185   9.047   2.851   9.396 -1.6188  0.3882 -1.0235
  320MOL0     H43186   9.514   2.699   9.423  0.3128  2.1900 -1.4545
  320MOL0     H43187   9.642   2.617   9.628  1.1144  0.3140  1.5413
  320MOL0     H43188   9.811   2.770   9.718  0.6543  0.9682 -0.3180
  320MOL0     H43189   9.789   2.629   9.821  1.8052 -0.3973 -1.0112
  320MOL0     H43190   9.886   2.926   9.883  1.6920  0.1531 -0.1009
  320MOL0     H43191   9.983   2.772   9.879 -1.4800 -1.3758 -3.1427
  320MOL0     H43192   9.784   2.709  10.051  0.2388 -0.5680 -1.9608
  320MOL0     H43193   9.804   2.891  10.089 -0.6458 -1.1272  0.8689
  320MOL0     H43194  10.015   2.681  10.089 -2.5423  0.4834 -1.8557
  320MOL0     H43195  10.044   2.842  10.145 -0.3420 -0.2665  1.6742
  320MOL0     H43196   9.866   2.651  10.473  0.2557  2.5248  0.7885
  320MOL0     H43197   9.482   2.950   9.849 -2.0229  0.6170 -0.5764
  320MOL0     H43198   9.200   3.048   9.689 -0.2975  0.0106  1.3845
  320MOL0     H43199   9.355   3.104   9.760  3.0002 -0.1449 -1.2946
  320MOL0     H43200   9.335   3.123   9.595 -1.4842  0.5892  0.2573
  321MOL0     O43201  10.339   5.383   2.799  0.4735  0.5838  0.3196
  321MOL0     C43202  10.330   5.496   2.753  0.1735  0.0481 -0.2299
  321MOL0     O43203  10.410   5.552   2.658  0.4971  0.6905 -0.3937
  321MOL0     C43204  10.502   5.490   2.577  1.3014  0.9609  0.7056
  321MOL0     C43205  10.485   5.350   2.538  0.1202  0.3572  0.5770
  321MOL0     C43206  10.578   5.283   2.463  0.8227 -0.6720 -1.2630
  321MOL0     C43207  10.679   5.358   2.415 -0.6085  0.1689  0.6765
  321MOL0     O43208  10.768   5.299   2.326 -0.1208  0.0572 -0.4309
  321MOL0     C43209  10.729   5.187   2.256 -0.3503  0.7060 -0.3590
  321MOL0     C43210  10.804   5.186   2.118 -0.8059  0.0738 -0.1441
  321MOL0     C43211  10.782   5.316   2.040  0.2007 -0.6570  0.4108
  321MOL0     C43212  10.880   5.330   1.923 -0.0776  0.8604  0.6671
  321MOL0     C43213  10.861   5.225   1.813 -0.1865  0.3040  0.4891
  321MOL0     C43214  10.952   5.105   1.826  0.0608  0.0595 -0.9601
  321MOL0     C43215  10.939   5.032   1.692 -0.1880 -0.2960 -0.0027
  321MOL0     C43216  10.810   4.958   1.678  1.1962  0.1274  0.6813
  321MOL0     N43217  10.786   4.851   1.773 -0.5775 -0.1890  0.3833
  321MOL0     C43218  10.840   4.732   1.800  0.4867  0.8038 -0.3663
  321MOL0     C43219  10.764   4.675   1.898 -0.3361 -0.8447 -0.8179
  321MOL0     C43220  10.754   4.540   1.968 -0.6248  0.5578  0.3531
  321MOL0     C43221  10.843   4.420   1.928 -0.0252  0.1716  0.8394
  321MOL0     C43222  10.842   4.379   1.776  0.0918  0.7439  0.0100
  321MOL0     C43223  10.964   4.301   1.748 -0.6353 -0.1371  0.5449
  321MOL0     O43224  11.085   4.381   1.737  1.1859  0.0558  0.3448
  321MOL0     C43225  11.079   4.479   1.640 -0.4649 -0.8670  0.0951
  321MOL0     C43226  11.017   4.466   1.517  0.1780 -1.0809 -0.4328
  321MOL0     C43227  11.015   4.575   1.430  0.1170  0.6404 -0.1938
  321MOL0     C43228  11.107   4.682   1.439  0.4743 -0.0590  0.3197
  321MOL0     C43229  11.118   4.784   1.332  0.6962  1.2007  0.1644
  321MOL0     O43230  11.175   4.905   1.378  0.2956  0.2939 -0.2727
  321MOL0     C43231  11.149   5.026   1.315 -0.4689  0.0220 -0.0282
  321MOL0     C43232  11.092   5.041   1.183 -0.3928  0.3317  0.2766
  321MOL0     C43233  11.098   5.160   1.116 -0.0263 -0.8615  0.1606
  321MOL0     C43234  11.153   5.285   1.168  0.4840  0.4142  0.0987
  321MOL0     O43235  11.145   5.397   1.088  0.0926  0.0045 -0.4957
  321MOL0     C43236  11.193   5.525   1.142  0.8336  0.2153 -0.3519
  321MOL0     C43237  11.177   5.623   1.022 -0.0546  0.1536  0.1207
  321MOL0     C43238  11.320   5.631   0.962  0.0490 -0.3531 -0.3382
  321MOL0     C43239  11.382   5.499   0.911  0.4654 -0.2588  0.5591
  321MOL0     C43240  11.503   5.541   0.827  0.6607  0.7957  0.6974
  321MOL0     C43241  11.581   5.414   0.779 -0.4512  0.0438 -0.4025
  321MOL0     C43242  11.494   5.307   0.714  0.3049 -0.4696  0.1197
  321MOL0     C43243  11.410   5.365   0.604 -0.0206  0.5752 -0.0069
  321MOL0    Cl43244  11.367   5.225   0.502 -0.0801 -0.3407  0.0343
  321MOL0     C43245  11.208   5.270   1.298 -1.0555 -0.1800 -0.7660
  321MOL0     C43246  11.213   5.141   1.370 -0.6736 -1.6437  0.5416
  321MOL0     O43247  11.063   4.751   1.224  0.1726  0.6610  0.1018
  321MOL0     C43248  11.171   4.695   1.561  0.0559 -0.3054 -1.3224
  321MOL0     C43249  11.158   4.599   1.659 -0.3570 -0.1614 -0.2497
  321MOL0     N43250  10.669   4.766   1.938 -0.5865 -0.4395  0.8100
  321MOL0     N43251  10.672   4.860   1.848  0.6007 -0.2591 -0.4315
  321MOL0     C43252  10.690   5.489   2.426 -0.5505 -0.5964 -0.0639
  321MOL0     C43253  10.606   5.560   2.516  0.0397 -0.3303  0.2949
  321MOL0     C43254  10.237   5.583   2.828  0.3155 -0.8001  0.3519
  321MOL0     C43255  10.167   5.529   2.939 -1.0149  0.1400 -0.9779
  321MOL0     C43256  10.110   5.610   3.034  0.4594  0.1331  1.1139
  321MOL0     C43257  10.086   5.746   3.005  0.3547  0.3130  0.1952
  321MOL0     O43258  10.004   5.805   3.098  0.4262 -0.3475  0.3245
  321MOL0     C43259   9.924   5.912   3.059  0.6787 -1.0144  0.6458
  321MOL0     C43260   9.797   5.907   3.152 -0.0978 -0.8009 -0.3659
  321MOL0     C43261   9.828   5.929   3.304  0.6832 -0.2431 -0.9373
  321MOL0     C43262   9.721   5.861   3.385  0.1385  0.6819  0.0322
  321MOL0     C43263   9.761   5.721   3.398  0.9446  1.3124  0.4494
  321MOL0     C43264   9.790   5.598   3.393  0.2338  0.4625 -1.0107
  321MOL0     C43265  10.148   5.800   2.894 -0.0075 -0.0442  0.9293
  321MOL0     C43266  10.219   5.721   2.806  0.0736 -0.4107  0.0851
  321MOL0     C43267  10.282   5.795   2.696 -0.3040 -0.2180 -0.2219
  321MOL0     H43268  10.413   5.277   2.574  0.6488 -1.3685 -1.6284
  321MOL0     H43269  10.563   5.176   2.450 -1.7410 -0.5411 -0.1048
  321MOL0     H43270  10.763   5.096   2.306 -1.9358 -0.3444 -1.1054
  321MOL0     H43271  10.622   5.170   2.243 -0.2469 -0.6877  0.4133
  321MOL0     H43272  10.779   5.098   2.058 -1.2269 -0.8419  1.3142
  321MOL0     H43273  10.911   5.170   2.129 -0.7784 -0.9311 -1.6095
  321MOL0     H43274  10.800   5.402   2.105 -1.4485  0.5663 -0.6790
  321MOL0     H43275  10.678   5.340   2.018 -0.1758  3.7197  5.0561
  321MOL0     H43276  10.880   5.430   1.881  1.2614  0.9158  0.7366
  321MOL0     H43277  10.983   5.317   1.958  0.4179  0.4406 -0.8992
  321MOL0     H43278  10.755   5.198   1.820  0.4355 -2.7441 -0.1547
  321MOL0     H43279  10.867   5.268   1.713  0.1945 -2.1486 -0.6248
  321MOL0     H43280  11.055   5.139   1.839  0.1344 -0.0765 -1.1946
  321MOL0     H43281  10.929   5.036   1.908  0.7385  1.7920  0.7838
  321MOL0     H43282  11.016   4.955   1.685 -2.2774 -2.3743 -2.2679
  321MOL0     H43283  10.950   5.101   1.607  1.3225 -0.5917 -0.0660
  321MOL0     H43284  10.738   5.039   1.687  4.5711  3.4508  0.1359
  321MOL0     H43285  10.797   4.915   1.578  0.3735 -0.4383  1.0220
  321MOL0     H43286  10.924   4.683   1.751  0.3317 -1.6927  1.6378
  321MOL0     H43287  10.766   4.565   2.074 -1.3484  1.1427  0.3040
  321MOL0     H43288  10.655   4.497   1.949 -0.5900 -0.5985  2.4340
  321MOL0     H43289  10.943   4.453   1.956  0.2444  1.3363 -1.2404
  321MOL0     H43290  10.815   4.332   1.986 -0.3294 -1.1721 -1.2278
  321MOL0     H43291  10.834   4.463   1.708 -1.1096  0.4130 -0.2846
  321MOL0     H43292  10.756   4.314   1.759 -0.6162  1.5009  0.6257
  321MOL0     H43293  10.956   4.241   1.656 -2.2228 -0.9059  1.1527
  321MOL0     H43294  10.983   4.229   1.828  1.2838  0.4599  0.6914
  321MOL0     H43295  10.947   4.388   1.487 -0.3429  0.2793 -3.1506
  321MOL0     H43296  10.946   4.571   1.346 -0.8359  1.2463  0.5411
  321MOL0     H43297  11.044   4.959   1.131  0.3374 -0.1282  0.3050
  321MOL0     H43298  11.074   5.164   1.011 -1.7391  0.2751  0.5478
  321MOL0     H43299  11.131   5.556   1.227  0.3096  0.9210 -0.9802
  321MOL0     H43300  11.297   5.522   1.175  0.7305  0.9748  0.0657
  321MOL0     H43301  11.104   5.592   0.947  0.4520 -1.3233  0.2072
  321MOL0     H43302  11.146   5.714   1.073 -2.3701 -0.0920 -0.7398
  321MOL0     H43303  11.320   5.702   0.879  1.5094  2.1157  1.6201
  321MOL0     H43304  11.396   5.671   1.030  1.1147 -2.3872 -0.2602
  321MOL0     H43305  11.311   5.452   0.842 -0.4958 -0.5073  1.6677
  321MOL0     H43306  11.402   5.419   0.983  2.0984 -0.5553 -0.1958
  321MOL0     H43307  11.568   5.611   0.880 -2.7122  3.2663  1.9352
  321MOL0     H43308  11.460   5.588   0.737 -1.8980 -1.8728  0.3862
  321MOL0     H43309  11.652   5.440   0.701 -2.5835  1.0957 -2.1069
  321MOL0     H43310  11.627   5.375   0.871 -0.6377  0.9276  0.0829
  321MOL0     H43311  11.424   5.261   0.785 -0.5066  1.9249  0.9596
  321MOL0     H43312  11.564   5.231   0.677  0.7144 -0.9538  1.7862
  321MOL0     H43313  11.322   5.421   0.638 -0.0410  0.7552 -0.3551
  321MOL0     H43314  11.478   5.428   0.547 -0.8508  1.3939 -0.1065
  321MOL0     H43315  11.243   5.358   1.351 -1.3350  0.1063 -1.0482
  321MOL0     H43316  11.272   5.139   1.462 -2.0652 -1.9331  1.4524
  321MOL0     H43317  11.234   4.782   1.575  0.6727 -0.6913 -1.6087
  321MOL0     H43318  11.221   4.610   1.746 -0.3773 -0.3062 -0.2177
  321MOL0     H43319  10.766   5.548   2.375 -0.9153 -1.1909 -1.3441
  321MOL0     H43320  10.611   5.668   2.527 -1.6933 -0.2413  0.6132
  321MOL0     H43321  10.176   5.423   2.961  1.2498  0.9268  2.9661
  321MOL0     H43322  10.048   5.576   3.116 -1.6980  0.8838 -0.1392
  321MOL0     H43323   9.894   5.905   2.954 -1.9848 -0.4163  1.2968
  321MOL0     H43324   9.971   6.009   3.077 -0.4621 -0.4981  0.9179
  321MOL0     H43325   9.755   5.809   3.132  1.0519 -0.7762 -3.4284
  321MOL0     H43326   9.721   5.982   3.125  0.1516 -1.0096 -1.7339
  321MOL0     H43327   9.829   6.035   3.330  1.9262  0.0201 -1.9829
  321MOL0     H43328   9.925   5.889   3.336  0.8011  0.5140 -0.3112
  321MOL0     H43329   9.710   5.901   3.486  0.9725 -1.7082  1.1466
  321MOL0     H43330   9.628   5.883   3.332 -0.8722  1.4226  2.0196
  321MOL0     H43331   9.800   5.491   3.389 -1.8867  0.1959 -0.3390
  321MOL0     H43332  10.140   5.908   2.886  2.1313  0.2008  1.3287
  321MOL0     H43333  10.260   5.743   2.602 -2.4634 -1.0021  0.6412
  321MOL0     H43334  10.247   5.898   2.688 -0.8745 -0.5781 -3.5638
  321MOL0     H43335  10.390   5.798   2.711 -0.0846  1.4794 -1.8154
  322MOL0     O43336   8.420  10.981   2.110 -0.1604  0.4221 -0.2096
  322MOL0     C43337   8.360  10.943   2.212 -0.3382 -0.1388  0.0496
  322MOL0     O43338   8.417  10.896   2.316 -0.3620  0.4121 -0.4914
  322MOL0     C43339   8.544  10.942   2.337  0.4377 -0.1365  0.1985
  322MOL0     C43340   8.661  10.901   2.268 -0.0985 -0.5024 -0.0924
  322MOL0     C43341   8.776  10.968   2.305  0.1908  0.4894 -0.6555
  322MOL0     C43342   8.794  11.067   2.403 -0.7466  0.0938 -1.4509
  322MOL0     O43343   8.917  11.140   2.431  0.4540  0.4746 -0.4549
  322MOL0     C43344   9.043  11.088   2.386  0.4848  0.2974  0.4494
  322MOL0     C43345   9.151  11.180   2.460 -0.6039  0.2097 -0.1457
  322MOL0     C43346   9.154  11.150   2.612  0.5062 -0.0392  0.4652
  322MOL0     C43347   9.291  11.192   2.671 -0.5021 -0.1101 -0.5348
  322MOL0     C43348   9.277  11.191   2.824  0.5758 -0.2803 -1.2692
  322MOL0     C43349   9.410  11.232   2.885 -0.4611 -0.1203 -0.0942
  322MOL0     C43350   9.507  11.114   2.914  0.5943 -0.5551  0.1406
  322MOL0     C43351   9.644  11.171   2.920  0.5110 -0.3358 -0.5488
  322MOL0     N43352   9.670  11.276   3.023  0.0934 -0.2217 -0.8208
  322MOL0     C43353   9.683  11.402   2.991 -0.4543 -0.1545  0.0332
  322MOL0     C43354   9.705  11.475   3.105  0.4287 -0.2140 -0.0988
  322MOL0     C43355   9.718  11.625   3.121  0.7914  0.7425 -0.1819
  322MOL0     C43356   9.867  11.653   3.145  0.2603 -0.9612 -0.1444
  322MOL0     C43357   9.912  11.631   3.281 -0.1731 -0.2378  0.8280
  322MOL0     C43358  10.048  11.705   3.327 -0.3254 -0.2610 -0.1903
  322MOL0     O43359  10.154  11.609   3.337  0.0107  0.1763 -0.0225
  322MOL0     C43360  10.219  11.596   3.219 -0.8128 -0.1764 -1.2774
  322MOL0     C43361  10.214  11.471   3.155  0.3318 -0.0923  0.2046
  322MOL0     C43362  10.288  11.455   3.036 -0.2483 -0.5271  0.0590
  322MOL0     C43363  10.364  11.560   2.984  0.3844 -0.2767  0.4874
  322MOL0     C43364  10.451  11.539   2.871 -1.1810  0.2372  0.2245
  322MOL0     O43365  10.443  11.433   2.789 -0.1087 -0.2704 -0.0185
  322MOL0     C43366  10.512  11.410   2.671 -0.0692  0.5899  0.0033
  322MOL0     C43367  10.500  11.275   2.631 -0.2715 -0.7292  0.5423
  322MOL0     C43368  10.585  11.229   2.534 -0.4533 -0.1249  0.4671
  322MOL0     C43369  10.674  11.319   2.463  0.1050 -0.2134  0.3632
  322MOL0     O43370  10.763  11.288   2.370 -0.7925  0.2064 -0.6963
  322MOL0     C43371  10.807  11.150   2.349 -0.2311  0.0609  0.2962
  322MOL0     C43372  10.916  11.153   2.243 -0.1390 -0.3007  0.4831
  322MOL0     C43373  10.852  11.199   2.111 -0.5182  0.5322  0.9152
  322MOL0     C43374  10.953  11.161   2.002 -1.0607  0.2466 -0.2339
  322MOL0     C43375  11.091  11.229   2.010  0.0871 -0.2913  0.3112
  322MOL0     C43376  11.179  11.201   1.888 -0.5312 -0.8170 -0.2908
  322MOL0     C43377  11.315  11.269   1.898  0.3458 -0.1678  0.3267
  322MOL0     C43378  11.420  11.214   1.787  0.0823  0.7112  0.5877
  322MOL0    Cl43379  11.374  11.263   1.617  0.0582 -0.4446  0.0258
  322MOL0     C43380  10.678  11.451   2.501 -0.5677  0.0875 -0.6157
  322MOL0     C43381  10.598  11.499   2.608  1.6628 -0.3902 -1.1357
  322MOL0     O43382  10.539  11.627   2.855  0.1019  0.4587 -0.1356
  322MOL0     C43383  10.366  11.687   3.051 -0.2029  0.3391  1.2003
  322MOL0     C43384  10.298  11.699   3.171  1.2923  0.7394 -0.0707
  322MOL0     N43385   9.696  11.385   3.214 -0.7939 -0.6362 -0.0034
  322MOL0     N43386   9.682  11.261   3.163 -0.4016  0.6078  1.1997
  322MOL0     C43387   8.677  11.089   2.480 -0.7895 -0.1225 -0.2283
  322MOL0     C43388   8.558  11.030   2.441 -0.6788 -0.1271  0.5724
  322MOL0     C43389   8.208  10.939   2.196 -0.5575 -0.2500 -1.1682
  322MOL0     C43390   8.134  10.877   2.294 -0.1822 -1.0138  0.5662
  322MOL0     C43391   7.993  10.870   2.303 -0.4119  0.7348  1.1042
  322MOL0     C43392   7.918  10.922   2.197 -0.3485  0.4339  0.3659
  322MOL0     O43393   7.783  10.923   2.180  0.8119  0.3019  0.8999
  322MOL0     C43394   7.707  10.899   2.303 -0.4321  0.4002 -0.9726
  322MOL0     C43395   7.560  10.895   2.263  1.7579 -0.0311 -0.1790
  322MOL0     C43396   7.522  10.799   2.150 -0.1245  0.6906 -0.3138
  322MOL0     C43397   7.373  10.788   2.135  0.2814 -0.1175  0.1271
  322MOL0     C43398   7.309  10.714   2.246 -0.8301 -0.6895  0.0055
  322MOL0     C43399   7.268  10.651   2.340 -0.5023 -0.9106  0.7426
  322MOL0     C43400   7.992  10.989   2.099  0.0861  0.5528 -1.5012
  322MOL0     C43401   8.132  10.995   2.094 -0.0052 -1.0113 -0.4072
  322MOL0     C43402   8.200  11.050   1.973 -0.5902 -0.9132 -0.0240
  322MOL0     H43403   8.636  10.835   2.185 -2.0875  1.5290 -1.2377
  322MOL0     H43404   8.848  10.946   2.226 -0.2597 -2.3147 -0.3919
  322MOL0     H43405   9.055  10.980   2.405 -0.7124  0.0820  0.0355
  322MOL0     H43406   9.058  11.103   2.279  2.0484 -0.7599  0.4797
  322MOL0     H43407   9.141  11.287   2.438  0.3272  0.7904  2.0508
  322MOL0     H43408   9.247  11.147   2.420 -1.7374 -1.0081 -1.9979
  322MOL0     H43409   9.136  11.047   2.643  2.4613 -0.8761 -0.9745
  322MOL0     H43410   9.074  11.215   2.648  0.1824  0.2222 -0.6726
  322MOL0     H43411   9.368  11.117   2.650 -1.5064 -1.1589 -0.5822
  322MOL0     H43412   9.336  11.282   2.629  2.3443  0.8460  3.8383
  322MOL0     H43413   9.201  11.265   2.853  2.0447  0.3557  1.3265
  322MOL0     H43414   9.241  11.096   2.863  1.1333  0.1194  0.2839
  322MOL0     H43415   9.468  11.296   2.819  1.3821 -1.6841 -0.0793
  322MOL0     H43416   9.401  11.296   2.974 -1.6489 -0.7268  0.2431
  322MOL0     H43417   9.503  11.039   2.834 -1.7734  0.6041 -0.9068
  322MOL0     H43418   9.475  11.063   3.006 -1.5842  1.7425  0.7678
  322MOL0     H43419   9.722  11.096   2.933  2.1051  1.5845  1.7870
  322MOL0     H43420   9.667  11.219   2.824 -1.7139  0.3208 -0.8231
  322MOL0     H43421   9.690  11.433   2.887 -1.6955  1.6423  0.4450
  322MOL0     H43422   9.675  11.683   3.040  2.3065  0.6666 -1.0842
  322MOL0     H43423   9.657  11.647   3.210  0.0445 -3.2936  0.5000
  322MOL0     H43424   9.930  11.601   3.073 -0.7514 -0.7380 -1.2120
  322MOL0     H43425   9.883  11.761   3.130 -2.5993 -0.4343  0.1063
  322MOL0     H43426   9.905  11.522   3.280 -1.7899 -0.2182 -1.7480
  322MOL0     H43427   9.835  11.663   3.351  1.1445  0.0798  2.1678
  322MOL0     H43428  10.026  11.755   3.423 -2.2761 -1.1455 -0.1388
  322MOL0     H43429  10.069  11.770   3.242 -3.8882 -1.8241 -2.5107
  322MOL0     H43430  10.149  11.391   3.189 -1.4345  0.3163 -1.9588
  322MOL0     H43431  10.300  11.360   2.985  3.1757  1.4460 -3.4216
  322MOL0     H43432  10.441  11.205   2.689 -1.3122 -2.7011 -2.6279
  322MOL0     H43433  10.590  11.124   2.508 -0.4946  0.4470 -2.0612
  322MOL0     H43434  10.845  11.113   2.445 -0.2523 -1.4091 -0.2325
  322MOL0     H43435  10.722  11.084   2.332 -0.7606  0.8209 -0.0457
  322MOL0     H43436  11.008  11.208   2.267  1.1672 -2.9574  2.0232
  322MOL0     H43437  10.952  11.050   2.235 -0.9813 -0.5046 -0.9544
  322MOL0     H43438  10.754  11.154   2.091 -0.9923  1.4253  1.1988
  322MOL0     H43439  10.817  11.302   2.104 -0.9959  0.3785  0.9753
  322MOL0     H43440  10.917  11.165   1.899  2.5811 -0.1207 -1.6877
  322MOL0     H43441  10.955  11.052   2.007 -0.0777  0.1941 -1.3467
  322MOL0     H43442  11.137  11.199   2.104 -1.2921 -0.8815  0.8303
  322MOL0     H43443  11.072  11.337   2.014 -0.5378 -0.4311  1.9680
  322MOL0     H43444  11.200  11.095   1.870 -1.2409 -0.8554 -0.9512
  322MOL0     H43445  11.126  11.244   1.802 -1.5466  2.3715  1.7479
  322MOL0     H43446  11.357  11.254   1.998 -1.7090 -2.8971  0.8869
  322MOL0     H43447  11.302  11.378   1.901 -1.0858 -0.3395  2.8227
  322MOL0     H43448  11.522  11.253   1.799  0.7922 -0.9614  0.1949
  322MOL0     H43449  11.432  11.107   1.803  0.8476  0.9434  1.6189
  322MOL0     H43450  10.738  11.521   2.445  3.2281 -0.2648  2.5304
  322MOL0     H43451  10.612  11.601   2.644  0.2685 -0.7720  0.6964
  322MOL0     H43452  10.428  11.771   3.022 -1.5805  1.6143  1.7724
  322MOL0     H43453  10.317  11.786   3.234 -0.6871  0.1922  1.3842
  322MOL0     H43454   8.684  11.161   2.560  0.8550 -2.9844  2.4230
  322MOL0     H43455   8.479  11.079   2.497 -0.8442  1.2382 -0.7680
  322MOL0     H43456   8.186  10.816   2.367  1.8570 -1.4444 -1.1501
  322MOL0     H43457   7.962  10.800   2.380  1.7717 -1.9239 -0.2519
  322MOL0     H43458   7.730  10.980   2.373  2.8839 -0.5637 -0.7511
  322MOL0     H43459   7.731  10.804   2.351  2.3484  0.4369 -2.0599
  322MOL0     H43460   7.539  10.999   2.234  2.0391  1.0429  3.0505
  322MOL0     H43461   7.507  10.873   2.356  1.8650 -3.2152 -0.7692
  322MOL0     H43462   7.555  10.699   2.181 -0.7023  0.3157 -0.8839
  322MOL0     H43463   7.573  10.823   2.057  0.9453  0.3266  0.1678
  322MOL0     H43464   7.324  10.885   2.132  0.3213 -0.0411  1.4285
  322MOL0     H43465   7.340  10.740   2.042  3.8428 -0.6810 -1.0122
  322MOL0     H43466   7.225  10.589   2.417 -1.6452 -3.0792 -1.4962
  322MOL0     H43467   7.925  11.033   2.025 -1.3105  0.7219 -0.1898
  322MOL0     H43468   8.130  11.101   1.906  0.1004 -0.4523 -0.4065
  322MOL0     H43469   8.276  11.129   1.980 -1.0769 -0.4144 -0.2957
  322MOL0     H43470   8.250  10.964   1.927  0.6715 -0.5131  0.5475
  323MOL0     O43471   0.204  10.921   7.740  0.0241  0.3673  0.3221
  323MOL0     C43472   0.255  10.855   7.652 -0.5024  0.1214 -0.2289
  323MOL0     O43473   0.205  10.843   7.526  0.1292  0.2069 -0.2074
  323MOL0     C43474   0.064  10.858   7.502 -0.6417 -0.1990 -0.1385
  323MOL0     C43475   0.019  10.963   7.424 -0.3293 -1.1891  0.3879
  323MOL0     C43476  -0.114  10.976   7.383  0.2364  0.2733 -0.0013
  323MOL0     C43477  -0.200  10.871   7.411  0.1850 -0.0149  1.3225
  323MOL0     O43478  -0.337  10.857   7.383  0.3082  0.4074  0.2942
  323MOL0     C43479  -0.418  10.980   7.383 -0.0847 -0.4586  0.1539
  323MOL0     C43480  -0.572  10.960   7.399 -0.4903 -0.4920  0.3315
  323MOL0     C43481  -0.648  11.091   7.448  0.8284  0.3968 -0.6343
  323MOL0     C43482  -0.784  11.049   7.516  0.1710  0.4003 -0.3986
  323MOL0     C43483  -0.877  11.166   7.548  0.1950  0.0430 -0.1382
  323MOL0     C43484  -1.004  11.115   7.628  0.1886 -0.1342  0.2711
  323MOL0     C43485  -1.096  11.235   7.658 -0.0880 -0.5387 -0.0608
  323MOL0     C43486  -1.057  11.306   7.784  0.0030 -0.6341  0.4074
  323MOL0     N43487  -1.093  11.445   7.781  0.2835 -0.8117  0.1684
  323MOL0     C43488  -1.191  11.499   7.861 -0.2147  0.3039 -0.1593
  323MOL0     C43489  -1.198  11.630   7.824  0.7436  0.4608  0.7783
  323MOL0     C43490  -1.304  11.737   7.871  0.4331  0.6839  0.3551
  323MOL0     C43491  -1.397  11.782   7.762  0.4309  0.0541  0.2430
  323MOL0     C43492  -1.517  11.856   7.816  0.4011 -0.5746 -0.3202
  323MOL0     C43493  -1.631  11.773   7.872  0.4057 -0.0003 -0.9115
  323MOL0     O43494  -1.685  11.706   7.756 -0.5189 -0.3102 -0.5920
  323MOL0     C43495  -1.784  11.757   7.675 -0.0917 -0.4785  0.4264
  323MOL0     C43496  -1.848  11.887   7.683 -0.6221 -0.1732 -0.3144
  323MOL0     C43497  -1.942  11.924   7.590  0.3351 -0.0025  0.3525
  323MOL0     C43498  -1.978  11.839   7.488  0.9059  0.6691 -0.3989
  323MOL0     C43499  -2.087  11.878   7.389 -0.0927  0.1412  0.1577
  323MOL0     O43500  -2.159  11.983   7.423  0.2701  0.2515 -0.9164
  323MOL0     C43501  -2.251  12.039   7.342  0.3428 -0.0379 -0.2381
  323MOL0     C43502  -2.344  11.967   7.263 -0.3498 -0.3611  0.6453
  323MOL0     C43503  -2.448  12.039   7.180 -0.7611 -0.6823 -0.9591
  323MOL0     C43504  -2.448  12.178   7.175  0.3696 -0.9670  0.2047
  323MOL0     O43505  -2.538  12.242   7.089 -0.2449  0.1886 -0.9353
  323MOL0     C43506  -2.543  12.386   7.097  0.9264  0.7600  0.0420
  323MOL0     C43507  -2.631  12.449   6.984 -0.2882 -0.5987  0.3689
  323MOL0     C43508  -2.589  12.423   6.843  0.0799 -0.5105 -0.6558
  323MOL0     C43509  -2.580  12.282   6.787 -0.3706  0.5546  0.8205
  323MOL0     C43510  -2.707  12.193   6.805 -0.0012  0.4997  0.5451
  323MOL0     C43511  -2.829  12.235   6.718 -0.0353  0.5407 -0.5567
  323MOL0     C43512  -2.791  12.243   6.561 -0.5016 -0.0143 -0.9990
  323MOL0     C43513  -2.927  12.230   6.487  0.3420 -0.4733  0.6406
  323MOL0    Cl43514  -2.897  12.230   6.312  0.4089  0.0026  0.1273
  323MOL0     C43515  -2.353  12.248   7.257  0.8790 -0.0483  1.1935
  323MOL0     C43516  -2.257  12.189   7.342 -0.8784  0.6085  0.2192
  323MOL0     O43517  -2.101  11.795   7.287  0.5319 -0.4903 -0.5471
  323MOL0     C43518  -1.903  11.715   7.474 -0.1559  0.3230  0.0063
  323MOL0     C43519  -1.804  11.676   7.566 -0.1711  0.2276 -0.0883
  323MOL0     N43520  -1.102  11.646   7.717 -0.2730 -1.1291  0.2481
  323MOL0     N43521  -1.048  11.538   7.689 -0.3587  0.9631 -0.8124
  323MOL0     C43522  -0.157  10.759   7.486  0.0384  0.2927 -0.3146
  323MOL0     C43523  -0.027  10.755   7.529 -0.0590  0.3138 -0.1661
  323MOL0     C43524   0.401  10.821   7.685  0.7294  0.1169  0.7728
  323MOL0     C43525   0.469  10.883   7.795  0.8908 -0.3020 -0.1613
  323MOL0     C43526   0.603  10.853   7.833  0.3078 -0.1205 -0.4022
  323MOL0     C43527   0.667  10.748   7.768 -0.8199 -0.3733  0.6419
  323MOL0     O43528   0.791  10.704   7.795 -0.6703 -0.6362 -0.7811
  323MOL0     C43529   0.869  10.753   7.911 -0.0060 -0.0353  0.0071
  323MOL0     C43530   0.940  10.882   7.871 -0.7679 -0.0013 -0.6779
  323MOL0     C43531   0.927  11.007   7.958 -0.4492 -0.2659 -0.2695
  323MOL0     C43532   0.987  10.987   8.097  0.3717 -1.0486  0.1879
  323MOL0     C43533   1.137  10.982   8.096 -0.5195 -0.0551  0.5085
  323MOL0     C43534   1.260  10.966   8.101 -0.6332  0.1572 -0.3469
  323MOL0     C43535   0.606  10.690   7.655  0.3670 -0.2142 -0.0195
  323MOL0     C43536   0.475  10.722   7.616 -0.0992 -0.3456  1.2122
  323MOL0     C43537   0.417  10.647   7.497 -0.7597  0.2295 -0.2384
  323MOL0     H43538   0.085  11.043   7.393 -2.1782 -0.2643 -1.4535
  323MOL0     H43539  -0.137  11.064   7.323 -1.0464  0.2479  0.4308
  323MOL0     H43540  -0.384  11.028   7.476 -0.8949 -0.2481  0.3441
  323MOL0     H43541  -0.401  11.040   7.294  1.6877 -1.5628 -0.3129
  323MOL0     H43542  -0.595  10.877   7.466 -4.0482  0.0223 -0.0620
  323MOL0     H43543  -0.605  10.942   7.297  0.2810 -1.0419  0.1779
  323MOL0     H43544  -0.655  11.169   7.372  0.8013 -0.6178 -1.7075
  323MOL0     H43545  -0.578  11.144   7.514 -2.2202  1.1542  2.2373
  323MOL0     H43546  -0.837  10.983   7.448 -1.3330 -0.2350  1.3000
  323MOL0     H43547  -0.770  10.999   7.612  0.0186 -1.7352 -1.4344
  323MOL0     H43548  -0.822  11.236   7.612 -0.3818 -3.3346  4.5031
  323MOL0     H43549  -0.911  11.211   7.454 -1.0631  2.1246  1.2379
  323MOL0     H43550  -1.069  11.046   7.573 -0.0305  0.4011 -0.1480
  323MOL0     H43551  -0.954  11.071   7.714 -2.2591  0.4984  2.1416
  323MOL0     H43552  -1.195  11.192   7.675  1.7030 -3.9076  3.5839
  323MOL0     H43553  -1.111  11.303   7.574 -2.9536 -0.0548  0.7364
  323MOL0     H43554  -1.096  11.268   7.879  0.9344 -3.0924 -0.1150
  323MOL0     H43555  -0.950  11.288   7.777  0.2897 -0.8401  3.6386
  323MOL0     H43556  -1.258  11.447   7.929 -0.1684 -1.4886 -1.4112
  323MOL0     H43557  -1.364  11.700   7.954  0.3293  0.8077  0.3359
  323MOL0     H43558  -1.252  11.826   7.908  0.4123  1.1838 -0.7511
  323MOL0     H43559  -1.335  11.844   7.697 -0.5078  0.1627 -0.5712
  323MOL0     H43560  -1.420  11.690   7.708 -0.3885 -0.9850  2.2463
  323MOL0     H43561  -1.554  11.910   7.728 -1.1792 -3.8512 -1.8234
  323MOL0     H43562  -1.475  11.923   7.892 -0.2798 -0.6694  0.1487
  323MOL0     H43563  -1.706  11.831   7.926  0.8253 -0.4541  0.2118
  323MOL0     H43564  -1.606  11.700   7.950 -4.1261 -2.3153 -1.3255
  323MOL0     H43565  -1.836  11.948   7.772 -1.5243 -0.4003 -0.0235
  323MOL0     H43566  -1.998  12.017   7.594  0.8261  0.5399 -2.5162
  323MOL0     H43567  -2.341  11.859   7.258 -1.6366 -0.5188  2.3678
  323MOL0     H43568  -2.512  11.991   7.107 -0.8211 -1.2459 -0.5419
  323MOL0     H43569  -2.599  12.404   7.189 -1.1577 -2.1161 -0.5332
  323MOL0     H43570  -2.448  12.440   7.094  0.9898  0.6839  0.5293
  323MOL0     H43571  -2.733  12.410   6.979 -0.4816  0.0608 -1.0713
  323MOL0     H43572  -2.648  12.556   6.992 -1.1669 -0.6316 -0.8931
  323MOL0     H43573  -2.653  12.476   6.773  2.0577  0.0926 -2.0894
  323MOL0     H43574  -2.490  12.470   6.835  0.0927 -0.0355  1.6223
  323MOL0     H43575  -2.499  12.232   6.841 -2.0824 -0.3826  2.6352
  323MOL0     H43576  -2.547  12.282   6.682 -1.2889 -1.5838  0.4706
  323MOL0     H43577  -2.735  12.194   6.911 -2.9593  4.0415 -0.0689
  323MOL0     H43578  -2.671  12.094   6.776 -1.6034  0.6603 -2.3541
  323MOL0     H43579  -2.919  12.172   6.725 -1.6588  2.7043 -0.8722
  323MOL0     H43580  -2.863  12.334   6.749  0.3102  1.0367 -1.7064
  323MOL0     H43581  -2.731  12.161   6.521  0.4689  0.4372 -0.4924
  323MOL0     H43582  -2.744  12.341   6.549 -3.7628  1.6238 -1.5114
  323MOL0     H43583  -2.982  12.144   6.527 -1.7128  1.5101  2.3412
  323MOL0     H43584  -2.998  12.311   6.508  0.1427 -0.6531  0.6717
  323MOL0     H43585  -2.357  12.355   7.271  0.5422  0.2037 -0.5773
  323MOL0     H43586  -2.199  12.240   7.418  2.2938  0.1275 -1.7108
  323MOL0     H43587  -1.919  11.643   7.395  0.2286 -0.9273  1.0322
  323MOL0     H43588  -1.749  11.584   7.547  0.5879  1.3643 -4.4683
  323MOL0     H43589  -0.217  10.678   7.526  2.4953 -0.5574  1.9558
  323MOL0     H43590   0.007  10.666   7.581 -3.5311 -1.3416 -0.4350
  323MOL0     H43591   0.416  10.963   7.846 -3.7277 -0.4886 -3.9966
  323MOL0     H43592   0.649  10.918   7.908  2.1355 -1.6087 -0.1498
  323MOL0     H43593   0.946  10.676   7.920 -0.8884 -1.1711 -1.4387
  323MOL0     H43594   0.822  10.759   8.009  0.5761 -2.2812  0.4732
  323MOL0     H43595   0.901  10.910   7.772  1.6822 -0.8287 -1.9605
  323MOL0     H43596   1.048  10.865   7.861 -0.2521  3.6577 -4.0159
  323MOL0     H43597   0.822  11.036   7.959  0.2506  2.5982 -0.3416
  323MOL0     H43598   0.971  11.089   7.899 -0.1366 -0.8749 -0.9028
  323MOL0     H43599   0.959  11.063   8.171  1.8566  0.8525 -1.0914
  323MOL0     H43600   0.944  10.891   8.125 -0.3773 -1.8904 -3.3575
  323MOL0     H43601   1.366  10.964   8.110 -0.6991  2.1464  3.2054
  323MOL0     H43602   0.660  10.615   7.599  0.9907 -1.2398  1.8581
  323MOL0     H43603   0.471  10.553   7.481  1.6175  1.2267  1.3121
  323MOL0     H43604   0.317  10.621   7.532 -0.5527  1.4768  1.4256
  323MOL0     H43605   0.423  10.706   7.405 -0.0095  0.6312  0.0524
  324MOL0     O43606   7.285   4.381   5.916 -0.3842  0.8522 -0.5970
  324MOL0     C43607   7.168   4.414   5.925 -0.1216  0.3543  0.2129
  324MOL0     O43608   7.128   4.543   5.931  0.2211  0.1402  0.3908
  324MOL0     C43609   7.217   4.636   5.879 -0.3583 -0.8326 -0.9970
  324MOL0     C43610   7.334   4.680   5.947 -0.1179  0.9520  0.0801
  324MOL0     C43611   7.420   4.763   5.872 -0.6396 -0.5994 -1.0907
  324MOL0     C43612   7.397   4.824   5.754  1.5733 -0.4325 -0.8672
  324MOL0     O43613   7.476   4.918   5.705  0.3389  1.1264 -0.3032
  324MOL0     C43614   7.605   4.874   5.686  0.2328  0.1959  0.3066
  324MOL0     C43615   7.658   4.939   5.555 -0.0313  0.4489  0.0440
  324MOL0     C43616   7.803   4.904   5.515  0.4732 -1.2379  0.5338
  324MOL0     C43617   7.849   4.760   5.523 -0.3670  0.1996 -0.3065
  324MOL0     C43618   7.936   4.739   5.644 -0.6360 -0.2844  1.1552
  324MOL0     C43619   8.000   4.595   5.642  0.1173  0.3757  0.4946
  324MOL0     C43620   8.120   4.596   5.732  0.6409 -0.0837  0.4506
  324MOL0     C43621   8.243   4.645   5.665 -0.1023  0.0022  0.3721
  324MOL0     N43622   8.352   4.687   5.758 -0.4805  0.1922  0.2868
  324MOL0     C43623   8.482   4.679   5.711  1.0084 -0.4762 -0.4790
  324MOL0     C43624   8.544   4.767   5.787  0.3238  0.5013 -0.3060
  324MOL0     C43625   8.680   4.803   5.777 -0.7515  0.9021  1.1616
  324MOL0     C43626   8.764   4.674   5.805  0.1982  0.6476 -0.0169
  324MOL0     C43627   8.911   4.686   5.811 -0.4214  0.8356  0.4585
  324MOL0     C43628   8.969   4.721   5.947 -0.3086  1.1562  0.2600
  324MOL0     O43629   8.929   4.854   5.984 -0.2282  0.0808 -0.0375
  324MOL0     C43630   8.949   4.864   6.116 -0.2502  0.4454 -0.1408
  324MOL0     C43631   9.072   4.854   6.178 -0.5167 -0.2244 -0.3001
  324MOL0     C43632   9.089   4.863   6.312 -0.1191 -0.1660  0.5545
  324MOL0     C43633   8.978   4.864   6.401 -0.3518 -0.6610  0.2248
  324MOL0     C43634   9.004   4.866   6.541 -0.2737  0.8601  0.4966
  324MOL0     O43635   8.896   4.886   6.624 -0.4269 -0.0938  0.5814
  324MOL0     C43636   8.916   4.882   6.759 -0.1688 -0.3106 -0.1712
  324MOL0     C43637   8.881   4.770   6.841 -0.4554  0.3477  0.0583
  324MOL0     C43638   8.904   4.777   6.986  0.7607  1.1060 -0.0780
  324MOL0     C43639   8.928   4.901   7.050  0.4773  0.2494 -0.8768
  324MOL0     O43640   8.946   4.901   7.184 -1.0692 -0.5824  0.0459
  324MOL0     C43641   8.951   4.787   7.262  0.8339  0.9597  0.1086
  324MOL0     C43642   8.963   4.837   7.409 -0.0420  0.2362  0.2589
  324MOL0     C43643   9.087   4.917   7.428  0.3808 -0.3978 -0.2598
  324MOL0     C43644   9.108   4.939   7.572 -0.4908 -0.3332  0.4318
  324MOL0     C43645   9.244   5.005   7.605  0.2135 -0.0258 -0.6792
  324MOL0     C43646   9.257   5.034   7.750  0.8453  0.5660  0.3985
  324MOL0     C43647   9.353   5.132   7.781  0.3950 -0.4282 -0.3272
  324MOL0     C43648   9.354   5.173   7.932  0.4304 -0.9523  0.3861
  324MOL0    Cl43649   9.330   5.359   7.939 -0.2326 -0.0912 -0.2769
  324MOL0     C43650   8.933   5.013   6.975 -0.0280 -0.9277  0.4442
  324MOL0     C43651   8.938   5.005   6.831 -0.4885 -0.1453  0.6066
  324MOL0     O43652   9.118   4.847   6.584  0.1169  0.8261 -0.0538
  324MOL0     C43653   8.850   4.862   6.342  0.0921  0.0115 -0.9360
  324MOL0     C43654   8.836   4.864   6.197  0.3163 -0.4206 -0.6473
  324MOL0     N43655   8.459   4.812   5.887  0.9633  0.4699  0.0078
  324MOL0     N43656   8.341   4.770   5.863  0.1826  0.4621 -0.0891
  324MOL0     C43657   7.279   4.787   5.693  0.0239 -0.3567 -0.6096
  324MOL0     C43658   7.189   4.696   5.753 -0.6058  0.3666  0.1829
  324MOL0     C43659   7.068   4.305   5.942 -0.4962 -0.5875  1.1491
  324MOL0     C43660   6.937   4.343   5.954  0.0088 -0.1310 -0.2538
  324MOL0     C43661   6.830   4.255   5.954  0.1038 -0.2466 -0.2019
  324MOL0     C43662   6.848   4.113   5.930 -0.9494 -0.3192 -0.7479
  324MOL0     O43663   6.753   4.014   5.932  0.0038 -0.1559 -0.3502
  324MOL0     C43664   6.615   4.050   5.936 -0.4481  0.2266  0.8970
  324MOL0     C43665   6.530   3.986   5.813  0.3019  0.5878  0.6476
  324MOL0     C43666   6.503   3.840   5.842 -0.5357  0.1726  0.7367
  324MOL0     C43667   6.398   3.793   5.742 -0.9705  0.6263 -0.7923
  324MOL0     C43668   6.426   3.661   5.685  0.1126  1.1256  0.0156
  324MOL0     C43669   6.455   3.561   5.623 -0.0161  0.1000  0.1919
  324MOL0     C43670   6.980   4.076   5.900  0.5291  0.0591 -0.0814
  324MOL0     C43671   7.090   4.169   5.910 -0.7646  0.7667  0.7269
  324MOL0     C43672   7.228   4.099   5.887 -0.1663  0.2345  0.2463
  324MOL0     H43673   7.360   4.660   6.050  0.4873 -1.8048 -0.5136
  324MOL0     H43674   7.505   4.805   5.926 -1.0449 -1.5027  0.3072
  324MOL0     H43675   7.659   4.914   5.772 -0.2475 -0.1076  0.7588
  324MOL0     H43676   7.611   4.766   5.671  2.6504  0.0669  1.7575
  324MOL0     H43677   7.655   5.047   5.574 -1.3454  0.2654  0.9484
  324MOL0     H43678   7.585   4.910   5.479 -0.9808  1.8337  0.3991
  324MOL0     H43679   7.865   4.969   5.576 -2.2508  0.3982  1.7596
  324MOL0     H43680   7.801   4.948   5.414 -1.4724  0.1310  1.1195
  324MOL0     H43681   7.769   4.686   5.521 -0.3956  0.2389 -2.3397
  324MOL0     H43682   7.901   4.752   5.428  0.1646  3.9511 -0.4948
  324MOL0     H43683   8.010   4.816   5.618 -1.1970 -0.5628 -1.6499
  324MOL0     H43684   7.881   4.764   5.735 -2.4010 -0.8715  0.3043
  324MOL0     H43685   7.933   4.519   5.683  2.2821 -1.4691  0.8247
  324MOL0     H43686   8.026   4.568   5.540  1.6064 -0.6035  1.0996
  324MOL0     H43687   8.136   4.491   5.758 -0.4739 -0.7797 -1.4841
  324MOL0     H43688   8.096   4.649   5.825  2.2584 -1.8245  1.9589
  324MOL0     H43689   8.268   4.569   5.591 -0.8716  0.0733  0.0252
  324MOL0     H43690   8.208   4.740   5.622 -1.5613  0.7182  2.8985
  324MOL0     H43691   8.526   4.631   5.624 -0.7051  3.7060 -4.0631
  324MOL0     H43692   8.677   4.844   5.676 -0.8137 -0.0549  0.7654
  324MOL0     H43693   8.716   4.886   5.838  2.6606  2.6007 -2.6422
  324MOL0     H43694   8.733   4.633   5.902 -0.8009  2.1517  0.3334
  324MOL0     H43695   8.746   4.604   5.723  2.2524  0.8534 -0.6899
  324MOL0     H43696   8.947   4.760   5.740  0.0795  0.2100  0.0503
  324MOL0     H43697   8.959   4.590   5.790 -1.9239  0.3417 -0.8935
  324MOL0     H43698   9.078   4.727   5.943 -0.2015 -0.4421 -0.0518
  324MOL0     H43699   8.933   4.639   6.009  1.8840 -0.9462 -1.0454
  324MOL0     H43700   9.165   4.858   6.122 -0.8610 -0.0778 -0.8708
  324MOL0     H43701   9.188   4.868   6.355 -0.7764 -0.5322  2.2058
  324MOL0     H43702   8.852   4.674   6.799  0.6715  0.0337 -0.0152
  324MOL0     H43703   8.885   4.677   7.022  2.2359 -0.0462 -2.2411
  324MOL0     H43704   8.856   4.733   7.252  2.5483 -2.5741  1.2106
  324MOL0     H43705   9.035   4.720   7.247  0.4492  0.7144 -1.0613
  324MOL0     H43706   8.876   4.897   7.438 -0.9620 -0.5686 -0.7654
  324MOL0     H43707   8.970   4.750   7.475  3.1070 -0.3319 -0.6548
  324MOL0     H43708   9.170   4.859   7.387 -1.1305 -4.1481  1.5279
  324MOL0     H43709   9.066   5.008   7.370 -1.8939  0.3602  1.5822
  324MOL0     H43710   9.103   4.844   7.627 -0.0857  0.9670  2.8565
  324MOL0     H43711   9.020   4.991   7.610 -1.5183 -2.9715  1.9770
  324MOL0     H43712   9.255   5.102   7.556 -0.6645 -0.5352 -1.9505
  324MOL0     H43713   9.325   4.939   7.570  0.5556 -0.3701  0.6936
  324MOL0     H43714   9.160   5.069   7.788  0.2022 -0.7521  0.0480
  324MOL0     H43715   9.282   4.939   7.799 -0.7668  0.1106  0.4128
  324MOL0     H43716   9.341   5.227   7.728 -3.6983  0.2960  1.5791
  324MOL0     H43717   9.452   5.096   7.751  1.3982  0.4576  1.7611
  324MOL0     H43718   9.277   5.131   7.997 -1.1775  1.1726 -0.0129
  324MOL0     H43719   9.453   5.145   7.968 -0.1457 -1.7281  1.4166
  324MOL0     H43720   8.934   5.112   7.019 -4.0218 -0.9746  0.9667
  324MOL0     H43721   8.949   5.095   6.771 -0.7322  0.4866  1.4888
  324MOL0     H43722   8.757   4.873   6.396  0.8678  1.8619  0.1126
  324MOL0     H43723   8.735   4.867   6.160  0.1495 -0.1908 -0.1798
  324MOL0     H43724   7.260   4.839   5.600  3.5110  0.4577 -1.0254
  324MOL0     H43725   7.094   4.671   5.706 -0.6838 -2.0259  1.4277
  324MOL0     H43726   6.924   4.447   5.980  2.6756 -0.1334  1.4437
  324MOL0     H43727   6.734   4.307   5.959  0.3176  0.0820  0.6733
  324MOL0     H43728   6.592   4.157   5.928 -0.4411  0.1419 -0.4865
  324MOL0     H43729   6.560   4.025   6.027 -0.7277  1.8113  1.1908
  324MOL0     H43730   6.579   4.006   5.718  0.7119  3.3702  1.3673
  324MOL0     H43731   6.437   4.040   5.797  0.5103  0.5654 -0.7173
  324MOL0     H43732   6.465   3.827   5.944  0.0277  0.5267  0.9896
  324MOL0     H43733   6.597   3.785   5.837 -0.0287  0.9850  1.2454
  324MOL0     H43734   6.298   3.790   5.786 -0.9460 -2.0988 -0.7792
  324MOL0     H43735   6.393   3.857   5.653 -1.6062  1.8258  0.0673
  324MOL0     H43736   6.477   3.479   5.558 -3.2255  0.4339 -1.5658
  324MOL0     H43737   6.997   3.970   5.884 -1.5052 -0.3334  0.1246
  324MOL0     H43738   7.273   4.145   5.798 -0.9052 -1.9337 -1.3382
  324MOL0     H43739   7.285   4.108   5.980  0.6277 -2.7929  0.1634
  324MOL0     H43740   7.220   3.991   5.870 -0.1137  0.0990  1.0417
  325MOL0     O43741   0.166   4.320   5.822  0.1885  0.1629  0.2870
  325MOL0     C43742   0.109   4.429   5.805  0.2666 -0.7511  0.0928
  325MOL0     O43743   0.180   4.547   5.778 -0.2009 -0.4654 -0.1079
  325MOL0     C43744   0.313   4.546   5.730  0.7608  0.1370 -0.2780
  325MOL0     C43745   0.395   4.639   5.787  0.1179 -0.0604 -0.6256
  325MOL0     C43746   0.524   4.663   5.741  0.0983 -0.0057  0.1348
  325MOL0     C43747   0.571   4.597   5.626 -0.4302  0.0553  0.6633
  325MOL0     O43748   0.686   4.611   5.555 -0.5811  0.4406  0.3050
  325MOL0     C43749   0.804   4.684   5.610  0.2996  0.4874 -0.3144
  325MOL0     C43750   0.938   4.653   5.544  0.0442 -1.0501  0.9280
  325MOL0     C43751   0.925   4.653   5.395  1.2045 -0.5698  0.8112
  325MOL0     C43752   0.904   4.792   5.326  0.2450 -0.0862 -0.1272
  325MOL0     C43753   0.825   4.766   5.188 -0.5679  0.6797 -0.6155
  325MOL0     C43754   0.808   4.899   5.105 -1.9056 -1.2772 -0.2763
  325MOL0     C43755   0.935   4.961   5.042 -0.5966 -0.3079 -0.3761
  325MOL0     C43756   1.002   4.853   4.949 -0.6401 -0.1490  0.1808
  325MOL0     N43757   1.129   4.791   4.994 -0.0011 -0.4253 -0.4580
  325MOL0     C43758   1.146   4.674   5.056 -0.2478  0.1113  0.3631
  325MOL0     C43759   1.278   4.660   5.081  0.1767  1.0430  0.5127
  325MOL0     C43760   1.343   4.542   5.147  0.6368 -0.7205  0.6297
  325MOL0     C43761   1.450   4.483   5.065 -0.2099 -0.3576  0.4614
  325MOL0     C43762   1.496   4.352   5.118  1.0158 -0.5364 -0.1711
  325MOL0     C43763   1.580   4.259   5.032 -0.5830  0.4485  0.1213
  325MOL0     O43764   1.616   4.162   5.131 -0.8100  0.1018  0.7706
  325MOL0     C43765   1.699   4.063   5.094  0.3853  0.2885  0.6542
  325MOL0     C43766   1.736   3.972   5.190 -0.2116  0.5604 -0.2403
  325MOL0     C43767   1.813   3.861   5.161 -0.2438  0.1326  0.7066
  325MOL0     C43768   1.865   3.843   5.030 -0.4937 -0.0332 -0.5017
  325MOL0     C43769   1.963   3.745   4.994 -0.2888 -0.5149  0.4567
  325MOL0     O43770   1.990   3.660   5.097 -0.7622 -0.1222 -0.4402
  325MOL0     C43771   2.058   3.536   5.071  0.2365 -0.3222 -0.1748
  325MOL0     C43772   2.195   3.528   5.091  0.6231  0.8399 -0.2207
  325MOL0     C43773   2.257   3.400   5.079  1.1825  0.1915  0.1494
  325MOL0     C43774   2.186   3.293   5.048  0.0213  0.8908 -0.2574
  325MOL0     O43775   2.251   3.170   5.027 -0.6796  0.4379  0.3835
  325MOL0     C43776   2.182   3.047   4.991  0.2065 -1.4858 -0.4118
  325MOL0     C43777   2.276   2.933   4.997  0.2348 -0.1581  0.4112
  325MOL0     C43778   2.403   2.965   4.911 -0.9503 -0.4327 -0.5989
  325MOL0     C43779   2.487   2.845   4.871 -0.0037 -0.0090  0.2278
  325MOL0     C43780   2.548   2.770   5.002 -0.3163  0.2940  0.5142
  325MOL0     C43781   2.585   2.624   4.968  0.4718  0.0060 -0.4778
  325MOL0     C43782   2.710   2.616   4.871  0.2203  0.1514 -0.4633
  325MOL0     C43783   2.760   2.479   4.845 -1.5879  0.6504  0.1531
  325MOL0    Cl43784   2.841   2.421   4.994 -0.5823  0.3425  0.0278
  325MOL0     C43785   2.042   3.300   5.022  0.2135  1.1708 -0.2259
  325MOL0     C43786   1.978   3.427   5.020 -0.9312  0.5474 -0.3945
  325MOL0     O43787   2.006   3.738   4.881  0.4834 -0.4388 -1.0407
  325MOL0     C43788   1.828   3.944   4.935  0.3141 -0.5682 -0.0594
  325MOL0     C43789   1.740   4.047   4.966  0.8036  0.7683  0.2719
  325MOL0     N43790   1.336   4.774   5.038  0.4064 -0.8546 -0.1608
  325MOL0     N43791   1.248   4.851   4.979 -0.9429 -0.3192 -0.6673
  325MOL0     C43792   0.489   4.502   5.570  0.1005 -0.3650  0.3680
  325MOL0     C43793   0.364   4.467   5.621 -0.0158 -0.9267  0.5202
  325MOL0     C43794  -0.038   4.446   5.848 -0.0351 -0.4525 -0.3009
  325MOL0     C43795  -0.081   4.576   5.878 -1.0265  0.0789  0.1429
  325MOL0     C43796  -0.213   4.601   5.897 -0.0825  0.8418  0.6884
  325MOL0     C43797  -0.310   4.502   5.883  0.0100  0.0333  0.8484
  325MOL0     O43798  -0.435   4.554   5.874  0.2078 -0.5895  0.8459
  325MOL0     C43799  -0.548   4.473   5.910 -0.1613  0.3168  0.6122
  325MOL0     C43800  -0.667   4.550   5.953  0.1275  0.2580 -0.1409
  325MOL0     C43801  -0.631   4.640   6.079  0.4016 -0.1332  0.3653
  325MOL0     C43802  -0.752   4.634   6.175  0.0375 -0.0623  0.1233
  325MOL0     C43803  -0.787   4.498   6.231  0.8229 -0.4458  0.4060
  325MOL0     C43804  -0.815   4.396   6.295 -0.0228  0.0147  0.3828
  325MOL0     C43805  -0.270   4.371   5.864 -0.2869 -0.4506  0.4267
  325MOL0     C43806  -0.128   4.343   5.844 -0.3745  0.3051 -0.7572
  325MOL0     C43807  -0.097   4.196   5.812 -0.2888  0.7905 -0.9327
  325MOL0     H43808   0.357   4.687   5.876  2.9848  3.0069 -0.8389
  325MOL0     H43809   0.588   4.732   5.796 -2.6900  2.5579  0.4667
  325MOL0     H43810   0.776   4.789   5.598 -2.0310  0.1948  1.7816
  325MOL0     H43811   0.802   4.658   5.716 -3.1894 -0.6142 -0.5361
  325MOL0     H43812   0.972   4.555   5.579 -0.2469 -0.9196  1.5992
  325MOL0     H43813   1.014   4.726   5.572 -2.2706  1.3474  1.4060
  325MOL0     H43814   0.842   4.589   5.362 -0.0757  1.2737  0.2887
  325MOL0     H43815   1.009   4.604   5.345  0.2473 -1.3186 -0.1149
  325MOL0     H43816   0.849   4.859   5.393 -0.0696 -0.7492  0.2910
  325MOL0     H43817   1.001   4.837   5.301  0.9261 -0.8293  1.0925
  325MOL0     H43818   0.875   4.691   5.126  1.4014  1.7846 -0.4670
  325MOL0     H43819   0.729   4.722   5.215  1.1078 -1.6597  2.0769
  325MOL0     H43820   0.739   4.878   5.023  0.7923 -2.4317 -2.4176
  325MOL0     H43821   0.760   4.976   5.166 -1.1059  1.9268 -3.3331
  325MOL0     H43822   0.996   4.988   5.129 -0.1780  3.2718 -1.6105
  325MOL0     H43823   0.922   5.058   4.992  3.3527  2.3535  3.0356
  325MOL0     H43824   0.934   4.768   4.930 -1.4520  0.9960 -2.4402
  325MOL0     H43825   1.023   4.891   4.849  1.5337 -0.3322  0.5318
  325MOL0     H43826   1.066   4.609   5.090 -2.1845  3.1276  2.0368
  325MOL0     H43827   1.376   4.574   5.246  3.1733  1.5344 -0.8167
  325MOL0     H43828   1.264   4.469   5.167 -1.1561  1.1106  0.5779
  325MOL0     H43829   1.417   4.468   4.962 -0.6305 -2.4434  0.8512
  325MOL0     H43830   1.539   4.547   5.066 -0.9118  0.6414  0.6320
  325MOL0     H43831   1.409   4.299   5.158  0.7791  0.7760  1.1692
  325MOL0     H43832   1.558   4.356   5.208  1.3420  2.5904 -0.4527
  325MOL0     H43833   1.669   4.308   4.991  0.5442  0.0720  1.9901
  325MOL0     H43834   1.527   4.215   4.947  0.0312  2.2152 -1.2445
  325MOL0     H43835   1.704   3.990   5.292 -1.6969  0.8684 -0.7279
  325MOL0     H43836   1.839   3.805   5.250 -0.8960  0.0398  0.8434
  325MOL0     H43837   2.253   3.612   5.128  3.1190  0.3360 -2.6095
  325MOL0     H43838   2.364   3.399   5.094  1.2066 -1.8244  0.1139
  325MOL0     H43839   2.101   3.032   5.063 -3.3635  1.9834 -3.1733
  325MOL0     H43840   2.138   3.064   4.892 -1.3444  0.8042  0.5716
  325MOL0     H43841   2.290   2.925   5.105  0.0084  0.2741  0.4752
  325MOL0     H43842   2.231   2.840   4.960  3.0354 -1.2102 -0.5743
  325MOL0     H43843   2.378   3.021   4.821 -2.0485 -2.7707 -1.8547
  325MOL0     H43844   2.473   3.031   4.963  0.9477 -2.8149  0.1020
  325MOL0     H43845   2.565   2.871   4.798  0.7215  0.5216  1.1588
  325MOL0     H43846   2.422   2.770   4.826 -0.5542  0.1467  0.7539
  325MOL0     H43847   2.476   2.779   5.084  0.3259 -0.9763  1.2479
  325MOL0     H43848   2.635   2.825   5.040 -0.8433  1.4252  0.1294
  325MOL0     H43849   2.607   2.574   5.063 -1.1700  0.5366  0.2072
  325MOL0     H43850   2.496   2.573   4.931 -0.2831  0.1804  1.0244
  325MOL0     H43851   2.780   2.681   4.925  0.1863 -1.0772  1.1312
  325MOL0     H43852   2.687   2.659   4.773  3.0838 -0.2263 -1.4003
  325MOL0     H43853   2.679   2.417   4.806  0.5973 -2.1142 -0.3211
  325MOL0     H43854   2.840   2.477   4.771 -1.1165 -0.3742  0.6698
  325MOL0     H43855   1.983   3.212   5.002  0.1226  1.2316 -0.2273
  325MOL0     H43856   1.876   3.441   4.986 -1.5645  0.2210  1.2639
  325MOL0     H43857   1.857   3.948   4.831 -0.1932  1.1303 -0.1691
  325MOL0     H43858   1.710   4.102   4.878 -2.1287 -1.3376 -0.1920
  325MOL0     H43859   0.525   4.453   5.480  2.8612 -1.8428  2.1346
  325MOL0     H43860   0.299   4.393   5.577  0.4153 -1.9742  1.5965
  325MOL0     H43861  -0.003   4.652   5.878 -3.8603  3.3660 -2.7978
  325MOL0     H43862  -0.241   4.704   5.914  2.6357  1.3256  2.9182
  325MOL0     H43863  -0.518   4.408   5.993 -2.3427  1.4093  2.3654
  325MOL0     H43864  -0.561   4.409   5.822 -1.5489  1.1393  0.1978
  325MOL0     H43865  -0.742   4.472   5.967 -0.4262  0.5789 -1.1486
  325MOL0     H43866  -0.692   4.619   5.871  3.5867  0.5169 -1.1343
  325MOL0     H43867  -0.617   4.743   6.046  1.2320 -0.6735 -1.0850
  325MOL0     H43868  -0.544   4.604   6.135  0.3529 -1.6248 -0.4475
  325MOL0     H43869  -0.741   4.696   6.264 -1.7156 -3.2495  2.8116
  325MOL0     H43870  -0.837   4.666   6.115 -0.6006 -0.4521  0.8009
  325MOL0     H43871  -0.864   4.312   6.339 -0.1530 -0.5384 -0.7887
  325MOL0     H43872  -0.351   4.298   5.859 -2.0142  1.3081  1.1865
  325MOL0     H43873  -0.178   4.149   5.755  1.6443 -1.0643 -2.2980
  325MOL0     H43874  -0.010   4.176   5.748  0.6055 -0.1791  0.5209
  325MOL0     H43875  -0.093   4.144   5.908 -2.7976  1.7115 -0.2606
  326MOL0     O43876   9.460   1.747  10.841  0.4910  0.2471  0.0609
  326MOL0     C43877   9.476   1.623  10.849  0.2379 -0.7225  0.5225
  326MOL0     O43878   9.503   1.553  10.964 -0.1441  0.1761  0.5212
  326MOL0     C43879   9.478   1.621  11.081  1.6277  0.6004  1.5437
  326MOL0     C43880   9.362   1.692  11.122  0.4682 -0.6474 -0.0344
  326MOL0     C43881   9.360   1.752  11.252 -0.1333  0.4467 -0.7760
  326MOL0     C43882   9.474   1.747  11.334  0.4129  0.4746 -0.5280
  326MOL0     O43883   9.474   1.820  11.455  0.0456 -0.5022 -0.2407
  326MOL0     C43884   9.351   1.842  11.520 -0.4960  0.1340  0.6756
  326MOL0     C43885   9.312   1.989  11.504 -0.5789 -1.0372  1.0731
  326MOL0     C43886   9.415   2.087  11.572 -0.2824  0.4628  1.6481
  326MOL0     C43887   9.460   2.052  11.707 -0.3202 -0.7126 -0.0423
  326MOL0     C43888   9.549   2.151  11.786  0.4298 -0.3481 -0.2577
  326MOL0     C43889   9.563   2.114  11.933 -0.6190  0.1230 -0.4078
  326MOL0     C43890   9.670   2.194  12.007  0.0197  0.4431  0.9448
  326MOL0     C43891   9.706   2.133  12.139 -0.4762 -0.0841 -0.6668
  326MOL0     N43892   9.816   2.199  12.218  0.0129  0.3209 -0.9234
  326MOL0     C43893   9.788   2.297  12.304 -0.4046  0.1477  0.1935
  326MOL0     C43894   9.905   2.343  12.343 -0.1199 -0.4044 -0.8157
  326MOL0     C43895   9.919   2.441  12.456  0.6307 -0.2640 -0.5815
  326MOL0     C43896  10.069   2.467  12.478  0.1379  0.5838 -0.7484
  326MOL0     C43897  10.096   2.554  12.601  0.8238  0.5099 -0.2875
  326MOL0     C43898  10.235   2.620  12.594  0.2281 -0.6808  0.0955
  326MOL0     O43899  10.277   2.676  12.474  0.4214  0.4025 -0.3447
  326MOL0     C43900  10.217   2.794  12.432 -0.3972 -0.3648 -0.0870
  326MOL0     C43901  10.144   2.882  12.514 -0.4909  0.1376  0.0326
  326MOL0     C43902  10.083   3.001  12.464 -0.9254 -0.8338 -0.6476
  326MOL0     C43903  10.089   3.040  12.337 -0.4604 -1.2309 -0.4763
  326MOL0     C43904  10.026   3.169  12.288  0.0482  0.1232 -0.1330
  326MOL0     O43905   9.996   3.272  12.386 -0.2011 -0.4504  0.5123
  326MOL0     C43906   9.923   3.373  12.330 -0.4316 -0.5376  0.7940
  326MOL0     C43907   9.983   3.483  12.260  0.5191  0.5198 -0.4624
  326MOL0     C43908   9.893   3.587  12.223 -0.4533 -0.0679  0.2405
  326MOL0     C43909   9.756   3.574  12.225  0.7657  0.0234  0.5056
  326MOL0     O43910   9.686   3.683  12.175 -0.0949  0.8400 -1.2116
  326MOL0     C43911   9.545   3.663  12.192 -0.5640  0.0261  0.4719
  326MOL0     C43912   9.476   3.797  12.162  0.9388  0.4681  0.2994
  326MOL0     C43913   9.494   3.886  12.281 -0.0120 -0.7817 -0.0935
  326MOL0     C43914   9.414   4.017  12.251 -1.0134 -0.0956  0.1704
  326MOL0     C43915   9.467   4.127  12.349 -1.2977  0.9246 -0.6817
  326MOL0     C43916   9.409   4.254  12.321  0.0418 -0.6288  0.1898
  326MOL0     C43917   9.460   4.361  12.418  0.0375 -0.2341  0.3226
  326MOL0     C43918   9.395   4.501  12.397  0.9127 -0.0965  0.0871
  326MOL0    Cl43919   9.387   4.548  12.219  0.0146  0.1231  0.4049
  326MOL0     C43920   9.702   3.454  12.290  0.1577 -0.5495 -0.3853
  326MOL0     C43921   9.787   3.362  12.340 -0.2928 -0.2816 -0.0134
  326MOL0     O43922  10.012   3.177  12.165 -0.1145  0.2749  0.2119
  326MOL0     C43923  10.175   2.958  12.262 -0.5165 -0.2738  1.0738
  326MOL0     C43924  10.228   2.834  12.301  0.7146  0.2026 -0.0933
  326MOL0     N43925   9.999   2.270  12.271 -0.0571  0.0995 -0.0429
  326MOL0     N43926   9.941   2.184  12.195 -0.5522  0.1175 -1.6054
  326MOL0     C43927   9.581   1.659  11.302  0.9868 -0.6537  0.4561
  326MOL0     C43928   9.583   1.599  11.169 -0.1259 -0.2328 -0.2964
  326MOL0     C43929   9.496   1.547  10.717 -0.2175 -0.1626 -0.3912
  326MOL0     C43930   9.570   1.433  10.721 -0.3494  0.8902 -1.3923
  326MOL0     C43931   9.601   1.361  10.606 -1.1865 -0.8234  0.0269
  326MOL0     C43932   9.571   1.415  10.479  0.0072 -0.2766 -0.4558
  326MOL0     O43933   9.620   1.347  10.371 -0.0850  0.0464 -0.0544
  326MOL0     C43934   9.569   1.382  10.242 -0.0516 -0.1543  0.1809
  326MOL0     C43935   9.640   1.288  10.135  0.5558 -0.4957 -1.1490
  326MOL0     C43936   9.561   1.286  10.005  0.0172 -0.6890  0.8025
  326MOL0     C43937   9.639   1.231   9.882  0.4760  0.7895 -0.0646
  326MOL0     C43938   9.644   1.085   9.879 -0.3141 -0.0552 -0.4115
  326MOL0     C43939   9.657   0.966   9.873  0.5614  0.1087  0.1302
  326MOL0     C43940   9.484   1.521  10.475  0.1037 -1.0159 -0.3558
  326MOL0     C43941   9.453   1.590  10.588 -0.0517 -0.0228 -0.6966
  326MOL0     C43942   9.360   1.709  10.580 -0.7595  0.4592 -0.8698
  326MOL0     H43943   9.285   1.713  11.049  1.8987 -0.4200 -1.5179
  326MOL0     H43944   9.280   1.819  11.280 -0.1560 -0.2232  0.9045
  326MOL0     H43945   9.272   1.771  11.495  1.3491 -3.5531  4.1611
  326MOL0     H43946   9.363   1.819  11.626  0.2883  2.0829  1.0545
  326MOL0     H43947   9.224   2.019  11.561  0.3210 -1.8574  2.9884
  326MOL0     H43948   9.305   2.021  11.400 -2.0053 -0.9037  1.1988
  326MOL0     H43949   9.369   2.186  11.571 -0.8236  0.2127  1.1902
  326MOL0     H43950   9.509   2.097  11.517 -0.2402  0.4088  1.7106
  326MOL0     H43951   9.373   2.036  11.770  0.0941 -0.0243  0.7152
  326MOL0     H43952   9.515   1.958  11.707  2.3491  0.6986 -1.9751
  326MOL0     H43953   9.651   2.142  11.747  0.6296 -1.1985  0.4195
  326MOL0     H43954   9.516   2.254  11.769 -0.8009 -1.0443 -2.4204
  326MOL0     H43955   9.464   2.123  11.979 -1.3866 -5.6818 -0.2884
  326MOL0     H43956   9.590   2.008  11.937 -1.7323 -0.2994 -2.6090
  326MOL0     H43957   9.648   2.301  12.010 -3.0718 -0.1263  1.5477
  326MOL0     H43958   9.758   2.189  11.941 -1.5477 -0.3928 -1.2114
  326MOL0     H43959   9.619   2.130  12.205  2.3149 -1.1360  3.3361
  326MOL0     H43960   9.734   2.029  12.122  0.0714  0.0668 -0.7044
  326MOL0     H43961   9.690   2.311  12.349 -0.0087 -0.3672  1.2468
  326MOL0     H43962   9.871   2.536  12.428 -1.2036 -1.4087 -1.4907
  326MOL0     H43963   9.857   2.412  12.541 -3.0038  0.8111 -2.6656
  326MOL0     H43964  10.103   2.365  12.499  0.0045  0.6818 -0.0115
  326MOL0     H43965  10.120   2.514  12.394 -0.0460  0.3819 -0.9719
  326MOL0     H43966  10.075   2.498  12.693  0.5967 -0.5282 -0.9601
  326MOL0     H43967  10.019   2.632  12.593  0.5321  0.2597  0.0645
  326MOL0     H43968  10.309   2.541  12.614 -0.6649 -1.3453  0.8694
  326MOL0     H43969  10.227   2.693  12.675 -5.4750  1.2137 -1.6984
  326MOL0     H43970  10.136   2.864  12.621 -0.4149 -3.9205 -0.4854
  326MOL0     H43971  10.031   3.072  12.528 -0.0013  0.3730 -1.2010
  326MOL0     H43972  10.091   3.482  12.269  0.4973  1.2854 -0.0538
  326MOL0     H43973   9.942   3.678  12.190  1.3114 -1.6259 -1.6662
  326MOL0     H43974   9.508   3.589  12.120  1.2746  0.7225 -1.2917
  326MOL0     H43975   9.508   3.628  12.289  0.6940 -0.9201  0.6331
  326MOL0     H43976   9.542   3.832  12.082  1.3464 -1.4249 -0.2566
  326MOL0     H43977   9.370   3.795  12.137  1.3956 -0.3025 -1.7984
  326MOL0     H43978   9.459   3.843  12.376 -1.5855  0.6254  0.0167
  326MOL0     H43979   9.596   3.907  12.313 -0.2780 -0.4121  0.5468
  326MOL0     H43980   9.310   3.985  12.248 -0.9405 -0.4728  1.1277
  326MOL0     H43981   9.448   4.043  12.150  3.2954  3.1968  2.1047
  326MOL0     H43982   9.574   4.138  12.329 -0.7502  0.9656  2.0089
  326MOL0     H43983   9.457   4.088  12.451 -0.0918 -0.8884 -1.2029
  326MOL0     H43984   9.428   4.270  12.215 -2.8951 -1.5251 -0.5717
  326MOL0     H43985   9.299   4.252  12.326 -0.0002  1.5211  1.3731
  326MOL0     H43986   9.569   4.358  12.408  0.2766 -1.6707  2.6786
  326MOL0     H43987   9.443   4.338  12.523 -0.0184  0.5084  0.4786
  326MOL0     H43988   9.289   4.502  12.423  1.0570 -0.6486  0.7162
  326MOL0     H43989   9.449   4.575  12.457 -1.0172  0.7074  0.8993
  326MOL0     H43990   9.597   3.442  12.316  0.3797 -0.9344  0.3746
  326MOL0     H43991   9.743   3.286  12.404 -0.3255  0.5756  1.0082
  326MOL0     H43992  10.204   2.985  12.161  0.8743 -0.2377  1.4692
  326MOL0     H43993  10.292   2.766  12.244 -0.9516 -1.1917 -0.3990
  326MOL0     H43994   9.670   1.652  11.364  0.2189 -3.0722  1.4117
  326MOL0     H43995   9.660   1.530  11.137  0.8106  0.6416  0.0151
  326MOL0     H43996   9.594   1.392  10.818 -0.7574 -0.6004 -1.8879
  326MOL0     H43997   9.655   1.267  10.609  0.7013  0.2368  1.8204
  326MOL0     H43998   9.612   1.481  10.224  1.5376 -0.3615  2.3566
  326MOL0     H43999   9.460   1.385  10.235 -0.1176  0.0571  1.0959
  326MOL0     H44000   9.638   1.184  10.169  0.8099 -1.1347 -2.9740
  326MOL0     H44001   9.736   1.339  10.121  1.3577 -0.6175  2.8068
  326MOL0     H44002   9.549   1.392   9.982  1.6542 -1.3505 -4.4802
  326MOL0     H44003   9.467   1.231  10.012  0.7661 -2.5732 -2.1840
  326MOL0     H44004   9.600   1.262   9.784  1.7184 -0.8766 -1.1355
  326MOL0     H44005   9.734   1.285   9.884  0.7179  0.3515  0.9491
  326MOL0     H44006   9.683   0.863   9.857 -2.8023 -0.8786  0.2296
  326MOL0     H44007   9.444   1.556  10.380  0.6244  0.0637 -0.2062
  326MOL0     H44008   9.395   1.804  10.621 -1.7000  0.0817  0.8848
  326MOL0     H44009   9.323   1.738  10.481  0.2541  0.0488 -1.3773
  326MOL0     H44010   9.270   1.684  10.637  0.2896  1.7724  1.4793
  327MOL0     O44011   0.771  10.119   2.455  0.2004 -0.0926 -0.5865
  327MOL0     C44012   0.710  10.192   2.537  0.4774 -0.5138  0.2041
  327MOL0     O44013   0.764  10.279   2.639 -0.2765  0.4708 -0.7110
  327MOL0     C44014   0.896  10.254   2.661  0.0874 -0.4997 -0.3419
  327MOL0     C44015   0.940  10.128   2.704 -0.1092  0.1442 -1.0922
  327MOL0     C44016   1.084  10.102   2.728 -0.2353 -0.9455 -0.3123
  327MOL0     C44017   1.177  10.205   2.713  1.0926 -0.3740  0.6327
  327MOL0     O44018   1.315  10.191   2.728 -0.0548  0.3869 -0.1026
  327MOL0     C44019   1.367  10.056   2.718  0.0276 -0.1264 -0.1989
  327MOL0     C44020   1.523  10.079   2.720 -0.3489  0.5058 -0.3460
  327MOL0     C44021   1.612   9.950   2.747 -0.1158  0.9300 -0.0942
  327MOL0     C44022   1.740   9.952   2.651  0.4326  0.8543  1.0979
  327MOL0     C44023   1.823   9.828   2.679 -0.2026  0.6566 -0.7795
  327MOL0     C44024   1.947   9.821   2.586  0.2562 -0.8044 -0.3194
  327MOL0     C44025   1.929   9.834   2.430  0.2899  0.4602  0.4908
  327MOL0     C44026   1.874   9.706   2.368  0.3781  0.5396  0.3602
  327MOL0     N44027   1.959   9.586   2.381  0.2734 -0.3413  0.0410
  327MOL0     C44028   1.918   9.459   2.409  0.3462  0.1391 -0.3271
  327MOL0     C44029   2.033   9.383   2.399 -0.0533 -0.1927  0.3894
  327MOL0     C44030   2.042   9.230   2.425  0.4482 -0.2511 -0.3937
  327MOL0     C44031   2.010   9.196   2.572 -0.6895  0.2681 -1.0998
  327MOL0     C44032   2.121   9.249   2.654  0.2291  0.2341  0.4810
  327MOL0     C44033   2.111   9.217   2.808  0.0489 -0.2582 -0.2465
  327MOL0     O44034   2.233   9.246   2.875 -0.0387  0.7294 -0.3550
  327MOL0     C44035   2.248   9.360   2.945  0.5255  0.0605  0.1633
  327MOL0     C44036   2.325   9.370   3.061 -0.6086  0.9110  0.3994
  327MOL0     C44037   2.351   9.491   3.130 -0.9758  0.5988 -0.3102
  327MOL0     C44038   2.314   9.611   3.078  0.8357  0.2944  0.2355
  327MOL0     C44039   2.351   9.735   3.142  0.5797  0.2865  0.0045
  327MOL0     O44040   2.488   9.741   3.184  0.3951  0.2702  0.3317
  327MOL0     C44041   2.538   9.857   3.233  0.3688  0.7849  0.0288
  327MOL0     C44042   2.570   9.974   3.157 -0.9092 -0.5627 -0.3854
  327MOL0     C44043   2.646  10.079   3.210  1.1453 -0.7255 -0.4049
  327MOL0     C44044   2.648  10.087   3.353  0.2956  0.6834 -0.4041
  327MOL0     O44045   2.688  10.194   3.429 -0.3279 -0.0548  0.2266
  327MOL0     C44046   2.647  10.322   3.381  0.2051 -0.1544 -1.5347
  327MOL0     C44047   2.692  10.418   3.490  0.3808 -0.6999  0.1077
  327MOL0     C44048   2.849  10.441   3.503 -0.0568 -0.7021  0.9847
  327MOL0     C44049   2.881  10.559   3.587 -0.4692  0.0012  0.2284
  327MOL0     C44050   3.033  10.573   3.584 -0.0221  0.0633  0.6563
  327MOL0     C44051   3.101  10.619   3.721 -0.1127  0.7765  0.1736
  327MOL0     C44052   3.242  10.570   3.738  0.5902  0.2069  0.2852
  327MOL0     C44053   3.297  10.548   3.882 -0.8114 -0.0508 -0.0916
  327MOL0    Cl44054   3.205  10.429   3.969  0.1123 -0.1281 -0.3587
  327MOL0     C44055   2.611   9.978   3.433 -0.3488 -0.2388  0.2778
  327MOL0     C44056   2.552   9.866   3.374 -0.8307 -0.1318 -0.6179
  327MOL0     O44057   2.263   9.824   3.174 -0.9337 -0.0663  0.5442
  327MOL0     C44058   2.232   9.609   2.962  1.1844  0.8387 -0.3824
  327MOL0     C44059   2.199   9.489   2.908  0.6290 -0.5685 -0.2870
  327MOL0     N44060   2.126   9.465   2.342  0.7491 -0.3911 -0.6253
  327MOL0     N44061   2.080   9.587   2.330 -0.0424  0.6816 -0.0975
  327MOL0     C44062   1.131  10.337   2.679 -0.4982  0.7772 -0.4201
  327MOL0     C44063   0.999  10.366   2.657  0.3257  0.1213 -0.1628
  327MOL0     C44064   0.569  10.155   2.555  0.8001 -0.4911 -0.1955
  327MOL0     C44065   0.505  10.198   2.676 -0.2303  0.6663  0.4057
  327MOL0     C44066   0.376  10.158   2.706 -0.4929 -0.6523  0.1602
  327MOL0     C44067   0.293  10.084   2.621  0.5105 -0.0110  0.1371
  327MOL0     O44068   0.155  10.061   2.640 -0.6515  0.1352 -0.5275
  327MOL0     C44069   0.092  10.139   2.740 -0.3787  0.4321  0.4223
  327MOL0     C44070  -0.052  10.168   2.700  0.0092  0.9004 -0.9647
  327MOL0     C44071  -0.131  10.205   2.825 -0.8758 -0.6589 -0.3493
  327MOL0     C44072  -0.274  10.241   2.770 -0.2378 -0.4926 -0.9249
  327MOL0     C44073  -0.382  10.238   2.876 -0.0049  0.1344  1.5786
  327MOL0     C44074  -0.468  10.246   2.959  1.4422  0.3552  0.6472
  327MOL0     C44075   0.357  10.047   2.504 -0.0605  0.5765 -0.0485
  327MOL0     C44076   0.484  10.080   2.471  0.0908  0.6768  0.7878
  327MOL0     C44077   0.529  10.034   2.330  0.7836  0.2560  0.0772
  327MOL0     H44078   0.867  10.048   2.711 -0.7782  0.7488 -1.0624
  327MOL0     H44079   1.112   9.997   2.731 -0.3063 -1.0838 -2.6816
  327MOL0     H44080   1.343  10.001   2.809 -1.2162  0.9878  0.1752
  327MOL0     H44081   1.334  10.003   2.628  1.6676 -1.0370 -0.2827
  327MOL0     H44082   1.544  10.155   2.795 -3.0401 -0.8684  2.0170
  327MOL0     H44083   1.541  10.117   2.620 -0.6651  0.5452 -0.3907
  327MOL0     H44084   1.553   9.860   2.733 -1.0036  1.3647  0.7047
  327MOL0     H44085   1.653   9.955   2.849  1.6088  0.4584 -0.7235
  327MOL0     H44086   1.708   9.960   2.546 -1.1441 -1.5163  1.3197
  327MOL0     H44087   1.793  10.046   2.669  0.3895  1.0428  0.2826
  327MOL0     H44088   1.853   9.838   2.784 -2.8959 -1.2725  0.3020
  327MOL0     H44089   1.770   9.733   2.663  2.2907 -0.5687 -2.3570
  327MOL0     H44090   2.016   9.903   2.611 -2.3089  2.4192 -2.8812
  327MOL0     H44091   2.000   9.727   2.607  1.0124 -0.6948 -1.5933
  327MOL0     H44092   2.029   9.861   2.395  0.9993  0.6129  2.4748
  327MOL0     H44093   1.848   9.906   2.415  1.3962  1.8600  0.9694
  327MOL0     H44094   1.784   9.685   2.426 -0.0892  0.5795 -0.3329
  327MOL0     H44095   1.848   9.733   2.265 -2.3283  0.0445  0.8424
  327MOL0     H44096   1.818   9.419   2.422  0.8732 -1.1733 -0.1472
  327MOL0     H44097   1.973   9.177   2.359 -0.6674  0.4781  0.1514
  327MOL0     H44098   2.141   9.196   2.392  0.7604  0.2090  0.0467
  327MOL0     H44099   1.911   9.234   2.596 -1.4552 -1.2331 -1.6761
  327MOL0     H44100   1.993   9.094   2.608 -1.2844  1.9383  4.2239
  327MOL0     H44101   2.106   9.357   2.641 -1.1129 -0.1435 -1.4036
  327MOL0     H44102   2.216   9.204   2.622  0.6151  1.1477  0.2892
  327MOL0     H44103   2.103   9.108   2.818  2.3080 -0.7319 -2.4459
  327MOL0     H44104   2.025   9.268   2.851  1.7067 -1.4161  5.3721
  327MOL0     H44105   2.367   9.277   3.099 -1.9612 -0.2371 -0.8161
  327MOL0     H44106   2.402   9.493   3.226 -1.4669 -1.0115  0.0208
  327MOL0     H44107   2.570   9.973   3.048 -0.1566  0.5224 -0.4154
  327MOL0     H44108   2.676  10.164   3.149 -3.9266  0.4195 -1.7583
  327MOL0     H44109   2.690  10.340   3.283  1.5476  3.7905 -0.3957
  327MOL0     H44110   2.539  10.336   3.373 -0.2199 -2.0926 -0.0509
  327MOL0     H44111   2.649  10.515   3.462  0.5814 -0.7197 -0.2755
  327MOL0     H44112   2.648  10.395   3.587 -1.8470  1.7822 -0.2100
  327MOL0     H44113   2.887  10.345   3.539  1.5150 -0.4635  0.0759
  327MOL0     H44114   2.881  10.471   3.403  1.3820 -0.9225  1.3544
  327MOL0     H44115   2.842  10.530   3.685 -0.3667 -0.6343  0.0837
  327MOL0     H44116   2.828  10.653   3.569  2.4795  2.1268  1.8308
  327MOL0     H44117   3.059  10.651   3.512 -1.3354  1.2725  1.4477
  327MOL0     H44118   3.078  10.476   3.558 -2.1222 -0.7850 -0.0488
  327MOL0     H44119   3.097  10.728   3.717 -0.5722  0.7359 -2.6127
  327MOL0     H44120   3.035  10.599   3.806 -0.9815 -0.6640 -0.7808
  327MOL0     H44121   3.310  10.640   3.689  0.9065  0.5102  1.1286
  327MOL0     H44122   3.258  10.473   3.690 -1.3790 -0.7384  1.4033
  327MOL0     H44123   3.399  10.510   3.869 -1.0538 -0.4783 -0.7643
  327MOL0     H44124   3.291  10.640   3.940 -1.1327 -0.0869 -0.0640
  327MOL0     H44125   2.618  10.001   3.539  0.5012  2.8130 -0.3398
  327MOL0     H44126   2.518   9.802   3.455 -1.7099  0.0141 -0.8655
  327MOL0     H44127   2.182   9.702   2.937 -2.5978 -0.6410  0.9600
  327MOL0     H44128   2.140   9.510   2.820  1.9835  1.2957 -0.8010
  327MOL0     H44129   1.197  10.423   2.680  1.3151 -0.4587  2.6288
  327MOL0     H44130   0.956  10.463   2.633 -2.1198 -1.1546 -1.3135
  327MOL0     H44131   0.553  10.256   2.754 -1.0694  1.0745  0.6298
  327MOL0     H44132   0.341  10.216   2.791 -0.5039  1.7336 -1.3752
  327MOL0     H44133   0.136  10.239   2.750 -4.7597  2.4907  1.7710
  327MOL0     H44134   0.085  10.085   2.834  3.5750 -1.2665 -0.0700
  327MOL0     H44135  -0.099  10.076   2.663  1.5853 -0.0165 -0.7567
  327MOL0     H44136  -0.050  10.239   2.617  1.2346  2.3402  0.2565
  327MOL0     H44137  -0.090  10.295   2.870  1.0738 -0.1194 -2.9554
  327MOL0     H44138  -0.135  10.122   2.897  0.2598 -0.4866 -0.0704
  327MOL0     H44139  -0.272  10.342   2.729  0.1173 -1.0047 -2.2203
  327MOL0     H44140  -0.306  10.175   2.688 -1.4129  2.5038 -3.0261
  327MOL0     H44141  -0.534  10.259   3.042  1.0596  0.7802  0.2868
  327MOL0     H44142   0.297   9.984   2.440 -0.2836  0.7789 -0.0397
  327MOL0     H44143   0.600   9.950   2.334 -0.7243 -1.0964 -0.2178
  327MOL0     H44144   0.448   9.988   2.272  0.5465  1.9789 -1.0210
  327MOL0     H44145   0.568  10.109   2.262  1.2918 -2.0573 -2.3824
  328MOL0     O44146   7.454   2.147   0.396 -0.5315  0.5385  0.2055
  328MOL0     C44147   7.400   2.251   0.430 -0.6934 -0.0981  0.2701
  328MOL0     O44148   7.396   2.301   0.561 -0.1112  1.1807  0.0908
  328MOL0     C44149   7.385   2.212   0.666  0.3013 -0.0920 -0.2775
  328MOL0     C44150   7.300   2.104   0.660 -0.0782  0.1489 -0.1832
  328MOL0     C44151   7.312   2.007   0.758 -0.1317 -0.7366 -0.0865
  328MOL0     C44152   7.414   2.014   0.855 -0.0720  0.1244  0.8521
  328MOL0     O44153   7.435   1.903   0.930  0.1955  0.4060  0.9350
  328MOL0     C44154   7.558   1.887   1.007  0.6804 -0.2482  0.3700
  328MOL0     C44155   7.575   1.744   1.059  0.2800  0.4799  0.5846
  328MOL0     C44156   7.600   1.643   0.945  0.0872 -0.3343 -0.4461
  328MOL0     C44157   7.655   1.498   0.980 -0.0995 -0.9582 -0.9701
  328MOL0     C44158   7.726   1.433   0.859  0.0123  1.1407 -0.1697
  328MOL0     C44159   7.773   1.284   0.886  0.1726 -0.4741 -0.2205
  328MOL0     C44160   7.820   1.210   0.760 -0.1431  0.3080  0.1676
  328MOL0     C44161   7.854   1.070   0.799 -0.5102 -0.5758  0.2777
  328MOL0     N44162   7.749   0.975   0.832 -0.4925 -1.1709  0.0146
  328MOL0     C44163   7.680   0.912   0.733 -0.6196 -0.5380 -1.0200
  328MOL0     C44164   7.601   0.817   0.790  0.8527 -0.5265 -0.4670
  328MOL0     C44165   7.526   0.703   0.727  0.9742 -0.8387  0.3650
  328MOL0     C44166   7.597   0.651   0.594 -0.1256  0.1866 -0.1647
  328MOL0     C44167   7.518   0.537   0.545  0.3296  0.9986 -0.3161
  328MOL0     C44168   7.569   0.466   0.421 -0.9005 -0.6512  0.3278
  328MOL0     O44169   7.606   0.565   0.317  0.1506  0.4182 -0.0593
  328MOL0     C44170   7.561   0.555   0.184 -0.4587  1.4119 -0.3857
  328MOL0     C44171   7.518   0.436   0.120  0.6219  0.9640  0.3729
  328MOL0     C44172   7.473   0.434  -0.012 -0.2333 -0.8626 -0.0677
  328MOL0     C44173   7.472   0.556  -0.085  0.9088 -0.1725 -0.4953
  328MOL0     C44174   7.397   0.565  -0.217  0.2766 -0.5613  0.1088
  328MOL0     O44175   7.336   0.448  -0.252  0.3929 -0.6629  0.4995
  328MOL0     C44176   7.241   0.438  -0.348  0.8829  0.0786 -0.8534
  328MOL0     C44177   7.204   0.308  -0.383 -1.0095 -0.1048 -0.1052
  328MOL0     C44178   7.096   0.281  -0.463 -0.1147  0.8430  0.2791
  328MOL0     C44179   7.025   0.383  -0.524 -0.1441  0.2975  0.8126
  328MOL0     O44180   6.918   0.367  -0.610  0.1914  0.5140 -1.0689
  328MOL0     C44181   6.825   0.270  -0.561  0.5686 -0.2624 -0.1897
  328MOL0     C44182   6.693   0.315  -0.625  0.7865  1.4810 -0.4206
  328MOL0     C44183   6.673   0.259  -0.775  0.9127  0.4313  0.2481
  328MOL0     C44184   6.544   0.295  -0.847 -0.4071  0.3483 -0.7734
  328MOL0     C44185   6.534   0.245  -0.994  0.5453  1.3037  0.0479
  328MOL0     C44186   6.454   0.117  -0.998 -0.3386  0.2088 -0.0490
  328MOL0     C44187   6.420   0.072  -1.138 -0.4318  0.1049 -0.4404
  328MOL0     C44188   6.544   0.005  -1.197  0.3611 -0.3455 -0.2903
  328MOL0    Cl44189   6.561  -0.162  -1.133 -0.2196 -0.0300  0.0759
  328MOL0     C44190   7.071   0.513  -0.499  0.9506 -0.2214  0.6197
  328MOL0     C44191   7.179   0.541  -0.409  0.0043 -1.2104  0.3794
  328MOL0     O44192   7.411   0.672  -0.289  0.2332  0.9639  0.0109
  328MOL0     C44193   7.523   0.668  -0.021 -0.1422  0.4113 -0.4254
  328MOL0     C44194   7.576   0.669   0.110  0.2811  0.3857 -0.3536
  328MOL0     N44195   7.612   0.848   0.933 -0.1206 -0.0135  0.7970
  328MOL0     N44196   7.703   0.937   0.947  0.1828  0.3273 -0.2148
  328MOL0     C44197   7.487   2.122   0.862  0.1306 -0.5676 -1.1151
  328MOL0     C44198   7.477   2.221   0.766 -1.1492  1.1628  0.5865
  328MOL0     C44199   7.326   2.334   0.334 -0.7643 -0.1588  0.9449
  328MOL0     C44200   7.278   2.261   0.219  0.5900 -0.2320 -0.0917
  328MOL0     C44201   7.196   2.326   0.123 -0.0813 -0.4534 -0.3291
  328MOL0     C44202   7.177   2.468   0.142  0.5537  0.1560  0.1719
  328MOL0     O44203   7.096   2.535   0.063  0.3186  0.4719  0.5317
  328MOL0     C44204   6.983   2.611   0.114  0.6705  0.0189 -0.8129
  328MOL0     C44205   6.980   2.751   0.044 -0.6831  0.6508 -0.9612
  328MOL0     C44206   6.846   2.813   0.078 -0.4428 -0.3906 -1.0390
  328MOL0     C44207   6.815   2.938  -0.001 -0.4563 -0.2300 -0.1471
  328MOL0     C44208   6.673   2.957   0.005 -0.3360  0.3652  0.0525
  328MOL0     C44209   6.553   2.970  -0.002  0.1378 -0.3053 -0.2272
  328MOL0     C44210   7.252   2.541   0.239  0.6971  0.5218 -1.4322
  328MOL0     C44211   7.323   2.477   0.334 -0.5312  0.4229 -0.1266
  328MOL0     C44212   7.390   2.564   0.434 -0.4115  0.6762  0.8161
  328MOL0     H44213   7.233   2.071   0.581  1.0569 -1.7968 -0.3936
  328MOL0     H44214   7.262   1.914   0.733  0.8112 -1.0372 -0.9536
  328MOL0     H44215   7.646   1.932   0.959  3.2583 -1.4029  3.6487
  328MOL0     H44216   7.539   1.951   1.093 -0.0718  2.2784 -1.5423
  328MOL0     H44217   7.485   1.718   1.115 -0.1756  0.7605 -0.0070
  328MOL0     H44218   7.665   1.741   1.121  1.1606 -2.3776 -0.6521
  328MOL0     H44219   7.676   1.698   0.888 -0.2150  1.3777  0.7311
  328MOL0     H44220   7.508   1.645   0.886 -0.4880 -0.1382  0.4376
  328MOL0     H44221   7.732   1.490   1.057 -1.1740 -3.7222 -0.0261
  328MOL0     H44222   7.578   1.427   1.014 -0.1727 -0.1987  0.5096
  328MOL0     H44223   7.665   1.428   0.768 -1.0889 -1.0953  0.6083
  328MOL0     H44224   7.822   1.483   0.847  1.3405 -1.0502  0.6706
  328MOL0     H44225   7.849   1.277   0.964  1.6101  0.7590 -1.4205
  328MOL0     H44226   7.680   1.232   0.910  0.8571 -0.9306  1.6154
  328MOL0     H44227   7.914   1.246   0.718  0.0557 -0.3300  0.0533
  328MOL0     H44228   7.739   1.206   0.686 -1.0489  0.4345  1.1288
  328MOL0     H44229   7.921   1.035   0.720 -0.1134  3.1130 -1.2315
  328MOL0     H44230   7.923   1.074   0.884  2.3646 -0.5689 -1.8856
  328MOL0     H44231   7.681   0.920   0.625  1.0555 -0.2663 -1.0128
  328MOL0     H44232   7.514   0.621   0.798  0.5284  1.5009  3.1910
  328MOL0     H44233   7.428   0.737   0.693  0.6369 -1.6333  0.5397
  328MOL0     H44234   7.588   0.723   0.512 -2.3079 -0.6834 -0.7720
  328MOL0     H44235   7.702   0.633   0.619 -0.3326 -0.1637  0.4796
  328MOL0     H44236   7.425   0.579   0.506  0.2076 -1.0567 -2.5158
  328MOL0     H44237   7.487   0.471   0.627 -2.2933 -1.5191 -3.0468
  328MOL0     H44238   7.491   0.412   0.367 -0.6586  3.4541 -4.9405
  328MOL0     H44239   7.645   0.390   0.443 -1.5088 -1.3808 -0.0331
  328MOL0     H44240   7.516   0.339   0.168  1.4002 -0.0467 -1.5418
  328MOL0     H44241   7.430   0.345  -0.056 -0.2757  0.6713 -3.3970
  328MOL0     H44242   7.259   0.241  -0.317 -0.7890  1.3012  1.1937
  328MOL0     H44243   7.067   0.180  -0.491 -0.4041  1.2803 -1.0783
  328MOL0     H44244   6.853   0.173  -0.603  0.0401  0.3248 -1.9851
  328MOL0     H44245   6.818   0.264  -0.452 -0.0903 -1.5566 -0.2784
  328MOL0     H44246   6.615   0.285  -0.555  0.8445 -0.9343 -1.2964
  328MOL0     H44247   6.697   0.424  -0.640  1.1299  1.0922 -4.2652
  328MOL0     H44248   6.764   0.286  -0.830  1.4533 -2.5622 -0.4607
  328MOL0     H44249   6.672   0.150  -0.782  3.5155  0.4503 -1.8104
  328MOL0     H44250   6.542   0.405  -0.851  0.2658  0.4485  0.6733
  328MOL0     H44251   6.457   0.255  -0.793  1.2632 -2.7981 -0.1640
  328MOL0     H44252   6.637   0.240  -1.030  1.1191  3.2719  1.2299
  328MOL0     H44253   6.490   0.324  -1.055  1.9529 -1.1573 -4.6785
  328MOL0     H44254   6.526   0.045  -0.960 -2.1292 -2.1987 -0.9422
  328MOL0     H44255   6.367   0.130  -0.933 -0.4839 -2.0644  0.2805
  328MOL0     H44256   6.394   0.161  -1.197  1.0913  1.5135  0.9105
  328MOL0     H44257   6.339  -0.001  -1.133 -1.0736  0.8586  2.9952
  328MOL0     H44258   6.544   0.001  -1.306  0.4052 -1.5992 -0.2664
  328MOL0     H44259   6.637   0.057  -1.176 -0.2401  1.8758 -2.7102
  328MOL0     H44260   7.021   0.593  -0.554  2.2935 -0.2270 -0.6807
  328MOL0     H44261   7.201   0.647  -0.399 -1.7773 -0.8651  1.0000
  328MOL0     H44262   7.528   0.762  -0.077 -0.7949  0.0115 -1.1735
  328MOL0     H44263   7.621   0.758   0.154  2.1334 -1.2082  1.1735
  328MOL0     H44264   7.557   2.142   0.942  1.4764 -2.1581 -1.8550
  328MOL0     H44265   7.552   2.299   0.769  0.4444 -0.2682 -0.2372
  328MOL0     H44266   7.296   2.157   0.198  1.4019 -0.2054  0.4327
  328MOL0     H44267   7.151   2.278   0.036 -0.6544  0.3096 -0.4627
  328MOL0     H44268   6.975   2.624   0.222 -0.7867  1.0370 -1.0274
  328MOL0     H44269   6.889   2.558   0.096  0.0682  0.8462 -0.1533
  328MOL0     H44270   6.993   2.733  -0.063  0.6683 -3.6002 -0.2841
  328MOL0     H44271   7.054   2.817   0.091 -2.4413 -0.5816  4.2033
  328MOL0     H44272   6.826   2.845   0.181 -1.8221  2.5115 -2.1221
  328MOL0     H44273   6.770   2.745   0.037  1.1825 -1.1564 -2.9383
  328MOL0     H44274   6.863   3.025   0.044  0.2531 -1.6512  2.0005
  328MOL0     H44275   6.853   2.919  -0.102  1.9046 -1.5971  0.8974
  328MOL0     H44276   6.450   2.985  -0.030  0.5496  1.1295 -1.0586
  328MOL0     H44277   7.241   2.649   0.233 -0.4436  0.4867 -0.5111
  328MOL0     H44278   7.411   2.666   0.399 -1.1079  0.4691 -0.2557
  328MOL0     H44279   7.332   2.583   0.524  1.2408  0.0725  2.0527
  328MOL0     H44280   7.487   2.529   0.470 -0.8783 -0.8239  0.6640
  329MOL0     O44281   8.360   8.305   0.993  0.0116 -0.7300 -0.3627
  329MOL0     C44282   8.422   8.349   0.892 -0.2227  0.7381  0.4397
  329MOL0     O44283   8.542   8.404   0.896  0.2149  0.2970 -0.0438
  329MOL0     C44284   8.613   8.410   1.013 -0.4460 -0.9731 -0.8761
  329MOL0     C44285   8.709   8.514   1.034  0.4613 -0.7217  0.0126
  329MOL0     C44286   8.799   8.513   1.145  1.3751 -0.2129 -0.1163
  329MOL0     C44287   8.797   8.405   1.243  0.0099 -0.4305  0.7314
  329MOL0     O44288   8.889   8.397   1.349 -0.0771  0.6498  0.5358
  329MOL0     C44289   9.029   8.420   1.331  0.6112 -0.0493 -0.0273
  329MOL0     C44290   9.085   8.450   1.461 -0.5311 -0.4056  0.3310
  329MOL0     C44291   9.224   8.521   1.448  0.6492  0.3212 -0.9836
  329MOL0     C44292   9.318   8.465   1.545  0.2891  0.0298  0.2720
  329MOL0     C44293   9.410   8.352   1.492 -0.1861  0.2673  0.2406
  329MOL0     C44294   9.486   8.282   1.601  0.4468  0.3088 -0.5517
  329MOL0     C44295   9.552   8.162   1.535 -0.1978 -0.2181  0.0990
  329MOL0     C44296   9.647   8.092   1.633 -0.1441  1.3700  0.3864
  329MOL0     N44297   9.763   8.171   1.680 -0.1552 -0.4233 -0.2148
  329MOL0     C44298   9.812   8.157   1.805  0.1020  0.5485  0.0073
  329MOL0     C44299   9.926   8.233   1.809 -0.4015  0.4837  0.4883
  329MOL0     C44300  10.013   8.262   1.932  0.6922 -0.6122 -0.1479
  329MOL0     C44301  10.101   8.142   1.975  0.3471  0.5249 -0.4015
  329MOL0     C44302  10.165   8.157   2.112 -0.5892  0.4720 -0.5191
  329MOL0     C44303  10.272   8.057   2.131 -0.8623  0.7220 -1.0179
  329MOL0     O44304  10.208   7.926   2.133 -0.0595  0.7614  0.2578
  329MOL0     C44305  10.286   7.820   2.168 -0.3524  0.1528 -0.1874
  329MOL0     C44306  10.228   7.698   2.184  1.0242 -0.4266 -1.2036
  329MOL0     C44307  10.300   7.582   2.219  0.9817  0.2366 -0.0485
  329MOL0     C44308  10.438   7.589   2.249  0.2110 -0.4023 -0.0036
  329MOL0     C44309  10.518   7.468   2.288  0.3177 -0.7623 -0.3552
  329MOL0     O44310  10.446   7.363   2.306 -0.5933  0.0815  0.8016
  329MOL0     C44311  10.511   7.243   2.329  0.2716 -0.4740 -1.2431
  329MOL0     C44312  10.531   7.207   2.463  0.2325 -0.3022 -0.2223
  329MOL0     C44313  10.584   7.085   2.490  0.2331 -0.5705  0.5718
  329MOL0     C44314  10.617   6.991   2.399 -0.6340 -0.4003  0.4185
  329MOL0     O44315  10.662   6.870   2.449 -0.3286 -0.1961 -0.7816
  329MOL0     C44316  10.803   6.854   2.420  1.0503  0.2393 -0.3218
  329MOL0     C44317  10.896   6.919   2.526 -0.3719 -0.7649 -0.3000
  329MOL0     C44318  10.879   6.861   2.669  0.6517 -1.0480  0.0665
  329MOL0     C44319  10.975   6.928   2.769  0.0384 -0.3063  0.0728
  329MOL0     C44320  10.910   6.907   2.908 -1.0453 -0.3775 -0.5323
  329MOL0     C44321  10.996   6.979   3.013  0.2340 -0.1252 -0.3403
  329MOL0     C44322  10.997   7.133   3.004 -0.0763 -0.6001 -0.4029
  329MOL0     C44323  11.092   7.184   3.111  0.0961  1.0707  0.0873
  329MOL0    Cl44324  11.019   7.159   3.281 -0.5215  0.2445  0.3890
  329MOL0     C44325  10.619   7.036   2.262 -0.0965  0.1032 -0.4948
  329MOL0     C44326  10.569   7.164   2.233  0.0993  0.0639  0.0696
  329MOL0     O44327  10.638   7.469   2.275  0.6147 -0.1456 -0.1518
  329MOL0     C44328  10.509   7.717   2.229  0.7915 -0.2267 -0.2511
  329MOL0     C44329  10.426   7.823   2.192 -0.1153  0.4923 -0.4140
  329MOL0     N44330   9.945   8.289   1.687  0.2285 -0.3213  0.0006
  329MOL0     N44331   9.850   8.248   1.612 -0.2345  0.0485 -0.3135
  329MOL0     C44332   8.701   8.305   1.224  0.7096  0.6719  1.0938
  329MOL0     C44333   8.611   8.302   1.114 -0.2139  0.0213 -0.0184
  329MOL0     C44334   8.356   8.356   0.759 -0.3546  0.2906  0.2737
  329MOL0     C44335   8.219   8.394   0.744 -1.2564  0.3238  0.9506
  329MOL0     C44336   8.175   8.389   0.610  0.0225  0.1649 -1.2468
  329MOL0     C44337   8.255   8.353   0.505 -0.6750  0.1508 -0.6105
  329MOL0     O44338   8.193   8.357   0.383  0.3474 -0.5788 -0.4424
  329MOL0     C44339   8.160   8.231   0.344  0.4355  0.4020  0.3853
  329MOL0     C44340   8.117   8.239   0.202 -0.3898 -0.0649  0.1202
  329MOL0     C44341   8.027   8.120   0.164 -0.9312  0.3639 -0.2793
  329MOL0     C44342   7.937   8.169   0.051 -0.1985  0.6386 -0.5224
  329MOL0     C44343   7.874   8.044  -0.006  0.6734 -0.4638 -0.4595
  329MOL0     C44344   7.818   7.962  -0.071  0.3323  0.5211 -0.0956
  329MOL0     C44345   8.385   8.322   0.509 -0.4459 -0.3625 -0.6376
  329MOL0     C44346   8.427   8.308   0.639  0.3339  0.2646  0.1814
  329MOL0     C44347   8.556   8.243   0.653 -0.4085  0.1038  0.1325
  329MOL0     H44348   8.719   8.589   0.956  2.1341 -1.7901 -0.8707
  329MOL0     H44349   8.874   8.590   1.164  0.7445  0.4557 -0.3020
  329MOL0     H44350   9.075   8.324   1.304  3.4262  0.8820  1.0215
  329MOL0     H44351   9.049   8.498   1.257 -3.2699  1.8200  0.6488
  329MOL0     H44352   9.101   8.359   1.518  0.8371  0.0745  0.7588
  329MOL0     H44353   9.027   8.511   1.531  1.5364  2.7462 -0.4526
  329MOL0     H44354   9.206   8.626   1.473 -0.3880 -0.2034  0.6174
  329MOL0     H44355   9.268   8.495   1.351  1.7552 -2.3739  0.1458
  329MOL0     H44356   9.393   8.540   1.571  1.5273  0.7261 -4.3989
  329MOL0     H44357   9.274   8.425   1.636  1.1310 -1.1288  0.1794
  329MOL0     H44358   9.348   8.270   1.455 -1.8309  0.7641  1.7375
  329MOL0     H44359   9.488   8.384   1.422 -0.2586 -0.7419 -0.3196
  329MOL0     H44360   9.558   8.354   1.642 -0.7591  1.1267  0.1602
  329MOL0     H44361   9.411   8.246   1.672  1.2506 -1.0621 -0.3535
  329MOL0     H44362   9.613   8.198   1.452  1.3714  0.8484  1.6337
  329MOL0     H44363   9.482   8.091   1.490  1.4384 -0.5546 -2.0812
  329MOL0     H44364   9.582   8.066   1.717 -2.6795  2.8482 -1.0025
  329MOL0     H44365   9.691   8.006   1.581  2.8527  2.9632  0.0566
  329MOL0     H44366   9.776   8.101   1.891  2.3375  0.7603  1.1437
  329MOL0     H44367  10.085   8.343   1.919 -0.7109  0.8515  0.8133
  329MOL0     H44368   9.951   8.291   2.018 -2.5483 -2.4556 -1.6477
  329MOL0     H44369  10.031   8.057   1.980  0.6949  0.2315 -0.4927
  329MOL0     H44370  10.179   8.125   1.901  0.0071  0.6539 -0.7936
  329MOL0     H44371  10.088   8.163   2.190  0.0684  1.2613  0.0959
  329MOL0     H44372  10.219   8.252   2.116  1.7167 -0.5391 -3.6848
  329MOL0     H44373  10.313   8.074   2.231  0.6354 -1.7903 -1.1279
  329MOL0     H44374  10.348   8.054   2.053 -0.5194 -0.6494 -0.6694
  329MOL0     H44375  10.123   7.679   2.169  0.7290 -1.2240  1.3772
  329MOL0     H44376  10.249   7.487   2.209  1.8465 -0.7653  3.5125
  329MOL0     H44377  10.509   7.276   2.544  1.8304  1.8786 -1.5077
  329MOL0     H44378  10.590   7.085   2.598  1.0229  0.4524  0.5510
  329MOL0     H44379  10.824   6.747   2.416 -2.3699 -0.5608 -0.2050
  329MOL0     H44380  10.831   6.894   2.322 -1.1590  2.6166 -0.1103
  329MOL0     H44381  10.998   6.887   2.504 -0.8213 -0.9990 -2.1946
  329MOL0     H44382  10.893   7.027   2.513  2.8945 -0.7229 -1.6776
  329MOL0     H44383  10.778   6.895   2.694  0.8400  0.1728 -0.7442
  329MOL0     H44384  10.887   6.752   2.676 -0.0518 -1.1244 -0.2356
  329MOL0     H44385  10.986   7.035   2.749  2.4880 -0.5459 -0.1541
  329MOL0     H44386  11.076   6.887   2.771 -0.2970 -1.1735 -0.1508
  329MOL0     H44387  10.902   6.800   2.931  1.5541 -0.6090 -0.4203
  329MOL0     H44388  10.803   6.930   2.918 -1.0728 -0.6937 -0.0618
  329MOL0     H44389  10.949   6.964   3.111 -0.4164 -2.8692 -0.9878
  329MOL0     H44390  11.094   6.929   3.017 -0.2079 -0.9390  2.0906
  329MOL0     H44391  10.900   7.184   3.002  0.5202  0.5857  0.0346
  329MOL0     H44392  11.042   7.171   2.912  3.8126 -2.0583  0.6969
  329MOL0     H44393  11.186   7.128   3.102 -0.7116 -0.1251 -1.4361
  329MOL0     H44394  11.107   7.290   3.092  3.1168  0.6058 -0.6623
  329MOL0     H44395  10.646   6.968   2.182 -2.6600 -0.7783 -0.6711
  329MOL0     H44396  10.558   7.194   2.129 -3.9172 -0.2375  0.2433
  329MOL0     H44397  10.613   7.738   2.250  0.7955 -0.4737 -0.0186
  329MOL0     H44398  10.476   7.914   2.160  2.1950 -0.6841 -0.3216
  329MOL0     H44399   8.689   8.223   1.294 -1.5391 -1.3034 -1.3392
  329MOL0     H44400   8.544   8.219   1.097  1.2194 -0.6595 -2.8705
  329MOL0     H44401   8.169   8.421   0.836  2.1522  2.8058  2.2897
  329MOL0     H44402   8.072   8.408   0.584 -0.7500 -0.3937  1.2075
  329MOL0     H44403   8.072   8.195   0.399  0.2080 -2.2419 -1.4824
  329MOL0     H44404   8.237   8.154   0.357  1.0249  1.0521  0.7383
  329MOL0     H44405   8.204   8.252   0.138  0.3147  2.0702  1.3830
  329MOL0     H44406   8.053   8.327   0.188 -1.9092 -1.3346 -1.2096
  329MOL0     H44407   7.967   8.092   0.252 -2.2907 -0.4669 -1.4216
  329MOL0     H44408   8.085   8.035   0.128  1.3677  0.3239  3.0847
  329MOL0     H44409   7.862   8.244   0.079  0.1436  0.6981  0.2727
  329MOL0     H44410   7.997   8.212  -0.030  0.3188  3.9861  1.4362
  329MOL0     H44411   7.765   7.891  -0.131 -2.1854  0.8199  1.6113
  329MOL0     H44412   8.458   8.299   0.431  3.3680  1.3843  2.1258
  329MOL0     H44413   8.580   8.173   0.572 -0.0829  1.8040 -1.3030
  329MOL0     H44414   8.631   8.323   0.656  2.3373 -2.3188  0.7771
  329MOL0     H44415   8.564   8.179   0.741  1.3036 -0.7730 -0.6165
  330MOL0     O44416   3.962   8.981   4.462  0.1863  0.2269  0.5134
  330MOL0     C44417   3.907   8.933   4.362 -0.1554  0.4490 -0.1237
  330MOL0     O44418   3.878   8.998   4.252 -0.0434 -0.1429  0.7210
  330MOL0     C44419   3.924   9.127   4.224  0.0122  0.0564 -0.0434
  330MOL0     C44420   3.870   9.244   4.289  0.8254  0.2981 -0.5653
  330MOL0     C44421   3.932   9.371   4.267  0.6374  0.3315  0.1212
  330MOL0     C44422   4.043   9.377   4.179 -0.3910  0.1013  0.3897
  330MOL0     O44423   4.093   9.506   4.161  0.1764  0.1047 -0.0665
  330MOL0     C44424   4.216   9.534   4.102  0.2815  0.6807 -0.9715
  330MOL0     C44425   4.226   9.684   4.099 -0.4745  0.5868 -0.1804
  330MOL0     C44426   4.112   9.745   4.012 -0.9695  0.9870 -0.5583
  330MOL0     C44427   4.132   9.907   4.020  0.1207  0.1289 -0.4024
  330MOL0     C44428   4.012   9.986   3.973  1.0157 -0.4735 -0.3130
  330MOL0     C44429   3.913  10.004   4.090  0.3086 -0.4600  0.1730
  330MOL0     C44430   3.807  10.113   4.059 -0.2130 -0.0329 -0.5072
  330MOL0     C44431   3.871  10.254   4.086  0.3612 -0.0003  1.0281
  330MOL0     N44432   3.924  10.275   4.223 -0.2093 -0.2712 -0.2436
  330MOL0     C44433   4.057  10.258   4.272  0.3898  0.5091  0.1400
  330MOL0     C44434   4.044  10.266   4.407 -0.5093  0.0198  0.7032
  330MOL0     C44435   4.154  10.249   4.505  0.2964  0.1345 -1.1802
  330MOL0     C44436   4.103  10.316   4.633  0.2913  0.1963 -0.0738
  330MOL0     C44437   4.204  10.318   4.748 -0.3053  0.0037  0.3857
  330MOL0     C44438   4.225  10.182   4.807 -0.5075  0.5608  0.4844
  330MOL0     O44439   4.098  10.131   4.860 -0.4573 -0.5814  0.4540
  330MOL0     C44440   4.099  10.001   4.907 -0.2557 -0.4578 -0.2857
  330MOL0     C44441   3.973   9.941   4.937  0.2268 -0.2819  0.1084
  330MOL0     C44442   3.959   9.806   4.979 -0.0036 -0.0697 -0.7306
  330MOL0     C44443   4.084   9.732   4.986 -0.3189  0.2471 -0.5783
  330MOL0     C44444   4.084   9.590   5.000 -0.1732 -0.3912 -0.6065
  330MOL0     O44445   4.184   9.526   5.064 -0.2465 -0.2968  0.3175
  330MOL0     C44446   4.176   9.392   5.096 -0.3201 -0.4563  0.2956
  330MOL0     C44447   4.148   9.353   5.227  0.0491 -0.0014  0.6847
  330MOL0     C44448   4.164   9.218   5.263 -0.1167 -0.1911  0.2219
  330MOL0     C44449   4.187   9.117   5.170  0.0367  0.2398  0.1671
  330MOL0     O44450   4.171   8.986   5.218  0.0925 -0.2293 -0.2017
  330MOL0     C44451   4.121   8.873   5.132 -0.2529 -0.7438 -0.8868
  330MOL0     C44452   3.970   8.870   5.109 -0.7212  0.6385  0.1246
  330MOL0     C44453   3.924   8.983   5.008 -0.6766 -0.0562 -0.0008
  330MOL0     C44454   3.787   8.954   4.942 -0.0334  0.4936 -0.7445
  330MOL0     C44455   3.752   9.066   4.836 -0.3868 -0.0259 -1.0980
  330MOL0     C44456   3.760   9.216   4.873 -0.4674 -0.8180 -0.4822
  330MOL0     C44457   3.694   9.259   5.007  0.3679  0.0211  0.7251
  330MOL0     C44458   3.609   9.385   5.010  0.0292  1.0855 -0.1375
  330MOL0    Cl44459   3.505   9.379   5.167  0.3249 -0.3641 -0.4823
  330MOL0     C44460   4.206   9.153   5.042  0.1301 -0.4466  1.0882
  330MOL0     C44461   4.209   9.295   4.999 -0.2842  0.1886  0.3349
  330MOL0     O44462   3.984   9.538   4.945 -0.1698 -0.4136 -0.6084
  330MOL0     C44463   4.204   9.794   4.984 -0.6890 -0.5664  1.6259
  330MOL0     C44464   4.214   9.934   4.954 -0.2910  0.7272 -0.4438
  330MOL0     N44465   3.905  10.295   4.434  0.3231 -0.4289 -0.8827
  330MOL0     N44466   3.836  10.303   4.328  0.1979  0.3446  0.1683
  330MOL0     C44467   4.094   9.263   4.120 -1.2142  0.3197 -0.2484
  330MOL0     C44468   4.036   9.138   4.143 -1.0528 -0.1552 -0.3161
  330MOL0     C44469   3.859   8.789   4.369  0.4652  0.6543 -1.3195
  330MOL0     C44470   3.898   8.698   4.272 -0.6308  0.5565 -0.0309
  330MOL0     C44471   3.879   8.559   4.287 -0.1242 -0.3581 -0.3638
  330MOL0     C44472   3.810   8.513   4.391  0.8467  1.6970  0.3050
  330MOL0     O44473   3.785   8.381   4.402 -0.5329  0.9607  0.8752
  330MOL0     C44474   3.772   8.306   4.273 -0.5298 -0.1281 -0.6651
  330MOL0     C44475   3.706   8.176   4.304  0.1554  0.3837 -0.3112
  330MOL0     C44476   3.797   8.077   4.393  0.6761 -0.0054  0.3665
  330MOL0     C44477   3.703   7.985   4.473  0.6112 -0.1224  0.8097
  330MOL0     C44478   3.614   7.901   4.380 -0.4217  0.2214 -0.1772
  330MOL0     C44479   3.550   7.815   4.321 -0.7950 -0.0474 -0.3107
  330MOL0     C44480   3.767   8.596   4.498 -0.2352 -0.4292 -0.2698
  330MOL0     C44481   3.786   8.735   4.484 -0.2080 -0.6288  0.7366
  330MOL0     C44482   3.731   8.819   4.593 -0.3513  0.0249 -0.3570
  330MOL0     H44483   3.790   9.232   4.361  4.3811  0.2264  3.8341
  330MOL0     H44484   3.901   9.465   4.312  3.7935  0.4690  2.3389
  330MOL0     H44485   4.297   9.499   4.167  2.0461 -0.0541 -3.4129
  330MOL0     H44486   4.224   9.488   4.004 -1.3093 -1.5130 -0.1550
  330MOL0     H44487   4.327   9.699   4.059 -0.5877 -3.9068 -2.7898
  330MOL0     H44488   4.232   9.724   4.201  0.4330  2.0215 -0.7551
  330MOL0     H44489   4.011   9.713   4.041 -0.8569 -2.1295 -3.1158
  330MOL0     H44490   4.128   9.714   3.908  0.1706 -1.5399  0.2930
  330MOL0     H44491   4.162   9.946   4.118  0.4163  2.2419 -1.2906
  330MOL0     H44492   4.216   9.909   3.949  0.7705 -0.5077  0.3214
  330MOL0     H44493   4.048  10.085   3.942 -0.6633  0.2960  0.1039
  330MOL0     H44494   3.959   9.947   3.885 -1.0116  0.9341  0.2202
  330MOL0     H44495   3.862   9.910   4.114 -0.0392  0.3404  2.9671
  330MOL0     H44496   3.970  10.023   4.181  0.5364 -0.4526  0.0283
  330MOL0     H44497   3.725  10.090   4.128  0.0212 -2.7446 -1.0148
  330MOL0     H44498   3.766  10.113   3.958  0.2469  1.4248 -0.7150
  330MOL0     H44499   3.949  10.263   4.010  1.6834 -3.3635  1.7836
  330MOL0     H44500   3.782  10.314   4.065 -1.0049 -1.8001  1.3881
  330MOL0     H44501   4.146  10.239   4.214  0.4707 -0.6530  0.6083
  330MOL0     H44502   4.183  10.144   4.518  1.7251  0.8517  3.1211
  330MOL0     H44503   4.245  10.295   4.466  1.7747 -1.6880 -0.0612
  330MOL0     H44504   4.074  10.418   4.609 -0.0363 -0.6238 -3.7705
  330MOL0     H44505   4.014  10.263   4.667 -0.8124 -0.7415 -3.9475
  330MOL0     H44506   4.154  10.379   4.823  0.6736  1.6314 -0.2372
  330MOL0     H44507   4.296  10.370   4.719  0.2073 -1.1297 -0.1037
  330MOL0     H44508   4.307  10.180   4.879  0.1871  0.4396 -0.3023
  330MOL0     H44509   4.250  10.114   4.725  1.2619 -0.1532  1.5535
  330MOL0     H44510   3.879   9.995   4.930 -1.5279 -3.1085  0.5388
  330MOL0     H44511   3.862   9.759   4.989 -0.7284  1.3955 -0.5587
  330MOL0     H44512   4.123   9.425   5.305  0.1295  1.9991 -1.0560
  330MOL0     H44513   4.135   9.186   5.363 -1.7298 -1.3600 -0.5740
  330MOL0     H44514   4.181   8.871   5.040  1.8573  1.0109  0.3561
  330MOL0     H44515   4.146   8.774   5.172 -0.3442 -0.1066  0.8186
  330MOL0     H44516   3.945   8.775   5.063 -2.3341  2.2287 -2.5180
  330MOL0     H44517   3.907   8.869   5.198 -1.5278  2.5521 -0.3657
  330MOL0     H44518   3.933   9.084   5.050  1.8639  0.3877 -1.4107
  330MOL0     H44519   4.012   8.984   4.943  0.2207 -3.2679  0.9910
  330MOL0     H44520   3.718   8.946   5.027  2.2174 -1.9372  1.0295
  330MOL0     H44521   3.789   8.856   4.893  1.1074  1.0291 -1.8223
  330MOL0     H44522   3.647   9.049   4.810 -1.1892  0.8072  1.2604
  330MOL0     H44523   3.823   9.047   4.755 -1.8998  1.1167 -2.7770
  330MOL0     H44524   3.868   9.232   4.877 -0.0639 -2.8382 -2.1722
  330MOL0     H44525   3.720   9.285   4.798  3.1651  1.7287 -0.3330
  330MOL0     H44526   3.768   9.266   5.088  0.2225 -0.1687  0.8753
  330MOL0     H44527   3.624   9.177   5.024  0.7025 -0.5597 -0.5717
  330MOL0     H44528   3.683   9.466   5.014  1.3662 -0.1344  1.4244
  330MOL0     H44529   3.551   9.397   4.918 -1.8254  0.7769  0.9472
  330MOL0     H44530   4.211   9.066   4.978 -0.4564 -0.9247  1.6764
  330MOL0     H44531   4.230   9.316   4.895 -0.2285 -2.0727 -0.1619
  330MOL0     H44532   4.303   9.752   5.001  1.5638  3.3211 -0.4222
  330MOL0     H44533   4.306   9.988   4.934 -0.7869  0.3765 -4.4323
  330MOL0     H44534   4.183   9.266   4.058 -0.7329  1.5110  0.4714
  330MOL0     H44535   4.093   9.064   4.088 -0.3769  1.4780 -1.9380
  330MOL0     H44536   3.950   8.731   4.183  0.2891  3.4314  1.4415
  330MOL0     H44537   3.921   8.489   4.215  2.4035  0.1567  0.5456
  330MOL0     H44538   3.873   8.291   4.236 -1.0458 -2.2743 -1.3869
  330MOL0     H44539   3.709   8.360   4.201 -0.9422 -2.1965 -1.9417
  330MOL0     H44540   3.680   8.126   4.211 -2.8346  0.0956  0.5860
  330MOL0     H44541   3.609   8.194   4.350  0.2311 -0.5144  0.2174
  330MOL0     H44542   3.856   8.137   4.463  1.6306  0.7901 -1.0422
  330MOL0     H44543   3.875   8.019   4.342  2.0769  2.4220 -0.4489
  330MOL0     H44544   3.753   7.905   4.529 -1.5184 -1.7295  0.5549
  330MOL0     H44545   3.631   8.036   4.537 -2.9318 -1.8390 -1.4802
  330MOL0     H44546   3.499   7.740   4.264  1.6062 -1.6503 -0.4941
  330MOL0     H44547   3.703   8.551   4.573  0.1679  1.5074  1.3210
  330MOL0     H44548   3.803   8.831   4.674 -1.7454  0.6271  0.8202
  330MOL0     H44549   3.710   8.920   4.557 -0.9264 -0.2406 -0.7864
  330MOL0     H44550   3.637   8.778   4.631 -0.4838  2.6751  2.5266
  331MOL0     O44551   6.711   5.060   7.460 -0.4201  0.1626 -0.1480
  331MOL0     C44552   6.787   5.156   7.432  0.8167  0.6338  0.2038
  331MOL0     O44553   6.778   5.220   7.313 -0.1274 -0.2305  0.2824
  331MOL0     C44554   6.691   5.159   7.222 -0.7345  0.1143 -0.3202
  331MOL0     C44555   6.739   5.086   7.119 -0.5860  0.1057  0.7396
  331MOL0     C44556   6.650   5.035   7.013  0.4460  0.1138 -0.4893
  331MOL0     C44557   6.509   5.056   7.016 -0.1268 -1.1151  0.7797
  331MOL0     O44558   6.435   5.026   6.906  0.4136 -0.5336 -0.0130
  331MOL0     C44559   6.290   5.041   6.910 -0.2171  0.2530  0.6785
  331MOL0     C44560   6.225   4.983   6.777 -0.6949  0.0284  0.2570
  331MOL0     C44561   6.072   4.975   6.793 -0.2893  1.3460 -0.2562
  331MOL0     C44562   5.992   4.942   6.657 -0.5204  0.2790  0.4712
  331MOL0     C44563   5.847   4.973   6.680 -0.2371 -0.3412  0.3725
  331MOL0     C44564   5.781   4.862   6.767 -0.2419 -0.0848  0.8017
  331MOL0     C44565   5.662   4.801   6.693  0.0445 -0.1772  1.0953
  331MOL0     C44566   5.556   4.914   6.687  0.2509 -0.8803 -0.5561
  331MOL0     N44567   5.427   4.845   6.708  0.5523  0.1755 -0.6241
  331MOL0     C44568   5.372   4.816   6.829 -0.4134  0.0535 -0.1586
  331MOL0     C44569   5.246   4.785   6.802 -0.8742 -0.2848 -0.5178
  331MOL0     C44570   5.152   4.725   6.905 -0.6542  0.4355  0.5240
  331MOL0     C44571   5.049   4.637   6.832 -0.2312  0.5834 -0.3568
  331MOL0     C44572   5.105   4.511   6.763 -0.2558 -0.6012 -0.0236
  331MOL0     C44573   5.066   4.488   6.617  0.6893  0.6528 -0.0397
  331MOL0     O44574   5.139   4.373   6.577 -0.0391  0.0149 -0.3497
  331MOL0     C44575   5.279   4.389   6.566 -0.2519 -0.2001 -0.3993
  331MOL0     C44576   5.371   4.299   6.632  0.5716 -0.7369  0.6572
  331MOL0     C44577   5.511   4.303   6.615 -0.3411 -0.1019 -0.7718
  331MOL0     C44578   5.574   4.404   6.546 -0.3349  0.1763 -0.7969
  331MOL0     C44579   5.717   4.433   6.564 -0.8586 -0.0720 -0.3199
  331MOL0     O44580   5.800   4.327   6.575  0.2053  0.1989  0.5542
  331MOL0     C44581   5.927   4.331   6.612 -0.1894 -0.6141  0.1553
  331MOL0     C44582   5.986   4.208   6.621  0.4681 -0.3633 -0.1669
  331MOL0     C44583   6.124   4.190   6.621  1.3832  0.4809  0.6467
  331MOL0     C44584   6.212   4.305   6.622  0.6770  0.1915  0.3802
  331MOL0     O44585   6.346   4.263   6.618 -0.1056  0.2313  0.0053
  331MOL0     C44586   6.444   4.367   6.618  0.2448  0.0838  0.1544
  331MOL0     C44587   6.501   4.403   6.756 -0.0765 -0.4247 -0.4818
  331MOL0     C44588   6.587   4.296   6.827  0.5524  0.4914  0.4206
  331MOL0     C44589   6.682   4.357   6.947  0.5789 -1.2299  0.6796
  331MOL0     C44590   6.757   4.244   7.027  0.6558 -0.8798  0.1001
  331MOL0     C44591   6.848   4.316   7.132  0.0555  0.3810  0.9446
  331MOL0     C44592   6.935   4.219   7.209  1.2965  0.9748 -0.6484
  331MOL0     C44593   7.044   4.302   7.270 -0.3361 -0.0834 -1.0653
  331MOL0    Cl44594   6.991   4.371   7.424  0.0780 -0.4137  0.2578
  331MOL0     C44595   6.159   4.434   6.623 -0.2102  0.5765 -0.1793
  331MOL0     C44596   6.018   4.449   6.616 -0.4095  0.3430 -0.6637
  331MOL0     O44597   5.746   4.552   6.558  0.0474  0.4567 -0.3746
  331MOL0     C44598   5.485   4.496   6.481  0.3819  0.3229 -0.2694
  331MOL0     C44599   5.346   4.481   6.485  0.4050 -0.1305  0.2868
  331MOL0     N44600   5.225   4.811   6.671  0.3155  0.1080 -0.4933
  331MOL0     N44601   5.333   4.857   6.614 -0.5571  0.6664  0.1262
  331MOL0     C44602   6.465   5.132   7.127 -0.2411 -0.8553 -0.1016
  331MOL0     C44603   6.555   5.187   7.219  0.7302  0.2165  0.1124
  331MOL0     C44604   6.881   5.220   7.533  0.3832  0.0820 -0.4334
  331MOL0     C44605   6.973   5.313   7.491  0.5815 -0.2508 -0.0148
  331MOL0     C44606   7.076   5.365   7.565  0.2608  0.0754  0.3285
  331MOL0     C44607   7.098   5.309   7.692 -0.2120  0.0628  1.3091
  331MOL0     O44608   7.204   5.360   7.763 -0.1975  0.5654  0.5955
  331MOL0     C44609   7.302   5.260   7.797  0.0218  0.5186  0.5860
  331MOL0     C44610   7.392   5.315   7.913 -0.2898 -0.4872 -1.0456
  331MOL0     C44611   7.310   5.378   8.027  0.0778  1.1868 -0.1176
  331MOL0     C44612   7.319   5.524   8.025 -0.2843  0.4897 -0.6154
  331MOL0     C44613   7.255   5.588   8.142  0.3843  0.8487  0.5257
  331MOL0     C44614   7.207   5.645   8.235  0.5288  0.0724  0.0713
  331MOL0     C44615   7.011   5.221   7.747 -0.8365  0.3894 -1.2977
  331MOL0     C44616   6.895   5.175   7.669 -0.5190 -0.2430  0.0590
  331MOL0     C44617   6.786   5.107   7.743  0.0249 -0.4517 -0.1568
  331MOL0     H44618   6.847   5.071   7.113 -0.4478 -0.0961  2.7737
  331MOL0     H44619   6.689   4.987   6.923  1.2468  1.7115 -1.0310
  331MOL0     H44620   6.243   4.997   6.998 -2.5586  0.8994 -0.1536
  331MOL0     H44621   6.270   5.148   6.921 -4.9507 -0.2662 -0.4608
  331MOL0     H44622   6.256   4.879   6.769 -1.2954 -0.0128 -3.1136
  331MOL0     H44623   6.265   5.050   6.699  1.2275  2.7361  3.3055
  331MOL0     H44624   6.030   5.060   6.847 -2.2239 -1.2902  2.7479
  331MOL0     H44625   6.040   4.891   6.856 -2.5904  1.8237 -0.6907
  331MOL0     H44626   6.046   5.000   6.582 -0.7089  0.3080  0.3558
  331MOL0     H44627   6.015   4.837   6.637 -1.9914 -0.2216  1.2380
  331MOL0     H44628   5.846   5.074   6.722  3.2970 -0.7718  1.8306
  331MOL0     H44629   5.795   4.975   6.584 -3.2120 -1.2692  1.8254
  331MOL0     H44630   5.848   4.782   6.799  0.0985 -0.4721 -0.8070
  331MOL0     H44631   5.744   4.911   6.857 -2.2877  0.9902 -0.5241
  331MOL0     H44632   5.619   4.710   6.738 -1.0915  0.0578  0.5311
  331MOL0     H44633   5.695   4.787   6.590  0.5297 -1.1051  1.3616
  331MOL0     H44634   5.568   4.997   6.758 -0.3081 -0.9669 -0.3561
  331MOL0     H44635   5.567   4.963   6.590  1.1273 -0.1139 -0.0924
  331MOL0     H44636   5.425   4.826   6.923  0.8432  0.6328 -0.8935
  331MOL0     H44637   5.205   4.658   6.974  0.0475 -1.3761 -1.6287
  331MOL0     H44638   5.093   4.790   6.969 -0.1762  0.3418  1.0637
  331MOL0     H44639   4.971   4.597   6.898 -0.5347  0.7254 -0.6278
  331MOL0     H44640   4.987   4.701   6.769 -1.8510  0.7080  1.2921
  331MOL0     H44641   5.091   4.425   6.828 -4.6215  1.0457  1.5923
  331MOL0     H44642   5.214   4.516   6.763 -0.2573 -0.3541  1.2911
  331MOL0     H44643   5.073   4.568   6.543 -2.0145 -0.2163 -1.3762
  331MOL0     H44644   4.959   4.465   6.615  1.0040 -1.0255  0.5536
  331MOL0     H44645   5.328   4.209   6.675 -0.2983 -1.9755 -2.5168
  331MOL0     H44646   5.575   4.235   6.670  2.1428  2.3046 -0.4422
  331MOL0     H44647   5.933   4.116   6.601 -0.2129  0.2196 -1.1018
  331MOL0     H44648   6.158   4.087   6.613 -1.1239 -0.3558 -0.3402
  331MOL0     H44649   6.529   4.340   6.554  1.3544  2.4341  0.5564
  331MOL0     H44650   6.406   4.460   6.574  2.3810 -0.0397 -2.1798
  331MOL0     H44651   6.568   4.489   6.754 -0.3248 -0.2090  0.2377
  331MOL0     H44652   6.420   4.423   6.826  0.6882 -1.0946  0.6196
  331MOL0     H44653   6.515   4.219   6.856  0.2937 -2.0326 -5.4414
  331MOL0     H44654   6.644   4.254   6.744  0.3664 -0.0690  0.5719
  331MOL0     H44655   6.621   4.418   7.014  0.2424 -0.6481 -0.1434
  331MOL0     H44656   6.755   4.419   6.894  0.5451 -1.2418  0.6209
  331MOL0     H44657   6.803   4.195   6.940 -3.4157  0.0465 -2.8765
  331MOL0     H44658   6.695   4.174   7.083  3.1275 -1.4884  2.2574
  331MOL0     H44659   6.910   4.379   7.069 -0.9776  1.0420  0.5745
  331MOL0     H44660   6.785   4.369   7.204 -0.9141 -1.1331  1.2638
  331MOL0     H44661   6.977   4.142   7.144  2.6713  0.3385  0.9076
  331MOL0     H44662   6.877   4.171   7.289 -0.7921  1.9021 -1.5200
  331MOL0     H44663   7.123   4.228   7.287 -1.3300 -0.8462  0.4783
  331MOL0     H44664   7.088   4.378   7.204 -0.6696 -0.9030 -2.2689
  331MOL0     H44665   6.219   4.524   6.632  0.2446  0.0770  2.4773
  331MOL0     H44666   5.981   4.551   6.622 -2.4213 -0.3538 -0.6322
  331MOL0     H44667   5.524   4.581   6.426 -1.4039  1.7852  0.6084
  331MOL0     H44668   5.284   4.553   6.433  0.9677 -1.4710 -2.4450
  331MOL0     H44669   6.365   5.174   7.133  0.3503  0.5292  0.4260
  331MOL0     H44670   6.517   5.244   7.303 -0.6795  0.5906 -0.7428
  331MOL0     H44671   6.973   5.343   7.386  0.3563 -1.0112 -0.2400
  331MOL0     H44672   7.134   5.453   7.538  3.4592 -0.7773  3.7055
  331MOL0     H44673   7.363   5.226   7.713 -1.7015 -2.7314  0.4988
  331MOL0     H44674   7.258   5.168   7.835  0.6072  0.6890  1.7416
  331MOL0     H44675   7.470   5.383   7.876 -0.0013  1.6447  2.9749
  331MOL0     H44676   7.442   5.224   7.946  1.4504  1.4246  2.1716
  331MOL0     H44677   7.345   5.336   8.121 -1.5108  1.0538  0.4319
  331MOL0     H44678   7.207   5.347   8.012  0.1116 -0.2186  2.1013
  331MOL0     H44679   7.423   5.556   8.041 -0.9282  3.2724 -1.4137
  331MOL0     H44680   7.285   5.562   7.929 -1.3784 -1.1206 -0.9033
  331MOL0     H44681   7.166   5.701   8.317 -1.9931 -0.7697 -0.5514
  331MOL0     H44682   7.038   5.192   7.848  1.1554  0.6709 -1.7120
  331MOL0     H44683   6.774   5.003   7.710  2.3057 -1.5767  2.1557
  331MOL0     H44684   6.784   5.119   7.852 -0.6343 -1.0056 -0.0978
  331MOL0     H44685   6.698   5.164   7.712  0.5655  0.3011 -0.3155
  332MOL0     O44686   3.028   6.221   8.612  0.1773  0.4738  0.0906
  332MOL0     C44687   3.005   6.124   8.534  0.1251 -1.7549 -0.3905
  332MOL0     O44688   3.051   5.998   8.550  0.5181 -0.1259 -0.1910
  332MOL0     C44689   3.107   5.941   8.665  0.2286 -0.7502  0.5579
  332MOL0     C44690   3.074   5.972   8.799  0.1386 -0.3627 -0.2390
  332MOL0     C44691   3.103   5.880   8.901 -0.9359 -0.1650 -0.1659
  332MOL0     C44692   3.184   5.769   8.870 -0.0327  0.3464  0.0133
  332MOL0     O44693   3.203   5.668   8.957  0.6023 -0.3494  0.3758
  332MOL0     C44694   3.228   5.687   9.090 -0.7306  0.3318 -0.9291
  332MOL0     C44695   3.378   5.714   9.116 -0.4917  0.7637 -0.3765
  332MOL0     C44696   3.462   5.605   9.053 -0.1343 -0.3854  0.2749
  332MOL0     C44697   3.565   5.540   9.142  0.4880 -0.4963  0.5263
  332MOL0     C44698   3.669   5.639   9.184  0.7368  0.3400  0.2365
  332MOL0     C44699   3.768   5.571   9.278  0.2220  0.5872 -1.1979
  332MOL0     C44700   3.869   5.675   9.326  0.2088  0.4975 -0.2086
  332MOL0     C44701   3.852   5.717   9.473  0.3345  0.8333 -0.0610
  332MOL0     N44702   3.934   5.839   9.507  0.1702  0.0588 -0.1098
  332MOL0     C44703   3.932   5.962   9.439 -0.0473  0.2866  0.0736
  332MOL0     C44704   4.039   6.028   9.479 -0.5699 -0.5443  0.5579
  332MOL0     C44705   4.075   6.174   9.446  0.0103  0.3097 -0.4268
  332MOL0     C44706   4.105   6.251   9.578 -0.1453  0.1987  0.2245
  332MOL0     C44707   4.106   6.397   9.561 -0.2853  0.0740 -0.3018
  332MOL0     C44708   4.157   6.468   9.686  1.6392  0.0511  0.6764
  332MOL0     O44709   4.176   6.607   9.674 -0.3699  1.0871 -0.4061
  332MOL0     C44710   4.125   6.680   9.773  0.4365 -0.3147 -0.3137
  332MOL0     C44711   4.007   6.754   9.750  0.1095  0.4827  0.0985
  332MOL0     C44712   3.936   6.826   9.846 -0.3897 -0.7754 -1.0352
  332MOL0     C44713   3.987   6.835   9.979 -0.8557  0.5449  1.5422
  332MOL0     C44714   3.919   6.917  10.078 -0.7517 -0.1252  0.7864
  332MOL0     O44715   3.782   6.916  10.064 -0.0109 -0.2928 -0.1729
  332MOL0     C44716   3.713   6.976  10.166  0.1942  0.0645  0.6050
  332MOL0     C44717   3.704   7.113  10.161  0.0148 -0.4420 -0.7686
  332MOL0     C44718   3.637   7.184  10.261 -0.1549 -0.7547 -0.6848
  332MOL0     C44719   3.580   7.117  10.370 -0.4519 -0.0928 -0.8499
  332MOL0     O44720   3.505   7.189  10.460 -0.4471 -0.2065 -0.5744
  332MOL0     C44721   3.422   7.120  10.554  0.5893  0.4021  0.3347
  332MOL0     C44722   3.318   7.210  10.627 -0.2685 -0.2605 -0.1271
  332MOL0     C44723   3.368   7.353  10.669  0.1631 -1.1051  0.9818
  332MOL0     C44724   3.255   7.431  10.732  0.5632  0.2413  0.8598
  332MOL0     C44725   3.313   7.559  10.800 -0.2665 -0.4728 -1.2287
  332MOL0     C44726   3.207   7.629  10.880  0.0855  0.9817 -0.0481
  332MOL0     C44727   3.275   7.743  10.957  0.6676 -0.0643  0.0031
  332MOL0     C44728   3.159   7.791  11.052  0.3252 -0.2808  0.2407
  332MOL0    Cl44729   3.141   7.689  11.203 -0.1340  0.1827 -0.4212
  332MOL0     C44730   3.598   6.973  10.383 -0.7277  0.0916 -0.1160
  332MOL0     C44731   3.657   6.908  10.277  0.0266 -0.4222 -0.9077
  332MOL0     O44732   3.973   6.975  10.167  0.0970 -0.0030  0.2827
  332MOL0     C44733   4.108   6.763  10.001  0.1539 -0.8386 -0.5922
  332MOL0     C44734   4.184   6.701   9.898  1.0378  0.0857 -1.0576
  332MOL0     N44735   4.117   5.947   9.557  1.1246  0.7794  1.2403
  332MOL0     N44736   4.050   5.835   9.575 -0.7548  0.4165  0.5062
  332MOL0     C44737   3.220   5.743   8.744 -0.8363  0.4810  0.3810
  332MOL0     C44738   3.183   5.828   8.641 -0.6926 -0.6073  0.4122
  332MOL0     C44739   2.903   6.154   8.423 -0.5357  0.4497  0.2649
  332MOL0     C44740   2.843   6.278   8.430  0.2472  0.0417  0.2802
  332MOL0     C44741   2.746   6.304   8.338 -0.5888 -0.2597  0.1393
  332MOL0     C44742   2.710   6.211   8.242 -0.0732 -0.2392 -0.7660
  332MOL0     O44743   2.611   6.257   8.158  0.4879 -0.3854  0.2373
  332MOL0     C44744   2.556   6.175   8.054 -0.7164  0.0204  0.3592
  332MOL0     C44745   2.613   6.224   7.924  0.6342  0.1543  0.7918
  332MOL0     C44746   2.596   6.373   7.903 -0.1045  0.3585  0.2108
  332MOL0     C44747   2.648   6.428   7.766  0.0500 -0.4386 -0.7023
  332MOL0     C44748   2.651   6.321   7.660  0.7736  0.7054  0.9994
  332MOL0     C44749   2.652   6.229   7.586  0.1701  0.0113 -0.0395
  332MOL0     C44750   2.763   6.089   8.246  0.2382 -0.1794  0.4133
  332MOL0     C44751   2.865   6.055   8.328 -0.3638 -0.0874 -0.8246
  332MOL0     C44752   2.921   5.914   8.322 -0.3601  0.7465 -0.7790
  332MOL0     H44753   3.007   6.056   8.816 -0.4749 -0.7227 -0.7931
  332MOL0     H44754   3.067   5.884   9.003 -1.8661  0.1648 -0.4953
  332MOL0     H44755   3.175   5.768   9.142  1.3893  1.1074  0.1240
  332MOL0     H44756   3.201   5.592   9.136 -0.3892  0.1844 -1.0320
  332MOL0     H44757   3.402   5.723   9.223 -2.3237  0.7097  0.0774
  332MOL0     H44758   3.412   5.804   9.064  3.4117  0.0743  0.6408
  332MOL0     H44759   3.506   5.641   8.960  1.2370  1.5361  1.5752
  332MOL0     H44760   3.397   5.524   9.019  0.8837 -0.5958 -1.2559
  332MOL0     H44761   3.522   5.498   9.233 -0.2591  2.3386  1.5644
  332MOL0     H44762   3.619   5.461   9.088 -2.1342 -1.0559 -1.5482
  332MOL0     H44763   3.725   5.672   9.096 -1.6321 -0.4118 -1.6571
  332MOL0     H44764   3.626   5.728   9.232  0.9470 -1.7985  4.9708
  332MOL0     H44765   3.711   5.543   9.367 -1.4693 -0.4108 -2.5187
  332MOL0     H44766   3.826   5.487   9.239  0.8099  0.3658  0.0984
  332MOL0     H44767   3.851   5.770   9.274 -0.4852  0.3887 -0.1822
  332MOL0     H44768   3.967   5.629   9.315 -0.0571 -0.6704  1.8157
  332MOL0     H44769   3.748   5.746   9.492  0.8955  1.1216  3.1796
  332MOL0     H44770   3.881   5.636   9.540  0.0258  0.3194 -0.5391
  332MOL0     H44771   3.853   6.003   9.377 -1.3915 -3.4631 -0.9460
  332MOL0     H44772   4.151   6.182   9.368  0.0219 -1.3480 -0.6114
  332MOL0     H44773   3.991   6.222   9.395 -0.5011  3.1431  2.6718
  332MOL0     H44774   4.039   6.207   9.653  0.9748 -0.1068  1.0613
  332MOL0     H44775   4.208   6.230   9.608  0.5168  2.0714 -0.5298
  332MOL0     H44776   4.008   6.441   9.538 -1.2879 -1.5712  0.6455
  332MOL0     H44777   4.184   6.416   9.487  0.4602 -1.9427 -0.0807
  332MOL0     H44778   4.248   6.419   9.724  0.6960 -1.0725  1.5800
  332MOL0     H44779   4.089   6.443   9.768  1.1975  0.1293  0.3336
  332MOL0     H44780   3.963   6.734   9.653  1.3593 -0.5836 -0.2769
  332MOL0     H44781   3.842   6.877   9.827 -0.6978 -0.6565  0.6495
  332MOL0     H44782   3.746   7.164  10.075 -1.3649  2.1582 -0.0064
  332MOL0     H44783   3.618   7.291  10.255 -0.2327 -0.8356 -2.2181
  332MOL0     H44784   3.363   7.044  10.502 -2.8545  3.7693 -1.1816
  332MOL0     H44785   3.487   7.073  10.628  3.1019  0.1725 -1.8676
  332MOL0     H44786   3.235   7.227  10.558 -1.0543  0.9421  1.0706
  332MOL0     H44787   3.289   7.156  10.718  2.2553 -0.7836  0.4637
  332MOL0     H44788   3.450   7.347  10.741  1.0850  2.5721  0.4207
  332MOL0     H44789   3.415   7.402  10.583  0.2663 -0.4197  1.4286
  332MOL0     H44790   3.204   7.365  10.803 -1.4126  0.1941 -0.5157
  332MOL0     H44791   3.184   7.462  10.655  1.9076 -1.4960 -1.1772
  332MOL0     H44792   3.351   7.619  10.717  0.3312  1.8353  0.6129
  332MOL0     H44793   3.405   7.535  10.855 -1.7234 -2.0295  0.6497
  332MOL0     H44794   3.129   7.654  10.808 -0.4654  0.3118  0.2940
  332MOL0     H44795   3.168   7.559  10.955 -0.6822 -0.5501 -1.7831
  332MOL0     H44796   3.301   7.820  10.884  0.9996  0.7968  0.9899
  332MOL0     H44797   3.357   7.711  11.022  0.7158 -1.2996 -0.6404
  332MOL0     H44798   3.177   7.897  11.071 -0.3413  0.4441 -2.6500
  332MOL0     H44799   3.065   7.781  10.997  1.5331 -2.2235 -1.6603
  332MOL0     H44800   3.567   6.911  10.466 -1.3732  0.6262  0.0495
  332MOL0     H44801   3.654   6.800  10.282 -2.4697 -0.3828 -0.3767
  332MOL0     H44802   4.147   6.757  10.102 -4.4425 -3.7157  1.3166
  332MOL0     H44803   4.284   6.670   9.925 -0.2039 -2.7526  0.6899
  332MOL0     H44804   3.262   5.645   8.725 -2.0668 -0.5599  2.6936
  332MOL0     H44805   3.175   5.795   8.538 -1.4994 -0.9861  0.5826
  332MOL0     H44806   2.853   6.348   8.513 -4.1535  1.1286  0.1154
  332MOL0     H44807   2.698   6.402   8.335  1.1168  0.6243  0.3136
  332MOL0     H44808   2.448   6.190   8.051 -0.5688  1.0465 -0.2942
  332MOL0     H44809   2.587   6.071   8.062  0.9688  0.0953 -3.2329
  332MOL0     H44810   2.562   6.163   7.849  3.6436 -2.2302  0.4950
  332MOL0     H44811   2.718   6.198   7.911  0.6667 -0.9974  2.9098
  332MOL0     H44812   2.655   6.419   7.983  1.0730  0.5414 -0.7334
  332MOL0     H44813   2.495   6.412   7.920 -0.3137  0.3468 -0.8856
  332MOL0     H44814   2.592   6.517   7.736 -0.8834 -0.0877  1.8893
  332MOL0     H44815   2.748   6.472   7.777  0.3054 -0.5921 -2.1849
  332MOL0     H44816   2.654   6.144   7.521 -4.4506  0.2336 -0.8113
  332MOL0     H44817   2.725   6.020   8.172 -1.3514  0.8820  0.2070
  332MOL0     H44818   2.902   5.856   8.413 -0.4646  1.3816 -0.3899
  332MOL0     H44819   2.863   5.866   8.243 -4.0650  0.6912  1.7499
  332MOL0     H44820   3.029   5.923   8.304  0.5436 -2.5349  1.9496
  333MOL0     O44821   2.105   2.333   7.790 -0.1332 -0.2295 -0.3589
  333MOL0     C44822   2.035   2.422   7.747  0.4761  0.6443  0.1699
  333MOL0     O44823   1.904   2.408   7.715  0.4803  0.3997  0.3692
  333MOL0     C44824   1.830   2.288   7.718 -0.7385 -0.9020 -0.6027
  333MOL0     C44825   1.881   2.174   7.671  0.2876  1.6363  0.1805
  333MOL0     C44826   1.799   2.066   7.682 -0.3165  0.2209 -0.0837
  333MOL0     C44827   1.671   2.072   7.743  0.8936  0.4351  0.4635
  333MOL0     O44828   1.597   1.953   7.755  0.8333  0.6647  0.4179
  333MOL0     C44829   1.512   1.941   7.872 -0.3288 -1.1137  0.6830
  333MOL0     C44830   1.496   1.800   7.916 -0.3835 -0.1082 -1.7783
  333MOL0     C44831   1.632   1.724   7.949 -0.3762  0.8244 -0.2695
  333MOL0     C44832   1.742   1.814   7.982 -0.6475 -1.2375  0.7050
  333MOL0     C44833   1.855   1.739   8.038  0.0143 -0.0379  0.5182
  333MOL0     C44834   1.961   1.828   8.114 -0.2443 -0.3464  0.2552
  333MOL0     C44835   2.055   1.900   8.014  0.0578  0.7887  0.1150
  333MOL0     C44836   2.168   1.962   8.101  0.0638  0.2206  0.0861
  333MOL0     N44837   2.286   1.984   8.010 -0.1197 -0.0719  0.3808
  333MOL0     C44838   2.392   1.902   7.999  0.4695  0.3531 -0.2135
  333MOL0     C44839   2.468   1.956   7.898 -0.6425  0.0188 -0.7652
  333MOL0     C44840   2.593   1.895   7.832 -0.3445 -0.1800 -0.4475
  333MOL0     C44841   2.659   2.006   7.746  0.0307  1.0996  0.2964
  333MOL0     C44842   2.791   1.961   7.679  0.8295 -0.7076 -0.0795
  333MOL0     C44843   2.779   1.977   7.521  0.1602 -0.8367 -0.0011
  333MOL0     O44844   2.891   1.918   7.458 -0.2120  0.5210  0.0792
  333MOL0     C44845   3.009   1.932   7.513  0.2018 -0.0133  0.7502
  333MOL0     C44846   3.077   2.056   7.495 -0.5563  0.2078  0.0331
  333MOL0     C44847   3.199   2.074   7.554  0.0558 -0.4495 -0.3797
  333MOL0     C44848   3.273   1.968   7.601 -0.1877  0.8193 -0.6990
  333MOL0     C44849   3.422   1.978   7.625  0.8521  0.8355  0.5288
  333MOL0     O44850   3.470   2.102   7.619  0.5077  0.3345 -0.1260
  333MOL0     C44851   3.592   2.116   7.675 -0.3168  0.2511  0.5246
  333MOL0     C44852   3.705   2.091   7.599 -0.8222  0.4913 -0.0970
  333MOL0     C44853   3.839   2.090   7.665  0.8688  0.6218  0.4195
  333MOL0     C44854   3.851   2.112   7.796 -0.2443 -0.7590 -1.0305
  333MOL0     O44855   3.959   2.090   7.865 -0.2688  0.1312  0.5735
  333MOL0     C44856   4.089   2.115   7.801  0.2913  0.0447 -0.3492
  333MOL0     C44857   4.195   2.142   7.908  0.0628  0.1538 -0.0272
  333MOL0     C44858   4.189   2.273   7.977  0.3925 -0.1293  0.4100
  333MOL0     C44859   4.306   2.285   8.070  0.1429 -0.3529 -0.2234
  333MOL0     C44860   4.280   2.407   8.159  0.0500  0.5915  1.5054
  333MOL0     C44861   4.389   2.425   8.263  0.0086  0.7587  0.2018
  333MOL0     C44862   4.533   2.459   8.206  0.6212 -0.3961 -0.3392
  333MOL0     C44863   4.545   2.592   8.143 -0.5200 -0.0578 -0.3067
  333MOL0    Cl44864   4.580   2.721   8.252 -0.0597 -0.2017  0.0462
  333MOL0     C44865   3.741   2.142   7.869 -0.0052  0.0682 -0.6642
  333MOL0     C44866   3.612   2.147   7.810  0.8762 -0.0378  0.3980
  333MOL0     O44867   3.481   1.874   7.647 -0.6039 -0.4641  0.5119
  333MOL0     C44868   3.210   1.847   7.606  0.0679  0.9895  0.0034
  333MOL0     C44869   3.078   1.830   7.575 -0.3643 -0.1298 -0.4804
  333MOL0     N44870   2.405   2.074   7.862  0.5755 -0.3925  0.4433
  333MOL0     N44871   2.295   2.092   7.933 -0.1378  0.3678  0.5354
  333MOL0     C44872   1.614   2.193   7.780 -0.6175 -0.2311  0.1922
  333MOL0     C44873   1.693   2.305   7.767  0.7669  0.0250  0.3969
  333MOL0     C44874   2.107   2.554   7.727  0.7552  1.0793  0.9932
  333MOL0     C44875   2.236   2.568   7.781 -0.3904 -0.0177  0.4931
  333MOL0     C44876   2.304   2.688   7.763 -0.5995 -0.9940  1.0966
  333MOL0     C44877   2.249   2.794   7.691  0.2519 -0.4408  0.1523
  333MOL0     O44878   2.328   2.907   7.688 -0.0795  0.3552  0.5335
  333MOL0     C44879   2.299   3.012   7.596  0.1956  0.2123  0.8845
  333MOL0     C44880   2.224   3.116   7.664  0.1564  0.2595 -0.0707
  333MOL0     C44881   2.272   3.152   7.809 -0.2351 -0.0525  0.3771
  333MOL0     C44882   2.254   3.306   7.841 -0.2497  0.5525  0.6490
  333MOL0     C44883   2.351   3.387   7.770  0.3451 -0.6973  0.1006
  333MOL0     C44884   2.449   3.438   7.713  0.1072  0.4273 -0.0708
  333MOL0     C44885   2.121   2.775   7.641  0.1066 -0.9622  0.3222
  333MOL0     C44886   2.055   2.660   7.653 -0.0628  0.5051  0.2901
  333MOL0     C44887   1.933   2.641   7.560  0.3118 -0.1376  0.5735
  333MOL0     H44888   1.984   2.156   7.640  0.7091  0.2361  2.2305
  333MOL0     H44889   1.843   1.967   7.685 -3.4864 -1.3057  0.3421
  333MOL0     H44890   1.558   2.002   7.950 -2.3559  0.3925  0.7771
  333MOL0     H44891   1.419   1.996   7.856  1.0616  2.6776  3.9868
  333MOL0     H44892   1.431   1.748   7.845  0.6669 -3.9077 -0.2208
  333MOL0     H44893   1.446   1.802   8.013  2.0795 -0.7174 -0.3924
  333MOL0     H44894   1.648   1.672   7.855 -1.7419 -3.4605  1.6322
  333MOL0     H44895   1.613   1.647   8.025 -2.8207 -2.8891 -4.2087
  333MOL0     H44896   1.777   1.859   7.889  1.6102 -5.3061 -0.6579
  333MOL0     H44897   1.716   1.891   8.055  1.3902  1.3003 -1.0680
  333MOL0     H44898   1.826   1.664   8.112 -0.9856 -1.9470 -1.6822
  333MOL0     H44899   1.908   1.678   7.965 -1.2256 -0.6434  0.1041
  333MOL0     H44900   1.928   1.903   8.187  2.0121 -1.9505  3.1286
  333MOL0     H44901   2.034   1.769   8.170  3.4024  1.8138 -1.8149
  333MOL0     H44902   2.018   1.979   7.948  0.9851 -0.1808 -1.6362
  333MOL0     H44903   2.105   1.821   7.958  0.5329  0.4279  1.0172
  333MOL0     H44904   2.143   2.061   8.140  0.5105  1.2038 -2.0113
  333MOL0     H44905   2.197   1.895   8.182 -2.0752  0.9462  1.5412
  333MOL0     H44906   2.404   1.807   8.050 -2.3123  1.1958  2.3407
  333MOL0     H44907   2.657   1.855   7.912 -1.5234  2.1464  1.8258
  333MOL0     H44908   2.556   1.816   7.767 -2.5334  1.1443 -0.9118
  333MOL0     H44909   2.588   2.038   7.669 -1.6297  2.8357  2.3992
  333MOL0     H44910   2.681   2.082   7.821 -0.0898 -0.5901  2.1208
  333MOL0     H44911   2.816   1.856   7.694 -0.4126 -1.5623 -3.2218
  333MOL0     H44912   2.861   2.027   7.732 -0.0000 -0.7454  1.0956
  333MOL0     H44913   2.760   2.083   7.503  0.3300  0.0133  3.9436
  333MOL0     H44914   2.698   1.912   7.485  0.2539  0.9685 -3.9305
  333MOL0     H44915   3.026   2.135   7.441 -0.6001  0.4654  0.4506
  333MOL0     H44916   3.250   2.168   7.538 -2.2338  1.2682  1.8020
  333MOL0     H44917   3.683   2.083   7.493 -1.8766  2.1117 -0.0447
  333MOL0     H44918   3.926   2.069   7.603 -0.8778 -0.5555 -1.7720
  333MOL0     H44919   4.105   2.014   7.762  0.4740 -0.2452  0.4556
  333MOL0     H44920   4.081   2.193   7.725 -0.9598  1.5629  1.2545
  333MOL0     H44921   4.178   2.071   7.989 -2.1548  2.6083  1.8367
  333MOL0     H44922   4.294   2.128   7.863 -0.3144 -0.7338 -0.6097
  333MOL0     H44923   4.191   2.354   7.904  2.1476 -1.0415 -0.6306
  333MOL0     H44924   4.096   2.289   8.032  2.4174  0.1918  4.0704
  333MOL0     H44925   4.404   2.306   8.025  0.8865 -0.9997  1.0472
  333MOL0     H44926   4.312   2.196   8.133  1.9064  0.9625  1.5800
  333MOL0     H44927   4.185   2.387   8.209  0.0942 -4.9619  0.0756
  333MOL0     H44928   4.266   2.500   8.104 -0.2814 -0.6527 -0.6567
  333MOL0     H44929   4.349   2.481   8.348 -2.2825  2.7949 -2.0560
  333MOL0     H44930   4.408   2.328   8.308  1.5223  1.2426  0.6603
  333MOL0     H44931   4.562   2.386   8.130 -2.2027 -0.1342 -1.7693
  333MOL0     H44932   4.595   2.444   8.296 -2.6327 -0.9259  1.9797
  333MOL0     H44933   4.626   2.591   8.069 -1.9655  2.2658 -2.0923
  333MOL0     H44934   4.463   2.626   8.079  1.5864  2.1077 -2.0295
  333MOL0     H44935   3.761   2.160   7.974 -1.2369 -1.0820 -0.2055
  333MOL0     H44936   3.516   2.159   7.858  1.5688  1.9291  1.4381
  333MOL0     H44937   3.263   1.757   7.636 -1.0276 -1.0946 -3.6158
  333MOL0     H44938   3.025   1.736   7.575  0.3269 -0.5318 -1.1130
  333MOL0     H44939   1.514   2.211   7.818 -0.4163 -2.2934  1.8368
  333MOL0     H44940   1.673   2.405   7.803 -0.9077 -0.9655  2.3834
  333MOL0     H44941   2.291   2.497   7.843  0.3892 -1.2693 -1.5200
  333MOL0     H44942   2.408   2.693   7.790 -0.4286  0.0958  0.3195
  333MOL0     H44943   2.251   2.984   7.502  4.8952 -0.2790 -1.6668
  333MOL0     H44944   2.390   3.066   7.571 -0.1047 -1.2388 -4.4645
  333MOL0     H44945   2.121   3.084   7.687  1.1109 -0.7493  3.4290
  333MOL0     H44946   2.230   3.201   7.596  1.9380 -0.5725 -1.0153
  333MOL0     H44947   2.379   3.137   7.826 -0.3698  1.2903  2.7519
  333MOL0     H44948   2.220   3.103   7.892  0.7587  1.3706  1.8924
  333MOL0     H44949   2.159   3.345   7.804 -0.5967  0.5927  1.5621
  333MOL0     H44950   2.265   3.321   7.949  0.6865 -0.6886  0.7460
  333MOL0     H44951   2.523   3.493   7.658  0.9581 -1.7867 -1.2845
  333MOL0     H44952   2.079   2.853   7.578  2.1880 -0.3462 -0.3888
  333MOL0     H44953   1.946   2.541   7.518 -0.8955 -1.2750  2.7089
  333MOL0     H44954   1.841   2.639   7.620 -2.1830  0.0066 -2.9228
  333MOL0     H44955   1.925   2.719   7.484  0.4629  0.1389  0.8380
  334MOL0     O44956   8.088   1.728   8.018 -0.0133  0.0076  0.0539
  334MOL0     C44957   8.191   1.778   7.965  0.4930 -0.1227  0.0735
  334MOL0     O44958   8.187   1.877   7.867  0.1516  0.7108  0.4701
  334MOL0     C44959   8.069   1.895   7.795 -0.0496 -0.1831 -0.5517
  334MOL0     C44960   8.001   1.783   7.753 -0.5409  0.4940 -0.2383
  334MOL0     C44961   7.868   1.810   7.713 -0.7857  0.6299  0.3052
  334MOL0     C44962   7.814   1.934   7.694  0.3345 -1.1918  0.0737
  334MOL0     O44963   7.681   1.935   7.662 -0.3398 -0.1887 -0.4086
  334MOL0     C44964   7.609   2.055   7.700 -0.4559 -0.1653  0.1233
  334MOL0     C44965   7.453   2.033   7.680 -0.2066  0.0088  0.5888
  334MOL0     C44966   7.394   1.929   7.785  0.3788 -0.1486 -0.6733
  334MOL0     C44967   7.246   1.896   7.757 -0.3867  0.6193  0.6839
  334MOL0     C44968   7.210   1.782   7.853 -1.0149 -0.1480 -0.0608
  334MOL0     C44969   7.060   1.740   7.840 -0.1531 -0.5008 -0.2493
  334MOL0     C44970   7.028   1.628   7.938  1.0956 -0.6736 -0.4245
  334MOL0     C44971   6.883   1.582   7.916  0.3500  0.7222  0.5535
  334MOL0     N44972   6.792   1.683   7.975  0.8495 -0.7081 -0.4220
  334MOL0     C44973   6.765   1.715   8.105 -0.1052  1.4343 -0.1226
  334MOL0     C44974   6.685   1.823   8.110  0.1254 -0.3094 -0.3525
  334MOL0     C44975   6.631   1.890   8.240 -0.4290 -0.0682  1.2540
  334MOL0     C44976   6.615   1.788   8.360  0.3798 -0.3758  0.2565
  334MOL0     C44977   6.571   1.862   8.490 -0.5917  0.2789 -0.0063
  334MOL0     C44978   6.671   1.961   8.555  0.1304  0.3618 -0.0613
  334MOL0     O44979   6.787   1.879   8.592 -0.4906 -0.5100 -0.2269
  334MOL0     C44980   6.893   1.942   8.641  0.5857 -0.0314 -0.6243
  334MOL0     C44981   6.894   2.060   8.724 -0.3756  0.4504 -0.0351
  334MOL0     C44982   7.008   2.105   8.773 -0.4586  0.4564 -0.7594
  334MOL0     C44983   7.139   2.048   8.737 -0.0707  0.7544 -0.3398
  334MOL0     C44984   7.257   2.119   8.798 -0.3722 -0.6174 -0.8566
  334MOL0     O44985   7.238   2.153   8.929  0.7634 -0.0886  0.4090
  334MOL0     C44986   7.330   2.223   9.008  0.7325  1.2860  0.2860
  334MOL0     C44987   7.391   2.153   9.109 -1.0611 -0.1849 -0.8809
  334MOL0     C44988   7.487   2.213   9.188  0.0638  0.2178 -0.6062
  334MOL0     C44989   7.526   2.347   9.175  0.3758 -0.2909 -1.1509
  334MOL0     O44990   7.625   2.409   9.253 -0.6536 -0.9938  0.0639
  334MOL0     C44991   7.752   2.431   9.194 -1.1705  0.4030 -1.2450
  334MOL0     C44992   7.841   2.312   9.210 -0.8209 -0.5621 -1.1495
  334MOL0     C44993   7.860   2.264   9.351 -0.1994 -0.6606 -0.2863
  334MOL0     C44994   7.908   2.111   9.355  0.0316 -0.2735  0.1266
  334MOL0     C44995   8.045   2.068   9.290  0.4058  0.6846 -0.3320
  334MOL0     C44996   8.164   2.126   9.364  0.1995  0.0062  0.9216
  334MOL0     C44997   8.288   2.091   9.290 -0.9487  0.7929  1.0155
  334MOL0     C44998   8.304   2.175   9.156  0.2245  0.5816 -1.3887
  334MOL0    Cl44999   8.451   2.134   9.073  0.0175 -0.1960 -0.4218
  334MOL0     C45000   7.474   2.418   9.069  0.2810  0.3531  0.4015
  334MOL0     C45001   7.373   2.359   8.987  0.0722 -0.0231 -0.2873
  334MOL0     O45002   7.363   2.138   8.745  0.4099 -0.3127  0.6021
  334MOL0     C45003   7.147   1.947   8.643  0.6790 -0.6461 -0.3032
  334MOL0     C45004   7.020   1.893   8.605  1.1486  0.1663  0.5339
  334MOL0     N45005   6.652   1.856   7.981 -0.0402  0.1991  0.1066
  334MOL0     N45006   6.717   1.769   7.897  0.4038 -0.4007 -0.6056
  334MOL0     C45007   7.896   2.046   7.711 -0.4504  0.1332  0.5884
  334MOL0     C45008   8.020   2.018   7.763 -0.4767 -0.4977  1.6038
  334MOL0     C45009   8.319   1.749   8.028  0.2312 -0.4685 -1.0795
  334MOL0     C45010   8.378   1.846   8.112 -0.0273  1.0805  0.0017
  334MOL0     C45011   8.499   1.824   8.180  0.6839  0.0084 -0.9802
  334MOL0     C45012   8.564   1.704   8.158 -0.2451  0.4132 -0.6291
  334MOL0     O45013   8.690   1.680   8.212 -0.4550 -1.0269 -1.0784
  334MOL0     C45014   8.684   1.573   8.309  0.6413  0.6824  0.0051
  334MOL0     C45015   8.661   1.631   8.449 -1.0871 -0.3633 -0.5341
  334MOL0     C45016   8.753   1.745   8.480 -0.6186 -0.0233 -0.8167
  334MOL0     C45017   8.780   1.758   8.634 -0.4136  0.5683 -0.6906
  334MOL0     C45018   8.664   1.792   8.716 -0.3095  0.4937  1.0309
  334MOL0     C45019   8.592   1.847   8.793 -0.5230  0.0747  0.4852
  334MOL0     C45020   8.502   1.605   8.081 -0.2744  0.3127  0.5783
  334MOL0     C45021   8.383   1.631   8.013 -0.7044  0.3719  0.1723
  334MOL0     C45022   8.323   1.519   7.935 -0.1521 -0.0114 -0.0327
  334MOL0     H45023   8.033   1.683   7.781 -2.1592  0.4188  1.5642
  334MOL0     H45024   7.807   1.722   7.695  0.4425  0.2610 -2.5850
  334MOL0     H45025   7.637   2.073   7.804 -2.8604  0.4741  0.7155
  334MOL0     H45026   7.651   2.133   7.635  1.5101 -1.3137 -0.0689
  334MOL0     H45027   7.426   1.994   7.581 -0.9865 -0.3569  0.9387
  334MOL0     H45028   7.409   2.133   7.687  1.8120  1.1772 -1.7775
  334MOL0     H45029   7.400   1.966   7.888 -0.8390  0.3479 -0.7579
  334MOL0     H45030   7.461   1.844   7.772  2.5444  1.2879  0.5713
  334MOL0     H45031   7.182   1.982   7.780 -0.1684  0.4792  1.8349
  334MOL0     H45032   7.239   1.861   7.653  1.5314 -2.3722  1.4427
  334MOL0     H45033   7.267   1.692   7.830 -1.7524 -1.0499  1.4816
  334MOL0     H45034   7.224   1.817   7.956 -2.8937 -2.7188  1.1590
  334MOL0     H45035   6.988   1.820   7.861  0.0478 -0.6328  1.0395
  334MOL0     H45036   7.047   1.694   7.742 -1.3429  0.4899 -0.5903
  334MOL0     H45037   7.041   1.670   8.039  1.3206  1.6075 -1.3298
  334MOL0     H45038   7.100   1.547   7.930 -0.3986 -2.3787  1.9074
  334MOL0     H45039   6.876   1.579   7.807  0.9710 -1.0906  0.5294
  334MOL0     H45040   6.868   1.489   7.971  2.0271  1.5649  2.5639
  334MOL0     H45041   6.790   1.647   8.185 -0.7840 -0.3624 -1.3561
  334MOL0     H45042   6.702   1.968   8.270  0.1215  0.1639 -0.5144
  334MOL0     H45043   6.543   1.940   8.200  1.4924  1.7312 -1.0937
  334MOL0     H45044   6.545   1.708   8.335  0.5624 -0.0306 -1.5103
  334MOL0     H45045   6.715   1.754   8.389  0.5224  0.1711  0.4256
  334MOL0     H45046   6.554   1.786   8.567  0.5499  0.1131  0.1142
  334MOL0     H45047   6.475   1.911   8.472 -0.7996 -0.4576 -0.9622
  334MOL0     H45048   6.616   2.003   8.641 -1.3555 -2.3245  0.4081
  334MOL0     H45049   6.699   2.043   8.488  1.5176  0.9563  1.1863
  334MOL0     H45050   6.797   2.099   8.754 -0.5946  0.9180 -1.2918
  334MOL0     H45051   6.998   2.198   8.828  1.8974  0.4393 -0.1921
  334MOL0     H45052   7.370   2.048   9.127 -3.1535 -0.4363 -4.0616
  334MOL0     H45053   7.537   2.178   9.278 -1.2213  2.3132  1.0320
  334MOL0     H45054   7.748   2.459   9.088 -0.6859 -2.8304 -2.2308
  334MOL0     H45055   7.802   2.512   9.248 -1.4991  1.8646 -3.0275
  334MOL0     H45056   7.795   2.225   9.162 -1.7960 -0.9199  0.3699
  334MOL0     H45057   7.938   2.337   9.168 -1.2315 -0.6669 -2.1784
  334MOL0     H45058   7.929   2.322   9.413  1.1404 -1.6602 -0.7915
  334MOL0     H45059   7.761   2.266   9.398 -0.7311  3.8244 -1.1557
  334MOL0     H45060   7.830   2.045   9.316  1.8641 -1.8206 -1.1643
  334MOL0     H45061   7.920   2.097   9.463 -1.9333  3.7772  1.0554
  334MOL0     H45062   8.052   2.109   9.189 -2.9493 -5.9250 -3.8845
  334MOL0     H45063   8.053   1.960   9.281 -0.9566  0.3665  1.5810
  334MOL0     H45064   8.165   2.235   9.362  0.3993  0.0036  0.2855
  334MOL0     H45065   8.163   2.084   9.465 -1.0963  0.7379  1.2240
  334MOL0     H45066   8.291   1.988   9.252  0.7153  1.4051 -0.7052
  334MOL0     H45067   8.373   2.104   9.358 -0.2223 -1.9002  0.7620
  334MOL0     H45068   8.222   2.153   9.086  1.0693  0.7535 -2.4479
  334MOL0     H45069   8.306   2.282   9.174  1.9478 -0.0534  3.5569
  334MOL0     H45070   7.501   2.523   9.065 -0.7217  0.5779 -1.2259
  334MOL0     H45071   7.324   2.418   8.910  1.3242 -1.3742 -2.2075
  334MOL0     H45072   7.245   1.904   8.625  0.5252 -1.9805  1.6720
  334MOL0     H45073   7.026   1.811   8.534  2.1376  0.9327 -0.2968
  334MOL0     H45074   7.869   2.149   7.691 -0.2927  0.4506  1.9021
  334MOL0     H45075   8.092   2.097   7.782  0.6205 -0.3208 -2.3071
  334MOL0     H45076   8.330   1.943   8.125 -0.5833  0.7081  0.7691
  334MOL0     H45077   8.551   1.894   8.245 -1.2181  0.3399  0.2916
  334MOL0     H45078   8.781   1.523   8.319  0.4839  0.6657  1.8289
  334MOL0     H45079   8.609   1.496   8.289  2.6857 -1.1544 -1.0152
  334MOL0     H45080   8.669   1.545   8.517 -1.5059 -0.1939 -0.2711
  334MOL0     H45081   8.559   1.669   8.448 -0.7176  0.6474 -0.4670
  334MOL0     H45082   8.707   1.837   8.444  1.0490  0.9737 -0.5218
  334MOL0     H45083   8.852   1.738   8.433  1.8422  2.8527  3.2367
  334MOL0     H45084   8.818   1.664   8.676 -1.3394  0.1145 -0.8380
  334MOL0     H45085   8.856   1.836   8.647  0.7143 -0.2556 -2.0649
  334MOL0     H45086   8.527   1.879   8.872 -2.4758  0.0233 -1.0036
  334MOL0     H45087   8.560   1.515   8.062  0.0168  0.5062  0.5489
  334MOL0     H45088   8.374   1.489   7.843  0.3358 -0.6810  0.4521
  334MOL0     H45089   8.311   1.432   8.001 -2.8122  1.1150  1.0881
  334MOL0     H45090   8.226   1.541   7.889 -0.0574  2.9788  1.0113
  335MOL0     O45091   0.049   6.299   8.030  0.1963 -0.2216  0.2597
  335MOL0     C45092   0.128   6.217   8.003  0.5297  1.2306  0.7188
  335MOL0     O45093   0.140   6.154   7.878  0.0787  0.2094  0.6606
  335MOL0     C45094   0.081   6.221   7.767 -0.1136 -0.5442  0.4207
  335MOL0     C45095   0.120   6.347   7.724  0.3229 -0.2511  0.3853
  335MOL0     C45096   0.071   6.401   7.605  1.1311  0.2318  0.6993
  335MOL0     C45097  -0.024   6.335   7.524 -0.2615 -0.8451 -1.4710
  335MOL0     O45098  -0.078   6.395   7.413  0.0200  0.1634  0.4147
  335MOL0     C45099  -0.096   6.314   7.292  0.3833  0.8717 -0.9644
  335MOL0     C45100  -0.057   6.389   7.172  0.3658  0.0267  0.1660
  335MOL0     C45101  -0.059   6.318   7.039 -0.1675  0.4213 -0.2604
  335MOL0     C45102  -0.023   6.410   6.920  0.2806  0.7691 -0.3191
  335MOL0     C45103  -0.047   6.331   6.788  0.3810  0.7669  0.9397
  335MOL0     C45104  -0.050   6.424   6.668 -0.0222  0.1503  0.5094
  335MOL0     C45105   0.086   6.453   6.616 -0.3176  0.2949 -0.0814
  335MOL0     C45106   0.094   6.584   6.533 -0.1041 -0.9127  0.3279
  335MOL0     N45107  -0.001   6.599   6.420  0.1556  0.3736  0.4441
  335MOL0     C45108   0.022   6.556   6.288 -0.2876 -0.0919 -0.6265
  335MOL0     C45109  -0.088   6.592   6.223 -0.2370 -0.6733  1.0938
  335MOL0     C45110  -0.116   6.582   6.077 -0.5316  0.3283  0.9120
  335MOL0     C45111  -0.268   6.590   6.034 -0.1147 -0.1057 -0.3596
  335MOL0     C45112  -0.292   6.548   5.885  1.0061  0.6206  0.2545
  335MOL0     C45113  -0.435   6.583   5.841 -0.2301 -0.0812  0.1026
  335MOL0     O45114  -0.444   6.580   5.695  0.2903 -0.6251  0.0748
  335MOL0     C45115  -0.425   6.703   5.632  0.4428  0.0466  0.5405
  335MOL0     C45116  -0.538   6.787   5.642 -0.3192 -0.1486  0.0481
  335MOL0     C45117  -0.533   6.913   5.592 -0.4635 -1.5747  1.6412
  335MOL0     C45118  -0.409   6.966   5.544 -0.3507  0.6695  0.6390
  335MOL0     C45119  -0.400   7.102   5.487  0.2945 -0.0000  0.7905
  335MOL0     O45120  -0.506   7.186   5.520 -0.6793  0.9627 -0.3094
  335MOL0     C45121  -0.486   7.318   5.510 -0.0699  0.3506 -0.7080
  335MOL0     C45122  -0.507   7.387   5.394  0.5496 -0.1961 -1.2370
  335MOL0     C45123  -0.495   7.521   5.378 -0.9248 -1.2955  0.2495
  335MOL0     C45124  -0.452   7.602   5.492  0.7957 -0.6757 -0.0420
  335MOL0     O45125  -0.424   7.736   5.471  0.5058 -0.3399  0.8826
  335MOL0     C45126  -0.380   7.831   5.575 -0.3154  0.1513 -0.0320
  335MOL0     C45127  -0.360   7.960   5.510 -0.6156  0.0491 -0.1735
  335MOL0     C45128  -0.263   7.960   5.387 -0.1752  0.0201  0.2838
  335MOL0     C45129  -0.122   7.933   5.437  0.3659 -0.6893  0.3453
  335MOL0     C45130   0.003   7.914   5.340  0.7503  0.6065 -0.4059
  335MOL0     C45131   0.139   7.898   5.416 -0.1719 -0.3221 -0.6890
  335MOL0     C45132   0.142   7.762   5.488 -0.2319  0.2327 -0.6818
  335MOL0     C45133   0.229   7.785   5.618 -0.3843  0.7727  0.0966
  335MOL0    Cl45134   0.230   7.648   5.731 -0.4682 -0.0960  0.2305
  335MOL0     C45135  -0.441   7.538   5.619  0.8017  0.6726 -0.4637
  335MOL0     C45136  -0.461   7.400   5.624  0.3895  0.0327 -0.5258
  335MOL0     O45137  -0.300   7.136   5.419  0.0043  0.3871  0.2104
  335MOL0     C45138  -0.300   6.881   5.529 -0.4062  0.8731  0.4703
  335MOL0     C45139  -0.302   6.746   5.578  0.8337 -0.3907  0.8157
  335MOL0     N45140  -0.175   6.639   6.308  0.2617  0.0196  0.0828
  335MOL0     N45141  -0.115   6.656   6.423  1.2060 -0.2427  0.3760
  335MOL0     C45142  -0.075   6.218   7.574 -0.5969  0.4628  0.8343
  335MOL0     C45143  -0.027   6.166   7.695  0.2833 -0.1761  0.2433
  335MOL0     C45144   0.237   6.190   8.105  0.6847 -0.1627  0.4663
  335MOL0     C45145   0.283   6.298   8.180  0.1934 -0.4640  0.0839
  335MOL0     C45146   0.376   6.274   8.272  0.1786  0.1979  0.0027
  335MOL0     C45147   0.414   6.147   8.312  0.5198  0.2511 -0.4505
  335MOL0     O45148   0.490   6.117   8.425  0.4922  0.1541 -0.1617
  335MOL0     C45149   0.560   6.213   8.502  0.1798 -0.1575 -0.5193
  335MOL0     C45150   0.465   6.276   8.611 -0.4062 -0.1036  0.0075
  335MOL0     C45151   0.430   6.156   8.702 -0.3541  0.2608 -0.2982
  335MOL0     C45152   0.403   6.205   8.843 -0.2045 -0.1191  0.5912
  335MOL0     C45153   0.523   6.242   8.917  0.4236  0.4490 -0.6881
  335MOL0     C45154   0.601   6.292   8.992  0.0810  0.2080 -0.0972
  335MOL0     C45155   0.361   6.042   8.244 -0.5830 -0.0612 -0.5351
  335MOL0     C45156   0.284   6.059   8.130 -0.0547 -0.5650  0.0052
  335MOL0     C45157   0.234   5.945   8.055  0.2630 -0.4575  0.4017
  335MOL0     H45158   0.202   6.398   7.773  0.1669 -3.0735  4.0052
  335MOL0     H45159   0.105   6.491   7.556 -1.6162 -0.4870 -3.0471
  335MOL0     H45160  -0.029   6.227   7.294 -0.0275  0.5454 -1.1475
  335MOL0     H45161  -0.201   6.283   7.297  0.9663 -1.0473  1.2862
  335MOL0     H45162   0.038   6.442   7.180 -1.2409  3.0812  0.6948
  335MOL0     H45163  -0.134   6.466   7.165 -0.1931 -0.5026  0.4045
  335MOL0     H45164  -0.164   6.289   7.029  0.4746 -2.0732 -0.3696
  335MOL0     H45165   0.002   6.228   7.045 -2.3734 -1.2887 -1.6944
  335MOL0     H45166  -0.086   6.499   6.928 -1.7788 -0.5586 -0.7147
  335MOL0     H45167   0.082   6.435   6.929  1.7240 -2.9864 -3.5726
  335MOL0     H45168   0.018   6.244   6.780 -1.6223 -0.8481  1.4417
  335MOL0     H45169  -0.149   6.292   6.790  1.5110 -2.6669 -1.1522
  335MOL0     H45170  -0.111   6.381   6.588  0.5335 -3.9385  2.0325
  335MOL0     H45171  -0.097   6.510   6.716 -1.4886 -2.0545  3.2787
  335MOL0     H45172   0.116   6.374   6.545  0.2661  0.5205 -0.0920
  335MOL0     H45173   0.162   6.447   6.694 -1.3420  2.2561  1.1344
  335MOL0     H45174   0.088   6.662   6.610  0.9618 -2.1392  1.7249
  335MOL0     H45175   0.193   6.598   6.489 -0.4847  1.6184  0.1555
  335MOL0     H45176   0.116   6.522   6.245  0.7941  1.4491  0.4063
  335MOL0     H45177  -0.054   6.650   6.018 -0.5713 -1.2545 -1.0812
  335MOL0     H45178  -0.077   6.485   6.044 -0.9470  0.5653 -0.3323
  335MOL0     H45179  -0.322   6.517   6.095  1.9477 -0.7045  0.8516
  335MOL0     H45180  -0.296   6.694   6.055  3.5502  1.2842 -1.5826
  335MOL0     H45181  -0.252   6.448   5.868 -3.3002 -1.0977 -1.3027
  335MOL0     H45182  -0.220   6.621   5.847  3.9206 -1.2398  1.8383
  335MOL0     H45183  -0.458   6.683   5.879 -0.9774 -1.1950  2.7831
  335MOL0     H45184  -0.511   6.515   5.879 -0.1323 -1.0150 -1.3015
  335MOL0     H45185  -0.631   6.750   5.685  0.1622 -0.8373  0.5071
  335MOL0     H45186  -0.629   6.962   5.573 -1.8556 -5.2015 -2.2176
  335MOL0     H45187  -0.529   7.326   5.307  0.9840 -0.8867 -0.8721
  335MOL0     H45188  -0.504   7.578   5.286 -2.4113  0.1198  1.2227
  335MOL0     H45189  -0.450   7.841   5.658 -0.6075  0.2557 -0.2874
  335MOL0     H45190  -0.283   7.798   5.614 -1.5205 -1.2645  1.9077
  335MOL0     H45191  -0.458   7.992   5.473 -0.2958 -1.5561 -2.6800
  335MOL0     H45192  -0.319   8.031   5.583 -3.6176  2.0137 -0.2462
  335MOL0     H45193  -0.283   7.881   5.313 -1.1340 -0.7090  1.2779
  335MOL0     H45194  -0.270   8.050   5.326 -0.6670 -0.9720 -1.1850
  335MOL0     H45195  -0.124   7.846   5.503 -2.8396 -0.3229  0.8859
  335MOL0     H45196  -0.079   8.012   5.500  0.1758 -2.5951  3.0188
  335MOL0     H45197   0.018   7.996   5.269  1.6232 -0.6127 -1.6735
  335MOL0     H45198  -0.029   7.825   5.286 -3.3518  1.3004  0.5096
  335MOL0     H45199   0.219   7.910   5.342 -0.3872 -3.0245 -1.4641
  335MOL0     H45200   0.147   7.986   5.480  1.4586 -0.8957 -0.0504
  335MOL0     H45201   0.196   7.687   5.428  1.2804 -0.2835  1.2076
  335MOL0     H45202   0.043   7.726   5.516 -0.2285  1.6756  1.4193
  335MOL0     H45203   0.331   7.810   5.587  0.9602 -0.5521  3.0196
  335MOL0     H45204   0.185   7.867   5.676  0.6582  0.3391  1.5526
  335MOL0     H45205  -0.431   7.602   5.705 -2.1772  1.2557 -0.4449
  335MOL0     H45206  -0.472   7.348   5.719  1.3482 -0.0761 -0.4686
  335MOL0     H45207  -0.206   6.912   5.485 -1.9727  4.0522 -0.9714
  335MOL0     H45208  -0.215   6.681   5.574  1.2944  0.1930  1.2141
  335MOL0     H45209  -0.152   6.168   7.516  0.7125  2.1914 -2.6497
  335MOL0     H45210  -0.082   6.079   7.731  1.3049 -0.3223  1.5075
  335MOL0     H45211   0.256   6.403   8.172  0.0380 -0.4728  0.4345
  335MOL0     H45212   0.406   6.358   8.334 -0.4363 -0.1794  0.8320
  335MOL0     H45213   0.599   6.286   8.430  0.9410 -1.1660 -1.1441
  335MOL0     H45214   0.645   6.162   8.547  0.6864  0.8386 -0.3093
  335MOL0     H45215   0.373   6.323   8.575  1.6813  4.1989 -0.3065
  335MOL0     H45216   0.530   6.349   8.661 -0.9785 -0.7172  1.7583
  335MOL0     H45217   0.505   6.077   8.698 -0.5785  0.0853 -1.7175
  335MOL0     H45218   0.344   6.104   8.659 -2.3284  2.4688  0.7635
  335MOL0     H45219   0.332   6.289   8.844  0.0428  0.1387 -0.9895
  335MOL0     H45220   0.350   6.125   8.895 -1.7018  0.7003  0.3783
  335MOL0     H45221   0.673   6.327   9.064  1.1943 -4.5940  1.5163
  335MOL0     H45222   0.402   5.952   8.290 -2.1029  0.1252  1.3203
  335MOL0     H45223   0.262   5.955   7.950  1.2353  3.2141  0.8931
  335MOL0     H45224   0.279   5.853   8.094 -2.9573 -2.6111 -0.6073
  335MOL0     H45225   0.126   5.941   8.043  0.4512 -1.5715 -1.3208
  336MOL0     O45226   7.274   3.675  11.001  0.0780 -0.4716 -0.3064
  336MOL0     C45227   7.362   3.694  11.085  0.3498 -0.1408  0.4168
  336MOL0     O45228   7.479   3.758  11.073  0.3263  0.0043 -0.4115
  336MOL0     C45229   7.505   3.803  10.948  0.5165 -0.2657 -0.6852
  336MOL0     C45230   7.571   3.926  10.957  0.1443  0.8407  0.1320
  336MOL0     C45231   7.625   3.974  10.844 -0.0093 -0.4376  0.3798
  336MOL0     C45232   7.610   3.914  10.719  0.0010  0.6478  0.6210
  336MOL0     O45233   7.646   3.971  10.602 -0.3669  0.1809  0.6077
  336MOL0     C45234   7.737   4.084  10.605 -0.1418 -0.9903 -0.6994
  336MOL0     C45235   7.858   4.054  10.528 -0.5776  0.8787  0.6036
  336MOL0     C45236   7.975   4.156  10.535  0.6108  0.7103  0.3115
  336MOL0     C45237   8.063   4.152  10.416  1.2286  0.3339  0.2850
  336MOL0     C45238   8.191   4.247  10.439  0.1733  0.6596  0.9190
  336MOL0     C45239   8.310   4.180  10.506 -0.8484  0.5279 -0.2966
  336MOL0     C45240   8.415   4.286  10.553 -0.6085  0.1379  0.4469
  336MOL0     C45241   8.554   4.228  10.594 -0.3548 -0.3253  0.9045
  336MOL0     N45242   8.572   4.190  10.732 -1.1977  0.6983  0.4478
  336MOL0     C45243   8.501   4.092  10.785  0.2106  0.1700  0.2273
  336MOL0     C45244   8.559   4.066  10.906 -1.1039 -0.2140  0.2546
  336MOL0     C45245   8.489   3.967  11.000  0.3135  0.0457 -1.0343
  336MOL0     C45246   8.391   4.038  11.089  0.4942  0.7841 -0.3200
  336MOL0     C45247   8.325   3.931  11.176  0.1954  0.1689  0.1550
  336MOL0     C45248   8.222   3.991  11.274  0.4404  0.6925  0.1765
  336MOL0     O45249   8.289   4.049  11.389  0.0831  0.2430  0.1997
  336MOL0     C45250   8.205   4.112  11.471  0.5698 -0.5325 -0.1276
  336MOL0     C45251   8.274   4.194  11.569  0.0968 -0.1430  0.6498
  336MOL0     C45252   8.209   4.246  11.680  0.8988 -0.1367  0.4522
  336MOL0     C45253   8.066   4.245  11.673  0.6033  0.0357  0.0616
  336MOL0     C45254   7.989   4.319  11.780 -0.5050  0.3968  1.0498
  336MOL0     O45255   7.864   4.367  11.739 -0.3385 -1.2472 -0.7775
  336MOL0     C45256   7.793   4.439  11.825  1.6363  0.5069 -0.7658
  336MOL0     C45257   7.826   4.568  11.882 -0.7272  0.6399 -0.2646
  336MOL0     C45258   7.741   4.638  11.965  0.2469 -0.2794 -0.3495
  336MOL0     C45259   7.616   4.583  11.996 -0.3837 -0.6355 -0.5424
  336MOL0     O45260   7.514   4.642  12.071 -0.1857  0.4232  0.0830
  336MOL0     C45261   7.534   4.766  12.132  0.2759 -0.2406  0.2565
  336MOL0     C45262   7.499   4.767  12.282  0.2013  0.0826 -0.0347
  336MOL0     C45263   7.349   4.792  12.303  0.2848 -0.1520  0.1528
  336MOL0     C45264   7.300   4.765  12.442 -0.0675 -0.1959 -0.3687
  336MOL0     C45265   7.151   4.783  12.462 -1.1217  0.0472 -0.1942
  336MOL0     C45266   7.075   4.854  12.357 -0.4074 -0.8507 -0.2962
  336MOL0     C45267   6.933   4.854  12.405 -0.4751  0.6052 -0.8595
  336MOL0     C45268   6.837   4.920  12.302 -0.5052 -0.1256  0.0526
  336MOL0    Cl45269   6.806   4.830  12.151 -0.0872  0.1533  0.0533
  336MOL0     C45270   7.585   4.458  11.942 -0.4382 -0.2302  0.4793
  336MOL0     C45271   7.670   4.385  11.856  0.1437  0.0402 -0.4253
  336MOL0     O45272   8.045   4.343  11.893  0.2355 -0.0322  0.6561
  336MOL0     C45273   7.998   4.177  11.575 -0.1964 -0.7322  0.4161
  336MOL0     C45274   8.064   4.114  11.472 -0.0142 -0.0309 -0.0212
  336MOL0     N45275   8.672   4.158  10.924 -0.0099  0.0613  0.1656
  336MOL0     N45276   8.679   4.225  10.808  0.5497  0.2317 -0.2063
  336MOL0     C45277   7.548   3.795  10.713 -0.6282 -0.0999  0.7385
  336MOL0     C45278   7.497   3.733  10.829  0.2366  0.4538 -0.1906
  336MOL0     C45279   7.345   3.633  11.227  0.4952 -0.2321 -0.5645
  336MOL0     C45280   7.371   3.714  11.340 -0.8029  0.4546 -0.2875
  336MOL0     C45281   7.367   3.655  11.465 -0.2896  0.0594  0.0504
  336MOL0     C45282   7.346   3.524  11.481 -0.2329 -0.8876 -0.0944
  336MOL0     O45283   7.336   3.466  11.600  0.8064  0.0133 -0.1152
  336MOL0     C45284   7.401   3.515  11.720  0.7359 -0.5708  1.2073
  336MOL0     C45285   7.423   3.417  11.838  0.5914 -0.1524 -0.1727
  336MOL0     C45286   7.484   3.286  11.787  0.5460  0.2605  0.0726
  336MOL0     C45287   7.496   3.173  11.895 -0.7805 -0.2617 -0.1101
  336MOL0     C45288   7.375   3.157  11.982 -0.5746 -0.7345  0.3672
  336MOL0     C45289   7.279   3.147  12.050 -0.6297 -0.3397  0.0924
  336MOL0     C45290   7.316   3.444  11.369  0.2433 -0.0540 -1.4839
  336MOL0     C45291   7.313   3.495  11.243 -1.1339  0.2704 -0.3464
  336MOL0     C45292   7.301   3.393  11.129 -0.8778  0.0329  0.4856
  336MOL0     H45293   7.588   3.965  11.057  0.8772 -1.0410  0.7726
  336MOL0     H45294   7.663   4.074  10.864  2.7099 -0.9965 -1.5400
  336MOL0     H45295   7.689   4.167  10.553 -1.1804 -1.5665 -0.6866
  336MOL0     H45296   7.757   4.124  10.705 -0.5455 -0.2817 -0.8972
  336MOL0     H45297   7.826   4.033  10.426  1.9261 -2.2318  0.3092
  336MOL0     H45298   7.888   3.955  10.561 -4.0788 -1.1036 -1.5682
  336MOL0     H45299   8.022   4.148  10.633 -0.1398  1.4248  0.7496
  336MOL0     H45300   7.929   4.255  10.535  1.5310  1.1667 -1.2432
  336MOL0     H45301   8.083   4.047  10.394 -0.8559  0.0440 -0.5036
  336MOL0     H45302   8.010   4.189  10.327 -0.7462 -0.3916  1.0891
  336MOL0     H45303   8.207   4.288  10.338  0.4855  1.2719  1.2122
  336MOL0     H45304   8.167   4.340  10.492  0.2707  1.0121  0.3548
  336MOL0     H45305   8.278   4.138  10.602 -0.1777 -0.7248 -0.5973
  336MOL0     H45306   8.355   4.103  10.442  0.0638  0.7163  0.1006
  336MOL0     H45307   8.374   4.341  10.638 -1.4009  2.0778 -1.0946
  336MOL0     H45308   8.440   4.351  10.468 -0.9788 -0.7343 -0.3495
  336MOL0     H45309   8.575   4.137  10.537  4.2989  0.6624  0.6137
  336MOL0     H45310   8.624   4.307  10.566 -1.0340  0.3088  0.9639
  336MOL0     H45311   8.416   4.040  10.742 -0.8141  2.4937 -0.7194
  336MOL0     H45312   8.441   3.897  10.930 -0.7775  1.0626 -1.3402
  336MOL0     H45313   8.557   3.908  11.062  0.5542  2.4751  1.1875
  336MOL0     H45314   8.442   4.104  11.160  0.2006 -1.0287  1.6721
  336MOL0     H45315   8.316   4.098  11.036 -0.3060 -0.5449 -0.7458
  336MOL0     H45316   8.403   3.883  11.235  0.8607  3.5001  2.2706
  336MOL0     H45317   8.279   3.851  11.117  2.6492 -0.7263 -0.6397
  336MOL0     H45318   8.156   3.908  11.299  1.4165  0.3205  1.5816
  336MOL0     H45319   8.149   4.055  11.222  0.7150 -0.7494 -2.1537
  336MOL0     H45320   8.382   4.201  11.564  0.0148  1.8882  0.8592
  336MOL0     H45321   8.259   4.306  11.755 -0.5426  0.5772  0.8758
  336MOL0     H45322   7.919   4.615  11.854  0.4794 -1.2322  0.3648
  336MOL0     H45323   7.785   4.727  12.010 -0.8100 -0.0743  0.3141
  336MOL0     H45324   7.641   4.786  12.128  0.4412 -0.9977  0.6912
  336MOL0     H45325   7.470   4.843  12.089 -0.2314 -0.0794  1.2511
  336MOL0     H45326   7.523   4.670  12.328 -0.1078 -1.0659 -2.1609
  336MOL0     H45327   7.567   4.841  12.325  2.2280 -0.5203 -1.9916
  336MOL0     H45328   7.345   4.901  12.290  0.5807 -0.2577 -1.0079
  336MOL0     H45329   7.296   4.727  12.233  0.8998 -1.0147  0.4783
  336MOL0     H45330   7.357   4.829  12.510 -3.4626  0.3880  2.2085
  336MOL0     H45331   7.321   4.659  12.460 -0.2031 -0.1289  0.1972
  336MOL0     H45332   7.130   4.820  12.563 -2.2285  0.1007 -0.4326
  336MOL0     H45333   7.107   4.683  12.468  0.7423 -0.7910  0.4074
  336MOL0     H45334   7.108   4.959  12.348 -1.7043 -0.5062 -1.1569
  336MOL0     H45335   7.092   4.810  12.259  2.5030 -2.4367  0.7720
  336MOL0     H45336   6.930   4.914  12.496 -1.0306  0.7837 -0.9924
  336MOL0     H45337   6.899   4.753  12.432  1.5007  0.6661  2.3072
  336MOL0     H45338   6.742   4.942  12.352 -0.7948 -0.3683 -0.3815
  336MOL0     H45339   6.881   5.013  12.267  0.8620 -1.1611 -1.1436
  336MOL0     H45340   7.495   4.403  11.967 -1.4556  0.9483 -0.4269
  336MOL0     H45341   7.625   4.293  11.821  0.7016 -0.1508 -0.6487
  336MOL0     H45342   7.890   4.173  11.580 -0.3694 -0.9015 -2.1458
  336MOL0     H45343   8.011   4.060  11.394 -2.3923  0.4120  1.1956
  336MOL0     H45344   7.536   3.741  10.619 -0.6340 -0.1351  0.7597
  336MOL0     H45345   7.449   3.636  10.820 -0.5829  0.7608  0.7019
  336MOL0     H45346   7.409   3.816  11.337 -2.4810  1.0871 -2.9650
  336MOL0     H45347   7.393   3.719  11.549 -0.9762 -1.3612  1.4015
  336MOL0     H45348   7.345   3.601  11.758  2.0186  0.0831  1.6617
  336MOL0     H45349   7.501   3.551  11.696  0.1352  0.5477  0.2327
  336MOL0     H45350   7.325   3.389  11.877  1.0164 -3.2488 -1.0291
  336MOL0     H45351   7.492   3.471  11.903  1.7374 -1.7821  0.0115
  336MOL0     H45352   7.584   3.307  11.747  0.5781  3.7101  1.5886
  336MOL0     H45353   7.415   3.243  11.714 -1.8585  3.2069  0.3913
  336MOL0     H45354   7.505   3.081  11.836  0.4895 -0.1524 -0.1182
  336MOL0     H45355   7.584   3.188  11.957  0.4708  0.8654 -2.0467
  336MOL0     H45356   7.193   3.166  12.111 -0.0037 -1.4608  1.3675
  336MOL0     H45357   7.295   3.342  11.398  0.3177  0.8726  2.3407
  336MOL0     H45358   7.297   3.291  11.167 -0.6313  0.0250  0.4907
  336MOL0     H45359   7.200   3.415  11.092 -0.3652  4.9825  1.2922
  336MOL0     H45360   7.384   3.410  11.060 -0.7481 -0.4002  0.5350
  337MOL0     O45361   6.110   0.620   2.517 -0.6122 -0.0483  0.3463
  337MOL0     C45362   6.116   0.515   2.585  0.0976 -0.1928  0.1674
  337MOL0     O45363   6.214   0.423   2.568  0.3463 -0.4528  0.5674
  337MOL0     C45364   6.322   0.442   2.481  0.1459 -0.2330  0.0182
  337MOL0     C45365   6.388   0.558   2.435 -0.5031 -0.3424 -0.7199
  337MOL0     C45366   6.495   0.550   2.342 -0.2471  0.7817  0.1407
  337MOL0     C45367   6.554   0.427   2.312 -0.0805 -0.1653 -0.6189
  337MOL0     O45368   6.667   0.401   2.245 -0.3307  0.5390  0.6397
  337MOL0     C45369   6.707   0.503   2.158  0.0987 -0.5524  0.2651
  337MOL0     C45370   6.839   0.478   2.084 -0.2027  0.6801  0.4681
  337MOL0     C45371   6.825   0.389   1.961 -0.3783  0.0407  0.5288
  337MOL0     C45372   6.965   0.361   1.897  1.2051 -0.1817 -0.9692
  337MOL0     C45373   7.027   0.488   1.822  0.1645  0.5354  0.6977
  337MOL0     C45374   7.156   0.445   1.745  0.2925  0.2643  0.0447
  337MOL0     C45375   7.170   0.303   1.683 -0.6167  0.1644  0.7045
  337MOL0     C45376   7.079   0.288   1.568  0.0043 -0.6442  0.5631
  337MOL0     N45377   7.116   0.178   1.479  0.3844 -0.0484 -0.3409
  337MOL0     C45378   7.146   0.051   1.523  0.2149 -0.4824 -0.7472
  337MOL0     C45379   7.202  -0.008   1.416  0.1943 -0.2835  0.5140
  337MOL0     C45380   7.267  -0.145   1.407  0.3238  0.5336  0.1021
  337MOL0     C45381   7.252  -0.233   1.537 -0.2679  0.3009 -0.5046
  337MOL0     C45382   7.116  -0.273   1.577  1.4653  1.3482  0.0629
  337MOL0     C45383   7.116  -0.390   1.673 -0.0064 -0.0628  0.0876
  337MOL0     O45384   7.078  -0.503   1.602 -0.1433  0.5480  0.4773
  337MOL0     C45385   7.077  -0.627   1.664  1.0218 -0.3398  0.1329
  337MOL0     C45386   7.071  -0.747   1.583  0.0733 -0.0285 -1.0959
  337MOL0     C45387   7.045  -0.872   1.654  1.0959  0.0638  0.4747
  337MOL0     C45388   7.031  -0.882   1.798  0.1145 -0.2323  1.3445
  337MOL0     C45389   7.007  -1.013   1.873 -0.2384 -1.0499 -0.6857
  337MOL0     O45390   7.044  -1.133   1.815  0.5119  0.3075  0.3195
  337MOL0     C45391   7.029  -1.254   1.885 -0.3631  0.1373  0.0838
  337MOL0     C45392   6.920  -1.290   1.957 -0.7861  0.2449 -0.2825
  337MOL0     C45393   6.926  -1.412   2.005  0.1425 -0.2582 -1.2442
  337MOL0     C45394   7.027  -1.516   1.989  0.0008  0.2714  0.1874
  337MOL0     O45395   7.025  -1.637   2.060  0.7768 -0.3220 -0.0655
  337MOL0     C45396   6.961  -1.641   2.192 -0.1558  0.1750 -0.8084
  337MOL0     C45397   6.981  -1.777   2.252  0.7721  0.1046  0.7411
  337MOL0     C45398   6.956  -1.765   2.399  0.3601  0.1554  1.1700
  337MOL0     C45399   6.957  -1.908   2.456 -0.0006 -1.5560  0.3044
  337MOL0     C45400   6.901  -1.921   2.597 -0.0109 -0.3930 -0.0517
  337MOL0     C45401   7.008  -1.917   2.718 -0.4827  0.9342  1.3015
  337MOL0     C45402   6.943  -1.956   2.846  0.0186  0.1452  0.0425
  337MOL0     C45403   6.852  -1.856   2.918 -0.7272 -0.3115  0.2381
  337MOL0    Cl45404   6.944  -1.696   2.957  0.3160 -0.0563 -0.0974
  337MOL0     C45405   7.134  -1.477   1.913 -1.2098 -0.4276 -0.5399
  337MOL0     C45406   7.125  -1.353   1.846 -0.1887  0.0428  0.4943
  337MOL0     O45407   6.954  -0.998   1.983 -0.4890 -0.4952 -0.5772
  337MOL0     C45408   7.044  -0.768   1.873 -0.7652 -0.4377 -0.3586
  337MOL0     C45409   7.056  -0.639   1.807 -0.1201 -0.6998  0.4737
  337MOL0     N45410   7.203   0.086   1.319 -0.2101  1.0232 -0.6550
  337MOL0     N45411   7.146   0.186   1.356  0.5860  0.3527  1.2579
  337MOL0     C45412   6.497   0.316   2.375 -0.8742  0.3166  0.1575
  337MOL0     C45413   6.384   0.321   2.457 -0.1397 -0.0962 -0.4115
  337MOL0     C45414   6.015   0.488   2.696 -0.2719 -0.2142  0.0215
  337MOL0     C45415   6.057   0.402   2.803 -0.4099 -0.6320 -1.1279
  337MOL0     C45416   5.970   0.383   2.909  1.0241 -0.1365  0.2970
  337MOL0     C45417   5.844   0.452   2.915 -0.8680  0.6671 -0.5809
  337MOL0     O45418   5.749   0.430   3.012  0.6049 -0.7928  0.7052
  337MOL0     C45419   5.696   0.304   3.013  0.1603 -0.6238  0.0105
  337MOL0     C45420   5.564   0.307   3.088 -0.7525 -0.3589 -0.5997
  337MOL0     C45421   5.482   0.173   3.085 -0.1024 -0.7935  0.3606
  337MOL0     C45422   5.356   0.176   3.156  0.6347 -0.0780  0.6633
  337MOL0     C45423   5.244   0.251   3.099  0.5249  1.0734 -0.8319
  337MOL0     C45424   5.161   0.331   3.059 -0.0024  0.3038 -0.2125
  337MOL0     C45425   5.807   0.537   2.813  0.4278  0.0547 -1.1110
  337MOL0     C45426   5.889   0.548   2.700  0.6771  0.7917  0.4630
  337MOL0     C45427   5.826   0.630   2.585  0.3499 -0.0619  0.3761
  337MOL0     H45428   6.350   0.654   2.469 -1.7378 -0.5995 -1.3112
  337MOL0     H45429   6.516   0.647   2.297 -1.6170  1.5947  1.1646
  337MOL0     H45430   6.625   0.513   2.086 -3.3588 -4.4991  3.2235
  337MOL0     H45431   6.721   0.594   2.218  1.0453  1.8690 -3.2940
  337MOL0     H45432   6.910   0.427   2.151  1.9446  0.6343 -1.6955
  337MOL0     H45433   6.885   0.570   2.047  4.6282 -2.2038 -1.6626
  337MOL0     H45434   6.756   0.441   1.894  0.8257 -1.4984 -2.0317
  337MOL0     H45435   6.772   0.294   1.976 -0.6949 -0.8451 -4.3985
  337MOL0     H45436   7.044   0.329   1.967 -0.0562 -0.1498  0.5271
  337MOL0     H45437   6.935   0.282   1.827 -2.5302 -2.9328  3.1165
  337MOL0     H45438   6.952   0.517   1.747 -0.3083 -2.2500 -0.0058
  337MOL0     H45439   7.053   0.567   1.893 -0.6353 -0.8051  2.5594
  337MOL0     H45440   7.176   0.509   1.659 -1.5481  0.9319  0.0601
  337MOL0     H45441   7.234   0.458   1.820 -0.7770  0.0691  1.2298
  337MOL0     H45442   7.157   0.231   1.764  1.2883  1.1296  1.9325
  337MOL0     H45443   7.274   0.293   1.651  0.0273  0.0369  2.7056
  337MOL0     H45444   6.977   0.277   1.607 -0.4807  1.6838  0.1032
  337MOL0     H45445   7.075   0.377   1.505 -1.3239 -0.3112  1.0755
  337MOL0     H45446   7.131   0.004   1.620 -0.1639 -1.8166 -1.4352
  337MOL0     H45447   7.233  -0.205   1.322 -2.6118  0.0812  1.4662
  337MOL0     H45448   7.375  -0.135   1.396  0.2186  1.4695 -0.1670
  337MOL0     H45449   7.312  -0.324   1.535  2.0353  1.4639  3.5226
  337MOL0     H45450   7.308  -0.189   1.620 -0.4875 -0.3940  0.0212
  337MOL0     H45451   7.055  -0.297   1.490  1.1467 -0.8722  0.8232
  337MOL0     H45452   7.060  -0.188   1.617  0.7170  2.0339 -2.3015
  337MOL0     H45453   7.034  -0.365   1.742 -2.6265  0.9685 -3.1070
  337MOL0     H45454   7.205  -0.403   1.734 -0.2427 -0.7112  0.2959
  337MOL0     H45455   7.054  -0.746   1.475 -2.7558  0.0241 -0.7111
  337MOL0     H45456   7.050  -0.955   1.585  0.7485  2.6221 -2.9192
  337MOL0     H45457   6.836  -1.226   1.982 -0.9460 -0.4432  1.0272
  337MOL0     H45458   6.841  -1.439   2.067 -0.3098 -1.0246 -2.1732
  337MOL0     H45459   7.017  -1.583   2.266 -2.3464 -0.5909  1.6152
  337MOL0     H45460   6.855  -1.612   2.186 -1.0747 -2.4448  0.9493
  337MOL0     H45461   6.900  -1.840   2.214  0.6317  0.0476  1.1206
  337MOL0     H45462   7.084  -1.803   2.230  1.0088 -1.5464  3.3179
  337MOL0     H45463   7.032  -1.702   2.447 -0.0762  0.6141  1.2583
  337MOL0     H45464   6.862  -1.713   2.416  0.6973  0.7525  1.2480
  337MOL0     H45465   7.059  -1.945   2.468 -0.0052 -1.0508  2.2383
  337MOL0     H45466   6.899  -1.975   2.391 -3.4126  1.1474  0.2276
  337MOL0     H45467   6.858  -2.021   2.597 -1.3401  0.1502 -0.5388
  337MOL0     H45468   6.820  -1.848   2.608  1.0486  0.7788  0.2666
  337MOL0     H45469   7.086  -1.987   2.686 -1.8083  0.4265 -1.0382
  337MOL0     H45470   7.047  -1.817   2.736 -0.4622  0.8597  1.6802
  337MOL0     H45471   7.029  -1.972   2.912 -0.2655  0.5321  0.5188
  337MOL0     H45472   6.895  -2.052   2.826  0.6608 -0.3126  0.6335
  337MOL0     H45473   6.761  -1.831   2.862  0.5315  1.6300 -1.0663
  337MOL0     H45474   6.825  -1.914   3.006  1.7075 -0.8237  0.7078
  337MOL0     H45475   7.227  -1.529   1.896  1.6115  3.4302  1.3766
  337MOL0     H45476   7.199  -1.320   1.774 -0.0270  1.8841  1.4557
  337MOL0     H45477   7.041  -0.773   1.981  1.4969 -0.5319 -0.2526
  337MOL0     H45478   7.039  -0.554   1.873  1.3847 -1.6890  2.2287
  337MOL0     H45479   6.539   0.218   2.360 -1.9754 -0.3133  1.0512
  337MOL0     H45480   6.353   0.233   2.513  1.8335  0.6546  2.0447
  337MOL0     H45481   6.153   0.352   2.797  1.4602  2.3532  1.2192
  337MOL0     H45482   5.992   0.323   2.997 -4.7086 -1.5306  1.1939
  337MOL0     H45483   5.759   0.239   3.074  3.9983  2.7628  0.0677
  337MOL0     H45484   5.690   0.261   2.913  0.2221 -2.1853  0.6544
  337MOL0     H45485   5.507   0.383   3.034  1.4646  1.6071 -0.3747
  337MOL0     H45486   5.581   0.335   3.192 -3.8534  1.1178 -0.3753
  337MOL0     H45487   5.537   0.093   3.134 -2.1535 -1.2219  2.1165
  337MOL0     H45488   5.462   0.153   2.979  1.1244  4.7817 -1.2461
  337MOL0     H45489   5.309   0.080   3.177 -0.9906  0.2596 -1.0708
  337MOL0     H45490   5.371   0.222   3.254  1.8685  1.7408 -0.3241
  337MOL0     H45491   5.083   0.396   3.025 -1.3306  0.7683  3.2569
  337MOL0     H45492   5.710   0.583   2.824  1.7926  3.0907 -0.7019
  337MOL0     H45493   5.825   0.736   2.615 -0.4501  0.4919 -1.4739
  337MOL0     H45494   5.879   0.615   2.490 -1.8367 -2.4444 -0.5943
  337MOL0     H45495   5.724   0.592   2.575  0.5028 -0.0079 -1.8175
  338MOL0     O45496   3.894   5.557   2.401  0.3940 -0.0999 -0.1473
  338MOL0     C45497   3.824   5.577   2.505 -0.2061 -0.2849 -0.9179
  338MOL0     O45498   3.706   5.525   2.529 -0.3851  0.8495 -0.0002
  338MOL0     C45499   3.646   5.445   2.431 -0.2431 -0.2117 -0.0909
  338MOL0     C45500   3.581   5.510   2.323  0.6518  0.3798  0.0156
  338MOL0     C45501   3.520   5.439   2.221  0.1482  0.2425 -1.1451
  338MOL0     C45502   3.513   5.290   2.233 -0.6543 -0.1785  0.5489
  338MOL0     O45503   3.464   5.221   2.125 -0.1675  0.5508 -0.0076
  338MOL0     C45504   3.431   5.083   2.139  0.4832 -0.6162  0.9671
  338MOL0     C45505   3.314   5.042   2.229  0.3521 -0.2243 -1.0559
  338MOL0     C45506   3.180   5.096   2.169  0.5564  0.5440 -0.4591
  338MOL0     C45507   3.065   5.067   2.274 -1.2709 -0.1288  0.2398
  338MOL0     C45508   2.929   5.096   2.215  0.6125 -0.8071 -0.0055
  338MOL0     C45509   2.820   5.039   2.307  0.4668 -0.4579 -0.1791
  338MOL0     C45510   2.692   5.051   2.230  0.9690  0.1849  0.5149
  338MOL0     C45511   2.576   4.996   2.302  1.1392 -0.7604  0.1585
  338MOL0     N45512   2.444   5.045   2.256  0.1031  0.1930 -0.3716
  338MOL0     C45513   2.397   5.172   2.230 -0.5918  0.0024  0.0601
  338MOL0     C45514   2.266   5.162   2.216  0.2417  0.1823 -1.0423
  338MOL0     C45515   2.178   5.270   2.163  0.1803  0.3855  0.6729
  338MOL0     C45516   2.183   5.302   2.017  0.4937 -0.4358  0.1360
  338MOL0     C45517   2.106   5.425   1.965 -0.0317 -0.3992  0.1610
  338MOL0     C45518   2.017   5.381   1.853  0.0947  0.2632  0.4321
  338MOL0     O45519   1.901   5.325   1.918 -0.3797 -0.7462  0.9575
  338MOL0     C45520   1.803   5.295   1.839  0.6387  0.7391  0.8763
  338MOL0     C45521   1.756   5.371   1.725 -1.5532  0.6561 -0.6208
  338MOL0     C45522   1.655   5.327   1.641 -0.3747  0.5071  0.4738
  338MOL0     C45523   1.588   5.200   1.674  0.1105 -0.3629 -0.3624
  338MOL0     C45524   1.471   5.151   1.591 -0.1429  0.1300  0.4626
  338MOL0     O45525   1.398   5.039   1.642  0.4407 -0.8274 -0.6491
  338MOL0     C45526   1.285   4.982   1.580 -0.3314  0.6924 -0.4696
  338MOL0     C45527   1.188   5.053   1.510  1.0220  0.2112  0.6283
  338MOL0     C45528   1.090   4.999   1.419  0.0371  0.7968  0.2735
  338MOL0     C45529   1.105   4.856   1.403 -0.0117 -0.1958  0.4316
  338MOL0     O45530   1.020   4.789   1.318  0.1628 -0.6353  0.0443
  338MOL0     C45531   0.943   4.876   1.226  0.3920 -0.3757  0.6139
  338MOL0     C45532   0.870   4.805   1.108 -1.0373  0.3243  0.2894
  338MOL0     C45533   0.835   4.911   0.997  0.1789  0.1943 -0.3685
  338MOL0     C45534   0.930   4.914   0.880  0.2528  0.4254 -0.5551
  338MOL0     C45535   0.873   5.009   0.784  0.3293  0.9228  0.8903
  338MOL0     C45536   0.941   4.986   0.648  0.1354  0.5368 -0.1969
  338MOL0     C45537   1.096   4.980   0.633 -1.1621 -0.6485  0.2716
  338MOL0     C45538   1.154   5.124   0.654 -0.2505  0.1569 -0.8338
  338MOL0    Cl45539   1.099   5.250   0.530  0.2619  0.4974  0.1714
  338MOL0     C45540   1.192   4.776   1.478 -0.3521 -0.2264  0.1572
  338MOL0     C45541   1.285   4.842   1.569 -0.3897  0.4741  0.3593
  338MOL0     O45542   1.444   5.214   1.487  0.2227  1.0893 -0.3723
  338MOL0     C45543   1.642   5.128   1.779 -0.2694  0.1248 -0.7878
  338MOL0     C45544   1.744   5.168   1.859  0.5768 -1.0616  0.7698
  338MOL0     N45545   2.230   5.026   2.231  0.1808  0.0155  0.1850
  338MOL0     N45546   2.337   4.962   2.246  0.5411  1.3266  0.3694
  338MOL0     C45547   3.588   5.229   2.338 -0.0806 -0.5923  1.2665
  338MOL0     C45548   3.647   5.308   2.429 -0.7529 -0.2505 -0.7153
  338MOL0     C45549   3.891   5.644   2.620  0.0840 -0.0621  0.4401
  338MOL0     C45550   3.847   5.773   2.653  0.3371 -0.0368 -0.1682
  338MOL0     C45551   3.907   5.834   2.769 -0.0926 -0.3199 -0.4198
  338MOL0     C45552   4.010   5.777   2.839  0.1647  0.5523 -0.3815
  338MOL0     O45553   4.077   5.846   2.939  0.6796  0.3055  0.2835
  338MOL0     C45554   4.122   5.980   2.910  0.4919  0.5037 -0.5172
  338MOL0     C45555   4.241   6.019   3.009  0.3993  0.0572  0.3259
  338MOL0     C45556   4.202   6.156   3.081 -0.0588  0.2875 -0.2304
  338MOL0     C45557   4.324   6.220   3.154 -0.1829  0.4908 -0.6641
  338MOL0     C45558   4.302   6.364   3.174  0.6149  0.1031  0.3100
  338MOL0     C45559   4.290   6.483   3.183 -1.0882 -0.6355 -0.8982
  338MOL0     C45560   4.048   5.644   2.802 -0.2034  0.2647 -0.3358
  338MOL0     C45561   3.995   5.582   2.692 -0.9609  0.1470 -0.0581
  338MOL0     C45562   4.049   5.443   2.660 -0.2358 -0.0795 -0.1312
  338MOL0     H45563   3.588   5.618   2.333 -1.3375  0.4974  0.5653
  338MOL0     H45564   3.461   5.487   2.143 -0.8909  0.7482 -0.0819
  338MOL0     H45565   3.408   5.049   2.038  0.1501  0.5995  0.6154
  338MOL0     H45566   3.522   5.036   2.177  1.0389 -0.0570  0.3577
  338MOL0     H45567   3.328   5.066   2.334 -2.1313  0.9850 -0.9245
  338MOL0     H45568   3.311   4.933   2.221 -2.6594 -0.1966 -1.5339
  338MOL0     H45569   3.165   5.023   2.089 -0.3801  0.6065 -0.3432
  338MOL0     H45570   3.175   5.199   2.132 -0.8486 -0.0043 -1.8968
  338MOL0     H45571   3.076   4.961   2.301 -6.0087 -1.0801 -0.5679
  338MOL0     H45572   3.081   5.129   2.363 -0.3704  0.6899 -0.4766
  338MOL0     H45573   2.912   5.203   2.198  1.2337 -0.6330  0.4364
  338MOL0     H45574   2.922   5.046   2.118 -1.2484  2.1971 -1.5905
  338MOL0     H45575   2.837   4.931   2.317 -2.1181 -0.8328  0.8815
  338MOL0     H45576   2.813   5.093   2.401 -2.0445 -1.6550  0.4164
  338MOL0     H45577   2.697   5.001   2.133 -2.0032  2.4832 -0.9775
  338MOL0     H45578   2.675   5.158   2.217 -1.1147 -0.1045  0.5593
  338MOL0     H45579   2.572   4.887   2.295 -0.9884 -0.9718  2.9146
  338MOL0     H45580   2.580   5.025   2.408  0.6653  0.4051 -0.1238
  338MOL0     H45581   2.462   5.257   2.209  2.0221 -1.2651  2.3488
  338MOL0     H45582   2.076   5.241   2.191  1.1490 -1.0389  3.1398
  338MOL0     H45583   2.206   5.362   2.215 -0.0374 -0.9164  3.3066
  338MOL0     H45584   2.289   5.312   1.992  1.5611 -1.5335  3.6167
  338MOL0     H45585   2.140   5.220   1.960  3.0473  0.8947 -4.1339
  338MOL0     H45586   2.190   5.487   1.933 -0.9434  0.6750 -0.1940
  338MOL0     H45587   2.044   5.460   2.048  0.4429 -0.5782  0.5948
  338MOL0     H45588   2.076   5.316   1.789  0.4821  0.2963  0.7530
  338MOL0     H45589   2.001   5.473   1.796  1.2849  0.9015  1.0950
  338MOL0     H45590   1.813   5.462   1.713  2.9748 -1.6431  1.0841
  338MOL0     H45591   1.632   5.387   1.553  0.5058  1.1362  0.6638
  338MOL0     H45592   1.180   5.160   1.523  2.1118  0.1435  2.1397
  338MOL0     H45593   1.011   5.062   1.380 -0.3308 -0.6488 -1.4289
  338MOL0     H45594   0.867   4.943   1.268  2.1987  1.6545  0.8330
  338MOL0     H45595   1.008   4.950   1.179  0.4386 -1.7868 -1.6772
  338MOL0     H45596   0.924   4.717   1.072 -1.4446  0.4912 -0.7950
  338MOL0     H45597   0.773   4.773   1.148 -1.2414  3.5230  2.7321
  338MOL0     H45598   0.736   4.898   0.953  0.7745  0.1176 -1.7093
  338MOL0     H45599   0.826   5.010   1.042 -0.3239 -0.3374  0.7524
  338MOL0     H45600   0.948   4.813   0.840 -1.1159 -2.0088  4.2344
  338MOL0     H45601   1.027   4.960   0.903  0.9075  0.5635 -3.2485
  338MOL0     H45602   0.883   5.114   0.813  0.3422  1.2932 -0.3916
  338MOL0     H45603   0.769   4.983   0.760 -0.4664  2.3320  2.5891
  338MOL0     H45604   0.903   4.887   0.620 -1.3099  1.0559 -0.1494
  338MOL0     H45605   0.903   5.060   0.578  1.4427  0.1795 -1.3283
  338MOL0     H45606   1.119   4.940   0.534 -0.5861 -0.3605  0.2839
  338MOL0     H45607   1.132   4.902   0.700 -1.4456 -0.1142  1.0638
  338MOL0     H45608   1.136   5.157   0.757 -0.5231 -1.2442 -0.4173
  338MOL0     H45609   1.263   5.124   0.645 -0.2690 -0.7085 -1.1538
  338MOL0     H45610   1.194   4.668   1.472  0.1480 -0.1758 -0.6919
  338MOL0     H45611   1.359   4.784   1.624 -0.7870 -1.0351 -0.6432
  338MOL0     H45612   1.604   5.028   1.798  1.6467 -1.0061 -2.5269
  338MOL0     H45613   1.786   5.104   1.936 -0.0789 -0.3098  1.7769
  338MOL0     H45614   3.621   5.125   2.334 -0.8915 -0.8241  0.3015
  338MOL0     H45615   3.704   5.260   2.507 -2.3858 -0.2764  0.5113
  338MOL0     H45616   3.781   5.831   2.589  0.1592  0.9749  0.8993
  338MOL0     H45617   3.872   5.932   2.800  0.8084  0.4889 -1.8353
  338MOL0     H45618   4.036   6.042   2.936  0.8899  0.7008  0.3603
  338MOL0     H45619   4.154   5.985   2.805 -0.7414 -2.3750 -1.1293
  338MOL0     H45620   4.333   6.037   2.954 -0.5180 -0.3752 -1.4265
  338MOL0     H45621   4.249   5.940   3.085  1.2800  1.0962  1.3440
  338MOL0     H45622   4.130   6.133   3.160 -0.1043  0.7128 -0.1471
  338MOL0     H45623   4.151   6.228   3.016 -1.0138  1.8431  2.1140
  338MOL0     H45624   4.344   6.162   3.245 -0.2766 -0.1386 -1.0371
  338MOL0     H45625   4.415   6.210   3.093  0.8490 -1.7464  1.0745
  338MOL0     H45626   4.257   6.585   3.190  0.2998 -0.3001  2.2458
  338MOL0     H45627   4.138   5.611   2.854  0.2610  2.8747  0.6773
  338MOL0     H45628   4.075   5.453   2.554  2.7470 -0.4311  0.4930
  338MOL0     H45629   4.136   5.406   2.715  1.0559  0.0430 -2.0052
  338MOL0     H45630   3.971   5.369   2.678  0.6401 -1.6448 -2.3407
  339MOL0     O45631   1.743   2.566   5.844  0.0535 -0.4763  0.4309
  339MOL0     C45632   1.652   2.530   5.927 -0.6918 -0.3863  1.5553
  339MOL0     O45633   1.542   2.466   5.903 -0.8441  0.3839  0.3147
  339MOL0     C45634   1.535   2.400   5.789  0.6214  0.5896 -0.0029
  339MOL0     C45635   1.443   2.444   5.692 -0.5057  0.3271  0.1114
  339MOL0     C45636   1.433   2.388   5.567 -0.7315 -0.4992  0.5742
  339MOL0     C45637   1.519   2.284   5.533 -0.4080  0.3605  0.2454
  339MOL0     O45638   1.500   2.232   5.404  0.1352  0.0826 -0.8069
  339MOL0     C45639   1.604   2.155   5.347  0.4392 -0.1485  0.9069
  339MOL0     C45640   1.592   2.136   5.203  0.4720  0.1864  0.8661
  339MOL0     C45641   1.626   2.257   5.110  0.5511  0.4911 -0.2106
  339MOL0     C45642   1.567   2.238   4.970 -0.0457  0.1953  0.6493
  339MOL0     C45643   1.599   2.341   4.870 -0.3042  0.1316  1.1957
  339MOL0     C45644   1.732   2.311   4.803 -0.0140 -0.0194  0.1130
  339MOL0     C45645   1.751   2.421   4.706  0.1501  0.9391 -0.5007
  339MOL0     C45646   1.868   2.390   4.608  0.6729 -0.0426  0.3066
  339MOL0     N45647   1.816   2.326   4.483 -0.4177 -0.2214 -0.3894
  339MOL0     C45648   1.896   2.277   4.382 -0.4645 -1.1175 -0.6950
  339MOL0     C45649   1.808   2.218   4.299  0.1013 -0.1232 -0.3058
  339MOL0     C45650   1.828   2.123   4.186  0.9379  0.7939 -0.3186
  339MOL0     C45651   1.843   1.980   4.228 -0.6726  0.5776 -0.0783
  339MOL0     C45652   1.959   1.944   4.316 -0.1541  0.6024 -0.5687
  339MOL0     C45653   1.902   1.925   4.458 -0.2775 -0.0078 -0.6152
  339MOL0     O45654   1.998   1.884   4.557 -0.5026 -0.1815 -0.4183
  339MOL0     C45655   2.050   1.993   4.632  0.2430  1.0128  0.5561
  339MOL0     C45656   1.986   2.033   4.753 -0.2425  0.4875 -0.0198
  339MOL0     C45657   2.049   2.128   4.838  0.7998 -0.6372 -0.1607
  339MOL0     C45658   2.176   2.190   4.807  0.3732  0.4597  0.1532
  339MOL0     C45659   2.242   2.300   4.892  0.1521  0.9735 -0.8969
  339MOL0     O45660   2.180   2.349   5.009 -0.3476  0.2027  0.4945
  339MOL0     C45661   2.246   2.428   5.095 -0.8943  0.0911  0.0615
  339MOL0     C45662   2.379   2.417   5.127 -0.7773 -0.8685 -0.7789
  339MOL0     C45663   2.433   2.496   5.231  0.0594  0.5827 -0.9413
  339MOL0     C45664   2.357   2.590   5.301  0.8382 -1.0316  0.2063
  339MOL0     O45665   2.410   2.657   5.400  0.7409 -0.3513 -1.0114
  339MOL0     C45666   2.379   2.790   5.443 -0.8132  0.2201 -1.0622
  339MOL0     C45667   2.490   2.879   5.414 -0.4223  0.1486 -0.5900
  339MOL0     C45668   2.607   2.865   5.520 -0.2887 -0.2600 -0.6385
  339MOL0     C45669   2.578   2.946   5.650  1.0219  0.2689  0.4878
  339MOL0     C45670   2.672   2.906   5.763  0.1172 -0.1354  0.9304
  339MOL0     C45671   2.648   2.991   5.888 -0.3929  1.3512  0.5523
  339MOL0     C45672   2.722   2.943   6.013  0.0060 -0.1238  0.3772
  339MOL0     C45673   2.696   3.029   6.133 -1.1634  0.4089  0.1275
  339MOL0    Cl45674   2.743   2.957   6.290  0.1173  0.3077  0.3638
  339MOL0     C45675   2.221   2.601   5.270 -0.7383 -0.1962 -0.2999
  339MOL0     C45676   2.164   2.523   5.166  0.4024 -0.3635 -0.5998
  339MOL0     O45677   2.336   2.347   4.836 -0.8520  0.0250  0.3649
  339MOL0     C45678   2.216   2.161   4.674  0.4912  0.3208  0.2300
  339MOL0     C45679   2.159   2.064   4.594  0.0408  0.0005  0.0129
  339MOL0     N45680   1.682   2.233   4.350 -0.0307 -0.0817  0.4872
  339MOL0     N45681   1.691   2.298   4.455  0.0004  0.3557  0.1192
  339MOL0     C45682   1.617   2.247   5.628 -0.1257  0.3064 -0.2037
  339MOL0     C45683   1.625   2.299   5.762  1.2831  0.4730  0.6404
  339MOL0     C45684   1.674   2.579   6.077  0.2313 -0.3913 -0.0668
  339MOL0     C45685   1.797   2.651   6.100  0.2646 -0.0103 -0.1076
  339MOL0     C45686   1.834   2.695   6.221 -1.3525 -0.0637 -0.5603
  339MOL0     C45687   1.748   2.663   6.333  0.4309 -0.2705 -0.5789
  339MOL0     O45688   1.793   2.713   6.445 -0.3312 -0.4863  0.2612
  339MOL0     C45689   1.704   2.724   6.557 -0.2961 -0.0715  0.1147
  339MOL0     C45690   1.581   2.813   6.528 -0.2026 -0.7619 -0.2271
  339MOL0     C45691   1.479   2.802   6.642 -0.0530 -0.6770  0.6918
  339MOL0     C45692   1.351   2.880   6.609 -0.0514  0.1965 -0.3034
  339MOL0     C45693   1.245   2.835   6.702 -0.8673  0.3186  0.4305
  339MOL0     C45694   1.155   2.792   6.765  0.9406 -0.8875 -0.0174
  339MOL0     C45695   1.633   2.582   6.314 -0.5518 -0.6147 -0.2070
  339MOL0     C45696   1.591   2.544   6.183  0.8946 -0.0177  1.0749
  339MOL0     C45697   1.459   2.459   6.181  0.0880 -0.2484  0.6876
  339MOL0     H45698   1.374   2.525   5.716  0.9074  2.2064 -1.8207
  339MOL0     H45699   1.356   2.421   5.498 -0.8865 -1.5807  0.2069
  339MOL0     H45700   1.702   2.202   5.356  1.2048 -0.2494 -3.9616
  339MOL0     H45701   1.607   2.051   5.383 -1.5910 -1.2152 -1.6477
  339MOL0     H45702   1.487   2.111   5.183 -0.8181  3.1513  3.1133
  339MOL0     H45703   1.652   2.050   5.173  1.7763  0.7227  1.8378
  339MOL0     H45704   1.736   2.262   5.103  0.5568 -1.1495 -2.5973
  339MOL0     H45705   1.582   2.348   5.150 -4.3486 -2.0305  0.9200
  339MOL0     H45706   1.595   2.137   4.939 -1.6600 -0.5825  1.6066
  339MOL0     H45707   1.460   2.222   4.981  0.4851 -3.8354  1.3362
  339MOL0     H45708   1.522   2.325   4.794  0.2869  1.0280  0.3829
  339MOL0     H45709   1.599   2.444   4.905  1.2126  0.1416  1.1929
  339MOL0     H45710   1.818   2.310   4.871  0.8648 -0.6019 -0.9799
  339MOL0     H45711   1.732   2.212   4.757 -0.0941 -1.2286  2.5257
  339MOL0     H45712   1.767   2.518   4.755 -0.5485  0.0456  1.6281
  339MOL0     H45713   1.662   2.433   4.644 -0.8186 -0.6029  0.5069
  339MOL0     H45714   1.921   2.483   4.586  0.8267 -0.3730 -0.7332
  339MOL0     H45715   1.944   2.321   4.647  0.7264 -0.0636  0.1639
  339MOL0     H45716   2.004   2.273   4.367 -0.3107 -0.6318  0.2018
  339MOL0     H45717   1.749   2.119   4.110  1.8947 -2.3840 -1.3438
  339MOL0     H45718   1.921   2.146   4.134  0.1424  4.5611 -0.3574
  339MOL0     H45719   1.753   1.933   4.268 -0.2676  0.5102  0.7751
  339MOL0     H45720   1.858   1.913   4.142 -0.2514 -1.1237  1.2542
  339MOL0     H45721   2.038   2.019   4.309 -1.4425  2.0716  0.1629
  339MOL0     H45722   2.002   1.847   4.289  0.2851 -0.2220  2.6714
  339MOL0     H45723   1.824   1.849   4.459  1.4644 -1.8731 -1.4170
  339MOL0     H45724   1.858   2.021   4.486  0.7853  0.1912  0.4539
  339MOL0     H45725   1.886   1.993   4.773 -1.4750  2.7361 -1.3258
  339MOL0     H45726   2.007   2.150   4.936 -0.2861  0.5864 -0.8604
  339MOL0     H45727   2.448   2.357   5.069 -1.3480 -1.4090 -0.9018
  339MOL0     H45728   2.534   2.468   5.259 -0.3083 -1.5185 -1.5647
  339MOL0     H45729   2.296   2.831   5.385 -0.3597  1.3882 -0.9189
  339MOL0     H45730   2.361   2.796   5.551 -1.1960 -2.1444 -0.9471
  339MOL0     H45731   2.526   2.876   5.310  1.4542  2.1983 -0.0644
  339MOL0     H45732   2.459   2.983   5.427  0.0493  0.1553  0.5514
  339MOL0     H45733   2.603   2.760   5.548  1.2906 -0.4017 -0.8501
  339MOL0     H45734   2.702   2.887   5.471  0.3286 -2.0838 -0.3181
  339MOL0     H45735   2.474   2.942   5.685  0.4193 -0.4026 -1.2826
  339MOL0     H45736   2.608   3.051   5.642 -0.5433  1.0000  3.0921
  339MOL0     H45737   2.770   2.927   5.721 -0.5521 -1.3140 -1.3820
  339MOL0     H45738   2.657   2.801   5.790  2.7336 -0.4244  1.5531
  339MOL0     H45739   2.685   3.086   5.848 -0.4573 -1.0492 -6.3764
  339MOL0     H45740   2.539   2.986   5.888 -0.3388 -1.0781 -0.5733
  339MOL0     H45741   2.829   2.934   5.992  0.0517 -0.1018  0.6005
  339MOL0     H45742   2.693   2.841   6.041 -0.7324 -0.1448 -0.4317
  339MOL0     H45743   2.754   3.122   6.127  0.1998 -0.3850  0.6895
  339MOL0     H45744   2.588   3.047   6.139 -1.0112  1.0778  0.9942
  339MOL0     H45745   2.157   2.664   5.330 -1.1946 -0.7850 -0.1535
  339MOL0     H45746   2.057   2.526   5.154  0.0995  2.8955  1.4298
  339MOL0     H45747   2.296   2.217   4.627 -0.9182 -0.1009 -2.9201
  339MOL0     H45748   2.207   2.032   4.501  1.3199 -0.2005  0.7172
  339MOL0     H45749   1.690   2.172   5.601 -1.2021 -0.6625 -0.4775
  339MOL0     H45750   1.702   2.271   5.833  0.2183 -0.0750  1.6238
  339MOL0     H45751   1.870   2.671   6.021 -0.7882 -0.6525 -1.2669
  339MOL0     H45752   1.929   2.744   6.242 -0.0831 -2.2158 -1.0246
  339MOL0     H45753   1.759   2.777   6.635  1.1672 -0.9996 -0.2588
  339MOL0     H45754   1.667   2.630   6.599  1.0254 -0.2901  0.8343
  339MOL0     H45755   1.527   2.792   6.435 -1.2513  1.1856 -0.1057
  339MOL0     H45756   1.609   2.919   6.530 -1.1581 -0.5137  1.1802
  339MOL0     H45757   1.520   2.829   6.739 -2.7100 -1.9639  2.2876
  339MOL0     H45758   1.433   2.703   6.645 -1.6832 -0.0638 -1.3576
  339MOL0     H45759   1.369   2.988   6.613  2.3211 -0.1618  0.4560
  339MOL0     H45760   1.318   2.861   6.507 -4.7992  1.2854  0.7926
  339MOL0     H45761   1.071   2.757   6.822 -0.2851  1.6913 -0.0577
  339MOL0     H45762   1.581   2.548   6.403  1.9900 -1.9325  0.8892
  339MOL0     H45763   1.392   2.496   6.103  0.8602  6.6176  2.5734
  339MOL0     H45764   1.494   2.360   6.150  2.8174  1.0735 -0.8572
  339MOL0     H45765   1.402   2.459   6.274  0.7411  0.6060  1.1045
  340MOL0     O45766   3.946  10.116   0.858 -0.2313  0.8306 -0.3041
  340MOL0     C45767   3.842  10.174   0.820 -1.0313  0.4483  0.6225
  340MOL0     O45768   3.715  10.122   0.806  0.9491 -0.5018 -0.4177
  340MOL0     C45769   3.689   9.990   0.840  0.5876  0.6537  1.3128
  340MOL0     C45770   3.767   9.872   0.844 -0.4072  0.0164  0.6997
  340MOL0     C45771   3.716   9.744   0.893 -0.1079 -0.6380  0.3234
  340MOL0     C45772   3.586   9.728   0.938 -0.2301  0.8095 -1.0157
  340MOL0     O45773   3.540   9.605   0.980 -0.9088  0.2513 -0.2017
  340MOL0     C45774   3.406   9.571   0.951 -0.6505 -0.9139 -0.6545
  340MOL0     C45775   3.418   9.471   0.833 -0.9763 -0.0633 -0.0420
  340MOL0     C45776   3.273   9.429   0.791  0.0297 -0.4354 -0.1633
  340MOL0     C45777   3.277   9.337   0.668  0.4338 -0.4280 -0.2199
  340MOL0     C45778   3.182   9.372   0.551 -0.3215  0.4972 -0.0896
  340MOL0     C45779   3.226   9.500   0.471  0.4458  0.0551  0.6896
  340MOL0     C45780   3.122   9.596   0.418 -0.7005  0.1592 -0.5702
  340MOL0     C45781   3.065   9.555   0.280 -1.1002 -0.7434 -0.9704
  340MOL0     N45782   3.140   9.632   0.172 -1.3219 -0.5661 -0.8258
  340MOL0     C45783   3.255   9.591   0.095  0.4431  0.1230 -0.8172
  340MOL0     C45784   3.274   9.690   0.009  1.2256 -0.1927 -0.4460
  340MOL0     C45785   3.354   9.690  -0.115  0.0650 -0.4497 -0.8908
  340MOL0     C45786   3.399   9.836  -0.162  0.5176  0.0715 -0.6896
  340MOL0     C45787   3.498   9.829  -0.271 -0.0030 -0.2700  0.2862
  340MOL0     C45788   3.526   9.970  -0.324 -0.5662  1.2820  0.0585
  340MOL0     O45789   3.645   9.975  -0.394  0.3298 -0.3234 -0.3233
  340MOL0     C45790   3.709  10.091  -0.422 -0.3258  0.1838  0.7014
  340MOL0     C45791   3.678  10.221  -0.362 -0.9821 -0.0585 -0.7611
  340MOL0     C45792   3.769  10.330  -0.385  0.3810  0.8960  0.4089
  340MOL0     C45793   3.873  10.323  -0.486 -0.1162 -0.6550  1.1005
  340MOL0     C45794   3.957  10.442  -0.514  0.6828  0.6712  0.3639
  340MOL0     O45795   3.898  10.566  -0.516  0.0200  0.1214 -0.6645
  340MOL0     C45796   3.975  10.667  -0.570  0.3074  0.3287 -0.4299
  340MOL0     C45797   3.979  10.791  -0.499  0.4437 -0.2121  0.8815
  340MOL0     C45798   4.035  10.908  -0.548  0.7502  0.9208 -0.5296
  340MOL0     C45799   4.079  10.913  -0.681  0.0973 -0.6409 -0.0344
  340MOL0     O45800   4.112  11.033  -0.740 -0.3490 -0.4213  0.0467
  340MOL0     C45801   4.184  11.125  -0.662 -0.8083 -0.2096 -0.1399
  340MOL0     C45802   4.138  11.276  -0.659  0.0664  0.7013 -0.5519
  340MOL0     C45803   4.126  11.341  -0.797  0.2593 -0.6657 -0.6124
  340MOL0     C45804   4.009  11.288  -0.887  0.8970  0.4773 -0.0999
  340MOL0     C45805   3.948  11.384  -0.986 -0.0423 -0.1197 -0.6619
  340MOL0     C45806   4.055  11.443  -1.077  1.0223 -0.9227  0.3453
  340MOL0     C45807   3.997  11.478  -1.220 -0.2634 -0.2775 -0.0289
  340MOL0     C45808   4.078  11.593  -1.287  0.4561  0.3424  0.0075
  340MOL0    Cl45809   4.248  11.602  -1.236 -0.4787 -0.3595 -0.0606
  340MOL0     C45810   4.063  10.795  -0.759  0.2216  1.0339 -0.4739
  340MOL0     C45811   4.014  10.677  -0.702 -0.6910 -0.6014  0.4772
  340MOL0     O45812   4.072  10.418  -0.548 -0.2809  0.0397  0.4807
  340MOL0     C45813   3.888  10.196  -0.550  1.1064  0.4272 -0.1593
  340MOL0     C45814   3.816  10.087  -0.511  0.4684  0.5682 -0.0197
  340MOL0     N45815   3.174   9.787   0.034  0.5977 -0.2391  0.3436
  340MOL0     N45816   3.116   9.762   0.139  0.4203  0.8924 -0.4416
  340MOL0     C45817   3.508   9.845   0.944  0.0134  0.6881 -0.8569
  340MOL0     C45818   3.560   9.970   0.896 -0.8469  0.1280  0.5925
  340MOL0     C45819   3.869  10.324   0.796  0.3691 -0.2259 -0.5079
  340MOL0     C45820   3.756  10.390   0.741  0.1482 -0.5716  0.2331
  340MOL0     C45821   3.764  10.525   0.705 -0.6164  1.0188  0.7205
  340MOL0     C45822   3.885  10.590   0.705  0.5177  0.5363 -0.3423
  340MOL0     O45823   3.903  10.720   0.672  0.8027 -0.0697 -0.3844
  340MOL0     C45824   3.787  10.787   0.600 -0.4024  0.8301  0.0900
  340MOL0     C45825   3.815  10.930   0.563  1.1602  0.5154  0.3560
  340MOL0     C45826   3.810  11.023   0.686  0.3268 -0.1296  0.4642
  340MOL0     C45827   3.816  11.174   0.644 -0.0825 -0.5514  0.2493
  340MOL0     C45828   3.916  11.244   0.727 -0.3901 -0.0581  0.1614
  340MOL0     C45829   4.010  11.288   0.778  0.2110  0.8589 -0.2226
  340MOL0     C45830   3.997  10.524   0.751  1.0440  0.9378  0.2006
  340MOL0     C45831   3.991  10.394   0.810  1.3288 -0.5700 -0.1443
  340MOL0     C45832   4.115  10.355   0.881 -0.3126  0.2296  0.1098
  340MOL0     H45833   3.865   9.876   0.796 -0.3387  1.6387  0.9523
  340MOL0     H45834   3.783   9.658   0.893 -2.4279 -2.6004 -2.1942
  340MOL0     H45835   3.363   9.515   1.035  1.7945 -1.9475 -0.0171
  340MOL0     H45836   3.342   9.651   0.912 -1.1180 -0.7731  0.3765
  340MOL0     H45837   3.492   9.394   0.855 -1.4041 -0.2757  0.6947
  340MOL0     H45838   3.452   9.526   0.745  1.4009  1.0603  1.4820
  340MOL0     H45839   3.211   9.515   0.767 -1.6256 -1.4797  0.2113
  340MOL0     H45840   3.227   9.390   0.883  0.3488  0.3174  0.3256
  340MOL0     H45841   3.378   9.346   0.628  0.3017 -0.3492 -0.5372
  340MOL0     H45842   3.257   9.236   0.704  0.4312 -0.1649  0.5364
  340MOL0     H45843   3.148   9.293   0.483 -0.9159  1.9397 -1.5412
  340MOL0     H45844   3.094   9.410   0.603 -0.8278 -0.1925 -0.4186
  340MOL0     H45845   3.286   9.559   0.542  1.2137 -0.0324  0.1291
  340MOL0     H45846   3.298   9.477   0.392 -2.9788 -1.1730 -2.3515
  340MOL0     H45847   3.173   9.693   0.406 -0.5996  0.1741 -0.0649
  340MOL0     H45848   3.050   9.617   0.498  0.2092  0.6888  0.1470
  340MOL0     H45849   3.083   9.448   0.267 -1.0557 -0.9285  0.3889
  340MOL0     H45850   2.957   9.572   0.282 -1.6197 -2.9841  3.4522
  340MOL0     H45851   3.300   9.492   0.097 -0.3889 -0.2530  0.3615
  340MOL0     H45852   3.444   9.628  -0.110 -0.8682 -1.7817  0.4172
  340MOL0     H45853   3.292   9.654  -0.197 -1.7146  1.2205 -0.3776
  340MOL0     H45854   3.309   9.887  -0.198  0.6416  1.9582  1.4225
  340MOL0     H45855   3.432   9.897  -0.077 -1.5277 -0.3368  0.4577
  340MOL0     H45856   3.458   9.766  -0.351 -0.0860 -0.5686  0.5616
  340MOL0     H45857   3.595   9.789  -0.238 -1.1931 -5.0643 -1.1566
  340MOL0     H45858   3.542  10.041  -0.242  0.5594 -2.0231  2.9609
  340MOL0     H45859   3.442   9.998  -0.388  0.0251  2.5526 -0.2054
  340MOL0     H45860   3.600  10.234  -0.288  0.7664  2.2946  0.7943
  340MOL0     H45861   3.764  10.416  -0.318  0.0266  1.7389 -0.6659
  340MOL0     H45862   3.932  10.788  -0.401 -1.0734  3.1623  0.4169
  340MOL0     H45863   4.031  10.995  -0.483 -0.1080 -1.2403  2.5397
  340MOL0     H45864   4.201  11.095  -0.558  0.0641  2.9951  0.7825
  340MOL0     H45865   4.284  11.123  -0.707 -0.7283 -3.7923 -0.0255
  340MOL0     H45866   4.043  11.270  -0.604  0.2236 -2.5524 -0.4474
  340MOL0     H45867   4.203  11.345  -0.605  1.7723  1.0990 -2.9693
  340MOL0     H45868   4.110  11.448  -0.783  0.5347 -0.3850 -2.2736
  340MOL0     H45869   4.216  11.330  -0.859  0.4890 -2.1803 -0.0574
  340MOL0     H45870   3.927  11.259  -0.820  0.8429  1.1536  0.1373
  340MOL0     H45871   4.055  11.206  -0.942 -0.9428 -0.0637 -0.9076
  340MOL0     H45872   3.906  11.463  -0.924 -1.2129  0.5032 -2.1930
  340MOL0     H45873   3.872  11.331  -1.044 -4.0880 -0.0793  3.9680
  340MOL0     H45874   4.088  11.530  -1.020  1.6825 -0.5725 -0.5456
  340MOL0     H45875   4.147  11.385  -1.087  2.6076  0.9304  2.9936
  340MOL0     H45876   3.892  11.506  -1.214 -0.0492  0.3167  1.4156
  340MOL0     H45877   4.006  11.381  -1.270  0.1047  0.1499 -0.8137
  340MOL0     H45878   4.072  11.588  -1.396  0.3930  1.4936 -0.0573
  340MOL0     H45879   4.042  11.693  -1.261 -2.2182 -0.5527  0.1318
  340MOL0     H45880   4.090  10.784  -0.863 -3.5059 -1.4777 -1.3764
  340MOL0     H45881   3.999  10.593  -0.770 -1.1162  1.2780 -1.8942
  340MOL0     H45882   3.955  10.187  -0.635  2.2277 -1.4669  0.8498
  340MOL0     H45883   3.856  10.004  -0.569  1.0562 -0.6388  2.0281
  340MOL0     H45884   3.417   9.837   1.002  0.1119 -0.8036 -0.8877
  340MOL0     H45885   3.497  10.056   0.876  1.2594  1.9712  1.4431
  340MOL0     H45886   3.662  10.338   0.726 -0.1059  0.5980 -3.1940
  340MOL0     H45887   3.670  10.576   0.687 -0.0996  2.3022  1.4970
  340MOL0     H45888   3.688  10.784   0.645  0.3404  0.4340  1.7868
  340MOL0     H45889   3.788  10.729   0.507  2.4615 -1.6517  1.4697
  340MOL0     H45890   3.754  10.963   0.478 -1.6419 -2.6945  0.9000
  340MOL0     H45891   3.920  10.918   0.536  0.9651  1.0998 -0.7016
  340MOL0     H45892   3.881  11.006   0.768 -1.0553  0.2241  1.7719
  340MOL0     H45893   3.715  11.007   0.738  0.3189  1.5021  0.9963
  340MOL0     H45894   3.856  11.184   0.543 -2.3479 -0.8801 -0.7508
  340MOL0     H45895   3.714  11.212   0.633 -0.0599 -0.4420  0.4054
  340MOL0     H45896   4.103  11.328   0.815 -0.9972  3.2626  0.4245
  340MOL0     H45897   4.087  10.585   0.741  0.4400  2.2174  2.0487
  340MOL0     H45898   4.198  10.427   0.876  0.5969 -0.8738 -2.4227
  340MOL0     H45899   4.099  10.314   0.981  1.5843 -2.5763 -0.5985
  340MOL0     H45900   4.161  10.279   0.817 -1.7954 -3.8224  3.4003
  341MOL0     O45901   1.547   1.262   8.382 -0.2172  0.7227 -0.5655
  341MOL0     C45902   1.598   1.325   8.288 -0.3950 -0.4905  1.3281
  341MOL0     O45903   1.538   1.354   8.159  0.1734 -0.3363 -0.3374
  341MOL0     C45904   1.419   1.299   8.141  1.4007  0.6992  1.1386
  341MOL0     C45905   1.325   1.393   8.093  0.0542 -0.4437 -0.3730
  341MOL0     C45906   1.198   1.347   8.057  0.2346  1.6465 -0.5375
  341MOL0     C45907   1.161   1.205   8.080  0.2783 -0.5753  0.3242
  341MOL0     O45908   1.040   1.155   8.047  0.0867 -0.1548  0.9986
  341MOL0     C45909   0.932   1.227   8.095 -0.3345 -0.1239  0.0985
  341MOL0     C45910   0.803   1.139   8.076 -0.2702  0.3541 -0.0313
  341MOL0     C45911   0.669   1.207   8.123 -0.7011  0.2527  0.9222
  341MOL0     C45912   0.671   1.279   8.260 -0.3715 -0.3688 -0.0440
  341MOL0     C45913   0.525   1.311   8.293 -0.1451 -0.5703  0.2723
  341MOL0     C45914   0.505   1.373   8.429  0.4955 -0.3860 -0.5375
  341MOL0     C45915   0.362   1.382   8.467  0.2856  0.6322  0.0450
  341MOL0     C45916   0.339   1.433   8.613 -0.5913 -0.5644  0.2065
  341MOL0     N45917   0.387   1.340   8.716 -1.2957  0.2871 -0.3476
  341MOL0     C45918   0.311   1.229   8.752  0.3193  0.1257 -0.6814
  341MOL0     C45919   0.372   1.167   8.860 -0.0032 -0.7728  0.8254
  341MOL0     C45920   0.321   1.054   8.940  0.4231  0.1606  0.0195
  341MOL0     C45921   0.242   1.099   9.062  0.3376 -0.2813  0.5865
  341MOL0     C45922   0.151   0.982   9.116 -0.3458 -0.7492  0.1867
  341MOL0     C45923   0.092   1.000   9.258 -0.5346  0.1821  0.1842
  341MOL0     O45924   0.193   1.002   9.364  0.2227  0.2540  0.6210
  341MOL0     C45925   0.167   0.978   9.496  0.2783  0.6280 -0.6076
  341MOL0     C45926   0.276   0.958   9.587  0.6091 -0.1425 -0.1924
  341MOL0     C45927   0.252   0.951   9.723  0.5558  0.1900  0.0821
  341MOL0     C45928   0.127   0.934   9.778 -0.2796  0.6317  0.1788
  341MOL0     C45929   0.100   0.905   9.925  0.0905 -0.2117 -0.4782
  341MOL0     O45930   0.207   0.914  10.012  0.2142  0.3562 -1.6134
  341MOL0     C45931   0.172   0.905  10.148 -1.0417 -0.6769 -0.3731
  341MOL0     C45932   0.076   0.995  10.208  0.9852  0.3919 -0.2620
  341MOL0     C45933   0.047   0.989  10.350 -0.5732 -1.4173  0.0740
  341MOL0     C45934   0.122   0.896  10.427  0.3277 -0.1279  0.1090
  341MOL0     O45935   0.092   0.863  10.557  0.5165  0.5558  0.0830
  341MOL0     C45936  -0.002   0.936  10.627  0.7869 -0.5086  0.2973
  341MOL0     C45937   0.010   0.875  10.763  0.0871  0.0052  0.0952
  341MOL0     C45938  -0.131   0.837  10.810 -0.6516  0.6167  0.3503
  341MOL0     C45939  -0.153   0.697  10.749 -0.0620  1.0674 -0.0547
  341MOL0     C45940  -0.301   0.654  10.753  0.0195 -0.3308  0.2810
  341MOL0     C45941  -0.386   0.729  10.653  1.2789  0.5109 -0.0685
  341MOL0     C45942  -0.526   0.681  10.674  0.2660  0.0752  0.0773
  341MOL0     C45943  -0.627   0.772  10.607 -0.5458  0.3005 -0.4174
  341MOL0    Cl45944  -0.605   0.780  10.438 -0.0920 -0.0548 -0.3713
  341MOL0     C45945   0.209   0.814  10.366  0.0316 -0.2209 -0.2979
  341MOL0     C45946   0.239   0.819  10.234 -0.0850  1.0854 -0.1834
  341MOL0     O45947  -0.011   0.869   9.953  0.1262  0.2398 -0.0238
  341MOL0     C45948   0.017   0.944   9.689 -0.4523  0.2285 -0.1495
  341MOL0     C45949   0.043   0.985   9.554  0.5212  0.0478  0.6308
  341MOL0     N45950   0.480   1.251   8.888  0.4618 -0.5741 -0.4053
  341MOL0     N45951   0.486   1.357   8.807 -0.0292  0.5966  0.0948
  341MOL0     C45952   1.254   1.118   8.136 -0.4927  0.5398  0.1054
  341MOL0     C45953   1.380   1.165   8.166 -0.5930  0.0435  0.5097
  341MOL0     C45954   1.734   1.371   8.320  0.1718  0.1051  0.4501
  341MOL0     C45955   1.820   1.401   8.212 -0.5995  0.2065 -0.2222
  341MOL0     C45956   1.945   1.457   8.229  0.3599  0.1467  0.1841
  341MOL0     C45957   1.994   1.471   8.357 -0.0356  0.4128 -1.0725
  341MOL0     O45958   2.128   1.512   8.368  0.0506  0.4312 -0.5843
  341MOL0     C45959   2.197   1.537   8.488  0.2288  0.2768  0.2260
  341MOL0     C45960   2.161   1.677   8.526  0.9402  0.2840 -0.1249
  341MOL0     C45961   2.272   1.771   8.469  0.2292 -0.4356  0.5399
  341MOL0     C45962   2.234   1.917   8.505 -0.2964  0.4755 -0.0080
  341MOL0     C45963   2.313   2.005   8.407  0.3531 -0.5405  0.2197
  341MOL0     C45964   2.382   2.072   8.331  0.8730 -0.8590  0.6614
  341MOL0     C45965   1.906   1.462   8.466 -0.0992 -0.0139  0.2311
  341MOL0     C45966   1.775   1.402   8.451 -0.1094 -0.0006 -0.2012
  341MOL0     C45967   1.695   1.405   8.579  0.6068 -0.5478  0.7922
  341MOL0     H45968   1.355   1.498   8.094 -1.6117  0.0873  1.6510
  341MOL0     H45969   1.128   1.416   8.009 -0.7914  0.4008 -0.8886
  341MOL0     H45970   0.954   1.244   8.201  3.2761 -1.5310 -0.2589
  341MOL0     H45971   0.924   1.320   8.039 -1.2151  0.3297  0.9474
  341MOL0     H45972   0.803   1.037   8.116 -1.2409  0.3283 -0.0585
  341MOL0     H45973   0.781   1.122   7.970 -0.6602  1.5870 -0.1644
  341MOL0     H45974   0.579   1.147   8.104 -0.2159  0.4198 -2.6222
  341MOL0     H45975   0.641   1.279   8.047  1.9109 -1.1636 -1.6011
  341MOL0     H45976   0.709   1.205   8.331 -0.8441  0.3312  0.9482
  341MOL0     H45977   0.738   1.366   8.256 -0.7991  0.0104  0.8557
  341MOL0     H45978   0.489   1.388   8.223  0.2783 -0.2456  0.4072
  341MOL0     H45979   0.478   1.212   8.291  0.9391 -1.1391  1.7871
  341MOL0     H45980   0.547   1.305   8.504  0.4630 -0.6289 -0.7390
  341MOL0     H45981   0.555   1.470   8.429  0.2688 -0.2499  0.8929
  341MOL0     H45982   0.308   1.288   8.457 -0.2787  1.1395 -2.2909
  341MOL0     H45983   0.306   1.438   8.391 -1.4001  0.5104  1.1539
  341MOL0     H45984   0.388   1.529   8.633 -1.1821 -0.5014  1.4084
  341MOL0     H45985   0.233   1.455   8.626 -0.0200  2.0607  1.1178
  341MOL0     H45986   0.220   1.214   8.695  0.2935  1.8386 -1.1363
  341MOL0     H45987   0.265   0.988   8.872  0.1726 -1.1387  1.4272
  341MOL0     H45988   0.406   0.991   8.969  0.7193 -0.8320 -2.7419
  341MOL0     H45989   0.305   1.134   9.145 -2.8016  1.6601  2.3352
  341MOL0     H45990   0.177   1.177   9.023  0.0600 -0.8771 -0.1718
  341MOL0     H45991   0.203   0.886   9.110 -0.6659 -0.8934 -0.3154
  341MOL0     H45992   0.062   0.979   9.053 -0.2444  1.2332 -0.1258
  341MOL0     H45993   0.017   0.923   9.274  1.4505 -1.2294  3.9720
  341MOL0     H45994   0.051   1.101   9.262  1.4744  1.0355  3.5208
  341MOL0     H45995   0.377   0.951   9.546 -0.1410 -2.7595 -1.8715
  341MOL0     H45996   0.334   0.934   9.792  2.0486  4.5728 -0.2406
  341MOL0     H45997   0.032   1.065  10.139  0.6863 -0.4020 -0.8916
  341MOL0     H45998  -0.031   1.054  10.388  1.9850  1.6746  0.4943
  341MOL0     H45999   0.030   1.040  10.625  0.1298 -0.3062 -1.2002
  341MOL0     H46000  -0.101   0.929  10.580  1.4819 -0.1437 -1.3069
  341MOL0     H46001   0.075   0.788  10.773 -0.2120 -0.1082  1.1816
  341MOL0     H46002   0.058   0.952  10.824 -0.7820 -0.9366  2.0189
  341MOL0     H46003  -0.131   0.838  10.920  1.2261  0.6863  0.3911
  341MOL0     H46004  -0.207   0.903  10.768 -2.4483 -0.7398  1.3008
  341MOL0     H46005  -0.107   0.623  10.815  1.3216  1.8263 -0.1456
  341MOL0     H46006  -0.110   0.689  10.649 -1.1753 -0.5638 -0.4409
  341MOL0     H46007  -0.335   0.662  10.856  1.6381 -1.8670  0.9942
  341MOL0     H46008  -0.318   0.548  10.733 -1.2167  0.0645 -0.9307
  341MOL0     H46009  -0.376   0.837  10.659  0.7894  0.5316  0.5320
  341MOL0     H46010  -0.352   0.690  10.556  0.8652 -1.2108  0.4279
  341MOL0     H46011  -0.540   0.683  10.783 -2.8976 -1.5489 -0.1830
  341MOL0     H46012  -0.546   0.577  10.645 -0.4375  0.2213  0.0348
  341MOL0     H46013  -0.732   0.758  10.633  0.1724 -1.4076  2.0187
  341MOL0     H46014  -0.607   0.874  10.644 -1.0962 -0.5955  2.6584
  341MOL0     H46015   0.259   0.733  10.419 -0.3542 -0.6456 -0.5811
  341MOL0     H46016   0.326   0.770  10.192 -0.0413 -1.4947  2.5924
  341MOL0     H46017  -0.084   0.929   9.726 -0.8998  2.1154 -0.5200
  341MOL0     H46018  -0.047   0.987   9.493  2.5381 -2.9217 -2.8177
  341MOL0     H46019   1.225   1.018   8.165 -0.6747  0.7777  0.7693
  341MOL0     H46020   1.451   1.095   8.208  0.5461  0.4120 -0.7495
  341MOL0     H46021   1.778   1.385   8.113 -0.6056 -2.7978  0.1746
  341MOL0     H46022   2.018   1.483   8.152  3.2565  1.1255  3.0088
  341MOL0     H46023   2.305   1.522   8.483  0.1708 -0.0571 -0.0314
  341MOL0     H46024   2.161   1.466   8.563 -0.7542 -1.0285 -1.4137
  341MOL0     H46025   2.152   1.697   8.633  3.0221 -4.3442  1.1262
  341MOL0     H46026   2.072   1.696   8.464  0.8863 -1.5964 -0.6754
  341MOL0     H46027   2.279   1.751   8.362  0.0642  0.5902  0.3238
  341MOL0     H46028   2.376   1.749   8.498  2.0774 -0.4145 -4.9790
  341MOL0     H46029   2.126   1.931   8.495 -0.3281 -0.1949 -0.6892
  341MOL0     H46030   2.260   1.937   8.609  0.0496 -0.6362  0.1289
  341MOL0     H46031   2.452   2.133   8.277  0.0453 -0.9893 -0.5858
  341MOL0     H46032   1.934   1.503   8.562 -4.9474  3.4026  0.5796
  341MOL0     H46033   1.629   1.492   8.576  1.0918 -0.1782 -1.8638
  341MOL0     H46034   1.641   1.310   8.584 -3.2110  1.5064  2.1125
  341MOL0     H46035   1.765   1.411   8.663  2.0234 -2.4388 -0.1660
  342MOL0     O46036   5.121   3.265   6.766  0.8102  0.4829  0.0657
  342MOL0     C46037   5.216   3.336   6.738 -0.2209  0.2448 -0.2216
  342MOL0     O46038   5.242   3.397   6.619  0.2824  0.0204  0.1214
  342MOL0     C46039   5.157   3.382   6.510  0.1293  0.2974  0.5195
  342MOL0     C46040   5.123   3.497   6.441  0.2979  0.0111 -0.8639
  342MOL0     C46041   5.041   3.490   6.329 -0.1740  0.0978  1.0550
  342MOL0     C46042   4.986   3.362   6.291 -0.2995  0.5569 -0.3749
  342MOL0     O46043   4.909   3.342   6.175  0.8742 -0.3469 -0.1987
  342MOL0     C46044   4.859   3.454   6.106  0.9538 -1.0684 -0.3634
  342MOL0     C46045   4.778   3.410   5.985  0.3623  0.0790  0.2076
  342MOL0     C46046   4.654   3.315   6.017  0.5196  0.2451 -0.2521
  342MOL0     C46047   4.539   3.328   5.920  1.0470  0.2248 -0.1786
  342MOL0     C46048   4.477   3.466   5.885 -0.0406  0.6919 -0.2981
  342MOL0     C46049   4.439   3.552   6.013 -0.6926  0.5290 -0.2261
  342MOL0     C46050   4.344   3.489   6.112 -0.1585 -0.1323  0.2948
  342MOL0     C46051   4.198   3.481   6.058  0.7480  0.3584 -0.0306
  342MOL0     N46052   4.128   3.453   6.185 -0.4586 -0.0926 -0.0149
  342MOL0     C46053   4.095   3.327   6.228 -0.4181 -0.3598 -0.0126
  342MOL0     C46054   4.003   3.349   6.329 -0.1201 -0.3481  0.0166
  342MOL0     C46055   3.944   3.224   6.393 -0.6953  0.3882 -0.2649
  342MOL0     C46056   3.810   3.169   6.325 -0.3941  0.2545  0.1081
  342MOL0     C46057   3.675   3.228   6.371 -0.0808  0.5124 -0.7068
  342MOL0     C46058   3.640   3.365   6.300  0.2891  0.1842  0.5947
  342MOL0     O46059   3.644   3.345   6.157  0.0778 -0.2535 -0.3772
  342MOL0     C46060   3.624   3.458   6.083  0.0040 -0.5319  0.8793
  342MOL0     C46061   3.523   3.551   6.104  0.2007  0.4099  0.3161
  342MOL0     C46062   3.495   3.649   6.011 -0.8455  0.7254  0.0023
  342MOL0     C46063   3.576   3.678   5.899  0.4899 -0.4668  0.7269
  342MOL0     C46064   3.554   3.795   5.814 -0.3845  0.4961 -0.4010
  342MOL0     O46065   3.624   3.800   5.692 -0.5435  0.6183  0.0050
  342MOL0     C46066   3.632   3.921   5.637  1.0009  0.8670 -0.2716
  342MOL0     C46067   3.713   4.012   5.689 -0.3121 -0.3616 -0.3352
  342MOL0     C46068   3.728   4.136   5.628 -0.0810 -0.1417 -0.5471
  342MOL0     C46069   3.662   4.162   5.507 -0.4259 -0.8644  0.5200
  342MOL0     O46070   3.666   4.296   5.459 -0.2144 -0.9528 -0.0886
  342MOL0     C46071   3.540   4.345   5.420 -0.5790 -0.2609  0.4607
  342MOL0     C46072   3.434   4.344   5.531 -0.0108  0.8610  0.4656
  342MOL0     C46073   3.469   4.379   5.665 -0.0612 -0.5971 -0.9085
  342MOL0     C46074   3.379   4.305   5.770  0.4377  0.0531  0.3996
  342MOL0     C46075   3.397   4.363   5.904  0.1719 -1.1112  0.7970
  342MOL0     C46076   3.312   4.297   6.008 -0.6423 -0.7237 -0.3885
  342MOL0     C46077   3.355   4.364   6.143  0.5122  0.9339 -0.6865
  342MOL0     C46078   3.295   4.284   6.263  0.1518 -1.0866  0.3657
  342MOL0    Cl46079   3.370   4.123   6.281 -0.3623  0.2588  0.1667
  342MOL0     C46080   3.588   4.061   5.444 -1.1865 -0.6382 -0.2011
  342MOL0     C46081   3.560   3.946   5.509 -0.6472 -0.3716  0.5600
  342MOL0     O46082   3.477   3.882   5.852  0.2916  0.1085  0.6991
  342MOL0     C46083   3.682   3.588   5.884  0.0673  0.2665 -0.1952
  342MOL0     C46084   3.707   3.483   5.968 -0.1400  0.3585 -0.0173
  342MOL0     N46085   3.992   3.482   6.357  0.2210  0.7555 -0.3559
  342MOL0     N46086   4.079   3.540   6.283  0.1378  0.0656  0.4227
  342MOL0     C46087   5.023   3.252   6.364  0.2551  0.1337  0.3008
  342MOL0     C46088   5.110   3.258   6.470  0.1505 -0.2724 -0.0843
  342MOL0     C46089   5.299   3.376   6.851  0.4969  0.7030  0.0406
  342MOL0     C46090   5.324   3.519   6.875 -0.1989 -0.0352  0.1317
  342MOL0     C46091   5.394   3.564   6.985  0.4450 -1.0220 -0.8650
  342MOL0     C46092   5.431   3.475   7.083 -1.0285  0.0153 -0.2836
  342MOL0     O46093   5.493   3.528   7.196  0.0695 -0.0101 -0.6954
  342MOL0     C46094   5.562   3.441   7.286  0.0892  0.1769  0.5661
  342MOL0     C46095   5.650   3.529   7.389  0.2116 -0.0051  0.0144
  342MOL0     C46096   5.797   3.491   7.401  0.2627  0.9366 -0.1131
  342MOL0     C46097   5.871   3.561   7.515 -0.4781 -1.0940 -0.3628
  342MOL0     C46098   5.900   3.698   7.475 -0.3849 -0.6496 -0.1925
  342MOL0     C46099   5.911   3.817   7.431 -0.3229 -0.5046 -0.7371
  342MOL0     C46100   5.403   3.344   7.071  0.3662 -0.0571 -0.5076
  342MOL0     C46101   5.336   3.288   6.955  0.3603  0.3610  1.4022
  342MOL0     C46102   5.320   3.139   6.957  0.2307 -1.4502 -0.1328
  342MOL0     H46103   5.163   3.591   6.477 -1.2728  0.3382  0.0702
  342MOL0     H46104   5.015   3.586   6.286 -0.6817  0.5739  2.3789
  342MOL0     H46105   4.803   3.522   6.172  3.8073  0.5641  0.6020
  342MOL0     H46106   4.938   3.523   6.073  0.1733 -0.4160 -0.9255
  342MOL0     H46107   4.846   3.355   5.920 -0.5914  0.2852 -0.9849
  342MOL0     H46108   4.748   3.489   5.916 -1.6398 -1.0037 -0.2540
  342MOL0     H46109   4.617   3.353   6.113  3.7298 -0.9571  1.6033
  342MOL0     H46110   4.667   3.209   6.039  0.9736  0.0079 -1.5799
  342MOL0     H46111   4.565   3.274   5.829  2.1009 -0.5220  0.5355
  342MOL0     H46112   4.462   3.265   5.966  1.2574  0.3268  0.3190
  342MOL0     H46113   4.540   3.517   5.812 -0.9090  1.9139 -0.2200
  342MOL0     H46114   4.382   3.444   5.835  0.4725  0.4704 -1.2017
  342MOL0     H46115   4.534   3.582   6.059 -1.9869  3.3975  0.7717
  342MOL0     H46116   4.390   3.647   5.993 -0.3025  1.0350  1.1206
  342MOL0     H46117   4.341   3.532   6.213  2.4549 -2.4206  1.4881
  342MOL0     H46118   4.373   3.385   6.133 -0.8534 -1.0667 -2.8960
  342MOL0     H46119   4.166   3.578   6.017  0.5330  0.9799  1.5351
  342MOL0     H46120   4.183   3.397   5.990  2.3590 -0.2214  0.2943
  342MOL0     H46121   4.114   3.225   6.196 -1.5629 -0.2732 -1.0611
  342MOL0     H46122   4.011   3.139   6.383  1.2262  1.6971  0.7658
  342MOL0     H46123   3.942   3.247   6.500  3.9600  0.2759  0.0272
  342MOL0     H46124   3.824   3.180   6.217 -0.0466  0.7226  0.1980
  342MOL0     H46125   3.806   3.066   6.359 -1.3239 -0.1020 -0.9982
  342MOL0     H46126   3.676   3.227   6.480  5.2992 -1.5746 -0.4822
  342MOL0     H46127   3.606   3.152   6.333  1.0292 -0.3738 -0.9987
  342MOL0     H46128   3.700   3.452   6.328 -0.6086  0.9818  0.0817
  342MOL0     H46129   3.537   3.366   6.336 -0.4949  1.6586 -1.4948
  342MOL0     H46130   3.471   3.537   6.198 -2.2178  0.5887 -0.8980
  342MOL0     H46131   3.414   3.720   6.025  0.3245  2.2251 -0.6387
  342MOL0     H46132   3.764   4.004   5.784 -1.1255  1.8648  0.3508
  342MOL0     H46133   3.783   4.217   5.674 -0.8930  1.0627 -1.6219
  342MOL0     H46134   3.544   4.441   5.368 -2.4099 -0.8471 -0.8853
  342MOL0     H46135   3.500   4.283   5.339 -1.0326  1.3023 -0.5561
  342MOL0     H46136   3.344   4.401   5.507 -0.0906 -0.5235 -3.2109
  342MOL0     H46137   3.391   4.244   5.538  2.6326 -0.6517 -2.3081
  342MOL0     H46138   3.570   4.346   5.689 -0.6192 -0.5147  1.8559
  342MOL0     H46139   3.459   4.488   5.671 -0.9488 -0.6732 -0.8535
  342MOL0     H46140   3.415   4.202   5.777 -0.3765 -0.4362 -1.8177
  342MOL0     H46141   3.272   4.306   5.749  0.9798  0.9071 -2.8783
  342MOL0     H46142   3.377   4.470   5.888 -1.2458 -1.4524  0.1159
  342MOL0     H46143   3.503   4.351   5.929  0.7353  2.1035  0.3843
  342MOL0     H46144   3.211   4.334   5.987  0.0192  0.6427 -1.2611
  342MOL0     H46145   3.313   4.188   6.000 -2.8690 -0.6219 -4.2406
  342MOL0     H46146   3.315   4.466   6.141  0.3148  0.8548 -2.0738
  342MOL0     H46147   3.464   4.364   6.139  0.7177 -2.0419  1.6003
  342MOL0     H46148   3.276   4.348   6.350 -1.2887 -0.6510 -0.2312
  342MOL0     H46149   3.190   4.260   6.241 -0.1619  0.2733  0.2686
  342MOL0     H46150   3.540   4.069   5.347 -0.1391  1.7356 -0.6144
  342MOL0     H46151   3.509   3.864   5.459  0.8373 -1.2702  0.4460
  342MOL0     H46152   3.749   3.610   5.801  1.9514 -2.0855  0.5954
  342MOL0     H46153   3.795   3.421   5.952  0.4553  0.9830  0.7681
  342MOL0     H46154   4.981   3.159   6.330 -1.0667 -0.0636  2.3076
  342MOL0     H46155   5.120   3.168   6.530  1.5661 -0.4079 -0.4869
  342MOL0     H46156   5.264   3.594   6.824 -1.2159 -1.2776 -0.5349
  342MOL0     H46157   5.400   3.670   7.007 -0.1230 -0.5422 -2.7919
  342MOL0     H46158   5.622   3.368   7.231  2.1789  1.8447  0.4741
  342MOL0     H46159   5.488   3.388   7.345 -0.5819 -0.4606 -0.8082
  342MOL0     H46160   5.620   3.512   7.493  1.3213  0.0562  0.3577
  342MOL0     H46161   5.636   3.632   7.355 -0.9935  0.5271  1.9507
  342MOL0     H46162   5.857   3.513   7.312  1.3556  0.3875  0.4614
  342MOL0     H46163   5.795   3.381   7.403  0.9480  0.9080 -0.5499
  342MOL0     H46164   5.811   3.565   7.606  1.2853 -0.5386  0.8197
  342MOL0     H46165   5.969   3.515   7.530 -0.6006 -0.9743  0.9240
  342MOL0     H46166   5.927   3.914   7.388 -1.3684 -0.3918 -0.8939
  342MOL0     H46167   5.425   3.272   7.149 -0.2513  0.4349  0.1385
  342MOL0     H46168   5.352   3.099   6.861 -0.7470 -5.0942  0.9299
  342MOL0     H46169   5.370   3.086   7.038 -2.6238 -0.0330  2.7842
  342MOL0     H46170   5.214   3.111   6.961 -0.4370  0.8670  0.2583
  343MOL0     O46171   4.333   0.037   2.278 -0.1698  0.0211 -0.1832
  343MOL0     C46172   4.300  -0.063   2.347  1.6574 -0.0804  0.4655
  343MOL0     O46173   4.387  -0.138   2.417 -0.1231 -0.5426  0.1361
  343MOL0     C46174   4.516  -0.114   2.448  0.0204  0.1306 -0.4955
  343MOL0     C46175   4.555  -0.142   2.578 -0.6336 -0.2843 -0.3910
  343MOL0     C46176   4.686  -0.119   2.613 -0.2576 -0.9538  0.3903
  343MOL0     C46177   4.783  -0.084   2.517 -0.1982 -0.0031  0.4833
  343MOL0     O46178   4.919  -0.078   2.556  0.1162 -0.1827  0.1820
  343MOL0     C46179   4.994   0.015   2.479 -0.6053  0.4469  0.5225
  343MOL0     C46180   5.125   0.046   2.555  0.3521  1.0119  0.0204
  343MOL0     C46181   5.213  -0.077   2.579  0.4004  0.5756  0.5561
  343MOL0     C46182   5.162  -0.192   2.673  0.1147  0.0507  0.0514
  343MOL0     C46183   5.122  -0.159   2.820  0.2277 -0.3376 -0.1520
  343MOL0     C46184   5.219  -0.086   2.918 -1.2489  0.7420  0.9531
  343MOL0     C46185   5.351  -0.168   2.932  0.0860 -0.3699 -0.3797
  343MOL0     C46186   5.447  -0.145   2.817  0.0909  1.2501  0.0602
  343MOL0     N46187   5.579  -0.140   2.864 -0.2289 -0.0693  0.0051
  343MOL0     C46188   5.660  -0.239   2.884 -0.0675  0.0777 -0.7706
  343MOL0     C46189   5.777  -0.184   2.935 -0.1497  0.4023 -0.4525
  343MOL0     C46190   5.900  -0.254   2.998  0.0316 -1.0577  0.3936
  343MOL0     C46191   5.880  -0.315   3.130 -0.4248 -0.0291 -0.6090
  343MOL0     C46192   6.004  -0.391   3.178 -0.6579 -1.0652  0.1411
  343MOL0     C46193   5.979  -0.427   3.323  0.1184  1.0344 -0.6541
  343MOL0     O46194   6.074  -0.529   3.364 -1.1638  0.3053  0.4519
  343MOL0     C46195   6.203  -0.525   3.325  0.0224 -0.5756 -0.9613
  343MOL0     C46196   6.262  -0.645   3.285 -0.9449  0.4439  0.2389
  343MOL0     C46197   6.394  -0.638   3.245 -0.8280 -0.0114  1.5889
  343MOL0     C46198   6.470  -0.515   3.251  0.5051  0.1073 -0.0753
  343MOL0     C46199   6.612  -0.504   3.204  0.4253  0.3716 -0.1052
  343MOL0     O46200   6.665  -0.380   3.218  0.7078 -0.3610  0.9846
  343MOL0     C46201   6.800  -0.360   3.222 -0.4339 -0.3236 -0.3354
  343MOL0     C46202   6.849  -0.251   3.147  1.1190 -0.2995  0.2143
  343MOL0     C46203   6.987  -0.227   3.149  0.7187  0.9319  0.5477
  343MOL0     C46204   7.076  -0.303   3.223  0.1587 -0.0249 -0.4137
  343MOL0     O46205   7.212  -0.278   3.238  0.8030  0.0775 -0.4470
  343MOL0     C46206   7.278  -0.155   3.216 -0.2218 -0.3929  0.4361
  343MOL0     C46207   7.311  -0.132   3.065 -0.2981  0.1400  0.1925
  343MOL0     C46208   7.432  -0.043   3.067  0.0548  0.1917  0.1435
  343MOL0     C46209   7.487  -0.016   2.919  0.4333  1.7535  0.4194
  343MOL0     C46210   7.592   0.095   2.932 -0.0919  0.3601  0.2242
  343MOL0     C46211   7.670   0.099   2.793 -0.2813 -0.5744  0.2307
  343MOL0     C46212   7.808   0.160   2.784 -0.6800  0.5663  0.2373
  343MOL0     C46213   7.924   0.071   2.834 -0.0465 -0.4324  0.1255
  343MOL0    Cl46214   7.904   0.048   3.007  0.3248 -0.3563 -0.2112
  343MOL0     C46215   7.021  -0.409   3.293 -0.5808  0.5650  0.0317
  343MOL0     C46216   6.884  -0.440   3.295 -0.2137  0.3379 -0.0863
  343MOL0     O46217   6.667  -0.611   3.166 -0.2478  0.3345 -0.0731
  343MOL0     C46218   6.402  -0.398   3.290 -0.7168  0.4707  0.3551
  343MOL0     C46219   6.274  -0.404   3.331 -0.7712  0.0963  0.5827
  343MOL0     N46220   5.753  -0.046   2.942  0.6096  0.0432  1.3648
  343MOL0     N46221   5.638  -0.020   2.897 -0.2357 -0.8738  0.6940
  343MOL0     C46222   4.745  -0.067   2.381  0.0844 -0.1668  1.3058
  343MOL0     C46223   4.609  -0.068   2.349 -0.4852 -0.2473  0.7006
  343MOL0     C46224   4.157  -0.113   2.333  0.0200  0.2808 -0.1504
  343MOL0     C46225   4.132  -0.251   2.343 -0.0218 -0.9663  0.0609
  343MOL0     C46226   4.006  -0.300   2.316 -0.7594  0.3527 -0.1566
  343MOL0     C46227   3.892  -0.220   2.294 -1.2223 -0.3193  0.0420
  343MOL0     O46228   3.759  -0.258   2.280 -0.4877  0.1685  0.0449
  343MOL0     C46229   3.714  -0.365   2.363  0.2681 -0.2326 -0.6515
  343MOL0     C46230   3.674  -0.301   2.491  0.4995  1.1591 -0.2990
  343MOL0     C46231   3.558  -0.203   2.473  1.0152 -0.0283  1.2293
  343MOL0     C46232   3.572  -0.096   2.577  0.1474  0.0868 -0.2983
  343MOL0     C46233   3.555  -0.151   2.721 -1.1729 -0.0878  1.1452
  343MOL0     C46234   3.552  -0.209   2.828  0.7675 -0.1381 -0.9234
  343MOL0     C46235   3.915  -0.083   2.291  0.1460 -0.4237  0.3869
  343MOL0     C46236   4.050  -0.028   2.302  0.2522 -0.1940  0.0426
  343MOL0     C46237   4.048   0.129   2.298  0.2254  0.0362  0.0333
  343MOL0     H46238   4.495  -0.178   2.661  2.8851 -0.1807  2.4228
  343MOL0     H46239   4.717  -0.132   2.716  1.4637 -5.2872 -0.4266
  343MOL0     H46240   5.016  -0.039   2.387 -0.3627 -4.1587  2.9746
  343MOL0     H46241   4.929   0.102   2.466 -0.4598  0.5287  0.3328
  343MOL0     H46242   5.111   0.094   2.652  0.2863  0.3883  0.3214
  343MOL0     H46243   5.188   0.109   2.490  0.9149 -0.7773 -1.2519
  343MOL0     H46244   5.303  -0.036   2.625  0.9461 -2.0521  2.0714
  343MOL0     H46245   5.242  -0.119   2.483 -2.7236  0.5197 -0.4839
  343MOL0     H46246   5.068  -0.232   2.635 -0.4221  0.9832  0.3633
  343MOL0     H46247   5.240  -0.269   2.676  0.1604  0.1201  2.2077
  343MOL0     H46248   5.030  -0.101   2.818 -0.2305 -0.3150  5.3994
  343MOL0     H46249   5.099  -0.251   2.874 -1.8541  1.8848  3.0932
  343MOL0     H46250   5.240   0.019   2.899  1.9994 -0.2749 -2.0142
  343MOL0     H46251   5.173  -0.094   3.017 -3.4531  1.4503  0.0389
  343MOL0     H46252   5.328  -0.274   2.939 -1.2846 -0.1255 -0.8214
  343MOL0     H46253   5.399  -0.128   3.022  0.3859 -0.1268 -0.6441
  343MOL0     H46254   5.439  -0.216   2.735  0.6565 -0.1723  1.1923
  343MOL0     H46255   5.426  -0.044   2.779 -1.7458  1.1587  0.7349
  343MOL0     H46256   5.654  -0.343   2.855 -2.0448 -0.5537  1.5778
  343MOL0     H46257   5.917  -0.337   2.928  0.6071 -0.6831  0.0824
  343MOL0     H46258   5.971  -0.171   2.996 -1.0583 -0.0936  0.1583
  343MOL0     H46259   5.846  -0.240   3.202 -3.3090 -2.3987  0.6594
  343MOL0     H46260   5.787  -0.372   3.129 -1.1736  1.0761 -3.4940
  343MOL0     H46261   6.095  -0.332   3.165 -0.4898 -1.9469 -4.3278
  343MOL0     H46262   6.012  -0.478   3.112  3.0670 -0.7784  0.0300
  343MOL0     H46263   5.875  -0.459   3.332  0.3467  0.5291  0.3006
  343MOL0     H46264   5.996  -0.351   3.400  1.8046 -1.4063  1.5973
  343MOL0     H46265   6.194  -0.730   3.282  2.0946 -2.1555 -1.1193
  343MOL0     H46266   6.427  -0.737   3.215 -2.8149 -0.1698 -0.3351
  343MOL0     H46267   6.777  -0.182   3.106 -0.7492 -2.2172  0.0992
  343MOL0     H46268   7.016  -0.136   3.097 -2.7713  0.8117 -1.9310
  343MOL0     H46269   7.231  -0.065   3.257 -0.0411  0.3678 -0.9852
  343MOL0     H46270   7.374  -0.181   3.261  0.5420  0.1617 -0.8392
  343MOL0     H46271   7.324  -0.231   3.023 -0.8300 -1.8423  4.2184
  343MOL0     H46272   7.225  -0.084   3.016  2.6011  2.4389 -3.1340
  343MOL0     H46273   7.395   0.050   3.110  0.1096  0.3361 -0.1186
  343MOL0     H46274   7.516  -0.078   3.128  1.7251 -0.1857 -2.2472
  343MOL0     H46275   7.407   0.006   2.847 -1.1657  0.1385  1.6227
  343MOL0     H46276   7.530  -0.107   2.877 -2.5422  0.9065 -1.1116
  343MOL0     H46277   7.658   0.076   3.017  1.5859 -1.5522 -1.4166
  343MOL0     H46278   7.550   0.193   2.955 -0.5641  0.4635 -1.0288
  343MOL0     H46279   7.675  -0.001   2.750 -2.8647 -1.0587  0.9030
  343MOL0     H46280   7.600   0.160   2.736  0.9882  2.8864  2.0304
  343MOL0     H46281   7.807   0.260   2.829  0.4932  0.6590  0.0836
  343MOL0     H46282   7.833   0.171   2.678 -2.7963 -0.4748 -0.4302
  343MOL0     H46283   7.914  -0.019   2.772 -1.1629  0.1271 -0.5403
  343MOL0     H46284   8.015   0.127   2.808 -1.5829  2.4122  0.5022
  343MOL0     H46285   7.093  -0.472   3.343  0.3729 -0.0436 -1.9778
  343MOL0     H46286   6.854  -0.531   3.345 -0.8759  0.2860 -0.5720
  343MOL0     H46287   6.451  -0.304   3.313  1.5607 -0.7013  0.5577
  343MOL0     H46288   6.250  -0.308   3.377  2.4096  0.2288  2.2753
  343MOL0     H46289   4.803  -0.054   2.290 -4.5164 -1.7470 -2.2660
  343MOL0     H46290   4.571  -0.056   2.248  0.7596  1.1150  0.3479
  343MOL0     H46291   4.206  -0.328   2.366 -1.9229 -2.0014  3.3982
  343MOL0     H46292   4.001  -0.408   2.328 -0.1400  0.4374  1.0709
  343MOL0     H46293   3.779  -0.454   2.362 -0.8500 -1.0835 -2.6923
  343MOL0     H46294   3.620  -0.407   2.327 -0.3957  2.1294 -1.8021
  343MOL0     H46295   3.758  -0.254   2.543  0.4493  2.3974 -1.3032
  343MOL0     H46296   3.646  -0.395   2.541  3.3651 -0.6027 -1.7600
  343MOL0     H46297   3.463  -0.256   2.483  1.2314 -0.4752  0.9202
  343MOL0     H46298   3.552  -0.146   2.380 -0.3629 -2.2726 -0.1388
  343MOL0     H46299   3.670  -0.050   2.561  2.3804 -4.0914  0.0455
  343MOL0     H46300   3.492  -0.021   2.565 -1.5822 -0.6940  4.4096
  343MOL0     H46301   3.536  -0.262   2.920  0.5755 -2.4247 -2.1787
  343MOL0     H46302   3.825  -0.024   2.285 -0.4794 -1.4611 -1.3405
  343MOL0     H46303   4.107   0.156   2.210 -0.7369  1.1170 -0.3054
  343MOL0     H46304   3.955   0.178   2.266  1.2168  1.2170 -1.1916
  343MOL0     H46305   4.100   0.175   2.383  2.2000 -0.1229 -1.0303
  344MOL0     O46306  11.430   5.711   9.515  0.2161 -0.1778  0.8102
  344MOL0     C46307  11.477   5.790   9.589  0.0002 -0.0106 -0.4300
  344MOL0     O46308  11.450   5.791   9.725  0.3878 -0.1470 -0.3442
  344MOL0     C46309  11.415   5.668   9.782 -0.8285  0.3499 -0.2088
  344MOL0     C46310  11.485   5.549   9.767  0.2352  0.0076  0.0212
  344MOL0     C46311  11.450   5.433   9.835 -0.0338 -0.6828 -0.2244
  344MOL0     C46312  11.357   5.437   9.937  1.1131 -0.0462  0.0931
  344MOL0     O46313  11.335   5.314  10.000  0.8242  0.4058 -0.3987
  344MOL0     C46314  11.205   5.287  10.053  0.0665 -0.9444  0.2796
  344MOL0     C46315  11.181   5.152  10.103 -0.4381 -0.4763  0.0203
  344MOL0     C46316  11.177   5.043   9.992  0.0743  0.7811  0.2897
  344MOL0     C46317  11.159   4.908  10.064 -1.2618 -0.0865 -0.0394
  344MOL0     C46318  11.134   4.795   9.953 -0.2622 -0.3036 -0.9676
  344MOL0     C46319  11.117   4.651  10.007 -0.1142  0.0505  0.6419
  344MOL0     C46320  10.969   4.639  10.055 -0.5127  0.4388  0.1411
  344MOL0     C46321  10.948   4.521  10.156 -0.6186  0.3151  0.9304
  344MOL0     N46322  10.808   4.494  10.190 -0.2108  0.3250  0.7488
  344MOL0     C46323  10.720   4.583  10.242 -0.3366  0.3920 -0.4960
  344MOL0     C46324  10.604   4.505  10.231  0.4425 -0.1178 -1.3690
  344MOL0     C46325  10.472   4.567  10.259 -0.1039  1.0644  0.5262
  344MOL0     C46326  10.385   4.584  10.129 -0.1277 -0.5488 -0.7936
  344MOL0     C46327  10.251   4.645  10.163  0.1357 -0.6088 -0.0698
  344MOL0     C46328  10.165   4.673  10.027  0.4785 -1.1320 -0.3416
  344MOL0     O46329  10.036   4.735  10.046 -1.1295  0.0729  0.3263
  344MOL0     C46330  10.024   4.870  10.057 -0.1476 -0.4272  0.3492
  344MOL0     C46331  10.129   4.961  10.069 -0.0140 -0.4037  0.1591
  344MOL0     C46332  10.100   5.091  10.111 -0.8792 -0.0478 -0.0346
  344MOL0     C46333   9.970   5.143  10.123  0.1502 -0.0231  0.4140
  344MOL0     C46334   9.949   5.293  10.150 -0.5156 -0.1843  0.2204
  344MOL0     O46335   9.817   5.342  10.165  0.1910  0.4798 -0.3522
  344MOL0     C46336   9.799   5.482  10.178 -1.0180  0.2997 -0.5673
  344MOL0     C46337   9.875   5.575  10.107 -0.4040 -0.3147 -0.3063
  344MOL0     C46338   9.877   5.709  10.142 -0.8538 -0.2496 -0.8487
  344MOL0     C46339   9.790   5.757  10.243  1.1370  0.5133  0.6006
  344MOL0     O46340   9.774   5.884  10.289  0.1334  0.2683 -0.0230
  344MOL0     C46341   9.834   5.991  10.209  0.4642 -0.5095 -0.1940
  344MOL0     C46342   9.888   6.096  10.300  0.0254 -0.5127  0.8322
  344MOL0     C46343   9.791   6.170  10.388  0.6801 -0.0923 -0.2299
  344MOL0     C46344   9.855   6.274  10.485  0.1406 -0.9176  0.0330
  344MOL0     C46345   9.745   6.298  10.592 -1.0528  0.3652 -0.3764
  344MOL0     C46346   9.776   6.409  10.693  0.9488 -0.3813 -0.2462
  344MOL0     C46347   9.668   6.433  10.791 -0.7760 -0.1226  0.7959
  344MOL0     C46348   9.721   6.537  10.893  0.4623 -0.4564 -0.3519
  344MOL0    Cl46349   9.769   6.441  11.031 -0.0997 -0.0385 -0.3181
  344MOL0     C46350   9.703   5.669  10.306 -0.0786 -0.5976  0.0439
  344MOL0     C46351   9.709   5.533  10.276  0.4764 -0.2664 -0.4670
  344MOL0     O46352  10.049   5.354  10.190 -0.1174  0.4564 -0.1621
  344MOL0     C46353   9.872   5.045  10.107 -0.2119  0.0864  0.3616
  344MOL0     C46354   9.898   4.915  10.080  0.1538 -0.0099 -0.7094
  344MOL0     N46355  10.627   4.376  10.196 -0.1018  0.5555 -0.0884
  344MOL0     N46356  10.747   4.375  10.152 -0.0474 -0.3294  0.4248
  344MOL0     C46357  11.284   5.558   9.956  1.0381  0.8360 -0.4834
  344MOL0     C46358  11.316   5.667   9.884  0.1239  0.0226  0.4954
  344MOL0     C46359  11.582   5.894   9.544 -0.0742  0.6849  0.4734
  344MOL0     C46360  11.670   5.936   9.645 -0.6342  0.1434  0.1879
  344MOL0     C46361  11.767   6.041   9.612 -0.3250  0.3619 -0.0917
  344MOL0     C46362  11.783   6.085   9.481  0.0587 -1.0837  0.4249
  344MOL0     O46363  11.867   6.187   9.429  0.2626  0.0285  0.3942
  344MOL0     C46364  11.971   6.244   9.512  0.8360 -0.2335  0.4376
  344MOL0     C46365  12.017   6.381   9.455 -0.7038  0.2031  0.3455
  344MOL0     C46366  11.923   6.497   9.507 -0.2249  0.0959 -0.3456
  344MOL0     C46367  11.948   6.632   9.426  0.5726 -0.1448  0.9479
  344MOL0     C46368  11.844   6.724   9.471 -0.4094  0.4939 -0.1508
  344MOL0     C46369  11.769   6.817   9.509  0.2160  1.2741 -0.3411
  344MOL0     C46370  11.701   6.038   9.380 -0.7129  0.0657 -0.1877
  344MOL0     C46371  11.594   5.946   9.412 -0.3892 -1.0779 -0.6933
  344MOL0     C46372  11.500   5.927   9.299  0.0136 -0.0535  0.2932
  344MOL0     H46373  11.570   5.560   9.700 -1.5048  1.8493 -2.0309
  344MOL0     H46374  11.501   5.342   9.805 -0.6300 -0.7806 -0.9681
  344MOL0     H46375  11.205   5.350  10.143  1.3573  0.4474 -0.6387
  344MOL0     H46376  11.130   5.322   9.982  0.4438 -1.8598 -0.5831
  344MOL0     H46377  11.081   5.163  10.147  0.5576 -1.0776  2.5945
  344MOL0     H46378  11.244   5.128  10.189 -0.0382  1.7517  0.4156
  344MOL0     H46379  11.273   5.049   9.939 -2.3795  3.1803 -4.4494
  344MOL0     H46380  11.100   5.060   9.917  1.3950  2.6038 -0.7337
  344MOL0     H46381  11.248   4.887  10.125 -1.3497  1.7519  0.7823
  344MOL0     H46382  11.074   4.908  10.132 -1.8562  2.0511 -0.7166
  344MOL0     H46383  11.043   4.833   9.905 -0.5146  1.0844  0.5228
  344MOL0     H46384  11.220   4.783   9.887  1.5266 -3.6345  1.6390
  344MOL0     H46385  11.147   4.576   9.934  2.6100  0.5433  1.1479
  344MOL0     H46386  11.183   4.642  10.094 -1.3228  1.8153  1.8221
  344MOL0     H46387  10.912   4.632   9.961 -2.2415 -0.1463  1.1905
  344MOL0     H46388  10.949   4.735  10.104 -3.7205  0.4210 -0.8965
  344MOL0     H46389  10.982   4.425  10.118 -2.0782 -0.2808  1.0527
  344MOL0     H46390  11.009   4.542  10.244  2.1767 -0.7380 -0.6360
  344MOL0     H46391  10.725   4.691  10.248  0.7606  0.2933  0.8686
  344MOL0     H46392  10.425   4.492  10.323  0.9885 -0.5769 -0.5162
  344MOL0     H46393  10.480   4.662  10.312 -1.3528  1.6779 -0.3179
  344MOL0     H46394  10.442   4.651  10.065  0.7362 -1.0982 -0.6260
  344MOL0     H46395  10.367   4.491  10.074 -0.9265  0.3397 -2.0847
  344MOL0     H46396  10.264   4.738  10.220 -2.3698  1.9222 -3.2188
  344MOL0     H46397  10.194   4.570  10.218 -0.5673  0.1529  0.2664
  344MOL0     H46398  10.161   4.574   9.982  0.5597 -0.5994 -1.5669
  344MOL0     H46399  10.225   4.739   9.963  1.6714 -0.7106  1.1366
  344MOL0     H46400  10.232   4.939  10.045  0.5270  1.3138  0.7587
  344MOL0     H46401  10.190   5.152  10.115 -0.7604 -0.2715  1.2659
  344MOL0     H46402   9.946   5.547  10.031  0.7323 -2.0191  1.2806
  344MOL0     H46403   9.960   5.771  10.111 -0.8369  0.5093  0.6157
  344MOL0     H46404   9.912   5.968  10.137  1.3356  3.5576 -0.7880
  344MOL0     H46405   9.751   6.026  10.147 -1.1193 -2.8244  0.4783
  344MOL0     H46406   9.973   6.066  10.362  0.0449  1.1733  1.6896
  344MOL0     H46407   9.931   6.177  10.241 -0.7307 -0.0949  0.8408
  344MOL0     H46408   9.718   6.219  10.323 -2.5756 -2.4468  1.3789
  344MOL0     H46409   9.741   6.096  10.451 -1.4448  2.2248  0.9876
  344MOL0     H46410   9.867   6.366  10.427 -2.6402 -1.1795 -1.1362
  344MOL0     H46411   9.958   6.257  10.515 -0.0531  0.8520  1.9352
  344MOL0     H46412   9.723   6.204  10.643 -1.1396  0.2947 -0.5418
  344MOL0     H46413   9.659   6.338  10.538 -0.0549 -0.9709 -3.1747
  344MOL0     H46414   9.870   6.402  10.747  0.1256  0.7248  1.4189
  344MOL0     H46415   9.792   6.501  10.636  0.4703  0.7475  1.3776
  344MOL0     H46416   9.640   6.334  10.829 -1.2188  0.5111  2.1712
  344MOL0     H46417   9.581   6.472  10.737  0.4765 -0.6734 -1.8339
  344MOL0     H46418   9.800   6.598  10.848  0.8946 -0.8670 -0.1672
  344MOL0     H46419   9.638   6.600  10.923 -0.0522 -0.6482 -1.3146
  344MOL0     H46420   9.640   5.709  10.385 -1.6716 -2.5924 -0.1191
  344MOL0     H46421   9.654   5.462  10.337  0.7984  1.1253  1.5331
  344MOL0     H46422   9.773   5.080  10.135  0.5398  1.2252  1.7125
  344MOL0     H46423   9.816   4.845  10.087 -2.3817  2.8600  0.7419
  344MOL0     H46424  11.211   5.568  10.035  1.6794 -1.6885  0.5338
  344MOL0     H46425  11.266   5.763   9.883 -2.1264 -0.9783 -2.9839
  344MOL0     H46426  11.680   5.898   9.746  7.0353 -0.0464 -0.0638
  344MOL0     H46427  11.837   6.063   9.692 -0.5162 -1.6384  0.6667
  344MOL0     H46428  12.056   6.174   9.509 -1.6422 -3.6120  1.9917
  344MOL0     H46429  11.944   6.248   9.618  2.0100 -1.3741  0.8134
  344MOL0     H46430  12.012   6.365   9.347 -0.2821 -2.4745  0.6508
  344MOL0     H46431  12.119   6.403   9.488 -0.6818 -1.1652  1.2707
  344MOL0     H46432  11.953   6.512   9.611  1.3358  0.6582 -0.8469
  344MOL0     H46433  11.817   6.468   9.502 -0.2380  0.3295 -2.6731
  344MOL0     H46434  12.048   6.674   9.439  0.4393  0.6755 -0.4519
  344MOL0     H46435  11.932   6.615   9.319 -0.2973  3.2330  0.4384
  344MOL0     H46436  11.696   6.889   9.538 -0.6062  0.7867 -1.1660
  344MOL0     H46437  11.713   6.078   9.280  1.0256  0.9081  0.3147
  344MOL0     H46438  11.505   5.831   9.247 -1.4610  0.7540 -1.4773
  344MOL0     H46439  11.401   5.948   9.342 -0.1768 -1.6796  0.6879
  344MOL0     H46440  11.503   5.998   9.216 -2.7824  3.2009  2.6714
  345MOL0     O46441   3.864   0.141  11.323  0.3804  0.1753 -0.5750
  345MOL0     C46442   3.922   0.043  11.276  0.5932 -0.1022 -0.1719
  345MOL0     O46443   4.061   0.034  11.245 -0.1872  0.8557  0.5116
  345MOL0     C46444   4.134   0.147  11.249 -0.7082 -0.0551  0.0316
  345MOL0     C46445   4.186   0.200  11.368 -0.5383  0.3080  0.1492
  345MOL0     C46446   4.263   0.315  11.379  0.5941 -0.5009 -0.0838
  345MOL0     C46447   4.285   0.390  11.263  0.0796  0.1847  0.8479
  345MOL0     O46448   4.371   0.496  11.267  0.1284  0.1450  0.4646
  345MOL0     C46449   4.371   0.589  11.155 -0.2609  0.6648 -0.5942
  345MOL0     C46450   4.418   0.720  11.208 -0.2271 -0.7019  0.6640
  345MOL0     C46451   4.387   0.821  11.104  0.2555 -0.7690  0.1159
  345MOL0     C46452   4.399   0.965  11.146  0.5498 -0.9076  0.4724
  345MOL0     C46453   4.398   1.063  11.025  0.0410  0.6727  0.5939
  345MOL0     C46454   4.523   1.064  10.952 -0.3417  0.4168  0.7530
  345MOL0     C46455   4.526   1.182  10.846  0.4090  0.3718  0.0948
  345MOL0     C46456   4.646   1.167  10.755  0.4649  0.8445 -0.2783
  345MOL0     N46457   4.643   1.271  10.656  0.1526 -0.8309  0.5648
  345MOL0     C46458   4.594   1.260  10.531  1.0553  0.0467  0.0450
  345MOL0     C46459   4.600   1.385  10.477 -0.3829  0.1908  1.1268
  345MOL0     C46460   4.547   1.433  10.339  0.5637  0.5866  0.5716
  345MOL0     C46461   4.468   1.566  10.338  0.1399  0.3582 -0.7077
  345MOL0     C46462   4.348   1.567  10.432 -0.3338 -0.7543  0.4166
  345MOL0     C46463   4.258   1.685  10.395  0.5796 -0.2182  0.6466
  345MOL0     O46464   4.185   1.662  10.280  0.4463  1.0788  0.4625
  345MOL0     C46465   4.137   1.776  10.218  0.7655  0.4209 -1.2715
  345MOL0     C46466   4.000   1.786  10.188 -0.9526  0.9652 -0.3157
  345MOL0     C46467   3.955   1.888  10.107  0.0627 -0.0760  0.6649
  345MOL0     C46468   4.038   1.998  10.065  0.7462  0.3278  0.2170
  345MOL0     C46469   3.978   2.105   9.985 -0.3119  0.7293  0.4452
  345MOL0     O46470   3.840   2.104   9.983 -0.4436  0.2086 -0.2184
  345MOL0     C46471   3.780   2.200   9.907  0.9998  0.0831  0.0995
  345MOL0     C46472   3.806   2.337   9.912  0.3456 -0.4062 -0.5295
  345MOL0     C46473   3.746   2.431   9.829  0.1459  0.2528  0.0903
  345MOL0     C46474   3.630   2.391   9.766  0.9391  0.8052  0.1448
  345MOL0     O46475   3.568   2.489   9.688  0.5441 -0.1728 -0.0251
  345MOL0     C46476   3.473   2.455   9.588  0.2675 -0.4385 -1.0501
  345MOL0     C46477   3.408   2.582   9.535 -0.0476 -0.3250 -0.4846
  345MOL0     C46478   3.490   2.664   9.442 -0.8240 -0.1042  0.3644
  345MOL0     C46479   3.445   2.812   9.454 -0.2488  0.1071 -0.0845
  345MOL0     C46480   3.293   2.833   9.432 -0.2876  0.1315 -0.0945
  345MOL0     C46481   3.240   2.790   9.294  0.2337  0.0704  0.1982
  345MOL0     C46482   3.109   2.853   9.242  0.5002 -0.0584 -1.0080
  345MOL0     C46483   3.004   2.839   9.356  0.7882 -0.5578  0.0479
  345MOL0    Cl46484   2.971   2.669   9.373  0.1997  0.1067  0.2755
  345MOL0     C46485   3.575   2.259   9.781  0.1203 -0.0523 -0.1840
  345MOL0     C46486   3.650   2.163   9.854  0.2374  0.3148  1.1997
  345MOL0     O46487   4.049   2.188   9.926 -0.5575 -0.4454  0.1347
  345MOL0     C46488   4.175   1.985  10.096  0.8887  0.0452  0.1310
  345MOL0     C46489   4.226   1.875  10.167 -0.2576  1.0837 -0.6274
  345MOL0     N46490   4.650   1.468  10.578  0.0842 -0.0416  0.6458
  345MOL0     N46491   4.684   1.403  10.683 -0.0386 -0.9200  0.2096
  345MOL0     C46492   4.246   0.332  11.139  0.1456  0.1533 -0.1787
  345MOL0     C46493   4.171   0.215  11.129 -0.5587 -0.0789 -0.5935
  345MOL0     C46494   3.826  -0.071  11.257 -0.1232 -0.3673  0.3362
  345MOL0     C46495   3.687  -0.049  11.242 -0.2990 -0.3245 -0.2192
  345MOL0     C46496   3.598  -0.160  11.242  0.1837 -0.0075  0.0625
  345MOL0     C46497   3.643  -0.288  11.250  1.2634  0.5531 -0.6553
  345MOL0     O46498   3.565  -0.405  11.265 -0.3011  0.1185  0.3027
  345MOL0     C46499   3.429  -0.397  11.206  0.1948 -0.7041  0.1137
  345MOL0     C46500   3.344  -0.521  11.222  0.5369 -0.4289 -0.3358
  345MOL0     C46501   3.431  -0.647  11.189 -0.1067  0.0266  0.1720
  345MOL0     C46502   3.356  -0.784  11.192 -0.4002  1.0500  0.6175
  345MOL0     C46503   3.261  -0.797  11.081  0.3743 -0.4346 -0.5906
  345MOL0     C46504   3.183  -0.825  10.993 -0.5635 -0.5296 -0.5127
  345MOL0     C46505   3.774  -0.306  11.259 -1.4073 -1.4618  0.1614
  345MOL0     C46506   3.869  -0.203  11.244  0.1347  0.0171  0.5052
  345MOL0     C46507   4.013  -0.245  11.231 -0.7187 -0.6536  0.3275
  345MOL0     H46508   4.178   0.148  11.463 -2.1535  2.7889  1.4892
  345MOL0     H46509   4.313   0.335  11.473 -2.0576  0.4695  1.2284
  345MOL0     H46510   4.441   0.553  11.079 -0.3715  3.2149 -2.0410
  345MOL0     H46511   4.273   0.604  11.109 -2.1478 -1.3769  2.4546
  345MOL0     H46512   4.523   0.713  11.237  0.7697 -0.0616 -2.4002
  345MOL0     H46513   4.361   0.747  11.297 -3.9253 -1.5363 -1.2224
  345MOL0     H46514   4.282   0.813  11.075  1.0342 -4.0654 -2.3900
  345MOL0     H46515   4.443   0.795  11.014 -1.0997 -2.4828 -0.2757
  345MOL0     H46516   4.314   0.983  11.212 -0.3306  0.0164 -0.8771
  345MOL0     H46517   4.486   0.981  11.212  0.8308  0.8546 -0.2662
  345MOL0     H46518   4.321   1.050  10.948  1.2432 -1.2423 -0.3637
  345MOL0     H46519   4.383   1.166  11.060 -0.9430  0.4386  0.8768
  345MOL0     H46520   4.608   1.077  11.020  0.1424  3.4226 -0.2945
  345MOL0     H46521   4.536   0.966  10.904  1.2152  1.3152 -0.7740
  345MOL0     H46522   4.522   1.273  10.906 -0.1923  0.1793  0.3594
  345MOL0     H46523   4.427   1.174  10.799  0.3287  1.9753 -0.0543
  345MOL0     H46524   4.736   1.168  10.817  0.5108 -0.9737 -0.2628
  345MOL0     H46525   4.633   1.065  10.716 -2.5567  1.0519 -0.0655
  345MOL0     H46526   4.553   1.166  10.499  2.1258 -2.0712  4.1645
  345MOL0     H46527   4.629   1.436  10.267  0.4277  1.4536  0.4424
  345MOL0     H46528   4.479   1.360  10.296  1.8318 -1.1262  1.3517
  345MOL0     H46529   4.536   1.649  10.361 -1.3203  1.4082 -0.0026
  345MOL0     H46530   4.430   1.581  10.237 -0.4455 -2.2119 -0.9538
  345MOL0     H46531   4.387   1.565  10.534 -0.4128 -0.6080  0.4502
  345MOL0     H46532   4.288   1.476  10.422 -0.2442 -0.6831 -0.8536
  345MOL0     H46533   4.317   1.778  10.395  1.8700 -1.0129 -0.2282
  345MOL0     H46534   4.183   1.679  10.475 -2.0485 -0.4450 -1.7135
  345MOL0     H46535   3.931   1.712  10.227 -0.0392  1.1434  1.8055
  345MOL0     H46536   3.851   1.881  10.075 -1.0909  3.1098  3.0297
  345MOL0     H46537   3.886   2.360   9.982  0.4682  2.2418 -1.4260
  345MOL0     H46538   3.773   2.534   9.811 -3.0489  0.5314 -4.9567
  345MOL0     H46539   3.519   2.390   9.513  0.9724  0.2854 -1.2562
  345MOL0     H46540   3.392   2.396   9.633  0.3315  1.9102  2.5813
  345MOL0     H46541   3.313   2.544   9.495  0.7578 -1.0926 -1.7366
  345MOL0     H46542   3.380   2.628   9.630 -2.1741  0.6619 -1.4896
  345MOL0     H46543   3.596   2.651   9.467 -0.4464  1.4975 -0.3094
  345MOL0     H46544   3.474   2.644   9.336  0.1459  0.6198  0.0652
  345MOL0     H46545   3.514   2.867   9.390  1.5166  0.3260  1.9000
  345MOL0     H46546   3.477   2.850   9.552  1.5534 -0.0968 -0.5680
  345MOL0     H46547   3.291   2.943   9.426 -0.1477  0.0660 -2.4695
  345MOL0     H46548   3.224   2.793   9.506 -0.8800 -1.6127 -1.5062
  345MOL0     H46549   3.312   2.821   9.218 -0.8210 -1.2357 -1.3865
  345MOL0     H46550   3.228   2.682   9.286 -0.7657  0.2573 -1.2497
  345MOL0     H46551   3.077   2.791   9.158  0.2156 -1.8900  0.3914
  345MOL0     H46552   3.114   2.955   9.203 -2.7077  0.0059 -1.5662
  345MOL0     H46553   3.031   2.878   9.454 -0.5937 -2.3405  1.2006
  345MOL0     H46554   2.917   2.898   9.328  1.1305  0.7010  1.5286
  345MOL0     H46555   3.481   2.232   9.734 -0.2878 -2.6661  1.8900
  345MOL0     H46556   3.627   2.057   9.859 -0.5507  0.2679 -1.6200
  345MOL0     H46557   4.250   2.053  10.055  2.9907 -2.1691  0.1149
  345MOL0     H46558   4.332   1.873  10.192  0.0613 -1.5872 -1.9231
  345MOL0     H46559   4.276   0.364  11.040 -3.0707  0.6356 -1.1091
  345MOL0     H46560   4.143   0.169  11.035  0.1234  0.0166 -0.8538
  345MOL0     H46561   3.650   0.053  11.236 -2.5748 -1.0970 -0.2631
  345MOL0     H46562   3.492  -0.141  11.227  0.6252  2.6695 -0.0720
  345MOL0     H46563   3.424  -0.371  11.099 -3.4970  0.6115  0.4674
  345MOL0     H46564   3.368  -0.326  11.264 -0.5258  0.8490 -2.3647
  345MOL0     H46565   3.252  -0.511  11.164 -1.7140  1.4875  3.1947
  345MOL0     H46566   3.298  -0.531  11.321  1.8634  2.4289  0.6819
  345MOL0     H46567   3.512  -0.648  11.262  0.9828 -2.2645 -0.9860
  345MOL0     H46568   3.485  -0.623  11.097  1.8524 -1.6023  0.8378
  345MOL0     H46569   3.429  -0.864  11.172 -2.2313 -1.5121  3.2814
  345MOL0     H46570   3.310  -0.799  11.289  0.6119  0.3200  1.0115
  345MOL0     H46571   3.112  -0.854  10.918  0.4405 -2.4784 -0.7639
  345MOL0     H46572   3.810  -0.407  11.243  4.7138  0.7084 -2.9201
  345MOL0     H46573   4.019  -0.353  11.215 -0.6800 -0.5179 -0.6308
  345MOL0     H46574   4.068  -0.198  11.148  0.0979 -0.7902  0.7877
  345MOL0     H46575   4.058  -0.218  11.327  1.6874  0.3784 -0.9750
  346MOL0     O46576   5.841   1.014   9.107  0.0906  0.0558  0.6612
  346MOL0     C46577   5.951   1.051   9.091 -0.0072 -0.3009 -0.7028
  346MOL0     O46578   6.052   0.987   9.027  0.0522 -0.2636  0.1183
  346MOL0     C46579   6.020   0.906   8.921  0.3161  0.5926  0.9925
  346MOL0     C46580   5.961   0.957   8.809 -0.6607  0.1406 -0.3637
  346MOL0     C46581   5.928   0.874   8.700 -0.2717 -0.5704 -0.4640
  346MOL0     C46582   5.953   0.739   8.706 -0.3509 -0.3583  0.0474
  346MOL0     O46583   5.920   0.674   8.593 -0.6985 -0.1431  1.1133
  346MOL0     C46584   5.926   0.536   8.567 -0.3088 -0.3718 -0.2531
  346MOL0     C46585   5.834   0.513   8.445  0.4626  0.1428 -0.1354
  346MOL0     C46586   5.791   0.370   8.437  0.3724  0.6064  0.0035
  346MOL0     C46587   5.923   0.278   8.430  0.2631  1.0946  0.1465
  346MOL0     C46588   5.899   0.135   8.386 -0.7118  0.1932 -0.0089
  346MOL0     C46589   6.022   0.030   8.411  0.2311 -0.2984  0.1012
  346MOL0     C46590   5.961  -0.105   8.411 -0.2873  0.9847  0.4756
  346MOL0     C46591   6.075  -0.202   8.404 -0.3384 -0.4961 -0.5340
  346MOL0     N46592   6.194  -0.175   8.489 -0.1428 -0.3575  0.3149
  346MOL0     C46593   6.196  -0.205   8.619 -0.1012 -0.2332 -0.2515
  346MOL0     C46594   6.323  -0.180   8.660  0.6405 -1.0161  0.0170
  346MOL0     C46595   6.383  -0.204   8.806 -0.4371 -0.7387  0.1570
  346MOL0     C46596   6.532  -0.192   8.813  0.5723  0.7969 -0.4086
  346MOL0     C46597   6.589  -0.248   8.947  0.2565  0.3368  0.2068
  346MOL0     C46598   6.729  -0.234   8.970 -1.0726 -0.8919 -0.1267
  346MOL0     O46599   6.762  -0.304   9.089 -0.4031  0.5921 -0.0557
  346MOL0     C46600   6.892  -0.354   9.082  0.3088  0.6334  0.1888
  346MOL0     C46601   6.918  -0.486   9.128  0.3590  0.8960 -0.5062
  346MOL0     C46602   7.050  -0.535   9.157 -0.4753  0.9397  0.3686
  346MOL0     C46603   7.161  -0.448   9.130 -0.3015  1.0410  0.3565
  346MOL0     C46604   7.300  -0.509   9.138 -0.0658  0.4651 -0.3645
  346MOL0     O46605   7.311  -0.642   9.167 -0.4466 -0.8067  0.2862
  346MOL0     C46606   7.437  -0.684   9.182 -0.4629  0.4700  0.2112
  346MOL0     C46607   7.501  -0.701   9.304  0.3833  0.1520 -0.0303
  346MOL0     C46608   7.642  -0.720   9.312 -0.4943  0.6870 -0.0189
  346MOL0     C46609   7.724  -0.741   9.201 -0.6015  0.6188  0.0259
  346MOL0     O46610   7.862  -0.774   9.215 -0.5451  0.8188  0.2854
  346MOL0     C46611   7.943  -0.860   9.128 -0.4335  0.5683  0.7947
  346MOL0     C46612   8.077  -0.788   9.091 -0.0445 -0.8626  0.7039
  346MOL0     C46613   8.050  -0.643   9.017  0.2349 -0.4564 -1.4895
  346MOL0     C46614   8.036  -0.652   8.864 -0.0495 -0.6126 -0.1444
  346MOL0     C46615   8.168  -0.698   8.800  0.1191 -0.9226 -0.8724
  346MOL0     C46616   8.157  -0.722   8.655  0.6811  0.6447 -0.8130
  346MOL0     C46617   8.282  -0.749   8.585 -0.4703  0.0852  0.4112
  346MOL0     C46618   8.271  -0.746   8.425  0.1468  0.5220 -0.6346
  346MOL0    Cl46619   8.435  -0.781   8.352  0.3229  0.1598 -0.1447
  346MOL0     C46620   7.654  -0.735   9.081  0.7619  0.1931  0.8531
  346MOL0     C46621   7.523  -0.697   9.069 -0.0867  0.0123  0.0217
  346MOL0     O46622   7.393  -0.431   9.138 -0.9061  0.3676 -1.0897
  346MOL0     C46623   7.138  -0.322   9.080 -0.6728 -0.1265 -0.4014
  346MOL0     C46624   7.005  -0.271   9.059  0.1074 -0.8071 -0.7265
  346MOL0     N46625   6.400  -0.138   8.552  0.0510  0.1110 -0.9467
  346MOL0     N46626   6.323  -0.135   8.448 -0.3314  0.1431  0.1826
  346MOL0     C46627   6.021   0.687   8.820  0.1577  0.2796  1.2819
  346MOL0     C46628   6.038   0.770   8.930 -0.4342 -0.6898 -0.7956
  346MOL0     C46629   5.999   1.193   9.146 -0.1279  0.9335  0.4364
  346MOL0     C46630   6.114   1.245   9.083 -0.7714  0.4918  0.4931
  346MOL0     C46631   6.170   1.369   9.122  0.4732  0.3625 -0.6595
  346MOL0     C46632   6.111   1.444   9.228 -0.2893 -0.4363  0.9952
  346MOL0     O46633   6.160   1.559   9.293  0.2488  0.0532 -0.1675
  346MOL0     C46634   6.225   1.646   9.208 -0.3929 -0.2702 -0.1656
  346MOL0     C46635   6.227   1.782   9.285  0.4909  0.2756  0.5118
  346MOL0     C46636   6.091   1.851   9.283 -0.0829 -0.3493 -0.5919
  346MOL0     C46637   6.103   1.982   9.360 -0.7226  0.0287 -0.0490
  346MOL0     C46638   5.982   2.073   9.351 -0.7513  0.0858  0.1850
  346MOL0     C46639   5.889   2.138   9.356  0.2067 -0.8034  0.1157
  346MOL0     C46640   5.987   1.397   9.280 -0.1987  0.0402  0.6938
  346MOL0     C46641   5.930   1.270   9.240  0.9311  0.0553  0.3910
  346MOL0     C46642   5.795   1.233   9.299 -1.2787 -0.6553 -1.0615
  346MOL0     H46643   5.949   1.064   8.795 -1.2800  0.0412 -0.6533
  346MOL0     H46644   5.884   0.933   8.620  0.3853  0.3039 -0.1940
  346MOL0     H46645   6.028   0.505   8.542  0.8300  0.5946  2.7356
  346MOL0     H46646   5.892   0.474   8.651 -0.9585 -1.0752 -1.0169
  346MOL0     H46647   5.882   0.542   8.351 -0.6045 -2.1161 -1.4531
  346MOL0     H46648   5.751   0.583   8.456  2.6692  2.6417  2.4017
  346MOL0     H46649   5.731   0.367   8.346  5.3565 -1.4563 -3.6639
  346MOL0     H46650   5.725   0.345   8.521 -0.9576  2.4049 -0.4388
  346MOL0     H46651   5.996   0.313   8.357  0.9211 -3.7057 -1.8589
  346MOL0     H46652   5.985   0.274   8.521 -0.7170  1.9702  0.8796
  346MOL0     H46653   5.813   0.100   8.445 -3.2290  0.8619 -3.0650
  346MOL0     H46654   5.866   0.127   8.282 -1.2612  2.3955 -0.0485
  346MOL0     H46655   6.093   0.049   8.330 -0.6490 -0.8331 -0.8378
  346MOL0     H46656   6.078   0.048   8.502  1.4829 -0.7854 -0.5552
  346MOL0     H46657   5.887  -0.131   8.334 -1.3407 -0.5620  1.9424
  346MOL0     H46658   5.906  -0.121   8.504  0.2992  0.3562  0.7172
  346MOL0     H46659   6.030  -0.301   8.414 -1.5470 -0.0447 -1.3414
  346MOL0     H46660   6.120  -0.199   8.304  2.3006 -2.0214  0.4821
  346MOL0     H46661   6.118  -0.247   8.681  0.4247 -1.1991 -0.2372
  346MOL0     H46662   6.327  -0.140   8.875 -1.8596 -2.5244  0.7315
  346MOL0     H46663   6.351  -0.305   8.831  0.2435 -1.3335 -1.3341
  346MOL0     H46664   6.563  -0.245   8.723 -0.4926  0.3577 -0.5284
  346MOL0     H46665   6.568  -0.089   8.801 -1.0113  1.6690  1.6883
  346MOL0     H46666   6.557  -0.353   8.949 -1.8811  0.7611 -3.1763
  346MOL0     H46667   6.544  -0.200   9.034  1.7699 -0.5721  1.5406
  346MOL0     H46668   6.763  -0.132   8.987  0.6307 -1.4766  0.2255
  346MOL0     H46669   6.784  -0.269   8.882  1.5254  4.8240 -1.2222
  346MOL0     H46670   6.831  -0.547   9.148 -0.3578  1.6710 -1.1516
  346MOL0     H46671   7.069  -0.633   9.201  0.4052  0.8110 -0.2647
  346MOL0     H46672   7.442  -0.683   9.393  0.8569  0.9773  0.1172
  346MOL0     H46673   7.689  -0.731   9.409 -0.1640 -0.8084 -0.3277
  346MOL0     H46674   7.960  -0.958   9.176 -3.3019 -0.1337  0.5722
  346MOL0     H46675   7.876  -0.885   9.045  0.0271 -0.8087  0.8096
  346MOL0     H46676   8.132  -0.768   9.183  0.5679 -0.1706  0.1930
  346MOL0     H46677   8.141  -0.858   9.038  0.9250  1.0390 -0.7621
  346MOL0     H46678   7.959  -0.599   9.058  1.8067  0.7943  0.8070
  346MOL0     H46679   8.127  -0.572   9.046  0.3255 -0.5013 -1.6201
  346MOL0     H46680   8.003  -0.554   8.828  0.6573 -0.2742  0.1167
  346MOL0     H46681   7.963  -0.731   8.844  0.5017 -1.4287  0.9809
  346MOL0     H46682   8.197  -0.787   8.856 -1.9080 -2.8989 -2.7775
  346MOL0     H46683   8.239  -0.618   8.820 -2.5798  0.6856  3.8448
  346MOL0     H46684   8.081  -0.798   8.637 -0.3963  1.3711  0.4749
  346MOL0     H46685   8.118  -0.633   8.606  0.8511  2.0945  1.5394
  346MOL0     H46686   8.324  -0.844   8.619 -2.2095 -1.6038 -1.9250
  346MOL0     H46687   8.355  -0.674   8.619 -1.6711  1.0923  0.8737
  346MOL0     H46688   8.207  -0.829   8.394  0.8598 -1.2571  2.2523
  346MOL0     H46689   8.230  -0.649   8.398  0.2496  0.7446 -0.0096
  346MOL0     H46690   7.703  -0.750   8.985  0.3627  0.3909  0.6091
  346MOL0     H46691   7.473  -0.664   8.978 -1.1860 -1.4485  0.0631
  346MOL0     H46692   7.219  -0.262   9.041 -1.4453 -1.6882 -4.9671
  346MOL0     H46693   6.988  -0.170   9.023  3.5051 -0.2325 -0.9925
  346MOL0     H46694   6.043   0.580   8.823 -1.1178  0.0159  3.4840
  346MOL0     H46695   6.083   0.722   9.016  1.0242  0.1059 -1.0785
  346MOL0     H46696   6.182   1.186   9.022  0.1466  2.5531 -0.5674
  346MOL0     H46697   6.263   1.413   9.087  0.7231 -0.5156 -1.1334
  346MOL0     H46698   6.179   1.658   9.109 -0.5172 -0.6348 -0.1545
  346MOL0     H46699   6.327   1.611   9.192  0.3562  1.9182 -0.6241
  346MOL0     H46700   6.284   1.852   9.224 -0.6421  0.5100 -0.3013
  346MOL0     H46701   6.279   1.777   9.381  2.3331 -1.9865 -0.5066
  346MOL0     H46702   6.005   1.801   9.330  1.5441 -2.4152  0.3551
  346MOL0     H46703   6.062   1.861   9.178 -2.8036 -3.8761 -0.3676
  346MOL0     H46704   6.112   1.962   9.467 -0.9367 -1.5786 -0.3115
  346MOL0     H46705   6.197   2.028   9.327  1.0239 -2.6762  0.8435
  346MOL0     H46706   5.792   2.180   9.378  0.7371  1.4232 -1.4013
  346MOL0     H46707   5.943   1.467   9.350 -0.0657  0.5088  0.3206
  346MOL0     H46708   5.757   1.319   9.355  0.1741 -0.0237 -0.9966
  346MOL0     H46709   5.720   1.220   9.221  1.4135  2.0561 -4.4617
  346MOL0     H46710   5.820   1.151   9.367 -0.5158  1.1392  0.9338
  347MOL0     O46711   9.863   7.913   6.326  0.8183  0.0120  0.2498
  347MOL0     C46712   9.883   7.804   6.388 -0.3177  0.7797  0.2859
  347MOL0     O46713  10.008   7.751   6.427 -0.6799 -0.2286 -0.7408
  347MOL0     C46714  10.128   7.821   6.430 -0.0872 -0.1606  0.6325
  347MOL0     C46715  10.145   7.959   6.434 -0.3150 -1.2631  0.4020
  347MOL0     C46716  10.271   8.021   6.457  0.7475 -0.7934  0.8103
  347MOL0     C46717  10.384   7.942   6.463  0.5388  1.0051 -0.2980
  347MOL0     O46718  10.505   8.007   6.462  0.7438  0.1036  0.3525
  347MOL0     C46719  10.610   7.962   6.546 -0.0627 -0.4446 -0.9903
  347MOL0     C46720  10.722   8.068   6.549 -0.6338 -0.1175 -0.4662
  347MOL0     C46721  10.857   8.007   6.600  0.2656 -0.4198  0.2410
  347MOL0     C46722  10.852   8.021   6.752  0.7170 -0.6238 -0.9022
  347MOL0     C46723  10.958   7.929   6.809 -0.2268 -0.3148  0.3686
  347MOL0     C46724  11.104   7.950   6.765 -0.0454 -0.5901 -1.0956
  347MOL0     C46725  11.200   7.852   6.840 -0.0055 -0.5147 -0.1169
  347MOL0     C46726  11.332   7.854   6.773 -0.0573 -0.4248 -0.6990
  347MOL0     N46727  11.421   7.749   6.833 -1.3200 -1.0008 -1.1845
  347MOL0     C46728  11.405   7.615   6.796 -0.9394  0.5100  0.0052
  347MOL0     C46729  11.487   7.545   6.889 -0.3840 -0.1405  0.9044
  347MOL0     C46730  11.520   7.398   6.890  0.8671 -0.6844 -0.8239
  347MOL0     C46731  11.664   7.357   6.843 -0.6898 -0.7614  1.2165
  347MOL0     C46732  11.663   7.205   6.809 -0.3456  0.6171  0.4396
  347MOL0     C46733  11.703   7.121   6.926 -0.8201  0.0042  0.2702
  347MOL0     O46734  11.696   6.977   6.914  0.2203 -0.7310 -0.5974
  347MOL0     C46735  11.711   6.899   7.025  0.8363  0.0626  0.7607
  347MOL0     C46736  11.756   6.947   7.143  0.8993  0.4619 -0.4463
  347MOL0     C46737  11.760   6.872   7.255  0.0596 -0.0503 -0.2267
  347MOL0     C46738  11.747   6.728   7.238  0.4316  0.0571  0.3619
  347MOL0     C46739  11.772   6.637   7.354 -0.3730  0.2368  0.8623
  347MOL0     O46740  11.832   6.687   7.457 -0.7270  0.0910  0.2400
  347MOL0     C46741  11.880   6.609   7.565  0.2680  0.2601  0.5911
  347MOL0     C46742  11.932   6.478   7.567  0.3309  0.2437  0.5587
  347MOL0     C46743  11.943   6.403   7.672 -0.5372  0.7067  0.4952
  347MOL0     C46744  11.957   6.458   7.798  0.1684 -0.1036 -0.2812
  347MOL0     O46745  11.998   6.382   7.900  0.1626  1.0414 -0.1446
  347MOL0     C46746  12.101   6.438   7.973  0.4571 -0.8764  0.6418
  347MOL0     C46747  12.157   6.338   8.062  0.6693 -0.1661 -0.1030
  347MOL0     C46748  12.303   6.366   8.072  0.6721 -0.2853 -0.1311
  347MOL0     C46749  12.362   6.291   8.194 -1.0397  0.2413 -0.3374
  347MOL0     C46750  12.491   6.350   8.245  0.0547 -0.2467 -0.0477
  347MOL0     C46751  12.572   6.248   8.333 -0.1628 -0.1968  0.2898
  347MOL0     C46752  12.722   6.295   8.347 -0.0632  0.7494 -0.2294
  347MOL0     C46753  12.786   6.231   8.467  0.5511  0.2587 -0.6055
  347MOL0    Cl46754  12.818   6.064   8.438  0.2904  0.4014  0.2235
  347MOL0     C46755  11.926   6.592   7.806  0.1254  0.7885 -0.2330
  347MOL0     C46756  11.880   6.662   7.690 -0.2390 -0.9219 -0.6294
  347MOL0     O46757  11.736   6.519   7.347  0.8853 -0.5433 -0.2019
  347MOL0     C46758  11.725   6.672   7.106 -0.2175 -0.5231 -0.3244
  347MOL0     C46759  11.692   6.764   7.008 -0.1179  0.2942 -0.8514
  347MOL0     N46760  11.546   7.640   6.971  1.1468  0.5722 -0.2118
  347MOL0     N46761  11.503   7.760   6.940 -0.2327 -0.4018  0.1811
  347MOL0     C46762  10.367   7.801   6.453 -0.4042  0.4703 -0.2278
  347MOL0     C46763  10.246   7.743   6.444 -0.3908 -0.6544 -0.4605
  347MOL0     C46764   9.768   7.719   6.397 -0.2362  1.5552 -0.5642
  347MOL0     C46765   9.777   7.582   6.371  0.2861 -0.4341  0.0896
  347MOL0     C46766   9.682   7.487   6.402  0.4037  0.8190 -0.1647
  347MOL0     C46767   9.561   7.518   6.457  0.3814 -0.6127  0.9770
  347MOL0     O46768   9.453   7.439   6.474 -0.0666  0.5053  0.1052
  347MOL0     C46769   9.483   7.300   6.465 -0.0945  0.2170  0.2140
  347MOL0     C46770   9.346   7.234   6.499  0.3226 -0.0190  0.4321
  347MOL0     C46771   9.374   7.074   6.505  0.8841 -0.5063 -1.0853
  347MOL0     C46772   9.235   6.999   6.511 -0.9001 -0.4732 -0.2917
  347MOL0     C46773   9.229   6.872   6.449  0.0266  0.7917 -0.2397
  347MOL0     C46774   9.220   6.773   6.378 -0.2127 -0.1936 -0.0130
  347MOL0     C46775   9.542   7.656   6.465  0.6306  0.1600  0.5094
  347MOL0     C46776   9.639   7.759   6.432  0.3379  0.9315 -0.5341
  347MOL0     C46777   9.605   7.898   6.480 -1.5440 -0.1380 -0.8673
  347MOL0     H46778  10.064   8.031   6.425 -1.1029 -2.0560  0.8390
  347MOL0     H46779  10.265   8.129   6.445  0.9705 -0.9012 -0.4519
  347MOL0     H46780  10.586   7.932   6.648  6.5299 -1.6158  0.7330
  347MOL0     H46781  10.649   7.872   6.497  1.1801  0.1016 -1.0424
  347MOL0     H46782  10.693   8.155   6.609  0.2244  0.9645 -1.5791
  347MOL0     H46783  10.734   8.115   6.451 -0.5318 -2.2419 -1.5317
  347MOL0     H46784  10.938   8.070   6.562 -0.5261  0.7136  0.3678
  347MOL0     H46785  10.873   7.904   6.568 -0.5468 -1.2950  2.4590
  347MOL0     H46786  10.870   8.121   6.792  1.0262 -1.6206  1.6729
  347MOL0     H46787  10.752   8.001   6.792 -0.1368  0.5074 -2.3458
  347MOL0     H46788  10.966   7.935   6.918  2.8862  0.3042  0.2078
  347MOL0     H46789  10.928   7.830   6.774 -0.7473  0.5075 -1.6247
  347MOL0     H46790  11.109   7.923   6.659 -1.9123  0.7917 -1.5880
  347MOL0     H46791  11.137   8.052   6.785  1.7716 -1.2596 -0.3908
  347MOL0     H46792  11.160   7.750   6.844 -0.6135 -0.3101  4.5607
  347MOL0     H46793  11.207   7.901   6.938 -2.6026  4.1647 -1.9234
  347MOL0     H46794  11.317   7.823   6.670  0.9359 -2.0505 -0.3967
  347MOL0     H46795  11.388   7.947   6.782  2.4565 -1.8389 -1.0001
  347MOL0     H46796  11.356   7.567   6.711  1.7255 -1.4341 -0.5827
  347MOL0     H46797  11.502   7.359   6.991  0.8038 -4.2575 -2.0669
  347MOL0     H46798  11.449   7.351   6.821 -1.4006  1.9928 -0.5026
  347MOL0     H46799  11.687   7.409   6.749  0.1658  0.3458  2.0009
  347MOL0     H46800  11.732   7.395   6.920 -1.3976  1.0924  0.9758
  347MOL0     H46801  11.740   7.196   6.732 -2.4559 -1.1128 -1.5917
  347MOL0     H46802  11.569   7.161   6.774  0.6402 -2.3870  1.3068
  347MOL0     H46803  11.633   7.149   7.005 -1.6989  2.0318 -1.1376
  347MOL0     H46804  11.807   7.143   6.953 -0.0416 -2.1094 -0.7718
  347MOL0     H46805  11.780   7.052   7.157  0.9789  0.3700  0.1094
  347MOL0     H46806  11.809   6.897   7.349  2.4748  0.9784 -1.6509
  347MOL0     H46807  11.956   6.424   7.476 -0.2052 -2.5962  2.0023
  347MOL0     H46808  11.980   6.301   7.660 -3.1277 -0.0863 -1.8302
  347MOL0     H46809  12.177   6.464   7.898  0.8665 -2.1638  0.5792
  347MOL0     H46810  12.069   6.521   8.037 -2.0530 -1.7045  0.5848
  347MOL0     H46811  12.107   6.357   8.158  2.2327  0.4724  0.6244
  347MOL0     H46812  12.141   6.234   8.034 -1.0595  0.2076 -0.6646
  347MOL0     H46813  12.357   6.318   7.990  2.4048  2.3196 -0.6188
  347MOL0     H46814  12.316   6.474   8.074  1.0333 -0.2709 -1.7850
  347MOL0     H46815  12.369   6.184   8.173 -0.2632 -0.4660  2.9748
  347MOL0     H46816  12.291   6.305   8.276 -1.0287 -1.5005 -0.0035
  347MOL0     H46817  12.471   6.436   8.309 -1.5141 -0.9716  0.5131
  347MOL0     H46818  12.550   6.387   8.161  0.9660 -0.9901  0.2524
  347MOL0     H46819  12.533   6.241   8.435  1.8038  1.7777  1.2529
  347MOL0     H46820  12.563   6.151   8.284  0.4249  0.0465 -0.3060
  347MOL0     H46821  12.726   6.404   8.359  0.8730  0.6326  0.6418
  347MOL0     H46822  12.777   6.267   8.256 -3.1411 -3.5379 -1.0251
  347MOL0     H46823  12.884   6.271   8.491 -0.8020  2.1816  2.3342
  347MOL0     H46824  12.724   6.242   8.557  2.1334 -0.2455  0.5753
  347MOL0     H46825  11.935   6.640   7.903  1.5227  0.3011 -0.1026
  347MOL0     H46826  11.868   6.768   7.710  0.5008 -0.7816 -0.9291
  347MOL0     H46827  11.720   6.568   7.075 -3.0344 -0.4438 -0.3946
  347MOL0     H46828  11.655   6.726   6.913 -6.0175 -2.1564  1.9036
  347MOL0     H46829  10.466   7.758   6.448 -0.9374 -0.7527 -0.5310
  347MOL0     H46830  10.248   7.635   6.429  2.4631 -0.3820 -3.0957
  347MOL0     H46831   9.875   7.549   6.337 -0.2439 -2.3970  0.3893
  347MOL0     H46832   9.710   7.382   6.390 -1.0239  0.3535  0.2758
  347MOL0     H46833   9.557   7.271   6.540 -0.4210  0.6108  0.6966
  347MOL0     H46834   9.521   7.272   6.367 -1.5029  1.0370 -0.6048
  347MOL0     H46835   9.269   7.249   6.423  0.2576 -4.4397 -0.6309
  347MOL0     H46836   9.307   7.282   6.590 -2.2224  1.4843 -1.3171
  347MOL0     H46837   9.413   7.032   6.599 -3.7401 -0.6011  1.0691
  347MOL0     H46838   9.452   7.033   6.440  2.8635  0.4002  0.6092
  347MOL0     H46839   9.198   6.978   6.612 -0.4555 -1.6551 -0.3610
  347MOL0     H46840   9.172   7.071   6.458  2.6440  2.9947 -0.2788
  347MOL0     H46841   9.228   6.696   6.304  0.6542  0.9071 -1.1111
  347MOL0     H46842   9.458   7.694   6.522  2.5382  0.8492  3.0588
  347MOL0     H46843   9.569   7.950   6.391  2.2295 -1.4857 -3.4526
  347MOL0     H46844   9.528   7.898   6.557 -0.4868 -1.9426  0.2510
  347MOL0     H46845   9.687   7.957   6.521  0.2590 -2.6450 -0.6181
  348MOL0     O46846   3.486   6.453   4.804 -0.4522  0.2188 -0.1878
  348MOL0     C46847   3.452   6.454   4.920 -0.1762 -0.3750 -0.5329
  348MOL0     O46848   3.513   6.381   5.024 -0.5545  0.4304 -0.2532
  348MOL0     C46849   3.605   6.281   4.992  0.0323 -0.5696  0.3999
  348MOL0     C46850   3.579   6.147   5.031  0.2563  0.8605  0.6755
  348MOL0     C46851   3.672   6.039   5.004 -1.2734  0.0167 -0.2546
  348MOL0     C46852   3.794   6.077   4.942 -0.1132 -0.3856 -0.3702
  348MOL0     O46853   3.898   5.988   4.918 -0.3052  0.1723 -0.7653
  348MOL0     C46854   3.846   5.857   4.868  1.0586  0.4907  0.5551
  348MOL0     C46855   3.959   5.760   4.823  0.2614 -0.3822 -0.4381
  348MOL0     C46856   4.070   5.734   4.924  0.1013  0.1620  0.0367
  348MOL0     C46857   4.041   5.689   5.076 -0.0512 -0.2410  0.6346
  348MOL0     C46858   4.152   5.686   5.172 -0.3644  0.2087 -1.3306
  348MOL0     C46859   4.114   5.720   5.316 -0.5677  0.3938  0.2035
  348MOL0     C46860   4.232   5.758   5.416 -0.4734 -0.1705  0.1535
  348MOL0     C46861   4.278   5.904   5.407  0.2558  0.0386 -0.9739
  348MOL0     N46862   4.418   5.934   5.378  0.3469 -0.2419  0.1537
  348MOL0     C46863   4.484   5.909   5.265 -0.0052  0.5013  0.2933
  348MOL0     C46864   4.605   5.958   5.294 -0.5130  0.4293  0.4579
  348MOL0     C46865   4.718   5.952   5.197  0.5034  1.1711 -0.2886
  348MOL0     C46866   4.817   6.079   5.183  0.3780 -0.9276  0.0476
  348MOL0     C46867   4.905   6.094   5.303 -0.0861  1.0441  0.5918
  348MOL0     C46868   4.988   6.214   5.299 -0.2700  0.1014  0.6415
  348MOL0     O46869   5.063   6.237   5.176 -0.0931  0.2576 -0.0102
  348MOL0     C46870   5.054   6.354   5.106 -0.2463  0.1655 -0.6840
  348MOL0     C46871   5.111   6.360   4.981  0.9248 -0.3158 -0.1913
  348MOL0     C46872   5.122   6.479   4.915  0.1706 -0.6050  0.5175
  348MOL0     C46873   5.070   6.602   4.966  0.1407 -0.0810 -0.6247
  348MOL0     C46874   5.093   6.725   4.890 -0.9785  0.3875  0.6982
  348MOL0     O46875   5.178   6.723   4.778  0.0774 -0.3336 -0.2669
  348MOL0     C46876   5.206   6.841   4.704 -0.3064 -0.2872  0.1957
  348MOL0     C46877   5.182   6.845   4.571  0.5322 -0.4885 -0.1490
  348MOL0     C46878   5.230   6.952   4.489  0.1522 -0.4043 -0.0781
  348MOL0     C46879   5.305   7.058   4.558 -0.7319  0.0865  0.1908
  348MOL0     O46880   5.330   7.171   4.485  0.0313 -0.0588  0.5096
  348MOL0     C46881   5.422   7.266   4.544  0.1424 -0.2164  0.1162
  348MOL0     C46882   5.417   7.391   4.454 -0.2392  0.2189  0.2033
  348MOL0     C46883   5.438   7.383   4.294  0.0154 -0.0722 -0.6700
  348MOL0     C46884   5.580   7.430   4.257 -0.7071  0.5162  0.2231
  348MOL0     C46885   5.590   7.475   4.110  0.1033 -0.6371 -0.0561
  348MOL0     C46886   5.553   7.355   4.016 -0.7042 -0.6154  0.3206
  348MOL0     C46887   5.585   7.391   3.871  0.4709 -0.7741  0.6569
  348MOL0     C46888   5.589   7.268   3.779  0.7968  0.7069 -1.1604
  348MOL0    Cl46889   5.693   7.285   3.640  0.0163 -0.1750  0.5940
  348MOL0     C46890   5.336   7.041   4.687  0.1888 -0.0581 -0.7174
  348MOL0     C46891   5.290   6.939   4.758  0.4725  0.5356 -0.0181
  348MOL0     O46892   5.033   6.827   4.923 -0.6065  0.5356 -0.1656
  348MOL0     C46893   5.019   6.597   5.101  0.7512 -0.1313  0.5432
  348MOL0     C46894   5.014   6.471   5.161 -0.0227 -0.1265  0.6383
  348MOL0     N46895   4.608   6.016   5.423  0.7562  0.2669  0.0605
  348MOL0     N46896   4.492   6.004   5.467  0.0143  0.3362 -0.4518
  348MOL0     C46897   3.817   6.209   4.899  0.5878  0.8326 -0.5445
  348MOL0     C46898   3.723   6.310   4.919  1.0783  0.4406 -0.5429
  348MOL0     C46899   3.359   6.548   4.968 -0.2650  0.8204 -0.4414
  348MOL0     C46900   3.389   6.684   4.940 -0.6724 -0.1115 -0.0912
  348MOL0     C46901   3.322   6.787   5.003  0.0513 -0.7822  0.0732
  348MOL0     C46902   3.215   6.758   5.083  0.9831 -0.1720  0.3459
  348MOL0     O46903   3.141   6.870   5.115  0.1861  0.6649  0.0746
  348MOL0     C46904   3.012   6.847   5.183  0.0711 -0.2196 -0.2960
  348MOL0     C46905   2.935   6.969   5.216 -0.2490 -0.6128  0.3588
  348MOL0     C46906   2.783   6.946   5.229 -0.0084  0.0178 -0.3744
  348MOL0     C46907   2.749   6.877   5.363  0.4943  0.4849  1.6060
  348MOL0     C46908   2.806   6.950   5.476 -0.5517 -0.5205 -0.9921
  348MOL0     C46909   2.859   6.995   5.575  1.0443 -1.1306 -0.2935
  348MOL0     C46910   3.178   6.621   5.111  0.0659 -0.3603 -0.2813
  348MOL0     C46911   3.251   6.516   5.050 -0.3514  1.1355  0.8349
  348MOL0     C46912   3.221   6.369   5.077  0.1721  0.2631  0.5271
  348MOL0     H46913   3.482   6.124   5.075  1.6187 -0.2898  3.3119
  348MOL0     H46914   3.636   5.940   5.032 -3.5103  2.1052  5.7911
  348MOL0     H46915   3.791   5.796   4.939 -0.1783  0.5146 -0.3539
  348MOL0     H46916   3.787   5.876   4.778 -1.7041  3.3869  2.7514
  348MOL0     H46917   3.998   5.796   4.728  0.3572  1.0333  0.1201
  348MOL0     H46918   3.913   5.661   4.812  2.3529 -1.2515 -1.9019
  348MOL0     H46919   4.118   5.832   4.932 -0.9043  0.5457  1.8042
  348MOL0     H46920   4.138   5.663   4.874 -0.8298  0.4636 -1.7648
  348MOL0     H46921   3.956   5.746   5.114 -0.9285 -0.8087 -0.4281
  348MOL0     H46922   4.003   5.587   5.068 -2.8617  0.6821  1.2093
  348MOL0     H46923   4.212   5.595   5.164 -0.3153  0.3437 -2.7960
  348MOL0     H46924   4.215   5.769   5.135  1.1386 -0.1518  0.2760
  348MOL0     H46925   4.043   5.803   5.317  0.1341  1.0120  1.0696
  348MOL0     H46926   4.067   5.634   5.365  0.3835  1.1532  2.6430
  348MOL0     H46927   4.311   5.683   5.406  0.1426  0.4408  0.3891
  348MOL0     H46928   4.210   5.744   5.522  0.7430  2.0883  0.7547
  348MOL0     H46929   4.218   5.962   5.337 -0.6375  1.0019  0.5290
  348MOL0     H46930   4.249   5.948   5.503 -3.7471 -2.1332 -0.9323
  348MOL0     H46931   4.456   5.856   5.175  1.2008 -0.0543  0.2177
  348MOL0     H46932   4.784   5.870   5.227  1.7771  1.8253 -1.1830
  348MOL0     H46933   4.672   5.926   5.101 -1.2520 -1.5543  1.1390
  348MOL0     H46934   4.878   6.060   5.094 -0.0000 -1.5209 -0.0946
  348MOL0     H46935   4.755   6.168   5.169 -0.3680 -1.5248 -0.5754
  348MOL0     H46936   4.976   6.011   5.297 -2.6038 -1.5330  3.1723
  348MOL0     H46937   4.844   6.085   5.393  1.2682 -1.8670  1.3386
  348MOL0     H46938   5.070   6.206   5.370  2.0221  1.7639 -1.5992
  348MOL0     H46939   4.930   6.301   5.330  3.2515  2.1405  2.0442
  348MOL0     H46940   5.147   6.264   4.945 -2.3879 -1.1097 -1.7865
  348MOL0     H46941   5.152   6.473   4.811  0.9050  0.3282  0.6632
  348MOL0     H46942   5.133   6.762   4.523 -0.9157 -0.4166  1.1328
  348MOL0     H46943   5.188   6.951   4.389  2.0488  0.0949 -0.9155
  348MOL0     H46944   5.394   7.299   4.644 -3.7403 -1.5211 -0.3887
  348MOL0     H46945   5.525   7.227   4.546  0.3713  0.4156  1.0600
  348MOL0     H46946   5.318   7.433   4.476 -0.0648  1.4932 -1.3048
  348MOL0     H46947   5.481   7.462   4.506 -2.0654  1.1397  1.3177
  348MOL0     H46948   5.427   7.275   4.279 -2.6532 -0.1147  0.8962
  348MOL0     H46949   5.365   7.442   4.237  0.3186  1.0752  0.1057
  348MOL0     H46950   5.650   7.348   4.273  1.2270  1.8550 -0.9533
  348MOL0     H46951   5.623   7.515   4.311  1.1193  0.5634 -1.1887
  348MOL0     H46952   5.689   7.513   4.083 -0.9686  1.1822 -1.6504
  348MOL0     H46953   5.521   7.555   4.086 -1.1770 -2.1848 -1.8431
  348MOL0     H46954   5.619   7.273   4.045 -0.1466  0.0847  1.0784
  348MOL0     H46955   5.445   7.337   4.019 -1.5853  3.5197 -0.3437
  348MOL0     H46956   5.679   7.447   3.861 -1.2694  2.1234 -0.4864
  348MOL0     H46957   5.522   7.465   3.822  2.5143  1.3684  1.0449
  348MOL0     H46958   5.635   7.187   3.835  1.0618  1.5690 -0.1035
  348MOL0     H46959   5.485   7.236   3.765  1.1836 -1.4881  0.4431
  348MOL0     H46960   5.388   7.122   4.737 -1.4975  1.1891 -0.8820
  348MOL0     H46961   5.307   6.945   4.865 -0.5605 -0.7343  0.2309
  348MOL0     H46962   4.968   6.678   5.152 -0.7958 -0.0363 -1.0403
  348MOL0     H46963   4.996   6.482   5.268  0.5283  3.7065  0.5018
  348MOL0     H46964   3.917   6.226   4.859  2.1240 -2.7676  1.2865
  348MOL0     H46965   3.728   6.407   4.870 -2.8657 -0.0973 -2.4271
  348MOL0     H46966   3.450   6.712   4.854 -2.9657 -0.7103 -2.0099
  348MOL0     H46967   3.346   6.893   4.996  0.6061 -0.9171 -0.1354
  348MOL0     H46968   3.013   6.784   5.273 -1.4658 -1.3788 -1.0271
  348MOL0     H46969   2.955   6.782   5.115  0.7517  0.0376 -1.1297
  348MOL0     H46970   2.950   7.043   5.137 -0.3306  2.4210  2.9895
  348MOL0     H46971   2.975   7.013   5.308  1.8453  0.2110 -0.8699
  348MOL0     H46972   2.753   6.883   5.145  2.5465 -2.9033  0.7191
  348MOL0     H46973   2.734   7.044   5.227 -1.1026 -0.5179 -0.3914
  348MOL0     H46974   2.641   6.884   5.378  0.6024  0.3237  2.5340
  348MOL0     H46975   2.777   6.771   5.367 -2.4121 -0.5405 -0.8466
  348MOL0     H46976   2.905   7.011   5.671  0.4098 -0.0864 -0.1474
  348MOL0     H46977   3.089   6.602   5.170  1.0704  0.8542  1.7317
  348MOL0     H46978   3.119   6.359   5.115  0.3986 -0.0392  1.0647
  348MOL0     H46979   3.241   6.315   4.984  1.8870 -0.4507  1.2696
  348MOL0     H46980   3.282   6.331   5.159 -1.4628  0.2217  1.7910
  349MOL0     O46981   0.711   3.345   5.184 -0.4112  0.3167  0.0644
  349MOL0     C46982   0.750   3.264   5.269 -1.1652  0.4680 -0.2984
  349MOL0     O46983   0.665   3.179   5.339 -0.9944  0.1302  0.5382
  349MOL0     C46984   0.533   3.220   5.366 -0.5741  0.1380 -0.0733
  349MOL0     C46985   0.488   3.168   5.489 -0.3008 -0.5489  0.0682
  349MOL0     C46986   0.349   3.193   5.524  0.0597  0.0158  0.3973
  349MOL0     C46987   0.265   3.279   5.450  0.3384  0.8005 -0.3207
  349MOL0     O46988   0.137   3.313   5.472 -0.1556 -0.1556 -0.1634
  349MOL0     C46989   0.078   3.291   5.602 -0.3656 -0.2839  0.4927
  349MOL0     C46990  -0.011   3.169   5.614  0.3644 -0.3588 -0.2017
  349MOL0     C46991  -0.064   3.174   5.758 -0.4515  0.3948 -0.6703
  349MOL0     C46992  -0.155   3.049   5.786  0.4898  0.3766  0.0877
  349MOL0     C46993  -0.256   3.077   5.901  0.5893  0.5646 -0.3295
  349MOL0     C46994  -0.342   2.948   5.912 -0.3309 -0.1070  0.2443
  349MOL0     C46995  -0.457   2.975   6.010  0.0930 -0.6010  0.6674
  349MOL0     C46996  -0.410   2.991   6.153 -0.3385 -0.2417  0.0346
  349MOL0     N46997  -0.529   3.002   6.236  1.0427  0.1033 -0.2848
  349MOL0     C46998  -0.636   2.915   6.241 -0.7971  0.7961  0.7499
  349MOL0     C46999  -0.724   2.974   6.327  0.4199 -0.3444  0.2267
  349MOL0     C47000  -0.847   2.911   6.357  1.1293  0.0318  0.2107
  349MOL0     C47001  -0.911   2.972   6.488 -0.1780  0.5764  0.3949
  349MOL0     C47002  -1.009   2.870   6.547 -0.7272  0.2428  0.2637
  349MOL0     C47003  -1.076   2.909   6.684 -0.1584  0.4550 -0.1943
  349MOL0     O47004  -1.144   2.791   6.735 -0.2260 -0.2911  0.2462
  349MOL0     C47005  -1.274   2.765   6.687 -0.2206  0.7038 -0.3768
  349MOL0     C47006  -1.354   2.844   6.604 -1.3117 -0.8985 -0.2026
  349MOL0     C47007  -1.485   2.817   6.583  0.7947  0.2221  0.1326
  349MOL0     C47008  -1.541   2.708   6.644 -0.3841  0.7152  0.1323
  349MOL0     C47009  -1.693   2.687   6.634  1.1033  0.2518 -0.3160
  349MOL0     O47010  -1.759   2.597   6.724  0.3727 -0.1582  0.3643
  349MOL0     C47011  -1.894   2.598   6.742 -0.8104  0.7920  0.2587
  349MOL0     C47012  -1.954   2.639   6.858  0.8878 -0.5814  0.0206
  349MOL0     C47013  -2.094   2.654   6.865 -0.1734  0.2608  0.2060
  349MOL0     C47014  -2.172   2.609   6.763 -1.1914  0.2759  0.3070
  349MOL0     O47015  -2.308   2.620   6.778 -0.6406  0.5352 -0.2668
  349MOL0     C47016  -2.395   2.588   6.669  0.6150 -0.4985  0.8468
  349MOL0     C47017  -2.541   2.627   6.702 -0.3442 -0.5868  0.0010
  349MOL0     C47018  -2.628   2.603   6.587  0.1979 -0.1081  0.1252
  349MOL0     C47019  -2.770   2.648   6.614 -0.1340  0.0623 -0.7498
  349MOL0     C47020  -2.854   2.677   6.492  0.4081  0.9867 -0.4379
  349MOL0     C47021  -2.901   2.565   6.406 -0.0147 -0.3223 -0.0109
  349MOL0     C47022  -3.016   2.579   6.301  0.4802 -0.4104 -0.0679
  349MOL0     C47023  -3.032   2.444   6.234 -0.4163  0.5320 -0.5816
  349MOL0    Cl47024  -2.876   2.391   6.157 -0.1570 -0.2064 -0.1245
  349MOL0     C47025  -2.111   2.554   6.643  0.4797 -0.7812 -0.4081
  349MOL0     C47026  -1.972   2.546   6.634 -0.0075 -1.0716  0.1554
  349MOL0     O47027  -1.749   2.749   6.543  0.5352  0.2299 -0.0278
  349MOL0     C47028  -1.467   2.627   6.722 -0.6634 -0.3073  1.0486
  349MOL0     C47029  -1.334   2.650   6.745  0.4943 -1.3065 -0.9502
  349MOL0     N47030  -0.667   3.088   6.376 -0.1395 -0.4861 -0.5859
  349MOL0     N47031  -0.550   3.108   6.326 -0.6068  0.4133 -0.1943
  349MOL0     C47032   0.324   3.339   5.338  0.5876  0.9041  0.3030
  349MOL0     C47033   0.452   3.310   5.298  0.8255 -0.3097 -0.1147
  349MOL0     C47034   0.896   3.252   5.290 -0.5164  0.2176  0.3320
  349MOL0     C47035   0.925   3.161   5.391  0.5183  0.2661  0.2336
  349MOL0     C47036   1.059   3.135   5.423 -0.1241 -0.4865  0.3699
  349MOL0     C47037   1.169   3.193   5.351 -0.5097  1.0824 -0.4823
  349MOL0     O47038   1.300   3.178   5.391 -0.9546 -0.1345  0.9460
  349MOL0     C47039   1.334   3.201   5.532 -0.2321  0.4649  0.0313
  349MOL0     C47040   1.323   3.354   5.571  0.0914  0.4900 -0.7744
  349MOL0     C47041   1.422   3.395   5.684  0.9850  1.0106 -0.2117
  349MOL0     C47042   1.394   3.542   5.731 -0.1450  0.7083  0.4238
  349MOL0     C47043   1.485   3.586   5.841  0.0548  0.2866  0.1852
  349MOL0     C47044   1.568   3.610   5.927 -0.4095  0.1150 -0.1821
  349MOL0     C47045   1.144   3.269   5.239 -0.2622 -0.2365 -0.6620
  349MOL0     C47046   1.002   3.300   5.207  0.6404 -0.0297 -0.1885
  349MOL0     C47047   0.983   3.390   5.083 -0.3549  0.0215  0.1542
  349MOL0     H47048   0.551   3.097   5.542  3.2150  2.9615  1.0382
  349MOL0     H47049   0.309   3.132   5.605 -1.9878 -2.4610 -2.2623
  349MOL0     H47050   0.145   3.297   5.688  1.1139  1.2655 -0.7045
  349MOL0     H47051   0.019   3.380   5.624  0.5293  0.8864 -1.5815
  349MOL0     H47052   0.059   3.086   5.601 -0.0028 -0.4821 -1.4752
  349MOL0     H47053  -0.099   3.168   5.549 -0.4508 -1.4814  0.8865
  349MOL0     H47054  -0.118   3.266   5.784  0.2995  1.2502 -1.9952
  349MOL0     H47055   0.023   3.167   5.823 -0.1479 -0.7393 -1.1846
  349MOL0     H47056  -0.192   3.014   5.689  2.4268 -0.3814 -0.4340
  349MOL0     H47057  -0.088   2.965   5.808 -1.8497 -1.2198  1.4777
  349MOL0     H47058  -0.208   3.101   5.996 -2.2492  1.4648  0.9670
  349MOL0     H47059  -0.330   3.149   5.866 -0.0942 -0.6785 -1.5513
  349MOL0     H47060  -0.386   2.905   5.821 -2.5791  1.0346  0.7232
  349MOL0     H47061  -0.273   2.873   5.952 -1.1160 -1.3766 -0.6897
  349MOL0     H47062  -0.540   2.904   6.010 -0.2556 -0.2014  0.6648
  349MOL0     H47063  -0.510   3.064   5.974 -0.6261 -1.5449 -0.6993
  349MOL0     H47064  -0.340   2.910   6.177 -0.1774 -0.2880 -0.5700
  349MOL0     H47065  -0.356   3.086   6.154 -2.4566  1.0370 -1.0178
  349MOL0     H47066  -0.642   2.827   6.177  1.5598  0.5404  0.7994
  349MOL0     H47067  -0.920   2.911   6.276 -2.3676  3.1592  3.0494
  349MOL0     H47068  -0.823   2.804   6.360 -0.2056 -0.2727  0.5224
  349MOL0     H47069  -0.826   2.988   6.555  0.4874 -2.3571  0.3967
  349MOL0     H47070  -0.972   3.062   6.475 -0.4163  0.7112  2.2601
  349MOL0     H47071  -0.958   2.773   6.553 -1.9980 -0.4998 -0.5791
  349MOL0     H47072  -1.090   2.864   6.475 -0.8916  1.6320  0.3068
  349MOL0     H47073  -1.144   2.993   6.667 -1.1788 -0.3819 -0.3684
  349MOL0     H47074  -0.989   2.941   6.742  0.3026  0.2130 -0.7341
  349MOL0     H47075  -1.317   2.934   6.556 -1.1916 -1.3042 -0.8833
  349MOL0     H47076  -1.547   2.887   6.529 -2.9156 -0.3689  3.1585
  349MOL0     H47077  -1.889   2.650   6.944 -0.9646 -3.2070  1.9241
  349MOL0     H47078  -2.139   2.689   6.957  2.3319  4.3410  0.1521
  349MOL0     H47079  -2.378   2.646   6.578 -0.2191 -0.0508  0.9703
  349MOL0     H47080  -2.376   2.482   6.648 -1.0321 -0.5205 -0.7757
  349MOL0     H47081  -2.571   2.554   6.778  0.4051 -0.6241  0.2617
  349MOL0     H47082  -2.548   2.729   6.743  0.0601 -0.9398  0.9778
  349MOL0     H47083  -2.586   2.667   6.509  3.3160 -1.0218  0.9043
  349MOL0     H47084  -2.627   2.497   6.560  1.7234  0.2507 -1.4668
  349MOL0     H47085  -2.751   2.746   6.659  1.7123 -1.3466  1.7509
  349MOL0     H47086  -2.814   2.571   6.678  1.7139  0.5472  1.2091
  349MOL0     H47087  -2.792   2.748   6.436  1.3527 -0.9599 -2.0039
  349MOL0     H47088  -2.940   2.735   6.526  1.1872  0.7267  2.2036
  349MOL0     H47089  -2.808   2.531   6.360  0.5874  0.5523  0.5488
  349MOL0     H47090  -2.924   2.482   6.475  1.1443 -1.4179 -0.8920
  349MOL0     H47091  -2.985   2.645   6.220 -0.4761 -0.5955 -0.6038
  349MOL0     H47092  -3.117   2.608   6.334 -0.9005 -1.6065 -2.8741
  349MOL0     H47093  -3.072   2.364   6.297 -0.6892 -2.1650 -3.8776
  349MOL0     H47094  -3.098   2.459   6.148 -1.1234 -1.6621 -0.4696
  349MOL0     H47095  -2.169   2.506   6.565  1.7190  0.0941 -1.9428
  349MOL0     H47096  -1.929   2.495   6.548 -0.0655 -2.0311  0.6859
  349MOL0     H47097  -1.523   2.542   6.759  0.6792 -2.3804 -1.4156
  349MOL0     H47098  -1.285   2.584   6.815  2.6471 -0.4397 -1.5197
  349MOL0     H47099   0.256   3.406   5.286  0.1521  0.1494 -0.1149
  349MOL0     H47100   0.469   3.352   5.200  3.8712 -0.7972  0.1131
  349MOL0     H47101   0.842   3.128   5.452 -0.1199 -0.8835 -1.2022
  349MOL0     H47102   1.065   3.066   5.507 -1.6678  2.7158  3.3466
  349MOL0     H47103   1.431   3.153   5.551 -1.4737 -1.2049  2.6579
  349MOL0     H47104   1.261   3.139   5.585  0.5647 -0.2863  0.2814
  349MOL0     H47105   1.216   3.361   5.592 -0.1042 -2.2518 -0.4503
  349MOL0     H47106   1.354   3.414   5.485 -2.9866  1.9254 -1.0122
  349MOL0     H47107   1.526   3.378   5.655  1.3727  1.0379  1.1161
  349MOL0     H47108   1.405   3.328   5.768  2.1457  2.2950  1.1065
  349MOL0     H47109   1.415   3.618   5.656 -0.7678 -1.0446 -1.6087
  349MOL0     H47110   1.292   3.549   5.770 -1.8064 -2.1007 -2.8828
  349MOL0     H47111   1.642   3.615   6.004  1.8277  0.4383 -2.2281
  349MOL0     H47112   1.223   3.312   5.180 -0.5528  0.4982 -0.5242
  349MOL0     H47113   0.930   3.339   5.002 -1.5706  2.3215 -0.5973
  349MOL0     H47114   0.922   3.476   5.111 -1.1989 -0.8029  0.9049
  349MOL0     H47115   1.080   3.426   5.047 -0.4366  1.4450  1.2856
  350MOL0     O47116   9.681   4.891   2.563  0.0271  0.2199  0.7259
  350MOL0     C47117   9.653   4.995   2.513  0.4616  0.7515  0.0823
  350MOL0     O47118   9.559   5.079   2.565 -0.6491 -0.2434  0.9192
  350MOL0     C47119   9.512   5.043   2.687  0.8744  0.0454  0.1795
  350MOL0     C47120   9.384   4.998   2.710 -0.1946 -0.1821  0.1523
  350MOL0     C47121   9.354   4.951   2.841 -0.2359 -0.0764 -2.0405
  350MOL0     C47122   9.448   4.987   2.951  0.8660 -0.6341 -0.5455
  350MOL0     O47123   9.399   4.965   3.080  0.0359 -0.1088  0.0503
  350MOL0     C47124   9.488   4.976   3.200  0.1008  0.0224  0.4544
  350MOL0     C47125   9.428   4.893   3.319 -0.7999 -0.8961  0.6796
  350MOL0     C47126   9.335   4.977   3.413  0.2861  0.9716  0.2231
  350MOL0     C47127   9.185   4.966   3.367  0.5974  0.2984 -1.1702
  350MOL0     C47128   9.116   4.833   3.399  0.5123 -1.2569  0.7987
  350MOL0     C47129   8.967   4.861   3.401 -0.2436  0.7152 -0.0208
  350MOL0     C47130   8.888   4.730   3.429  0.1927  0.1329  0.2856
  350MOL0     C47131   8.880   4.680   3.575  0.8736  0.1730 -0.9712
  350MOL0     N47132   9.012   4.652   3.640  0.2601 -0.0038 -0.2868
  350MOL0     C47133   9.110   4.569   3.583 -0.7595  0.2360  0.1306
  350MOL0     C47134   9.220   4.587   3.668  0.7508  0.3870 -0.0254
  350MOL0     C47135   9.357   4.536   3.635 -0.0339 -0.1024 -0.8618
  350MOL0     C47136   9.453   4.648   3.602  0.7562  0.2169  0.0684
  350MOL0     C47137   9.543   4.690   3.716 -0.0156 -0.8474 -0.1532
  350MOL0     C47138   9.603   4.835   3.685 -0.1414  0.6996 -1.6540
  350MOL0     O47139   9.684   4.829   3.573  0.0764  0.0226  0.2086
  350MOL0     C47140   9.813   4.874   3.590 -0.4830 -0.0809 -0.4161
  350MOL0     C47141   9.830   5.012   3.600 -0.2984 -0.0141  0.5883
  350MOL0     C47142   9.960   5.073   3.629 -0.0150  1.2204 -0.0617
  350MOL0     C47143  10.065   4.982   3.657 -0.4150  0.1709 -0.2119
  350MOL0     C47144  10.196   5.034   3.700  0.1415  0.4238  0.3263
  350MOL0     O47145  10.219   5.171   3.692  0.1190 -0.2673 -0.6926
  350MOL0     C47146  10.327   5.220   3.755 -0.9059 -0.3369 -0.0248
  350MOL0     C47147  10.301   5.285   3.877 -0.8313 -0.0150  0.0952
  350MOL0     C47148  10.406   5.328   3.948 -0.0611  0.4864  0.2930
  350MOL0     C47149  10.533   5.314   3.920 -0.7102  0.2271 -0.2342
  350MOL0     O47150  10.625   5.373   4.006 -0.0274  0.1330  0.2012
  350MOL0     C47151  10.767   5.332   3.977 -0.7989  0.0855  0.4679
  350MOL0     C47152  10.881   5.386   4.079  0.0285  0.3487  0.0012
  350MOL0     C47153  10.850   5.535   4.137  0.4060  0.0881  0.6980
  350MOL0     C47154  10.936   5.592   4.248 -0.1651 -0.5122 -0.0466
  350MOL0     C47155  10.907   5.538   4.393 -0.4602 -0.2884 -0.3437
  350MOL0     C47156  10.977   5.606   4.509  0.7084 -0.1368  0.8915
  350MOL0     C47157  10.995   5.530   4.642 -0.4930  0.0511  0.1571
  350MOL0     C47158  10.860   5.493   4.703 -1.4264  0.2787  0.8668
  350MOL0    Cl47159  10.774   5.652   4.737 -0.0237 -0.3422 -0.1179
  350MOL0     C47160  10.562   5.262   3.790  0.5456  0.7157 -0.8693
  350MOL0     C47161  10.461   5.216   3.710  0.8516  0.2503  0.5668
  350MOL0     O47162  10.280   4.953   3.745  0.0110 -0.3045 -0.5902
  350MOL0     C47163  10.039   4.846   3.662  0.4710 -0.1736  0.0687
  350MOL0     C47164   9.920   4.793   3.629  0.0677 -0.0163 -0.3470
  350MOL0     N47165   9.192   4.661   3.778 -0.0906  0.0348  0.4801
  350MOL0     N47166   9.068   4.702   3.757 -0.6167  0.6834  0.3879
  350MOL0     C47167   9.571   5.046   2.920  0.2247 -0.9472 -0.1084
  350MOL0     C47168   9.596   5.082   2.786 -0.3174 -0.3471 -1.2608
  350MOL0     C47169   9.718   5.030   2.383  0.4757  0.1853  0.1434
  350MOL0     C47170   9.662   5.132   2.311  0.3072 -0.2364  0.0834
  350MOL0     C47171   9.711   5.181   2.187 -0.3233 -0.4616 -0.0083
  350MOL0     C47172   9.810   5.112   2.127 -0.9452  0.8157  0.0315
  350MOL0     O47173   9.867   5.152   2.007  0.2866  0.5711 -0.2614
  350MOL0     C47174   9.775   5.179   1.897  0.2634 -0.5021 -0.1080
  350MOL0     C47175   9.807   5.091   1.779  0.5014  0.2335 -0.7563
  350MOL0     C47176   9.943   5.110   1.718 -0.1528  0.1123 -0.4652
  350MOL0     C47177   9.982   5.259   1.682  0.2364 -0.2288 -0.5595
  350MOL0     C47178  10.034   5.336   1.800 -0.5645  1.0881 -1.1538
  350MOL0     C47179  10.063   5.402   1.900  0.1196 -0.8717  0.0623
  350MOL0     C47180   9.866   4.997   2.184 -0.5370  0.9668  0.2517
  350MOL0     C47181   9.831   4.967   2.321  0.2493  0.5778  0.7403
  350MOL0     C47182   9.923   4.862   2.384  0.1172  0.6127  0.5849
  350MOL0     H47183   9.324   4.969   2.625  0.2167 -1.1963  0.1918
  350MOL0     H47184   9.262   4.894   2.849  0.1587 -0.4959  0.3613
  350MOL0     H47185   9.588   4.937   3.179 -1.1172 -3.1989  0.1225
  350MOL0     H47186   9.488   5.082   3.227 -0.7855  0.0068  0.5182
  350MOL0     H47187   9.513   4.864   3.381 -0.4246  0.1563  0.6831
  350MOL0     H47188   9.382   4.804   3.276 -2.6419  0.5017 -0.4152
  350MOL0     H47189   9.372   5.080   3.412  0.6583  0.8376 -0.5628
  350MOL0     H47190   9.340   4.945   3.517  0.7822  0.2703 -0.0118
  350MOL0     H47191   9.133   5.046   3.421  0.4299 -0.3625 -0.3215
  350MOL0     H47192   9.183   4.980   3.259  0.6046  0.9486 -1.0905
  350MOL0     H47193   9.145   4.752   3.331  1.3513  0.1845 -0.6368
  350MOL0     H47194   9.150   4.811   3.500 -1.1187  1.4074  2.0429
  350MOL0     H47195   8.940   4.941   3.470  0.7545  1.7107 -0.7401
  350MOL0     H47196   8.932   4.892   3.302 -1.6378 -2.3299 -0.6074
  350MOL0     H47197   8.933   4.647   3.375  1.6619  0.8822  0.2920
  350MOL0     H47198   8.782   4.740   3.407 -1.3556 -5.4476  3.3037
  350MOL0     H47199   8.820   4.755   3.628  2.5435  0.5543  0.5049
  350MOL0     H47200   8.820   4.589   3.566  1.3293  0.1157 -4.6525
  350MOL0     H47201   9.113   4.512   3.491 -1.5971 -0.0945  0.3027
  350MOL0     H47202   9.400   4.478   3.717  0.6542  1.3904 -0.1191
  350MOL0     H47203   9.357   4.488   3.537 -0.5611  1.7422 -1.8042
  350MOL0     H47204   9.514   4.618   3.516 -1.5509  0.0714 -1.6202
  350MOL0     H47205   9.401   4.736   3.562  0.1919 -0.1534 -0.0271
  350MOL0     H47206   9.623   4.617   3.734  0.0522 -1.0641 -1.2445
  350MOL0     H47207   9.491   4.701   3.811 -2.4835 -1.3593 -1.3749
  350MOL0     H47208   9.658   4.872   3.772 -1.2549 -0.2290 -0.5108
  350MOL0     H47209   9.520   4.902   3.661 -1.7291 -0.8464 -0.7357
  350MOL0     H47210   9.738   5.069   3.598 -1.3913 -1.7003  0.2925
  350MOL0     H47211   9.978   5.180   3.632  3.8564  0.7118  1.0649
  350MOL0     H47212  10.197   5.302   3.904 -0.9313  0.6838 -0.7111
  350MOL0     H47213  10.389   5.380   4.042  0.2405  2.2324 -0.5859
  350MOL0     H47214  10.767   5.223   3.974 -3.6092  0.0119 -1.3648
  350MOL0     H47215  10.799   5.375   3.882  0.9268 -1.1740  0.4334
  350MOL0     H47216  10.879   5.314   4.161  1.5025  0.7302  0.4014
  350MOL0     H47217  10.981   5.390   4.036 -0.4030 -0.3023 -1.1351
  350MOL0     H47218  10.854   5.609   4.057 -2.4374  2.2895  2.4136
  350MOL0     H47219  10.744   5.530   4.162  0.7134 -3.9584  1.9438
  350MOL0     H47220  10.924   5.701   4.246  0.1698 -0.4547  0.6750
  350MOL0     H47221  11.041   5.573   4.225  0.3585  2.2336 -0.3317
  350MOL0     H47222  10.933   5.431   4.398 -0.4830 -0.2733  0.1512
  350MOL0     H47223  10.799   5.542   4.405 -0.4939 -0.0406 -0.7319
  350MOL0     H47224  11.073   5.633   4.463  0.1924  0.9992  0.4426
  350MOL0     H47225  10.932   5.704   4.525  0.9953 -0.0298  1.0683
  350MOL0     H47226  11.062   5.582   4.711  0.2516 -1.7646  0.8608
  350MOL0     H47227  11.054   5.441   4.621  1.0978  0.8358  1.1176
  350MOL0     H47228  10.800   5.430   4.637  0.0018  1.4629 -1.7428
  350MOL0     H47229  10.901   5.431   4.784  3.4395  1.0019 -0.6741
  350MOL0     H47230  10.661   5.265   3.745  1.3130  2.7184  0.8026
  350MOL0     H47231  10.478   5.184   3.608 -2.0732 -0.7584  0.3068
  350MOL0     H47232  10.118   4.776   3.688 -2.5258 -3.6189  0.7014
  350MOL0     H47233   9.902   4.686   3.628  0.6372 -0.1147 -0.2779
  350MOL0     H47234   9.644   5.085   2.990  1.0062 -0.4368 -1.1954
  350MOL0     H47235   9.689   5.129   2.759 -1.7326  2.3292 -1.7853
  350MOL0     H47236   9.577   5.177   2.361  2.2859  2.3936  1.3423
  350MOL0     H47237   9.657   5.262   2.139  1.7263 -0.1315 -1.8808
  350MOL0     H47238   9.783   5.284   1.868  2.9669 -0.3753  0.8639
  350MOL0     H47239   9.670   5.167   1.928  0.0633 -1.9829 -1.2133
  350MOL0     H47240   9.729   5.106   1.703 -1.0737  1.7888  1.0730
  350MOL0     H47241   9.801   4.989   1.817  0.6804  0.8975  1.1314
  350MOL0     H47242   9.964   5.059   1.624 -0.6245 -2.4560  0.7170
  350MOL0     H47243  10.017   5.058   1.780 -0.3792  0.8205  0.4155
  350MOL0     H47244  10.056   5.274   1.602  3.4539  1.7192  2.4749
  350MOL0     H47245   9.886   5.307   1.661 -0.7244 -1.3644  1.0586
  350MOL0     H47246  10.099   5.472   1.973  1.0672  0.6290 -1.7350
  350MOL0     H47247   9.944   4.948   2.127 -1.5721  0.0155 -0.3855
  350MOL0     H47248   9.869   4.772   2.417  2.1799 -0.8824  0.0517
  350MOL0     H47249   9.994   4.826   2.309  1.0147  0.6473  1.3946
  350MOL0     H47250   9.985   4.917   2.456  1.8241  3.1091 -2.5109
  351MOL0     O47251   7.217  10.753   1.193 -0.4011 -0.5001 -0.1997
  351MOL0     C47252   7.294  10.815   1.123  0.1309 -0.5949 -0.1696
  351MOL0     O47253   7.315  10.776   0.994 -0.4220  0.2672 -0.0531
  351MOL0     C47254   7.231  10.675   0.947  0.3255  0.2471 -0.7170
  351MOL0     C47255   7.097  10.704   0.931 -0.8773 -0.2297  0.4283
  351MOL0     C47256   7.011  10.618   0.874  0.5509 -0.8832 -0.3343
  351MOL0     C47257   7.054  10.496   0.837 -0.2430  0.2442  0.3097
  351MOL0     O47258   6.963  10.416   0.776  0.1261  0.7248  0.0809
  351MOL0     C47259   7.021  10.339   0.677 -0.2677 -0.4825 -0.0365
  351MOL0     C47260   6.904  10.276   0.592  0.7962  0.3817  0.3599
  351MOL0     C47261   6.805  10.193   0.676 -0.0388 -0.3012  0.6571
  351MOL0     C47262   6.679  10.262   0.717 -0.3807  0.3459 -0.0262
  351MOL0     C47263   6.582  10.161   0.783  0.2701  0.2560  0.7509
  351MOL0     C47264   6.452  10.231   0.836  0.2872  0.2684  0.4248
  351MOL0     C47265   6.323  10.139   0.852  0.3348  0.6241 -0.2914
  351MOL0     C47266   6.364  10.024   0.955 -0.4305 -0.2042  0.3619
  351MOL0     N47267   6.243   9.942   0.971  0.1296  0.2962 -0.7143
  351MOL0     C47268   6.248   9.822   1.030  0.0817  0.1509 -0.3933
  351MOL0     C47269   6.123   9.786   1.022  0.2783 -0.2243 -0.0886
  351MOL0     C47270   6.064   9.651   1.073  0.2807  0.4832  1.0267
  351MOL0     C47271   6.021   9.649   1.216 -0.0388  0.6946 -0.1222
  351MOL0     C47272   5.871   9.677   1.231  0.3063  0.5081  0.7686
  351MOL0     C47273   5.825   9.621   1.360  0.8652  0.6518 -0.9248
  351MOL0     O47274   5.818   9.480   1.364  0.1798 -0.4277  0.0748
  351MOL0     C47275   5.754   9.426   1.469  0.0156  0.1444  0.7392
  351MOL0     C47276   5.616   9.449   1.481 -0.0925 -0.0425 -0.0812
  351MOL0     C47277   5.539   9.398   1.578  0.1336  0.3976  0.0799
  351MOL0     C47278   5.596   9.312   1.676 -0.0592 -0.5296 -0.5165
  351MOL0     C47279   5.504   9.222   1.747  0.2837  0.1302 -0.7619
  351MOL0     O47280   5.561   9.177   1.858 -1.1974  0.7953 -0.3834
  351MOL0     C47281   5.482   9.103   1.946  0.1266 -0.3652 -0.2896
  351MOL0     C47282   5.431   8.980   1.913  0.4548  0.8139  0.7065
  351MOL0     C47283   5.352   8.917   2.015  0.2923 -0.3222  0.0879
  351MOL0     C47284   5.309   8.990   2.132 -0.2836 -0.2712 -0.0885
  351MOL0     O47285   5.213   8.945   2.219 -0.2581 -0.2327 -0.4985
  351MOL0     C47286   5.248   8.812   2.263  0.3545 -0.6016 -0.2831
  351MOL0     C47287   5.215   8.825   2.417  0.0143 -0.7044 -0.2919
  351MOL0     C47288   5.265   8.705   2.496 -0.3556  0.1588 -0.6571
  351MOL0     C47289   5.184   8.578   2.465 -0.5906  0.4356  0.1827
  351MOL0     C47290   5.217   8.446   2.558 -1.2286 -0.9259 -0.4139
  351MOL0     C47291   5.105   8.347   2.566  0.0707  0.3415  0.0515
  351MOL0     C47292   5.147   8.209   2.617  0.1984  1.2346 -0.1030
  351MOL0     C47293   5.208   8.217   2.747 -0.8246 -0.0321 -1.4018
  351MOL0    Cl47294   5.088   8.281   2.868 -0.2793 -0.2863  0.6498
  351MOL0     C47295   5.351   9.125   2.153 -0.1947  0.0780 -0.0681
  351MOL0     C47296   5.442   9.167   2.061  0.5954 -0.3542 -0.7644
  351MOL0     O47297   5.384   9.210   1.713 -0.0463  0.2550 -0.2124
  351MOL0     C47298   5.739   9.292   1.670  0.3786 -0.4553  0.2623
  351MOL0     C47299   5.815   9.355   1.572  0.1903 -0.3523 -0.8939
  351MOL0     N47300   6.051   9.887   0.971 -0.0293  0.0688  0.0630
  351MOL0     N47301   6.123   9.984   0.953 -0.3429  0.6749  1.1043
  351MOL0     C47302   7.189  10.451   0.865 -0.4583  0.5153  0.1004
  351MOL0     C47303   7.280  10.549   0.919  0.7743  0.4057 -0.6049
  351MOL0     C47304   7.377  10.920   1.173  0.5725 -0.4046  0.3214
  351MOL0     C47305   7.428  11.006   1.076  0.1813 -0.3145 -0.2632
  351MOL0     C47306   7.509  11.111   1.102 -1.0509  0.1278  0.0709
  351MOL0     C47307   7.535  11.141   1.238 -1.1943  0.1462  0.3696
  351MOL0     O47308   7.612  11.246   1.264 -0.4238 -0.6256 -0.2116
  351MOL0     C47309   7.716  11.238   1.359 -0.2600  0.6967 -0.7591
  351MOL0     C47310   7.849  11.319   1.319  0.7359  0.5044  0.1479
  351MOL0     C47311   7.874  11.305   1.168 -0.9412 -0.0705 -0.3583
  351MOL0     C47312   7.987  11.403   1.131  0.5896  1.0186 -0.5384
  351MOL0     C47313   8.025  11.396   0.994 -0.4338 -0.9029 -0.4571
  351MOL0     C47314   8.063  11.410   0.881  0.6371 -1.0005  0.5257
  351MOL0     C47315   7.492  11.062   1.342  0.3529 -0.6647 -1.1786
  351MOL0     C47316   7.402  10.953   1.311 -0.2664  0.2983 -0.1626
  351MOL0     C47317   7.336  10.890   1.434 -0.0184 -0.2063 -0.0683
  351MOL0     H47318   7.060  10.804   0.956 -0.3786 -0.4187  2.0552
  351MOL0     H47319   6.909  10.650   0.860  0.1123 -1.2040  1.8294
  351MOL0     H47320   7.079  10.403   0.610 -3.0636  0.6895 -1.4748
  351MOL0     H47321   7.091  10.258   0.700  0.8289  0.0264 -1.3809
  351MOL0     H47322   6.944  10.213   0.512 -2.7634  0.5960 -1.8151
  351MOL0     H47323   6.854  10.359   0.541 -1.6737 -2.1398 -1.5907
  351MOL0     H47324   6.858  10.148   0.760  3.8420  0.6842 -1.0357
  351MOL0     H47325   6.785  10.102   0.618  0.9147 -1.0429  1.4601
  351MOL0     H47326   6.706  10.345   0.783  0.5154  0.6932 -0.8149
  351MOL0     H47327   6.638  10.297   0.622  4.5472  0.6083 -2.3421
  351MOL0     H47328   6.556  10.088   0.706  1.7593 -0.4007  0.8212
  351MOL0     H47329   6.636  10.107   0.862  2.6319  1.1187 -0.1664
  351MOL0     H47330   6.472  10.288   0.927  0.9385  1.5561 -0.5035
  351MOL0     H47331   6.413  10.307   0.768  0.8300  1.1331  1.0614
  351MOL0     H47332   6.276  10.085   0.769 -1.7686 -2.9041  2.8929
  351MOL0     H47333   6.245  10.201   0.896 -0.2068  1.3754 -2.1906
  351MOL0     H47334   6.446   9.957   0.925  2.0257  2.9783 -0.6952
  351MOL0     H47335   6.404  10.054   1.053  0.4948  0.3503 -0.1674
  351MOL0     H47336   6.338   9.764   1.047 -0.2237 -1.3609 -3.3612
  351MOL0     H47337   5.983   9.620   1.007  0.6274  0.3012  0.6832
  351MOL0     H47338   6.144   9.580   1.049 -1.2002 -0.1826 -2.6869
  351MOL0     H47339   6.034   9.557   1.273 -3.5307  0.5085  0.5577
  351MOL0     H47340   6.082   9.728   1.260  0.9941  0.5862 -1.2851
  351MOL0     H47341   5.830   9.609   1.155  1.2296 -1.9108  2.3088
  351MOL0     H47342   5.851   9.782   1.207  1.7950  0.3836 -1.3101
  351MOL0     H47343   5.723   9.660   1.369  1.5820  2.3662  0.4513
  351MOL0     H47344   5.878   9.668   1.444 -3.3793  2.6392  0.9514
  351MOL0     H47345   5.568   9.494   1.395  1.7735 -0.5199 -1.4284
  351MOL0     H47346   5.431   9.411   1.577  0.3581  4.2522  3.2218
  351MOL0     H47347   5.462   8.926   1.824 -0.4377 -0.8387  1.3416
  351MOL0     H47348   5.298   8.828   1.985  0.3487 -0.4151  0.2617
  351MOL0     H47349   5.188   8.742   2.204 -0.9542 -0.1180  0.4581
  351MOL0     H47350   5.354   8.789   2.247  0.2803  0.3378 -2.4632
  351MOL0     H47351   5.283   8.907   2.442 -0.8918  0.5095 -1.6276
  351MOL0     H47352   5.110   8.849   2.438  0.4416  1.1052 -0.0390
  351MOL0     H47353   5.366   8.680   2.462 -1.2789 -2.3892 -1.8225
  351MOL0     H47354   5.269   8.726   2.603 -0.6305 -1.1918 -0.3576
  351MOL0     H47355   5.199   8.553   2.360 -0.7373  0.5407  0.1374
  351MOL0     H47356   5.079   8.605   2.479 -0.5792 -0.7665  3.5745
  351MOL0     H47357   5.241   8.491   2.655 -1.1825 -1.2553 -0.2731
  351MOL0     H47358   5.314   8.409   2.522 -0.7548  1.6683 -2.1565
  351MOL0     H47359   5.023   8.376   2.631 -0.7546 -0.5960 -0.5392
  351MOL0     H47360   5.066   8.353   2.464 -1.1073  0.5534  0.5005
  351MOL0     H47361   5.212   8.150   2.552 -2.0583  1.0313 -2.3267
  351MOL0     H47362   5.064   8.140   2.628 -0.2337  0.9238 -3.9297
  351MOL0     H47363   5.229   8.112   2.771  1.3643  0.5737 -0.4679
  351MOL0     H47364   5.292   8.285   2.755 -1.3296  0.3887  1.2166
  351MOL0     H47365   5.309   9.167   2.244  0.3021 -6.3672  3.7213
  351MOL0     H47366   5.471   9.271   2.063 -0.7259  0.0199  0.6281
  351MOL0     H47367   5.799   9.226   1.732 -1.9389 -0.0203  3.2105
  351MOL0     H47368   5.924   9.357   1.570  0.3223 -1.4147 -5.2656
  351MOL0     H47369   7.221  10.351   0.838 -0.0167  0.0337  2.1823
  351MOL0     H47370   7.386  10.530   0.930  0.7731  0.1197 -1.0672
  351MOL0     H47371   7.403  10.991   0.971 -2.1830  0.3700  0.1359
  351MOL0     H47372   7.529  11.183   1.023 -0.0693 -0.2806 -0.0601
  351MOL0     H47373   7.763  11.139   1.366  2.0572  1.8545  1.7856
  351MOL0     H47374   7.675  11.260   1.457  0.8530 -0.4594  0.0071
  351MOL0     H47375   7.927  11.279   1.384  2.0595  1.4276 -0.8269
  351MOL0     H47376   7.833  11.424   1.345 -0.5675 -0.0313  1.7827
  351MOL0     H47377   7.785  11.322   1.108 -1.4532 -1.6608 -0.1019
  351MOL0     H47378   7.908  11.202   1.150  1.7445  0.3658  1.4578
  351MOL0     H47379   7.953  11.504   1.155 -1.6397  0.0884  0.3905
  351MOL0     H47380   8.066  11.374   1.201 -2.1755 -1.6184  1.7805
  351MOL0     H47381   8.089  11.434   0.780 -2.1396 -1.7228 -0.4533
  351MOL0     H47382   7.503  11.092   1.445 -0.7335  2.8926 -1.9379
  351MOL0     H47383   7.229  10.911   1.427  0.4520  1.9252 -1.6477
  351MOL0     H47384   7.341  10.781   1.440  1.3790 -0.0759  2.8867
  351MOL0     H47385   7.375  10.920   1.531 -1.0401  1.8947 -0.2442
  352MOL0     O47386   7.380  10.654   3.051  0.3585  0.6767  0.1404
  352MOL0     C47387   7.363  10.638   2.928 -0.3071 -0.1404  0.8862
  352MOL0     O47388   7.363  10.518   2.873  0.1353  0.0636  0.1058
  352MOL0     C47389   7.389  10.404   2.939 -0.0861  0.4980 -0.4799
  352MOL0     C47390   7.500  10.377   3.030  0.8695 -1.1396 -0.1742
  352MOL0     C47391   7.495  10.260   3.101 -1.5460 -0.3542 -0.4993
  352MOL0     C47392   7.396  10.162   3.075 -1.3850 -0.0176  0.2061
  352MOL0     O47393   7.388  10.053   3.154  0.1464  0.1359  0.3921
  352MOL0     C47394   7.505  10.007   3.225  0.3079 -0.4725  0.7308
  352MOL0     C47395   7.482   9.866   3.277  0.2430  0.0118  1.5278
  352MOL0     C47396   7.591   9.796   3.343 -0.7317  0.7939 -0.5132
  352MOL0     C47397   7.598   9.833   3.495  0.4415 -0.2345  1.0617
  352MOL0     C47398   7.702   9.750   3.580  1.4801  0.9638  0.0397
  352MOL0     C47399   7.678   9.600   3.568 -1.0661 -0.4477  0.2402
  352MOL0     C47400   7.537   9.544   3.612 -0.7772  0.4187  0.2627
  352MOL0     C47401   7.525   9.397   3.568 -0.3582 -0.3143 -0.5738
  352MOL0     N47402   7.405   9.335   3.633  0.2383 -0.4763  1.5549
  352MOL0     C47403   7.278   9.382   3.636 -0.1139  0.3156 -0.7149
  352MOL0     C47404   7.199   9.282   3.679  0.4240  1.1141  0.4510
  352MOL0     C47405   7.045   9.272   3.684 -0.9922  0.4647  0.2942
  352MOL0     C47406   6.997   9.273   3.825 -0.4420  1.0388 -0.1131
  352MOL0     C47407   7.031   9.389   3.910  0.4419 -0.8784 -0.8437
  352MOL0     C47408   6.968   9.383   4.049  0.2378 -0.2446 -1.0866
  352MOL0     O47409   6.828   9.341   4.049 -0.0319 -0.0048  0.5902
  352MOL0     C47410   6.776   9.308   4.172  0.7811 -0.9341  1.0888
  352MOL0     C47411   6.821   9.366   4.298 -0.3279 -0.3346  0.5826
  352MOL0     C47412   6.759   9.335   4.412  0.0156 -0.3923  0.8809
  352MOL0     C47413   6.651   9.245   4.410  0.0076  0.8903  0.2032
  352MOL0     C47414   6.583   9.207   4.535 -0.4560 -0.5570  0.9324
  352MOL0     O47415   6.576   9.311   4.631 -0.7122  0.5451 -0.0545
  352MOL0     C47416   6.488   9.296   4.734  1.4463 -0.2135 -0.3418
  352MOL0     C47417   6.508   9.216   4.858  0.1091  0.2335 -0.6504
  352MOL0     C47418   6.410   9.194   4.954  0.2809 -0.4896  0.5659
  352MOL0     C47419   6.298   9.273   4.935 -0.7031  1.1815 -1.8987
  352MOL0     O47420   6.206   9.264   5.035  1.2331 -0.5174 -0.4403
  352MOL0     C47421   6.133   9.379   5.081 -0.7829  0.3085  0.4683
  352MOL0     C47422   6.100   9.359   5.226  0.1156  0.2674 -0.9657
  352MOL0     C47423   6.047   9.495   5.269  0.1070  0.1167  0.3555
  352MOL0     C47424   6.062   9.506   5.418  1.0362 -0.6488  0.0250
  352MOL0     C47425   5.975   9.613   5.473  0.2096 -0.2201  0.0440
  352MOL0     C47426   5.993   9.758   5.422 -0.9883  0.2326 -0.4200
  352MOL0     C47427   6.132   9.813   5.467  1.0120  0.1032  0.3525
  352MOL0     C47428   6.152   9.968   5.450  0.7996  0.1406  0.5742
  352MOL0    Cl47429   6.104  10.004   5.271 -0.8379  0.1982  0.8643
  352MOL0     C47430   6.269   9.356   4.828 -0.3029 -0.4479  0.4390
  352MOL0     C47431   6.368   9.368   4.734 -0.3844  0.1936  0.0256
  352MOL0     O47432   6.514   9.105   4.539  0.3833  0.2460  1.0340
  352MOL0     C47433   6.607   9.181   4.286 -0.2485  0.0848 -0.4478
  352MOL0     C47434   6.664   9.226   4.175 -1.0036  0.8814  0.0909
  352MOL0     N47435   7.286   9.175   3.709 -0.0941  0.2532  0.0595
  352MOL0     N47436   7.405   9.206   3.683  0.2931 -0.3333 -0.7786
  352MOL0     C47437   7.293  10.189   2.987  1.1535  0.5270 -0.2286
  352MOL0     C47438   7.293  10.306   2.926 -0.2454 -0.8936 -1.1320
  352MOL0     C47439   7.392  10.750   2.830 -1.0380  0.0868 -1.0198
  352MOL0     C47440   7.482  10.725   2.723 -1.2879  0.4781  0.5606
  352MOL0     C47441   7.518  10.834   2.635 -0.6062 -0.6861  0.5109
  352MOL0     C47442   7.483  10.963   2.657  0.7430  0.3436 -1.0211
  352MOL0     O47443   7.523  11.061   2.561 -0.0910 -0.0823 -0.6824
  352MOL0     C47444   7.525  11.188   2.617 -0.8424  0.0712 -0.5920
  352MOL0     C47445   7.542  11.299   2.505 -0.2790 -0.8763 -0.3318
  352MOL0     C47446   7.689  11.291   2.463  0.4536  0.4244 -0.3803
  352MOL0     C47447   7.716  11.428   2.396 -0.7816 -0.1780 -0.5841
  352MOL0     C47448   7.645  11.469   2.273  1.0178  0.3037  0.5770
  352MOL0     C47449   7.596  11.490   2.162 -0.4213  0.1235  0.8777
  352MOL0     C47450   7.412  10.991   2.777  0.3595 -0.3933  1.2741
  352MOL0     C47451   7.366  10.889   2.860  0.4428  0.3353  0.0230
  352MOL0     C47452   7.291  10.918   2.989 -0.6740  0.4945  0.4724
  352MOL0     H47453   7.569  10.455   3.062 -2.3488 -0.0956  5.6657
  352MOL0     H47454   7.570  10.255   3.179 -0.7138 -0.5098 -1.2900
  352MOL0     H47455   7.597  10.010   3.166 -0.3494  1.2064 -0.2766
  352MOL0     H47456   7.516  10.073   3.311 -1.8442  1.2807 -0.2402
  352MOL0     H47457   7.451   9.796   3.199  1.6668 -0.6536  1.5192
  352MOL0     H47458   7.394   9.862   3.342 -0.3118  0.9929  0.8550
  352MOL0     H47459   7.689   9.825   3.305 -0.3770  0.6573  0.2916
  352MOL0     H47460   7.591   9.687   3.329  0.2588  0.6793  0.3186
  352MOL0     H47461   7.625   9.938   3.505  1.1182 -0.5374  2.7545
  352MOL0     H47462   7.498   9.818   3.535  0.1367  1.4133  0.9629
  352MOL0     H47463   7.804   9.772   3.548  2.1531 -1.7821  0.0797
  352MOL0     H47464   7.702   9.780   3.685 -2.6130  1.6721  0.0161
  352MOL0     H47465   7.705   9.580   3.464 -1.8982  1.9331 -0.5203
  352MOL0     H47466   7.746   9.564   3.645 -0.6277 -0.4309 -0.1409
  352MOL0     H47467   7.456   9.597   3.562 -1.0292  1.7756  2.0244
  352MOL0     H47468   7.535   9.550   3.721  1.9539 -1.8315  0.5745
  352MOL0     H47469   7.520   9.372   3.461  1.3560  0.1970 -0.8076
  352MOL0     H47470   7.617   9.350   3.604 -0.4591  1.2807  1.9533
  352MOL0     H47471   7.255   9.484   3.605  3.7923  1.6344  0.1410
  352MOL0     H47472   6.999   9.358   3.635 -0.8944  1.0503  1.1990
  352MOL0     H47473   7.028   9.181   3.627  0.0369  0.9085 -0.7791
  352MOL0     H47474   6.888   9.270   3.834 -0.2951 -1.3814  2.2486
  352MOL0     H47475   7.036   9.183   3.873 -3.9673 -1.0674 -0.8561
  352MOL0     H47476   7.007   9.480   3.854  1.2946  0.6536  1.1666
  352MOL0     H47477   7.137   9.384   3.940  0.2446 -2.2775 -0.2863
  352MOL0     H47478   6.981   9.486   4.083 -2.4686 -0.0574 -0.3905
  352MOL0     H47479   7.031   9.321   4.114  0.9559 -0.8001 -2.2702
  352MOL0     H47480   6.909   9.429   4.291 -0.8320  0.4728  1.2714
  352MOL0     H47481   6.782   9.361   4.515 -2.4343  0.9849  1.1577
  352MOL0     H47482   6.597   9.153   4.863 -1.5744 -2.2200  0.6014
  352MOL0     H47483   6.421   9.129   5.040  0.7643  1.5476  2.0990
  352MOL0     H47484   6.193   9.467   5.059 -1.0712 -0.2785 -3.1636
  352MOL0     H47485   6.034   9.401   5.041  0.0082  1.4269 -0.9374
  352MOL0     H47486   6.021   9.288   5.254  0.1452  1.2679  2.0584
  352MOL0     H47487   6.192   9.332   5.278  1.1658 -1.1191 -3.3591
  352MOL0     H47488   6.114   9.573   5.230  1.7454  0.6134  3.7765
  352MOL0     H47489   5.941   9.505   5.244 -1.0444 -1.7049  3.9026
  352MOL0     H47490   6.168   9.527   5.436  1.3993 -0.6667 -1.9098
  352MOL0     H47491   6.038   9.414   5.472  2.9235 -2.1697 -1.5819
  352MOL0     H47492   5.981   9.622   5.582 -3.8648  2.0485  0.2600
  352MOL0     H47493   5.870   9.601   5.448  0.1268  1.6078 -0.6508
  352MOL0     H47494   5.983   9.769   5.314  3.0644 -0.0168 -1.0009
  352MOL0     H47495   5.915   9.813   5.475  0.9841  0.2390  2.7913
  352MOL0     H47496   6.198   9.758   5.399  1.5282 -2.3325  2.6374
  352MOL0     H47497   6.156   9.787   5.571 -0.6818 -0.3605  0.6659
  352MOL0     H47498   6.095  10.020   5.528 -2.0208 -2.5737  0.5124
  352MOL0     H47499   6.255   9.999   5.468  1.6904 -1.7968 -0.8155
  352MOL0     H47500   6.171   9.399   4.813 -0.5270 -0.1161  2.5769
  352MOL0     H47501   6.339   9.428   4.648 -0.0410  0.2924 -0.0210
  352MOL0     H47502   6.526   9.109   4.293  1.5655 -2.0182 -0.0274
  352MOL0     H47503   6.628   9.196   4.077  1.6754  0.0635 -0.7462
  352MOL0     H47504   7.220  10.109   2.979  1.0538  0.1682  2.9358
  352MOL0     H47505   7.207  10.328   2.865 -1.3598  2.2717  1.2597
  352MOL0     H47506   7.523  10.627   2.701  0.4995  1.1350  0.7657
  352MOL0     H47507   7.578  10.813   2.547 -2.9675 -0.4695 -1.2530
  352MOL0     H47508   7.606  11.207   2.688  0.0810  0.4752 -1.7252
  352MOL0     H47509   7.439  11.221   2.676  0.7023  1.7566  0.8059
  352MOL0     H47510   7.507  11.396   2.539 -2.3508 -0.9493 -2.0608
  352MOL0     H47511   7.482  11.278   2.416  0.5608  1.2400 -1.4633
  352MOL0     H47512   7.706  11.224   2.378 -1.6245  1.0794 -1.3677
  352MOL0     H47513   7.756  11.265   2.546 -0.7291 -0.6803  0.2601
  352MOL0     H47514   7.699  11.511   2.466  1.1760  3.0921 -3.6432
  352MOL0     H47515   7.824  11.418   2.383 -1.0916 -2.2728 -1.9038
  352MOL0     H47516   7.547  11.497   2.067 -2.7200  1.6895  2.0723
  352MOL0     H47517   7.387  11.088   2.820 -1.7776 -0.3788  0.1368
  352MOL0     H47518   7.367  10.922   3.068 -1.5816  2.6523  1.2990
  352MOL0     H47519   7.249  11.018   2.996 -1.0635  0.6929 -2.9858
  352MOL0     H47520   7.215  10.843   3.013 -0.7193  0.3427 -0.1052
  353MOL0     O47521   0.391   5.104   5.241 -0.6319 -0.2454 -0.1010
  353MOL0     C47522   0.351   5.203   5.305  0.9137 -0.3352 -0.2009
  353MOL0     O47523   0.253   5.197   5.403 -0.2158  0.1008 -0.2492
  353MOL0     C47524   0.188   5.077   5.424  0.2225  0.1853  0.1519
  353MOL0     C47525   0.055   5.089   5.452  0.3198 -0.7491 -0.5946
  353MOL0     C47526  -0.025   4.980   5.473  0.2486  0.5661  1.9973
  353MOL0     C47527   0.023   4.851   5.477  0.4720  0.1440 -0.3121
  353MOL0     O47528  -0.072   4.752   5.479  0.4449  0.1042 -0.2464
  353MOL0     C47529  -0.014   4.620   5.449 -0.3336  0.3506  0.1440
  353MOL0     C47530  -0.132   4.509   5.454  0.1614  0.2159  1.3320
  353MOL0     C47531  -0.078   4.364   5.430  0.2526  0.5056  0.4761
  353MOL0     C47532  -0.192   4.251   5.433 -0.2439 -0.4218 -0.5185
  353MOL0     C47533  -0.137   4.118   5.373  0.5770 -0.2017  0.6246
  353MOL0     C47534  -0.172   4.110   5.222 -0.2263 -0.3504  0.2101
  353MOL0     C47535  -0.063   4.018   5.168 -0.9196 -0.1771  0.3701
  353MOL0     C47536  -0.045   4.021   5.012 -0.1416  0.2023  0.0107
  353MOL0     N47537  -0.166   4.064   4.936  0.3568  0.1396 -0.1146
  353MOL0     C47538  -0.293   4.002   4.937  0.7678  0.3244 -0.4051
  353MOL0     C47539  -0.368   4.087   4.871  0.1723 -0.6593  0.1173
  353MOL0     C47540  -0.508   4.055   4.824  0.2976  0.2479  0.6741
  353MOL0     C47541  -0.604   4.174   4.782 -0.0790  0.6058  0.6953
  353MOL0     C47542  -0.748   4.131   4.807  0.6959 -0.1340 -0.0491
  353MOL0     C47543  -0.849   4.227   4.759 -0.7782  0.2562  0.6333
  353MOL0     O47544  -0.979   4.177   4.769  0.5196  0.1204  0.3115
  353MOL0     C47545  -1.075   4.230   4.686 -0.6112 -0.1031  0.5205
  353MOL0     C47546  -1.078   4.358   4.633  0.7691 -0.5547  0.6441
  353MOL0     C47547  -1.175   4.409   4.543 -0.3027 -0.6377 -0.0280
  353MOL0     C47548  -1.274   4.320   4.499  1.0464 -0.2094  0.8830
  353MOL0     C47549  -1.376   4.362   4.394 -0.7463  0.1974 -0.0610
  353MOL0     O47550  -1.473   4.274   4.374 -0.6884  0.6307 -0.6042
  353MOL0     C47551  -1.572   4.295   4.278 -0.3785  0.1754 -0.7489
  353MOL0     C47552  -1.545   4.252   4.148 -0.0246  0.7191 -0.0957
  353MOL0     C47553  -1.642   4.257   4.046  0.5849  1.9097 -0.1236
  353MOL0     C47554  -1.771   4.301   4.075 -1.3616  0.2119  0.2518
  353MOL0     O47555  -1.879   4.296   3.988 -0.2825  0.3370  0.5104
  353MOL0     C47556  -1.988   4.214   4.025 -0.2275  0.2634  0.9168
  353MOL0     C47557  -2.100   4.290   4.115 -0.0493  0.2460  1.2595
  353MOL0     C47558  -2.232   4.218   4.099  0.0689 -0.0168  0.2733
  353MOL0     C47559  -2.223   4.088   4.191  0.5749 -0.2915  0.3258
  353MOL0     C47560  -2.349   4.015   4.190 -0.1233  0.3326  0.8909
  353MOL0     C47561  -2.351   3.888   4.279  0.0572 -0.3691  0.8133
  353MOL0     C47562  -2.489   3.817   4.261 -0.5748 -0.3900  0.6221
  353MOL0     C47563  -2.474   3.663   4.275 -0.5528  0.1669  0.0363
  353MOL0    Cl47564  -2.642   3.599   4.305 -0.5523  0.2771  0.0575
  353MOL0     C47565  -1.794   4.352   4.210 -0.2731  0.8511  0.4932
  353MOL0     C47566  -1.693   4.354   4.307 -0.2199  0.3814 -0.3558
  353MOL0     O47567  -1.364   4.475   4.340 -0.3724 -0.7890 -0.6932
  353MOL0     C47568  -1.290   4.198   4.574 -0.9498 -0.0589 -0.3203
  353MOL0     C47569  -1.189   4.149   4.665 -0.9968 -0.0738  1.0229
  353MOL0     N47570  -0.287   4.193   4.819 -0.2386  0.4014  0.0351
  353MOL0     N47571  -0.162   4.173   4.867 -0.1795 -0.1848  0.1008
  353MOL0     C47572   0.161   4.832   5.451 -0.7351 -0.9130 -0.1069
  353MOL0     C47573   0.242   4.943   5.422 -0.2003 -0.0037  0.0343
  353MOL0     C47574   0.406   5.340   5.271  0.4643  0.6397  0.8635
  353MOL0     C47575   0.339   5.454   5.326 -0.5761 -0.2438 -0.6383
  353MOL0     C47576   0.372   5.584   5.291  0.1618  0.3948 -0.7460
  353MOL0     C47577   0.481   5.603   5.203 -0.2354 -0.4770  0.9990
  353MOL0     O47578   0.485   5.737   5.153  0.0311  0.0407 -1.2770
  353MOL0     C47579   0.477   5.770   5.015  0.1762  0.1777 -1.1912
  353MOL0     C47580   0.515   5.917   5.007 -0.3038 -0.8393  0.7063
  353MOL0     C47581   0.460   5.983   4.876 -0.6746  1.3200  0.6238
  353MOL0     C47582   0.551   6.087   4.799 -0.8448  0.2148  1.0651
  353MOL0     C47583   0.690   6.045   4.774 -0.6411  0.3593 -0.3333
  353MOL0     C47584   0.807   6.013   4.743 -0.4517  0.1009  0.1140
  353MOL0     C47585   0.552   5.495   5.150  0.6917  0.3094  0.6966
  353MOL0     C47586   0.512   5.360   5.173  0.4487  0.3095 -0.4024
  353MOL0     C47587   0.591   5.264   5.103 -0.6959  0.0187  1.0917
  353MOL0     H47588   0.021   5.191   5.437 -0.1037 -0.8309 -0.2153
  353MOL0     H47589  -0.130   5.003   5.483 -0.1016  0.9837 -1.5535
  353MOL0     H47590   0.025   4.611   5.347  0.7349 -1.0145  0.6409
  353MOL0     H47591   0.071   4.597   5.513 -0.6383 -0.1811  0.3679
  353MOL0     H47592  -0.200   4.542   5.375  1.4162  0.1939  0.1974
  353MOL0     H47593  -0.175   4.511   5.554  1.5304  1.7764  1.9407
  353MOL0     H47594  -0.003   4.334   5.503  2.2050 -0.7009 -1.8746
  353MOL0     H47595  -0.029   4.347   5.333  4.8957 -2.9072  3.0397
  353MOL0     H47596  -0.215   4.245   5.540  2.8718  1.0324  0.3599
  353MOL0     H47597  -0.288   4.276   5.388 -0.2978 -0.9340 -0.6979
  353MOL0     H47598  -0.030   4.120   5.396  0.3714  3.3295  1.8451
  353MOL0     H47599  -0.195   4.037   5.418  0.0301  0.3372  0.9114
  353MOL0     H47600  -0.270   4.066   5.205 -0.5076  1.0425 -2.3538
  353MOL0     H47601  -0.173   4.211   5.180  1.8758 -0.4287 -0.1518
  353MOL0     H47602  -0.089   3.920   5.208 -0.8912 -0.2841  0.1270
  353MOL0     H47603   0.038   4.033   5.208 -1.7180  1.0702  2.0096
  353MOL0     H47604   0.043   4.087   5.006  1.0284 -0.6979  4.0170
  353MOL0     H47605  -0.013   3.920   4.986  1.4735  1.1218 -1.8455
  353MOL0     H47606  -0.325   3.908   4.980  0.1047 -0.0020 -1.5513
  353MOL0     H47607  -0.499   3.983   4.742  2.2601  0.0855  0.9757
  353MOL0     H47608  -0.552   4.005   4.912 -0.2806  1.6485  1.2045
  353MOL0     H47609  -0.574   4.252   4.853  0.7072  0.3950  0.6029
  353MOL0     H47610  -0.578   4.217   4.685 -0.7802 -1.5233 -0.4944
  353MOL0     H47611  -0.774   4.121   4.913 -0.8344 -1.4237 -0.4949
  353MOL0     H47612  -0.770   4.036   4.756 -0.8667  1.1259 -1.8640
  353MOL0     H47613  -0.824   4.232   4.652  0.5540 -0.3145  0.9094
  353MOL0     H47614  -0.842   4.327   4.801 -0.8741  0.4157  0.2808
  353MOL0     H47615  -0.997   4.429   4.648  0.7229  0.1556 -2.0907
  353MOL0     H47616  -1.155   4.508   4.505  1.0831 -0.5017  0.9849
  353MOL0     H47617  -1.451   4.201   4.126  0.0757 -0.4432  2.6098
  353MOL0     H47618  -1.616   4.209   3.952 -2.2884 -1.3857  0.5778
  353MOL0     H47619  -2.038   4.192   3.930  0.4419 -0.9846  0.8363
  353MOL0     H47620  -1.960   4.121   4.075  0.8875  0.5717  0.8856
  353MOL0     H47621  -2.067   4.305   4.219 -0.7322 -0.6256  1.6181
  353MOL0     H47622  -2.105   4.383   4.057 -2.2713 -0.3153  0.4474
  353MOL0     H47623  -2.312   4.286   4.131  0.1535  0.5235 -0.6324
  353MOL0     H47624  -2.251   4.204   3.993 -0.1618 -0.0098  0.3122
  353MOL0     H47625  -2.198   4.113   4.295 -0.6320  2.5862  0.0012
  353MOL0     H47626  -2.145   4.020   4.155 -1.3862 -2.6006  0.1237
  353MOL0     H47627  -2.389   3.995   4.091  1.9040 -0.4807  0.1964
  353MOL0     H47628  -2.419   4.086   4.237  1.4801  2.8644 -0.2952
  353MOL0     H47629  -2.269   3.827   4.239  0.6400  0.7937  0.1732
  353MOL0     H47630  -2.320   3.907   4.382  2.0567 -3.1882  0.8515
  353MOL0     H47631  -2.539   3.831   4.164 -0.1923 -3.4498 -0.1035
  353MOL0     H47632  -2.558   3.856   4.337 -0.1623 -0.5450  1.0742
  353MOL0     H47633  -2.440   3.625   4.178 -2.4849  2.0315 -1.4535
  353MOL0     H47634  -2.403   3.639   4.355 -2.1695 -2.2101  0.8684
  353MOL0     H47635  -1.887   4.393   4.246 -1.6113 -1.4108 -0.1788
  353MOL0     H47636  -1.716   4.372   4.412  1.4073 -0.4366  0.1800
  353MOL0     H47637  -1.382   4.145   4.552 -0.6229  0.0846 -2.1568
  353MOL0     H47638  -1.204   4.052   4.712 -4.1550  0.3647  1.1725
  353MOL0     H47639   0.208   4.735   5.443  1.2039  0.1274 -2.8365
  353MOL0     H47640   0.349   4.924   5.415 -0.1404 -1.4350  3.2106
  353MOL0     H47641   0.258   5.438   5.396 -1.5126 -2.2423 -2.0816
  353MOL0     H47642   0.312   5.664   5.333  0.8233 -0.6832  2.5292
  353MOL0     H47643   0.377   5.759   4.972 -0.4228  1.0421 -0.0772
  353MOL0     H47644   0.551   5.712   4.958 -0.4863 -1.2734 -0.6207
  353MOL0     H47645   0.624   5.928   5.013 -0.3343  0.2921 -0.4298
  353MOL0     H47646   0.478   5.962   5.100  1.5910 -1.0395  1.6181
  353MOL0     H47647   0.361   6.024   4.893 -0.7673  2.0681 -1.4379
  353MOL0     H47648   0.448   5.898   4.808  2.5097 -0.2055  1.7516
  353MOL0     H47649   0.510   6.088   4.697  0.2875  1.5228  0.5984
  353MOL0     H47650   0.548   6.193   4.826  0.7463  1.1407 -1.8592
  353MOL0     H47651   0.905   5.974   4.722 -1.3997 -0.4598 -4.2776
  353MOL0     H47652   0.623   5.518   5.072 -0.1016 -0.3994 -0.2604
  353MOL0     H47653   0.652   5.308   5.024 -0.2580 -2.4785 -0.0476
  353MOL0     H47654   0.653   5.207   5.173  4.2369  2.4334 -0.8867
  353MOL0     H47655   0.531   5.189   5.050  0.3223 -0.3719  0.4824
  354MOL0     O47656   7.803   5.081  10.789 -0.4707 -0.8270 -0.6139
  354MOL0     C47657   7.849   4.973  10.800  0.3841 -0.0570 -0.6941
  354MOL0     O47658   7.770   4.865  10.831  0.3124  0.1363  0.1098
  354MOL0     C47659   7.643   4.870  10.893 -0.2251  0.3350 -0.4271
  354MOL0     C47660   7.551   4.773  10.861 -0.1604  0.2406  0.7190
  354MOL0     C47661   7.421   4.789  10.892 -0.1026  0.1698 -0.1321
  354MOL0     C47662   7.377   4.890  10.981  0.0220 -0.3065  0.3110
  354MOL0     O47663   7.246   4.896  10.996  0.6908  0.1053 -0.4466
  354MOL0     C47664   7.190   5.007  11.062  0.3525 -0.5991 -0.5648
  354MOL0     C47665   7.042   4.993  11.065  0.0201 -0.0962 -0.5874
  354MOL0     C47666   6.966   5.123  11.110  0.3341 -0.0460  0.6998
  354MOL0     C47667   6.824   5.100  11.144 -0.3088 -0.4152 -0.6467
  354MOL0     C47668   6.766   5.217  11.231 -0.1752  0.1011 -1.1120
  354MOL0     C47669   6.646   5.189  11.326 -0.2811  0.2518 -0.0645
  354MOL0     C47670   6.518   5.152  11.249 -0.3344  0.8585  0.5051
  354MOL0     C47671   6.391   5.146  11.339  0.1157  0.2048 -0.8755
  354MOL0     N47672   6.270   5.127  11.260 -0.5989 -0.8186 -0.4969
  354MOL0     C47673   6.238   5.016  11.191 -0.3156  0.4585  0.1735
  354MOL0     C47674   6.124   5.049  11.126  0.1981  0.2420 -0.2576
  354MOL0     C47675   6.059   4.953  11.039  0.3868  0.0569 -0.5746
  354MOL0     C47676   6.013   4.826  11.122  0.7591  0.4186  0.6409
  354MOL0     C47677   5.932   4.735  11.029  0.4020  0.7168  0.1818
  354MOL0     C47678   5.885   4.606  11.096 -0.6030 -0.3510 -0.5505
  354MOL0     O47679   5.805   4.512  11.021  0.2605 -0.5594  1.1009
  354MOL0     C47680   5.711   4.441  11.090  0.3912  0.9332  0.1435
  354MOL0     C47681   5.635   4.366  11.004  0.0345 -0.0972  0.0191
  354MOL0     C47682   5.537   4.283  11.048 -0.4646  0.2907  0.6842
  354MOL0     C47683   5.528   4.270  11.192 -0.8427  0.9921  0.3796
  354MOL0     C47684   5.427   4.174  11.232  0.2233 -0.1173  0.4475
  354MOL0     O47685   5.306   4.183  11.169  0.1524  0.0950 -0.1636
  354MOL0     C47686   5.228   4.072  11.176 -0.1947  0.5215 -0.5588
  354MOL0     C47687   5.185   4.022  11.055  0.5239 -0.0659  0.0346
  354MOL0     C47688   5.071   3.937  11.043  0.0744  0.1375 -0.5374
  354MOL0     C47689   4.992   3.908  11.158  0.1916 -0.6812  0.3848
  354MOL0     O47690   4.865   3.849  11.143  0.5164 -0.1358 -0.1320
  354MOL0     C47691   4.783   3.846  11.257  0.4435 -0.3144  0.4723
  354MOL0     C47692   4.644   3.812  11.204  0.2812  0.3698 -0.4046
  354MOL0     C47693   4.551   3.781  11.325 -0.2443  1.0184  0.1712
  354MOL0     C47694   4.420   3.713  11.271 -0.6088 -0.2583  0.0447
  354MOL0     C47695   4.329   3.675  11.379  0.5509 -0.5269 -0.0775
  354MOL0     C47696   4.380   3.540  11.442 -0.0176  0.8276 -0.4215
  354MOL0     C47697   4.274   3.480  11.535 -0.1092  0.0450 -0.2426
  354MOL0     C47698   4.338   3.353  11.604  0.5505  0.1572  0.2068
  354MOL0    Cl47699   4.412   3.243  11.488 -0.1995 -0.0439  0.0578
  354MOL0     C47700   5.042   3.952  11.280 -0.8536 -0.2959  0.5644
  354MOL0     C47701   5.161   4.029  11.294  0.5056  0.8517  0.7023
  354MOL0     O47702   5.453   4.101  11.327  1.0018 -0.0311 -0.4833
  354MOL0     C47703   5.598   4.350  11.278  0.3758 -0.2975  0.0946
  354MOL0     C47704   5.688   4.440  11.229  0.8976 -0.2229  0.2351
  354MOL0     N47705   6.087   5.184  11.149  0.2927  0.8469  0.9413
  354MOL0     N47706   6.181   5.231  11.236  0.1558 -0.0503  0.0476
  354MOL0     C47707   7.471   4.981  11.024 -0.6458 -0.1313 -0.2574
  354MOL0     C47708   7.601   4.969  10.981  0.3266 -0.0821 -0.5555
  354MOL0     C47709   8.005   4.962  10.789  0.1496  0.2861 -0.0499
  354MOL0     C47710   8.081   5.063  10.733  0.6133  0.3860 -0.2363
  354MOL0     C47711   8.214   5.054  10.702 -0.9746 -0.4539 -0.4529
  354MOL0     C47712   8.290   4.938  10.725  0.3409  0.6589 -0.3030
  354MOL0     O47713   8.424   4.939  10.708 -0.3364 -0.1264  0.2885
  354MOL0     C47714   8.487   4.814  10.676  0.1560  0.3401 -0.0417
  354MOL0     C47715   8.453   4.781  10.530 -0.1509 -0.1810 -0.9394
  354MOL0     C47716   8.482   4.632  10.504  0.2606  0.1934 -0.2591
  354MOL0     C47717   8.635   4.610  10.487 -0.3816 -0.3705 -0.1494
  354MOL0     C47718   8.713   4.598  10.609  1.1593  0.1282  0.3840
  354MOL0     C47719   8.777   4.574  10.703  0.3903  1.1366 -0.8157
  354MOL0     C47720   8.215   4.832  10.790 -0.6647 -0.6678 -0.4349
  354MOL0     C47721   8.079   4.846  10.827 -0.4085 -0.3486 -0.4923
  354MOL0     C47722   8.025   4.715  10.900  0.3252 -1.1812 -0.4943
  354MOL0     H47723   7.586   4.689  10.803 -0.8501  0.8944 -0.7205
  354MOL0     H47724   7.362   4.705  10.857 -3.4163  0.6941  3.4951
  354MOL0     H47725   7.224   5.005  11.166 -0.2655 -1.1685 -0.3679
  354MOL0     H47726   7.213   5.100  11.008  1.5190 -0.2632  0.4505
  354MOL0     H47727   7.006   4.916  11.133 -2.4119  1.9630  0.6212
  354MOL0     H47728   6.998   4.970  10.967 -2.9611 -0.0564  0.6487
  354MOL0     H47729   6.974   5.200  11.032  1.2570 -0.7804  0.0395
  354MOL0     H47730   7.014   5.168  11.198 -0.5384  0.8607  0.7261
  354MOL0     H47731   6.763   5.085  11.055 -2.0512 -4.2188  0.9330
  354MOL0     H47732   6.811   5.003  11.193 -0.7092 -0.5923 -1.1004
  354MOL0     H47733   6.848   5.247  11.297  1.7416 -1.1041 -2.8202
  354MOL0     H47734   6.760   5.296  11.156  2.2535 -0.1148 -1.6124
  354MOL0     H47735   6.680   5.104  11.386  0.2298 -0.0712 -0.7905
  354MOL0     H47736   6.612   5.268  11.393 -0.3740  0.8200 -0.7730
  354MOL0     H47737   6.533   5.059  11.193 -1.1497  0.2636  1.2468
  354MOL0     H47738   6.505   5.230  11.173  0.2083 -0.5996 -1.1525
  354MOL0     H47739   6.414   5.065  11.409 -0.2929 -1.2923 -2.4303
  354MOL0     H47740   6.375   5.238  11.398 -0.5963 -2.0532  2.7935
  354MOL0     H47741   6.301   4.928  11.201 -0.8935 -0.2077 -1.6186
  354MOL0     H47742   5.967   5.003  11.008  0.0062 -0.4085 -0.2106
  354MOL0     H47743   6.123   4.942  10.951  0.1788  3.6105 -1.2947
  354MOL0     H47744   6.102   4.771  11.154 -0.3693 -1.1409  1.2469
  354MOL0     H47745   5.954   4.849  11.211  1.1176  0.3692  0.8972
  354MOL0     H47746   5.994   4.713  10.941  1.8053  0.4447  1.1961
  354MOL0     H47747   5.839   4.785  11.002 -0.2642 -2.0822 -3.4919
  354MOL0     H47748   5.820   4.647  11.173 -0.6619  0.0224 -0.7948
  354MOL0     H47749   5.966   4.549  11.141  0.1544 -0.4686 -1.9817
  354MOL0     H47750   5.643   4.367  10.896  0.1674  1.1210  0.0229
  354MOL0     H47751   5.465   4.240  10.978 -0.2212  2.5554 -1.0914
  354MOL0     H47752   5.245   4.058  10.972  2.2563 -1.9484  0.3920
  354MOL0     H47753   5.050   3.890  10.948  0.4409  0.8065 -0.9582
  354MOL0     H47754   4.820   3.775  11.331  1.7412  2.1218  2.3046
  354MOL0     H47755   4.779   3.944  11.305  0.8227  1.3156 -2.5422
  354MOL0     H47756   4.598   3.892  11.144 -0.7278 -1.8401 -2.7552
  354MOL0     H47757   4.646   3.722  11.143 -1.0288 -0.7050  1.0706
  354MOL0     H47758   4.593   3.725  11.409 -1.1212  0.1587  0.0438
  354MOL0     H47759   4.515   3.878  11.359  2.2986  2.5197 -1.0849
  354MOL0     H47760   4.439   3.629  11.204  0.0333  0.7161 -1.0304
  354MOL0     H47761   4.381   3.797  11.212 -0.8166 -1.5711 -1.7708
  354MOL0     H47762   4.226   3.663  11.343  0.9434  0.0328 -1.4361
  354MOL0     H47763   4.331   3.757  11.452  0.8614 -1.0505  0.5106
  354MOL0     H47764   4.400   3.470  11.360 -4.0535 -0.6724 -0.3838
  354MOL0     H47765   4.475   3.565  11.489 -0.6620  0.4921  1.1284
  354MOL0     H47766   4.186   3.444  11.480  0.5848 -3.0349  0.4912
  354MOL0     H47767   4.231   3.554  11.604 -0.1141 -2.6024  2.8622
  354MOL0     H47768   4.409   3.376  11.684  0.3244 -1.5229  0.9429
  354MOL0     H47769   4.260   3.302  11.662  0.0256  1.6947  0.8891
  354MOL0     H47770   4.994   3.925  11.374  0.2856 -0.1603  1.1958
  354MOL0     H47771   5.171   4.071  11.394  0.6391  0.7823  0.7174
  354MOL0     H47772   5.598   4.339  11.386 -1.0492 -2.4373 -0.0745
  354MOL0     H47773   5.746   4.500  11.299  1.8522 -1.8715  0.9238
  354MOL0     H47774   7.451   5.055  11.100 -2.7994 -2.7381  1.9402
  354MOL0     H47775   7.680   5.035  11.016  1.4234 -2.3782  1.6177
  354MOL0     H47776   8.029   5.156  10.714  1.0655  0.7145  0.0999
  354MOL0     H47777   8.260   5.148  10.672 -1.3907  0.8219  2.4909
  354MOL0     H47778   8.466   4.729  10.743  2.2274 -2.6429 -2.8548
  354MOL0     H47779   8.594   4.835  10.687  0.2665  0.3359 -1.0279
  354MOL0     H47780   8.505   4.852  10.464 -0.9877  1.9582  0.5581
  354MOL0     H47781   8.347   4.798  10.510  0.1329  1.2960 -1.3725
  354MOL0     H47782   8.422   4.606  10.416  0.8395  2.0986 -1.2765
  354MOL0     H47783   8.459   4.576  10.595 -0.9090  1.4505  0.2474
  354MOL0     H47784   8.648   4.532  10.411  0.8296  2.3639 -2.9935
  354MOL0     H47785   8.674   4.694  10.428  1.5837 -2.6341 -2.3220
  354MOL0     H47786   8.837   4.545  10.787 -0.3198 -0.9256 -0.9502
  354MOL0     H47787   8.268   4.747  10.833 -2.1040  0.0668  3.0864
  354MOL0     H47788   7.963   4.665  10.824 -2.2871  1.8845 -0.5820
  354MOL0     H47789   8.105   4.645  10.927 -0.1619 -1.3807  0.5017
  354MOL0     H47790   7.976   4.732  10.996  1.3565  0.5150 -0.2312
  355MOL0     O47791  10.922   5.760   6.891 -1.1583  0.4373 -0.2632
  355MOL0     C47792  10.943   5.861   6.825 -1.2284 -0.0412 -0.1209
  355MOL0     O47793  11.032   5.964   6.857 -0.0671  0.4905 -1.2176
  355MOL0     C47794  11.086   5.959   6.986  0.2528  0.0555 -0.4409
  355MOL0     C47795  11.196   5.878   7.005 -0.0536  0.7644  0.2220
  355MOL0     C47796  11.253   5.858   7.130 -0.6411 -0.9321  1.5549
  355MOL0     C47797  11.216   5.943   7.235  0.4800  0.7934 -0.2319
  355MOL0     O47798  11.270   5.937   7.360  0.4524 -0.0972 -0.1625
  355MOL0     C47799  11.353   5.818   7.393  0.4512  0.2495 -0.3070
  355MOL0     C47800  11.500   5.856   7.383 -0.4195 -0.1061  0.1140
  355MOL0     C47801  11.601   5.741   7.416 -0.1133  0.3098  0.2028
  355MOL0     C47802  11.623   5.726   7.565 -0.4381  0.4926  0.5126
  355MOL0     C47803  11.663   5.586   7.618 -0.0457  0.2875  0.1994
  355MOL0     C47804  11.704   5.590   7.764  1.0007  0.1951  0.1339
  355MOL0     C47805  11.776   5.466   7.799  0.0079  1.6702  0.3347
  355MOL0     C47806  11.793   5.469   7.951 -0.5896 -0.1142 -0.2830
  355MOL0     N47807  11.827   5.353   8.030 -0.0484 -0.0114 -0.2136
  355MOL0     C47808  11.948   5.342   8.103 -0.1433  0.1234  0.3310
  355MOL0     C47809  11.925   5.241   8.184  0.6966  0.1339  0.5040
  355MOL0     C47810  12.029   5.190   8.280 -0.2194 -0.3126 -0.7866
  355MOL0     C47811  11.992   5.227   8.422 -0.3745  0.2691 -0.0443
  355MOL0     C47812  12.122   5.241   8.505  0.6977  0.5865 -0.1132
  355MOL0     C47813  12.099   5.292   8.646  0.1151  0.3853  0.6270
  355MOL0     O47814  12.194   5.392   8.669 -0.6824 -0.1252  0.3418
  355MOL0     C47815  12.296   5.361   8.752 -0.2160 -1.1642 -0.5733
  355MOL0     C47816  12.360   5.472   8.807  1.1909  0.3907 -0.2244
  355MOL0     C47817  12.472   5.463   8.891 -0.1142 -0.6415  0.4180
  355MOL0     C47818  12.510   5.332   8.927  0.6287  0.1447 -0.7573
  355MOL0     C47819  12.623   5.325   9.024  0.4675 -0.9038  0.0595
  355MOL0     O47820  12.622   5.430   9.112 -0.2871 -0.0426  0.6503
  355MOL0     C47821  12.711   5.442   9.221 -0.3334  0.6174 -0.0710
  355MOL0     C47822  12.780   5.333   9.276 -1.0212 -0.3985 -0.1695
  355MOL0     C47823  12.869   5.350   9.385  0.9235  0.6561  1.4400
  355MOL0     C47824  12.874   5.471   9.454 -0.0148 -0.6960  0.3291
  355MOL0     O47825  12.953   5.508   9.568  0.1258  0.5022 -0.1122
  355MOL0     C47826  13.028   5.403   9.615 -0.1988  0.9577  0.8090
  355MOL0     C47827  13.084   5.422   9.751 -0.3067 -0.4340 -0.0998
  355MOL0     C47828  13.207   5.504   9.751 -0.5100  0.1138  0.4602
  355MOL0     C47829  13.256   5.548   9.899  0.2227 -0.2970 -0.8493
  355MOL0     C47830  13.389   5.626   9.904 -0.1952 -0.2508  0.6230
  355MOL0     C47831  13.438   5.631  10.046  0.4084  0.1624  0.8739
  355MOL0     C47832  13.558   5.729  10.057  0.1787 -0.4899  0.4525
  355MOL0     C47833  13.645   5.700  10.175 -0.2939 -0.7476 -1.0381
  355MOL0    Cl47834  13.790   5.787  10.157  0.1588  0.1557 -0.1638
  355MOL0     C47835  12.795   5.573   9.393  0.9039 -0.6887 -0.4059
  355MOL0     C47836  12.719   5.563   9.280 -0.8935 -0.4788 -0.2340
  355MOL0     O47837  12.696   5.222   9.036 -0.1653  0.9861  0.1472
  355MOL0     C47838  12.452   5.221   8.865  0.4174 -0.4065  0.2620
  355MOL0     C47839  12.351   5.237   8.772 -0.6376  0.0957  0.2564
  355MOL0     N47840  11.795   5.183   8.152 -0.5153  0.3046 -0.2223
  355MOL0     N47841  11.737   5.254   8.065  0.2890 -0.1077  0.4566
  355MOL0     C47842  11.101   6.023   7.215  0.4127 -0.9530 -0.7734
  355MOL0     C47843  11.036   6.033   7.090  0.0027  0.6076 -0.3340
  355MOL0     C47844  10.867   5.888   6.705  0.6383  0.4112  0.4612
  355MOL0     C47845  10.734   5.855   6.695 -0.1792 -0.0529 -0.9290
  355MOL0     C47846  10.658   5.874   6.585 -0.2643  0.6013  0.1807
  355MOL0     C47847  10.702   5.946   6.483 -0.1591 -0.2064  0.4539
  355MOL0     O47848  10.625   5.971   6.370 -0.3359  0.6138  0.8657
  355MOL0     C47849  10.480   5.946   6.381 -0.1777  0.3096  0.7813
  355MOL0     C47850  10.452   5.808   6.326  0.4052  0.4376 -0.1658
  355MOL0     C47851  10.497   5.805   6.178 -0.2841 -0.5405  0.9929
  355MOL0     C47852  10.467   5.664   6.134  0.3345  0.8450 -0.6402
  355MOL0     C47853  10.516   5.652   5.999 -0.0280 -0.4256  0.2268
  355MOL0     C47854  10.556   5.638   5.883  0.0572 -0.0225 -0.7384
  355MOL0     C47855  10.827   5.995   6.488 -0.1310 -0.6514  0.1625
  355MOL0     C47856  10.918   5.961   6.593 -0.1633  0.6199 -0.3306
  355MOL0     C47857  11.069   5.993   6.585 -0.1990 -0.2441  0.0047
  355MOL0     H47858  11.227   5.818   6.921  1.6949  1.0944  0.5892
  355MOL0     H47859  11.329   5.781   7.129  0.8189  0.4492  2.1435
  355MOL0     H47860  11.331   5.792   7.497 -1.6141  0.5016 -0.6477
  355MOL0     H47861  11.327   5.732   7.332 -3.8524  1.3634 -0.3117
  355MOL0     H47862  11.519   5.943   7.446 -0.2636  0.2502 -0.4188
  355MOL0     H47863  11.531   5.877   7.280  0.9719  0.6122  0.6552
  355MOL0     H47864  11.689   5.764   7.354 -2.5198  0.9344 -3.2680
  355MOL0     H47865  11.557   5.648   7.379 -5.1441  2.2080  0.6349
  355MOL0     H47866  11.697   5.802   7.590  0.7488 -0.2209 -0.6857
  355MOL0     H47867  11.525   5.754   7.605 -1.5390  0.1825 -1.7600
  355MOL0     H47868  11.581   5.515   7.605 -0.3367  0.2414  2.1277
  355MOL0     H47869  11.737   5.534   7.555 -1.0111 -0.4013 -0.3947
  355MOL0     H47870  11.764   5.681   7.773 -1.2186  2.0092 -1.8667
  355MOL0     H47871  11.616   5.598   7.828  1.5593  3.1559  0.6882
  355MOL0     H47872  11.868   5.457   7.742 -0.6988  2.3870 -0.9705
  355MOL0     H47873  11.717   5.379   7.768  1.3905  1.6829 -2.7047
  355MOL0     H47874  11.852   5.557   7.979 -1.2654  1.0525 -2.3325
  355MOL0     H47875  11.692   5.496   7.983 -0.5749  1.2921 -1.3213
  355MOL0     H47876  12.035   5.406   8.094  0.7874 -0.8319  1.9762
  355MOL0     H47877  12.046   5.082   8.290  1.3803  0.1578  3.7125
  355MOL0     H47878  12.127   5.228   8.248  0.0452  0.9867  1.3510
  355MOL0     H47879  11.943   5.325   8.420  1.4075  1.2461  0.9871
  355MOL0     H47880  11.918   5.162   8.468  1.9188 -0.6415  2.6647
  355MOL0     H47881  12.182   5.310   8.444  0.5120 -2.4439 -4.1690
  355MOL0     H47882  12.174   5.144   8.505  1.7503  1.1240 -1.2055
  355MOL0     H47883  12.104   5.196   8.697 -2.5348 -1.3595 -2.0676
  355MOL0     H47884  11.998   5.332   8.663 -0.8538 -0.4866 -2.5010
  355MOL0     H47885  12.323   5.573   8.794  2.8107  1.2234  1.1868
  355MOL0     H47886  12.529   5.542   8.938 -0.3986 -0.5741  0.6571
  355MOL0     H47887  12.779   5.231   9.237 -2.1585  0.1165 -1.5728
  355MOL0     H47888  12.928   5.260   9.401 -0.6600 -1.3389 -2.5614
  355MOL0     H47889  12.968   5.312   9.613  0.0830  0.7943 -0.9117
  355MOL0     H47890  13.114   5.391   9.548 -0.4367 -0.1676  0.6852
  355MOL0     H47891  13.008   5.484   9.799  2.2872  1.9335  1.2723
  355MOL0     H47892  13.098   5.321   9.791 -1.2279 -0.4342  0.2305
  355MOL0     H47893  13.286   5.445   9.705 -0.6066  0.5053 -0.2285
  355MOL0     H47894  13.186   5.594   9.693 -4.3451 -2.9848 -3.7437
  355MOL0     H47895  13.264   5.460   9.964 -2.2174  1.4481  2.1336
  355MOL0     H47896  13.187   5.626   9.935 -1.3776 -1.3655 -1.4962
  355MOL0     H47897  13.381   5.727   9.862  0.0534 -1.5154 -2.8096
  355MOL0     H47898  13.459   5.574   9.838 -0.2759  0.7466 -0.2757
  355MOL0     H47899  13.353   5.671  10.103  0.4894 -2.0989  2.7621
  355MOL0     H47900  13.463   5.536  10.095  0.1106  0.2893  1.2860
  355MOL0     H47901  13.512   5.827  10.068 -0.0664 -0.2125 -2.3112
  355MOL0     H47902  13.615   5.723   9.963 -1.8883  0.7166 -0.9433
  355MOL0     H47903  13.590   5.737  10.262  4.2633 -0.3537  1.9884
  355MOL0     H47904  13.664   5.593  10.183 -3.9207 -1.6675 -2.3690
  355MOL0     H47905  12.813   5.676   9.419 -2.5022  0.3242 -1.4636
  355MOL0     H47906  12.675   5.653   9.238 -0.5068  1.3584  2.9220
  355MOL0     H47907  12.487   5.122   8.894  0.5463  0.1457  2.1226
  355MOL0     H47908  12.333   5.151   8.708 -0.0272  1.5488 -1.9727
  355MOL0     H47909  11.064   6.076   7.302  0.1631 -1.5982 -0.4835
  355MOL0     H47910  10.949   6.096   7.073 -0.2198  0.7649  1.2173
  355MOL0     H47911  10.679   5.810   6.777 -1.3148  0.5966 -1.3204
  355MOL0     H47912  10.555   5.842   6.595 -0.1152 -0.4415 -1.2794
  355MOL0     H47913  10.426   6.014   6.314 -3.0163  0.5851  3.1255
  355MOL0     H47914  10.432   5.959   6.479  3.3499  1.4199  2.5142
  355MOL0     H47915  10.346   5.785   6.335  0.8571 -0.9497  3.2538
  355MOL0     H47916  10.519   5.736   6.376 -1.6061 -1.1078  0.4498
  355MOL0     H47917  10.601   5.833   6.157 -0.3281 -1.6843 -0.9771
  355MOL0     H47918  10.426   5.865   6.120 -0.5886 -1.8504 -0.0421
  355MOL0     H47919  10.514   5.593   6.202 -0.9174  1.2273  0.6651
  355MOL0     H47920  10.360   5.645   6.123  0.9741 -3.8315 -0.9103
  355MOL0     H47921  10.596   5.622   5.785 -0.1495 -0.3423 -0.7732
  355MOL0     H47922  10.863   6.050   6.402  2.7589 -1.4825  0.7216
  355MOL0     H47923  11.107   6.057   6.665  1.3465 -2.4715  1.1785
  355MOL0     H47924  11.124   5.899   6.600  1.4895  0.8943  1.2245
  355MOL0     H47925  11.079   6.039   6.487 -3.9882  1.6377  0.3155
  356MOL0     O47926   7.105   6.154   6.313  0.8414 -0.4326 -0.4308
  356MOL0     C47927   7.033   6.245   6.328 -0.4655 -1.6055 -0.0097
  356MOL0     O47928   7.071   6.378   6.320 -0.5023  0.4488  0.4321
  356MOL0     C47929   7.202   6.413   6.337  0.2556 -0.2608  0.0911
  356MOL0     C47930   7.248   6.461   6.457 -0.0854  0.4264 -0.6025
  356MOL0     C47931   7.383   6.501   6.467  0.8714  0.0763  0.5407
  356MOL0     C47932   7.471   6.491   6.358  0.3435 -0.0828  0.1977
  356MOL0     O47933   7.613   6.508   6.377 -0.0593  0.0541  0.1578
  356MOL0     C47934   7.657   6.586   6.484 -1.1203  0.2750 -0.0734
  356MOL0     C47935   7.806   6.622   6.467  0.2544  0.1064  0.1767
  356MOL0     C47936   7.905   6.503   6.464  0.4567 -0.2027  0.5742
  356MOL0     C47937   8.041   6.565   6.497  0.0536 -0.5527 -0.4476
  356MOL0     C47938   8.077   6.569   6.638 -0.3429  0.1722 -0.9074
  356MOL0     C47939   8.227   6.547   6.648 -0.2074 -1.1493  0.5941
  356MOL0     C47940   8.276   6.563   6.795  0.2165  0.8291 -0.3409
  356MOL0     C47941   8.427   6.563   6.808  0.8971 -0.6002 -0.3733
  356MOL0     N47942   8.471   6.615   6.936  0.3970 -0.3361  0.5736
  356MOL0     C47943   8.602   6.658   6.956 -0.0419  0.3684  0.5420
  356MOL0     C47944   8.593   6.684   7.092 -0.3549 -0.1012  0.3881
  356MOL0     C47945   8.698   6.710   7.188  0.3235  0.9683  0.0457
  356MOL0     C47946   8.828   6.658   7.127 -0.1078 -0.5200 -0.2425
  356MOL0     C47947   8.934   6.679   7.233  1.1939  0.5108 -0.8530
  356MOL0     C47948   9.074   6.669   7.175  0.4871 -0.0227  0.5857
  356MOL0     O47949   9.095   6.528   7.131  0.3266  0.1360  0.3985
  356MOL0     C47950   9.228   6.496   7.113  0.9167  0.1447 -0.4150
  356MOL0     C47951   9.249   6.359   7.098  0.4735  0.0624  1.6630
  356MOL0     C47952   9.375   6.306   7.076 -0.5874 -1.2488 -0.5155
  356MOL0     C47953   9.481   6.393   7.048  0.4564  0.1058 -1.4337
  356MOL0     C47954   9.611   6.330   6.995  0.8091 -0.2132  0.3317
  356MOL0     O47955   9.615   6.198   6.956 -0.2191  0.0411  0.4574
  356MOL0     C47956   9.731   6.135   6.916  0.2163 -0.3275  0.2592
  356MOL0     C47957   9.761   5.998   6.942 -1.4948 -0.6248  0.2819
  356MOL0     C47958   9.874   5.940   6.881  0.6143 -0.0396  0.1773
  356MOL0     C47959   9.964   6.012   6.807  0.1461  0.7484 -0.3092
  356MOL0     O47960  10.082   5.960   6.773  0.2204 -1.0154  0.1113
  356MOL0     C47961  10.169   5.931   6.883  0.6666  0.8517 -0.9127
  356MOL0     C47962  10.260   5.821   6.823 -0.8050 -0.6513  0.4016
  356MOL0     C47963  10.383   5.795   6.918  1.2917 -0.2234 -0.0812
  356MOL0     C47964  10.327   5.765   7.056  0.0988  0.5575  0.9552
  356MOL0     C47965  10.444   5.703   7.139 -0.2750  0.0960 -0.5055
  356MOL0     C47966  10.547   5.814   7.185 -0.1657 -0.0479 -0.4306
  356MOL0     C47967  10.661   5.724   7.236 -0.2780 -0.1853  0.8184
  356MOL0     C47968  10.801   5.803   7.239  0.0457  0.5641 -0.2446
  356MOL0    Cl47969  10.950   5.706   7.276 -0.7139 -0.4911 -0.6905
  356MOL0     C47970   9.933   6.140   6.768  0.2397  0.0966 -0.1702
  356MOL0     C47971   9.820   6.205   6.824 -0.2482  0.1040 -0.7499
  356MOL0     O47972   9.703   6.408   6.990 -0.0446  0.1028 -0.1763
  356MOL0     C47973   9.455   6.527   7.063 -0.0909  0.4952 -0.5065
  356MOL0     C47974   9.337   6.581   7.103 -0.1225 -0.1143  0.7502
  356MOL0     N47975   8.461   6.681   7.141 -0.0899  0.1816  0.6221
  356MOL0     N47976   8.392   6.633   7.043  0.1860 -0.8353 -0.2836
  356MOL0     C47977   7.424   6.447   6.229 -1.0754 -0.3414 -1.2827
  356MOL0     C47978   7.283   6.408   6.224  0.4928 -0.5570  0.4627
  356MOL0     C47979   6.881   6.215   6.331 -0.2915 -0.7066  0.1438
  356MOL0     C47980   6.788   6.325   6.339 -0.0430 -0.4223 -0.4545
  356MOL0     C47981   6.657   6.303   6.310 -0.1918  0.0281 -0.4181
  356MOL0     C47982   6.598   6.171   6.300  0.3391 -0.7665 -0.4392
  356MOL0     O47983   6.464   6.155   6.280  0.0873 -0.0664  0.3024
  356MOL0     C47984   6.449   6.124   6.141  0.5528 -0.1527 -0.3735
  356MOL0     C47985   6.428   6.253   6.061 -0.8835  0.8230  0.0751
  356MOL0     C47986   6.311   6.332   6.120 -0.2803 -0.3261 -0.0024
  356MOL0     C47987   6.268   6.439   6.018 -0.1110 -0.6723 -1.3095
  356MOL0     C47988   6.382   6.514   5.954 -0.3453  1.0786 -0.2111
  356MOL0     C47989   6.477   6.552   5.891 -0.2871  0.5922  0.7251
  356MOL0     C47990   6.687   6.068   6.316 -0.1362  0.1046 -0.7044
  356MOL0     C47991   6.824   6.082   6.321 -0.6722 -0.7372  0.7241
  356MOL0     C47992   6.901   5.949   6.303 -0.0402 -0.0240 -0.1566
  356MOL0     H47993   7.188   6.472   6.547  0.2916  3.5407 -0.6143
  356MOL0     H47994   7.427   6.532   6.561 -1.8807 -2.6504  2.9601
  356MOL0     H47995   7.599   6.678   6.495  0.6774  1.4478  0.1388
  356MOL0     H47996   7.656   6.535   6.580 -0.3611  3.6900  1.9050
  356MOL0     H47997   7.841   6.692   6.544  0.9331  3.9440 -3.2275
  356MOL0     H47998   7.823   6.672   6.372 -1.0130  1.0917  0.4348
  356MOL0     H47999   7.904   6.454   6.366 -2.3667 -2.3346  1.5508
  356MOL0     H48000   7.875   6.429   6.538  0.0261 -1.0078 -0.3934
  356MOL0     H48001   8.105   6.495   6.444 -1.0629 -0.7307 -1.5935
  356MOL0     H48002   8.054   6.668   6.460 -3.6748  1.4109  2.8573
  356MOL0     H48003   8.050   6.656   6.699  0.2690  1.0833 -1.9025
  356MOL0     H48004   8.044   6.479   6.691  3.2925 -0.9815 -0.3292
  356MOL0     H48005   8.253   6.448   6.609  1.6920 -1.0047  1.3986
  356MOL0     H48006   8.283   6.613   6.580 -0.6659  0.3676  1.6428
  356MOL0     H48007   8.232   6.476   6.844  1.6426 -0.2985 -0.9586
  356MOL0     H48008   8.219   6.650   6.829 -0.4503  2.0262 -4.0871
  356MOL0     H48009   8.461   6.459   6.804 -1.5579 -1.7130  2.7890
  356MOL0     H48010   8.467   6.623   6.726 -0.0251  0.5595 -0.0059
  356MOL0     H48011   8.689   6.654   6.891  0.8872  1.4531  1.6919
  356MOL0     H48012   8.692   6.819   7.195 -1.5074  1.1078 -2.3011
  356MOL0     H48013   8.678   6.665   7.285  3.1932 -0.9856 -0.1669
  356MOL0     H48014   8.818   6.553   7.098  0.4085 -0.2371 -1.5174
  356MOL0     H48015   8.852   6.703   7.030  0.3472 -0.6181 -0.1764
  356MOL0     H48016   8.913   6.606   7.311  0.7574  1.2865 -0.2263
  356MOL0     H48017   8.921   6.782   7.269  0.4550 -0.8712  3.2804
  356MOL0     H48018   9.140   6.707   7.253 -0.6481  2.1720  0.5794
  356MOL0     H48019   9.081   6.738   7.090 -2.1669 -0.0368  0.2673
  356MOL0     H48020   9.164   6.292   7.102  0.5518 -0.0158  2.0083
  356MOL0     H48021   9.387   6.198   7.077  1.4426 -1.0719  0.6322
  356MOL0     H48022   9.715   5.934   7.016  0.9088  2.4044  4.8432
  356MOL0     H48023   9.898   5.836   6.899 -1.4494 -0.3748  1.3160
  356MOL0     H48024  10.223   6.018   6.921  0.0891  0.2342  1.4669
  356MOL0     H48025  10.117   5.884   6.967 -0.7077  2.0572 -1.0289
  356MOL0     H48026  10.204   5.730   6.802 -0.3611 -1.2110  1.5393
  356MOL0     H48027  10.296   5.869   6.732 -0.1375 -1.3593  0.2813
  356MOL0     H48028  10.442   5.719   6.866 -0.5432 -0.2856 -2.2281
  356MOL0     H48029  10.445   5.885   6.927  0.2368  0.6011 -0.7742
  356MOL0     H48030  10.255   5.683   7.057  0.5330  0.1425 -0.3484
  356MOL0     H48031  10.285   5.856   7.101 -4.4658 -0.3732 -0.8431
  356MOL0     H48032  10.497   5.629   7.078 -1.0444 -1.0026  0.1195
  356MOL0     H48033  10.408   5.663   7.234 -0.8480  3.1697  0.6947
  356MOL0     H48034  10.568   5.882   7.102 -3.2010  0.1555 -1.1618
  356MOL0     H48035  10.509   5.869   7.272  1.7381 -0.9235  1.0379
  356MOL0     H48036  10.665   5.629   7.182  3.1673 -0.0648  0.6434
  356MOL0     H48037  10.638   5.689   7.337  2.2645 -2.7679  0.6282
  356MOL0     H48038  10.806   5.841   7.137 -0.1464 -0.5779 -0.6958
  356MOL0     H48039  10.795   5.892   7.302 -0.7049 -1.0392  2.0980
  356MOL0     H48040   9.993   6.201   6.701  2.3774 -2.5218 -0.7820
  356MOL0     H48041   9.801   6.307   6.792  2.8776  1.6341  1.7127
  356MOL0     H48042   9.540   6.595   7.053 -0.5668  1.7593  2.6930
  356MOL0     H48043   9.337   6.688   7.120 -1.3417 -0.0012  0.1765
  356MOL0     H48044   7.495   6.442   6.148  2.9364  0.2879  1.8971
  356MOL0     H48045   7.229   6.367   6.139 -1.2585  0.4976  0.9986
  356MOL0     H48046   6.823   6.428   6.346 -0.0960 -0.1200 -3.4464
  356MOL0     H48047   6.597   6.392   6.297 -1.3648 -1.0494 -3.3517
  356MOL0     H48048   6.360   6.060   6.132 -1.9882  2.7932  1.6624
  356MOL0     H48049   6.533   6.072   6.094  2.1769  0.4792  1.6631
  356MOL0     H48050   6.415   6.220   5.957 -4.0495 -2.1923  1.2364
  356MOL0     H48051   6.514   6.319   6.070 -0.7160  0.4163  1.5957
  356MOL0     H48052   6.337   6.361   6.222 -1.3654  0.8364 -0.0382
  356MOL0     H48053   6.217   6.283   6.147 -0.1517  0.2987  1.6547
  356MOL0     H48054   6.199   6.399   5.943 -2.4304  2.2113 -0.8983
  356MOL0     H48055   6.215   6.511   6.081 -0.0815 -2.3431  0.7064
  356MOL0     H48056   6.555   6.585   5.826 -0.0767 -3.3905 -1.3947
  356MOL0     H48057   6.646   5.967   6.323  1.1105 -0.6485 -3.1506
  356MOL0     H48058   6.980   5.951   6.379  1.0448 -2.2339 -1.1434
  356MOL0     H48059   6.851   5.854   6.326 -1.5271  0.7559 -0.0372
  356MOL0     H48060   6.945   5.946   6.203 -0.4943  4.2201 -0.6390
  357MOL0     O48061   1.778   8.750  11.303  0.9295  0.4572  1.1633
  357MOL0     C48062   1.752   8.688  11.400  1.0252 -0.3302 -0.5018
  357MOL0     O48063   1.810   8.573  11.442  0.5992 -0.7011 -0.7580
  357MOL0     C48064   1.847   8.480  11.345 -0.2784  0.0951  0.8056
  357MOL0     C48065   1.771   8.440  11.226 -0.1418  0.1717  0.1439
  357MOL0     C48066   1.828   8.354  11.124 -0.2660  0.0864 -0.2286
  357MOL0     C48067   1.942   8.281  11.162 -0.2807 -0.4259  0.8442
  357MOL0     O48068   1.995   8.184  11.082  0.2929 -0.9338  0.0492
  357MOL0     C48069   1.921   8.127  10.979 -0.6499  0.6978 -0.0355
  357MOL0     C48070   1.993   7.994  10.956 -0.3364 -0.3714  0.3160
  357MOL0     C48071   2.143   8.011  10.937  0.1389 -0.3246  0.2434
  357MOL0     C48072   2.202   7.893  10.855 -0.2058  1.0033  0.2855
  357MOL0     C48073   2.362   7.909  10.840  1.5006  0.0721  0.4582
  357MOL0     C48074   2.389   8.013  10.726  0.1032  0.1447 -0.0837
  357MOL0     C48075   2.539   8.063  10.723  1.1775  0.5339  0.5062
  357MOL0     C48076   2.593   8.140  10.844  0.3956 -0.1536  0.7431
  357MOL0     N48077   2.739   8.142  10.834 -0.4522 -0.0446  0.1643
  357MOL0     C48078   2.810   8.184  10.720 -0.0925  0.1346 -0.1861
  357MOL0     C48079   2.925   8.121  10.737  0.4329 -0.2643  0.3467
  357MOL0     C48080   3.051   8.130  10.650  0.6949  0.8329 -0.4233
  357MOL0     C48081   3.084   7.982  10.607 -0.1114  0.3001  0.8653
  357MOL0     C48082   3.185   7.973  10.489  0.1497 -0.2474  0.3075
  357MOL0     C48083   3.202   7.827  10.442 -0.1174  0.2793 -0.6497
  357MOL0     O48084   3.077   7.760  10.399  0.2375 -0.1398 -0.4454
  357MOL0     C48085   3.080   7.625  10.366 -0.5552  0.8965 -0.4756
  357MOL0     C48086   3.203   7.568  10.323 -0.5305 -0.1763  0.2262
  357MOL0     C48087   3.202   7.433  10.286 -0.6187  0.0192  0.1340
  357MOL0     C48088   3.097   7.350  10.313 -0.3492 -0.1907 -0.2187
  357MOL0     C48089   3.098   7.205  10.293  0.8561  1.1816 -0.5905
  357MOL0     O48090   3.217   7.163  10.224 -0.8356 -0.2532 -0.3845
  357MOL0     C48091   3.184   7.100  10.109  0.0762 -0.6645  0.4429
  357MOL0     C48092   3.289   7.038  10.040 -0.3908 -0.5480  0.7254
  357MOL0     C48093   3.277   6.963   9.924 -0.6275  0.3053  0.1169
  357MOL0     C48094   3.146   6.945   9.877  0.7882 -0.1995  0.4279
  357MOL0     O48095   3.131   6.857   9.777  0.1161 -0.2991 -0.5424
  357MOL0     C48096   3.028   6.758   9.799  1.0089  1.1728  0.2982
  357MOL0     C48097   3.028   6.683   9.663 -0.2196 -1.2500  0.9686
  357MOL0     C48098   2.948   6.552   9.659  0.4664 -0.4504 -0.3350
  357MOL0     C48099   2.965   6.483   9.521  0.2865 -0.2393  0.3156
  357MOL0     C48100   2.891   6.353   9.498 -0.4017 -1.0984 -0.2911
  357MOL0     C48101   2.947   6.284   9.380 -1.2698 -0.7126  0.0541
  357MOL0     C48102   3.106   6.274   9.385 -0.4217  0.2870 -0.3568
  357MOL0     C48103   3.163   6.179   9.288  0.2495 -0.8660  0.7182
  357MOL0    Cl48104   3.136   6.008   9.334 -0.1249 -0.2249 -0.2690
  357MOL0     C48105   3.040   7.029   9.914 -0.6484  0.1742 -0.8762
  357MOL0     C48106   3.056   7.096  10.040  0.2539 -1.0836 -0.1098
  357MOL0     O48107   3.014   7.123  10.338  0.0622 -0.7153 -0.5969
  357MOL0     C48108   2.984   7.408  10.375  0.2669  0.3560  0.1549
  357MOL0     C48109   2.968   7.549  10.387 -0.3312 -0.0847  0.4611
  357MOL0     N48110   2.918   8.038  10.850  0.2362 -0.6367 -0.1143
  357MOL0     N48111   2.812   8.064  10.915 -0.3178 -0.8509  0.7868
  357MOL0     C48112   2.012   8.317  11.273  0.8416  0.5733 -0.0473
  357MOL0     C48113   1.968   8.415  11.365 -0.5808  0.1410  0.0944
  357MOL0     C48114   1.669   8.762  11.503 -0.5739  0.4188  0.1056
  357MOL0     C48115   1.690   8.711  11.634 -0.1972  0.0884  0.7786
  357MOL0     C48116   1.617   8.773  11.735  0.9632 -0.2605  0.0739
  357MOL0     C48117   1.536   8.886  11.717  0.4301 -0.0853  0.4123
  357MOL0     O48118   1.467   8.948  11.826  0.0630  0.1718  0.3294
  357MOL0     C48119   1.484   8.889  11.954  0.3987 -0.5765  0.2583
  357MOL0     C48120   1.366   8.947  12.031  0.7717 -0.4342 -0.5625
  357MOL0     C48121   1.210   8.929  11.972  0.1057 -0.7032 -0.6835
  357MOL0     C48122   1.147   8.794  11.952  0.0843 -1.0366  0.9824
  357MOL0     C48123   1.014   8.818  11.892 -0.2649 -0.4087  0.5408
  357MOL0     C48124   0.908   8.869  11.850 -0.2872  0.1213 -0.4570
  357MOL0     C48125   1.511   8.924  11.585 -0.1066 -0.3175  0.1945
  357MOL0     C48126   1.582   8.867  11.479  1.4263  0.1018 -0.5160
  357MOL0     C48127   1.547   8.905  11.341  0.8643 -0.4438  0.6311
  357MOL0     H48128   1.675   8.485  11.204 -0.1582 -0.0702 -0.2908
  357MOL0     H48129   1.762   8.337  11.039 -1.6210  1.8842  0.4047
  357MOL0     H48130   1.824   8.105  11.026 -0.5359  0.9692  0.3328
  357MOL0     H48131   1.910   8.184  10.886 -2.0882 -2.2426 -1.8112
  357MOL0     H48132   1.951   7.959  10.862 -0.7685  3.3442 -1.0456
  357MOL0     H48133   1.965   7.920  11.031 -0.8648 -1.3869 -0.8498
  357MOL0     H48134   2.200   8.018  11.030 -0.4645  0.8113  0.5507
  357MOL0     H48135   2.158   8.098  10.871  0.7010 -1.7747 -1.6329
  357MOL0     H48136   2.183   7.798  10.905  2.9866 -0.6124 -1.2679
  357MOL0     H48137   2.154   7.885  10.757  0.0890 -1.0266  0.2608
  357MOL0     H48138   2.405   7.936  10.937  0.4926  3.5909  0.0730
  357MOL0     H48139   2.402   7.810  10.815 -1.9346 -1.0778 -1.0311
  357MOL0     H48140   2.367   7.968  10.629  2.0174  2.0107 -1.4967
  357MOL0     H48141   2.323   8.099  10.741 -0.1250  0.1997 -1.3425
  357MOL0     H48142   2.524   8.134  10.641  0.7863  2.5193  2.2064
  357MOL0     H48143   2.607   7.982  10.697 -1.3550 -1.5545 -0.0501
  357MOL0     H48144   2.549   8.240  10.852 -0.5648 -0.6042  1.2039
  357MOL0     H48145   2.564   8.091  10.938 -3.1654  3.1896  1.6541
  357MOL0     H48146   2.769   8.232  10.631  1.2511 -0.2755 -1.0677
  357MOL0     H48147   3.038   8.198  10.566  2.6577  2.3788  0.4332
  357MOL0     H48148   3.125   8.171  10.720 -3.2640  1.6113  3.7566
  357MOL0     H48149   3.129   7.937  10.696 -1.0677 -1.5910  0.4548
  357MOL0     H48150   2.988   7.933  10.586 -1.6283  3.3092  0.2725
  357MOL0     H48151   3.283   8.015  10.512 -0.4876  3.0275 -2.1577
  357MOL0     H48152   3.141   8.027  10.405 -1.3839 -1.5975  0.1834
  357MOL0     H48153   3.239   7.760  10.520 -2.6908 -1.9511 -1.1963
  357MOL0     H48154   3.275   7.813  10.362 -0.0198  2.1390 -0.9347
  357MOL0     H48155   3.286   7.630  10.292  0.9693 -1.8435  0.7480
  357MOL0     H48156   3.285   7.381  10.239 -0.4867 -1.5923  2.0385
  357MOL0     H48157   3.394   7.046  10.065  1.3459 -1.9271 -4.6670
  357MOL0     H48158   3.372   6.926   9.887  2.1829  1.1747  5.4464
  357MOL0     H48159   3.055   6.692   9.882  0.3530 -0.4441 -0.7159
  357MOL0     H48160   2.924   6.782   9.825  0.5220 -2.9281  3.1624
  357MOL0     H48161   3.002   6.753   9.584  1.7895 -3.3053 -1.7137
  357MOL0     H48162   3.133   6.671   9.635 -0.5789  0.1004 -1.1563
  357MOL0     H48163   2.978   6.488   9.743  3.0663 -2.1344 -2.3853
  357MOL0     H48164   2.845   6.589   9.672  1.2429  0.9819  2.9139
  357MOL0     H48165   3.073   6.493   9.506  0.3838 -0.4574  0.8459
  357MOL0     H48166   2.933   6.555   9.446  2.7940  0.5542 -0.0808
  357MOL0     H48167   2.785   6.370   9.475  0.4609  1.4298 -3.1613
  357MOL0     H48168   2.894   6.294   9.590  0.2324 -0.8561 -0.1544
  357MOL0     H48169   2.911   6.181   9.376 -4.3269  0.2494  0.4902
  357MOL0     H48170   2.918   6.333   9.286  1.0163  0.3923 -0.1456
  357MOL0     H48171   3.137   6.241   9.485  2.8976 -0.8899 -1.6258
  357MOL0     H48172   3.154   6.370   9.362 -2.3031  1.7321  1.3792
  357MOL0     H48173   3.124   6.207   9.190 -0.5181 -3.1358  0.3195
  357MOL0     H48174   3.272   6.180   9.279  0.2840 -0.8522  1.1163
  357MOL0     H48175   2.951   7.030   9.853 -2.0954 -1.4319  1.0620
  357MOL0     H48176   2.967   7.152  10.067  0.8290 -0.2272  0.0530
  357MOL0     H48177   2.892   7.350  10.381 -0.6798  1.7707 -0.3099
  357MOL0     H48178   2.871   7.589  10.413 -1.1753 -0.5930 -1.7189
  357MOL0     H48179   2.100   8.263  11.306 -1.9100 -3.4989  1.3640
  357MOL0     H48180   2.036   8.453  11.441  1.9710  2.2881 -3.0088
  357MOL0     H48181   1.756   8.628  11.656 -3.2451 -2.4902  0.9452
  357MOL0     H48182   1.635   8.733  11.835 -1.6424 -0.4234  0.5518
  357MOL0     H48183   1.583   8.917  11.990 -0.0272  0.7129  0.4758
  357MOL0     H48184   1.473   8.781  11.944  1.3835 -0.6059 -0.7038
  357MOL0     H48185   1.373   9.055  12.044  4.1304 -0.3403 -2.2277
  357MOL0     H48186   1.366   8.898  12.129  1.9440 -0.0336 -0.3562
  357MOL0     H48187   1.210   8.981  11.875 -1.7319  1.3699  0.3470
  357MOL0     H48188   1.153   8.993  12.039  0.8762 -1.9709  1.2591
  357MOL0     H48189   1.199   8.720  11.891  0.2242 -0.8294  0.8492
  357MOL0     H48190   1.147   8.751  12.053  2.4346 -0.5182  1.2712
  357MOL0     H48191   0.821   8.912  11.804 -0.6051  0.8156  0.7573
  357MOL0     H48192   1.437   9.004  11.579  0.1463 -0.0704  0.3562
  357MOL0     H48193   1.512   8.825  11.276  2.4819  0.2609 -1.2137
  357MOL0     H48194   1.476   8.988  11.339  3.4506  1.9230 -0.9689
  357MOL0     H48195   1.638   8.943  11.294  1.5411 -1.6023  0.9503
  358MOL0     O48196   6.394  11.460   9.208 -0.3191  0.4105  0.3913
  358MOL0     C48197   6.400  11.495   9.328 -0.2255 -1.5902  0.8713
  358MOL0     O48198   6.292  11.480   9.414 -0.0668  0.4475  0.6185
  358MOL0     C48199   6.171  11.432   9.363  0.4925 -0.6484  0.4708
  358MOL0     C48200   6.104  11.482   9.247 -0.8284 -0.2587  0.6701
  358MOL0     C48201   5.979  11.429   9.203 -0.5542  0.0909 -0.2752
  358MOL0     C48202   5.923  11.333   9.274 -0.8277  0.2985 -1.0691
  358MOL0     O48203   5.798  11.285   9.238 -0.2148  0.4774  0.6205
  358MOL0     C48204   5.786  11.137   9.234  0.1672 -0.4842 -0.2363
  358MOL0     C48205   5.669  11.090   9.137 -0.3838 -0.5730 -0.3771
  358MOL0     C48206   5.533  11.119   9.178  0.6085 -0.4804 -0.0969
  358MOL0     C48207   5.515  11.062   9.317 -0.1678  0.7078  0.2192
  358MOL0     C48208   5.371  11.020   9.339  0.4703  0.5233 -0.5536
  358MOL0     C48209   5.266  11.133   9.354 -0.5837  0.6931 -0.0700
  358MOL0     C48210   5.301  11.234   9.467 -0.5289 -0.3890  0.1418
  358MOL0     C48211   5.196  11.345   9.498  0.3488  0.6453 -0.2291
  358MOL0     N48212   5.179  11.374   9.644  0.0985 -0.0581 -0.1205
  358MOL0     C48213   5.247  11.321   9.754 -0.8502 -0.4982  0.7121
  358MOL0     C48214   5.175  11.363   9.866  0.0071 -0.0221 -0.5796
  358MOL0     C48215   5.188  11.307   9.998 -0.5531  1.0142 -0.6991
  358MOL0     C48216   5.311  11.233  10.039 -0.4448 -0.1612 -0.5032
  358MOL0     C48217   5.312  11.196  10.187  0.1194 -0.3459  0.2123
  358MOL0     C48218   5.454  11.145  10.244  1.1396  0.8322 -0.0276
  358MOL0     O48219   5.553  11.244  10.244 -0.5887 -0.3184  0.7589
  358MOL0     C48220   5.671  11.223  10.308 -0.0532  0.9107 -0.6851
  358MOL0     C48221   5.705  11.117  10.393 -0.7994 -0.2121 -0.4476
  358MOL0     C48222   5.820  11.106  10.465  0.6051 -0.6050 -0.6271
  358MOL0     C48223   5.914  11.211  10.458 -0.1587  0.0138  0.4041
  358MOL0     C48224   6.045  11.194  10.535 -0.3085  0.5693  0.0173
  358MOL0     O48225   6.111  11.309  10.559 -0.1402  1.2209  0.5073
  358MOL0     C48226   6.231  11.310  10.634 -0.2768  1.3161  0.0274
  358MOL0     C48227   6.257  11.406  10.720  0.3408  0.5237  0.0646
  358MOL0     C48228   6.381  11.417  10.773 -0.7903 -0.3834 -0.0595
  358MOL0     C48229   6.478  11.318  10.760 -0.4741  0.3456 -0.0437
  358MOL0     O48230   6.603  11.329  10.810 -1.1133  0.5811  0.2399
  358MOL0     C48231   6.632  11.394  10.934 -0.0517 -1.2571 -0.1838
  358MOL0     C48232   6.724  11.314  11.022  0.7370  0.2690 -0.1002
  358MOL0     C48233   6.670  11.171  11.037 -0.4988  0.0193  0.4260
  358MOL0     C48234   6.723  11.062  10.931 -0.4310 -0.3874 -0.0230
  358MOL0     C48235   6.621  10.952  10.936  0.7469 -0.3818  0.6203
  358MOL0     C48236   6.645  10.840  10.835  0.6271 -0.3420  0.4958
  358MOL0     C48237   6.758  10.752  10.867  1.1071  0.0000  0.1886
  358MOL0     C48238   6.764  10.638  10.765  0.2477 -0.1871 -0.2320
  358MOL0    Cl48239   6.908  10.524  10.773  0.0630 -0.0794  0.0357
  358MOL0     C48240   6.455  11.213  10.666  0.7957  0.0472 -0.1927
  358MOL0     C48241   6.328  11.223  10.603 -0.8017  1.2242 -0.1719
  358MOL0     O48242   6.070  11.083  10.577  0.3800  0.1502  0.7929
  358MOL0     C48243   5.900  11.317  10.361  1.2059  1.2243  0.7325
  358MOL0     C48244   5.771  11.328  10.292  0.4731  0.2380 -0.2818
  358MOL0     N48245   5.086  11.458   9.827 -0.1132 -0.0628 -0.3253
  358MOL0     N48246   5.089  11.459   9.699 -0.7636  0.0231  0.2116
  358MOL0     C48247   5.989  11.286   9.393 -0.5877 -0.8401  0.1378
  358MOL0     C48248   6.105  11.349   9.435 -0.4933  0.0050 -0.7844
  358MOL0     C48249   6.522  11.568   9.379 -0.6144 -0.3683  1.0689
  358MOL0     C48250   6.548  11.574   9.521 -0.2632  0.0233  0.3756
  358MOL0     C48251   6.666  11.617   9.564  0.3070  1.0100  0.1750
  358MOL0     C48252   6.760  11.672   9.479 -0.9152 -0.4382 -0.2678
  358MOL0     O48253   6.877  11.738   9.519 -0.2779 -0.5268  0.1936
  358MOL0     C48254   6.942  11.700   9.642 -1.1449 -0.2978  0.4858
  358MOL0     C48255   7.011  11.574   9.629 -0.3309 -0.7723  0.7824
  358MOL0     C48256   7.121  11.586   9.520 -0.1750  0.5049  0.2341
  358MOL0     C48257   7.159  11.444   9.471  0.3488 -0.1203 -0.8787
  358MOL0     C48258   7.274  11.441   9.385 -0.5400 -0.4232  0.4144
  358MOL0     C48259   7.373  11.404   9.323 -0.2996 -0.3822 -0.5794
  358MOL0     C48260   6.743  11.664   9.344 -0.2531 -0.3360  0.3494
  358MOL0     C48261   6.616  11.628   9.288 -0.5486 -1.0362 -0.0223
  358MOL0     C48262   6.598  11.647   9.137 -0.3201 -0.8563  1.1144
  358MOL0     H48263   6.161  11.533   9.170 -0.4831 -1.2778  0.2410
  358MOL0     H48264   5.930  11.470   9.115 -0.4615  0.0149 -0.3633
  358MOL0     H48265   5.880  11.097   9.195 -0.3508  1.0159 -3.3787
  358MOL0     H48266   5.762  11.095   9.332 -2.9940  0.9876 -0.2480
  358MOL0     H48267   5.677  10.982   9.127 -0.2214 -0.5554 -0.4388
  358MOL0     H48268   5.677  11.131   9.036 -0.6159  1.2917  0.3113
  358MOL0     H48269   5.449  11.077   9.122 -2.1837  2.1423  1.7933
  358MOL0     H48270   5.528  11.228   9.182  4.0090 -0.2456  2.4518
  358MOL0     H48271   5.571  10.969   9.317 -0.6403  0.2874 -3.2384
  358MOL0     H48272   5.549  11.126   9.399 -0.9720  2.0437 -0.4419
  358MOL0     H48273   5.344  10.958   9.254  0.7127  0.7307 -0.7826
  358MOL0     H48274   5.353  10.951   9.422 -1.7471 -0.6775 -1.9358
  358MOL0     H48275   5.265  11.172   9.252 -2.6987 -3.5218 -1.8937
  358MOL0     H48276   5.162  11.103   9.367 -0.2952 -0.7694 -1.0114
  358MOL0     H48277   5.395  11.290   9.456 -0.4286  0.1452  3.0965
  358MOL0     H48278   5.319  11.169   9.552 -1.0126 -0.6512  0.0447
  358MOL0     H48279   5.224  11.431   9.435  3.0075  0.9726  1.2108
  358MOL0     H48280   5.097  11.321   9.458  0.9203  3.1088 -3.6057
  358MOL0     H48281   5.320  11.241   9.751 -1.1655 -0.7906  0.7444
  358MOL0     H48282   5.168  11.387  10.070 -1.5718 -0.2304  0.4437
  358MOL0     H48283   5.113  11.230  10.016  0.5122  0.7143  3.5861
  358MOL0     H48284   5.314  11.142   9.979 -1.9580  0.0143 -0.8717
  358MOL0     H48285   5.401  11.290  10.012 -1.3179  0.5409 -2.0003
  358MOL0     H48286   5.238  11.119  10.208  0.7117 -0.3373  2.5908
  358MOL0     H48287   5.276  11.288  10.233 -1.6389 -0.3736 -0.9725
  358MOL0     H48288   5.492  11.065  10.180  3.3316  1.3502  0.5364
  358MOL0     H48289   5.440  11.108  10.346 -0.9916 -0.2007 -0.6127
  358MOL0     H48290   5.627  11.044  10.410 -1.2333  0.5383  0.9012
  358MOL0     H48291   5.837  11.011  10.515  1.4682 -1.3908 -2.3380
  358MOL0     H48292   6.184  11.480  10.752 -2.5439 -1.3290 -1.7623
  358MOL0     H48293   6.408  11.498  10.840 -0.0316 -1.0766  0.4974
  358MOL0     H48294   6.683  11.488  10.914 -0.3549 -0.8080  1.0767
  358MOL0     H48295   6.543  11.427  10.988  0.5240  1.5130 -0.7744
  358MOL0     H48296   6.821  11.307  10.973  0.8087  0.5994 -0.0069
  358MOL0     H48297   6.706  11.367  11.116 -0.3767 -3.2668  1.8547
  358MOL0     H48298   6.708  11.130  11.131 -1.8603  0.2296  1.0920
  358MOL0     H48299   6.563  11.171  11.057 -0.8539  1.1585 -1.2333
  358MOL0     H48300   6.818  11.019  10.962 -0.1878  0.3614  0.2882
  358MOL0     H48301   6.724  11.112  10.834  0.2077 -0.5557 -0.1025
  358MOL0     H48302   6.533  11.013  10.911  1.0038 -0.4112 -0.4226
  358MOL0     H48303   6.595  10.917  11.036 -0.0345 -0.3154  0.4506
  358MOL0     H48304   6.555  10.778  10.829 -0.0860  0.5307  1.7519
  358MOL0     H48305   6.664  10.880  10.736  0.2576 -1.2831  0.0236
  358MOL0     H48306   6.749  10.700  10.963  2.2019 -1.9232 -0.6885
  358MOL0     H48307   6.853  10.806  10.862  1.2758 -0.3553 -0.5242
  358MOL0     H48308   6.676  10.574  10.779  0.4089 -0.3852 -0.1188
  358MOL0     H48309   6.744  10.686  10.669  0.0749  1.6185  0.6729
  358MOL0     H48310   6.537  11.155  10.627  2.1716  1.6367  0.2345
  358MOL0     H48311   6.302  11.151  10.526 -2.0354  2.4792 -0.9763
  358MOL0     H48312   5.966  11.396  10.328 -0.7159  1.7321 -2.2900
  358MOL0     H48313   5.751  11.417  10.233 -0.9497  0.4652  0.4971
  358MOL0     H48314   5.944  11.207   9.452 -1.3130  0.9749  2.1947
  358MOL0     H48315   6.158  11.311   9.522 -0.6622  0.4015 -0.5055
  358MOL0     H48316   6.478  11.545   9.599  0.9923 -0.6554  1.2851
  358MOL0     H48317   6.676  11.646   9.668 -1.0395 -0.2885  0.7060
  358MOL0     H48318   6.876  11.701   9.729  1.2165 -0.9415  2.3702
  358MOL0     H48319   7.018  11.777   9.656 -0.0038 -1.0781 -1.0741
  358MOL0     H48320   6.941  11.493   9.607  0.0853 -0.5906 -1.4150
  358MOL0     H48321   7.051  11.546   9.727 -1.0573  1.1396  1.6722
  358MOL0     H48322   7.217  11.630   9.549 -0.7590  1.3575  0.9371
  358MOL0     H48323   7.090  11.638   9.429 -1.0635 -1.7738 -0.8479
  358MOL0     H48324   7.180  11.385   9.561 -2.8898 -2.1242 -1.2571
  358MOL0     H48325   7.073  11.398   9.421  0.5699 -0.8157 -0.6186
  358MOL0     H48326   7.472  11.383   9.287  0.5308 -0.7641  1.7777
  358MOL0     H48327   6.829  11.696   9.285 -0.8392  3.8626  1.4655
  358MOL0     H48328   6.632  11.565   9.074 -0.1013  1.1236 -1.5413
  358MOL0     H48329   6.493  11.659   9.107  0.2160 -0.7675 -0.8550
  358MOL0     H48330   6.652  11.734   9.097  1.3126 -0.6691  3.4847
  359MOL0     O48331   6.892   6.052   8.102 -0.8078  0.7244  0.3554
  359MOL0     C48332   6.849   6.154   8.158 -0.1246  0.3065 -0.0536
  359MOL0     O48333   6.735   6.213   8.125 -0.4291 -0.5749 -0.2286
  359MOL0     C48334   6.661   6.166   8.032  0.6656 -0.2463  0.3348
  359MOL0     C48335   6.611   6.249   7.927  0.2364  0.3639 -0.4763
  359MOL0     C48336   6.529   6.201   7.833  0.8186  0.1184  0.3343
  359MOL0     C48337   6.487   6.065   7.835 -0.6666 -0.0839  0.9211
  359MOL0     O48338   6.408   6.017   7.735  0.0333 -0.0372 -0.1169
  359MOL0     C48339   6.445   6.052   7.595  0.0531 -0.3446 -0.6163
  359MOL0     C48340   6.413   5.940   7.495  0.2200  0.6707 -0.1775
  359MOL0     C48341   6.264   5.898   7.512 -0.0952  0.3412  0.2344
  359MOL0     C48342   6.190   5.844   7.386  0.2206 -0.4140 -0.8779
  359MOL0     C48343   6.049   5.779   7.418  0.1226  0.0364 -0.2802
  359MOL0     C48344   5.973   5.733   7.297  0.3617  0.0160  0.4041
  359MOL0     C48345   6.033   5.623   7.212  0.6897 -0.3049 -1.7183
  359MOL0     C48346   5.995   5.634   7.068 -0.0301 -0.1431  0.8546
  359MOL0     N48347   5.849   5.625   7.048 -0.1570  1.0239 -0.4002
  359MOL0     C48348   5.774   5.732   7.008  0.5542 -0.5511 -0.4392
  359MOL0     C48349   5.655   5.671   6.985  0.0455 -0.5086  0.4760
  359MOL0     C48350   5.515   5.732   6.948 -0.0275 -0.5728  0.9429
  359MOL0     C48351   5.447   5.770   7.083  0.1233 -0.1894 -0.1831
  359MOL0     C48352   5.296   5.781   7.082 -0.5204 -0.3637  1.0082
  359MOL0     C48353   5.232   5.918   7.042  0.4829 -0.8621 -0.4907
  359MOL0     O48354   5.291   6.036   7.114  0.7882  0.4900  0.5086
  359MOL0     C48355   5.268   6.154   7.058 -1.1286 -0.0597 -1.3776
  359MOL0     C48356   5.348   6.260   7.111  0.0587  0.0124 -0.9343
  359MOL0     C48357   5.338   6.392   7.056 -0.2260 -0.0574  0.4283
  359MOL0     C48358   5.240   6.424   6.960  1.0009 -0.6321 -0.6486
  359MOL0     C48359   5.221   6.564   6.919  0.4389 -0.2766 -0.3259
  359MOL0     O48360   5.310   6.664   6.971 -0.5991  0.7379  0.1141
  359MOL0     C48361   5.320   6.789   6.907 -1.1013  0.0316  0.4002
  359MOL0     C48362   5.384   6.890   6.981 -0.6888 -0.3787  0.1014
  359MOL0     C48363   5.394   7.019   6.924  0.3891  0.2547 -0.1736
  359MOL0     C48364   5.338   7.050   6.797 -0.3983  0.5253 -0.7719
  359MOL0     O48365   5.348   7.178   6.745 -0.2823  0.2707 -0.0966
  359MOL0     C48366   5.356   7.184   6.601  0.3988  0.2355 -0.4708
  359MOL0     C48367   5.436   7.316   6.573 -0.7672 -0.1843 -0.0050
  359MOL0     C48368   5.585   7.283   6.555  0.4800  0.2710  0.6557
  359MOL0     C48369   5.652   7.415   6.527 -0.1914 -0.4150  0.0297
  359MOL0     C48370   5.805   7.409   6.488 -0.2557 -0.7554  0.2308
  359MOL0     C48371   5.899   7.397   6.603 -0.2450  0.1308  0.3646
  359MOL0     C48372   6.053   7.393   6.565  0.7279 -0.8100  0.2138
  359MOL0     C48373   6.115   7.522   6.523 -0.9376  0.0428  0.5443
  359MOL0    Cl48374   6.290   7.519   6.555  0.1326  0.5433  0.3636
  359MOL0     C48375   5.275   6.944   6.724  0.0907 -0.7191 -0.4159
  359MOL0     C48376   5.264   6.822   6.784 -0.2950  0.7141 -0.7074
  359MOL0     O48377   5.117   6.580   6.852 -0.0443 -0.5192  0.1049
  359MOL0     C48378   5.157   6.310   6.923 -0.4342  0.1460  0.2625
  359MOL0     C48379   5.171   6.182   6.964 -0.3736 -0.2823  0.2457
  359MOL0     N48380   5.666   5.536   7.004 -0.2528  0.0183  0.4991
  359MOL0     N48381   5.782   5.506   7.054  0.7665  0.4053 -0.1287
  359MOL0     C48382   6.521   5.985   7.947  0.0793 -0.6144  0.9330
  359MOL0     C48383   6.607   6.037   8.043 -0.1761  0.1019  0.8042
  359MOL0     C48384   6.921   6.211   8.270 -0.5659  0.3347 -0.4666
  359MOL0     C48385   6.908   6.343   8.294  0.5150  0.1643  0.1280
  359MOL0     C48386   6.976   6.408   8.398  0.7222  0.5209 -0.0651
  359MOL0     C48387   7.067   6.334   8.474 -0.2898 -0.7801 -0.3152
  359MOL0     O48388   7.158   6.397   8.561 -0.7086 -0.0748 -0.2594
  359MOL0     C48389   7.290   6.349   8.576 -0.7495 -0.1413 -0.7956
  359MOL0     C48390   7.298   6.251   8.701  0.1021  0.4690  0.3634
  359MOL0     C48391   7.448   6.233   8.746 -0.2637  0.3896  0.0429
  359MOL0     C48392   7.462   6.160   8.868  0.0776 -0.3322 -0.5745
  359MOL0     C48393   7.602   6.159   8.915  0.4465 -0.2131 -0.1418
  359MOL0     C48394   7.719   6.160   8.957  0.3833  0.1457 -0.3380
  359MOL0     C48395   7.086   6.197   8.443 -0.4790 -0.4343  0.1599
  359MOL0     C48396   7.008   6.132   8.347 -0.9459 -0.7398 -0.3596
  359MOL0     C48397   7.027   5.981   8.334  0.0200  0.6088 -0.1137
  359MOL0     H48398   6.651   6.350   7.923 -0.3937  0.7040  1.0129
  359MOL0     H48399   6.502   6.257   7.744 -1.0472  0.9236  1.3502
  359MOL0     H48400   6.408   6.150   7.564  3.2749  1.8819  1.8257
  359MOL0     H48401   6.553   6.069   7.581 -0.2731  0.8689 -1.8683
  359MOL0     H48402   6.479   5.854   7.508  2.0377  1.4403 -3.1875
  359MOL0     H48403   6.433   5.984   7.397  2.7370  1.3216  0.5542
  359MOL0     H48404   6.210   5.983   7.553 -0.0324  0.3461  0.3086
  359MOL0     H48405   6.263   5.817   7.586 -0.3107 -0.6528 -0.8198
  359MOL0     H48406   6.173   5.921   7.310  0.2384 -0.1805 -0.6497
  359MOL0     H48407   6.260   5.771   7.346  1.0863 -1.4137  2.1727
  359MOL0     H48408   6.060   5.706   7.499 -2.2737  0.9193  0.9384
  359MOL0     H48409   5.983   5.850   7.467 -2.6018 -2.5109  0.0311
  359MOL0     H48410   5.873   5.699   7.327  0.6179 -0.1836  1.0615
  359MOL0     H48411   5.958   5.812   7.223  2.2598 -2.4589 -2.8911
  359MOL0     H48412   5.995   5.522   7.233  0.3102  0.2185  0.2746
  359MOL0     H48413   6.140   5.639   7.222  0.2299  1.5007  2.3702
  359MOL0     H48414   6.035   5.723   7.019  0.4884 -0.8663 -0.0615
  359MOL0     H48415   6.040   5.546   7.020  1.2097 -1.3499  3.9415
  359MOL0     H48416   5.809   5.835   7.002 -1.8882  1.0654  5.5394
  359MOL0     H48417   5.512   5.825   6.891 -1.5053 -1.9228 -1.3393
  359MOL0     H48418   5.450   5.659   6.899  2.4415 -1.4680 -1.2173
  359MOL0     H48419   5.477   5.688   7.150 -0.6735  2.4267  3.7192
  359MOL0     H48420   5.490   5.863   7.121 -1.0819 -1.2987  4.6833
  359MOL0     H48421   5.269   5.749   7.183  0.1636  0.8402  1.6001
  359MOL0     H48422   5.260   5.709   7.008  0.7350  0.4352 -0.4291
  359MOL0     H48423   5.122   5.917   7.045  0.4579 -0.7841  3.1180
  359MOL0     H48424   5.256   5.927   6.935  0.7975  2.2576 -0.2591
  359MOL0     H48425   5.418   6.244   7.192 -0.0490 -2.5300 -1.2744
  359MOL0     H48426   5.414   6.465   7.084  0.2499 -0.8673  1.3150
  359MOL0     H48427   5.433   6.875   7.077  0.9250  2.5158 -0.1527
  359MOL0     H48428   5.437   7.098   6.986  0.2299  0.5588 -0.4482
  359MOL0     H48429   5.405   7.102   6.548  1.5057  1.2142 -1.0119
  359MOL0     H48430   5.255   7.196   6.559  0.0843  0.8105  0.4110
  359MOL0     H48431   5.387   7.354   6.483 -1.5984  1.8848  1.2495
  359MOL0     H48432   5.423   7.391   6.652 -2.2336  1.1321 -1.4270
  359MOL0     H48433   5.632   7.242   6.644  3.1248  2.9554  0.6538
  359MOL0     H48434   5.592   7.217   6.468 -0.1725  2.1444 -0.9017
  359MOL0     H48435   5.648   7.467   6.623  0.4861 -2.8061  1.4455
  359MOL0     H48436   5.593   7.461   6.447 -0.4213 -0.2085  0.3144
  359MOL0     H48437   5.822   7.508   6.445 -1.2249 -0.0834  1.3288
  359MOL0     H48438   5.814   7.318   6.428 -2.6325  0.3511 -1.9997
  359MOL0     H48439   5.884   7.488   6.662  2.2728  1.2899 -0.6102
  359MOL0     H48440   5.868   7.311   6.662 -2.5943  0.4427 -0.3317
  359MOL0     H48441   6.063   7.317   6.487 -1.5876 -0.7252 -0.2268
  359MOL0     H48442   6.110   7.374   6.656 -0.3699  0.9507  1.3339
  359MOL0     H48443   6.111   7.524   6.414  0.0295 -0.1801  0.4948
  359MOL0     H48444   6.062   7.613   6.553 -1.9115 -0.0951 -0.6851
  359MOL0     H48445   5.220   6.967   6.633  0.3391 -0.3144 -0.4655
  359MOL0     H48446   5.201   6.750   6.734 -2.2995  1.2214  0.9853
  359MOL0     H48447   5.070   6.313   6.858 -0.6890  1.9204  0.6270
  359MOL0     H48448   5.100   6.110   6.925 -0.6118 -2.0757  3.6543
  359MOL0     H48449   6.479   5.884   7.949 -1.1301 -0.2665 -1.9223
  359MOL0     H48450   6.656   5.986   8.125  2.6755  1.8606  0.3259
  359MOL0     H48451   6.851   6.399   8.220  2.7673  1.3984 -0.7845
  359MOL0     H48452   6.973   6.515   8.410  0.4580  0.7135 -1.6719
  359MOL0     H48453   7.363   6.431   8.579 -0.2938 -0.5676  0.4149
  359MOL0     H48454   7.315   6.291   8.487 -1.5894 -0.8015 -0.6108
  359MOL0     H48455   7.251   6.157   8.670  3.0339  0.2839 -4.5466
  359MOL0     H48456   7.241   6.287   8.786 -0.2035  3.3063 -0.9211
  359MOL0     H48457   7.490   6.333   8.757  4.3459 -1.0799 -1.7693
  359MOL0     H48458   7.492   6.185   8.658 -2.9537  0.1097 -1.2697
  359MOL0     H48459   7.409   6.206   8.952  3.5281  0.2041  1.5487
  359MOL0     H48460   7.427   6.057   8.860  2.7757 -1.4616  0.7189
  359MOL0     H48461   7.818   6.154   8.998 -0.2900  0.8873  1.4872
  359MOL0     H48462   7.164   6.138   8.491  0.0861  1.0958  1.1956
  359MOL0     H48463   7.106   5.941   8.397  0.2876  0.8404 -0.2998
  359MOL0     H48464   6.928   5.937   8.352 -0.3404  0.6763 -1.7381
  359MOL0     H48465   7.057   5.957   8.232 -1.2432  0.1064 -0.3850
  360MOL0     O48466   4.361   4.867   4.745  0.2880 -0.8630 -0.4204
  360MOL0     C48467   4.313   4.923   4.836  0.2578 -0.6180 -0.7551
  360MOL0     O48468   4.187   4.902   4.888 -0.0846 -0.2350  0.7641
  360MOL0     C48469   4.128   4.791   4.842  0.3802  0.0449 -0.4087
  360MOL0     C48470   4.036   4.799   4.735  0.2352  0.9297  0.6012
  360MOL0     C48471   3.964   4.684   4.696 -0.0656 -0.0241 -0.1371
  360MOL0     C48472   3.985   4.559   4.765  0.1669  0.1094 -0.3818
  360MOL0     O48473   3.923   4.438   4.750 -0.5735 -0.3975 -0.2217
  360MOL0     C48474   3.825   4.429   4.644  0.3889  0.9103  0.5725
  360MOL0     C48475   3.791   4.277   4.625 -0.2465 -1.1209 -0.3230
  360MOL0     C48476   3.678   4.246   4.730  0.5774 -0.0956 -0.6025
  360MOL0     C48477   3.540   4.289   4.688  0.6155 -0.2223 -0.4453
  360MOL0     C48478   3.415   4.207   4.731  1.1603  0.0866 -0.9037
  360MOL0     C48479   3.407   4.214   4.883  1.0184 -0.3501 -0.0731
  360MOL0     C48480   3.295   4.120   4.935  1.2114  0.3966 -0.3135
  360MOL0     C48481   3.339   3.970   4.929 -0.3694 -1.2241  0.3604
  360MOL0     N48482   3.306   3.886   5.046 -0.2125 -0.2529  0.0723
  360MOL0     C48483   3.172   3.871   5.076  0.3364  0.6733  0.7094
  360MOL0     C48484   3.170   3.806   5.193 -0.2768  0.2203 -1.2764
  360MOL0     C48485   3.060   3.731   5.261 -1.1276  1.0040  0.4120
  360MOL0     C48486   3.072   3.575   5.231  0.0675 -0.4530 -0.4964
  360MOL0     C48487   3.021   3.549   5.087 -0.0495 -0.5838 -0.0966
  360MOL0     C48488   3.031   3.408   5.039 -0.0893  0.2000  0.3776
  360MOL0     O48489   3.016   3.403   4.888 -0.4591 -0.4426  0.0020
  360MOL0     C48490   2.891   3.419   4.825 -0.0229  0.8485  0.2950
  360MOL0     C48491   2.769   3.413   4.894 -0.0012 -0.2650  1.2213
  360MOL0     C48492   2.644   3.397   4.822 -0.9107 -0.4668 -0.5239
  360MOL0     C48493   2.639   3.404   4.686  0.1798 -0.1081  0.7243
  360MOL0     C48494   2.498   3.406   4.621 -0.1300  0.4093 -0.9594
  360MOL0     O48495   2.387   3.392   4.700  0.0787  0.3665  0.6380
  360MOL0     C48496   2.275   3.351   4.645  0.0594  0.7716  0.9865
  360MOL0     C48497   2.273   3.227   4.572  0.3646 -0.5855  0.0540
  360MOL0     C48498   2.161   3.184   4.503  0.1833  0.4643 -0.2004
  360MOL0     C48499   2.036   3.265   4.509 -0.5668 -0.3881  0.1790
  360MOL0     O48500   1.930   3.218   4.440  0.6665 -0.0037  0.5334
  360MOL0     C48501   1.804   3.277   4.451  0.3060 -0.7107  0.8150
  360MOL0     C48502   1.711   3.178   4.402  0.3014  0.0048 -0.1114
  360MOL0     C48503   1.716   3.035   4.465 -0.2439 -0.5032  0.2581
  360MOL0     C48504   1.601   3.018   4.564 -0.2394 -0.3910 -0.9369
  360MOL0     C48505   1.620   3.127   4.683  0.6941 -0.2309  0.7980
  360MOL0     C48506   1.517   3.104   4.794  0.3491 -0.5283 -0.4169
  360MOL0     C48507   1.533   3.200   4.916  0.1410 -0.3665  0.1634
  360MOL0     C48508   1.518   3.129   5.050 -0.6717 -0.2905  0.1877
  360MOL0    Cl48509   1.664   3.019   5.086  0.0696  0.0279 -0.3934
  360MOL0     C48510   2.042   3.385   4.587  0.1472  0.0262 -0.2952
  360MOL0     C48511   2.160   3.425   4.652  1.3062  0.4901  0.0788
  360MOL0     O48512   2.504   3.405   4.496  0.2350  0.5937  0.1572
  360MOL0     C48513   2.763   3.428   4.617  0.0478 -0.4659 -0.0442
  360MOL0     C48514   2.883   3.427   4.687  0.4870 -0.0044  0.5485
  360MOL0     N48515   3.300   3.794   5.235 -0.8067  0.3497  0.8495
  360MOL0     N48516   3.388   3.847   5.151 -0.2293  0.7665  0.7255
  360MOL0     C48517   4.077   4.552   4.872 -0.1411 -0.3798 -0.3462
  360MOL0     C48518   4.144   4.672   4.915 -0.4309 -0.0786  0.3262
  360MOL0     C48519   4.380   5.041   4.889 -0.6628  0.8981 -0.0833
  360MOL0     C48520   4.433   5.143   4.799  0.4122  1.0782  0.0699
  360MOL0     C48521   4.495   5.256   4.843  0.2560  0.1711  0.1956
  360MOL0     C48522   4.510   5.277   4.982 -0.3986  0.5525 -0.3375
  360MOL0     O48523   4.569   5.386   5.039 -0.5706 -1.4831 -0.1145
  360MOL0     C48524   4.582   5.502   4.957 -0.5095 -0.7859 -0.0539
  360MOL0     C48525   4.652   5.615   5.022 -0.3018  0.4145 -0.9153
  360MOL0     C48526   4.801   5.591   5.034  0.5244  0.4475 -0.0900
  360MOL0     C48527   4.848   5.504   5.153  0.3633 -0.6710  1.5748
  360MOL0     C48528   4.990   5.526   5.172 -0.9016  0.0835  0.0685
  360MOL0     C48529   5.109   5.552   5.195 -0.3983 -0.6122 -0.5414
  360MOL0     C48530   4.452   5.193   5.072  0.3637  1.1152  0.8680
  360MOL0     C48531   4.395   5.074   5.026 -0.3446  0.3143 -0.1129
  360MOL0     C48532   4.342   4.992   5.145  0.5903  0.6492 -0.1595
  360MOL0     H48533   4.025   4.899   4.694 -1.1180  0.5935  0.0723
  360MOL0     H48534   3.888   4.696   4.619 -1.4357 -0.9885  1.0123
  360MOL0     H48535   3.747   4.501   4.669  0.7469  0.8170  2.0562
  360MOL0     H48536   3.871   4.465   4.551 -1.0433 -0.1689 -0.5828
  360MOL0     H48537   3.877   4.212   4.644 -1.0136 -1.9887  0.2598
  360MOL0     H48538   3.751   4.260   4.524  2.9001 -2.9389 -1.3981
  360MOL0     H48539   3.695   4.301   4.823  0.3230  0.3327 -0.8081
  360MOL0     H48540   3.681   4.138   4.749  0.8885 -0.2009 -1.2519
  360MOL0     H48541   3.521   4.393   4.716  0.3741 -0.6782  1.1846
  360MOL0     H48542   3.531   4.297   4.579 -4.3563  0.7824 -0.1724
  360MOL0     H48543   3.323   4.253   4.693  1.9415  1.3546 -1.3370
  360MOL0     H48544   3.423   4.103   4.699  1.0335 -1.4156  3.3255
  360MOL0     H48545   3.499   4.184   4.934 -0.1079 -1.5734  1.3334
  360MOL0     H48546   3.384   4.318   4.906  1.6907  0.4203 -2.5793
  360MOL0     H48547   3.207   4.142   4.873 -1.6943  0.6969  3.5536
  360MOL0     H48548   3.256   4.147   5.034 -1.8721  4.5474 -2.3188
  360MOL0     H48549   3.298   3.937   4.834 -0.8671 -1.4424  0.6495
  360MOL0     H48550   3.449   3.971   4.924 -0.4034 -1.4155 -0.4934
  360MOL0     H48551   3.088   3.863   5.007  2.4792  0.3856 -2.0394
  360MOL0     H48552   3.048   3.755   5.367  2.1847  1.4751  0.7700
  360MOL0     H48553   2.969   3.768   5.211 -1.3224 -1.7443 -1.4693
  360MOL0     H48554   3.175   3.544   5.249 -0.0872 -1.3793 -1.1136
  360MOL0     H48555   3.000   3.518   5.291  1.1572  2.8274  4.6075
  360MOL0     H48556   3.087   3.607   5.021  1.7636  0.1449  2.1982
  360MOL0     H48557   2.920   3.587   5.071 -0.1461 -0.7206  0.1790
  360MOL0     H48558   2.959   3.342   5.088 -1.9573 -0.6687 -3.1781
  360MOL0     H48559   3.126   3.361   5.066  1.3774  3.4300  1.3598
  360MOL0     H48560   2.764   3.397   5.001 -2.7996  1.2247  1.4001
  360MOL0     H48561   2.550   3.396   4.876 -1.4276  2.5407 -1.2159
  360MOL0     H48562   2.362   3.166   4.565  1.0113  0.2757  0.6414
  360MOL0     H48563   2.171   3.088   4.453  1.6533  0.1705  0.6170
  360MOL0     H48564   1.779   3.307   4.553  0.5677  0.7755  0.4686
  360MOL0     H48565   1.796   3.369   4.391 -0.3645 -2.3058 -1.6867
  360MOL0     H48566   1.608   3.214   4.410  0.6098  0.8161  0.2972
  360MOL0     H48567   1.725   3.156   4.295  0.2803 -1.9414  0.2407
  360MOL0     H48568   1.693   2.966   4.385 -0.3310 -1.0292  0.7310
  360MOL0     H48569   1.806   3.014   4.524  2.0586 -1.3354 -3.2989
  360MOL0     H48570   1.603   2.917   4.605  3.3440 -0.2685 -0.4951
  360MOL0     H48571   1.503   3.031   4.516 -0.5884 -0.9398 -0.3885
  360MOL0     H48572   1.612   3.225   4.635  3.9351  0.3628  1.2326
  360MOL0     H48573   1.726   3.117   4.711  1.3516 -1.6082 -1.7864
  360MOL0     H48574   1.421   3.133   4.750 -0.3519  1.3851  2.1249
  360MOL0     H48575   1.513   3.000   4.826 -1.3495 -0.1009  0.8977
  360MOL0     H48576   1.464   3.285   4.917  0.4822 -0.0281 -1.5471
  360MOL0     H48577   1.627   3.256   4.911  0.4762 -0.9618 -0.3306
  360MOL0     H48578   1.502   3.202   5.130  1.9549  2.7811 -1.8070
  360MOL0     H48579   1.438   3.056   5.062 -0.8130  0.2342  3.3872
  360MOL0     H48580   1.955   3.450   4.579 -1.2062 -1.6820 -0.0292
  360MOL0     H48581   2.160   3.517   4.709 -0.2592  0.8362 -0.4503
  360MOL0     H48582   2.765   3.440   4.509  4.0953  1.7076  0.0642
  360MOL0     H48583   2.974   3.429   4.629 -0.2378  2.1376 -0.6391
  360MOL0     H48584   4.093   4.464   4.933 -1.8573  1.1728  2.5716
  360MOL0     H48585   4.214   4.672   4.998 -0.1558 -0.8233  0.1006
  360MOL0     H48586   4.429   5.134   4.690 -0.8144  2.3067 -0.0244
  360MOL0     H48587   4.539   5.334   4.782 -1.9325  1.2161 -0.1596
  360MOL0     H48588   4.489   5.540   4.913  0.5791  3.0863  0.6143
  360MOL0     H48589   4.644   5.475   4.870  0.2945 -0.2120  0.3272
  360MOL0     H48590   4.618   5.633   5.125 -0.2078 -0.0003 -0.8106
  360MOL0     H48591   4.636   5.700   4.956 -1.4341  1.0832  0.1764
  360MOL0     H48592   4.847   5.688   5.055 -0.7193  1.0011  0.1651
  360MOL0     H48593   4.835   5.553   4.937  1.9894 -0.8837  0.8991
  360MOL0     H48594   4.797   5.508   5.250  0.1660 -2.1837  1.5514
  360MOL0     H48595   4.819   5.403   5.123 -2.6146  0.1421  1.3251
  360MOL0     H48596   5.206   5.587   5.224 -1.9199  2.0999  1.8928
  360MOL0     H48597   4.449   5.203   5.180 -1.2044 -0.0410  0.9794
  360MOL0     H48598   4.273   5.051   5.207  2.3901  1.7356  0.8792
  360MOL0     H48599   4.301   4.897   5.110 -1.4941  1.5540 -0.3314
  360MOL0     H48600   4.425   4.967   5.211 -1.3753 -1.0279  1.8151
  361MOL0     O48601   1.004  10.869   2.309  0.7116  0.1552  0.0412
  361MOL0     C48602   1.106  10.813   2.355  0.0885  0.0544  0.3867
  361MOL0     O48603   1.216  10.883   2.383  0.1259  0.2529  0.1018
  361MOL0     C48604   1.222  11.017   2.397 -0.2636  0.2960  0.2455
  361MOL0     C48605   1.199  11.104   2.288  0.5076 -0.4325 -0.6349
  361MOL0     C48606   1.230  11.237   2.300  0.7439 -0.2786 -0.3567
  361MOL0     C48607   1.279  11.283   2.423 -0.5303 -0.2296  1.0484
  361MOL0     O48608   1.312  11.417   2.434  0.2628  0.0479  0.3651
  361MOL0     C48609   1.260  11.486   2.556  0.0994 -0.4072  0.4189
  361MOL0     C48610   1.327  11.625   2.570  0.8583  0.3807 -0.9614
  361MOL0     C48611   1.314  11.731   2.455  0.5989  0.4867 -0.0958
  361MOL0     C48612   1.166  11.778   2.429  0.1103  0.3482  0.1408
  361MOL0     C48613   1.112  11.873   2.536  0.4265 -0.0005  0.3821
  361MOL0     C48614   0.973  11.926   2.494 -0.2715  0.4817 -0.7153
  361MOL0     C48615   0.912  12.019   2.609 -0.8546  0.0175  0.7524
  361MOL0     C48616   1.001  12.141   2.623 -0.3273 -0.6030  0.0164
  361MOL0     N48617   0.990  12.222   2.498 -0.7527  0.5160 -1.9567
  361MOL0     C48618   0.902  12.331   2.472 -0.6116  0.2189 -0.1224
  361MOL0     C48619   0.957  12.397   2.378 -0.0750 -0.1748 -0.4288
  361MOL0     C48620   0.908  12.527   2.317 -0.2622  0.2799  0.2575
  361MOL0     C48621   1.005  12.637   2.343  0.0103 -1.0424 -1.2799
  361MOL0     C48622   1.149  12.623   2.292  0.3340  0.6992 -0.2209
  361MOL0     C48623   1.157  12.566   2.149 -0.9897  1.0817  0.3902
  361MOL0     O48624   1.093  12.656   2.046  0.3743 -0.2837 -0.2862
  361MOL0     C48625   1.077  12.624   1.914  0.2786 -0.3330  0.1345
  361MOL0     C48626   0.980  12.687   1.827 -0.2145  0.9033  0.8091
  361MOL0     C48627   0.967  12.643   1.695 -0.0053 -0.1574 -0.0449
  361MOL0     C48628   1.052  12.543   1.643 -0.5948 -0.3757 -0.2794
  361MOL0     C48629   1.032  12.485   1.510  0.2106  1.0328  0.6198
  361MOL0     O48630   0.932  12.546   1.445 -0.3320  0.2833 -0.5153
  361MOL0     C48631   0.912  12.540   1.312  0.3230  0.6022 -0.0990
  361MOL0     C48632   0.846  12.430   1.255 -1.0785  0.0853  0.4723
  361MOL0     C48633   0.813  12.440   1.121  0.2801 -0.5546  0.9415
  361MOL0     C48634   0.860  12.540   1.038 -1.0991  0.6372  0.1831
  361MOL0     O48635   0.832  12.533   0.902 -0.1316  0.3230 -0.4364
  361MOL0     C48636   0.780  12.644   0.832 -0.0038  0.0082  0.2453
  361MOL0     C48637   0.889  12.691   0.735  0.6028 -0.1375  0.0728
  361MOL0     C48638   0.946  12.574   0.645 -0.2201  0.6145  0.0230
  361MOL0     C48639   1.053  12.628   0.555 -0.3038 -0.8564  0.2680
  361MOL0     C48640   1.095  12.513   0.462 -0.3962 -0.1562 -0.2260
  361MOL0     C48641   1.238  12.549   0.394  0.1857 -0.8522 -1.2547
  361MOL0     C48642   1.349  12.522   0.499 -0.5370  0.2102  0.3258
  361MOL0     C48643   1.481  12.535   0.415  0.1978  0.0426 -0.8864
  361MOL0    Cl48644   1.498  12.713   0.364  0.2550  0.2110 -0.2688
  361MOL0     C48645   0.929  12.640   1.097 -0.8461  0.6284  0.6073
  361MOL0     C48646   0.954  12.645   1.236  0.3810 -0.3429 -0.4942
  361MOL0     O48647   1.104  12.404   1.455  0.2139  0.0097 -0.1717
  361MOL0     C48648   1.159  12.500   1.724  1.0126  0.9463 -1.5504
  361MOL0     C48649   1.161  12.529   1.853 -1.0307  0.4862 -0.1549
  361MOL0     N48650   1.076  12.335   2.352  0.2104 -0.4006  0.5001
  361MOL0     N48651   1.101  12.235   2.438 -0.6756  0.1160 -0.2379
  361MOL0     C48652   1.298  11.200   2.529  0.7834  0.0049  0.3345
  361MOL0     C48653   1.272  11.066   2.505 -0.4315 -0.1888 -0.4190
  361MOL0     C48654   1.097  10.664   2.363  0.5566 -1.8523 -0.3526
  361MOL0     C48655   1.220  10.601   2.364 -0.2124  0.6651  0.4811
  361MOL0     C48656   1.231  10.461   2.354 -0.1901 -0.1508 -0.0103
  361MOL0     C48657   1.117  10.384   2.326  0.9678 -0.2209  0.5100
  361MOL0     O48658   1.137  10.254   2.311 -0.9737 -0.1504 -0.5044
  361MOL0     C48659   1.038  10.152   2.329 -0.3275  0.2910 -0.0377
  361MOL0     C48660   1.096  10.030   2.259 -0.6030 -0.3264 -0.2464
  361MOL0     C48661   1.234   9.978   2.315 -0.6189  0.6235  1.1754
  361MOL0     C48662   1.321   9.932   2.194  0.0930 -0.9924 -0.8012
  361MOL0     C48663   1.428   9.853   2.254 -0.3003  0.7033  0.2266
  361MOL0     C48664   1.516   9.802   2.317 -0.1499  0.5855 -0.3216
  361MOL0     C48665   0.992  10.439   2.350 -0.6070 -0.8454 -0.3161
  361MOL0     C48666   0.984  10.581   2.370  0.1532 -0.1426 -0.2440
  361MOL0     C48667   0.843  10.641   2.382  0.4775 -0.1670 -0.1108
  361MOL0     H48668   1.157  11.054   2.201  1.3092 -2.0942 -0.1033
  361MOL0     H48669   1.223  11.289   2.204 -1.5927 -0.3671 -0.2952
  361MOL0     H48670   1.151  11.489   2.563 -0.0183  2.0949 -1.4109
  361MOL0     H48671   1.290  11.434   2.648  0.0845 -1.3714 -0.1121
  361MOL0     H48672   1.434  11.615   2.584  0.7071  1.5924  1.5692
  361MOL0     H48673   1.296  11.670   2.665  0.8078  0.3855 -0.9795
  361MOL0     H48674   1.359  11.691   2.364  3.0654  2.1997  0.2663
  361MOL0     H48675   1.372  11.819   2.484  1.2724  0.4924 -1.3919
  361MOL0     H48676   1.169  11.824   2.330  2.5531 -1.2077 -0.5974
  361MOL0     H48677   1.107  11.687   2.413  1.1317 -0.2909 -0.0289
  361MOL0     H48678   1.109  11.823   2.633  1.3826  1.9791  1.4982
  361MOL0     H48679   1.181  11.958   2.541  0.6018 -0.1209  0.0516
  361MOL0     H48680   1.008  11.981   2.406  2.1960  0.2633  0.0514
  361MOL0     H48681   0.899  11.849   2.472 -0.5848  1.1737 -2.2943
  361MOL0     H48682   0.920  11.969   2.706 -1.2356 -0.3243  0.6121
  361MOL0     H48683   0.808  12.042   2.585 -1.4343 -1.2083  1.9963
  361MOL0     H48684   0.954  12.197   2.705 -3.1415 -1.0299 -1.1876
  361MOL0     H48685   1.105  12.128   2.655 -0.1443  1.3498  0.3963
  361MOL0     H48686   0.812  12.344   2.531 -0.9122 -1.7785 -0.0919
  361MOL0     H48687   0.893  12.512   2.210 -3.4156  2.4561  0.2515
  361MOL0     H48688   0.806  12.560   2.341 -0.8636 -0.0657 -1.6204
  361MOL0     H48689   0.973  12.729   2.294 -1.2478 -0.6762  0.1611
  361MOL0     H48690   0.997  12.662   2.449  0.7495  0.0521 -1.4682
  361MOL0     H48691   1.211  12.558   2.355  0.6373  0.6201 -0.5925
  361MOL0     H48692   1.203  12.718   2.288 -0.1800  0.9585 -1.6922
  361MOL0     H48693   1.108  12.469   2.149  3.0267 -1.1738 -0.5337
  361MOL0     H48694   1.260  12.553   2.115 -1.5955  1.6953 -1.8829
  361MOL0     H48695   0.916  12.767   1.864  0.5026  0.3174  3.5014
  361MOL0     H48696   0.887  12.676   1.630  0.2281  0.5317  0.0055
  361MOL0     H48697   0.811  12.362   1.332 -2.7529  0.2261 -0.1039
  361MOL0     H48698   0.754  12.355   1.087  0.3478 -0.4736  0.6193
  361MOL0     H48699   0.692  12.611   0.777  0.8505  0.7366 -1.6560
  361MOL0     H48700   0.766  12.726   0.904  5.3832  1.3941  0.1570
  361MOL0     H48701   0.844  12.773   0.678 -0.2783  0.0334  0.9870
  361MOL0     H48702   0.969  12.734   0.797  0.3074 -2.7641  2.4756
  361MOL0     H48703   0.975  12.497   0.718 -1.7516  0.9326  1.0203
  361MOL0     H48704   0.870  12.523   0.584 -2.1151  2.6773  0.5211
  361MOL0     H48705   1.145  12.649   0.609 -0.2044 -1.0347  0.1708
  361MOL0     H48706   1.024  12.716   0.498  0.3743 -0.0290  1.1647
  361MOL0     H48707   1.016  12.511   0.386  0.6339  1.7468 -1.4195
  361MOL0     H48708   1.099  12.412   0.505  0.5172  0.7092  1.8176
  361MOL0     H48709   1.236  12.477   0.312 -1.3950  0.0498 -2.0533
  361MOL0     H48710   1.227  12.652   0.359 -1.7470  0.1729  1.9345
  361MOL0     H48711   1.340  12.415   0.521 -1.2887  0.2272  0.1130
  361MOL0     H48712   1.354  12.586   0.588  3.5398  3.1309 -1.6578
  361MOL0     H48713   1.567  12.507   0.477  0.8780  0.9787 -1.3827
  361MOL0     H48714   1.484  12.482   0.319  1.5210  1.6645 -1.7855
  361MOL0     H48715   0.974  12.711   1.028  0.4036 -2.1469 -1.6322
  361MOL0     H48716   1.000  12.727   1.291 -0.2578  0.5352 -1.2317
  361MOL0     H48717   1.230  12.425   1.691  0.6066 -1.1429  1.8704
  361MOL0     H48718   1.248  12.491   1.905  1.3346  1.2701 -3.2843
  361MOL0     H48719   1.343  11.232   2.623  1.0462 -2.2323  1.0382
  361MOL0     H48720   1.307  11.000   2.583  1.7042  0.7187 -0.5408
  361MOL0     H48721   1.309  10.664   2.363  1.8612 -1.9822 -2.5509
  361MOL0     H48722   1.320  10.402   2.336 -1.0559 -2.4887  2.5136
  361MOL0     H48723   0.939  10.186   2.298  0.4047  0.4459 -2.4832
  361MOL0     H48724   1.025  10.139   2.436  3.3111  1.2304  0.6459
  361MOL0     H48725   1.093  10.052   2.152  0.4613 -2.8747 -0.8840
  361MOL0     H48726   1.025   9.947   2.264 -3.0357  1.6316 -0.9198
  361MOL0     H48727   1.208   9.896   2.382  0.4439  0.5364  1.5097
  361MOL0     H48728   1.279  10.050   2.383  2.3484 -1.9905  2.2366
  361MOL0     H48729   1.264   9.870   2.124 -0.1094  0.4674 -1.9594
  361MOL0     H48730   1.368  10.017   2.144 -0.3263  0.5209  1.2237
  361MOL0     H48731   1.599   9.762   2.372 -3.4966 -0.3153  4.6924
  361MOL0     H48732   0.903  10.377   2.354  1.7393 -4.5295  3.3487
  361MOL0     H48733   0.768  10.567   2.411 -1.1180  1.1621 -0.6538
  361MOL0     H48734   0.851  10.718   2.459  5.2144  0.2536 -0.7193
  361MOL0     H48735   0.817  10.697   2.292  0.7461  2.9687  1.6158
  362MOL0     O48736   2.046  10.703   8.788  0.3492  0.2122  0.5541
  362MOL0     C48737   1.960  10.791   8.812 -0.8812  0.0475  0.0869
  362MOL0     O48738   1.829  10.766   8.831 -0.5761 -0.6111  0.6962
  362MOL0     C48739   1.780  10.648   8.792 -0.5427  0.5334  0.1595
  362MOL0     C48740   1.655  10.656   8.719  0.0294 -0.6960  0.1467
  362MOL0     C48741   1.607  10.534   8.665  0.3742  0.2699  0.4447
  362MOL0     C48742   1.663  10.404   8.694  0.1553 -0.4588 -0.5664
  362MOL0     O48743   1.613  10.288   8.633 -0.1834 -0.6184  0.7961
  362MOL0     C48744   1.678  10.258   8.514  0.3227 -0.2751 -0.5302
  362MOL0     C48745   1.611  10.138   8.455 -0.5759 -0.2152  0.1153
  362MOL0     C48746   1.689  10.073   8.339 -0.6541 -0.6529 -0.2244
  362MOL0     C48747   1.829  10.027   8.378  0.1324 -0.9663  0.0064
  362MOL0     C48748   1.930  10.017   8.251  0.3147 -0.0577 -0.6057
  362MOL0     C48749   1.880   9.916   8.145  0.4514  0.5690 -0.6362
  362MOL0     C48750   1.995   9.879   8.056 -0.5760 -0.2615  0.0129
  362MOL0     C48751   2.097   9.780   8.117  0.5201  0.5453 -0.7929
  362MOL0     N48752   2.209   9.736   8.031  0.1216  0.0859  1.0918
  362MOL0     C48753   2.307   9.659   8.088 -0.0733 -0.3828  0.7905
  362MOL0     C48754   2.372   9.610   7.980  0.1610 -0.3233  0.8211
  362MOL0     C48755   2.500   9.543   7.994  0.1404  0.0231  0.5439
  362MOL0     C48756   2.479   9.400   8.052 -0.2646  0.6700  0.0052
  362MOL0     C48757   2.405   9.309   7.960 -0.4907  0.2044 -0.0070
  362MOL0     C48758   2.383   9.165   8.025 -0.0672 -0.1213 -0.0573
  362MOL0     O48759   2.317   9.160   8.151 -0.4023  0.6308  0.1237
  362MOL0     C48760   2.207   9.232   8.185 -0.4955  0.8517 -0.0799
  362MOL0     C48761   2.210   9.307   8.297 -0.6446  0.4992 -1.0507
  362MOL0     C48762   2.100   9.371   8.346 -0.4286 -0.2624  0.3222
  362MOL0     C48763   1.972   9.360   8.276  0.3873 -0.3403  0.8903
  362MOL0     C48764   1.849   9.426   8.324  0.2267  0.5300 -0.8490
  362MOL0     O48765   1.847   9.467   8.451  0.3196  0.4979  0.4964
  362MOL0     C48766   1.741   9.514   8.516 -0.0804 -0.4639  0.7007
  362MOL0     C48767   1.684   9.634   8.479 -0.3065 -0.2103  0.2096
  362MOL0     C48768   1.588   9.698   8.558 -1.2435 -0.4065  0.7395
  362MOL0     C48769   1.559   9.653   8.684 -0.4785  0.7886  0.3882
  362MOL0     O48770   1.481   9.729   8.766  0.1921  0.2386 -0.3898
  362MOL0     C48771   1.350   9.766   8.730  1.0977  0.2911  0.5372
  362MOL0     C48772   1.263   9.729   8.859 -0.1680  0.1577 -0.2717
  362MOL0     C48773   1.232   9.581   8.872 -0.7892 -0.3099 -0.0450
  362MOL0     C48774   1.233   9.520   9.019  0.0518 -0.4244  1.2480
  362MOL0     C48775   1.112   9.560   9.100 -0.1836 -0.2110  0.3633
  362MOL0     C48776   1.106   9.496   9.238  0.5928 -0.5971 -0.7360
  362MOL0     C48777   0.975   9.531   9.321 -0.5220 -0.1795  1.2926
  362MOL0     C48778   0.998   9.506   9.475  0.3953  0.3397  1.1257
  362MOL0    Cl48779   0.847   9.541   9.568  0.5405 -0.3639  0.1191
  362MOL0     C48780   1.616   9.534   8.728  0.2565 -0.1627 -0.3866
  362MOL0     C48781   1.708   9.469   8.640 -0.0824 -0.0703 -0.3898
  362MOL0     O48782   1.761   9.435   8.249  0.9081 -0.1244  0.1532
  362MOL0     C48783   1.977   9.294   8.154  0.3552  0.0515  0.7609
  362MOL0     C48784   2.088   9.225   8.116 -0.2340  0.3185  0.4662
  362MOL0     N48785   2.318   9.663   7.861  0.0032  0.0632 -0.4154
  362MOL0     N48786   2.224   9.741   7.898 -0.4478  0.2584  0.0284
  362MOL0     C48787   1.768  10.395   8.777  0.6730 -1.2293 -0.1462
  362MOL0     C48788   1.832  10.517   8.824 -0.0047  0.4218 -0.5259
  362MOL0     C48789   2.015  10.931   8.831 -0.1403  0.3284 -0.4281
  362MOL0     C48790   2.151  10.937   8.867 -0.3480 -0.6733 -0.2562
  362MOL0     C48791   2.216  11.056   8.897  1.7352 -0.5602 -1.1054
  362MOL0     C48792   2.147  11.172   8.898 -0.3951 -0.6955  1.4322
  362MOL0     O48793   2.220  11.290   8.905  0.3305  0.3864 -0.6292
  362MOL0     C48794   2.169  11.393   8.993 -0.0373  0.4602 -0.6901
  362MOL0     C48795   2.165  11.348   9.139  0.1280  0.1725  0.0028
  362MOL0     C48796   2.303  11.323   9.209  0.1298 -0.1822  0.2762
  362MOL0     C48797   2.431  11.301   9.133 -0.1045  0.0060 -0.3679
  362MOL0     C48798   2.560  11.319   9.210 -0.2044 -0.4400  1.0788
  362MOL0     C48799   2.667  11.326   9.267 -0.9623 -0.2834 -0.3240
  362MOL0     C48800   2.022  11.171   8.857 -0.1196  0.5164 -0.4084
  362MOL0     C48801   1.942  11.058   8.827  0.0008  1.0850 -0.5278
  362MOL0     C48802   1.800  11.085   8.792  0.8131 -0.5416 -1.2803
  362MOL0     H48803   1.602  10.751   8.714  1.2369 -0.0696 -3.1627
  362MOL0     H48804   1.533  10.528   8.586  3.0440 -0.7557 -2.1515
  362MOL0     H48805   1.671  10.338   8.439  1.6336 -0.5939 -1.0156
  362MOL0     H48806   1.781  10.234   8.543 -0.0249 -0.5556  0.5224
  362MOL0     H48807   1.510  10.159   8.418 -0.1972  1.9127  0.1419
  362MOL0     H48808   1.600  10.054   8.524 -3.9078 -1.4720 -1.6803
  362MOL0     H48809   1.697  10.150   8.261 -6.1223 -1.6786 -2.2748
  362MOL0     H48810   1.630   9.998   8.286 -0.6109 -0.8574  0.0165
  362MOL0     H48811   1.877  10.090   8.453 -0.9911 -0.2146  0.1161
  362MOL0     H48812   1.821   9.930   8.427  0.1560 -0.2492  1.4697
  362MOL0     H48813   1.927  10.118   8.210 -1.4833  1.2603  2.3904
  362MOL0     H48814   2.023   9.981   8.296 -2.2453 -3.7746  2.3904
  362MOL0     H48815   1.834   9.831   8.197  0.7827  2.9188  4.0824
  362MOL0     H48816   1.813   9.966   8.075  0.9068 -1.4024 -2.5739
  362MOL0     H48817   2.049   9.958   8.002  1.3962 -0.9941  0.8162
  362MOL0     H48818   1.954   9.817   7.976 -1.2700 -1.6020  1.3461
  362MOL0     H48819   2.146   9.831   8.200  1.7285 -3.2519  1.0485
  362MOL0     H48820   2.038   9.703   8.168  1.2358 -1.1211 -2.3446
  362MOL0     H48821   2.325   9.644   8.194  1.2475 -1.0216  0.5045
  362MOL0     H48822   2.537   9.530   7.893  0.7533 -2.4352  1.0158
  362MOL0     H48823   2.569   9.605   8.051  0.9661 -1.2816  1.0099
  362MOL0     H48824   2.579   9.356   8.064 -1.3730 -2.6477 -1.6490
  362MOL0     H48825   2.425   9.408   8.146 -3.6054 -2.0164 -1.4646
  362MOL0     H48826   2.456   9.304   7.863  0.2710 -0.6107  0.4349
  362MOL0     H48827   2.306   9.348   7.932  0.3872  3.2296  0.7023
  362MOL0     H48828   2.483   9.120   8.030  1.1689  2.2926 -1.1416
  362MOL0     H48829   2.327   9.091   7.967 -0.8733 -1.7112  2.5969
  362MOL0     H48830   2.295   9.296   8.363  1.1441 -4.1395 -3.6738
  362MOL0     H48831   2.111   9.405   8.449  2.2677 -0.3595  0.1331
  362MOL0     H48832   1.705   9.683   8.385  0.1020 -0.4057  0.2001
  362MOL0     H48833   1.543   9.786   8.512 -0.0466 -0.6177 -0.9182
  362MOL0     H48834   1.335   9.875   8.725  0.5153  0.1712 -2.6546
  362MOL0     H48835   1.310   9.716   8.642  0.1065  0.0732  1.1082
  362MOL0     H48836   1.330   9.749   8.943 -0.2073 -0.5976 -0.0510
  362MOL0     H48837   1.177   9.796   8.848  2.0327  3.2605  0.0219
  362MOL0     H48838   1.138   9.552   8.823  0.1592 -0.2624 -2.0223
  362MOL0     H48839   1.313   9.536   8.813  0.6684  1.1921  0.7455
  362MOL0     H48840   1.323   9.551   9.074  2.0361 -0.7814 -1.5728
  362MOL0     H48841   1.217   9.412   9.011  1.1829 -0.4561 -2.0688
  362MOL0     H48842   1.022   9.537   9.041  0.6266  0.5306 -1.2173
  362MOL0     H48843   1.107   9.667   9.121  0.8627 -0.4202  1.8389
  362MOL0     H48844   1.107   9.387   9.225  2.8776 -0.8949  1.2518
  362MOL0     H48845   1.198   9.508   9.295  2.0951 -2.4045 -2.6186
  362MOL0     H48846   0.886   9.481   9.282 -0.7491  1.3766 -0.2945
  362MOL0     H48847   0.962   9.639   9.309  2.7226  0.1523 -0.5367
  362MOL0     H48848   1.014   9.398   9.490 -1.5316 -0.2268 -0.3949
  362MOL0     H48849   1.072   9.570   9.522 -0.9479  1.0054  2.4208
  362MOL0     H48850   1.611   9.501   8.831 -1.0780  1.9693  0.3157
  362MOL0     H48851   1.753   9.395   8.705  2.1348  0.1844 -1.5338
  362MOL0     H48852   1.888   9.281   8.094 -0.0187  1.7220  0.8923
  362MOL0     H48853   2.094   9.176   8.020 -0.0476  1.0023  0.1250
  362MOL0     H48854   1.798  10.298   8.816  0.9721 -0.8036  0.7085
  362MOL0     H48855   1.918  10.505   8.889 -1.9040  1.0470  2.3214
  362MOL0     H48856   2.210  10.847   8.883  2.6942  1.4780  1.9546
  362MOL0     H48857   2.317  11.059   8.937  0.5186  1.8611  2.2970
  362MOL0     H48858   2.069  11.425   8.965 -0.0207 -0.7672 -2.2529
  362MOL0     H48859   2.231  11.483   8.993 -0.8780  1.0829  0.9779
  362MOL0     H48860   2.098  11.262   9.144  0.9776 -0.4193  2.0227
  362MOL0     H48861   2.115  11.423   9.201 -1.0008 -0.9324  0.4689
  362MOL0     H48862   2.294  11.239   9.279 -0.8922 -1.0065 -0.8040
  362MOL0     H48863   2.318  11.418   9.262  1.2036  0.7830 -1.6465
  362MOL0     H48864   2.433  11.194   9.107  0.4113  1.0182 -5.6767
  362MOL0     H48865   2.424  11.356   9.039 -2.6619 -1.7086 -1.2915
  362MOL0     H48866   2.745  11.329   9.340  0.8686 -0.0591 -2.2046
  362MOL0     H48867   1.963  11.262   8.851  0.7625  1.1270 -0.0642
  362MOL0     H48868   1.773  11.037   8.697  0.2502 -0.8515 -0.9662
  362MOL0     H48869   1.746  11.048   8.879 -0.8200 -0.0257 -2.0466
  362MOL0     H48870   1.790  11.194   8.790  2.1368 -0.2358  2.1767
  363MOL0     O48871   0.088   0.645   3.201 -0.1348  0.4994  0.1009
  363MOL0     C48872   0.092   0.542   3.133 -0.2695  0.2081 -0.4699
  363MOL0     O48873   0.130   0.426   3.183 -0.0301 -0.1666  0.1744
  363MOL0     C48874   0.166   0.416   3.312 -0.0608  0.6072 -0.0438
  363MOL0     C48875   0.075   0.411   3.420  0.2110 -0.0231  0.2457
  363MOL0     C48876   0.107   0.419   3.558  1.2670 -0.4332  0.4993
  363MOL0     C48877   0.241   0.410   3.597  0.1278  0.7962  0.6580
  363MOL0     O48878   0.289   0.393   3.719  0.5577 -0.2082  0.2608
  363MOL0     C48879   0.211   0.436   3.841  0.9968  1.0885 -0.1761
  363MOL0     C48880   0.278   0.369   3.957  1.5026  0.0492  0.6629
  363MOL0     C48881   0.182   0.375   4.081  0.4016  0.5597 -0.1981
  363MOL0     C48882   0.243   0.288   4.195  0.1285 -0.1204  0.9128
  363MOL0     C48883   0.152   0.281   4.312  0.9920 -0.5143 -0.7612
  363MOL0     C48884   0.090   0.408   4.357 -1.3220  0.3923 -0.0771
  363MOL0     C48885   0.041   0.408   4.494  0.5549 -0.3005 -0.1499
  363MOL0     C48886  -0.032   0.541   4.535 -0.2350  0.5749  0.0598
  363MOL0     N48887  -0.163   0.551   4.469  0.3177 -0.2176  0.2909
  363MOL0     C48888  -0.237   0.670   4.447  0.3176  0.0812  0.7367
  363MOL0     C48889  -0.363   0.635   4.401 -0.0888  0.7693 -0.3074
  363MOL0     C48890  -0.477   0.731   4.391 -0.4387 -0.3663 -0.6719
  363MOL0     C48891  -0.505   0.776   4.244  0.4843 -0.3787  0.3029
  363MOL0     C48892  -0.398   0.870   4.187 -0.1747 -1.0229  0.1016
  363MOL0     C48893  -0.448   0.935   4.056  0.2532  0.2943  0.7881
  363MOL0     O48894  -0.566   1.015   4.076 -0.8822  0.1315 -0.0494
  363MOL0     C48895  -0.601   1.101   3.975 -0.2341 -0.1757 -1.2669
  363MOL0     C48896  -0.727   1.164   4.000  0.7614  1.0737  0.3527
  363MOL0     C48897  -0.792   1.223   3.900  0.2205 -0.3366 -0.1045
  363MOL0     C48898  -0.741   1.240   3.781 -0.8716 -0.3057  0.8295
  363MOL0     C48899  -0.805   1.314   3.679 -0.1516  0.0347  0.3043
  363MOL0     O48900  -0.937   1.341   3.708 -0.3232 -0.3786 -0.4652
  363MOL0     C48901  -1.029   1.372   3.613  0.3996 -0.1073  0.0160
  363MOL0     C48902  -1.146   1.434   3.648 -0.7666 -0.0869  0.0543
  363MOL0     C48903  -1.252   1.448   3.561 -0.4827 -0.4694 -0.6633
  363MOL0     C48904  -1.243   1.406   3.433  0.1497  1.2536  0.0223
  363MOL0     O48905  -1.340   1.427   3.340  0.1581  0.1728  0.3168
  363MOL0     C48906  -1.340   1.560   3.293  0.1593 -0.6275  0.4257
  363MOL0     C48907  -1.471   1.591   3.228  0.7501 -0.3988  0.2389
  363MOL0     C48908  -1.585   1.592   3.328  0.8791  0.4845  0.6290
  363MOL0     C48909  -1.719   1.635   3.271 -0.2074 -0.1926  0.3666
  363MOL0     C48910  -1.818   1.669   3.385  0.9966  0.0573 -0.1419
  363MOL0     C48911  -1.961   1.680   3.339  0.1359 -0.3655  0.3697
  363MOL0     C48912  -2.039   1.543   3.353  0.7447 -0.0296  0.0712
  363MOL0     C48913  -2.168   1.577   3.290  0.5399  0.5342  0.8522
  363MOL0    Cl48914  -2.274   1.434   3.309  0.4255 -0.0539  0.4220
  363MOL0     C48915  -1.122   1.347   3.394 -0.5100  0.6311  0.2473
  363MOL0     C48916  -1.024   1.319   3.484 -0.6722 -0.0418  0.0711
  363MOL0     O48917  -0.744   1.355   3.583 -0.1055 -0.3156 -0.1837
  363MOL0     C48918  -0.609   1.198   3.753 -0.0271  0.4688 -0.4195
  363MOL0     C48919  -0.538   1.133   3.859  0.3958 -0.4691 -0.3504
  363MOL0     N48920  -0.360   0.499   4.389 -0.2230  0.5821 -0.6426
  363MOL0     N48921  -0.246   0.452   4.438  0.5274  0.1518 -0.1535
  363MOL0     C48922   0.336   0.427   3.490  0.4048 -0.9510  0.2362
  363MOL0     C48923   0.302   0.434   3.357  0.7405  0.3144  0.1200
  363MOL0     C48924   0.058   0.555   2.989 -0.8065  0.1821  0.3856
  363MOL0     C48925  -0.021   0.464   2.928  0.7744  0.0448 -0.2604
  363MOL0     C48926  -0.048   0.467   2.792  0.0445 -0.8318  0.3429
  363MOL0     C48927  -0.004   0.572   2.709 -0.1701 -0.1682 -1.1872
  363MOL0     O48928  -0.038   0.579   2.573 -0.0210  0.3133 -1.4575
  363MOL0     C48929  -0.145   0.500   2.511  0.0588 -0.3815 -0.1778
  363MOL0     C48930  -0.146   0.495   2.359  0.6180 -0.3028  1.0491
  363MOL0     C48931  -0.008   0.469   2.300  0.7235  0.3708 -0.7271
  363MOL0     C48932   0.072   0.597   2.296 -0.2566  0.2426  0.3664
  363MOL0     C48933   0.196   0.554   2.238 -0.0528 -0.4794 -0.3285
  363MOL0     C48934   0.301   0.528   2.183  0.8466  1.1281  0.4530
  363MOL0     C48935   0.082   0.674   2.770  0.3252  0.7786  1.3156
  363MOL0     C48936   0.121   0.656   2.907 -0.4802 -0.5684  0.7154
  363MOL0     C48937   0.228   0.753   2.948 -0.4027  0.4978 -0.0344
  363MOL0     H48938  -0.022   0.400   3.373  1.0686 -2.4383 -1.1855
  363MOL0     H48939   0.033   0.440   3.634  0.3986  2.4426 -0.9933
  363MOL0     H48940   0.220   0.543   3.860 -0.1611  1.1722 -0.0548
  363MOL0     H48941   0.107   0.403   3.829  2.3217 -2.9838 -2.2156
  363MOL0     H48942   0.376   0.414   3.979  1.8984 -0.3598 -0.2151
  363MOL0     H48943   0.290   0.263   3.933 -0.8514  0.3958 -2.6187
  363MOL0     H48944   0.084   0.334   4.056  1.3557 -2.0833  0.0224
  363MOL0     H48945   0.167   0.477   4.116  3.2996  0.2779  2.2735
  363MOL0     H48946   0.253   0.186   4.156  2.2360  0.0736  0.7953
  363MOL0     H48947   0.338   0.334   4.225 -0.9260  1.7210  1.5708
  363MOL0     H48948   0.080   0.204   4.282  1.9016 -0.7553 -2.4932
  363MOL0     H48949   0.216   0.235   4.388 -1.7784 -0.0942  2.0498
  363MOL0     H48950   0.165   0.486   4.340 -0.8747  0.0974  0.4727
  363MOL0     H48951   0.007   0.434   4.292 -1.1610 -0.9919 -0.8832
  363MOL0     H48952   0.125   0.384   4.559 -0.1846  1.6591  1.6591
  363MOL0     H48953  -0.030   0.325   4.488  0.9676 -0.5843 -1.3940
  363MOL0     H48954  -0.057   0.548   4.642  0.5058 -0.4129  0.3065
  363MOL0     H48955   0.032   0.624   4.503  2.4141 -1.9275 -1.6259
  363MOL0     H48956  -0.205   0.771   4.473  0.9038  0.5627 -1.6434
  363MOL0     H48957  -0.570   0.684   4.424 -0.3345  0.4542  0.8884
  363MOL0     H48958  -0.450   0.812   4.460  1.2298 -0.4923 -1.1342
  363MOL0     H48959  -0.507   0.693   4.173  3.2509  0.4751 -0.8873
  363MOL0     H48960  -0.599   0.831   4.228  0.8663 -0.3733 -2.3485
  363MOL0     H48961  -0.306   0.818   4.161  0.0704 -0.1357 -0.9050
  363MOL0     H48962  -0.373   0.947   4.261  3.1893  0.6651 -2.5116
  363MOL0     H48963  -0.474   0.866   3.975  0.5096 -0.2945  1.1993
  363MOL0     H48964  -0.361   0.991   4.019  0.4149 -0.3717  0.1481
  363MOL0     H48965  -0.781   1.156   4.094  1.5430 -1.0018  0.6840
  363MOL0     H48966  -0.894   1.252   3.924  1.4152  1.7891  3.0803
  363MOL0     H48967  -1.145   1.473   3.750  2.2501 -1.5421  0.6859
  363MOL0     H48968  -1.344   1.495   3.596  0.2956  1.1223 -0.6814
  363MOL0     H48969  -1.332   1.625   3.380  4.5315  2.6378 -1.9542
  363MOL0     H48970  -1.255   1.574   3.225  0.7395 -0.0074  1.2515
  363MOL0     H48971  -1.465   1.687   3.175  0.1143 -0.4122  0.1299
  363MOL0     H48972  -1.485   1.515   3.150  0.0880 -0.4523  0.3972
  363MOL0     H48973  -1.597   1.492   3.371 -2.3230  1.3182  1.9595
  363MOL0     H48974  -1.558   1.667   3.403  1.7057  0.9162 -0.0853
  363MOL0     H48975  -1.756   1.553   3.208 -1.1399  2.0312 -2.2147
  363MOL0     H48976  -1.705   1.718   3.201 -1.1721  0.5263  1.0022
  363MOL0     H48977  -1.783   1.768   3.416  1.5867 -0.0935 -0.3123
  363MOL0     H48978  -1.816   1.602   3.471  2.2759  3.1752  2.4564
  363MOL0     H48979  -2.013   1.759   3.393 -0.5485 -1.8581  1.9838
  363MOL0     H48980  -1.972   1.714   3.235 -2.1282 -1.4147  0.2096
  363MOL0     H48981  -2.034   1.522   3.460  1.6157  0.8355  0.2149
  363MOL0     H48982  -1.992   1.467   3.291  2.3698 -1.1303  2.5023
  363MOL0     H48983  -2.217   1.663   3.336  2.6835  2.4876 -0.3171
  363MOL0     H48984  -2.154   1.589   3.183  1.4712 -0.4336  0.8469
  363MOL0     H48985  -1.118   1.323   3.288  0.1676 -1.8527  0.7766
  363MOL0     H48986  -0.939   1.264   3.446 -0.9361 -0.2168 -0.2716
  363MOL0     H48987  -0.559   1.230   3.663 -1.7357  2.1387 -0.8333
  363MOL0     H48988  -0.435   1.101   3.842  0.6843 -1.8386  3.1012
  363MOL0     H48989   0.440   0.445   3.517  0.7916 -0.0751 -1.6486
  363MOL0     H48990   0.382   0.458   3.287  0.3428 -3.5155 -1.8690
  363MOL0     H48991  -0.058   0.375   2.979  2.5358 -1.8097 -2.0622
  363MOL0     H48992  -0.110   0.390   2.748 -1.6316 -0.6141  2.1846
  363MOL0     H48993  -0.237   0.514   2.568 -0.4467 -2.1626 -0.4790
  363MOL0     H48994  -0.110   0.397   2.529 -1.5279 -0.7679  0.9232
  363MOL0     H48995  -0.174   0.595   2.324  2.3762  0.7815  2.5788
  363MOL0     H48996  -0.217   0.421   2.319  3.0709 -0.3822 -3.8671
  363MOL0     H48997  -0.012   0.426   2.199  1.9210 -0.0792 -0.5924
  363MOL0     H48998   0.038   0.395   2.366 -1.3073  0.4038  0.8154
  363MOL0     H48999   0.021   0.660   2.222  0.2141 -1.0022 -1.0557
  363MOL0     H49000   0.078   0.655   2.388 -1.0450  2.8950 -1.1224
  363MOL0     H49001   0.398   0.506   2.145  1.5859  2.8188  1.2694
  363MOL0     H49002   0.135   0.748   2.712 -0.8285  1.0724  0.6030
  363MOL0     H49003   0.319   0.711   2.994  0.2656  0.9166 -0.9621
  363MOL0     H49004   0.265   0.807   2.861 -1.0522  0.5152 -0.3038
  363MOL0     H49005   0.190   0.820   3.026 -0.9118 -1.6301  1.6516
  364MOL0     O49006   9.355   9.693   0.819 -0.6149  0.3909 -0.1437
  364MOL0     C49007   9.338   9.575   0.793  0.8402 -0.1697  0.3445
  364MOL0     O49008   9.368   9.468   0.865 -0.4031 -0.3994  0.5701
  364MOL0     C49009   9.478   9.481   0.954  0.0127  0.3474 -0.0553
  364MOL0     C49010   9.464   9.549   1.074  0.1098 -0.6167 -0.1544
  364MOL0     C49011   9.572   9.563   1.161 -0.1662 -0.5551  0.2244
  364MOL0     C49012   9.695   9.503   1.133  0.2866 -0.7432  1.0433
  364MOL0     O49013   9.804   9.507   1.211 -0.0055 -0.9095  0.0789
  364MOL0     C49014   9.817   9.602   1.315  0.1740 -0.6458  0.3310
  364MOL0     C49015   9.870   9.741   1.282  0.4675 -0.0134  0.8871
  364MOL0     C49016  10.014   9.719   1.221  0.4351  0.7759 -0.6416
  364MOL0     C49017  10.105   9.844   1.208  0.4231 -0.0534 -0.8324
  364MOL0     C49018  10.237   9.814   1.129 -0.7949 -0.4334  0.0474
  364MOL0     C49019  10.334   9.943   1.127  0.1224 -0.4644  0.1027
  364MOL0     C49020  10.481   9.912   1.095 -1.4025 -0.1958  0.1142
  364MOL0     C49021  10.569  10.034   1.135  0.1530 -0.2767  0.7177
  364MOL0     N49022  10.712  10.019   1.118 -0.0328  0.8132  0.2990
  364MOL0     C49023  10.796  10.110   1.061 -0.2111 -0.1075  0.3372
  364MOL0     C49024  10.915  10.042   1.059 -0.0331 -0.4941 -0.6672
  364MOL0     C49025  11.043  10.092   1.009 -0.6978 -0.3205  0.4253
  364MOL0     C49026  11.127  10.188   1.100  0.3438 -0.0993  0.2922
  364MOL0     C49027  11.189  10.121   1.215  0.8363 -0.0351  0.6554
  364MOL0     C49028  11.266  10.192   1.327  0.1718 -0.3328 -0.4430
  364MOL0     O49029  11.404  10.165   1.326  0.7852  0.0941  0.6449
  364MOL0     C49030  11.454  10.035   1.366 -0.0450  0.1327  0.4462
  364MOL0     C49031  11.368   9.925   1.397 -0.4445 -0.0139  0.3470
  364MOL0     C49032  11.427   9.798   1.411 -0.8042  0.0165  0.1578
  364MOL0     C49033  11.566   9.774   1.401 -0.4041 -0.7892  0.6618
  364MOL0     C49034  11.623   9.639   1.410  1.4245  0.5871  0.1463
  364MOL0     O49035  11.528   9.536   1.415  0.0905 -0.3400  0.1496
  364MOL0     C49036  11.545   9.406   1.378 -0.4774 -1.0091 -0.2718
  364MOL0     C49037  11.442   9.322   1.408  0.0192 -0.8899 -1.0466
  364MOL0     C49038  11.452   9.186   1.392 -0.2805 -0.9429  1.1446
  364MOL0     C49039  11.572   9.130   1.358  0.5940  0.0734  0.0754
  364MOL0     O49040  11.576   8.998   1.355 -0.7161 -0.0107  0.8802
  364MOL0     C49041  11.700   8.939   1.399 -0.1907 -0.2630  0.3037
  364MOL0     C49042  11.651   8.808   1.456  0.2982  0.5209 -0.9356
  364MOL0     C49043  11.635   8.696   1.354  0.7010 -0.2540  0.1159
  364MOL0     C49044  11.745   8.660   1.252 -0.2439  0.0080 -0.0183
  364MOL0     C49045  11.869   8.597   1.319 -0.0487 -0.0006  0.2018
  364MOL0     C49046  11.973   8.588   1.208 -0.3204 -0.1326  0.2774
  364MOL0     C49047  12.080   8.494   1.268  0.0149 -0.0248  0.0398
  364MOL0     C49048  12.200   8.476   1.172  0.7310  0.3222 -0.1028
  364MOL0    Cl49049  12.245   8.307   1.147 -0.1876 -0.2184 -0.0177
  364MOL0     C49050  11.673   9.215   1.318  0.3318 -0.0767 -0.4769
  364MOL0     C49051  11.667   9.352   1.336  0.4276  0.7030 -1.0452
  364MOL0     O49052  11.741   9.617   1.418 -0.3222 -0.1380  0.3920
  364MOL0     C49053  11.637   9.884   1.353 -0.4575 -0.1483  0.0402
  364MOL0     C49054  11.591  10.014   1.339  0.5587 -0.3030  0.8380
  364MOL0     N49055  10.910   9.920   1.123 -0.1290 -0.7228 -0.0421
  364MOL0     N49056  10.786   9.901   1.154 -0.5059  0.4247 -0.4173
  364MOL0     C49057   9.698   9.428   1.013  0.4713  0.1032  0.1660
  364MOL0     C49058   9.594   9.406   0.919  0.1500 -0.2376  0.0748
  364MOL0     C49059   9.273   9.541   0.662 -1.4476  0.4789 -0.3452
  364MOL0     C49060   9.290   9.406   0.616  0.0426 -0.5472 -0.0819
  364MOL0     C49061   9.227   9.366   0.497  0.3632  0.1143  0.3363
  364MOL0     C49062   9.136   9.451   0.425 -0.5376  1.5718 -0.5709
  364MOL0     O49063   9.061   9.412   0.318 -0.0997 -0.9792 -0.7119
  364MOL0     C49064   8.982   9.300   0.327 -0.1254 -0.5786  0.3979
  364MOL0     C49065   8.851   9.317   0.270  1.1184  0.0808  0.1580
  364MOL0     C49066   8.863   9.363   0.126  0.5944  0.5917  0.5151
  364MOL0     C49067   8.743   9.310   0.036 -0.1927 -0.9857 -0.3575
  364MOL0     C49068   8.759   9.171  -0.011 -0.6558 -1.0544 -0.5815
  364MOL0     C49069   8.762   9.054  -0.044 -0.3797  0.1934 -0.3394
  364MOL0     C49070   9.131   9.581   0.471 -0.1471  0.0593  0.1984
  364MOL0     C49071   9.204   9.630   0.584  0.0699 -0.2829 -0.0592
  364MOL0     C49072   9.183   9.778   0.605  0.0712  0.0356 -0.0997
  364MOL0     H49073   9.367   9.594   1.094 -1.6090 -3.3456 -1.8430
  364MOL0     H49074   9.555   9.624   1.249 -2.2779 -1.3582  0.4170
  364MOL0     H49075   9.723   9.629   1.364  0.4371  1.0288 -0.0284
  364MOL0     H49076   9.874   9.551   1.394  4.7084  4.0131  0.5642
  364MOL0     H49077   9.874   9.804   1.371  0.0138  0.1794  0.7794
  364MOL0     H49078   9.806   9.786   1.205 -2.0390 -1.6627  1.8637
  364MOL0     H49079  10.004   9.682   1.118 -1.2739  1.2232 -0.6665
  364MOL0     H49080  10.060   9.643   1.284 -0.0875  0.6397 -0.4143
  364MOL0     H49081  10.045   9.917   1.153  1.7836  0.6604 -1.3900
  364MOL0     H49082  10.130   9.872   1.311 -0.1998 -2.4135  0.0355
  364MOL0     H49083  10.291   9.738   1.186 -1.1755 -1.1207 -0.4938
  364MOL0     H49084  10.221   9.777   1.027  3.9016  2.2897 -1.9986
  364MOL0     H49085  10.296  10.012   1.051  1.8808 -2.8710 -3.2655
  364MOL0     H49086  10.321   9.985   1.227 -2.0389 -1.5997  0.3590
  364MOL0     H49087  10.494   9.904   0.986 -1.1633  1.5613 -0.0221
  364MOL0     H49088  10.514   9.820   1.143  0.7662  0.3815 -0.1482
  364MOL0     H49089  10.547  10.123   1.074  2.6707 -1.4799 -2.2190
  364MOL0     H49090  10.541  10.059   1.238 -4.3275 -0.3711 -0.2494
  364MOL0     H49091  10.787  10.210   1.018  3.2525  0.8619  1.5673
  364MOL0     H49092  11.101  10.013   0.962  0.6916 -0.3392  2.0805
  364MOL0     H49093  11.014  10.161   0.929  0.1289 -0.8085 -0.3103
  364MOL0     H49094  11.209  10.238   1.048  1.0702 -0.4626  1.0568
  364MOL0     H49095  11.063  10.271   1.132  0.7582  0.4389 -0.2530
  364MOL0     H49096  11.270  10.067   1.165 -0.0111 -2.1338  1.4371
  364MOL0     H49097  11.118  10.049   1.257 -0.1364  2.4451  3.6827
  364MOL0     H49098  11.221  10.169   1.424  0.3008 -0.2578 -0.3641
  364MOL0     H49099  11.235  10.297   1.332 -3.9900 -1.4185  0.9387
  364MOL0     H49100  11.263   9.942   1.419 -0.2061  1.0727  0.6951
  364MOL0     H49101  11.363   9.711   1.429 -0.0557 -0.5791 -0.0121
  364MOL0     H49102  11.354   9.376   1.443  1.5110  1.3009 -0.4561
  364MOL0     H49103  11.364   9.122   1.396  0.0628 -1.4160  1.2114
  364MOL0     H49104  11.777   8.920   1.324 -1.4692 -2.8660 -0.4759
  364MOL0     H49105  11.745   8.986   1.487 -0.8361 -0.0846  0.5461
  364MOL0     H49106  11.717   8.775   1.536 -0.8111  1.3598  0.3561
  364MOL0     H49107  11.553   8.824   1.502  0.4808  1.7091 -0.9117
  364MOL0     H49108  11.604   8.607   1.410 -2.6756  1.6759  1.5735
  364MOL0     H49109  11.537   8.723   1.313  0.7477  1.8477  1.2875
  364MOL0     H49110  11.778   8.751   1.201 -1.5925  0.6826  0.2566
  364MOL0     H49111  11.709   8.586   1.180 -3.9619  2.0755 -0.5407
  364MOL0     H49112  11.851   8.490   1.336  0.1353  0.0049  0.4254
  364MOL0     H49113  11.901   8.647   1.411  1.7762 -2.0753  0.7656
  364MOL0     H49114  11.933   8.549   1.114  0.4600  1.1582 -0.6292
  364MOL0     H49115  12.021   8.682   1.179 -0.5883  0.0759  0.5072
  364MOL0     H49116  12.039   8.395   1.290  1.9668 -0.3602  2.6793
  364MOL0     H49117  12.113   8.541   1.361 -1.6665 -0.2075  0.7677
  364MOL0     H49118  12.177   8.524   1.076 -0.3769 -0.9625 -0.5112
  364MOL0     H49119  12.282   8.540   1.206  1.5781 -0.5758 -0.4189
  364MOL0     H49120  11.764   9.167   1.285  1.3095  1.4601 -0.1127
  364MOL0     H49121  11.759   9.405   1.316  1.5239  0.9844  3.6774
  364MOL0     H49122  11.735   9.866   1.309 -0.8158  0.4270 -1.0460
  364MOL0     H49123  11.659  10.088   1.297  0.2240 -0.7224 -0.4852
  364MOL0     H49124   9.790   9.375   0.991 -0.4081 -1.2657 -0.3476
  364MOL0     H49125   9.612   9.348   0.829 -3.7242  0.1104 -1.1014
  364MOL0     H49126   9.348   9.343   0.683 -1.7337  0.5832  2.7173
  364MOL0     H49127   9.232   9.261   0.470 -3.0629 -0.5787  1.9632
  364MOL0     H49128   8.964   9.263   0.428 -3.8576  1.8181  0.8199
  364MOL0     H49129   9.039   9.226   0.270 -1.0060  0.0409 -1.3632
  364MOL0     H49130   8.799   9.401   0.317 -2.2727 -0.4706 -2.2016
  364MOL0     H49131   8.799   9.221   0.272 -1.2529  1.0175 -3.8933
  364MOL0     H49132   8.958   9.336   0.078 -0.6193  2.3238 -3.2156
  364MOL0     H49133   8.858   9.471   0.135  3.4786  0.7709  1.0135
  364MOL0     H49134   8.655   9.303   0.100 -0.7428 -1.8144 -1.1776
  364MOL0     H49135   8.727   9.380  -0.047  1.1593  2.6229  2.1524
  364MOL0     H49136   8.759   8.953  -0.082 -0.9578 -0.4593  1.3660
  364MOL0     H49137   9.062   9.649   0.421  1.5864  0.7596 -1.3457
  364MOL0     H49138   9.096   9.812   0.548 -0.1355  0.8900  0.6981
  364MOL0     H49139   9.164   9.807   0.709  0.5118  0.8607 -0.2437
  364MOL0     H49140   9.269   9.835   0.569 -0.8172  0.0066 -2.4067
  365MOL0     O49141   9.169   9.792  11.196  0.0399  0.6791  0.5975
  365MOL0     C49142   9.255   9.867  11.148  0.1130 -0.0250  0.3640
  365MOL0     O49143   9.237   9.958  11.040  0.4469 -0.2754  0.6653
  365MOL0     C49144   9.128   9.940  10.951  0.7551  0.6146  0.0515
  365MOL0     C49145   9.067  10.056  10.897  0.0648 -0.0747 -0.7049
  365MOL0     C49146   8.956  10.044  10.810 -0.6715 -0.5241  0.1513
  365MOL0     C49147   8.926   9.926  10.743  0.3097  1.1345 -0.0097
  365MOL0     O49148   8.833   9.931  10.636  0.7553 -0.1287 -0.1299
  365MOL0     C49149   8.761   9.810  10.609 -0.8494 -0.3208  0.8563
  365MOL0     C49150   8.661   9.847  10.501  0.6516 -0.2264 -0.3054
  365MOL0     C49151   8.576   9.730  10.451  0.8662  0.1793 -0.9014
  365MOL0     C49152   8.465   9.770  10.353  0.1797  0.5927 -0.3376
  365MOL0     C49153   8.393   9.653  10.281 -0.7392 -0.0620  0.3630
  365MOL0     C49154   8.293   9.694  10.179  0.1754 -0.0318  1.0641
  365MOL0     C49155   8.268   9.592  10.059 -1.2506 -0.1242 -0.4580
  365MOL0     C49156   8.166   9.489  10.113  0.3697 -0.3563 -0.1622
  365MOL0     N49157   8.135   9.378  10.016  0.3349 -0.9220 -0.0739
  365MOL0     C49158   8.099   9.385   9.885 -0.6654 -0.0821 -0.0818
  365MOL0     C49159   8.090   9.251   9.852 -0.1108 -0.0229  0.3304
  365MOL0     C49160   8.076   9.203   9.703  0.0780  0.6085  0.0162
  365MOL0     C49161   7.934   9.220   9.641  0.4751 -0.9853  0.8029
  365MOL0     C49162   7.833   9.110   9.685  0.1856  0.3126 -1.1926
  365MOL0     C49163   7.853   8.973   9.622 -0.6344  0.4039  0.6752
  365MOL0     O49164   7.943   8.977   9.503  0.0211  0.1915  0.2275
  365MOL0     C49165   8.011   8.862   9.494  0.5892  0.0717  0.3509
  365MOL0     C49166   8.109   8.833   9.591  0.9611 -0.0576 -0.8492
  365MOL0     C49167   8.173   8.709   9.573 -0.3831 -0.3612 -0.1357
  365MOL0     C49168   8.139   8.614   9.476  0.7981  0.4461  0.2645
  365MOL0     C49169   8.210   8.483   9.462  0.6031  0.5518  0.3103
  365MOL0     O49170   8.327   8.473   9.532  0.3087 -0.9111  0.1140
  365MOL0     C49171   8.373   8.346   9.557 -0.0240 -0.3281  0.7493
  365MOL0     C49172   8.333   8.273   9.673 -0.7046 -1.3964  0.2444
  365MOL0     C49173   8.373   8.145   9.690 -0.2274  0.4912 -0.6751
  365MOL0     C49174   8.457   8.077   9.595 -0.3008  0.5686 -0.8723
  365MOL0     O49175   8.507   7.950   9.607 -0.0949  0.2250 -0.2049
  365MOL0     C49176   8.446   7.862   9.697  0.6774 -0.1981 -0.0459
  365MOL0     C49177   8.521   7.875   9.825  0.0395  0.3191  0.7285
  365MOL0     C49178   8.617   7.767   9.837  0.4248 -0.4883 -0.1130
  365MOL0     C49179   8.707   7.747   9.965  0.1645  0.4802  0.4174
  365MOL0     C49180   8.823   7.648   9.930 -0.2726  0.8173 -0.0047
  365MOL0     C49181   8.898   7.611  10.053  0.4988  0.1889  0.7224
  365MOL0     C49182   9.021   7.524  10.014  0.2255  1.2405 -0.4712
  365MOL0     C49183   9.093   7.488  10.142 -0.9641 -0.8899 -0.6390
  365MOL0    Cl49184   9.271   7.449  10.126  0.3904  0.3450 -0.2349
  365MOL0     C49185   8.496   8.145   9.486 -0.7303  0.1452 -1.6096
  365MOL0     C49186   8.457   8.279   9.463 -0.6223  0.3714 -0.1888
  365MOL0     O49187   8.159   8.402   9.390  0.5735 -0.0203 -0.9509
  365MOL0     C49188   8.043   8.649   9.383  0.1187 -1.0555 -0.9821
  365MOL0     C49189   7.978   8.769   9.392  0.0658 -0.5005  0.7922
  365MOL0     N49190   8.119   9.174   9.964  0.2500 -0.2790  0.4110
  365MOL0     N49191   8.155   9.252  10.062 -0.3339 -0.0931  0.0817
  365MOL0     C49192   8.999   9.812  10.793  0.9036  0.2780  0.3850
  365MOL0     C49193   9.083   9.816  10.903 -0.9233 -0.1683  0.2593
  365MOL0     C49194   9.386   9.874  11.214  0.1421 -0.0246 -0.0002
  365MOL0     C49195   9.435  10.001  11.247 -1.1351 -0.2649  0.0970
  365MOL0     C49196   9.557  10.011  11.312  0.4064  0.3345 -0.1736
  365MOL0     C49197   9.621   9.895  11.366 -0.4810  0.6965 -0.0902
  365MOL0     O49198   9.742   9.904  11.434  0.0672 -0.1451  0.6580
  365MOL0     C49199   9.815  10.024  11.450 -0.0538 -0.1155  0.0681
  365MOL0     C49200   9.961   9.992  11.477  0.0988 -0.3181 -0.2030
  365MOL0     C49201  10.034  10.118  11.495  0.5665 -0.9439 -0.3621
  365MOL0     C49202  10.183  10.114  11.519 -0.4648 -0.4662  0.2227
  365MOL0     C49203  10.236  10.233  11.591 -0.1495 -0.4897  0.3536
  365MOL0     C49204  10.272  10.323  11.669 -0.0600 -1.1442 -0.1940
  365MOL0     C49205   9.564   9.771  11.348 -0.7061  0.6200  0.4215
  365MOL0     C49206   9.452   9.754  11.265 -0.3051 -0.1948 -0.1475
  365MOL0     C49207   9.397   9.613  11.248  0.1323 -1.1356 -0.6032
  365MOL0     H49208   9.108  10.151  10.931  1.2872 -1.0037  0.5125
  365MOL0     H49209   8.911  10.139  10.781  2.2898  0.1454 -2.9469
  365MOL0     H49210   8.833   9.744  10.561 -1.1509  1.0815 -1.6957
  365MOL0     H49211   8.717   9.767  10.700  0.8245 -0.1813  1.7573
  365MOL0     H49212   8.710   9.896  10.416 -0.0430  2.2664  0.6574
  365MOL0     H49213   8.610   9.934  10.543  1.6130  0.5260 -0.6648
  365MOL0     H49214   8.531   9.674  10.534  1.1554 -1.8210 -2.0474
  365MOL0     H49215   8.636   9.651  10.405  1.3905  0.4372 -0.6718
  365MOL0     H49216   8.390   9.818  10.416 -1.6484 -0.5672 -1.5531
  365MOL0     H49217   8.494   9.838  10.273  0.6750 -0.1104 -0.7628
  365MOL0     H49218   8.473   9.592  10.238 -1.4823 -2.2068  1.8590
  365MOL0     H49219   8.339   9.592  10.354  1.0158  1.5796  3.2307
  365MOL0     H49220   8.200   9.731  10.223 -1.5490  0.7367 -2.7550
  365MOL0     H49221   8.337   9.780  10.129  3.2656 -1.9401  0.1844
  365MOL0     H49222   8.363   9.545  10.035  0.2443  0.9024  2.9199
  365MOL0     H49223   8.221   9.650   9.979 -1.5638  0.5132  0.1729
  365MOL0     H49224   8.217   9.435  10.193  0.5391  1.1880  0.8087
  365MOL0     H49225   8.078   9.545  10.146 -1.8084 -2.2086 -2.3780
  365MOL0     H49226   8.096   9.482   9.836 -1.0403  1.0105  2.0169
  365MOL0     H49227   8.152   9.245   9.636 -0.2913  1.0633 -0.1248
  365MOL0     H49228   8.091   9.095   9.705 -1.7072  0.2096 -2.4461
  365MOL0     H49229   7.905   9.316   9.684  1.2555 -1.1089  1.6379
  365MOL0     H49230   7.939   9.227   9.532  1.2904  0.9554  0.9249
  365MOL0     H49231   7.733   9.152   9.674 -0.2237  0.0081  0.9048
  365MOL0     H49232   7.837   9.089   9.792 -1.0660  1.6615 -0.8574
  365MOL0     H49233   7.755   8.934   9.593 -0.7460 -1.2509  3.0032
  365MOL0     H49234   7.885   8.924   9.715 -2.8767 -0.1853  1.2002
  365MOL0     H49235   8.121   8.897   9.678 -1.0538 -3.0200  1.8748
  365MOL0     H49236   8.255   8.673   9.635  1.2484  1.3414 -1.2364
  365MOL0     H49237   8.268   8.327   9.741  0.3777 -0.0544  0.2603
  365MOL0     H49238   8.334   8.094   9.778  1.3912 -0.9807 -0.7379
  365MOL0     H49239   8.343   7.894   9.718 -0.3375 -3.3174  0.4018
  365MOL0     H49240   8.447   7.760   9.658  0.9086 -0.4881  0.6992
  365MOL0     H49241   8.574   7.970   9.828 -0.0192  0.3919 -0.1306
  365MOL0     H49242   8.448   7.871   9.907 -4.8393 -1.2332 -3.1664
  365MOL0     H49243   8.564   7.675   9.810 -1.1729  0.5818 -0.8198
  365MOL0     H49244   8.684   7.788   9.754  2.0433 -0.4507  1.1395
  365MOL0     H49245   8.649   7.707  10.048  1.2130 -0.5654  0.6794
  365MOL0     H49246   8.745   7.845   9.994  5.5330 -1.2560  0.3985
  365MOL0     H49247   8.887   7.714   9.871 -2.3784  3.6224  0.6662
  365MOL0     H49248   8.798   7.558   9.874  1.4128  0.5050 -0.3236
  365MOL0     H49249   8.951   7.693  10.103  0.1394  0.3578  0.8363
  365MOL0     H49250   8.826   7.569  10.124 -1.6188  2.1563 -0.1346
  365MOL0     H49251   9.089   7.583   9.951 -0.2753  1.8758 -0.4359
  365MOL0     H49252   8.989   7.435   9.960 -1.9271  2.0248 -0.6141
  365MOL0     H49253   9.087   7.564  10.221 -1.3671  1.3854 -2.7622
  365MOL0     H49254   9.043   7.409  10.200  0.3256 -1.7889 -0.7118
  365MOL0     H49255   8.545   8.105   9.397  1.1775  1.1808 -1.0838
  365MOL0     H49256   8.496   8.334   9.377 -2.3605  0.9865 -0.6295
  365MOL0     H49257   8.009   8.577   9.310 -1.2665  0.2415 -1.6825
  365MOL0     H49258   7.903   8.811   9.326  1.7255  2.2060  0.4854
  365MOL0     H49259   8.984   9.714  10.750 -0.3190  1.0871 -1.1572
  365MOL0     H49260   9.131   9.723  10.932  1.2055  1.0562  0.9228
  365MOL0     H49261   9.374  10.084  11.214  1.1476  1.0647 -1.0711
  365MOL0     H49262   9.580  10.112  11.344  2.5919 -0.5049  1.1472
  365MOL0     H49263   9.752  10.084  11.516 -2.9404  1.0120 -3.3975
  365MOL0     H49264   9.805  10.075  11.354  0.5414 -0.5226 -0.2170
  365MOL0     H49265  10.014   9.932  11.403  0.3994  0.1300 -0.3484
  365MOL0     H49266   9.973   9.932  11.568 -1.0035 -0.3667 -0.0770
  365MOL0     H49267   9.975  10.178  11.564  0.0131 -0.5772 -1.1433
  365MOL0     H49268  10.021  10.156  11.393 -1.5091 -0.4008  0.0642
  365MOL0     H49269  10.188  10.027  11.585 -2.4395  0.2313  1.3956
  365MOL0     H49270  10.230  10.102  11.421 -2.6516 -1.4432 -0.7751
  365MOL0     H49271  10.310  10.401  11.732 -0.3902 -0.6611 -0.5887
  365MOL0     H49272   9.607   9.682  11.393 -1.1697  1.1107  1.8986
  365MOL0     H49273   9.428   9.592  11.146  0.4649 -0.2905 -0.6873
  365MOL0     H49274   9.441   9.536  11.313 -0.8572 -2.5694 -1.5785
  365MOL0     H49275   9.290   9.601  11.265 -0.4711  1.8288 -1.7521
  366MOL0     O49276   9.462   0.004  10.451  0.0316 -0.0128  0.0927
  366MOL0     C49277   9.420  -0.095  10.514 -0.0247 -0.4037  0.2079
  366MOL0     O49278   9.484  -0.211  10.523  0.8575 -0.3601 -0.7638
  366MOL0     C49279   9.596  -0.239  10.444  0.4339  0.1222 -0.7698
  366MOL0     C49280   9.599  -0.227  10.310 -0.4409 -0.1790  0.5954
  366MOL0     C49281   9.719  -0.245  10.239  0.1047  0.8993  0.2898
  366MOL0     C49282   9.838  -0.277  10.302  0.1926  0.5248 -0.0656
  366MOL0     O49283   9.958  -0.306  10.250  0.0242 -0.1300 -0.2663
  366MOL0     C49284   9.979  -0.277  10.118 -0.4669  0.2515  0.3804
  366MOL0     C49285  10.132  -0.282  10.093  1.2243 -0.3650  0.6456
  366MOL0     C49286  10.177  -0.286   9.943 -0.3187  0.2523  0.0008
  366MOL0     C49287  10.126  -0.170   9.854  0.2129 -0.1334 -0.6216
  366MOL0     C49288  10.212  -0.053   9.868 -0.9107  0.5446 -0.5496
  366MOL0     C49289  10.171   0.060   9.770 -0.1748 -0.5277  0.0113
  366MOL0     C49290  10.290   0.150   9.749 -0.6255  0.3003  0.4755
  366MOL0     C49291  10.267   0.237   9.623  0.0214  0.5919  0.5491
  366MOL0     N49292  10.348   0.345   9.615 -0.7764 -0.0171 -0.0010
  366MOL0     C49293  10.346   0.461   9.688  0.7161  0.0408 -0.6876
  366MOL0     C49294  10.435   0.541   9.636 -0.7124 -0.8254 -0.1083
  366MOL0     C49295  10.468   0.681   9.687  0.2759  0.1475  1.2228
  366MOL0     C49296  10.465   0.680   9.836 -0.1951  0.1816  0.0403
  366MOL0     C49297  10.494   0.816   9.893 -0.3819 -0.1520 -0.5710
  366MOL0     C49298  10.376   0.909   9.879 -0.4071 -0.0256  0.1060
  366MOL0     O49299  10.425   1.025   9.937 -0.9842  0.2543 -0.6507
  366MOL0     C49300  10.333   1.114   9.995 -0.9678  0.0311  0.0979
  366MOL0     C49301  10.201   1.126   9.937  0.7655 -0.0260  0.7343
  366MOL0     C49302  10.113   1.233   9.969  0.0207 -0.3126 -0.6134
  366MOL0     C49303  10.150   1.320  10.074 -0.0403 -0.7095  0.3399
  366MOL0     C49304  10.065   1.436  10.098  0.2942 -1.6473 -0.6727
  366MOL0     O49305   9.949   1.442  10.021  0.3337  0.2486 -0.7291
  366MOL0     C49306   9.869   1.557  10.022 -0.2655  0.5378  0.1262
  366MOL0     C49307   9.840   1.631  10.139 -0.1033 -0.3908 -0.3132
  366MOL0     C49308   9.737   1.724  10.132 -0.2322 -0.7255 -0.4212
  366MOL0     C49309   9.656   1.739  10.013  0.9433 -0.4954 -0.0504
  366MOL0     O49310   9.562   1.843  10.014  0.2106  0.1926 -0.8574
  366MOL0     C49311   9.495   1.871  10.138  0.3681  0.2214  0.2716
  366MOL0     C49312   9.376   1.952  10.100 -0.1873 -0.0220  0.0513
  366MOL0     C49313   9.262   1.883  10.029 -0.5599  0.5675  0.0511
  366MOL0     C49314   9.157   1.983   9.978  0.6817 -0.2043 -0.5860
  366MOL0     C49315   9.140   2.004   9.824 -0.2037  0.7943 -0.2133
  366MOL0     C49316   9.097   1.880   9.743 -0.4989  0.1731  0.2270
  366MOL0     C49317   8.963   1.814   9.791  0.6063  0.0486 -0.3737
  366MOL0     C49318   8.904   1.737   9.670 -0.4003 -0.8053 -0.4774
  366MOL0    Cl49319   8.875   1.861   9.535 -0.1986  0.5058  0.1657
  366MOL0     C49320   9.687   1.664   9.905  0.7885 -0.6448 -0.4485
  366MOL0     C49321   9.783   1.567   9.912 -0.2218  0.4384 -0.2670
  366MOL0     O49322  10.100   1.530  10.169 -0.4177 -0.4986 -0.8225
  366MOL0     C49323  10.270   1.306  10.132  0.7143 -0.5518 -0.0553
  366MOL0     C49324  10.362   1.216  10.089 -0.8000  0.3889  0.2407
  366MOL0     N49325  10.495   0.483   9.534 -0.2796  0.2672  0.9904
  366MOL0     N49326  10.452   0.363   9.522 -0.0922 -0.9312 -0.5906
  366MOL0     C49327   9.841  -0.286  10.444 -0.2745  0.0958 -0.2024
  366MOL0     C49328   9.720  -0.269  10.512 -0.5930  0.1335 -0.1581
  366MOL0     C49329   9.298  -0.082  10.608  0.0929  0.3226  0.8088
  366MOL0     C49330   9.324  -0.109  10.745 -0.5553  0.6890  0.0299
  366MOL0     C49331   9.225  -0.076  10.835 -0.3688 -1.1247 -0.2522
  366MOL0     C49332   9.097  -0.028  10.792  0.6351  0.6861  0.3941
  366MOL0     O49333   8.986  -0.006  10.878 -0.5927 -0.3016  0.6956
  366MOL0     C49334   8.980  -0.068  11.011 -0.0848 -0.5798 -0.5908
  366MOL0     C49335   8.841  -0.123  11.014  1.5129  0.3186 -0.9444
  366MOL0     C49336   8.736  -0.010  11.038 -0.2051  0.7875 -0.2155
  366MOL0     C49337   8.583  -0.042  10.995  0.3043 -0.0106  0.4967
  366MOL0     C49338   8.521  -0.144  11.084  0.0822 -0.4567  0.5271
  366MOL0     C49339   8.480  -0.238  11.137 -0.1628 -0.2448 -0.2957
  366MOL0     C49340   9.075  -0.013  10.655  0.1936  1.3120 -1.4479
  366MOL0     C49341   9.169  -0.042  10.560  0.0086  0.1339 -0.2765
  366MOL0     C49342   9.133  -0.009  10.414  0.9109  0.1894 -0.4745
  366MOL0     H49343   9.506  -0.196  10.264 -0.3646 -3.6024 -2.3306
  366MOL0     H49344   9.706  -0.241  10.131 -0.0222  1.8770  0.3294
  366MOL0     H49345   9.933  -0.351  10.053  2.3076  1.7474 -3.6896
  366MOL0     H49346   9.940  -0.180  10.085 -0.1913 -0.5200 -2.4341
  366MOL0     H49347  10.178  -0.374  10.129  1.5593 -1.2930 -1.9842
  366MOL0     H49348  10.169  -0.203  10.159 -2.5109  1.5062  0.7760
  366MOL0     H49349  10.135  -0.378   9.901 -1.5366 -0.2861  2.2675
  366MOL0     H49350  10.285  -0.296   9.931 -0.1610 -1.3294  2.1274
  366MOL0     H49351  10.123  -0.200   9.749  0.2448 -0.0454 -0.6485
  366MOL0     H49352  10.028  -0.140   9.892 -0.3691 -1.2146 -1.2278
  366MOL0     H49353  10.217  -0.016   9.971  3.2154  1.5397 -0.9628
  366MOL0     H49354  10.312  -0.086   9.838 -0.5573  0.6522  0.4828
  366MOL0     H49355  10.155   0.010   9.674 -3.1832 -0.3660  0.3389
  366MOL0     H49356  10.083   0.119   9.801  0.1174 -0.5271  0.8730
  366MOL0     H49357  10.381   0.098   9.719 -1.1511  0.5777 -1.7788
  366MOL0     H49358  10.312   0.211   9.837  3.2090 -0.6444  0.3816
  366MOL0     H49359  10.287   0.172   9.537  0.6400  1.4744  0.0071
  366MOL0     H49360  10.160   0.258   9.619  0.0279  0.9732  1.9242
  366MOL0     H49361  10.279   0.468   9.773  1.7966 -1.2400  0.3122
  366MOL0     H49362  10.564   0.721   9.652  0.9578 -0.5181  2.2795
  366MOL0     H49363  10.392   0.753   9.655  0.0256  0.4545  2.4773
  366MOL0     H49364  10.363   0.646   9.857  0.4775  0.2092  3.9586
  366MOL0     H49365  10.528   0.596   9.866  1.3054  0.7312 -1.3982
  366MOL0     H49366  10.589   0.853   9.854  0.4255  0.3015  1.6989
  366MOL0     H49367  10.513   0.786   9.996 -0.1072 -5.0145 -1.7736
  366MOL0     H49368  10.291   0.868   9.934  0.1826 -0.5372  0.6589
  366MOL0     H49369  10.359   0.913   9.771 -0.5069  2.7011  0.1657
  366MOL0     H49370  10.175   1.063   9.853  3.1294 -0.7022  0.4274
  366MOL0     H49371  10.028   1.248   9.903  1.9048  1.5076 -2.7761
  366MOL0     H49372   9.894   1.615  10.232 -0.8986 -2.3102 -0.1270
  366MOL0     H49373   9.730   1.797  10.212  0.3560  0.8385 -1.7193
  366MOL0     H49374   9.446   1.784  10.182  1.1105  0.1698  1.0048
  366MOL0     H49375   9.556   1.918  10.216 -0.1414 -1.7380  1.9263
  366MOL0     H49376   9.345   1.997  10.195 -0.9583 -0.2865 -0.0716
  366MOL0     H49377   9.399   2.033  10.031 -2.9669  1.5381  0.8548
  366MOL0     H49378   9.310   1.827   9.948  1.7329  2.0719  0.2586
  366MOL0     H49379   9.215   1.805  10.090  1.3199  0.2833  1.2263
  366MOL0     H49380   9.181   2.082  10.019  0.5320  0.1938 -1.4381
  366MOL0     H49381   9.063   1.957  10.028  0.2379 -2.1263 -2.3144
  366MOL0     H49382   9.240   2.025   9.784  0.3899 -1.8230 -0.2967
  366MOL0     H49383   9.079   2.092   9.801  1.4045  2.0954  0.3475
  366MOL0     H49384   9.096   1.912   9.638  0.0438  1.1066  0.4971
  366MOL0     H49385   9.171   1.800   9.757  1.1840  1.5750 -0.3064
  366MOL0     H49386   8.895   1.895   9.819  1.8720  0.0611  3.0655
  366MOL0     H49387   8.975   1.754   9.881 -0.3425 -0.7736 -0.7725
  366MOL0     H49388   8.979   1.662   9.642  1.4817  0.1976  1.5359
  366MOL0     H49389   8.813   1.694   9.712 -0.3443 -1.5598 -1.1064
  366MOL0     H49390   9.617   1.675   9.822  0.9611  1.5117 -0.3463
  366MOL0     H49391   9.800   1.503   9.827  0.1139  1.6089 -1.1104
  366MOL0     H49392  10.320   1.372  10.203  2.3214 -0.9768 -0.7418
  366MOL0     H49393  10.466   1.200  10.112 -0.8618 -2.3829 -0.9502
  366MOL0     H49394   9.933  -0.306  10.499  0.6387 -0.5064 -1.8579
  366MOL0     H49395   9.719  -0.267  10.620  1.1625  2.1740 -0.1116
  366MOL0     H49396   9.413  -0.145  10.795 -1.8994 -1.0480  1.2783
  366MOL0     H49397   9.253  -0.097  10.938  2.2413  2.3132 -0.0984
  366MOL0     H49398   9.016  -0.009  11.097 -2.2821 -0.6929  0.4790
  366MOL0     H49399   9.051  -0.151  11.020  0.2352 -0.4786 -1.9771
  366MOL0     H49400   8.824  -0.210  11.078  0.5232  2.0260  1.2588
  366MOL0     H49401   8.819  -0.161  10.914 -0.8727  0.3076 -0.4787
  366MOL0     H49402   8.761   0.087  10.996 -1.4559  1.2753  0.1391
  366MOL0     H49403   8.741   0.009  11.146 -0.1235 -1.1062  0.1631
  366MOL0     H49404   8.528   0.052  10.995  3.2264  1.8202 -0.0583
  366MOL0     H49405   8.590  -0.071  10.889  1.9837 -0.4486  0.6922
  366MOL0     H49406   8.450  -0.317  11.202 -1.0550  0.8329  0.6481
  366MOL0     H49407   8.971   0.010  10.632 -0.5050 -1.0687 -0.9946
  366MOL0     H49408   9.133   0.099  10.393 -2.2795  0.2629 -0.6928
  366MOL0     H49409   9.209  -0.054  10.350  1.4991 -1.2674  1.1880
  366MOL0     H49410   9.035  -0.051  10.390  1.7925 -1.6697 -0.9782
  367MOL0     O49411   1.502   0.758   4.914 -0.3373  0.0054 -0.5314
  367MOL0     C49412   1.417   0.728   4.826 -0.7256  0.4218 -1.0689
  367MOL0     O49413   1.367   0.607   4.795  0.6806 -0.1390 -0.0242
  367MOL0     C49414   1.385   0.495   4.867  0.4754 -0.3307 -0.8217
  367MOL0     C49415   1.296   0.397   4.847  0.4020  0.2639 -0.8786
  367MOL0     C49416   1.285   0.279   4.931  0.3475  0.2800  0.1858
  367MOL0     C49417   1.384   0.256   5.023  0.7846 -0.1428  0.3813
  367MOL0     O49418   1.402   0.136   5.086  0.7515 -0.2109  0.0104
  367MOL0     C49419   1.441   0.126   5.227  0.5065  0.0941 -0.4829
  367MOL0     C49420   1.450  -0.028   5.255 -0.6937 -1.0213  0.0823
  367MOL0     C49421   1.546  -0.054   5.373  0.1870  0.5510 -0.3184
  367MOL0     C49422   1.552  -0.199   5.424 -0.1342 -1.5469 -0.3921
  367MOL0     C49423   1.565  -0.311   5.316  0.3104  0.3639  0.2723
  367MOL0     C49424   1.582  -0.451   5.385 -0.0772  0.3318 -0.2591
  367MOL0     C49425   1.574  -0.562   5.277  0.8040  0.7062  0.4167
  367MOL0     C49426   1.572  -0.703   5.332  0.0533  0.2019  0.0499
  367MOL0     N49427   1.675  -0.738   5.434 -0.0295  0.6013 -0.0780
  367MOL0     C49428   1.657  -0.728   5.569  0.0015  0.0945 -0.3292
  367MOL0     C49429   1.782  -0.759   5.618 -0.5337 -0.0440 -0.3169
  367MOL0     C49430   1.821  -0.772   5.763 -0.2519 -1.0502 -0.2160
  367MOL0     C49431   1.898  -0.655   5.830  0.2291  0.9824  0.4325
  367MOL0     C49432   2.005  -0.574   5.745  0.1121 -0.2617  0.9399
  367MOL0     C49433   2.124  -0.669   5.725  0.4754 -0.5429  0.5701
  367MOL0     O49434   2.225  -0.591   5.660 -0.4178  0.0983  0.4383
  367MOL0     C49435   2.284  -0.491   5.732 -0.2358  0.8751 -0.1300
  367MOL0     C49436   2.366  -0.401   5.671  0.5011  0.8619  0.0217
  367MOL0     C49437   2.426  -0.292   5.735 -0.5547 -0.1740  0.1342
  367MOL0     C49438   2.410  -0.275   5.875 -1.3313  0.3114  0.2281
  367MOL0     C49439   2.463  -0.153   5.947 -0.0203  0.2505  0.6198
  367MOL0     O49440   2.434  -0.140   6.077 -0.3373 -0.8747 -0.2030
  367MOL0     C49441   2.491  -0.040   6.153 -0.5101  0.0377  0.2782
  367MOL0     C49442   2.434   0.085   6.167 -0.3740  0.5009 -0.1417
  367MOL0     C49443   2.494   0.176   6.257  0.6260 -0.1128  0.0732
  367MOL0     C49444   2.614   0.148   6.324  0.3113  1.1822 -0.4883
  367MOL0     O49445   2.655   0.241   6.413 -0.2759  0.1945  0.0258
  367MOL0     C49446   2.788   0.219   6.456 -0.0847  0.6928 -0.6594
  367MOL0     C49447   2.829   0.319   6.565  1.1272 -0.4615  0.1005
  367MOL0     C49448   2.974   0.302   6.607  0.0981  1.0968 -0.4295
  367MOL0     C49449   2.993   0.354   6.750  0.0908  0.3369  0.2851
  367MOL0     C49450   3.123   0.314   6.804 -0.0411  0.4887  0.1109
  367MOL0     C49451   3.254   0.359   6.729 -0.4369 -0.5244 -0.1136
  367MOL0     C49452   3.272   0.512   6.738 -0.0516 -0.0310  0.7417
  367MOL0     C49453   3.422   0.536   6.708  0.5888  1.0110 -0.6815
  367MOL0    Cl49454   3.474   0.703   6.743 -0.0736 -0.0533  0.0627
  367MOL0     C49455   2.677   0.018   6.297 -0.6962 -0.7128  0.8656
  367MOL0     C49456   2.604  -0.076   6.228 -0.2239  0.1316  0.9504
  367MOL0     O49457   2.521  -0.069   5.878 -0.1863  0.9435  0.0747
  367MOL0     C49458   2.331  -0.368   5.942  0.4509 -0.2059 -0.3718
  367MOL0     C49459   2.269  -0.477   5.877 -0.2491 -0.0521  0.9881
  367MOL0     N49460   1.867  -0.772   5.511 -0.7571  0.9159  0.2383
  367MOL0     N49461   1.802  -0.777   5.404  1.7226 -0.6918  0.4598
  367MOL0     C49462   1.481   0.350   5.045 -0.4184 -0.2701  0.5242
  367MOL0     C49463   1.485   0.479   4.975  0.3571  0.2456  0.9701
  367MOL0     C49464   1.366   0.843   4.762  0.3586  0.4641  0.4346
  367MOL0     C49465   1.461   0.933   4.720 -1.1168 -0.2696 -0.6021
  367MOL0     C49466   1.431   1.046   4.638  0.1792 -0.1754 -1.0568
  367MOL0     C49467   1.301   1.066   4.597  0.5922 -0.1477  0.7645
  367MOL0     O49468   1.274   1.173   4.510 -0.3533 -0.5493  0.0181
  367MOL0     C49469   1.144   1.169   4.457 -0.7522  1.3412 -0.4685
  367MOL0     C49470   1.130   1.299   4.370  1.4107 -0.0468 -0.6639
  367MOL0     C49471   0.982   1.310   4.311 -1.1073  0.1326 -0.0098
  367MOL0     C49472   0.970   1.429   4.228 -0.8063 -0.1032  0.2422
  367MOL0     C49473   1.048   1.422   4.101  0.1440 -0.2936 -0.0238
  367MOL0     C49474   1.116   1.406   4.005  0.2564  0.0213 -0.3892
  367MOL0     C49475   1.200   0.977   4.642 -0.1356  0.1400 -0.4182
  367MOL0     C49476   1.231   0.860   4.721 -0.4171 -1.0372  0.7811
  367MOL0     C49477   1.120   0.763   4.755 -0.2462 -0.1746 -0.2314
  367MOL0     H49478   1.231   0.417   4.763 -1.4431 -0.4969  0.3126
  367MOL0     H49479   1.215   0.198   4.912  0.7378  0.5094 -2.5216
  367MOL0     H49480   1.541   0.170   5.231  1.3634 -1.6010 -2.0168
  367MOL0     H49481   1.371   0.174   5.296 -1.9110 -2.4590 -0.9936
  367MOL0     H49482   1.477  -0.076   5.161 -0.5025 -0.4212 -0.1761
  367MOL0     H49483   1.351  -0.068   5.280 -0.4818 -1.6760 -0.1076
  367MOL0     H49484   1.518   0.002   5.463  0.8629 -0.2333  0.3915
  367MOL0     H49485   1.648  -0.023   5.347  0.7435 -1.2384 -0.3882
  367MOL0     H49486   1.637  -0.200   5.493  0.4759  1.5794 -0.9661
  367MOL0     H49487   1.456  -0.217   5.473  0.0097 -0.7554  0.2015
  367MOL0     H49488   1.469  -0.317   5.265  0.4735 -1.2004  0.0917
  367MOL0     H49489   1.643  -0.288   5.242  1.5071 -1.5033  0.8645
  367MOL0     H49490   1.674  -0.470   5.441 -0.1295  2.8507  0.7997
  367MOL0     H49491   1.498  -0.458   5.455  0.9461  4.4329  1.6904
  367MOL0     H49492   1.660  -0.552   5.211  0.1335  0.4587 -0.5039
  367MOL0     H49493   1.493  -0.548   5.206  1.2215 -2.3305 -0.8173
  367MOL0     H49494   1.474  -0.739   5.365  0.1493 -0.0494  0.0652
  367MOL0     H49495   1.583  -0.767   5.244 -2.9992  1.5312 -1.4311
  367MOL0     H49496   1.570  -0.705   5.630  0.2367 -1.5390  0.6633
  367MOL0     H49497   1.737  -0.795   5.828  0.1062  1.6207  1.3377
  367MOL0     H49498   1.891  -0.854   5.775  2.0464  0.7272 -0.6775
  367MOL0     H49499   1.821  -0.582   5.859 -1.1187 -0.0619 -0.4182
  367MOL0     H49500   1.963  -0.686   5.912  2.0043  2.9134 -0.1534
  367MOL0     H49501   2.029  -0.486   5.805  0.4253 -0.0486  0.5050
  367MOL0     H49502   1.959  -0.539   5.652 -0.3642  1.1549  1.6908
  367MOL0     H49503   2.094  -0.747   5.654 -0.6174  1.1120 -0.8709
  367MOL0     H49504   2.148  -0.727   5.815 -0.3414 -1.7970  0.0129
  367MOL0     H49505   2.384  -0.432   5.568  1.3753 -0.7925  0.6235
  367MOL0     H49506   2.491  -0.220   5.687  0.9150  0.0436  2.3320
  367MOL0     H49507   2.346   0.120   6.114  0.4822  2.4336 -0.3887
  367MOL0     H49508   2.442   0.271   6.265 -0.7040 -0.8363  0.4270
  367MOL0     H49509   2.791   0.123   6.508 -1.0908  0.3968 -1.1377
  367MOL0     H49510   2.866   0.215   6.379  0.9082 -0.9074  0.3785
  367MOL0     H49511   2.816   0.414   6.513  0.6060 -1.2256 -1.2125
  367MOL0     H49512   2.771   0.318   6.658  1.6619  2.6678  0.5838
  367MOL0     H49513   2.997   0.195   6.604 -1.9179  0.4872  1.9733
  367MOL0     H49514   3.049   0.357   6.551  0.4862  1.6693  0.6124
  367MOL0     H49515   2.909   0.316   6.808  1.5129 -2.6210  0.5796
  367MOL0     H49516   2.989   0.463   6.738 -0.3744  0.0773 -2.6586
  367MOL0     H49517   3.127   0.206   6.825  1.1091  0.7592  1.4385
  367MOL0     H49518   3.125   0.357   6.905  2.2219 -0.8003  0.6956
  367MOL0     H49519   3.341   0.314   6.778 -0.2534 -1.4970 -1.2877
  367MOL0     H49520   3.258   0.318   6.627 -1.0147  2.0039 -1.2472
  367MOL0     H49521   3.252   0.544   6.840  2.3735  1.4033  0.8262
  367MOL0     H49522   3.203   0.567   6.672 -0.2717  0.8467  1.6848
  367MOL0     H49523   3.475   0.487   6.790  0.1524 -0.9161 -1.5118
  367MOL0     H49524   3.449   0.489   6.614 -1.7323  1.2836 -1.5603
  367MOL0     H49525   2.774   0.006   6.345 -0.6963  0.2668  1.1363
  367MOL0     H49526   2.637  -0.179   6.226 -1.2910 -0.2670 -3.0225
  367MOL0     H49527   2.316  -0.352   6.049 -1.5882  0.2096 -0.6619
  367MOL0     H49528   2.214  -0.542   5.945 -0.3816  1.2225  2.1451
  367MOL0     H49529   1.565   0.328   5.111  2.1602  2.5065 -1.5558
  367MOL0     H49530   1.565   0.551   4.991  4.8558 -2.7965 -4.0741
  367MOL0     H49531   1.561   0.910   4.756 -1.0832  0.1655 -0.4105
  367MOL0     H49532   1.508   1.122   4.631  0.2600 -0.1047  0.3303
  367MOL0     H49533   1.075   1.163   4.542 -0.2127  0.6652 -0.0691
  367MOL0     H49534   1.155   1.084   4.390  2.7638  1.2466  0.0154
  367MOL0     H49535   1.205   1.297   4.290  0.5322  1.4971 -1.5613
  367MOL0     H49536   1.139   1.387   4.434 -3.4706 -0.1084  0.4369
  367MOL0     H49537   0.912   1.324   4.393 -1.7667 -0.7189 -0.4182
  367MOL0     H49538   0.960   1.222   4.250  2.4094 -0.0100 -1.3057
  367MOL0     H49539   0.871   1.465   4.201  0.6036  2.8549 -1.5106
  367MOL0     H49540   1.012   1.521   4.270  0.0516 -0.2360 -0.2938
  367MOL0     H49541   1.168   1.372   3.918  3.3637  0.8266  1.0148
  367MOL0     H49542   1.095   1.000   4.629 -1.0687 -2.1366  2.0639
  367MOL0     H49543   1.138   0.727   4.857 -2.2568 -1.0498 -0.1417
  367MOL0     H49544   1.022   0.810   4.763  0.1931  1.4989 -3.2768
  367MOL0     H49545   1.116   0.679   4.685 -0.2861  0.5112 -1.0614
  368MOL0     O49546   0.340   8.973   2.199  0.3108 -0.6874  0.1529
  368MOL0     C49547   0.289   9.066   2.137 -0.2312 -0.7373  0.1931
  368MOL0     O49548   0.349   9.177   2.089 -0.3324  0.3498 -0.5626
  368MOL0     C49549   0.489   9.203   2.073 -0.2987 -0.1605  0.2369
  368MOL0     C49550   0.596   9.151   2.155  0.2484 -0.5808 -0.6726
  368MOL0     C49551   0.729   9.185   2.132 -1.1602 -0.0554 -0.0819
  368MOL0     C49552   0.759   9.273   2.025 -0.3959  0.3250 -0.0653
  368MOL0     O49553   0.885   9.299   1.981 -0.4356  0.4665  0.4501
  368MOL0     C49554   0.984   9.211   2.030 -0.0729  0.5086 -0.3299
  368MOL0     C49555   1.119   9.245   1.983 -0.1163 -0.0936 -0.1033
  368MOL0     C49556   1.169   9.382   2.041  0.5041 -0.4158 -0.2164
  368MOL0     C49557   1.171   9.403   2.185 -0.2069 -0.3617 -0.6119
  368MOL0     C49558   1.240   9.537   2.208  0.0207 -0.7418  0.7053
  368MOL0     C49559   1.229   9.581   2.345 -0.6486 -0.0573 -0.6574
  368MOL0     C49560   1.292   9.478   2.447  0.4872 -0.5967 -0.0817
  368MOL0     C49561   1.334   9.536   2.584 -0.8172 -0.2111 -0.0043
  368MOL0     N49562   1.453   9.460   2.639 -0.7060  0.3824 -0.4703
  368MOL0     C49563   1.443   9.339   2.706 -0.0980 -1.6116  0.6100
  368MOL0     C49564   1.574   9.304   2.717  0.2119  0.2651 -0.4839
  368MOL0     C49565   1.618   9.184   2.789 -0.6499 -0.6709 -0.3893
  368MOL0     C49566   1.540   9.051   2.765  0.3229 -0.4211  0.3578
  368MOL0     C49567   1.529   9.000   2.630  0.8535  0.2805  1.1279
  368MOL0     C49568   1.662   8.970   2.575  0.4149 -0.7043  0.7273
  368MOL0     O49569   1.722   8.873   2.659 -0.0222  0.1658 -0.0899
  368MOL0     C49570   1.749   8.754   2.598 -0.6409  0.3655 -1.2643
  368MOL0     C49571   1.705   8.639   2.662 -0.1419  0.0818  0.0879
  368MOL0     C49572   1.740   8.510   2.609  0.3986 -0.2523 -0.4385
  368MOL0     C49573   1.834   8.495   2.510 -0.1341  0.8206  0.6404
  368MOL0     C49574   1.880   8.352   2.479 -1.2173  0.5896 -0.3149
  368MOL0     O49575   1.986   8.339   2.402  0.5080 -0.0157  0.3185
  368MOL0     C49576   2.019   8.220   2.339 -0.0867 -0.0873  0.4183
  368MOL0     C49577   2.083   8.117   2.418  0.4142  0.2011  0.1150
  368MOL0     C49578   2.099   7.993   2.364  0.0712  0.6343 -0.0511
  368MOL0     C49579   2.058   7.968   2.232  0.3725 -0.4238 -0.0219
  368MOL0     O49580   2.084   7.850   2.169 -0.1139 -0.5377  0.9328
  368MOL0     C49581   2.094   7.730   2.248  0.3207 -0.6315 -0.3104
  368MOL0     C49582   2.080   7.615   2.152 -0.0972 -0.0681 -0.4518
  368MOL0     C49583   2.195   7.622   2.047 -0.4542  0.3432  0.7136
  368MOL0     C49584   2.334   7.606   2.112 -0.5924  0.1260 -0.5517
  368MOL0     C49585   2.448   7.628   2.007  0.7288  0.3444  0.0517
  368MOL0     C49586   2.455   7.502   1.895 -0.6385  0.0250 -0.3382
  368MOL0     C49587   2.580   7.519   1.812  0.0528 -0.4642 -0.0715
  368MOL0     C49588   2.603   7.385   1.742  0.7581  0.3617 -0.4876
  368MOL0    Cl49589   2.657   7.243   1.834  0.1001 -0.0269  0.1197
  368MOL0     C49590   1.997   8.068   2.159  0.0957  0.3018 -0.7139
  368MOL0     C49591   1.970   8.191   2.215  0.2944  0.0451 -0.3384
  368MOL0     O49592   1.814   8.257   2.516 -1.0133 -0.2628  0.4779
  368MOL0     C49593   1.881   8.611   2.440  0.3868  0.4776  0.4078
  368MOL0     C49594   1.836   8.739   2.489 -1.0339 -0.4844 -0.6732
  368MOL0     N49595   1.653   9.395   2.655  0.4541  0.1806  1.0979
  368MOL0     N49596   1.585   9.499   2.613 -0.8596  0.2067 -0.3098
  368MOL0     C49597   0.658   9.330   1.942  0.2644  0.5048 -0.0898
  368MOL0     C49598   0.518   9.301   1.977 -0.4761  0.3194 -0.6828
  368MOL0     C49599   0.143   9.057   2.127  0.1653  0.5020 -0.7648
  368MOL0     C49600   0.074   9.019   2.251  0.8107  0.1495  0.2417
  368MOL0     C49601  -0.066   9.015   2.251  0.4374  0.0884  1.1348
  368MOL0     C49602  -0.140   9.036   2.138 -0.3811  0.2490  0.2597
  368MOL0     O49603  -0.274   9.037   2.122  0.3555  0.6156 -0.3034
  368MOL0     C49604  -0.360   8.992   2.230  0.3338  0.2140  0.1933
  368MOL0     C49605  -0.487   8.926   2.178 -0.2779 -0.2086  0.0919
  368MOL0     C49606  -0.467   8.813   2.085 -0.8365 -0.8043  0.7100
  368MOL0     C49607  -0.597   8.785   1.997 -0.0314 -0.3106 -0.5543
  368MOL0     C49608  -0.573   8.653   1.941 -0.2245  0.5614 -0.1715
  368MOL0     C49609  -0.547   8.541   1.899  0.4675 -0.8218 -0.0164
  368MOL0     C49610  -0.074   9.070   2.020  0.3661  0.0888 -1.2950
  368MOL0     C49611   0.063   9.083   2.015  0.1670 -0.3491  0.1101
  368MOL0     C49612   0.121   9.106   1.876 -0.0470  0.8630 -0.0607
  368MOL0     H49613   0.558   9.097   2.241  0.2542  1.2368  0.5270
  368MOL0     H49614   0.812   9.165   2.200 -0.0118 -0.2421 -1.4925
  368MOL0     H49615   0.999   9.200   2.137 -0.8716 -0.8644 -0.3334
  368MOL0     H49616   0.957   9.111   1.994  0.1821  0.0514  0.7234
  368MOL0     H49617   1.130   9.241   1.874  0.1968 -0.5146 -0.0580
  368MOL0     H49618   1.187   9.164   2.010 -0.8210 -0.1364  1.6659
  368MOL0     H49619   1.096   9.452   2.000 -2.6425 -0.9983  3.8222
  368MOL0     H49620   1.267   9.398   1.995  0.7914 -1.5085 -0.0155
  368MOL0     H49621   1.076   9.412   2.239  1.7647 -0.6893  3.2376
  368MOL0     H49622   1.213   9.310   2.225 -1.6854 -1.4052 -1.3739
  368MOL0     H49623   1.343   9.534   2.172  0.9039  1.4436  2.7791
  368MOL0     H49624   1.188   9.609   2.144 -1.3229 -1.3945  1.0314
  368MOL0     H49625   1.284   9.674   2.363 -1.0017  0.4944 -2.2295
  368MOL0     H49626   1.122   9.592   2.368 -0.5858  0.2917 -0.5126
  368MOL0     H49627   1.385   9.437   2.407 -0.2280 -0.3958 -2.1010
  368MOL0     H49628   1.224   9.394   2.467  1.5400 -1.5746 -0.4861
  368MOL0     H49629   1.368   9.639   2.571  1.8206 -0.8153  1.3464
  368MOL0     H49630   1.247   9.532   2.650 -0.2328  0.9960  0.8720
  368MOL0     H49631   1.355   9.292   2.749 -1.1505 -2.3620 -2.1526
  368MOL0     H49632   1.726   9.171   2.780 -0.8269 -2.3185 -0.5001
  368MOL0     H49633   1.601   9.201   2.896 -3.5165 -0.1812 -0.8444
  368MOL0     H49634   1.574   8.972   2.832  2.5420  0.2740  0.1593
  368MOL0     H49635   1.437   9.073   2.792  0.4741  2.2309 -0.8885
  368MOL0     H49636   1.492   9.075   2.560 -0.0723 -1.0559  0.1319
  368MOL0     H49637   1.469   8.910   2.620  2.5896 -1.0922  2.4121
  368MOL0     H49638   1.727   9.058   2.580 -0.3259 -0.2018  1.8934
  368MOL0     H49639   1.657   8.948   2.468  1.9718 -0.9653  0.6744
  368MOL0     H49640   1.649   8.638   2.755 -0.7381 -3.5243 -0.1922
  368MOL0     H49641   1.695   8.428   2.663  0.2608  0.3921  0.4438
  368MOL0     H49642   2.096   8.140   2.523  0.4411  0.4924  0.0483
  368MOL0     H49643   2.166   7.927   2.418  0.3097  1.4800  0.7128
  368MOL0     H49644   2.183   7.709   2.308  1.5907 -2.6347 -2.7463
  368MOL0     H49645   2.001   7.732   2.307 -0.7142  2.2807 -1.8190
  368MOL0     H49646   2.087   7.518   2.202  0.1800  0.5286  0.6993
  368MOL0     H49647   1.982   7.610   2.104  0.4834 -1.7153 -1.5365
  368MOL0     H49648   2.177   7.543   1.974  0.9047  1.6013 -1.0851
  368MOL0     H49649   2.197   7.709   1.981  4.1090  0.2556  0.4519
  368MOL0     H49650   2.352   7.510   2.160  0.3109  0.5764  0.0393
  368MOL0     H49651   2.351   7.679   2.192  2.1670 -1.1596  0.1384
  368MOL0     H49652   2.540   7.611   2.064 -0.7091 -2.4638  1.7116
  368MOL0     H49653   2.444   7.725   1.956  3.2628 -0.1883 -1.3709
  368MOL0     H49654   2.443   7.411   1.955 -1.5412 -1.0152 -2.0140
  368MOL0     H49655   2.369   7.516   1.828 -0.7507  3.3730  0.3427
  368MOL0     H49656   2.668   7.549   1.869 -0.8297  0.9784  0.5958
  368MOL0     H49657   2.557   7.597   1.739 -0.3195  1.4009  1.9278
  368MOL0     H49658   2.516   7.356   1.681  0.2682  2.1697 -0.7037
  368MOL0     H49659   2.680   7.407   1.668  2.1457 -1.7944  0.2267
  368MOL0     H49660   1.962   8.032   2.062 -1.1730  1.8237 -0.8577
  368MOL0     H49661   1.920   8.254   2.142 -0.7947 -0.8676 -0.4099
  368MOL0     H49662   1.944   8.592   2.355  0.7770 -1.4592  1.0668
  368MOL0     H49663   1.882   8.823   2.438 -0.0864  0.2793  1.3339
  368MOL0     H49664   0.685   9.409   1.873  2.3525  1.1445  1.3786
  368MOL0     H49665   0.436   9.354   1.930  1.9858  3.0140 -2.2880
  368MOL0     H49666   0.133   8.994   2.339  0.8993  1.4487  0.5669
  368MOL0     H49667  -0.096   9.001   2.354 -0.5411 -3.2645  0.5258
  368MOL0     H49668  -0.381   9.072   2.301 -0.7020 -0.9203  1.2209
  368MOL0     H49669  -0.310   8.926   2.301  0.2394  0.8960  0.9034
  368MOL0     H49670  -0.548   9.007   2.137  0.9870  1.4693  1.3963
  368MOL0     H49671  -0.545   8.891   2.264 -3.0031  3.0605 -0.2382
  368MOL0     H49672  -0.436   8.718   2.130  0.1038 -1.2934 -0.8585
  368MOL0     H49673  -0.380   8.834   2.021  0.3054 -2.6120  1.5847
  368MOL0     H49674  -0.690   8.789   2.054 -2.9065 -1.0268 -4.7477
  368MOL0     H49675  -0.603   8.869   1.927 -2.2572  1.1477  1.2677
  368MOL0     H49676  -0.543   8.455   1.835 -1.3794 -0.4191 -0.7391
  368MOL0     H49677  -0.134   9.070   1.929  1.5444 -3.4722 -2.2407
  368MOL0     H49678   0.054   9.093   1.790  0.9421 -1.6154 -0.5451
  368MOL0     H49679   0.169   9.204   1.864  2.1828  0.0819  1.7279
  368MOL0     H49680   0.200   9.031   1.861 -1.6320 -1.4472  2.2520
  369MOL0     O49681   4.766   0.378   8.667  0.4344  0.3180  0.1707
  369MOL0     C49682   4.661   0.321   8.671  0.4412 -1.1985  0.3948
  369MOL0     O49683   4.609   0.248   8.766 -0.5910  0.0190 -0.2344
  369MOL0     C49684   4.672   0.237   8.886  0.4231 -0.0611  0.1144
  369MOL0     C49685   4.755   0.127   8.918  0.5116 -0.2735 -0.7733
  369MOL0     C49686   4.821   0.126   9.040 -0.1541 -0.2640 -0.1177
  369MOL0     C49687   4.797   0.221   9.143 -0.1603  1.0927 -0.4325
  369MOL0     O49688   4.850   0.199   9.267 -0.2145 -0.5472 -0.2746
  369MOL0     C49689   4.815   0.298   9.361 -0.3527  0.2786 -1.1397
  369MOL0     C49690   4.873   0.253   9.496  0.1936 -0.1092  0.2146
  369MOL0     C49691   4.842   0.356   9.606  1.0424  0.6438 -1.0373
  369MOL0     C49692   4.915   0.488   9.573 -0.3157 -0.2734  0.0599
  369MOL0     C49693   4.902   0.592   9.683  0.4706 -0.1378  0.7227
  369MOL0     C49694   4.764   0.594   9.748  0.3232 -0.4008 -1.0761
  369MOL0     C49695   4.748   0.699   9.852 -1.0607  0.4249  0.2183
  369MOL0     C49696   4.860   0.679   9.961 -0.0311 -0.4213 -0.8731
  369MOL0     N49697   4.836   0.757  10.078  1.1414 -0.5286  0.5808
  369MOL0     C49698   4.836   0.892  10.093  0.2044  0.7055  0.0444
  369MOL0     C49699   4.814   0.904  10.231  0.0204 -0.3379 -0.1808
  369MOL0     C49700   4.751   1.031  10.297 -0.9246  0.4651  0.6740
  369MOL0     C49701   4.639   1.084  10.218  0.3471 -0.0265 -0.0478
  369MOL0     C49702   4.512   0.988  10.199  0.3917  0.2800  0.3324
  369MOL0     C49703   4.415   1.024  10.084 -0.6933  0.0059 -0.4370
  369MOL0     O49704   4.371   1.160  10.100  0.0732 -0.8314 -0.2568
  369MOL0     C49705   4.286   1.233  10.020  0.6968  0.2094 -0.8148
  369MOL0     C49706   4.258   1.371  10.046 -0.1074 -0.0466  0.3814
  369MOL0     C49707   4.170   1.442   9.965  0.0072 -0.5596  0.5560
  369MOL0     C49708   4.105   1.379   9.852 -0.4775 -0.8617 -1.1019
  369MOL0     C49709   3.999   1.451   9.774  0.2588  0.6827 -0.1904
  369MOL0     O49710   3.932   1.552   9.834 -0.1524 -0.2948  0.0586
  369MOL0     C49711   3.867   1.637   9.750  1.2080  0.0661 -0.6991
  369MOL0     C49712   3.740   1.623   9.714  0.6724 -0.7659  0.5686
  369MOL0     C49713   3.668   1.728   9.648  0.3486  0.1664 -0.0486
  369MOL0     C49714   3.734   1.849   9.616  0.0122 -0.2102 -0.3994
  369MOL0     O49715   3.680   1.945   9.538 -0.1944 -0.2542 -0.0481
  369MOL0     C49716   3.537   1.955   9.532  0.7614 -0.4121 -0.9229
  369MOL0     C49717   3.498   2.089   9.460  0.3628  0.0408  0.6527
  369MOL0     C49718   3.344   2.103   9.458  0.8364  0.1518  0.1906
  369MOL0     C49719   3.285   2.200   9.349 -0.7913  0.0941 -0.2851
  369MOL0     C49720   3.142   2.227   9.377 -0.2611 -0.6951  0.5805
  369MOL0     C49721   3.080   2.318   9.279 -0.8220 -0.1487 -1.0141
  369MOL0     C49722   3.008   2.232   9.173 -0.0397  0.0093  0.3807
  369MOL0     C49723   2.981   2.307   9.040 -0.8389 -0.0422  0.5560
  369MOL0    Cl49724   3.137   2.345   8.958  0.4844  0.5303  0.1755
  369MOL0     C49725   3.864   1.866   9.667  0.5487  0.4042 -0.7939
  369MOL0     C49726   3.924   1.763   9.746 -0.2158 -0.3139 -0.8394
  369MOL0     O49727   3.991   1.416   9.657 -0.2054 -0.3452  0.6679
  369MOL0     C49728   4.138   1.249   9.827 -0.8666 -0.8864 -0.8620
  369MOL0     C49729   4.217   1.175   9.920 -0.2067  0.5426  0.9993
  369MOL0     N49730   4.796   0.776  10.288 -0.0330  0.2423 -0.2371
  369MOL0     N49731   4.815   0.693  10.196 -0.4285 -0.4550 -0.4065
  369MOL0     C49732   4.713   0.333   9.102  0.2261 -0.1481 -0.9692
  369MOL0     C49733   4.651   0.335   8.979  0.1178 -0.6999  0.8653
  369MOL0     C49734   4.564   0.333   8.550 -0.2806  0.1153 -0.2730
  369MOL0     C49735   4.427   0.314   8.569  0.2907 -0.0130  0.6967
  369MOL0     C49736   4.341   0.313   8.461 -0.4854  0.5448  0.7269
  369MOL0     C49737   4.386   0.340   8.334  0.3126 -0.2639 -0.9954
  369MOL0     O49738   4.290   0.334   8.234  0.5972  0.0485 -0.2546
  369MOL0     C49739   4.330   0.339   8.095  0.6201 -0.3132 -0.7447
  369MOL0     C49740   4.207   0.300   8.017 -0.4267 -0.4083  0.6993
  369MOL0     C49741   4.227   0.227   7.883 -0.0720 -0.9611  0.5745
  369MOL0     C49742   4.098   0.181   7.818  0.6741  0.0744  0.8334
  369MOL0     C49743   4.116   0.182   7.669  0.3110  0.3172 -0.6128
  369MOL0     C49744   4.131   0.172   7.551 -0.5154  0.6931  0.5739
  369MOL0     C49745   4.528   0.368   8.317  0.7202  0.3709 -0.4270
  369MOL0     C49746   4.617   0.362   8.420  0.2851 -1.1438 -0.1925
  369MOL0     C49747   4.762   0.386   8.391  0.0319 -0.9675  0.4019
  369MOL0     H49748   4.765   0.040   8.853 -2.5924 -2.6917  1.6424
  369MOL0     H49749   4.891   0.046   9.063  0.0550 -0.5178 -1.5582
  369MOL0     H49750   4.852   0.395   9.325  2.6009 -1.0597 -2.0562
  369MOL0     H49751   4.708   0.318   9.357 -0.5413 -0.6177 -0.7639
  369MOL0     H49752   4.980   0.231   9.490 -0.2928 -2.4527 -1.2930
  369MOL0     H49753   4.830   0.154   9.516 -0.0059 -0.2210 -0.7131
  369MOL0     H49754   4.871   0.316   9.703 -0.0904 -2.8815 -1.9921
  369MOL0     H49755   4.735   0.375   9.606  0.5862 -1.3021  2.0173
  369MOL0     H49756   5.021   0.469   9.556 -0.3175 -1.7011  1.4830
  369MOL0     H49757   4.871   0.546   9.491  0.1495  0.8117  0.5649
  369MOL0     H49758   4.975   0.566   9.759 -0.5396 -0.7634  1.5045
  369MOL0     H49759   4.941   0.686   9.643  0.6368  0.9880  3.3764
  369MOL0     H49760   4.686   0.617   9.674  0.2236 -1.9046 -1.4568
  369MOL0     H49761   4.724   0.511   9.806 -2.6959  1.2326 -0.5971
  369MOL0     H49762   4.647   0.688   9.891 -0.8519  0.4949  0.7881
  369MOL0     H49763   4.767   0.798   9.810 -1.5978 -0.0362 -1.1751
  369MOL0     H49764   4.873   0.573   9.985  1.8727 -0.3553 -1.4429
  369MOL0     H49765   4.955   0.727   9.933  0.1781  1.4601  2.5686
  369MOL0     H49766   4.850   0.966  10.015  2.2491  2.9671  2.3971
  369MOL0     H49767   4.726   1.007  10.400 -2.5767 -1.5716 -0.1293
  369MOL0     H49768   4.839   1.096  10.301 -0.6469  0.0460  1.4264
  369MOL0     H49769   4.591   1.164  10.277  0.6970  1.2855 -1.4658
  369MOL0     H49770   4.670   1.116  10.118  1.7527  0.5478  0.5459
  369MOL0     H49771   4.444   0.990  10.284  1.7863  0.5206  1.4774
  369MOL0     H49772   4.536   0.884  10.173 -1.1205 -0.4014  1.4975
  369MOL0     H49773   4.334   0.950  10.092 -0.1945 -0.3474  2.6204
  369MOL0     H49774   4.475   0.999   9.996  0.2890 -0.3293  0.3082
  369MOL0     H49775   4.309   1.431  10.121 -1.5911 -0.4171  1.7406
  369MOL0     H49776   4.146   1.543   9.995  1.5668 -0.1705  0.5784
  369MOL0     H49777   3.680   1.536   9.738 -0.8048  0.7400  2.7115
  369MOL0     H49778   3.568   1.700   9.616 -0.3381  0.6453  1.5823
  369MOL0     H49779   3.512   1.869   9.469  0.8429  0.5031 -2.2246
  369MOL0     H49780   3.481   1.938   9.625  2.0285  0.9667  0.1352
  369MOL0     H49781   3.547   2.172   9.512 -1.5873  1.3448  0.5070
  369MOL0     H49782   3.540   2.089   9.359 -1.0757 -2.4643 -0.0069
  369MOL0     H49783   3.290   2.011   9.437  0.6784  0.3411 -0.2444
  369MOL0     H49784   3.320   2.139   9.559 -1.0696 -1.5787  0.4072
  369MOL0     H49785   3.294   2.170   9.244  3.3574 -1.4451  0.3429
  369MOL0     H49786   3.333   2.298   9.353 -3.8497  1.7082  0.3212
  369MOL0     H49787   3.136   2.280   9.472  0.9576 -1.0150  0.8542
  369MOL0     H49788   3.080   2.137   9.384 -0.8281 -0.1820  2.8248
  369MOL0     H49789   3.012   2.385   9.332  0.9008  0.9688 -0.0980
  369MOL0     H49790   3.162   2.376   9.235 -1.2328  1.9842  0.8635
  369MOL0     H49791   2.906   2.203   9.200  0.0241 -1.7320 -1.1088
  369MOL0     H49792   3.060   2.140   9.146  2.8820  1.7708 -0.3860
  369MOL0     H49793   2.922   2.239   8.977  1.2448 -1.3712 -0.0503
  369MOL0     H49794   2.930   2.402   9.062 -1.7853 -0.3938 -0.0396
  369MOL0     H49795   3.907   1.965   9.668 -3.2456  2.2263 -0.9424
  369MOL0     H49796   4.016   1.784   9.799 -1.3075  0.5911  0.8192
  369MOL0     H49797   4.089   1.189   9.752  0.0252 -3.1401  0.2522
  369MOL0     H49798   4.234   1.071   9.892 -0.7441  0.6619  0.2129
  369MOL0     H49799   4.707   0.417   9.170  0.4918 -0.5198 -0.4725
  369MOL0     H49800   4.601   0.426   8.949  3.0598  1.3964  1.8697
  369MOL0     H49801   4.389   0.301   8.670 -2.6012 -1.0048 -0.4296
  369MOL0     H49802   4.237   0.290   8.481 -0.2028 -3.7495 -1.6328
  369MOL0     H49803   4.410   0.266   8.082  2.4839  1.4599  0.2043
  369MOL0     H49804   4.356   0.442   8.069  0.0141 -0.0338 -0.2751
  369MOL0     H49805   4.150   0.391   7.994  0.0522 -0.3543 -0.3170
  369MOL0     H49806   4.146   0.235   8.081  1.1836 -1.8409  0.8461
  369MOL0     H49807   4.298   0.145   7.898  0.1218 -0.6380  1.4987
  369MOL0     H49808   4.278   0.298   7.816 -0.6484  0.1805  1.3145
  369MOL0     H49809   4.073   0.081   7.855  1.3343 -0.6684 -0.6484
  369MOL0     H49810   4.020   0.254   7.839 -0.4593 -1.0069  0.5054
  369MOL0     H49811   4.136   0.176   7.444  1.2114  0.8930  0.6326
  369MOL0     H49812   4.562   0.390   8.216 -1.2712  1.5597 -0.9155
  369MOL0     H49813   4.773   0.495   8.400 -2.3346 -0.5077 -1.3558
  369MOL0     H49814   4.834   0.336   8.456  1.1569  0.1954  0.1052
  369MOL0     H49815   4.783   0.332   8.298  3.3504  0.2672  0.3079
  370MOL0     O49816   9.356   7.103   5.404  0.2077 -1.1253 -0.4487
  370MOL0     C49817   9.479   7.085   5.382  0.5256 -0.0763  0.3516
  370MOL0     O49818   9.583   7.129   5.454  0.2716 -0.1895 -0.5299
  370MOL0     C49819   9.566   7.209   5.566  0.7949  0.3579  0.0121
  370MOL0     C49820   9.461   7.312   5.591  0.2223  0.2145  0.5791
  370MOL0     C49821   9.456   7.384   5.714  0.7536  0.4629  1.1892
  370MOL0     C49822   9.553   7.355   5.811 -0.3576  0.1186  0.4334
  370MOL0     O49823   9.550   7.424   5.934  1.1572  0.1858 -0.0944
  370MOL0     C49824   9.670   7.432   6.017 -0.1205  0.1983 -0.7365
  370MOL0     C49825   9.783   7.519   5.972  0.7439 -0.2614  0.8494
  370MOL0     C49826   9.741   7.660   6.003  0.0176 -1.5782  0.2417
  370MOL0     C49827   9.692   7.733   5.886  0.3435 -0.2684 -0.2230
  370MOL0     C49828   9.634   7.862   5.920  0.2190 -0.8586  0.7213
  370MOL0     C49829   9.725   7.965   5.985  0.1315  0.1367 -0.7414
  370MOL0     C49830   9.861   7.991   5.908 -0.6712 -0.9481  0.4806
  370MOL0     C49831   9.913   8.113   5.974 -0.4910  0.1794 -0.3428
  370MOL0     N49832  10.056   8.137   5.958 -1.0702 -0.2717  0.0634
  370MOL0     C49833  10.151   8.140   6.055 -0.9223  0.0125 -0.6867
  370MOL0     C49834  10.269   8.178   5.997  0.1407 -0.4327  0.3126
  370MOL0     C49835  10.408   8.186   6.046 -0.5875 -1.0198  0.1032
  370MOL0     C49836  10.462   8.057   6.102 -0.1941  0.2710 -0.3020
  370MOL0     C49837  10.465   7.949   5.987 -0.7812  0.3722 -0.3168
  370MOL0     C49838  10.610   7.888   5.983 -0.3180 -0.6387 -0.4699
  370MOL0     O49839  10.694   7.997   5.930  0.3267 -0.0983 -0.1384
  370MOL0     C49840  10.824   7.966   5.894 -0.1720  1.1298  0.4780
  370MOL0     C49841  10.891   7.853   5.930  0.3645  0.3736 -0.8014
  370MOL0     C49842  11.026   7.848   5.931 -0.0224  0.8565  0.3311
  370MOL0     C49843  11.110   7.950   5.884  0.3992 -0.2261 -0.0314
  370MOL0     C49844  11.260   7.946   5.889 -0.5494 -0.8860 -0.1175
  370MOL0     O49845  11.331   8.068   5.875 -0.0305 -0.0692 -0.7099
  370MOL0     C49846  11.469   8.086   5.886  0.3859  0.1376 -0.0275
  370MOL0     C49847  11.543   8.159   5.796  0.1118  0.7434  0.2684
  370MOL0     C49848  11.689   8.149   5.807  0.8226 -0.3725  0.1376
  370MOL0     C49849  11.752   8.081   5.909 -0.6521 -0.0539  0.2600
  370MOL0     O49850  11.889   8.099   5.920 -0.2652  1.1160  0.0731
  370MOL0     C49851  11.971   7.998   5.978  0.6449  0.6119 -0.2610
  370MOL0     C49852  12.057   8.052   6.094  0.0296  0.2345  0.1727
  370MOL0     C49853  12.155   8.169   6.042 -0.7272  1.1270 -0.4107
  370MOL0     C49854  12.287   8.158   6.120  0.5493  0.1561 -0.0414
  370MOL0     C49855  12.400   8.252   6.074  0.8833  0.4217  0.6462
  370MOL0     C49856  12.525   8.238   6.166  0.7912  0.0920  0.4987
  370MOL0     C49857  12.651   8.281   6.099  0.0571 -0.0166 -0.0498
  370MOL0     C49858  12.746   8.295   6.223 -1.5090 -0.1572  1.2423
  370MOL0    Cl49859  12.911   8.319   6.165  0.3420  0.3777 -0.4509
  370MOL0     C49860  11.673   8.012   5.998 -0.2340 -0.7253 -0.5628
  370MOL0     C49861  11.533   8.019   5.993 -0.7781 -1.3052  0.3165
  370MOL0     O49862  11.318   7.838   5.901 -0.3519  1.1879  0.0519
  370MOL0     C49863  11.046   8.066   5.833  0.1365  0.3875 -0.1999
  370MOL0     C49864  10.903   8.065   5.824  0.5062 -0.9374 -1.2905
  370MOL0     N49865  10.244   8.197   5.859  0.0447  0.7583 -0.3407
  370MOL0     N49866  10.115   8.185   5.845  0.2910  0.3974  0.6513
  370MOL0     C49867   9.654   7.260   5.786 -0.3401  0.2020  0.3322
  370MOL0     C49868   9.655   7.185   5.668  0.5198 -0.5250  0.2716
  370MOL0     C49869   9.529   6.987   5.288 -0.6260 -0.5262  0.0089
  370MOL0     C49870   9.643   6.913   5.324 -0.1055 -0.2893  0.2182
  370MOL0     C49871   9.688   6.810   5.243 -0.3929  0.4866  0.8476
  370MOL0     C49872   9.620   6.775   5.122 -0.6532 -0.6876 -0.3513
  370MOL0     O49873   9.650   6.676   5.045 -0.6918 -0.0435  0.4116
  370MOL0     C49874   9.790   6.656   5.009  0.4458  0.3124 -0.1544
  370MOL0     C49875   9.837   6.736   4.889 -0.5206 -0.3059  1.0426
  370MOL0     C49876   9.807   6.666   4.752  0.2645  0.0179 -0.2162
  370MOL0     C49877   9.831   6.761   4.627 -0.3157 -0.2983  0.0524
  370MOL0     C49878   9.724   6.862   4.627  0.4741 -0.2188 -0.6335
  370MOL0     C49879   9.665   6.969   4.637  0.0275  0.1995 -0.1254
  370MOL0     C49880   9.506   6.846   5.093 -0.2516 -0.3006  1.4559
  370MOL0     C49881   9.463   6.957   5.171 -0.1291  0.1495 -0.0913
  370MOL0     C49882   9.336   7.032   5.126  0.8439 -0.1333  0.3128
  370MOL0     H49883   9.382   7.339   5.521 -1.5495 -1.7075  1.7205
  370MOL0     H49884   9.390   7.470   5.726 -0.0645  0.2201 -1.1403
  370MOL0     H49885   9.626   7.468   6.111  1.0246  0.7947 -0.4120
  370MOL0     H49886   9.716   7.338   6.051  0.6703  1.2122  1.1329
  370MOL0     H49887   9.789   7.503   5.864 -7.3284 -1.4018  0.0065
  370MOL0     H49888   9.882   7.497   6.015 -0.3080 -0.9541  3.0668
  370MOL0     H49889   9.826   7.719   6.039 -1.0621 -0.0284  0.3708
  370MOL0     H49890   9.659   7.673   6.076 -1.2888 -4.1177 -0.6724
  370MOL0     H49891   9.770   7.744   5.810  1.0495  0.2632  0.5777
  370MOL0     H49892   9.613   7.677   5.834 -0.8353  0.8230  0.3411
  370MOL0     H49893   9.611   7.910   5.824  0.0388  1.1153  1.7038
  370MOL0     H49894   9.544   7.855   5.982 -1.6323  0.0916 -1.7106
  370MOL0     H49895   9.666   8.056   5.998 -1.9974 -1.1018 -1.3379
  370MOL0     H49896   9.748   7.923   6.083  0.4139  0.7539 -0.5401
  370MOL0     H49897   9.838   8.006   5.802  1.4071  2.2774  0.3360
  370MOL0     H49898   9.932   7.912   5.929  0.0298  0.0494  2.1414
  370MOL0     H49899   9.855   8.196   5.933  0.0729  0.4026 -0.7070
  370MOL0     H49900   9.915   8.104   6.083  0.7980 -1.9058 -0.4841
  370MOL0     H49901  10.144   8.118   6.162  1.9094  3.9482  0.5149
  370MOL0     H49902  10.473   8.224   5.966 -0.3482  1.9415  1.5727
  370MOL0     H49903  10.395   8.264   6.122 -0.9648 -1.6029  0.6473
  370MOL0     H49904  10.562   8.081   6.138 -0.3690  0.0110  0.3670
  370MOL0     H49905  10.399   8.021   6.184  0.2474  2.1582  0.9045
  370MOL0     H49906  10.432   8.002   5.898 -0.4828  2.6815  0.8716
  370MOL0     H49907  10.405   7.861   6.010  2.5157 -1.7752  0.7296
  370MOL0     H49908  10.614   7.798   5.921  1.0171 -0.5654 -0.5206
  370MOL0     H49909  10.652   7.857   6.079  0.1985  2.1683  0.3228
  370MOL0     H49910  10.851   7.760   5.968  0.7702 -1.2711 -4.0681
  370MOL0     H49911  11.066   7.755   5.972  1.7134 -0.5350 -3.9193
  370MOL0     H49912  11.491   8.196   5.708  0.0998 -0.1893 -0.1371
  370MOL0     H49913  11.740   8.204   5.729 -2.7896  2.3358 -0.5590
  370MOL0     H49914  11.911   7.914   6.014  1.3553  0.0603 -0.3371
  370MOL0     H49915  12.044   7.950   5.912  2.8628 -0.1266  2.5122
  370MOL0     H49916  11.982   8.090   6.165 -0.6448 -0.6844 -0.0378
  370MOL0     H49917  12.114   7.979   6.152 -0.4255  0.0247  0.3590
  370MOL0     H49918  12.172   8.159   5.935 -3.3461 -3.0326 -0.6476
  370MOL0     H49919  12.121   8.270   6.066  1.9414  2.2545 -0.9850
  370MOL0     H49920  12.319   8.053   6.119 -1.1240 -0.3909 -0.1139
  370MOL0     H49921  12.262   8.174   6.225  0.1636 -0.9871  0.0566
  370MOL0     H49922  12.371   8.358   6.072  1.6804  0.6462  0.4878
  370MOL0     H49923  12.435   8.222   5.975  1.2562  0.3840  0.7872
  370MOL0     H49924  12.510   8.299   6.255  1.3630  0.4742  0.3393
  370MOL0     H49925  12.533   8.132   6.189  0.3617  0.2948  1.6212
  370MOL0     H49926  12.635   8.376   6.048 -0.4188 -1.9780 -3.9382
  370MOL0     H49927  12.674   8.218   6.013 -1.0842  0.2292 -0.5524
  370MOL0     H49928  12.715   8.380   6.284 -0.8675  0.1546  1.1359
  370MOL0     H49929  12.749   8.207   6.287 -5.9000 -0.6345  1.0958
  370MOL0     H49930  11.722   7.955   6.077 -1.0666 -1.2273 -0.3868
  370MOL0     H49931  11.474   7.954   6.057 -2.3216 -2.6548 -2.2794
  370MOL0     H49932  11.103   8.146   5.785 -3.7615  2.5808 -1.6536
  370MOL0     H49933  10.843   8.147   5.787 -1.9225 -1.1838  1.6450
  370MOL0     H49934   9.727   7.219   5.855 -0.0360 -1.1040 -0.7072
  370MOL0     H49935   9.729   7.112   5.638  0.9536 -0.2341  0.6060
  370MOL0     H49936   9.690   6.937   5.419 -1.2636  0.1270  0.7060
  370MOL0     H49937   9.771   6.748   5.276  0.3628  0.1470 -1.5393
  370MOL0     H49938   9.802   6.548   5.002 -2.6486 -0.3620  2.6082
  370MOL0     H49939   9.864   6.681   5.086  1.3024 -2.1515 -0.1062
  370MOL0     H49940   9.945   6.752   4.895 -0.4003 -0.4004 -0.4141
  370MOL0     H49941   9.794   6.837   4.893 -2.0851 -0.9710  1.7661
  370MOL0     H49942   9.706   6.624   4.744 -1.7054  3.4698  3.1517
  370MOL0     H49943   9.878   6.583   4.753  0.0965 -0.1337 -0.5691
  370MOL0     H49944   9.930   6.807   4.630  0.1560 -1.1828 -1.1062
  370MOL0     H49945   9.848   6.704   4.535  2.0656 -0.5689  0.5803
  370MOL0     H49946   9.599   7.051   4.657 -1.3023 -0.7735 -0.3353
  370MOL0     H49947   9.458   6.833   4.997  1.4941  0.1136  0.4827
  370MOL0     H49948   9.370   7.132   5.101 -3.1724  1.7828  1.6298
  370MOL0     H49949   9.285   6.984   5.042  3.5563 -4.6932  0.9256
  370MOL0     H49950   9.263   7.052   5.205  1.3734 -3.4411  1.8009
  371MOL0     O49951   3.754   7.595   9.109 -0.7687 -0.3958 -0.2935
  371MOL0     C49952   3.802   7.507   9.182 -0.5670 -1.1549 -0.0590
  371MOL0     O49953   3.764   7.374   9.200  0.4753 -0.9296  0.2217
  371MOL0     C49954   3.650   7.333   9.145  0.2249 -0.3985 -0.3403
  371MOL0     C49955   3.574   7.259   9.229  0.4836 -0.2319  0.2025
  371MOL0     C49956   3.464   7.190   9.186 -0.1755 -0.2264 -0.0452
  371MOL0     C49957   3.438   7.191   9.046  0.4170  0.3365 -0.1702
  371MOL0     O49958   3.343   7.122   8.970 -0.2769  0.5715  0.0253
  371MOL0     C49959   3.308   6.988   9.012 -0.1078 -0.3037 -0.6872
  371MOL0     C49960   3.168   6.977   9.076 -0.1619  0.7837  0.5914
  371MOL0     C49961   3.055   6.957   8.971  0.2760 -0.0565 -0.2983
  371MOL0     C49962   3.082   6.992   8.825 -0.6747  0.3616  0.3546
  371MOL0     C49963   2.949   6.972   8.746  0.0238 -1.2116 -0.5564
  371MOL0     C49964   2.861   7.110   8.747 -0.0194  0.5159  0.2533
  371MOL0     C49965   2.728   7.093   8.681 -0.9660  0.4471  0.2191
  371MOL0     C49966   2.641   6.977   8.726 -0.6719 -0.2402 -1.2906
  371MOL0     N49967   2.600   6.997   8.864  0.1152 -0.6145  0.0296
  371MOL0     C49968   2.628   6.907   8.971  0.1680  0.8780  0.7491
  371MOL0     C49969   2.541   6.965   9.065  0.1780 -0.1639  0.9888
  371MOL0     C49970   2.528   6.942   9.219  0.0612  0.0093 -1.3474
  371MOL0     C49971   2.635   7.008   9.305 -0.1575  0.6110  1.2238
  371MOL0     C49972   2.768   6.925   9.298 -0.6665  0.2197 -0.8205
  371MOL0     C49973   2.869   6.985   9.388 -0.5309 -0.1343 -0.0021
  371MOL0     O49974   2.935   7.105   9.337  0.4931  0.0767 -0.6960
  371MOL0     C49975   3.032   7.165   9.412 -0.8080  0.1310  0.9895
  371MOL0     C49976   3.083   7.282   9.359  0.2922  0.1155 -0.4490
  371MOL0     C49977   3.175   7.363   9.428 -0.2554  0.3131 -0.6076
  371MOL0     C49978   3.234   7.326   9.552 -0.0489  0.0943  1.1435
  371MOL0     C49979   3.337   7.406   9.617 -0.2599 -0.2592  0.6928
  371MOL0     O49980   3.363   7.525   9.560 -0.3964 -0.0179  0.3700
  371MOL0     C49981   3.482   7.592   9.581 -0.5634  0.5331  0.1285
  371MOL0     C49982   3.612   7.529   9.593 -0.3604 -0.6259  1.0775
  371MOL0     C49983   3.724   7.606   9.609 -0.4136  0.3340  0.4190
  371MOL0     C49984   3.724   7.748   9.605  0.2255  0.2433 -0.3903
  371MOL0     O49985   3.841   7.827   9.612  0.6466  0.0361  0.7864
  371MOL0     C49986   3.959   7.783   9.666 -0.2906  0.4705  0.2591
  371MOL0     C49987   4.059   7.880   9.712 -0.6671  0.2949 -0.2870
  371MOL0     C49988   4.158   7.926   9.611 -0.4458 -0.5257 -0.6319
  371MOL0     C49989   4.260   8.034   9.669  0.5537  0.0752 -0.3788
  371MOL0     C49990   4.373   7.985   9.764  0.6352  0.1713 -0.6421
  371MOL0     C49991   4.429   8.097   9.844 -0.7883 -0.5898  0.4265
  371MOL0     C49992   4.541   8.053   9.918 -0.0158 -0.8237 -0.1601
  371MOL0     C49993   4.594   8.158  10.012 -0.3309 -1.1024 -0.2397
  371MOL0    Cl49994   4.490   8.168  10.156  0.2455  0.5578 -0.2200
  371MOL0     C49995   3.599   7.810   9.585 -0.7694 -0.1964  0.2964
  371MOL0     C49996   3.484   7.733   9.580 -0.2486 -0.2258  0.0230
  371MOL0     O49997   3.398   7.364   9.714  0.7815 -0.2494 -0.1965
  371MOL0     C49998   3.186   7.202   9.603  0.5433  0.1756 -0.2360
  371MOL0     C49999   3.084   7.124   9.536 -1.2361  0.2888 -1.3564
  371MOL0     N50000   2.480   7.078   9.012 -0.0572 -0.7274 -0.7960
  371MOL0     N50001   2.512   7.095   8.891  0.2736  0.4410 -0.6481
  371MOL0     C50002   3.508   7.279   8.966 -0.3189  0.9915  0.8144
  371MOL0     C50003   3.621   7.346   9.007 -0.3022  0.9101 -0.8692
  371MOL0     C50004   3.934   7.542   9.247  0.3269  1.2543 -0.0413
  371MOL0     C50005   4.007   7.440   9.313 -0.1543  0.3252  0.4828
  371MOL0     C50006   4.131   7.459   9.375 -0.3636 -0.5484 -0.1785
  371MOL0     C50007   4.176   7.589   9.399 -0.9008  0.0561 -0.2144
  371MOL0     O50008   4.295   7.604   9.473  0.0571  0.6701  1.0669
  371MOL0     C50009   4.309   7.530   9.599  0.1822 -0.1885  0.5455
  371MOL0     C50010   4.456   7.501   9.638 -0.1418 -0.2225 -0.2778
  371MOL0     C50011   4.494   7.477   9.779  0.1315 -0.8872 -0.0501
  371MOL0     C50012   4.500   7.610   9.860 -0.5304 -0.0731  0.9645
  371MOL0     C50013   4.549   7.606  10.001  0.1017 -0.2671  0.5598
  371MOL0     C50014   4.601   7.606  10.112 -0.0816 -0.3189 -0.3299
  371MOL0     C50015   4.107   7.700   9.351 -0.0841 -0.0571 -0.1259
  371MOL0     C50016   3.978   7.675   9.275 -0.2320  0.2080 -0.0373
  371MOL0     C50017   3.902   7.805   9.256 -0.3872  0.4595  0.4784
  371MOL0     H50018   3.600   7.244   9.333 -4.2522  1.6000  1.9578
  371MOL0     H50019   3.393   7.136   9.249 -1.8137  1.3272 -0.4557
  371MOL0     H50020   3.325   6.920   8.927 -1.8057 -2.4975  0.6120
  371MOL0     H50021   3.382   6.950   9.083 -0.4238 -0.5624 -0.4933
  371MOL0     H50022   3.147   7.066   9.135 -4.4047  0.5067 -0.1955
  371MOL0     H50023   3.164   6.895   9.149 -0.7688  2.9808  3.1436
  371MOL0     H50024   2.984   7.030   9.009  0.7108  0.1992  0.0226
  371MOL0     H50025   3.010   6.858   8.983  1.2270 -0.1166  4.5556
  371MOL0     H50026   3.123   7.093   8.810  0.9343 -0.3203 -0.0298
  371MOL0     H50027   3.161   6.924   8.793 -1.8508 -0.9750  0.2318
  371MOL0     H50028   2.966   6.943   8.642 -1.1391  0.9772 -1.4174
  371MOL0     H50029   2.886   6.898   8.796  1.4386 -1.4464  0.9657
  371MOL0     H50030   2.846   7.146   8.849  4.5689  1.9069  0.6570
  371MOL0     H50031   2.906   7.193   8.692 -2.0189  1.1878 -0.4938
  371MOL0     H50032   2.736   7.062   8.576  0.8889 -1.1155  0.7499
  371MOL0     H50033   2.668   7.182   8.703 -0.2285  0.4738  2.3770
  371MOL0     H50034   2.550   6.964   8.666 -0.8599  1.5927 -1.4572
  371MOL0     H50035   2.694   6.883   8.707  3.1760  0.6482  3.2297
  371MOL0     H50036   2.703   6.829   8.979  0.2133  0.4015 -2.8039
  371MOL0     H50037   2.427   6.976   9.240 -0.9947 -2.4052 -2.1629
  371MOL0     H50038   2.537   6.834   9.236 -0.0283  0.1913 -0.1088
  371MOL0     H50039   2.652   7.107   9.262  0.3644 -0.6730 -1.7326
  371MOL0     H50040   2.595   7.025   9.406  1.2671  0.0292  1.9093
  371MOL0     H50041   2.809   6.912   9.197  0.7055  1.3809 -0.4444
  371MOL0     H50042   2.748   6.826   9.338  1.6683  0.5288  1.3950
  371MOL0     H50043   2.951   6.914   9.401  1.2773  2.0593  1.4367
  371MOL0     H50044   2.819   6.993   9.485 -3.2381 -0.8936 -1.2388
  371MOL0     H50045   3.039   7.302   9.262 -1.5381  0.3459  0.3905
  371MOL0     H50046   3.213   7.456   9.386  1.3781  0.1056  0.3084
  371MOL0     H50047   3.617   7.421   9.584 -0.3060 -0.5608  0.2484
  371MOL0     H50048   3.824   7.566   9.624 -0.4899  1.0630  3.5895
  371MOL0     H50049   3.939   7.714   9.749  0.1574 -0.7434 -0.6015
  371MOL0     H50050   4.019   7.723   9.597  0.4890  2.9623 -1.3714
  371MOL0     H50051   4.016   7.966   9.763  0.8511  2.4502 -2.4586
  371MOL0     H50052   4.117   7.827   9.789 -0.0103 -0.8296 -1.5155
  371MOL0     H50053   4.225   7.841   9.593 -1.1608 -1.3350  0.4082
  371MOL0     H50054   4.103   7.964   9.524 -1.4603 -0.9530 -0.2006
  371MOL0     H50055   4.196   8.106   9.722 -4.3645 -3.4026 -0.9154
  371MOL0     H50056   4.304   8.090   9.586  0.8691  1.0230  0.4202
  371MOL0     H50057   4.450   7.940   9.701 -0.3832 -1.2130 -0.9625
  371MOL0     H50058   4.340   7.903   9.829  0.0184 -0.2879 -1.5063
  371MOL0     H50059   4.460   8.180   9.779  0.9159 -0.9184  0.7771
  371MOL0     H50060   4.351   8.141   9.908  0.0782  1.4869  0.1337
  371MOL0     H50061   4.620   8.037   9.844  2.8772  0.3813  2.4702
  371MOL0     H50062   4.524   7.967   9.983  2.5981  0.4892  2.5088
  371MOL0     H50063   4.694   8.128  10.045  0.7315 -0.6874 -2.7852
  371MOL0     H50064   4.593   8.257   9.964 -0.8120 -0.5322  0.9250
  371MOL0     H50065   3.593   7.917   9.569 -1.5240 -0.1675  0.7271
  371MOL0     H50066   3.388   7.782   9.564  0.8294  1.9450 -0.1489
  371MOL0     H50067   3.210   7.159   9.700 -0.1072 -2.8916 -1.3397
  371MOL0     H50068   3.036   7.046   9.594  3.2274  0.3551  3.0493
  371MOL0     H50069   3.469   7.293   8.865 -2.3630  1.4237  1.6231
  371MOL0     H50070   3.673   7.415   8.942  1.1805 -0.5989 -1.3542
  371MOL0     H50071   3.983   7.335   9.302  0.9547  0.2433 -1.5787
  371MOL0     H50072   4.188   7.369   9.399 -0.0164 -0.0713  0.8289
  371MOL0     H50073   4.257   7.436   9.581 -0.8911  0.5888 -0.6127
  371MOL0     H50074   4.255   7.577   9.682 -1.5657 -1.2688  0.0678
  371MOL0     H50075   4.513   7.582   9.593 -3.5940  1.9611 -1.1009
  371MOL0     H50076   4.495   7.410   9.590  0.9614 -0.3229  0.7713
  371MOL0     H50077   4.592   7.428   9.779  0.6925  0.1909 -0.5965
  371MOL0     H50078   4.425   7.408   9.828  0.0439 -0.2964  0.6709
  371MOL0     H50079   4.547   7.697   9.812 -1.1646  0.4717  1.3341
  371MOL0     H50080   4.401   7.645   9.891 -0.4109  0.2746  0.9584
  371MOL0     H50081   4.649   7.599  10.207 -1.3110  0.6973  0.3963
  371MOL0     H50082   4.131   7.804   9.369 -2.8804  0.7040 -0.3086
  371MOL0     H50083   3.958   7.898   9.273 -1.8146  1.4131  0.0725
  371MOL0     H50084   3.864   7.810   9.154 -3.8080 -0.0421  1.6107
  371MOL0     H50085   3.809   7.809   9.314 -1.9920  0.0749 -1.9475
  372MOL0     O50086   8.345   6.987   1.512 -0.3847 -0.2328 -0.5609
  372MOL0     C50087   8.245   6.928   1.548  1.2757 -0.0723  0.8182
  372MOL0     O50088   8.169   6.849   1.461  0.4232 -0.0166  0.6999
  372MOL0     C50089   8.179   6.847   1.321 -0.3693  0.7750  0.0515
  372MOL0     C50090   8.272   6.931   1.239 -0.5924  0.8608 -0.3117
  372MOL0     C50091   8.253   6.950   1.105  0.3628  0.0611 -0.4089
  372MOL0     C50092   8.151   6.881   1.045  0.1204  0.3472  0.4009
  372MOL0     O50093   8.130   6.894   0.909  0.5532 -0.3951 -0.7901
  372MOL0     C50094   8.246   6.844   0.836 -0.2757 -0.1982 -0.2620
  372MOL0     C50095   8.250   6.689   0.848 -0.0584  0.6921  0.2280
  372MOL0     C50096   8.345   6.636   0.960 -0.6542  0.3781  1.1073
  372MOL0     C50097   8.308   6.486   0.973  0.1375 -0.0543 -0.4608
  372MOL0     C50098   8.403   6.412   1.075  0.4775  1.2442  0.1061
  372MOL0     C50099   8.378   6.271   1.077 -1.0903  0.5726  0.3976
  372MOL0     C50100   8.489   6.195   1.157  0.0159  0.4722 -0.4737
  372MOL0     C50101   8.623   6.166   1.089  0.2155  0.8812 -0.2057
  372MOL0     N50102   8.700   6.074   1.177 -0.2470  0.5582  0.3035
  372MOL0     C50103   8.658   5.947   1.210  1.0527 -0.4405  0.2844
  372MOL0     C50104   8.769   5.896   1.271 -0.3736  0.8849 -0.5153
  372MOL0     C50105   8.778   5.756   1.320 -0.4911  0.0483  1.5977
  372MOL0     C50106   8.802   5.749   1.468 -0.2616  0.2617 -0.0301
  372MOL0     C50107   8.693   5.822   1.550  0.1954  0.0368  0.2989
  372MOL0     C50108   8.558   5.747   1.529  0.1603  0.7357  0.3908
  372MOL0     O50109   8.484   5.777   1.651 -0.0578  0.6094  1.0346
  372MOL0     C50110   8.369   5.717   1.687 -0.3919  0.5038  0.5674
  372MOL0     C50111   8.318   5.600   1.631 -0.2685  0.5982 -0.7019
  372MOL0     C50112   8.204   5.538   1.669  0.9966  0.6732 -0.1148
  372MOL0     C50113   8.135   5.592   1.777 -0.1987  0.4590 -0.4892
  372MOL0     C50114   8.001   5.541   1.816 -0.2256 -0.1236  0.7656
  372MOL0     O50115   7.936   5.449   1.731  0.3056 -0.5552 -0.1200
  372MOL0     C50116   7.825   5.374   1.771  0.1142  0.1464  0.2657
  372MOL0     C50117   7.750   5.310   1.677  0.1067 -0.2322  0.5365
  372MOL0     C50118   7.655   5.206   1.715  0.2220  0.4161 -0.7481
  372MOL0     C50119   7.624   5.194   1.850  0.3751  0.8286  0.9825
  372MOL0     O50120   7.547   5.081   1.891 -0.4282 -1.3639 -0.2928
  372MOL0     C50121   7.463   5.003   1.815  0.3391  0.6602  0.5560
  372MOL0     C50122   7.461   4.871   1.894 -0.6535 -0.2350  0.1264
  372MOL0     C50123   7.385   4.887   2.028 -0.2015 -0.2919 -0.2769
  372MOL0     C50124   7.241   4.857   2.001 -0.3348  0.0684 -0.1923
  372MOL0     C50125   7.166   4.869   2.136  1.0554 -0.7718 -1.1437
  372MOL0     C50126   7.016   4.841   2.141 -0.4481 -0.5289  0.1224
  372MOL0     C50127   6.967   4.861   2.280 -0.9543 -0.8446 -0.7271
  372MOL0     C50128   6.903   4.998   2.311  0.0420 -0.0887 -0.3565
  372MOL0    Cl50129   6.860   4.984   2.487 -0.0436  0.1044 -0.1033
  372MOL0     C50130   7.702   5.259   1.943 -0.2678  0.3943  0.5450
  372MOL0     C50131   7.802   5.348   1.907  0.8560  0.1914  0.7282
  372MOL0     O50132   7.960   5.571   1.926  0.3656  0.0037 -0.3069
  372MOL0     C50133   8.178   5.711   1.840 -0.1503 -0.5230  0.0514
  372MOL0     C50134   8.299   5.772   1.797  0.0029  0.3543 -1.0654
  372MOL0     N50135   8.860   5.992   1.295 -0.3269 -0.0998  0.9140
  372MOL0     N50136   8.820   6.106   1.234 -0.3795  0.6106  0.3979
  372MOL0     C50137   8.071   6.781   1.111  0.8388  0.5465 -0.1976
  372MOL0     C50138   8.080   6.775   1.257 -0.0232  0.0287 -0.0778
  372MOL0     C50139   8.189   6.955   1.683  0.1663 -0.2644 -0.4290
  372MOL0     C50140   8.277   7.003   1.783 -0.1962 -0.6605 -0.1163
  372MOL0     C50141   8.238   7.010   1.921  0.0793  0.2193  0.0751
  372MOL0     C50142   8.110   6.986   1.962  0.8706  0.8322  0.3283
  372MOL0     O50143   8.075   6.986   2.095  0.0063  0.8535  0.1527
  372MOL0     C50144   8.013   7.102   2.142  0.3904 -1.1840 -0.6613
  372MOL0     C50145   8.099   7.171   2.252 -0.1507 -0.0363  0.8658
  372MOL0     C50146   8.168   7.075   2.348  0.0253 -0.4415  0.6795
  372MOL0     C50147   8.242   7.176   2.446  0.6374 -0.1748  0.0827
  372MOL0     C50148   8.319   7.093   2.549 -0.8439  1.2225  0.0096
  372MOL0     C50149   8.383   7.016   2.604 -0.5018  0.1011 -1.1325
  372MOL0     C50150   8.014   6.953   1.872  0.0212  1.0783 -0.1366
  372MOL0     C50151   8.055   6.933   1.736  0.6603  0.1808  0.2766
  372MOL0     C50152   7.945   6.895   1.636 -0.4806 -0.0191  0.6047
  372MOL0     H50153   8.360   6.989   1.265  1.5414 -1.0626 -2.6806
  372MOL0     H50154   8.317   7.019   1.051 -2.0080 -0.0872 -3.6884
  372MOL0     H50155   8.227   6.859   0.729  2.0643 -0.3405 -0.7457
  372MOL0     H50156   8.343   6.887   0.861 -0.3275 -1.2073  1.8805
  372MOL0     H50157   8.288   6.657   0.750 -0.3735  0.2248  0.2540
  372MOL0     H50158   8.145   6.658   0.855  0.1212  0.3264  1.5700
  372MOL0     H50159   8.326   6.686   1.056  3.8270  1.1302  1.8233
  372MOL0     H50160   8.448   6.658   0.930  0.1067 -4.2047 -0.3561
  372MOL0     H50161   8.209   6.484   1.019  0.8522 -0.4968  1.1114
  372MOL0     H50162   8.297   6.437   0.876 -4.1003  2.0521 -1.2442
  372MOL0     H50163   8.508   6.438   1.054  0.6036  1.0064  0.4464
  372MOL0     H50164   8.376   6.450   1.174  1.3009  0.4678  0.6415
  372MOL0     H50165   8.280   6.240   1.115  0.1288 -2.2362  1.6255
  372MOL0     H50166   8.388   6.236   0.974 -2.8534  0.2303  0.3095
  372MOL0     H50167   8.446   6.099   1.189  1.0448  0.0273 -0.3819
  372MOL0     H50168   8.513   6.258   1.243  0.9307  1.2357 -1.2715
  372MOL0     H50169   8.609   6.107   0.998  0.8393 -1.0176  0.8691
  372MOL0     H50170   8.673   6.263   1.079  0.1450  1.2511  2.3280
  372MOL0     H50171   8.562   5.901   1.187  0.3423  1.5331 -0.9641
  372MOL0     H50172   8.683   5.707   1.297 -1.2266 -0.0864  4.6162
  372MOL0     H50173   8.861   5.704   1.269 -0.2358  1.5338  0.4083
  372MOL0     H50174   8.810   5.645   1.501  1.5386  0.7820  1.3665
  372MOL0     H50175   8.902   5.786   1.495 -0.9395  0.5675  2.3365
  372MOL0     H50176   8.697   5.924   1.511 -0.9458 -0.3612 -0.9549
  372MOL0     H50177   8.715   5.815   1.657 -0.7116 -0.6281  0.4554
  372MOL0     H50178   8.576   5.639   1.536  0.5136  0.8626  1.6723
  372MOL0     H50179   8.501   5.776   1.441  1.9660  2.9896 -0.1448
  372MOL0     H50180   8.384   5.550   1.561 -0.1830 -2.7492  1.5105
  372MOL0     H50181   8.164   5.448   1.624  0.2492 -0.6285  2.8918
  372MOL0     H50182   7.776   5.322   1.572 -1.4609  1.7524  0.3384
  372MOL0     H50183   7.611   5.141   1.640 -0.9360  0.8169 -0.4245
  372MOL0     H50184   7.367   5.054   1.807 -0.4012 -0.9357 -1.6271
  372MOL0     H50185   7.499   4.981   1.714 -2.5062 -0.3087 -0.3252
  372MOL0     H50186   7.404   4.792   1.844  1.7798 -3.4664  2.0892
  372MOL0     H50187   7.563   4.832   1.900 -1.2997 -1.9967  0.0267
  372MOL0     H50188   7.420   4.822   2.108 -1.4334 -1.8314 -0.9249
  372MOL0     H50189   7.394   4.990   2.064 -3.3188  0.3085 -0.8362
  372MOL0     H50190   7.225   4.756   1.962 -0.1488 -0.5314  1.2275
  372MOL0     H50191   7.189   4.926   1.935 -3.2200 -2.6222 -1.0307
  372MOL0     H50192   7.175   4.967   2.185  1.7272 -0.7854 -1.2356
  372MOL0     H50193   7.215   4.791   2.195  0.5308 -1.3844 -1.5123
  372MOL0     H50194   6.967   4.911   2.072  3.8226  3.5683  0.7214
  372MOL0     H50195   6.991   4.743   2.100 -0.4478 -0.1429 -0.8274
  372MOL0     H50196   7.051   4.840   2.348  1.1221  1.0313 -2.5593
  372MOL0     H50197   6.887   4.793   2.314  0.1664 -0.3140  3.6589
  372MOL0     H50198   6.979   5.075   2.293 -4.2883  5.3739  1.8096
  372MOL0     H50199   6.819   5.019   2.245  0.9271  1.2704 -1.0983
  372MOL0     H50200   7.668   5.250   2.046 -2.2175  3.0332  0.2201
  372MOL0     H50201   7.852   5.400   1.988  0.8157  2.0805 -0.3975
  372MOL0     H50202   8.111   5.755   1.914  0.4584 -1.2999  1.0958
  372MOL0     H50203   8.354   5.849   1.849  2.1933 -0.2273 -2.4020
  372MOL0     H50204   8.000   6.721   1.055 -0.6526  1.6410  0.4758
  372MOL0     H50205   8.010   6.730   1.327 -1.5732  1.6392 -0.5038
  372MOL0     H50206   8.380   7.025   1.758 -0.1903 -0.5758 -0.0163
  372MOL0     H50207   8.304   7.038   2.002  2.4880 -1.2443 -1.2363
  372MOL0     H50208   7.922   7.065   2.191 -0.5765 -0.9386 -2.1729
  372MOL0     H50209   7.973   7.173   2.068 -2.0151  0.8740  2.3435
  372MOL0     H50210   8.036   7.243   2.306 -0.5005  0.6304 -0.3692
  372MOL0     H50211   8.172   7.235   2.202 -0.6545 -0.4673 -0.4777
  372MOL0     H50212   8.243   7.024   2.287 -1.6404  0.5587 -2.4797
  372MOL0     H50213   8.097   7.005   2.394 -2.8375  1.4520 -0.5466
  372MOL0     H50214   8.297   7.262   2.406 -0.6647 -0.3619 -2.3121
  372MOL0     H50215   8.163   7.220   2.508  0.1860  0.4682 -0.9207
  372MOL0     H50216   8.459   6.958   2.652  0.8584  3.0867  0.6266
  372MOL0     H50217   7.910   6.948   1.902  0.4292  4.6110  2.5369
  372MOL0     H50218   7.845   6.890   1.681 -0.6376  1.1559  0.4159
  372MOL0     H50219   7.942   6.961   1.549  0.2091  2.8458  2.6172
  372MOL0     H50220   7.969   6.796   1.595  1.2077  0.8415 -0.5872
  373MOL0     O50221   1.220   6.554   6.123 -0.3544 -0.1375 -0.2596
  373MOL0     C50222   1.294   6.615   6.198 -0.1884 -0.1738  0.2419
  373MOL0     O50223   1.349   6.738   6.165  0.0048  0.4324 -0.0062
  373MOL0     C50224   1.332   6.777   6.037  0.0308  0.1426 -0.0352
  373MOL0     C50225   1.217   6.834   5.980  0.3998 -0.7515 -0.2206
  373MOL0     C50226   1.218   6.886   5.853  0.9816  0.7583  0.1308
  373MOL0     C50227   1.332   6.872   5.773  0.5931  0.1862  0.8230
  373MOL0     O50228   1.335   6.925   5.644 -0.5171  0.1029 -0.6524
  373MOL0     C50229   1.220   6.979   5.577 -0.1823  0.3070  0.5396
  373MOL0     C50230   1.252   7.048   5.444 -0.5362  0.5053  0.3462
  373MOL0     C50231   1.235   6.952   5.330  0.5672 -0.5273 -0.2436
  373MOL0     C50232   1.289   7.021   5.202  0.6505 -0.0169  0.2538
  373MOL0     C50233   1.301   6.940   5.068  0.5447 -0.5167 -0.4524
  373MOL0     C50234   1.398   7.017   4.977  0.8684 -0.7441  0.3539
  373MOL0     C50235   1.404   6.954   4.837 -0.0796 -0.4505 -0.1734
  373MOL0     C50236   1.297   7.012   4.744  0.5211 -0.7963 -0.4565
  373MOL0     N50237   1.326   7.150   4.693 -0.2252  0.2081  0.8044
  373MOL0     C50238   1.250   7.260   4.704  0.1868  0.1707  0.7018
  373MOL0     C50239   1.312   7.359   4.640  0.4402 -0.5056 -0.9066
  373MOL0     C50240   1.281   7.507   4.642 -0.7741  1.5562 -0.1545
  373MOL0     C50241   1.130   7.534   4.652  0.8132 -0.2960 -0.0519
  373MOL0     C50242   1.106   7.683   4.617  0.1121 -0.9112  0.2836
  373MOL0     C50243   0.955   7.718   4.596  0.9370  0.1229 -0.4256
  373MOL0     O50244   0.893   7.717   4.733  0.2905 -0.0430 -0.4974
  373MOL0     C50245   0.771   7.785   4.737 -0.5148 -0.0228 -0.2050
  373MOL0     C50246   0.741   7.841   4.860 -0.1673 -1.0310  0.2085
  373MOL0     C50247   0.627   7.923   4.883 -0.2836  1.2947 -0.8569
  373MOL0     C50248   0.553   7.962   4.777  0.8232 -0.4945  1.1116
  373MOL0     C50249   0.436   8.066   4.803  0.2131  0.1871  0.3114
  373MOL0     O50250   0.399   8.065   4.927  0.3499 -0.0064  0.2608
  373MOL0     C50251   0.292   8.142   4.955  0.0285  0.4987 -0.3631
  373MOL0     C50252   0.162   8.084   4.977 -0.1487  0.2707  0.3248
  373MOL0     C50253   0.045   8.152   4.990  0.3126 -0.2098 -1.0544
  373MOL0     C50254   0.061   8.291   4.995  0.6190  0.3883  0.6134
  373MOL0     O50255  -0.056   8.360   4.992 -0.2471 -1.2181  0.3584
  373MOL0     C50256  -0.051   8.497   5.022 -0.3083 -0.3084 -0.1774
  373MOL0     C50257  -0.189   8.543   5.066 -0.8594  0.1201 -0.4435
  373MOL0     C50258  -0.206   8.696   5.039  0.6593 -0.3874 -0.1507
  373MOL0     C50259  -0.168   8.786   5.146 -0.6664 -0.4790 -0.5381
  373MOL0     C50260  -0.137   8.927   5.085 -0.2526  0.1014  0.4722
  373MOL0     C50261  -0.062   9.017   5.185 -0.3710 -0.3611 -0.3005
  373MOL0     C50262  -0.067   9.170   5.139  0.6212  0.0530  0.2345
  373MOL0     C50263  -0.028   9.265   5.245 -1.3703 -0.2995  0.1121
  373MOL0    Cl50264   0.131   9.227   5.327 -0.9045  0.4241 -0.0263
  373MOL0     C50265   0.184   8.353   4.985  0.4845 -0.0203 -0.8241
  373MOL0     C50266   0.302   8.284   4.973  0.5293 -0.7702 -0.2254
  373MOL0     O50267   0.365   8.096   4.709  0.8283  0.2357  0.0275
  373MOL0     C50268   0.578   7.909   4.652  0.3370  0.7500  0.4813
  373MOL0     C50269   0.692   7.821   4.632 -0.5622  0.2959 -1.1488
  373MOL0     N50270   1.433   7.310   4.604  0.1717  0.3227  1.0163
  373MOL0     N50271   1.446   7.182   4.625 -0.1287 -0.7195 -0.2536
  373MOL0     C50272   1.445   6.814   5.818  0.2930  0.2237 -1.0437
  373MOL0     C50273   1.454   6.777   5.957 -0.1935  0.1805 -0.2288
  373MOL0     C50274   1.298   6.569   6.344  0.3112 -0.0376  0.2312
  373MOL0     C50275   1.400   6.620   6.415  0.7247  0.0963 -0.3327
  373MOL0     C50276   1.420   6.595   6.546 -0.1854  0.1734  0.2215
  373MOL0     C50277   1.344   6.491   6.604 -0.3506 -0.7021 -0.1372
  373MOL0     O50278   1.368   6.455   6.732  0.2419 -0.0316 -0.3051
  373MOL0     C50279   1.419   6.552   6.826 -0.2975 -0.1482 -0.6118
  373MOL0     C50280   1.440   6.496   6.966  0.1170 -0.2750  0.0345
  373MOL0     C50281   1.584   6.460   6.984 -0.4603 -0.7962  0.2199
  373MOL0     C50282   1.620   6.405   7.120  0.2311  0.3705  0.3042
  373MOL0     C50283   1.603   6.508   7.225 -0.5165  0.7291 -0.0033
  373MOL0     C50284   1.573   6.594   7.304  0.4457 -0.7673  0.4335
  373MOL0     C50285   1.249   6.432   6.529  0.7877  1.0445  0.5757
  373MOL0     C50286   1.219   6.470   6.396  0.0986  0.0063  0.2450
  373MOL0     C50287   1.111   6.396   6.320  0.2629  0.2088 -0.2521
  373MOL0     H50288   1.129   6.842   6.043  0.7119  0.6056  0.0644
  373MOL0     H50289   1.127   6.923   5.807  0.6606  1.2481  1.1289
  373MOL0     H50290   1.135   6.911   5.568 -0.6122  0.6776  1.6213
  373MOL0     H50291   1.186   7.061   5.642 -0.2841  0.3353  0.4506
  373MOL0     H50292   1.348   7.098   5.457  1.3894 -2.5886 -0.9772
  373MOL0     H50293   1.175   7.126   5.440  0.0091  1.0060 -2.1011
  373MOL0     H50294   1.126   6.944   5.318  0.4219 -0.3130  0.8626
  373MOL0     H50295   1.281   6.854   5.346 -0.3477 -0.7082  1.5462
  373MOL0     H50296   1.230   7.110   5.181  0.4393 -0.2109  0.0075
  373MOL0     H50297   1.392   7.051   5.223  1.0658 -1.4801  0.4567
  373MOL0     H50298   1.330   6.835   5.078 -4.5454 -2.3440 -1.6886
  373MOL0     H50299   1.202   6.947   5.021  0.5100  2.6427 -0.1021
  373MOL0     H50300   1.368   7.122   4.972 -0.0974 -1.0310 -0.1730
  373MOL0     H50301   1.493   7.003   5.030 -0.4472 -1.7875  2.6375
  373MOL0     H50302   1.394   6.845   4.839 -2.2271 -0.3217 -1.2042
  373MOL0     H50303   1.506   6.981   4.809  0.2121  2.7538  3.1464
  373MOL0     H50304   1.290   6.956   4.650 -0.3192  2.4800 -2.4990
  373MOL0     H50305   1.203   6.995   4.796  1.1500 -0.8691  0.6850
  373MOL0     H50306   1.156   7.268   4.758  1.4464  1.5199  2.8187
  373MOL0     H50307   1.329   7.560   4.725 -1.0102 -0.6085  1.4413
  373MOL0     H50308   1.319   7.551   4.549  1.1297  0.9388  0.2753
  373MOL0     H50309   1.077   7.481   4.573 -0.9266  0.7521  0.3484
  373MOL0     H50310   1.087   7.520   4.752 -1.2413 -0.2666 -0.8865
  373MOL0     H50311   1.163   7.698   4.525  0.0703 -1.4245  0.1706
  373MOL0     H50312   1.158   7.746   4.689 -0.2400 -0.4877  0.1765
  373MOL0     H50313   0.916   7.632   4.541  0.2666 -0.6160  1.1462
  373MOL0     H50314   0.945   7.817   4.550  2.0404  0.6741  0.4638
  373MOL0     H50315   0.804   7.815   4.945 -0.2702  0.1540  0.6810
  373MOL0     H50316   0.610   7.955   4.985 -1.9612  1.8539 -1.2911
  373MOL0     H50317   0.165   7.975   4.977  0.4846  0.2772 -0.3217
  373MOL0     H50318  -0.054   8.112   5.010 -0.1379  1.1820 -0.3656
  373MOL0     H50319   0.013   8.521   5.106  1.6490 -0.4568 -1.5596
  373MOL0     H50320  -0.014   8.557   4.938  1.8898 -1.8229 -0.3810
  373MOL0     H50321  -0.269   8.490   5.012 -1.0064 -1.0858  0.9032
  373MOL0     H50322  -0.199   8.518   5.172 -1.9395  1.1619 -0.2811
  373MOL0     H50323  -0.138   8.708   4.955  2.8542 -0.7524  1.4920
  373MOL0     H50324  -0.308   8.719   5.006  0.4328 -1.0070  0.0870
  373MOL0     H50325  -0.076   8.742   5.186 -0.5219 -2.3788 -2.7555
  373MOL0     H50326  -0.239   8.791   5.230  0.9509  1.0932  0.8133
  373MOL0     H50327  -0.234   8.972   5.063 -0.5627 -0.0199  1.5142
  373MOL0     H50328  -0.083   8.917   4.991 -1.9136 -0.0042 -0.5120
  373MOL0     H50329  -0.107   9.003   5.283 -0.9557 -0.1683 -0.5353
  373MOL0     H50330   0.040   8.977   5.182 -0.4294 -0.5046 -2.6186
  373MOL0     H50331  -0.171   9.192   5.113 -0.2118 -2.4674  1.1911
  373MOL0     H50332  -0.001   9.192   5.055 -0.9537  0.6327 -0.9176
  373MOL0     H50333  -0.031   9.367   5.206  0.6979  1.0486  3.0785
  373MOL0     H50334  -0.102   9.285   5.323  0.6356  0.2486  1.9990
  373MOL0     H50335   0.185   8.461   4.985  0.2711  0.0829  2.5268
  373MOL0     H50336   0.385   8.354   4.970  1.1452 -1.4317 -3.6471
  373MOL0     H50337   0.516   7.929   4.566 -2.0789 -3.2729  1.0319
  373MOL0     H50338   0.722   7.767   4.543  4.5031  0.3289  0.2050
  373MOL0     H50339   1.533   6.795   5.758  0.0076  0.3164 -1.4913
  373MOL0     H50340   1.542   6.725   5.994 -0.6844 -0.0661  0.6107
  373MOL0     H50341   1.469   6.695   6.380  1.9599 -1.2529 -0.8684
  373MOL0     H50342   1.496   6.653   6.598 -0.3347 -0.7591  1.5199
  373MOL0     H50343   1.356   6.640   6.842  0.4527  0.0913  1.2767
  373MOL0     H50344   1.506   6.604   6.787  0.6619 -2.7046 -2.1860
  373MOL0     H50345   1.374   6.408   6.972 -2.8860  1.5257 -2.9519
  373MOL0     H50346   1.404   6.564   7.044 -1.0125  0.1464 -0.8253
  373MOL0     H50347   1.657   6.542   6.978  0.4928 -1.0760  4.6553
  373MOL0     H50348   1.603   6.389   6.903 -1.5661 -0.2091 -0.5710
  373MOL0     H50349   1.545   6.327   7.138  0.6346  0.5600  3.4587
  373MOL0     H50350   1.717   6.356   7.124  0.8578  1.6184  3.3486
  373MOL0     H50351   1.571   6.676   7.374  0.5325 -0.8751  0.5641
  373MOL0     H50352   1.199   6.349   6.577 -0.0360 -0.1141 -2.0872
  373MOL0     H50353   1.149   6.327   6.244  0.7948 -0.2509  0.4171
  373MOL0     H50354   1.048   6.347   6.395 -0.4354  0.8897 -0.3782
  373MOL0     H50355   1.051   6.481   6.286 -0.1662  3.0940  6.2460
  374MOL0     O50356   1.007   5.527   7.558  0.3540  0.0425  0.0505
  374MOL0     C50357   1.046   5.429   7.627 -0.3720 -0.0500  0.2078
  374MOL0     O50358   1.030   5.298   7.603  1.1878 -0.0230  0.5483
  374MOL0     C50359   0.959   5.262   7.485 -0.3318 -0.2103 -0.5877
  374MOL0     C50360   0.861   5.331   7.421  0.3542 -0.7815 -0.1807
  374MOL0     C50361   0.802   5.292   7.298  0.1166  0.1347 -0.3306
  374MOL0     C50362   0.864   5.182   7.226  0.1318  0.0244 -0.7607
  374MOL0     O50363   0.815   5.147   7.105  0.4032  0.0177  0.4887
  374MOL0     C50364   0.811   5.255   7.003  0.5181  0.6103  0.5912
  374MOL0     C50365   0.672   5.285   6.957 -0.2624 -0.3887 -0.5826
  374MOL0     C50366   0.592   5.180   6.891 -0.1380  0.9901 -0.2334
  374MOL0     C50367   0.648   5.163   6.749  0.0518 -0.0371  0.8522
  374MOL0     C50368   0.608   5.274   6.655 -0.0400  0.2228 -0.2091
  374MOL0     C50369   0.650   5.246   6.518 -1.0649 -0.3835 -0.6661
  374MOL0     C50370   0.582   5.337   6.413  0.4972  0.4983 -0.8562
  374MOL0     C50371   0.430   5.305   6.409  0.1460  0.4237  0.3192
  374MOL0     N50372   0.360   5.347   6.284 -0.3664  0.1180 -0.9415
  374MOL0     C50373   0.369   5.467   6.234 -0.2217  0.0810  0.0074
  374MOL0     C50374   0.280   5.463   6.131 -0.1578  0.2084 -0.1515
  374MOL0     C50375   0.257   5.579   6.046  0.4687  0.4613  0.1401
  374MOL0     C50376   0.130   5.658   6.092 -0.4179  0.1010 -0.1829
  374MOL0     C50377  -0.008   5.601   6.047  0.3901 -0.6161 -0.3944
  374MOL0     C50378  -0.123   5.674   6.125 -0.1951 -0.6819 -0.5228
  374MOL0     O50379  -0.120   5.653   6.265  0.0878  0.8325 -0.1616
  374MOL0     C50380  -0.242   5.597   6.302 -0.5629 -0.6451  0.2951
  374MOL0     C50381  -0.327   5.670   6.369  0.4031  0.2665  0.2374
  374MOL0     C50382  -0.453   5.619   6.404  0.9826  0.6558  0.3755
  374MOL0     C50383  -0.488   5.487   6.374 -0.2987  0.4742 -0.0151
  374MOL0     C50384  -0.622   5.436   6.419 -0.7046  0.8929 -0.4201
  374MOL0     O50385  -0.706   5.526   6.472  0.6110  0.0944  0.5117
  374MOL0     C50386  -0.815   5.484   6.552  1.0144  0.4354 -0.0963
  374MOL0     C50387  -0.812   5.500   6.691  0.0701 -0.9234 -0.3694
  374MOL0     C50388  -0.925   5.458   6.777  0.3176  0.2158  0.9234
  374MOL0     C50389  -1.036   5.404   6.711  0.3981 -0.0251  0.5283
  374MOL0     O50390  -1.154   5.373   6.778 -0.1392  0.1626  0.7151
  374MOL0     C50391  -1.161   5.397   6.916 -0.1079  0.3117 -0.1264
  374MOL0     C50392  -1.305   5.373   6.973 -0.2530  0.3051 -0.8411
  374MOL0     C50393  -1.307   5.310   7.114 -0.2986  0.5557  1.3411
  374MOL0     C50394  -1.438   5.332   7.184 -0.1741  0.2917  0.3180
  374MOL0     C50395  -1.556   5.262   7.104  0.4869  0.1720 -0.6454
  374MOL0     C50396  -1.565   5.110   7.117 -0.1005 -0.0583 -0.4318
  374MOL0     C50397  -1.688   5.056   7.048  0.4679  0.5190 -0.6863
  374MOL0     C50398  -1.692   4.899   7.053 -0.0205  0.5887  0.3266
  374MOL0    Cl50399  -1.539   4.830   6.968 -0.1253 -0.8792 -0.0048
  374MOL0     C50400  -1.034   5.381   6.568 -0.0395 -1.0974  0.1150
  374MOL0     C50401  -0.927   5.422   6.490 -0.6565 -0.0945 -0.2709
  374MOL0     O50402  -0.644   5.314   6.412  0.8067 -0.9178  0.2968
  374MOL0     C50403  -0.389   5.400   6.327 -0.6228 -1.5065  1.2139
  374MOL0     C50404  -0.266   5.454   6.293  0.1147  0.7527 -0.3508
  374MOL0     N50405   0.221   5.341   6.123 -1.1567 -0.3917 -0.9363
  374MOL0     N50406   0.274   5.265   6.217 -0.3513 -0.3856  0.3151
  374MOL0     C50407   0.970   5.112   7.288  0.6165 -1.0410  0.3113
  374MOL0     C50408   1.010   5.146   7.417 -1.2059 -0.7719  0.2850
  374MOL0     C50409   1.126   5.457   7.744 -0.3497 -0.3046  0.2809
  374MOL0     C50410   1.250   5.380   7.772  0.3222 -0.1114 -1.0116
  374MOL0     C50411   1.339   5.425   7.865  0.1597 -0.3832  0.0820
  374MOL0     C50412   1.322   5.548   7.940  1.6475  0.7144 -0.3817
  374MOL0     O50413   1.380   5.586   8.057  0.2893 -0.1675  0.0312
  374MOL0     C50414   1.472   5.488   8.113 -0.2342  0.4795 -0.8861
  374MOL0     C50415   1.616   5.507   8.073 -0.3934  0.7216 -0.3057
  374MOL0     C50416   1.689   5.397   8.155 -0.1564 -0.5316  0.4526
  374MOL0     C50417   1.841   5.415   8.132  0.3781  0.1788 -0.0958
  374MOL0     C50418   1.925   5.349   8.227 -0.2266 -0.1042 -0.4114
  374MOL0     C50419   1.987   5.282   8.305 -1.0956 -0.7841  0.8568
  374MOL0     C50420   1.198   5.608   7.927 -0.3120  0.2703  0.4026
  374MOL0     C50421   1.102   5.570   7.825 -0.7506  0.3913 -0.5595
  374MOL0     C50422   0.974   5.656   7.818 -0.0387  0.2081 -0.2054
  374MOL0     H50423   0.813   5.422   7.454 -1.0095 -1.3449 -0.5653
  374MOL0     H50424   0.717   5.346   7.256  1.8238  4.6771  1.4531
  374MOL0     H50425   0.856   5.349   7.034  1.4706  1.6968 -3.4830
  374MOL0     H50426   0.872   5.222   6.918  1.1684 -3.2257  2.3228
  374MOL0     H50427   0.673   5.377   6.898  0.5907 -0.1369 -0.1890
  374MOL0     H50428   0.612   5.306   7.045  0.0318 -3.3059  0.4400
  374MOL0     H50429   0.487   5.209   6.892 -0.2560  0.6097 -0.7455
  374MOL0     H50430   0.589   5.081   6.939 -1.4265  0.0542 -2.1145
  374MOL0     H50431   0.757   5.155   6.752  0.2387  1.5883 -0.3219
  374MOL0     H50432   0.601   5.069   6.718 -0.0644  0.9245 -2.2101
  374MOL0     H50433   0.499   5.276   6.652 -0.0461  2.5524  0.0821
  374MOL0     H50434   0.646   5.369   6.694 -2.5879  1.1735  0.1251
  374MOL0     H50435   0.756   5.273   6.515 -0.7617 -1.1201  1.7099
  374MOL0     H50436   0.660   5.140   6.495 -0.2573  0.0174 -2.3720
  374MOL0     H50437   0.618   5.299   6.317 -3.1117 -1.4149 -1.6566
  374MOL0     H50438   0.599   5.445   6.421  0.3500  0.3551  2.3769
  374MOL0     H50439   0.425   5.197   6.418  0.4469  0.4962  1.4341
  374MOL0     H50440   0.378   5.360   6.488 -1.6499 -0.4621 -0.1723
  374MOL0     H50441   0.430   5.550   6.269 -0.4115 -0.1656  0.9203
  374MOL0     H50442   0.347   5.641   6.037  0.0720  0.8453 -1.5311
  374MOL0     H50443   0.244   5.527   5.951  0.3526 -1.0430  0.9568
  374MOL0     H50444   0.129   5.656   6.201 -0.5260 -0.0460 -0.1869
  374MOL0     H50445   0.155   5.760   6.058 -0.7063 -0.6328 -2.8303
  374MOL0     H50446  -0.005   5.493   6.065  3.3981 -0.5739 -0.0362
  374MOL0     H50447  -0.014   5.600   5.938  2.6613  0.0245 -0.5753
  374MOL0     H50448  -0.222   5.657   6.083 -0.0694 -2.5400 -0.1279
  374MOL0     H50449  -0.111   5.780   6.099  0.5904 -1.0520 -1.7788
  374MOL0     H50450  -0.316   5.778   6.380 -1.0609  0.1984  3.7126
  374MOL0     H50451  -0.528   5.682   6.449  0.2851  0.4384 -0.4565
  374MOL0     H50452  -0.742   5.563   6.745 -2.2966  2.5171 -0.9474
  374MOL0     H50453  -0.927   5.457   6.885 -0.6555 -1.4563  0.9180
  374MOL0     H50454  -1.081   5.339   6.962  1.6852  2.2472 -0.6472
  374MOL0     H50455  -1.134   5.502   6.931 -1.0287  0.8475 -1.9805
  374MOL0     H50456  -1.353   5.470   6.989  0.7654  0.5711  0.8279
  374MOL0     H50457  -1.362   5.314   6.900 -0.6606 -2.0261  1.2039
  374MOL0     H50458  -1.285   5.203   7.111  0.3067  0.4514  4.9921
  374MOL0     H50459  -1.224   5.348   7.174  1.6912 -3.0915  1.1850
  374MOL0     H50460  -1.446   5.441   7.179 -2.6064  0.1345 -2.0727
  374MOL0     H50461  -1.451   5.300   7.287 -0.0710  0.5237  0.4036
  374MOL0     H50462  -1.552   5.294   7.000  0.5658  2.9866  0.1252
  374MOL0     H50463  -1.641   5.306   7.158  0.6989 -0.1022 -0.0805
  374MOL0     H50464  -1.473   5.080   7.066  1.9286  1.1841  2.2573
  374MOL0     H50465  -1.563   5.073   7.219  0.3747 -2.3089 -1.2168
  374MOL0     H50466  -1.677   5.076   6.941 -1.5684  1.0697 -0.8330
  374MOL0     H50467  -1.782   5.098   7.086 -0.1901 -2.6490  1.5834
  374MOL0     H50468  -1.697   4.867   7.158  1.4643 -0.5236  0.0896
  374MOL0     H50469  -1.786   4.871   7.003  1.7229  0.6470 -3.2196
  374MOL0     H50470  -1.122   5.342   6.518 -1.1355  0.5973  0.6102
  374MOL0     H50471  -0.925   5.410   6.383 -1.0695 -4.8630  0.0449
  374MOL0     H50472  -0.412   5.295   6.313 -3.3927 -1.0148  1.5306
  374MOL0     H50473  -0.195   5.381   6.254 -1.0051  0.1054 -1.2570
  374MOL0     H50474   1.014   5.022   7.248  1.6750 -0.2836 -0.2776
  374MOL0     H50475   1.088   5.093   7.471 -1.6022 -1.6934 -0.0311
  374MOL0     H50476   1.278   5.289   7.719 -0.1977 -0.5359 -0.5700
  374MOL0     H50477   1.427   5.365   7.882 -0.0153 -0.0497  2.5139
  374MOL0     H50478   1.443   5.385   8.091  0.4134 -0.0769  0.6640
  374MOL0     H50479   1.467   5.481   8.222  1.4132 -2.1338 -0.8977
  374MOL0     H50480   1.654   5.605   8.103 -1.4374  1.5210 -1.4546
  374MOL0     H50481   1.628   5.500   7.965  2.1859  2.7970 -0.2677
  374MOL0     H50482   1.648   5.301   8.125 -0.8363 -0.3026  0.6294
  374MOL0     H50483   1.668   5.415   8.261  0.1206  0.1602  0.3993
  374MOL0     H50484   1.868   5.367   8.038  1.3335  1.2740 -0.3888
  374MOL0     H50485   1.869   5.520   8.125  0.6510  0.0356 -1.2644
  374MOL0     H50486   2.050   5.232   8.376  0.5892 -0.3044 -0.2571
  374MOL0     H50487   1.180   5.685   8.002  1.5333  2.5349 -1.3442
  374MOL0     H50488   0.942   5.688   7.917  0.0566  1.5638 -0.5859
  374MOL0     H50489   0.998   5.747   7.761 -2.2673  0.2501 -1.1552
  374MOL0     H50490   0.894   5.596   7.775 -0.2374  0.2031  0.1753
  375MOL0     O50491   8.873   3.739  11.219 -0.7886 -0.3577 -0.0666
  375MOL0     C50492   8.995   3.721  11.242 -0.3734 -1.0911 -0.0699
  375MOL0     O50493   9.095   3.802  11.204 -0.0554 -1.0003  0.4509
  375MOL0     C50494   9.079   3.930  11.154  0.8470  0.7806 -0.6446
  375MOL0     C50495   8.971   4.014  11.191 -0.5891 -0.0634 -1.1593
  375MOL0     C50496   8.938   4.127  11.110 -0.1269  0.9026 -0.5027
  375MOL0     C50497   9.027   4.168  11.009 -0.6980 -0.1625 -0.1816
  375MOL0     O50498   9.001   4.276  10.919 -0.4494  0.3815  0.2105
  375MOL0     C50499   8.980   4.400  10.988  1.2427 -0.7293 -0.7061
  375MOL0     C50500   9.082   4.446  11.086 -0.6361 -0.2055  0.3814
  375MOL0     C50501   9.068   4.589  11.138  0.8535 -0.1699 -0.5387
  375MOL0     C50502   9.120   4.705  11.045  0.1902  0.3273  0.0956
  375MOL0     C50503   9.102   4.834  11.123  1.3165 -0.2733  0.1273
  375MOL0     C50504   9.175   4.955  11.066  0.4828  0.4390  0.0841
  375MOL0     C50505   9.133   4.979  10.920  0.0465 -0.9266  0.6215
  375MOL0     C50506   8.979   5.015  10.908 -0.5098 -0.5997  0.3609
  375MOL0     N50507   8.935   5.042  10.768 -0.3223 -0.1740  0.1908
  375MOL0     C50508   8.929   4.953  10.664  0.2184 -0.1721  0.1913
  375MOL0     C50509   8.875   5.013  10.560  1.3466 -0.5095  0.1872
  375MOL0     C50510   8.848   4.948  10.429  0.7222 -0.8594  0.2616
  375MOL0     C50511   8.913   5.035  10.319 -0.2165 -0.1491 -1.0772
  375MOL0     C50512   8.822   5.155  10.292 -0.0764  0.3935 -0.4885
  375MOL0     C50513   8.863   5.238  10.169  0.4162 -0.4408  0.2264
  375MOL0     O50514   8.984   5.301  10.188  0.1344  0.0050 -0.5895
  375MOL0     C50515   9.093   5.270  10.112 -0.0193  0.5529  0.0450
  375MOL0     C50516   9.081   5.259   9.972  0.3278  0.0446  0.2382
  375MOL0     C50517   9.198   5.245   9.893 -0.4512  0.6127  0.0590
  375MOL0     C50518   9.328   5.261   9.949 -0.4547 -0.6349  0.0436
  375MOL0     C50519   9.449   5.260   9.864 -0.4977  0.2006 -0.4350
  375MOL0     O50520   9.569   5.294   9.924 -0.1355 -0.0530 -0.0588
  375MOL0     C50521   9.679   5.323   9.843  0.2024  0.3684  0.4110
  375MOL0     C50522   9.778   5.223   9.807  0.0211  0.9995  0.0013
  375MOL0     C50523   9.877   5.262   9.722 -0.3494 -0.2056 -0.6442
  375MOL0     C50524   9.890   5.401   9.683 -0.7568  0.1331  0.5064
  375MOL0     O50525  10.003   5.427   9.610  0.6310  0.7956  0.0738
  375MOL0     C50526   9.987   5.524   9.501  0.3084  0.5281  0.5740
  375MOL0     C50527  10.096   5.480   9.395 -0.1156  0.5990  0.3268
  375MOL0     C50528  10.079   5.331   9.357  0.5922  0.7510  0.3708
  375MOL0     C50529  10.188   5.285   9.255  0.6933 -0.6783 -0.3289
  375MOL0     C50530  10.180   5.134   9.216  0.7349 -0.2237 -0.1624
  375MOL0     C50531  10.286   5.107   9.115 -0.2988  0.0586 -0.0022
  375MOL0     C50532  10.269   4.983   9.034  0.0466  0.0041  0.0562
  375MOL0     C50533  10.352   4.965   8.913  0.3924  0.6815  0.0818
  375MOL0    Cl50534  10.287   4.847   8.790 -0.2233  0.2043  0.0509
  375MOL0     C50535   9.798   5.498   9.724  0.0165  0.1629 -0.2918
  375MOL0     C50536   9.696   5.455   9.809 -0.0192  0.5107  0.1045
  375MOL0     O50537   9.433   5.263   9.743  0.2851  0.1917  0.3938
  375MOL0     C50538   9.339   5.280  10.089  0.1913  0.2220  0.1390
  375MOL0     C50539   9.223   5.279  10.167  0.0510  0.1017  0.0299
  375MOL0     N50540   8.840   5.146  10.602 -0.5365  0.4540  0.3117
  375MOL0     N50541   8.852   5.144  10.734  0.0514  0.2065 -0.1815
  375MOL0     C50542   9.146   4.092  10.987 -0.1999 -0.0086 -0.5033
  375MOL0     C50543   9.162   3.973  11.052 -0.0494  0.6606 -0.7497
  375MOL0     C50544   9.027   3.597  11.322 -0.0635 -0.4709  0.1823
  375MOL0     C50545   9.146   3.597  11.397  0.5584 -0.0350  0.4562
  375MOL0     C50546   9.183   3.494  11.489 -0.4007 -0.8873  0.0281
  375MOL0     C50547   9.102   3.386  11.493 -0.3049  0.4929 -0.6864
  375MOL0     O50548   9.125   3.280  11.581 -0.2072  0.3136  0.5210
  375MOL0     C50549   9.250   3.214  11.593 -0.6049 -0.8105  0.1338
  375MOL0     C50550   9.235   3.086  11.667 -0.3563 -1.0546  0.2371
  375MOL0     C50551   9.173   2.967  11.581  0.2259  0.7106 -0.4202
  375MOL0     C50552   9.026   2.962  11.578  0.1083 -0.2317  0.1042
  375MOL0     C50553   8.973   2.828  11.573 -0.5788 -0.4425 -0.0548
  375MOL0     C50554   8.921   2.720  11.582 -0.2012 -0.4646  0.9341
  375MOL0     C50555   8.989   3.380  11.414 -0.0199 -0.2977 -0.1629
  375MOL0     C50556   8.944   3.479  11.320 -0.1606 -0.6440 -1.0101
  375MOL0     C50557   8.821   3.466  11.231 -0.1209 -0.3397  0.2141
  375MOL0     H50558   8.914   3.975  11.275  0.5752  0.8782  0.1105
  375MOL0     H50559   8.841   4.172  11.132 -0.2835 -0.3499  1.7013
  375MOL0     H50560   8.968   4.473  10.907 -1.5546 -1.0468 -0.6848
  375MOL0     H50561   8.884   4.410  11.038  2.1772 -0.5051  1.1020
  375MOL0     H50562   9.170   4.432  11.023 -2.8850 -5.7632 -2.2100
  375MOL0     H50563   9.082   4.377  11.171 -1.5258 -3.1354 -1.8094
  375MOL0     H50564   9.118   4.577  11.234 -1.6776 -1.8196  0.6689
  375MOL0     H50565   8.961   4.610  11.145  1.2976  1.7207  2.1212
  375MOL0     H50566   9.225   4.691  11.018 -0.6583 -0.8829 -3.0175
  375MOL0     H50567   9.061   4.702  10.953  1.5751  0.9068 -0.8459
  375MOL0     H50568   9.001   4.864  11.153  1.6486  2.4821 -1.2171
  375MOL0     H50569   9.160   4.816  11.214  1.9954  3.1168  0.4985
  375MOL0     H50570   9.129   5.034  11.126  0.9613 -0.2122  1.3363
  375MOL0     H50571   9.284   4.957  11.075  0.7767 -2.3058 -1.7437
  375MOL0     H50572   9.170   4.897  10.857  1.3775  1.9419 -2.6868
  375MOL0     H50573   9.196   5.060  10.881  1.0579 -1.4915  1.0413
  375MOL0     H50574   8.917   4.931  10.940 -0.8474 -1.1252 -1.5444
  375MOL0     H50575   8.971   5.110  10.961  1.1532 -1.4549  2.2678
  375MOL0     H50576   8.974   4.855  10.675 -1.2043 -0.8940 -0.1811
  375MOL0     H50577   8.912   4.859  10.433  1.6861 -0.1616  0.4773
  375MOL0     H50578   8.740   4.933  10.421  0.4133  1.0622  0.3836
  375MOL0     H50579   9.012   5.058  10.359 -1.3824  2.6404  0.5119
  375MOL0     H50580   8.917   4.971  10.230 -0.8119 -3.1212  0.8992
  375MOL0     H50581   8.817   5.229  10.373 -0.4703  0.6102 -0.7058
  375MOL0     H50582   8.721   5.116  10.274 -1.2316  2.7866  0.3376
  375MOL0     H50583   8.784   5.310  10.145  0.8103  0.7217  2.2205
  375MOL0     H50584   8.861   5.169  10.084 -0.4887 -0.6524  0.4116
  375MOL0     H50585   8.983   5.251   9.928  0.5570 -1.1613 -0.0779
  375MOL0     H50586   9.190   5.234   9.786 -0.2673 -0.8409  0.1648
  375MOL0     H50587   9.771   5.119   9.837  1.2176  1.1187  0.7824
  375MOL0     H50588   9.953   5.191   9.693  0.8771  0.3735  0.9650
  375MOL0     H50589   9.892   5.533   9.446  1.1225  1.9308 -0.6663
  375MOL0     H50590  10.009   5.627   9.531  1.2994  0.5675 -0.2374
  375MOL0     H50591  10.080   5.554   9.317 -0.7699 -0.7337 -0.8597
  375MOL0     H50592  10.199   5.498   9.426 -0.7178  2.2773  1.4897
  375MOL0     H50593  10.092   5.263   9.442  0.7119  1.9036  1.3096
  375MOL0     H50594   9.980   5.304   9.320  2.3377 -2.3494 -2.5444
  375MOL0     H50595  10.280   5.302   9.312 -0.7519  1.6579  1.5235
  375MOL0     H50596  10.188   5.349   9.167 -0.7302  0.7384  0.6443
  375MOL0     H50597  10.086   5.130   9.161  1.2955 -1.3899 -1.0873
  375MOL0     H50598  10.189   5.065   9.301  3.3028  0.0751 -0.1017
  375MOL0     H50599  10.267   5.180   9.036 -3.0026  0.4691  0.9093
  375MOL0     H50600  10.382   5.123   9.166 -0.7341  0.0249  0.8559
  375MOL0     H50601  10.167   4.966   8.998  0.3630 -0.4160 -0.6671
  375MOL0     H50602  10.290   4.901   9.104  1.1089  2.2632  2.5695
  375MOL0     H50603  10.370   5.060   8.862  1.6608 -0.2381 -1.2637
  375MOL0     H50604  10.447   4.928   8.952  0.3873  0.4753 -0.0997
  375MOL0     H50605   9.814   5.600   9.690 -0.3402  0.5395  0.6642
  375MOL0     H50606   9.621   5.523   9.849  0.3277 -1.1846  4.1465
  375MOL0     H50607   9.438   5.285  10.134  0.0101  1.9908  0.4514
  375MOL0     H50608   9.229   5.316  10.269  1.6597 -1.4797  0.5569
  375MOL0     H50609   9.223   4.120  10.917  0.3668  1.2994  0.6247
  375MOL0     H50610   9.251   3.917  11.023  0.7050  0.6339  1.3941
  375MOL0     H50611   9.206   3.687  11.396  0.0398  0.4579  3.6324
  375MOL0     H50612   9.275   3.503  11.546  1.0191  1.6215 -2.3763
  375MOL0     H50613   9.318   3.286  11.638 -2.8703  0.6060  1.4672
  375MOL0     H50614   9.292   3.187  11.495  0.8216  1.3248  0.0968
  375MOL0     H50615   9.168   3.097  11.753 -2.9288 -0.5498 -1.7128
  375MOL0     H50616   9.338   3.060  11.695  0.1557  0.3418 -0.2855
  375MOL0     H50617   9.202   2.875  11.632 -0.2500 -0.0444 -1.4635
  375MOL0     H50618   9.216   2.962  11.480  1.5908 -2.9597  0.1948
  375MOL0     H50619   8.996   3.018  11.667  6.0819  0.2726  2.2161
  375MOL0     H50620   8.995   3.022  11.492 -1.0872 -0.4997  0.3188
  375MOL0     H50621   8.889   2.619  11.601 -1.7016 -0.2864 -0.4004
  375MOL0     H50622   8.933   3.289  11.428  1.5074 -1.1589  0.6591
  375MOL0     H50623   8.781   3.366  11.250  1.2840 -1.1263 -0.7818
  375MOL0     H50624   8.750   3.545  11.254 -0.4938  0.1363 -2.2970
  375MOL0     H50625   8.847   3.481  11.126  3.4242 -1.0439  0.8601
  376MOL0     O50626   4.008   1.113   6.260  0.5184  0.1704  0.2885
  376MOL0     C50627   3.880   1.140   6.253  0.7286 -0.8399  0.5402
  376MOL0     O50628   3.791   1.094   6.346  0.1499 -0.0388 -0.0478
  376MOL0     C50629   3.836   1.053   6.465  0.0886 -0.5663 -0.5465
  376MOL0     C50630   3.949   1.101   6.545  0.2272  0.5012  0.1566
  376MOL0     C50631   3.984   1.040   6.663  0.5061 -0.1920 -0.1341
  376MOL0     C50632   3.906   0.939   6.719  0.0519  0.2903  1.1762
  376MOL0     O50633   3.937   0.863   6.830 -0.1633  0.2983  0.8802
  376MOL0     C50634   4.051   0.910   6.900 -0.1588 -0.0381  0.5693
  376MOL0     C50635   4.055   0.842   7.044 -0.1332 -0.0616 -0.3952
  376MOL0     C50636   3.922   0.838   7.124 -0.4414  0.6124  0.0510
  376MOL0     C50637   3.959   0.797   7.262 -0.2091 -0.0840 -0.1227
  376MOL0     C50638   3.978   0.642   7.276 -0.7446  0.1030  1.0113
  376MOL0     C50639   3.981   0.589   7.422  0.3728  0.4160  0.3521
  376MOL0     C50640   4.108   0.616   7.508  0.4759 -0.6409 -0.1996
  376MOL0     C50641   4.079   0.636   7.661 -0.7317 -0.4657  0.0953
  376MOL0     N50642   4.206   0.671   7.728 -0.2029  0.3845  0.3655
  376MOL0     C50643   4.245   0.790   7.767  0.6771 -0.4592 -0.1855
  376MOL0     C50644   4.331   0.767   7.862 -0.9256 -0.4207 -0.0473
  376MOL0     C50645   4.389   0.871   7.950 -0.5343 -0.1273  0.8078
  376MOL0     C50646   4.333   0.881   8.087  0.2293 -0.6316 -0.2061
  376MOL0     C50647   4.298   1.019   8.135 -0.1827 -0.3882 -0.8203
  376MOL0     C50648   4.223   1.107   8.041  0.5344  0.7118 -0.7168
  376MOL0     O50649   4.111   1.020   8.003 -0.8818  0.0177 -0.6254
  376MOL0     C50650   4.048   1.038   7.885  0.0164 -0.8033  0.3706
  376MOL0     C50651   4.045   1.160   7.822 -0.3667  0.8201  0.6102
  376MOL0     C50652   3.965   1.187   7.710  0.2519  0.6804  0.7982
  376MOL0     C50653   3.882   1.083   7.656  0.2248 -0.6229 -0.2278
  376MOL0     C50654   3.793   1.117   7.534  0.1484 -0.1145 -0.2217
  376MOL0     O50655   3.800   1.240   7.483 -0.1134 -1.1404  0.2249
  376MOL0     C50656   3.755   1.260   7.355 -0.0915 -0.0531  0.0454
  376MOL0     C50657   3.622   1.296   7.337  0.2780  0.4108 -0.1075
  376MOL0     C50658   3.581   1.320   7.206 -0.2515 -0.6497  1.0395
  376MOL0     C50659   3.665   1.298   7.090  0.7331 -0.6677 -0.2455
  376MOL0     O50660   3.615   1.315   6.968  0.2735 -0.7854 -0.1736
  376MOL0     C50661   3.601   1.190   6.891  0.2964  0.2606 -0.4947
  376MOL0     C50662   3.453   1.154   6.861 -0.1141  0.3033  0.4277
  376MOL0     C50663   3.386   1.269   6.769 -0.4121  1.3712  0.1891
  376MOL0     C50664   3.436   1.254   6.627  0.8848 -0.0984 -0.5648
  376MOL0     C50665   3.400   1.115   6.560 -0.3073 -0.3270  0.3143
  376MOL0     C50666   3.426   1.113   6.408  0.4822 -0.3645 -0.1942
  376MOL0     C50667   3.359   0.984   6.345 -0.6115 -0.1521 -0.8023
  376MOL0     C50668   3.391   0.966   6.198 -0.6787 -0.4348 -0.7139
  376MOL0    Cl50669   3.294   1.081   6.112 -0.0629  0.0330  0.3917
  376MOL0     C50670   3.792   1.243   7.114 -0.1564 -0.2527  0.7921
  376MOL0     C50671   3.838   1.227   7.245  0.8081 -0.5162  0.7899
  376MOL0     O50672   3.725   1.026   7.491  0.4157 -0.5132  0.2246
  376MOL0     C50673   3.880   0.955   7.723 -0.0687  0.0992 -0.4031
  376MOL0     C50674   3.962   0.932   7.838  0.8508 -0.3075  0.0594
  376MOL0     N50675   4.355   0.636   7.878 -0.4395  0.2145 -1.2869
  376MOL0     N50676   4.276   0.573   7.797  0.6043 -0.1816 -0.1051
  376MOL0     C50677   3.792   0.904   6.641  0.1530  0.3333  0.6414
  376MOL0     C50678   3.750   0.964   6.526  0.5897  0.3368 -0.5341
  376MOL0     C50679   3.829   1.230   6.138 -0.1178 -0.4513  0.5836
  376MOL0     C50680   3.690   1.230   6.116  0.2482  0.0555 -0.8186
  376MOL0     C50681   3.625   1.280   5.999  0.1151 -0.1434 -0.4626
  376MOL0     C50682   3.704   1.347   5.905 -0.1355 -0.7877  0.6077
  376MOL0     O50683   3.668   1.396   5.774  1.4273 -0.2835 -0.2045
  376MOL0     C50684   3.566   1.319   5.704  0.4385 -0.2607 -0.5388
  376MOL0     C50685   3.599   1.321   5.559 -0.4166 -0.2555  0.5588
  376MOL0     C50686   3.489   1.232   5.483  0.3086  0.8833  1.2701
  376MOL0     C50687   3.437   1.313   5.363 -0.5450  0.2237  0.0366
  376MOL0     C50688   3.357   1.227   5.274 -0.3532 -0.1270  0.8002
  376MOL0     C50689   3.297   1.144   5.206  0.0870 -0.4962 -0.1924
  376MOL0     C50690   3.845   1.356   5.935 -0.4672  0.2502 -0.2850
  376MOL0     C50691   3.907   1.292   6.043  0.5545  0.2907  0.4917
  376MOL0     C50692   4.054   1.298   6.048 -0.3643 -0.4448  0.0668
  376MOL0     H50693   4.008   1.176   6.492  1.4704 -2.4167 -2.9216
  376MOL0     H50694   4.073   1.084   6.707 -2.2892  4.9735  1.1671
  376MOL0     H50695   4.140   0.880   6.844 -1.8506  1.4646 -3.2935
  376MOL0     H50696   4.075   1.011   6.932  3.7167 -1.1738  1.7476
  376MOL0     H50697   4.133   0.878   7.111  1.2560 -2.9595 -0.2968
  376MOL0     H50698   4.079   0.736   7.029  4.9287  0.2098  3.1075
  376MOL0     H50699   3.851   0.770   7.077 -0.1005 -0.2121  0.7004
  376MOL0     H50700   3.879   0.938   7.128  0.1654  0.9663 -1.4875
  376MOL0     H50701   4.041   0.854   7.307  2.6852 -3.3284 -0.8356
  376MOL0     H50702   3.868   0.829   7.314  1.0309  2.7595  0.4883
  376MOL0     H50703   3.898   0.594   7.218 -1.7833 -1.4430  3.5743
  376MOL0     H50704   4.068   0.616   7.220 -0.9920 -0.8637  1.0458
  376MOL0     H50705   3.894   0.637   7.467 -0.2086  0.0491 -0.3518
  376MOL0     H50706   3.963   0.481   7.416 -0.1545  0.3224  2.6508
  376MOL0     H50707   4.148   0.713   7.478 -0.1780 -0.7881 -1.6295
  376MOL0     H50708   4.183   0.543   7.476  1.9409  0.3013  0.9279
  376MOL0     H50709   4.009   0.719   7.679 -1.0534 -0.7817  0.3250
  376MOL0     H50710   4.035   0.546   7.705 -1.6808 -0.4389 -0.7637
  376MOL0     H50711   4.215   0.891   7.742 -1.0166  0.1128  3.5035
  376MOL0     H50712   4.495   0.850   7.967  0.0250  1.1902 -0.8580
  376MOL0     H50713   4.383   0.960   7.887 -1.2400 -1.1089 -0.5514
  376MOL0     H50714   4.241   0.822   8.093  0.8714 -1.5785  0.7899
  376MOL0     H50715   4.395   0.831   8.161 -0.7356  1.3245  2.0483
  376MOL0     H50716   4.385   1.066   8.180 -0.3705 -1.7801  1.1064
  376MOL0     H50717   4.232   0.998   8.220  1.7061  1.1245  1.1420
  376MOL0     H50718   4.276   1.133   7.949  1.1872 -1.0015 -0.8615
  376MOL0     H50719   4.178   1.193   8.093 -1.7518 -0.0674 -1.3137
  376MOL0     H50720   4.094   1.238   7.879 -1.3086  2.0215 -0.1965
  376MOL0     H50721   3.964   1.281   7.657  0.9934  0.1587 -0.1899
  376MOL0     H50722   3.557   1.316   7.422 -1.2929 -3.2093 -0.2953
  376MOL0     H50723   3.476   1.344   7.198 -0.3231 -1.6636 -3.2848
  376MOL0     H50724   3.660   1.204   6.799  0.7672  0.5599 -0.1533
  376MOL0     H50725   3.650   1.109   6.947 -1.1946 -1.1633 -1.1548
  376MOL0     H50726   3.437   1.059   6.810 -5.9152  1.6205 -0.9323
  376MOL0     H50727   3.393   1.145   6.952 -2.8301  1.4309 -1.1178
  376MOL0     H50728   3.277   1.258   6.774 -0.1506 -1.1139  3.1730
  376MOL0     H50729   3.410   1.368   6.809  3.5463  1.8903 -2.9042
  376MOL0     H50730   3.545   1.265   6.624  0.8599  0.3844  0.2912
  376MOL0     H50731   3.412   1.343   6.568 -0.8010 -0.4161 -0.4112
  376MOL0     H50732   3.293   1.106   6.581 -0.1334 -0.7247  1.0741
  376MOL0     H50733   3.447   1.029   6.609 -0.5914 -1.0536 -0.6559
  376MOL0     H50734   3.391   1.213   6.384  1.3752  0.1781  0.6981
  376MOL0     H50735   3.534   1.107   6.392  0.3015 -1.7681 -1.1363
  376MOL0     H50736   3.250   0.981   6.355 -0.4602 -2.4837  0.9131
  376MOL0     H50737   3.393   0.899   6.405  2.6227  1.8795  0.5410
  376MOL0     H50738   3.496   0.986   6.178  0.0185 -0.5419  2.3331
  376MOL0     H50739   3.370   0.866   6.159 -0.6775 -0.4512 -0.6723
  376MOL0     H50740   3.847   1.214   7.025 -0.4824  0.8397  0.2267
  376MOL0     H50741   3.940   1.193   7.264  1.5322 -0.2570 -2.1856
  376MOL0     H50742   3.828   0.865   7.692  0.9117 -0.1445 -1.3821
  376MOL0     H50743   3.965   0.834   7.884  1.5540 -0.2039  0.2506
  376MOL0     H50744   3.735   0.828   6.694 -1.0556 -0.5757 -1.8255
  376MOL0     H50745   3.653   0.942   6.483  0.0094  3.1300 -0.7878
  376MOL0     H50746   3.623   1.181   6.186  3.4537 -2.2096  0.9090
  376MOL0     H50747   3.520   1.260   5.984 -0.6052 -0.3847  3.8280
  376MOL0     H50748   3.464   1.358   5.702  0.7930  1.0994  2.2497
  376MOL0     H50749   3.565   1.215   5.739 -1.6015 -0.2443 -0.4120
  376MOL0     H50750   3.699   1.284   5.536 -0.0770  0.7669  0.3496
  376MOL0     H50751   3.586   1.424   5.524  0.9823 -0.4655 -0.6546
  376MOL0     H50752   3.405   1.206   5.547  1.1406 -1.3153  1.5564
  376MOL0     H50753   3.536   1.142   5.441  2.7670  1.4863  2.5358
  376MOL0     H50754   3.377   1.398   5.398  0.1260 -0.2715  2.5406
  376MOL0     H50755   3.518   1.355   5.303 -0.5466  0.9540  0.5335
  376MOL0     H50756   3.245   1.072   5.146 -2.5073  0.0211  1.2770
  376MOL0     H50757   3.906   1.404   5.860 -0.1391 -0.6449 -0.6095
  376MOL0     H50758   4.070   1.316   6.155 -3.0471 -2.7818  0.9792
  376MOL0     H50759   4.104   1.205   6.020 -1.9782 -0.6167 -2.5176
  376MOL0     H50760   4.096   1.373   5.981  1.6800 -2.1132 -0.6574
  377MOL0     O50761  10.228   4.198   5.532 -0.0525 -0.0069  0.1618
  377MOL0     C50762  10.148   4.134   5.466 -0.6478 -0.3012  0.0184
  377MOL0     O50763  10.148   3.996   5.460 -0.4946  0.1257 -0.3374
  377MOL0     C50764  10.238   3.927   5.542  0.4314 -0.0674 -0.5321
  377MOL0     C50765  10.200   3.909   5.674 -0.3393 -0.2090 -0.4735
  377MOL0     C50766  10.280   3.837   5.761  0.1445  0.2429 -0.5304
  377MOL0     C50767  10.389   3.766   5.721  0.5951 -0.6829 -0.0990
  377MOL0     O50768  10.467   3.689   5.805 -0.2529  0.5009  0.0436
  377MOL0     C50769  10.461   3.698   5.953  0.9215  1.5737  0.7629
  377MOL0     C50770  10.587   3.776   5.994  0.2470  0.4236 -0.7754
  377MOL0     C50771  10.618   3.753   6.140 -0.0743 -0.5421 -0.4918
  377MOL0     C50772  10.742   3.833   6.178 -0.0122  0.9782  0.0373
  377MOL0     C50773  10.773   3.842   6.323  0.9037  0.4304  0.3764
  377MOL0     C50774  10.919   3.847   6.356 -0.0148  1.1502 -0.0903
  377MOL0     C50775  11.009   3.951   6.289  0.2334 -1.5449  0.4014
  377MOL0     C50776  11.006   4.104   6.335  0.4406 -0.4450  0.3019
  377MOL0     N50777  11.120   4.193   6.308 -1.2338  0.7283  0.0929
  377MOL0     C50778  11.217   4.219   6.408 -0.3524  0.1270  0.8701
  377MOL0     C50779  11.319   4.285   6.341 -0.7432 -0.2433  0.0467
  377MOL0     C50780  11.439   4.345   6.401  0.7284 -0.1066  0.8593
  377MOL0     C50781  11.486   4.481   6.340 -0.1487  0.3938  0.5013
  377MOL0     C50782  11.547   4.474   6.194 -1.0888 -0.3033 -0.5495
  377MOL0     C50783  11.595   4.614   6.147  0.0438 -0.2985 -0.2353
  377MOL0     O50784  11.684   4.671   6.239 -0.3222 -0.5792  0.1856
  377MOL0     C50785  11.774   4.756   6.186  0.0467 -1.1126 -0.1571
  377MOL0     C50786  11.753   4.892   6.154  0.2409  0.2006 -1.0482
  377MOL0     C50787  11.854   4.962   6.090 -0.1023 -0.6609  0.0056
  377MOL0     C50788  11.981   4.901   6.054 -0.9141  0.2583 -0.4165
  377MOL0     C50789  12.091   4.971   5.990  0.0932  0.1888  1.3258
  377MOL0     O50790  12.203   4.897   5.957  0.2619 -0.4557 -0.2489
  377MOL0     C50791  12.318   4.951   5.900 -0.2924  0.0777  0.3075
  377MOL0     C50792  12.420   4.858   5.900 -0.5226 -0.6372 -0.2519
  377MOL0     C50793  12.555   4.898   5.873 -0.2909  0.3819  0.7120
  377MOL0     C50794  12.584   5.023   5.825  1.4146 -1.6567 -0.1725
  377MOL0     O50795  12.711   5.044   5.788 -0.1488  0.1531  0.5762
  377MOL0     C50796  12.766   5.167   5.832  0.5784  0.2131  0.2513
  377MOL0     C50797  12.916   5.169   5.820 -0.1237  0.0600 -0.5652
  377MOL0     C50798  12.992   5.093   5.929 -0.6030 -0.5450 -0.7502
  377MOL0     C50799  13.139   5.076   5.887 -0.5055  0.4047 -0.6146
  377MOL0     C50800  13.224   4.966   5.964  0.1901 -0.1667 -0.4531
  377MOL0     C50801  13.213   5.006   6.106 -0.9187  0.6200 -1.1225
  377MOL0     C50802  13.268   4.902   6.208 -0.6941  0.1097  0.4779
  377MOL0     C50803  13.205   4.919   6.338  0.1186  0.2185 -0.8140
  377MOL0    Cl50804  13.273   4.812   6.471  0.6409  0.2222  0.0482
  377MOL0     C50805  12.475   5.113   5.805  0.0149 -0.0086 -0.2973
  377MOL0     C50806  12.342   5.086   5.847  0.2829  0.5561  0.3234
  377MOL0     O50807  12.078   5.087   5.964  0.2554  0.2716  1.2868
  377MOL0     C50808  12.002   4.763   6.093  0.8340 -0.2009  0.4318
  377MOL0     C50809  11.891   4.689   6.147 -0.0820 -0.3692  0.3188
  377MOL0     N50810  11.287   4.266   6.204 -1.1315  0.8369  0.0746
  377MOL0     N50811  11.172   4.214   6.187  0.2056 -0.9072 -0.5315
  377MOL0     C50812  10.443   3.785   5.590 -0.1681  0.4592  0.5622
  377MOL0     C50813  10.359   3.856   5.500  0.4415 -0.6525  0.6455
  377MOL0     C50814  10.050   4.203   5.375 -0.4264  0.5629 -0.6022
  377MOL0     C50815   9.997   4.131   5.265  0.6382  0.6804 -1.1689
  377MOL0     C50816   9.923   4.188   5.165  0.3500  0.3419  0.7349
  377MOL0     C50817   9.910   4.328   5.165 -0.5379 -0.5184 -0.5336
  377MOL0     O50818   9.836   4.398   5.073 -0.1046  0.2105  0.1370
  377MOL0     C50819   9.807   4.339   4.941  0.0052  0.1002  0.2255
  377MOL0     C50820   9.932   4.324   4.864  0.9989  0.3743  0.8617
  377MOL0     C50821   9.972   4.450   4.786  0.7899  0.5987  0.0946
  377MOL0     C50822   9.871   4.485   4.672 -0.3551 -0.1885 -0.6768
  377MOL0     C50823   9.768   4.590   4.687 -0.2302 -0.3270  1.4027
  377MOL0     C50824   9.674   4.670   4.702 -0.4506  0.4164 -0.6189
  377MOL0     C50825   9.958   4.404   5.275  0.0742  0.8523  0.3546
  377MOL0     C50826  10.029   4.345   5.383  0.3560  0.1509 -0.8206
  377MOL0     C50827  10.088   4.436   5.493 -0.0792  0.0737 -0.7039
  377MOL0     H50828  10.098   3.939   5.695 -0.2837 -0.8980  0.8608
  377MOL0     H50829  10.250   3.824   5.865  3.2740 -1.7265  0.2828
  377MOL0     H50830  10.367   3.737   5.991  0.1244  0.1801  0.2792
  377MOL0     H50831  10.474   3.598   5.994  0.0202  1.0938 -0.0930
  377MOL0     H50832  10.560   3.880   5.975  0.2372  0.3673 -1.0617
  377MOL0     H50833  10.676   3.745   5.939  0.6615 -2.1896  1.1792
  377MOL0     H50834  10.628   3.644   6.147  0.8789 -0.6164 -2.3650
  377MOL0     H50835  10.528   3.783   6.195  2.3317  1.2896  2.7612
  377MOL0     H50836  10.828   3.794   6.124 -1.4183  0.6076 -2.0347
  377MOL0     H50837  10.729   3.938   6.152  0.3680  0.7226 -1.2214
  377MOL0     H50838  10.723   3.925   6.374 -0.1528  1.6842 -2.5026
  377MOL0     H50839  10.734   3.754   6.375  2.5823 -0.9270 -0.5854
  377MOL0     H50840  10.940   3.851   6.464  1.3363 -2.7793 -0.0524
  377MOL0     H50841  10.963   3.752   6.325 -3.0508 -1.2165  2.1548
  377MOL0     H50842  10.982   3.957   6.184  0.1881 -3.9782  0.2163
  377MOL0     H50843  11.114   3.924   6.303  0.9382  1.8300  3.1775
  377MOL0     H50844  10.920   4.158   6.294  1.1318 -1.4439 -2.7338
  377MOL0     H50845  11.005   4.100   6.444  0.7461 -3.0753  0.2670
  377MOL0     H50846  11.211   4.207   6.515  4.4194  2.0703  1.5780
  377MOL0     H50847  11.411   4.374   6.502 -1.5033  0.2428  0.1993
  377MOL0     H50848  11.511   4.262   6.410 -1.6224 -2.2624  0.9349
  377MOL0     H50849  11.399   4.548   6.339 -2.2005 -2.1282  0.7560
  377MOL0     H50850  11.552   4.524   6.416  0.7296  4.3497 -2.2140
  377MOL0     H50851  11.481   4.427   6.121  0.1009 -1.4371 -0.9344
  377MOL0     H50852  11.638   4.414   6.199 -0.0575  1.2270 -0.3486
  377MOL0     H50853  11.513   4.685   6.140  0.4944  0.6790  2.8216
  377MOL0     H50854  11.653   4.599   6.056 -1.7640  2.5518 -1.9710
  377MOL0     H50855  11.659   4.938   6.184  1.7773  2.3700  0.8332
  377MOL0     H50856  11.843   5.068   6.070 -1.2338 -0.3683  1.9317
  377MOL0     H50857  12.408   4.756   5.934 -0.1881 -1.0036 -1.1921
  377MOL0     H50858  12.642   4.834   5.881 -2.0742 -2.3808 -0.7209
  377MOL0     H50859  12.715   5.254   5.790  1.6081  0.7051 -0.0283
  377MOL0     H50860  12.742   5.167   5.939 -0.2619 -0.9967  0.0737
  377MOL0     H50861  12.936   5.123   5.723  0.2821 -1.2124  0.1009
  377MOL0     H50862  12.953   5.272   5.812  0.9564 -0.3323 -0.7004
  377MOL0     H50863  12.985   5.143   6.027 -3.6198 -3.5291  0.7771
  377MOL0     H50864  12.945   4.998   5.954 -1.7595  0.4738  1.1587
  377MOL0     H50865  13.187   5.175   5.888 -0.6661  0.4791  0.0486
  377MOL0     H50866  13.153   5.037   5.786 -0.7585  0.8595 -0.8337
  377MOL0     H50867  13.328   4.960   5.930  0.3486  0.6248 -0.1417
  377MOL0     H50868  13.184   4.865   5.955  0.8299 -0.2636 -3.0694
  377MOL0     H50869  13.268   5.099   6.121 -1.1181  0.3918  1.5007
  377MOL0     H50870  13.110   5.031   6.134 -0.6820  0.4332 -0.0479
  377MOL0     H50871  13.374   4.927   6.211 -0.1237 -1.2176 -3.3262
  377MOL0     H50872  13.252   4.804   6.163  0.4875  0.5451 -0.9577
  377MOL0     H50873  13.244   5.014   6.375  0.2407  1.0097 -2.8777
  377MOL0     H50874  13.096   4.923   6.345  0.1800 -0.3029  1.6101
  377MOL0     H50875  12.495   5.206   5.753 -3.4845 -0.3005 -2.5113
  377MOL0     H50876  12.270   5.165   5.829 -2.3852 -2.0190 -1.2391
  377MOL0     H50877  12.093   4.712   6.064 -0.0064 -0.6640 -1.5950
  377MOL0     H50878  11.897   4.581   6.150  0.1388 -0.3302  1.2714
  377MOL0     H50879  10.531   3.728   5.563 -0.9577 -0.4193 -0.2423
  377MOL0     H50880  10.379   3.845   5.394 -0.9619 -3.0339  0.5535
  377MOL0     H50881  10.013   4.025   5.249 -1.1089  0.0428  0.8159
  377MOL0     H50882   9.880   4.128   5.085  3.5745 -1.6253  0.2855
  377MOL0     H50883   9.741   4.409   4.889 -0.6720  0.5693  1.6868
  377MOL0     H50884   9.750   4.247   4.955 -0.5108  0.4242  0.2659
  377MOL0     H50885   9.919   4.236   4.801  1.4350  0.2259  0.9721
  377MOL0     H50886  10.016   4.297   4.929  0.3071  1.6824  2.3533
  377MOL0     H50887  10.072   4.429   4.746  0.1293 -5.2134  0.6436
  377MOL0     H50888   9.982   4.538   4.850  1.7152  0.1272  0.6214
  377MOL0     H50889   9.930   4.520   4.587 -0.1990 -0.8746 -0.8499
  377MOL0     H50890   9.814   4.398   4.639 -0.9154 -0.2503  0.4077
  377MOL0     H50891   9.598   4.744   4.717 -3.6978 -2.1392 -3.0367
  377MOL0     H50892   9.958   4.512   5.281  1.9525  0.8967  0.2754
  377MOL0     H50893  10.197   4.435   5.494 -0.0335 -1.8370 -2.1070
  377MOL0     H50894  10.050   4.539   5.492 -0.1110  0.0999  0.9289
  377MOL0     H50895  10.060   4.384   5.585  0.7987 -0.2653 -0.6133
  378MOL0     O50896   0.365   5.187   2.036  0.7000 -0.0968  0.4032
  378MOL0     C50897   0.253   5.231   2.015  1.0389  1.4086  0.3627
  378MOL0     O50898   0.142   5.189   2.082  0.7871  0.0821 -0.2720
  378MOL0     C50899   0.144   5.108   2.194  0.1938 -0.5596  0.4775
  378MOL0     C50900   0.092   5.164   2.318 -1.3693  0.9133  0.7619
  378MOL0     C50901   0.069   5.073   2.422  0.7776  0.0882 -1.2958
  378MOL0     C50902   0.099   4.941   2.419  1.0772  0.1919 -0.1468
  378MOL0     O50903   0.084   4.865   2.530 -0.7809  0.7800 -1.1100
  378MOL0     C50904   0.010   4.916   2.649 -0.2318  0.2035 -1.2270
  378MOL0     C50905  -0.004   4.816   2.762  0.6252  0.4070  0.5664
  378MOL0     C50906  -0.064   4.872   2.889 -0.0196 -0.0008 -0.2561
  378MOL0     C50907  -0.213   4.915   2.883 -1.1299  0.2447 -0.6352
  378MOL0     C50908  -0.257   4.979   3.017  0.3198 -0.2758 -0.5995
  378MOL0     C50909  -0.174   5.098   3.062 -0.9911 -0.3626  0.0436
  378MOL0     C50910  -0.242   5.170   3.167  0.6730 -0.2646 -0.9353
  378MOL0     C50911  -0.197   5.309   3.200  0.4315  0.3711 -0.6651
  378MOL0     N50912  -0.067   5.316   3.282  0.6879  0.2842  0.4081
  378MOL0     C50913  -0.009   5.439   3.312 -0.5558 -0.0061 -0.3770
  378MOL0     C50914   0.116   5.412   3.372  1.2433  0.8669  0.4577
  378MOL0     C50915   0.223   5.510   3.408 -0.5386 -0.4386  0.7024
  378MOL0     C50916   0.333   5.461   3.501 -0.4411  0.5072 -0.3148
  378MOL0     C50917   0.307   5.388   3.627 -0.2037 -0.5164 -0.3460
  378MOL0     C50918   0.435   5.338   3.695  0.3618 -0.1519  0.4220
  378MOL0     O50919   0.393   5.316   3.834 -0.2726 -0.4226  0.6176
  378MOL0     C50920   0.459   5.373   3.932 -0.1669 -0.4598 -0.7019
  378MOL0     C50921   0.601   5.366   3.952  0.8443  0.4980  0.7093
  378MOL0     C50922   0.660   5.432   4.060  0.7072  0.0051  0.0005
  378MOL0     C50923   0.579   5.491   4.162  0.0105  0.4280  0.7564
  378MOL0     C50924   0.648   5.550   4.282  0.3668  0.0705 -0.6081
  378MOL0     O50925   0.783   5.515   4.307  0.1898 -1.1724 -0.4249
  378MOL0     C50926   0.863   5.605   4.373 -0.1934 -1.0328  0.8940
  378MOL0     C50927   0.849   5.747   4.357  1.0101 -0.0565  1.2120
  378MOL0     C50928   0.932   5.829   4.430  0.1780 -0.5690 -0.1770
  378MOL0     C50929   1.036   5.772   4.506 -0.2788 -0.0782  0.6200
  378MOL0     O50930   1.134   5.864   4.558  0.7388 -0.1602 -0.0002
  378MOL0     C50931   1.273   5.829   4.563  0.3044 -0.1812  0.2586
  378MOL0     C50932   1.346   5.933   4.634  0.3591 -1.0346  0.0814
  378MOL0     C50933   1.492   5.893   4.688 -0.3416  0.5547  0.7317
  378MOL0     C50934   1.571   6.010   4.739 -0.3329 -0.2767 -0.0942
  378MOL0     C50935   1.677   5.987   4.835 -0.2564  0.0968  0.1853
  378MOL0     C50936   1.721   6.116   4.886  0.0542 -0.6978 -0.3819
  378MOL0     C50937   1.851   6.091   4.971  0.4195 -0.9401  0.7588
  378MOL0     C50938   1.889   6.215   5.049  0.6979  0.2552  0.0228
  378MOL0    Cl50939   1.761   6.272   5.155  0.6821  0.1384 -0.1142
  378MOL0     C50940   1.056   5.637   4.511  0.3249  0.6150  0.8562
  378MOL0     C50941   0.962   5.553   4.450 -0.6363 -0.0940  0.0496
  378MOL0     O50942   0.575   5.628   4.348  0.3845 -0.4189 -0.7710
  378MOL0     C50943   0.444   5.511   4.139  0.1772 -0.5774  0.2034
  378MOL0     C50944   0.389   5.452   4.026 -0.9138  0.0062  0.9656
  378MOL0     N50945   0.120   5.267   3.376  0.5307  0.0707  0.8361
  378MOL0     N50946   0.014   5.211   3.320  0.9328  0.6910 -0.4535
  378MOL0     C50947   0.147   4.892   2.300 -0.0073  0.1756 -0.8093
  378MOL0     C50948   0.169   4.977   2.191 -0.0167 -0.4944  0.7456
  378MOL0     C50949   0.218   5.326   1.905 -0.7212  0.3939  0.1064
  378MOL0     C50950   0.116   5.420   1.937  0.2309  0.0111  0.5887
  378MOL0     C50951   0.072   5.509   1.837  0.3041  0.2434 -0.5037
  378MOL0     C50952   0.137   5.510   1.718  0.4704  0.3948  0.5383
  378MOL0     O50953   0.100   5.612   1.637 -1.1101  0.2175 -0.2941
  378MOL0     C50954   0.156   5.630   1.512 -0.1393  0.0769  0.0358
  378MOL0     C50955   0.107   5.532   1.404 -0.6757 -0.0129 -0.3042
  378MOL0     C50956   0.195   5.512   1.285  0.3218 -0.2775 -0.1636
  378MOL0     C50957   0.311   5.415   1.322 -0.0888 -0.1580  0.6148
  378MOL0     C50958   0.263   5.287   1.377 -0.3373 -0.1952 -0.0981
  378MOL0     C50959   0.208   5.194   1.421 -0.2056 -0.9592 -0.3863
  378MOL0     C50960   0.240   5.420   1.687  0.8306  1.0328 -0.1158
  378MOL0     C50961   0.285   5.330   1.781 -0.4813 -0.3323 -0.2129
  378MOL0     C50962   0.398   5.228   1.743  0.0152 -0.0765 -1.1003
  378MOL0     H50963   0.076   5.271   2.327 -1.8816  0.7185  2.9673
  378MOL0     H50964   0.011   5.119   2.501 -0.8861  0.1585 -2.5215
  378MOL0     H50965   0.065   5.006   2.682 -2.6853  0.8019  1.6684
  378MOL0     H50966  -0.088   4.941   2.608  0.2980  1.7046 -1.6687
  378MOL0     H50967   0.093   4.768   2.782 -0.4685 -2.0291  0.4420
  378MOL0     H50968  -0.068   4.734   2.727 -0.8401 -0.3237  4.4189
  378MOL0     H50969  -0.011   4.965   2.913 -1.4661  0.4771  1.2168
  378MOL0     H50970  -0.052   4.796   2.967 -0.1330  0.7874  0.5516
  378MOL0     H50971  -0.219   4.993   2.806 -1.0554 -2.9772 -4.2493
  378MOL0     H50972  -0.285   4.839   2.850 -0.2633  0.4582 -3.2362
  378MOL0     H50973  -0.361   5.010   3.002  0.2664 -1.7425 -4.3290
  378MOL0     H50974  -0.257   4.910   3.101 -2.7522 -0.2870 -0.4795
  378MOL0     H50975  -0.075   5.073   3.102 -0.1816 -0.2949 -1.7807
  378MOL0     H50976  -0.158   5.162   2.974  0.2150 -0.9873 -0.2086
  378MOL0     H50977  -0.260   5.106   3.254 -2.9673  1.1301 -0.4945
  378MOL0     H50978  -0.347   5.188   3.145 -1.2879 -4.5068  3.1966
  378MOL0     H50979  -0.176   5.351   3.102  1.8243 -0.0498 -0.5669
  378MOL0     H50980  -0.278   5.354   3.259  0.7533  1.8237 -1.2803
  378MOL0     H50981  -0.053   5.534   3.285 -0.1066  1.1535  2.5703
  378MOL0     H50982   0.280   5.545   3.322  2.2928 -1.0850  2.1681
  378MOL0     H50983   0.174   5.590   3.465  0.2326 -1.9578  3.7531
  378MOL0     H50984   0.388   5.394   3.434 -0.4987  0.2154 -0.0721
  378MOL0     H50985   0.388   5.552   3.527  0.0317  0.2707 -0.4585
  378MOL0     H50986   0.239   5.305   3.609 -2.2026  1.2233 -1.1986
  378MOL0     H50987   0.262   5.460   3.696  2.1925  5.0240 -3.7657
  378MOL0     H50988   0.516   5.410   3.677  1.1263 -1.7080 -3.2810
  378MOL0     H50989   0.474   5.242   3.659  0.8644  1.2020 -3.0570
  378MOL0     H50990   0.657   5.314   3.875 -0.6501 -0.1367  0.0113
  378MOL0     H50991   0.768   5.433   4.071  0.5527  0.8303  1.6787
  378MOL0     H50992   0.776   5.798   4.296  0.2156 -3.2731 -0.7755
  378MOL0     H50993   0.932   5.937   4.426  0.9979 -0.4673  1.6105
  378MOL0     H50994   1.280   5.733   4.615 -1.3706 -0.7753 -0.5443
  378MOL0     H50995   1.324   5.812   4.468 -2.5551  0.0628 -1.4508
  378MOL0     H50996   1.360   6.025   4.577  1.8348 -1.8470 -0.9459
  378MOL0     H50997   1.285   5.955   4.721  1.1874  0.3317  0.3463
  378MOL0     H50998   1.486   5.821   4.770  0.8624 -2.9470 -1.9718
  378MOL0     H50999   1.552   5.842   4.611 -2.0874 -1.0386  0.3608
  378MOL0     H51000   1.497   6.077   4.784  2.5731  2.1462  1.4698
  378MOL0     H51001   1.608   6.065   4.652  0.8170 -0.4164  0.2878
  378MOL0     H51002   1.753   5.933   4.777 -1.2155 -0.2017 -0.8190
  378MOL0     H51003   1.629   5.922   4.909 -0.9507 -1.5949 -1.6622
  378MOL0     H51004   1.752   6.186   4.809 -2.5815  1.9266  0.7410
  378MOL0     H51005   1.641   6.165   4.943 -0.9828 -1.5686 -1.0465
  378MOL0     H51006   1.930   6.064   4.902 -0.1244 -0.5414 -0.0309
  378MOL0     H51007   1.847   6.013   5.048  1.6459  0.7980  2.6998
  378MOL0     H51008   1.969   6.182   5.115 -0.8471  0.1701  1.9467
  378MOL0     H51009   1.931   6.301   4.996  1.7880 -0.0275  0.4043
  378MOL0     H51010   1.129   5.580   4.567 -0.6128 -2.1214 -0.4656
  378MOL0     H51011   0.971   5.445   4.452 -3.3556 -0.3855  0.8168
  378MOL0     H51012   0.387   5.583   4.198  0.6794  1.8539 -2.0620
  378MOL0     H51013   0.281   5.460   4.030 -1.0029 -1.0073  0.7762
  378MOL0     H51014   0.172   4.786   2.290  1.0164  0.5385 -2.6235
  378MOL0     H51015   0.223   4.937   2.106  0.3972  0.1313  0.7019
  378MOL0     H51016   0.061   5.416   2.031  0.0108 -0.0565  0.4559
  378MOL0     H51017  -0.005   5.579   1.869 -2.9883 -2.7088 -1.3138
  378MOL0     H51018   0.264   5.648   1.508  0.2311 -2.0782 -3.3098
  378MOL0     H51019   0.111   5.725   1.482 -1.0400  0.5161  2.4846
  378MOL0     H51020   0.009   5.558   1.363 -1.2227 -2.8743 -1.0316
  378MOL0     H51021   0.078   5.439   1.453 -4.1157 -0.3859 -2.6734
  378MOL0     H51022   0.235   5.597   1.229  2.5655 -1.6823 -0.8016
  378MOL0     H51023   0.125   5.458   1.221 -0.6193  0.8148 -0.0954
  378MOL0     H51024   0.347   5.379   1.225  1.6432  1.9974  0.3788
  378MOL0     H51025   0.396   5.461   1.374  0.9054  1.5224 -2.2316
  378MOL0     H51026   0.144   5.120   1.465  0.2408 -1.1086  0.0219
  378MOL0     H51027   0.291   5.415   1.591  3.8970 -1.5424  1.4529
  378MOL0     H51028   0.482   5.262   1.804 -0.5934  2.3321 -1.5096
  378MOL0     H51029   0.360   5.132   1.779  0.6611 -0.2173 -0.7885
  378MOL0     H51030   0.429   5.226   1.638  0.6712  3.9787 -1.1363
  379MOL0     O51031  10.425   7.708   4.682 -0.8018  1.2175  0.1583
  379MOL0     C51032  10.421   7.602   4.745 -0.7136  1.1816  0.8413
  379MOL0     O51033  10.476   7.488   4.707  0.0136  0.3776  0.4538
  379MOL0     C51034  10.535   7.475   4.586 -0.3447  0.0831  0.2310
  379MOL0     C51035  10.455   7.454   4.471  0.7627 -0.4541 -0.0456
  379MOL0     C51036  10.512   7.419   4.347 -0.0218  0.2943  0.8295
  379MOL0     C51037  10.646   7.386   4.344  0.4579  0.3548  0.3788
  379MOL0     O51038  10.705   7.334   4.235 -0.1021  0.3559 -0.7705
  379MOL0     C51039  10.629   7.319   4.115  0.2852  0.2524 -0.6143
  379MOL0     C51040  10.722   7.305   4.002  1.0664 -0.1667  0.0195
  379MOL0     C51041  10.660   7.329   3.861 -0.3487  0.0375 -1.1967
  379MOL0     C51042  10.749   7.264   3.749  0.1568 -1.1247 -0.0465
  379MOL0     C51043  10.675   7.289   3.614 -0.1307 -0.5639  0.1888
  379MOL0     C51044  10.732   7.216   3.492  0.3390 -0.4499  0.1656
  379MOL0     C51045  10.650   7.250   3.362 -0.3698 -0.0788  0.0114
  379MOL0     C51046  10.656   7.136   3.261 -0.3904  0.4892 -1.0444
  379MOL0     N51047  10.566   7.175   3.157 -0.7397  0.3058  0.5158
  379MOL0     C51048  10.432   7.162   3.158  0.0633  0.5761  0.2751
  379MOL0     C51049  10.391   7.198   3.032  0.3885  0.1209 -0.0511
  379MOL0     C51050  10.248   7.205   2.988  0.6061 -0.0030 -0.3555
  379MOL0     C51051  10.230   7.146   2.845 -0.1697 -0.6401 -0.7331
  379MOL0     C51052  10.283   6.999   2.844 -0.1817 -0.3470 -0.0730
  379MOL0     C51053  10.226   6.931   2.722 -0.0908  0.4706  0.1809
  379MOL0     O51054  10.207   6.786   2.740  0.3072  0.5371  0.1256
  379MOL0     C51055  10.313   6.699   2.725 -0.3293 -0.9658  0.6819
  379MOL0     C51056  10.284   6.565   2.731  0.5124  0.7973 -0.3045
  379MOL0     C51057  10.378   6.463   2.742  0.3633 -0.1493 -0.7548
  379MOL0     C51058  10.504   6.502   2.716 -0.6374  0.5625  0.4366
  379MOL0     C51059  10.613   6.399   2.714  0.4618 -1.1773  0.7123
  379MOL0     O51060  10.736   6.435   2.695 -0.1059 -0.3343 -0.5652
  379MOL0     C51061  10.838   6.347   2.661 -0.6368 -0.1102 -0.0658
  379MOL0     C51062  10.842   6.217   2.650 -0.6339 -0.2665 -0.5421
  379MOL0     C51063  10.948   6.132   2.628 -0.6342  0.1196  0.0461
  379MOL0     C51064  11.064   6.198   2.583  0.1084 -0.2378  0.3948
  379MOL0     O51065  11.170   6.129   2.532 -0.2754  0.8068  0.2522
  379MOL0     C51066  11.156   5.988   2.518 -1.2280  0.4786  0.8393
  379MOL0     C51067  11.277   5.934   2.440  1.6594 -0.4429  0.5583
  379MOL0     C51068  11.410   5.942   2.513  0.3175 -0.5198 -0.2123
  379MOL0     C51069  11.490   6.061   2.468  0.7501 -0.5952  0.9220
  379MOL0     C51070  11.599   6.097   2.562  0.1551 -0.2496  0.0928
  379MOL0     C51071  11.679   6.211   2.502  1.7609  1.0034  0.2804
  379MOL0     C51072  11.818   6.224   2.550 -0.5583  0.2556 -0.1827
  379MOL0     C51073  11.921   6.147   2.474 -0.3037 -0.0948  0.7058
  379MOL0    Cl51074  12.064   6.150   2.559 -0.0254  0.4163 -0.2792
  379MOL0     C51075  11.067   6.336   2.579 -0.1636  0.0433  0.2496
  379MOL0     C51076  10.964   6.405   2.626  0.3819 -0.1129  1.1692
  379MOL0     O51077  10.583   6.283   2.739  0.4746  0.2105  0.8591
  379MOL0     C51078  10.539   6.637   2.705 -0.0577 -0.0333 -0.0061
  379MOL0     C51079  10.445   6.737   2.722  1.1080 -0.9352  0.2219
  379MOL0     N51080  10.497   7.236   2.955 -0.0091  0.4973  0.1347
  379MOL0     N51081  10.603   7.220   3.033  0.0783 -1.1836  0.2563
  379MOL0     C51082  10.727   7.407   4.459 -1.0012  0.5487  0.9550
  379MOL0     C51083  10.675   7.461   4.579  0.7031 -0.6990  0.4297
  379MOL0     C51084  10.360   7.597   4.878  0.1060  0.4995 -1.0801
  379MOL0     C51085  10.337   7.460   4.929 -0.3491 -0.5470 -0.5022
  379MOL0     C51086  10.283   7.446   5.057 -0.8356 -0.6142  0.0080
  379MOL0     C51087  10.259   7.561   5.140 -0.1667  0.7307  0.8747
  379MOL0     O51088  10.225   7.555   5.270 -0.3247 -0.1773 -0.3930
  379MOL0     C51089  10.094   7.489   5.295  0.5029 -0.3868 -0.0227
  379MOL0     C51090  10.110   7.424   5.429 -0.1837 -0.0517 -0.5981
  379MOL0     C51091   9.980   7.383   5.494 -1.1802 -0.5792 -0.8437
  379MOL0     C51092   9.965   7.425   5.634 -0.7640  0.5010  0.6044
  379MOL0     C51093  10.047   7.343   5.725  0.4761 -0.2606  1.8327
  379MOL0     C51094  10.130   7.274   5.784 -0.3535 -0.4922 -0.0702
  379MOL0     C51095  10.270   7.686   5.086  0.0480 -0.2702 -0.0717
  379MOL0     C51096  10.314   7.702   4.955  0.3972  0.0992 -0.9018
  379MOL0     C51097  10.303   7.846   4.902 -0.7943  0.4475 -0.5278
  379MOL0     H51098  10.347   7.451   4.478  0.7447  1.1297  0.6818
  379MOL0     H51099  10.444   7.411   4.262  0.6093 -1.3387  0.4374
  379MOL0     H51100  10.568   7.230   4.132  1.9930 -0.9430 -0.5362
  379MOL0     H51101  10.569   7.410   4.103 -0.6229 -0.1950  0.3590
  379MOL0     H51102  10.759   7.202   4.002 -0.0928 -0.7224 -3.1675
  379MOL0     H51103  10.800   7.380   4.013  0.2160  0.7741 -0.2893
  379MOL0     H51104  10.652   7.437   3.845 -0.4049  0.5961  2.0166
  379MOL0     H51105  10.558   7.288   3.867 -1.5353  2.9147  0.4558
  379MOL0     H51106  10.855   7.289   3.746 -0.1389  1.4768  3.9582
  379MOL0     H51107  10.741   7.157   3.771 -1.6299 -1.2609 -1.1250
  379MOL0     H51108  10.568   7.284   3.636  0.2477 -2.6554  1.8959
  379MOL0     H51109  10.694   7.395   3.595  0.0458 -0.9642 -2.2071
  379MOL0     H51110  10.838   7.242   3.480  0.7050 -0.8319  2.1972
  379MOL0     H51111  10.726   7.110   3.517 -0.1957 -0.4861 -0.0966
  379MOL0     H51112  10.700   7.338   3.319  0.7229 -1.4763 -1.6933
  379MOL0     H51113  10.549   7.279   3.392 -0.5051 -1.1456  0.6147
  379MOL0     H51114  10.757   7.125   3.221 -0.1540 -2.6927  0.1960
  379MOL0     H51115  10.629   7.038   3.301 -2.2220  2.4552  3.2037
  379MOL0     H51116  10.364   7.147   3.241  1.9844 -1.3560  1.6177
  379MOL0     H51117  10.186   7.144   3.055  2.9798 -2.9522 -0.6047
  379MOL0     H51118  10.216   7.309   2.989  1.5780  0.2938  0.4669
  379MOL0     H51119  10.126   7.146   2.810  0.5060  0.1805 -2.9495
  379MOL0     H51120  10.283   7.212   2.775  2.2736  0.1575  1.7174
  379MOL0     H51121  10.243   6.935   2.924 -2.5353 -0.2804 -1.1223
  379MOL0     H51122  10.392   7.008   2.841 -0.3431  2.0265 -2.7505
  379MOL0     H51123  10.300   6.933   2.641  2.2588 -2.5897  2.0141
  379MOL0     H51124  10.135   6.977   2.682  0.4718  2.0506  0.6650
  379MOL0     H51125  10.185   6.521   2.746  1.7051 -1.2144  2.6469
  379MOL0     H51126  10.354   6.360   2.767  1.7966 -0.1465  0.7710
  379MOL0     H51127  10.752   6.162   2.677 -2.0450  0.2469 -3.8092
  379MOL0     H51128  10.943   6.024   2.643 -1.0024 -0.1855 -2.0120
  379MOL0     H51129  11.160   5.938   2.616 -0.3948 -1.7994 -0.2905
  379MOL0     H51130  11.061   5.956   2.475  0.2637 -0.9649 -1.6038
  379MOL0     H51131  11.264   5.828   2.416  0.6059  0.2863 -2.5567
  379MOL0     H51132  11.282   5.982   2.341 -0.7764  1.1449  1.1256
  379MOL0     H51133  11.389   5.939   2.620 -0.7687  3.0917 -0.1697
  379MOL0     H51134  11.463   5.847   2.513 -3.6948 -3.0209  0.5191
  379MOL0     H51135  11.419   6.143   2.462  0.7614 -0.4264  2.6055
  379MOL0     H51136  11.525   6.037   2.367  0.8291 -1.1017  1.0640
  379MOL0     H51137  11.666   6.012   2.576 -0.2236 -1.2430 -3.2909
  379MOL0     H51138  11.562   6.133   2.659 -1.7576  2.0983 -1.3792
  379MOL0     H51139  11.686   6.189   2.395  0.6669 -0.6719  0.5152
  379MOL0     H51140  11.622   6.303   2.516  0.8054  0.2504  1.5390
  379MOL0     H51141  11.801   6.195   2.654 -1.4276  0.6630 -0.2036
  379MOL0     H51142  11.835   6.332   2.553 -1.5775  0.4263 -0.2913
  379MOL0     H51143  11.886   6.043   2.470  1.2974 -0.7511 -5.3190
  379MOL0     H51144  11.937   6.175   2.370 -1.7860 -0.4473  0.3574
  379MOL0     H51145  11.153   6.396   2.550 -2.2376  2.9410 -0.2983
  379MOL0     H51146  10.960   6.513   2.615  0.1133 -0.2241  0.1277
  379MOL0     H51147  10.643   6.665   2.691  0.5582 -3.0409 -2.6820
  379MOL0     H51148  10.487   6.837   2.728  0.7726 -0.8393  1.1494
  379MOL0     H51149  10.831   7.375   4.457 -0.6554  1.5331 -1.6651
  379MOL0     H51150  10.740   7.467   4.665  2.7853 -1.3925 -1.0154
  379MOL0     H51151  10.350   7.369   4.872  1.0826 -0.5908 -0.1434
  379MOL0     H51152  10.265   7.345   5.092 -0.7454  0.2405  2.8186
  379MOL0     H51153  10.070   7.403   5.233  0.3786 -0.0528 -0.4433
  379MOL0     H51154  10.010   7.557   5.284 -0.2533 -1.2421  0.3655
  379MOL0     H51155  10.152   7.495   5.501 -0.2416 -0.3546 -0.2632
  379MOL0     H51156  10.180   7.341   5.426 -0.5018 -0.5392  2.4385
  379MOL0     H51157   9.973   7.275   5.481 -1.4869 -0.7436  0.5683
  379MOL0     H51158   9.900   7.431   5.435 -1.8430  2.0351  1.9148
  379MOL0     H51159   9.992   7.531   5.635 -1.2395  0.7266 -2.4149
  379MOL0     H51160   9.861   7.408   5.663 -0.3356 -3.2995  0.3411
  379MOL0     H51161  10.203   7.214   5.834  1.2989 -0.0847 -1.8730
  379MOL0     H51162  10.239   7.773   5.143  1.0026  0.8875 -1.2429
  379MOL0     H51163  10.246   7.914   4.965 -0.2709 -1.9036  2.7461
  379MOL0     H51164  10.397   7.898   4.879  0.0888  1.0261  3.6604
  379MOL0     H51165  10.243   7.847   4.810 -1.5846 -0.4805 -0.0475
  380MOL0     O51166   9.749   8.430   9.470 -0.7033  0.3452 -0.3399
  380MOL0     C51167   9.649   8.401   9.404  0.0362 -1.2029  0.6285
  380MOL0     O51168   9.605   8.481   9.304 -0.1411  0.1556  0.4789
  380MOL0     C51169   9.680   8.583   9.251 -0.7394 -0.1255 -0.1119
  380MOL0     C51170   9.613   8.690   9.190 -0.2945 -0.6532 -0.3054
  380MOL0     C51171   9.675   8.807   9.140 -0.5223  1.2272  0.6468
  380MOL0     C51172   9.815   8.806   9.119  0.3139  0.4173  1.0835
  380MOL0     O51173   9.897   8.898   9.065 -0.4435 -0.6545 -0.5478
  380MOL0     C51174   9.842   9.019   9.029  0.4138  0.0719 -0.4466
  380MOL0     C51175   9.933   9.106   8.941 -0.2376 -0.4892  0.3762
  380MOL0     C51176  10.075   9.159   9.011  0.2044 -0.4019 -0.7952
  380MOL0     C51177  10.170   9.048   9.035 -0.2673 -0.4832 -0.7931
  380MOL0     C51178  10.311   9.107   9.060 -0.0534  0.5539  1.4545
  380MOL0     C51179  10.324   9.149   9.200 -0.1331 -0.5339 -0.0070
  380MOL0     C51180  10.474   9.193   9.224 -0.0778  0.2531 -0.0546
  380MOL0     C51181  10.504   9.190   9.376  1.1327  0.1307 -1.1814
  380MOL0     N51182  10.644   9.184   9.409 -0.0096  0.2788  0.7693
  380MOL0     C51183  10.756   9.254   9.358  0.1201 -0.3453  0.7627
  380MOL0     C51184  10.860   9.202   9.426  1.0520  0.9739  0.2235
  380MOL0     C51185  10.997   9.246   9.411  0.0177 -0.1964 -0.0002
  380MOL0     C51186  11.065   9.165   9.305 -0.0595 -0.6696  0.3611
  380MOL0     C51187  11.090   9.018   9.335 -0.4860  0.9287 -0.3910
  380MOL0     C51188  11.145   8.993   9.476  0.1950 -0.1338  0.7230
  380MOL0     O51189  11.175   8.847   9.481 -0.1959 -0.1102 -0.0735
  380MOL0     C51190  11.084   8.753   9.533 -0.3860 -0.4408 -0.2758
  380MOL0     C51191  11.118   8.619   9.514 -0.2675 -0.9606 -0.3112
  380MOL0     C51192  11.030   8.512   9.544  1.2700  0.2666 -0.2937
  380MOL0     C51193  10.896   8.550   9.596  0.0619  0.8684 -0.3018
  380MOL0     C51194  10.787   8.449   9.599  0.1391  0.4148 -0.3994
  380MOL0     O51195  10.786   8.356   9.506 -0.6034 -0.8917 -0.1260
  380MOL0     C51196  10.676   8.273   9.499  0.2168  0.7798  0.6469
  380MOL0     C51197  10.573   8.307   9.404 -0.1704  0.8793  0.6467
  380MOL0     C51198  10.449   8.229   9.404 -0.2639 -0.2487 -0.1736
  380MOL0     C51199  10.433   8.122   9.486  0.0182  0.0630  0.3330
  380MOL0     O51200  10.314   8.052   9.510 -0.7260  0.8218 -0.4454
  380MOL0     C51201  10.202   8.066   9.411  0.5534 -0.2218 -0.7171
  380MOL0     C51202  10.088   7.966   9.454 -0.6208 -0.5573  0.4742
  380MOL0     C51203  10.043   7.981   9.592 -0.1911 -0.0765 -0.1259
  380MOL0     C51204   9.960   7.857   9.636 -0.2981 -0.6684  0.1305
  380MOL0     C51205   9.908   7.870   9.783 -0.0091 -0.3593 -0.3038
  380MOL0     C51206   9.804   7.762   9.833 -0.4604  0.7811 -0.6677
  380MOL0     C51207   9.765   7.802   9.974 -0.9331 -0.8191 -1.1397
  380MOL0     C51208   9.871   7.789  10.091 -1.3073 -0.2293 -0.1595
  380MOL0    Cl51209   9.818   7.847  10.249 -0.6780  0.0833 -0.0567
  380MOL0     C51210  10.539   8.099   9.572  0.7889  0.5523  0.6018
  380MOL0     C51211  10.660   8.160   9.578 -0.6406  0.2840  0.6426
  380MOL0     O51212  10.697   8.467   9.685 -1.2792 -0.2801  0.1909
  380MOL0     C51213  10.861   8.682   9.620 -0.6306  0.0524  0.1611
  380MOL0     C51214  10.957   8.781   9.596  0.6943 -0.1309  0.2720
  380MOL0     N51215  10.812   9.095   9.505 -0.3330  0.0479 -0.5831
  380MOL0     N51216  10.682   9.090   9.496 -0.3865  0.2482  0.0291
  380MOL0     C51217   9.883   8.697   9.182  0.1377 -0.6222 -0.3262
  380MOL0     C51218   9.818   8.583   9.229  0.3628  0.4762 -0.6501
  380MOL0     C51219   9.591   8.261   9.412  0.2003  0.5002 -0.0007
  380MOL0     C51220   9.639   8.185   9.519 -0.5259  0.0760  0.9070
  380MOL0     C51221   9.596   8.061   9.539  0.5826  0.3673  0.4213
  380MOL0     C51222   9.495   8.002   9.455 -0.5796  0.6403 -0.6882
  380MOL0     O51223   9.447   7.877   9.487 -0.6958  0.2378  0.2741
  380MOL0     C51224   9.381   7.880   9.615 -0.0975 -0.2088  0.4669
  380MOL0     C51225   9.333   7.744   9.661  0.3494  0.3752 -1.2468
  380MOL0     C51226   9.196   7.718   9.601 -0.0016  0.0730 -0.8264
  380MOL0     C51227   9.151   7.562   9.613  0.6920 -0.6495  0.1341
  380MOL0     C51228   9.242   7.477   9.536  0.9737 -0.3308  0.1241
  380MOL0     C51229   9.302   7.422   9.452 -0.4759 -0.2419 -0.3011
  380MOL0     C51230   9.444   8.082   9.354  0.1982 -0.2507 -0.1161
  380MOL0     C51231   9.484   8.203   9.329  0.9118 -0.7859 -0.1627
  380MOL0     C51232   9.424   8.259   9.215 -0.0917 -0.0585  0.7768
  380MOL0     H51233   9.504   8.681   9.186 -0.2535 -0.7390 -1.5776
  380MOL0     H51234   9.615   8.867   9.072  1.1630  0.3378 -1.7351
  380MOL0     H51235   9.746   9.000   8.980 -1.0494  1.2953  1.7796
  380MOL0     H51236   9.827   9.080   9.119 -0.5806  0.3965 -0.8123
  380MOL0     H51237   9.878   9.189   8.897  0.5295  0.9039  1.9615
  380MOL0     H51238   9.961   9.042   8.856 -1.1435  1.5507 -1.5507
  380MOL0     H51239  10.045   9.213   9.102 -2.7243 -2.0685 -0.6730
  380MOL0     H51240  10.108   9.250   8.960 -0.9689  1.7144  1.9386
  380MOL0     H51241  10.148   8.982   9.120  2.8010 -1.1262 -0.3750
  380MOL0     H51242  10.162   8.991   8.942 -0.2780 -3.6769  1.0235
  380MOL0     H51243  10.383   9.028   9.038  0.4230  1.5155 -0.6963
  380MOL0     H51244  10.342   9.200   9.011 -1.6397  3.7307  5.8269
  380MOL0     H51245  10.259   9.235   9.221  1.1199  0.1995  1.0027
  380MOL0     H51246  10.290   9.072   9.269  1.7574  1.1325  3.0258
  380MOL0     H51247  10.492   9.294   9.184 -0.0035  0.5496  0.7060
  380MOL0     H51248  10.543   9.122   9.178 -0.4226 -0.1856  0.1006
  380MOL0     H51249  10.459   9.280   9.418 -1.8180 -1.6995 -0.0880
  380MOL0     H51250  10.454   9.103   9.420  2.3226 -0.2767 -0.5714
  380MOL0     H51251  10.761   9.334   9.285  1.9539 -1.0039  0.1085
  380MOL0     H51252  10.978   9.350   9.381 -3.0371 -1.0690 -1.4791
  380MOL0     H51253  11.053   9.239   9.504  2.3714  1.9134 -1.1347
  380MOL0     H51254  10.993   9.182   9.225  0.4772 -0.2592 -0.0482
  380MOL0     H51255  11.153   9.221   9.271 -1.4443  2.0766  0.9888
  380MOL0     H51256  11.150   8.981   9.251  2.2459  3.1734  0.3938
  380MOL0     H51257  10.998   8.961   9.319  0.5900 -1.7184  2.0436
  380MOL0     H51258  11.082   9.020   9.561 -0.3392  0.1941  0.2330
  380MOL0     H51259  11.244   9.035   9.490  0.8538 -1.3731  0.0084
  380MOL0     H51260  11.211   8.608   9.459 -0.2149  1.1107 -0.7219
  380MOL0     H51261  11.036   8.407   9.519 -0.3458 -0.8186  3.2566
  380MOL0     H51262  10.582   8.399   9.348  1.1476  0.4575  0.1295
  380MOL0     H51263  10.375   8.271   9.335 -1.1423 -0.3316  0.6991
  380MOL0     H51264  10.172   8.170   9.402  4.3779  1.0065 -1.2897
  380MOL0     H51265  10.242   8.044   9.312 -0.1250 -0.6591 -0.9018
  380MOL0     H51266  10.004   7.984   9.386  1.2789  2.2859 -1.3535
  380MOL0     H51267  10.126   7.864   9.445  1.5343  0.3269 -1.4264
  380MOL0     H51268  10.132   7.995   9.654 -0.5220  4.0805 -0.3262
  380MOL0     H51269   9.982   8.072   9.593  0.0192  0.1066 -1.8114
  380MOL0     H51270  10.014   7.762   9.625  1.6601  0.4347 -0.2862
  380MOL0     H51271   9.880   7.843   9.562 -0.3336 -3.1451  0.5388
  380MOL0     H51272   9.852   7.964   9.789 -1.0845 -1.0200  0.3723
  380MOL0     H51273   9.991   7.857   9.853 -0.3939 -3.9136 -0.3302
  380MOL0     H51274   9.709   7.762   9.780 -1.8271 -0.5011  1.6118
  380MOL0     H51275   9.849   7.662   9.826  2.1684  1.7626  0.6143
  380MOL0     H51276   9.674   7.749  10.005 -2.3219  1.0160 -1.8295
  380MOL0     H51277   9.742   7.909   9.978  1.6829 -0.2253 -0.3953
  380MOL0     H51278   9.913   7.691  10.113 -0.2607  0.7594  2.7018
  380MOL0     H51279   9.956   7.857  10.077  0.9088 -2.5773  1.0793
  380MOL0     H51280  10.501   8.025   9.642 -0.8610 -0.0568 -0.8474
  380MOL0     H51281  10.734   8.147   9.656 -0.3489  3.1953  0.9545
  380MOL0     H51282  10.759   8.704   9.650 -0.8809 -0.1370 -0.5268
  380MOL0     H51283  10.918   8.879   9.620 -2.2035 -0.5243 -2.1934
  380MOL0     H51284   9.991   8.691   9.189  0.0708 -1.0724  0.4301
  380MOL0     H51285   9.874   8.495   9.261 -1.4970 -0.0412  1.4226
  380MOL0     H51286   9.726   8.216   9.576  1.4617 -1.9559 -0.7837
  380MOL0     H51287   9.640   8.000   9.618  0.7531  1.2182  1.0014
  380MOL0     H51288   9.303   7.956   9.608  0.7705  0.5963 -1.2033
  380MOL0     H51289   9.456   7.905   9.690 -0.3399 -3.3700  1.8999
  380MOL0     H51290   9.334   7.744   9.770  0.0918 -2.3687 -1.1877
  380MOL0     H51291   9.403   7.667   9.628 -0.8197 -1.1285 -0.3604
  380MOL0     H51292   9.192   7.745   9.495 -2.5802  0.3039 -0.7224
  380MOL0     H51293   9.128   7.778   9.662  2.1846  2.4863 -0.6033
  380MOL0     H51294   9.163   7.544   9.720 -1.2209 -0.3881  0.4384
  380MOL0     H51295   9.048   7.539   9.583  1.1373 -2.2089 -0.2733
  380MOL0     H51296   9.345   7.357   9.379  1.5262 -0.7555  1.2170
  380MOL0     H51297   9.369   8.037   9.289  2.9632 -0.3177 -3.5274
  380MOL0     H51298   9.485   8.233   9.128 -0.4453 -1.6246  0.9750
  380MOL0     H51299   9.327   8.219   9.184  1.0026 -1.5627 -0.8644
  380MOL0     H51300   9.407   8.367   9.227  0.3128  0.1903 -0.7033
  381MOL0     O51301  10.231   9.379   2.337  0.3763  0.4563  0.3950
  381MOL0     C51302  10.148   9.283   2.346 -0.2192 -0.6842 -0.0986
  381MOL0     O51303  10.069   9.237   2.243 -0.8346  0.3717 -0.5902
  381MOL0     C51304  10.037   9.279   2.117 -0.2240  0.8789 -0.0432
  381MOL0     C51305   9.954   9.192   2.042  0.9969 -0.2102 -1.0768
  381MOL0     C51306   9.925   9.222   1.908 -0.8418 -0.3864 -0.1172
  381MOL0     C51307   9.997   9.331   1.843  0.4225  0.2914  0.0314
  381MOL0     O51308   9.994   9.370   1.714 -0.0372 -0.5688 -0.7325
  381MOL0     C51309  10.010   9.272   1.607 -0.3930  0.7149 -0.3575
  381MOL0     C51310  10.163   9.269   1.563  0.2700  0.3548 -1.0431
  381MOL0     C51311  10.167   9.170   1.445 -0.0246  0.3118  0.4228
  381MOL0     C51312  10.288   9.184   1.359  0.4015 -0.0039  0.0720
  381MOL0     C51313  10.276   9.085   1.249 -0.9815  0.5955  0.8081
  381MOL0     C51314  10.410   9.096   1.171  0.2241  0.6485  0.4092
  381MOL0     C51315  10.436   8.967   1.088  0.2604  0.1004 -0.1538
  381MOL0     C51316  10.576   8.937   1.052 -0.8734 -0.7243  0.1575
  381MOL0     N51317  10.626   9.045   0.959  0.0220 -0.6911  0.0643
  381MOL0     C51318  10.766   9.082   0.962 -0.4132  0.1075  0.0435
  381MOL0     C51319  10.774   9.173   0.859  0.3888 -0.0122 -0.3991
  381MOL0     C51320  10.883   9.281   0.835  0.3578 -0.7921 -0.0362
  381MOL0     C51321  10.943   9.244   0.707 -0.1434 -0.3997  0.4337
  381MOL0     C51322  11.071   9.336   0.681 -0.0297 -0.7728 -0.8836
  381MOL0     C51323  11.136   9.303   0.551 -0.1274  0.3137  0.0145
  381MOL0     O51324  11.200   9.176   0.549 -0.0152 -0.4114  0.9086
  381MOL0     C51325  11.336   9.190   0.539 -0.2590  0.0272  1.2179
  381MOL0     C51326  11.397   9.222   0.661  1.2053  0.0477  1.2695
  381MOL0     C51327  11.538   9.235   0.663 -0.2746  0.3299  0.6414
  381MOL0     C51328  11.627   9.213   0.552  0.7754  0.3922  1.9970
  381MOL0     C51329  11.777   9.210   0.558  0.5759 -0.1069  0.1047
  381MOL0     O51330  11.829   9.176   0.434  0.4211 -0.0334 -0.1460
  381MOL0     C51331  11.967   9.169   0.410 -0.1850 -1.1537  0.1167
  381MOL0     C51332  12.074   9.150   0.494 -0.6567 -0.6280 -0.0627
  381MOL0     C51333  12.202   9.139   0.440  0.5386 -0.7186 -0.3293
  381MOL0     C51334  12.229   9.172   0.309 -0.4540  0.0614 -0.0968
  381MOL0     O51335  12.358   9.173   0.261  0.4622  0.4646 -0.1705
  381MOL0     C51336  12.415   9.303   0.296 -0.1131 -0.4565  1.2110
  381MOL0     C51337  12.568   9.291   0.304  0.1882  0.1833  0.6270
  381MOL0     C51338  12.646   9.420   0.333  0.1185 -0.1675  0.3623
  381MOL0     C51339  12.788   9.389   0.369 -0.1256 -0.7333 -0.0492
  381MOL0     C51340  12.885   9.350   0.254 -0.8215  0.4441  0.1447
  381MOL0     C51341  13.012   9.283   0.307  0.0747  0.2689 -0.1805
  381MOL0     C51342  13.102   9.388   0.377 -0.2948  0.0978 -1.1084
  381MOL0     C51343  13.232   9.338   0.433 -1.4285  0.1027  0.5522
  381MOL0    Cl51344  13.359   9.295   0.319 -0.1725 -0.0114 -0.2219
  381MOL0     C51345  12.121   9.192   0.219  0.7900  0.3245  0.8373
  381MOL0     C51346  11.992   9.184   0.273 -0.4687  0.5612  0.4885
  381MOL0     O51347  11.839   9.227   0.655  0.9328 -0.9493  0.6245
  381MOL0     C51348  11.552   9.178   0.433 -0.0555  0.4925  0.3111
  381MOL0     C51349  11.413   9.160   0.426 -0.4998  0.8984 -1.0234
  381MOL0     N51350  10.649   9.185   0.798 -0.7370  0.1536  0.2769
  381MOL0     N51351  10.565   9.101   0.854 -1.1344 -0.4372  0.0877
  381MOL0     C51352  10.078   9.417   1.917  0.5839 -0.5564 -1.4702
  381MOL0     C51353  10.098   9.389   2.052 -0.5300 -0.2960 -0.2123
  381MOL0     C51354  10.127   9.234   2.481  0.5964 -0.0857 -0.3027
  381MOL0     C51355  10.003   9.175   2.503 -0.2126 -1.0544  0.1182
  381MOL0     C51356   9.973   9.122   2.631  0.8242 -0.4844  0.2455
  381MOL0     C51357  10.054   9.138   2.737 -0.1088  0.9969 -1.2374
  381MOL0     O51358  10.026   9.087   2.857  0.3212  0.4401  0.2819
  381MOL0     C51359   9.952   8.962   2.874 -0.1484  0.3783 -0.0575
  381MOL0     C51360  10.009   8.842   2.803 -1.1803 -0.0029 -0.1769
  381MOL0     C51361  10.134   8.782   2.878  0.4443 -0.2686  0.7880
  381MOL0     C51362  10.225   8.726   2.778  0.3845  0.0596  0.0428
  381MOL0     C51363  10.366   8.775   2.797 -0.3913 -0.1255  0.1688
  381MOL0     C51364  10.479   8.825   2.815 -0.7870  0.5724 -0.0867
  381MOL0     C51365  10.174   9.197   2.717  0.8071  0.2975  0.4949
  381MOL0     C51366  10.217   9.239   2.589  0.3624 -0.2092 -0.1777
  381MOL0     C51367  10.355   9.301   2.574 -0.0756  0.1591  0.2957
  381MOL0     H51368   9.900   9.111   2.090 -1.9706  2.7925  1.0690
  381MOL0     H51369   9.843   9.168   1.862 -0.9114 -1.2355  0.9363
  381MOL0     H51370   9.973   9.176   1.644  1.6782 -0.6155 -1.4768
  381MOL0     H51371   9.955   9.312   1.521  2.1783  1.4120 -1.7851
  381MOL0     H51372  10.215   9.225   1.649 -0.0429  0.8088 -0.6141
  381MOL0     H51373  10.194   9.373   1.550 -1.7745  1.3052  0.9302
  381MOL0     H51374  10.080   9.204   1.388 -1.3152  3.3912  3.8298
  381MOL0     H51375  10.144   9.068   1.475 -1.1525  0.8348  1.4145
  381MOL0     H51376  10.277   9.285   1.317  1.6383  0.4914  0.8629
  381MOL0     H51377  10.378   9.181   1.421  1.1704 -0.7662 -1.0570
  381MOL0     H51378  10.274   8.986   1.296  0.9800 -0.7159 -1.6122
  381MOL0     H51379  10.189   9.095   1.185 -1.0692  0.4615  0.9054
  381MOL0     H51380  10.404   9.178   1.098 -1.0502  1.1003  0.9919
  381MOL0     H51381  10.499   9.114   1.232  0.5156  2.1055 -0.3970
  381MOL0     H51382  10.374   8.982   0.999  1.7521  2.4469 -0.8981
  381MOL0     H51383  10.394   8.883   1.144 -1.0742  1.0634  0.3481
  381MOL0     H51384  10.650   8.939   1.133  1.0020 -2.4219 -1.3913
  381MOL0     H51385  10.589   8.842   0.999  0.7019 -0.4416 -0.0400
  381MOL0     H51386  10.840   9.064   1.040  1.9622  1.0545 -1.8549
  381MOL0     H51387  10.839   9.381   0.833 -1.0148 -1.3719 -0.5477
  381MOL0     H51388  10.956   9.282   0.916  2.5395 -1.0433 -1.8919
  381MOL0     H51389  10.968   9.138   0.699 -1.0450 -0.6114  0.2961
  381MOL0     H51390  10.877   9.252   0.620  0.0832 -0.7481  0.2262
  381MOL0     H51391  11.139   9.327   0.766  0.9805 -1.6357 -1.7529
  381MOL0     H51392  11.042   9.441   0.675  0.3181 -0.7100 -1.4900
  381MOL0     H51393  11.207   9.383   0.527  2.3047 -1.2640  1.4437
  381MOL0     H51394  11.058   9.303   0.475 -2.4965  2.3995  2.2525
  381MOL0     H51395  11.340   9.220   0.753  0.1190  0.8094  0.6354
  381MOL0     H51396  11.571   9.282   0.755  0.2319  3.5748 -1.0507
  381MOL0     H51397  12.075   9.133   0.601  0.4471 -1.1076 -0.1386
  381MOL0     H51398  12.279   9.106   0.509 -0.4672 -1.0169  0.6684
  381MOL0     H51399  12.378   9.367   0.216 -1.5855 -2.4129  0.2483
  381MOL0     H51400  12.377   9.347   0.389 -2.7341 -1.2775  0.6096
  381MOL0     H51401  12.602   9.231   0.390  1.5851 -0.5082 -0.3675
  381MOL0     H51402  12.603   9.241   0.213 -2.7610  1.2666 -1.2219
  381MOL0     H51403  12.643   9.482   0.243 -2.3696  1.4231  1.4355
  381MOL0     H51404  12.602   9.477   0.416  0.5162  0.2739  0.2746
  381MOL0     H51405  12.782   9.311   0.447 -0.0243 -0.8983 -0.2066
  381MOL0     H51406  12.838   9.477   0.410  1.6508  0.4094 -4.1997
  381MOL0     H51407  12.902   9.441   0.196 -0.9868 -1.0761 -2.4153
  381MOL0     H51408  12.830   9.280   0.190 -1.8925  1.0444  0.3877
  381MOL0     H51409  12.982   9.214   0.386 -2.6716  1.0772 -0.4444
  381MOL0     H51410  13.063   9.241   0.219  2.6304  4.4723 -0.9889
  381MOL0     H51411  13.053   9.420   0.469  0.2462 -2.0905  0.0071
  381MOL0     H51412  13.120   9.482   0.324 -0.9249  1.9793  1.8044
  381MOL0     H51413  13.270   9.408   0.508  0.7356 -1.5820  1.1187
  381MOL0     H51414  13.205   9.243   0.481 -1.7793  0.8699  1.9382
  381MOL0     H51415  12.130   9.222   0.115 -3.3754  0.7363  0.4152
  381MOL0     H51416  11.898   9.204   0.223 -0.6318  0.1184  0.6164
  381MOL0     H51417  11.614   9.150   0.349 -1.2837 -2.6363  0.2911
  381MOL0     H51418  11.348   9.124   0.346 -2.2821  4.7268 -1.5399
  381MOL0     H51419  10.116   9.501   1.861  0.5839 -0.3926 -1.2237
  381MOL0     H51420  10.148   9.460   2.117 -3.5759  1.1712  0.7228
  381MOL0     H51421   9.928   9.182   2.425  2.4899  0.5689 -2.5716
  381MOL0     H51422   9.874   9.079   2.641  0.6119 -0.7345 -2.2301
  381MOL0     H51423   9.848   8.964   2.841 -0.7589 -1.9892  1.4805
  381MOL0     H51424   9.949   8.939   2.981 -0.8774  0.0624 -0.1460
  381MOL0     H51425  10.043   8.879   2.706 -0.6790 -1.2442 -0.4982
  381MOL0     H51426   9.939   8.759   2.788 -0.3654 -0.5503 -1.0819
  381MOL0     H51427  10.117   8.709   2.958  1.1886  1.6304  2.7797
  381MOL0     H51428  10.180   8.856   2.944  0.5287 -0.8670  1.4138
  381MOL0     H51429  10.223   8.618   2.794  2.2180 -0.2492 -1.5252
  381MOL0     H51430  10.178   8.744   2.681  1.5312  0.3532 -0.4754
  381MOL0     H51431  10.576   8.862   2.839 -0.1994 -2.3740  2.9174
  381MOL0     H51432  10.247   9.197   2.797  0.3391  0.8203  0.9241
  381MOL0     H51433  10.411   9.266   2.487  1.0098 -0.1980  1.1262
  381MOL0     H51434  10.347   9.409   2.555 -0.3085 -0.0712 -0.9943
  381MOL0     H51435  10.417   9.282   2.662  2.2186  1.6732 -0.8987
  382MOL0     O51436   3.713   3.452   8.685  0.0665 -0.0543 -0.5028
  382MOL0     C51437   3.820   3.510   8.670  0.3466  0.1576  0.5313
  382MOL0     O51438   3.860   3.554   8.547 -0.2248  0.9071  0.4683
  382MOL0     C51439   3.837   3.490   8.426  0.0609  0.5400  0.6609
  382MOL0     C51440   3.937   3.473   8.329 -0.4398  0.0451  0.9739
  382MOL0     C51441   3.910   3.407   8.210  0.7685 -0.1153  0.6894
  382MOL0     C51442   3.784   3.353   8.178 -0.4273 -0.0130  0.6743
  382MOL0     O51443   3.780   3.280   8.059  0.0975  0.2290 -0.2348
  382MOL0     C51444   3.651   3.278   7.993 -0.9182  0.0811  0.2906
  382MOL0     C51445   3.604   3.134   7.988  0.2773 -0.1043 -0.3833
  382MOL0     C51446   3.588   3.077   8.129  0.2579 -0.3421  0.7960
  382MOL0     C51447   3.441   3.099   8.180  0.7785 -0.8890 -0.9062
  382MOL0     C51448   3.407   3.010   8.302  0.2531 -0.0378 -0.9288
  382MOL0     C51449   3.270   3.047   8.358 -0.2416  0.0734  0.6701
  382MOL0     C51450   3.259   2.984   8.498  0.0652 -0.6021  0.0272
  382MOL0     C51451   3.252   2.831   8.490  0.5997  0.1724 -0.0678
  382MOL0     N51452   3.115   2.791   8.446 -1.1216  0.2248 -0.9767
  382MOL0     C51453   3.101   2.753   8.320  0.1135  0.4143  0.4200
  382MOL0     C51454   2.976   2.775   8.290  0.2952 -0.9453 -0.2273
  382MOL0     C51455   2.930   2.765   8.147  0.1518  0.2119  0.9342
  382MOL0     C51456   2.918   2.638   8.086  0.5118  0.6934  0.0943
  382MOL0     C51457   2.883   2.511   8.179 -0.4046 -0.0579  0.2447
  382MOL0     C51458   2.740   2.522   8.235  0.3997  0.2357  0.1128
  382MOL0     O51459   2.648   2.501   8.132 -0.3480 -0.2615 -0.1821
  382MOL0     C51460   2.516   2.463   8.174 -1.0607 -0.1079 -0.3719
  382MOL0     C51461   2.431   2.408   8.080 -0.6319 -0.8766 -0.8216
  382MOL0     C51462   2.304   2.378   8.122  0.0581  0.5051  0.3653
  382MOL0     C51463   2.260   2.412   8.245 -0.3218 -1.0220 -1.0124
  382MOL0     C51464   2.128   2.385   8.290 -0.0094  0.5572  0.2901
  382MOL0     O51465   2.056   2.315   8.197  0.1962 -0.1465 -0.2267
  382MOL0     C51466   1.936   2.256   8.230 -0.2904 -0.1891 -0.1096
  382MOL0     C51467   1.903   2.191   8.349 -0.5174 -0.0289 -0.1469
  382MOL0     C51468   1.796   2.104   8.364 -0.1347  0.7320  0.2996
  382MOL0     C51469   1.702   2.093   8.255  0.4289 -0.5403  0.4081
  382MOL0     O51470   1.585   2.015   8.255 -0.1998  0.3252 -0.3482
  382MOL0     C51471   1.570   1.922   8.365  0.8118 -0.5730 -1.0284
  382MOL0     C51472   1.439   1.850   8.336 -0.1441 -0.2717 -0.5983
  382MOL0     C51473   1.389   1.737   8.432  0.5539 -1.0072  0.4032
  382MOL0     C51474   1.259   1.668   8.388  0.2064 -0.0854  1.0778
  382MOL0     C51475   1.226   1.567   8.498  0.5005  0.5753 -0.3946
  382MOL0     C51476   1.087   1.504   8.493 -0.7054  0.9749 -1.0010
  382MOL0     C51477   0.972   1.598   8.547 -0.0524  0.2445 -0.2464
  382MOL0     C51478   0.845   1.525   8.554  0.5053 -0.1234  0.3228
  382MOL0    Cl51479   0.711   1.609   8.658 -0.0946  0.1474  0.0838
  382MOL0     C51480   1.735   2.164   8.142  0.5437 -0.2667 -0.1320
  382MOL0     C51481   1.851   2.239   8.121  0.5295 -0.5234  0.0779
  382MOL0     O51482   2.083   2.439   8.388  0.7745 -0.1015  0.4412
  382MOL0     C51483   2.348   2.464   8.337 -0.1570 -0.3766  0.0557
  382MOL0     C51484   2.474   2.505   8.298 -0.7685  0.1897  0.3412
  382MOL0     N51485   2.915   2.837   8.399  0.2857  0.3213 -0.0806
  382MOL0     N51486   2.997   2.845   8.493 -0.0767 -0.6435  0.4555
  382MOL0     C51487   3.683   3.381   8.272 -0.0557 -0.1685  0.6545
  382MOL0     C51488   3.711   3.453   8.392  1.1059 -0.3063 -0.0696
  382MOL0     C51489   3.886   3.572   8.793  0.0234 -0.4355  1.0938
  382MOL0     C51490   3.981   3.675   8.764 -0.4373 -0.7085 -0.3493
  382MOL0     C51491   4.064   3.726   8.860  0.0305 -0.4230  0.0447
  382MOL0     C51492   4.041   3.688   8.993  0.1958 -0.4758 -0.1183
  382MOL0     O51493   4.132   3.739   9.088 -0.6250 -0.1910  0.1042
  382MOL0     C51494   4.091   3.854   9.152  0.1416  0.4016  0.0961
  382MOL0     C51495   4.209   3.949   9.172 -0.4656 -0.4952  0.6486
  382MOL0     C51496   4.338   3.883   9.229  0.1898  0.0282  0.0829
  382MOL0     C51497   4.463   3.973   9.232 -0.5151  0.0105 -0.4373
  382MOL0     C51498   4.447   4.098   9.312  0.7884  0.8270 -0.0263
  382MOL0     C51499   4.427   4.206   9.369  0.0642  0.3838 -0.1252
  382MOL0     C51500   3.937   3.599   9.022 -0.3513 -0.6831 -0.8827
  382MOL0     C51501   3.860   3.541   8.923 -0.2286  0.7918  0.2570
  382MOL0     C51502   3.770   3.426   8.966  0.3517  0.2934  0.3743
  382MOL0     H51503   4.030   3.525   8.350  0.5160 -0.6304 -1.3134
  382MOL0     H51504   3.986   3.394   8.134  0.0002  0.5711 -0.2272
  382MOL0     H51505   3.581   3.342   8.048 -0.0781  0.1665  1.2909
  382MOL0     H51506   3.665   3.307   7.889 -0.4355 -0.3748  0.2310
  382MOL0     H51507   3.684   3.077   7.941  3.2312  0.7071  3.2553
  382MOL0     H51508   3.510   3.138   7.931  0.4636 -0.8855 -0.7584
  382MOL0     H51509   3.657   3.118   8.203  2.5633 -1.6877 -0.5211
  382MOL0     H51510   3.607   2.969   8.130 -2.0521 -0.8038  1.2159
  382MOL0     H51511   3.417   3.203   8.202 -0.1388 -1.4950  1.2982
  382MOL0     H51512   3.384   3.070   8.091  1.4878 -2.6906 -0.8250
  382MOL0     H51513   3.417   2.905   8.274 -0.2700 -0.6503  1.0347
  382MOL0     H51514   3.488   3.027   8.373 -0.0399  1.2715 -0.8843
  382MOL0     H51515   3.256   3.155   8.373  0.6660  0.1311  1.1327
  382MOL0     H51516   3.197   3.002   8.291 -0.2633 -2.3300  2.1792
  382MOL0     H51517   3.169   3.024   8.545 -0.3374 -1.4379 -0.0128
  382MOL0     H51518   3.349   3.009   8.553  0.4328  0.7911 -1.1552
  382MOL0     H51519   3.324   2.793   8.416  1.6799  0.5485  0.7728
  382MOL0     H51520   3.271   2.781   8.585 -0.4441 -0.5357 -0.2097
  382MOL0     H51521   3.175   2.712   8.252  2.4092  2.2009  1.6719
  382MOL0     H51522   2.833   2.813   8.131  1.3635  2.0706 -1.3556
  382MOL0     H51523   2.994   2.833   8.090  0.5306 -0.7247  0.2066
  382MOL0     H51524   2.851   2.647   8.000 -2.2092 -5.7638  0.9784
  382MOL0     H51525   3.013   2.600   8.046 -0.3802 -1.8054  0.2033
  382MOL0     H51526   2.961   2.504   8.255  1.1207 -1.4606 -1.3568
  382MOL0     H51527   2.890   2.416   8.126  2.6063 -0.4121  1.0930
  382MOL0     H51528   2.706   2.613   8.285 -1.4371  0.0079 -0.6689
  382MOL0     H51529   2.727   2.442   8.308  0.3024  0.1240 -0.0262
  382MOL0     H51530   2.471   2.381   7.983  3.5249  1.9980 -0.1826
  382MOL0     H51531   2.239   2.335   8.046  0.1176 -0.8967  1.0839
  382MOL0     H51532   1.972   2.197   8.433 -1.9134 -2.6476  1.3310
  382MOL0     H51533   1.787   2.043   8.453 -0.6990 -0.3604 -0.4687
  382MOL0     H51534   1.661   1.863   8.375  3.0664  2.8722  1.0620
  382MOL0     H51535   1.570   1.988   8.453  0.8049 -1.4314 -0.3627
  382MOL0     H51536   1.359   1.924   8.325  1.2180  1.3433 -0.1720
  382MOL0     H51537   1.453   1.801   8.239  1.5646  1.1979 -1.1501
  382MOL0     H51538   1.474   1.669   8.445  0.6470 -1.2636 -1.3740
  382MOL0     H51539   1.354   1.789   8.521  0.2179 -0.3438 -0.1115
  382MOL0     H51540   1.279   1.628   8.289  0.1098  1.4200  0.4263
  382MOL0     H51541   1.175   1.737   8.372 -1.3277 -2.1075 -0.0789
  382MOL0     H51542   1.243   1.603   8.599  3.9559 -0.0111 -0.6493
  382MOL0     H51543   1.304   1.492   8.483  1.3310  0.7457  2.4806
  382MOL0     H51544   1.058   1.475   8.391 -1.6204  0.3748 -0.5901
  382MOL0     H51545   1.088   1.408   8.546  3.0982  0.4904 -1.6902
  382MOL0     H51546   0.964   1.686   8.482 -2.0945 -0.3916 -0.9283
  382MOL0     H51547   0.998   1.632   8.648  0.5730  2.0969 -0.9815
  382MOL0     H51548   0.804   1.504   8.455 -0.8875  4.6953 -0.4067
  382MOL0     H51549   0.852   1.423   8.594  0.9277 -0.3554 -0.3205
  382MOL0     H51550   1.663   2.161   8.060  0.6896  2.6408 -0.4740
  382MOL0     H51551   1.878   2.279   8.024  2.0152 -0.8240  0.3417
  382MOL0     H51552   2.326   2.507   8.434  1.4451 -0.8264  0.6483
  382MOL0     H51553   2.537   2.561   8.367  1.5872  1.2293 -2.4776
  382MOL0     H51554   3.576   3.366   8.258  0.1261 -3.3390  1.8895
  382MOL0     H51555   3.632   3.463   8.466  1.9919 -0.9809  0.9904
  382MOL0     H51556   3.991   3.715   8.663  1.8017 -3.1733 -1.2223
  382MOL0     H51557   4.147   3.791   8.833 -0.1479 -0.7545 -1.3524
  382MOL0     H51558   4.063   3.828   9.255  4.3994  0.7793  1.5407
  382MOL0     H51559   4.007   3.900   9.101  0.2497  1.8967  1.1821
  382MOL0     H51560   4.186   4.032   9.239  0.4826  0.1537  0.1955
  382MOL0     H51561   4.236   3.989   9.074  1.6787  0.7945  1.7079
  382MOL0     H51562   4.351   3.783   9.187 -0.5465  0.3381 -0.9175
  382MOL0     H51563   4.313   3.859   9.333 -1.7796 -0.2197 -0.3987
  382MOL0     H51564   4.554   3.926   9.269 -0.1897  2.6075  2.4932
  382MOL0     H51565   4.471   3.993   9.124  0.1198  1.0428 -0.2172
  382MOL0     H51566   4.404   4.298   9.418 -0.6466  1.2036 -1.8813
  382MOL0     H51567   3.925   3.563   9.124 -0.8017 -0.3231 -0.8076
  382MOL0     H51568   3.788   3.391   9.068  0.4699  1.7615  0.8694
  382MOL0     H51569   3.662   3.442   8.957  0.5148  0.5906 -1.4346
  382MOL0     H51570   3.792   3.339   8.903  2.0565 -0.4350  1.8856
  383MOL0     O51571   7.821   1.951   9.868 -0.1147  0.5801 -0.3031
  383MOL0     C51572   7.929   1.927   9.806  0.4679  0.0248  0.1342
  383MOL0     O51573   7.947   1.848   9.694 -0.1088  0.3793  0.9087
  383MOL0     C51574   7.851   1.844   9.594 -0.2739 -0.1688 -0.2339
  383MOL0     C51575   7.843   1.725   9.502 -0.0765 -0.3766  0.4002
  383MOL0     C51576   7.742   1.723   9.398  0.0290  0.9709  0.0732
  383MOL0     C51577   7.644   1.821   9.387  0.3252 -0.3453 -0.7290
  383MOL0     O51578   7.558   1.831   9.277 -0.5576 -0.1970 -0.4599
  383MOL0     C51579   7.539   1.721   9.200 -0.1984  0.5039  0.0083
  383MOL0     C51580   7.416   1.742   9.103 -0.3613  0.6474  0.3465
  383MOL0     C51581   7.419   1.653   8.992  0.0816  0.4584  0.2968
  383MOL0     C51582   7.291   1.702   8.904 -0.2058 -0.3329  0.0303
  383MOL0     C51583   7.245   1.608   8.796  0.5210  0.6894 -0.1969
  383MOL0     C51584   7.210   1.480   8.841  0.6432  0.5799  0.0973
  383MOL0     C51585   7.098   1.467   8.942  0.1702  0.3154  0.3304
  383MOL0     C51586   7.040   1.321   8.949 -0.2346  0.4539  0.1840
  383MOL0     N51587   6.955   1.302   9.062 -0.0993 -0.0371 -0.3201
  383MOL0     C51588   6.952   1.198   9.150  0.5920 -0.5256 -0.1686
  383MOL0     C51589   6.846   1.216   9.232  0.1882  0.4251 -0.9559
  383MOL0     C51590   6.810   1.119   9.331 -0.1515 -0.5031 -0.8525
  383MOL0     C51591   6.926   1.062   9.415 -0.8213  0.4649  0.0378
  383MOL0     C51592   6.873   0.958   9.505  0.4031 -0.9727  0.7456
  383MOL0     C51593   6.879   0.825   9.447  0.5999  0.1125  0.4176
  383MOL0     O51594   6.851   0.714   9.535  0.6922  0.1597 -0.2489
  383MOL0     C51595   6.720   0.669   9.558  0.2527 -0.3332  0.1718
  383MOL0     C51596   6.703   0.552   9.628 -0.7546  0.1477 -1.2532
  383MOL0     C51597   6.581   0.495   9.656  0.3073  0.2558  0.7726
  383MOL0     C51598   6.465   0.558   9.608  0.4189  0.5652 -0.3904
  383MOL0     C51599   6.335   0.501   9.632 -0.3430 -0.7031  0.1861
  383MOL0     O51600   6.234   0.519   9.542 -0.2216  0.1157 -0.3345
  383MOL0     C51601   6.121   0.450   9.566 -1.1306 -0.9624  1.2130
  383MOL0     C51602   6.031   0.456   9.674  0.2458 -0.0539  0.4243
  383MOL0     C51603   5.933   0.355   9.699  0.4214  0.0149 -0.2538
  383MOL0     C51604   5.912   0.252   9.600  0.9704  0.1432  0.0666
  383MOL0     O51605   5.814   0.153   9.605 -0.6457 -0.0629 -0.6132
  383MOL0     C51606   5.755   0.104   9.485 -0.1129  0.6605  0.0524
  383MOL0     C51607   5.659   0.202   9.413 -0.0180 -0.9936 -0.9982
  383MOL0     C51608   5.578   0.119   9.308 -0.4443 -0.3353  0.6713
  383MOL0     C51609   5.515   0.219   9.209 -0.0634  0.4632  0.4669
  383MOL0     C51610   5.366   0.242   9.245 -0.1117 -0.3619  0.7930
  383MOL0     C51611   5.287   0.327   9.130 -0.3563  0.3558  0.1303
  383MOL0     C51612   5.259   0.251   8.995 -0.2770  0.2745 -0.3784
  383MOL0     C51613   5.182   0.125   9.006  0.0562  1.0500  0.1070
  383MOL0    Cl51614   5.283  -0.010   9.050 -0.1526  0.5147  0.5079
  383MOL0     C51615   6.009   0.237   9.504  0.3654  0.0068  0.1857
  383MOL0     C51616   6.103   0.335   9.483 -0.4317 -0.1857  0.0587
  383MOL0     O51617   6.332   0.441   9.737  0.3639 -0.5288  0.1680
  383MOL0     C51618   6.481   0.661   9.524 -0.2309 -0.0899  0.4913
  383MOL0     C51619   6.602   0.718   9.492  0.3446 -0.3995 -0.1394
  383MOL0     N51620   6.782   1.325   9.188  0.3205  0.0646  0.5312
  383MOL0     N51621   6.839   1.371   9.084  0.0207  0.9731 -0.4211
  383MOL0     C51622   7.646   1.928   9.475  0.9624 -0.9627  0.5634
  383MOL0     C51623   7.745   1.944   9.578  0.1690  0.3717 -0.6277
  383MOL0     C51624   8.059   1.972   9.878 -0.1863 -0.7246  0.7222
  383MOL0     C51625   8.037   2.023  10.004 -0.0260 -0.2468 -0.5366
  383MOL0     C51626   8.143   2.064  10.092  0.6397 -0.2586  1.0046
  383MOL0     C51627   8.267   2.063  10.043 -0.4432  0.3787  0.7557
  383MOL0     O51628   8.382   2.106  10.105 -0.3925 -0.3598 -0.4581
  383MOL0     C51629   8.362   2.138  10.245 -0.6280 -0.1965  0.2270
  383MOL0     C51630   8.506   2.169  10.292  0.1790 -0.2120 -0.5407
  383MOL0     C51631   8.515   2.221  10.437 -0.3411  0.1179 -0.5806
  383MOL0     C51632   8.466   2.369  10.438  0.6590 -0.1729 -0.8247
  383MOL0     C51633   8.486   2.420  10.575 -0.1174  0.1984 -0.2160
  383MOL0     C51634   8.504   2.456  10.694  0.8603  0.4648  0.3570
  383MOL0     C51635   8.294   2.012   9.918 -0.7089 -0.5708  0.6628
  383MOL0     C51636   8.196   1.965   9.834  0.2850 -0.4209 -0.6706
  383MOL0     C51637   8.246   1.901   9.704  0.6057 -0.9622 -0.7104
  383MOL0     H51638   7.922   1.651   9.502  0.7030  0.4277  1.6262
  383MOL0     H51639   7.757   1.641   9.329  0.7037 -0.9686  2.3620
  383MOL0     H51640   7.627   1.685   9.145 -0.6461 -1.1324  0.3005
  383MOL0     H51641   7.513   1.636   9.264  2.3445  1.4431  2.4737
  383MOL0     H51642   7.425   1.846   9.073  1.1341  0.3067 -0.4700
  383MOL0     H51643   7.324   1.727   9.161  0.8311 -0.5948  2.0425
  383MOL0     H51644   7.413   1.557   9.045 -2.5229  0.8041  0.7440
  383MOL0     H51645   7.502   1.656   8.921 -2.0120  0.5518 -2.2696
  383MOL0     H51646   7.205   1.722   8.969 -1.5075  0.1210 -1.7548
  383MOL0     H51647   7.314   1.800   8.859 -2.3893 -0.6090 -1.8904
  383MOL0     H51648   7.152   1.649   8.755 -1.1167 -1.7937  0.8452
  383MOL0     H51649   7.324   1.607   8.720 -0.1035  2.4784 -0.9457
  383MOL0     H51650   7.187   1.430   8.747  0.0469 -1.0644  1.0691
  383MOL0     H51651   7.295   1.421   8.878 -0.0016 -3.1024 -3.5562
  383MOL0     H51652   7.023   1.541   8.912  0.5478  1.4994  2.1333
  383MOL0     H51653   7.132   1.494   9.042  0.2532 -1.9247  0.9487
  383MOL0     H51654   6.986   1.297   8.857 -1.5174  2.4078  0.3594
  383MOL0     H51655   7.129   1.259   8.959  0.1518  0.8217 -0.8190
  383MOL0     H51656   7.024   1.117   9.149  3.3747  1.7188  2.1201
  383MOL0     H51657   6.749   1.154   9.415  1.4763 -0.6171  0.4178
  383MOL0     H51658   6.742   1.049   9.280 -0.8105 -0.3993 -0.1270
  383MOL0     H51659   7.006   1.021   9.352 -1.3567 -0.3506 -0.1347
  383MOL0     H51660   6.973   1.126   9.491  1.0338  1.5704 -1.9197
  383MOL0     H51661   6.773   0.990   9.536  0.1007 -1.0456 -0.1316
  383MOL0     H51662   6.935   0.954   9.595 -1.0381 -3.5087  1.7457
  383MOL0     H51663   6.986   0.814   9.427  0.7182  2.0311 -0.2056
  383MOL0     H51664   6.823   0.821   9.353 -0.2685 -0.3590  0.9400
  383MOL0     H51665   6.790   0.503   9.669 -0.7706  1.2789  0.2180
  383MOL0     H51666   6.574   0.410   9.723  0.1394 -1.7001 -1.6242
  383MOL0     H51667   6.058   0.533   9.746  3.1726 -1.5617  1.1003
  383MOL0     H51668   5.853   0.372   9.771 -0.5266 -1.0977 -1.0078
  383MOL0     H51669   5.827   0.067   9.412 -0.5643  1.7479 -0.9775
  383MOL0     H51670   5.705   0.011   9.515  0.4262  0.8258  1.5870
  383MOL0     H51671   5.601   0.263   9.482 -1.3765 -2.2159 -0.9824
  383MOL0     H51672   5.725   0.273   9.364  1.4259 -0.9618  0.9066
  383MOL0     H51673   5.657   0.061   9.261  0.3784 -0.3320  1.9973
  383MOL0     H51674   5.517   0.049   9.366  0.8491 -2.9860 -1.0005
  383MOL0     H51675   5.514   0.165   9.114 -1.2252  2.3955 -0.6810
  383MOL0     H51676   5.566   0.315   9.199 -2.1047  1.7143  1.3348
  383MOL0     H51677   5.365   0.296   9.341  2.6799 -0.0005  0.7022
  383MOL0     H51678   5.322   0.143   9.257  0.6486 -0.8313 -0.2257
  383MOL0     H51679   5.188   0.362   9.160 -1.2507 -0.9604 -1.1420
  383MOL0     H51680   5.347   0.411   9.094 -2.2276  0.0930 -4.2576
  383MOL0     H51681   5.360   0.223   8.964  1.2022  2.2933  2.2546
  383MOL0     H51682   5.218   0.322   8.923 -0.2924 -0.3765 -1.0268
  383MOL0     H51683   5.095   0.139   9.072 -0.9293 -0.0492 -0.9095
  383MOL0     H51684   5.144   0.098   8.907 -2.0899 -0.5593  1.2524
  383MOL0     H51685   6.031   0.150   9.444  3.5472  0.6813  0.1984
  383MOL0     H51686   6.169   0.306   9.402  1.4796  1.9812  0.7135
  383MOL0     H51687   6.406   0.704   9.459 -0.3718 -3.5786 -1.9530
  383MOL0     H51688   6.597   0.795   9.416 -4.6859 -0.7908 -0.5587
  383MOL0     H51689   7.590   2.022   9.477  2.4969  0.0453  3.9589
  383MOL0     H51690   7.739   2.030   9.644 -1.9284  1.3017 -1.9047
  383MOL0     H51691   7.947   2.011  10.064  0.3079 -1.2794 -0.2372
  383MOL0     H51692   8.116   2.083  10.195  0.4720 -3.1355  1.5780
  383MOL0     H51693   8.315   2.055  10.297 -3.7687  0.5233 -1.2489
  383MOL0     H51694   8.290   2.220  10.256 -3.4016 -2.2093 -1.6357
  383MOL0     H51695   8.558   2.239  10.225 -3.0837  3.0478  0.0393
  383MOL0     H51696   8.548   2.068  10.283  0.1336 -0.0692 -2.9426
  383MOL0     H51697   8.622   2.231  10.456  0.3119 -0.8493 -3.2127
  383MOL0     H51698   8.449   2.175  10.512 -0.1219 -1.1626 -1.1348
  383MOL0     H51699   8.520   2.435  10.369 -1.1368 -0.6767 -2.8271
  383MOL0     H51700   8.359   2.380  10.421  0.8389  1.5823 -0.9818
  383MOL0     H51701   8.520   2.490  10.794 -1.4051 -2.7901  1.9878
  383MOL0     H51702   8.398   2.012   9.886 -0.9753 -1.2107 -0.2696
  383MOL0     H51703   8.181   1.932   9.622 -1.8707 -1.1142  1.0988
  383MOL0     H51704   8.347   1.937   9.679  0.7768 -0.4164  0.6731
  383MOL0     H51705   8.232   1.793   9.705 -2.8414 -0.6686 -3.1738
  384MOL0     O51706   8.647   9.950   5.339  0.7902 -0.0105 -0.1479
  384MOL0     C51707   8.620  10.074   5.337 -0.1303  0.8293  0.5928
  384MOL0     O51708   8.628  10.154   5.445 -0.3311 -0.7535 -0.1388
  384MOL0     C51709   8.704  10.123   5.548 -0.6589 -0.3467 -0.0433
  384MOL0     C51710   8.659  10.146   5.677  1.3819 -0.5065 -0.7594
  384MOL0     C51711   8.740  10.110   5.790  0.7630  0.0671  0.2129
  384MOL0     C51712   8.866  10.062   5.771 -0.7286  0.0677  0.8971
  384MOL0     O51713   8.926  10.031   5.891 -0.2572 -0.5932  0.2916
  384MOL0     C51714   9.068   9.992   5.876  0.9196  0.4426 -0.6675
  384MOL0     C51715   9.167  10.109   5.853 -0.5219 -0.4106 -0.7455
  384MOL0     C51716   9.195  10.183   5.986 -0.5403  0.1679  0.1580
  384MOL0     C51717   9.092  10.250   6.070 -0.1961 -0.4795  0.3280
  384MOL0     C51718   9.042  10.159   6.187  0.3315 -1.0890  0.3783
  384MOL0     C51719   8.923  10.225   6.266 -0.1311 -0.3618 -0.0970
  384MOL0     C51720   8.796  10.240   6.170 -1.2532  0.2127 -0.4505
  384MOL0     C51721   8.687  10.311   6.235 -0.2324 -1.2567 -0.5633
  384MOL0     N51722   8.648  10.246   6.356  0.5896  0.4971  0.5773
  384MOL0     C51723   8.570  10.135   6.359 -0.0836 -0.1858  0.2423
  384MOL0     C51724   8.578  10.098   6.490 -0.1033 -0.2449  0.5011
  384MOL0     C51725   8.543   9.959   6.545  0.3665  0.2103 -0.0325
  384MOL0     C51726   8.408   9.959   6.613  0.3799 -0.4700  0.4973
  384MOL0     C51727   8.281   9.968   6.517 -0.3114  0.7542 -0.0171
  384MOL0     C51728   8.281   9.869   6.394  1.1858 -0.0481  0.6446
  384MOL0     O51729   8.184   9.895   6.293  0.4581  0.5243  0.3152
  384MOL0     C51730   8.123   9.796   6.218  0.7187 -0.4660 -0.8902
  384MOL0     C51731   8.005   9.830   6.157  0.4034  0.5123 -0.4652
  384MOL0     C51732   7.954   9.750   6.052  0.7959 -0.1767  0.2589
  384MOL0     C51733   8.026   9.639   5.996  0.0908 -0.3363 -0.3970
  384MOL0     C51734   7.973   9.571   5.877 -0.9137 -0.0354 -0.3623
  384MOL0     O51735   8.059   9.477   5.823  0.0374 -0.5400  0.3032
  384MOL0     C51736   8.027   9.396   5.714  0.0049 -0.3342  0.4532
  384MOL0     C51737   8.047   9.260   5.733 -0.4167 -1.1451  0.3106
  384MOL0     C51738   8.031   9.169   5.624 -0.4447 -0.0691  0.8279
  384MOL0     C51739   7.975   9.221   5.498 -0.2376 -0.2307 -0.2417
  384MOL0     O51740   7.951   9.124   5.406 -0.4895 -0.1242 -0.0117
  384MOL0     C51741   7.905   9.145   5.270  0.5383  0.6328  0.9205
  384MOL0     C51742   7.851   9.009   5.218 -0.4587 -0.7148  0.3955
  384MOL0     C51743   7.965   8.914   5.167  0.1299  0.2640 -0.1090
  384MOL0     C51744   7.900   8.773   5.145  0.1130  0.7429 -0.8338
  384MOL0     C51745   7.994   8.657   5.126 -0.6900  0.1259  1.9300
  384MOL0     C51746   8.068   8.663   4.989  0.5890 -0.0687 -1.1202
  384MOL0     C51747   8.163   8.550   4.973 -0.1338 -0.1359 -0.2828
  384MOL0     C51748   8.192   8.514   4.825  0.2482 -0.5829  0.3807
  384MOL0    Cl51749   8.037   8.504   4.724 -0.0052 -0.3358 -0.1176
  384MOL0     C51750   7.955   9.355   5.479  0.5571 -0.6064 -0.6671
  384MOL0     C51751   7.962   9.447   5.593  0.0823  0.3824 -1.2023
  384MOL0     O51752   7.868   9.600   5.824  0.0674 -0.8682 -0.0162
  384MOL0     C51753   8.138   9.588   6.078 -0.2278 -0.4601  0.3713
  384MOL0     C51754   8.181   9.672   6.184 -0.1176  0.1622 -0.9963
  384MOL0     N51755   8.651  10.195   6.561  0.8631 -0.3185  0.7663
  384MOL0     N51756   8.677  10.290   6.481  0.2087  0.3581 -0.6221
  384MOL0     C51757   8.913  10.036   5.639 -0.0645 -0.2003 -0.5122
  384MOL0     C51758   8.838  10.067   5.530  0.5597 -0.2007  0.8938
  384MOL0     C51759   8.560  10.136   5.218 -0.4393 -0.4417 -0.2303
  384MOL0     C51760   8.438  10.213   5.226  0.1424  0.0032 -0.7783
  384MOL0     C51761   8.384  10.273   5.104  0.3464 -1.0717 -0.9010
  384MOL0     C51762   8.462  10.261   4.987 -0.6757 -0.3471 -0.4141
  384MOL0     O51763   8.434  10.337   4.866  0.0405  0.0274 -0.3916
  384MOL0     C51764   8.341  10.451   4.882  0.0236  0.3555 -0.0147
  384MOL0     C51765   8.329  10.522   4.744  0.1849 -0.0556  0.6780
  384MOL0     C51766   8.255  10.662   4.750  0.0321 -0.2307  0.2683
  384MOL0     C51767   8.104  10.633   4.739 -0.5491  1.0205  0.1969
  384MOL0     C51768   8.028  10.751   4.698  0.1653 -0.8424  0.4315
  384MOL0     C51769   7.939  10.831   4.674 -0.0173 -0.3218 -1.1836
  384MOL0     C51770   8.574  10.193   4.978 -0.7098  0.8993 -0.8646
  384MOL0     C51771   8.629  10.131   5.097 -1.4702 -0.5728 -0.1031
  384MOL0     C51772   8.766  10.054   5.080  0.9901  0.1016  0.3672
  384MOL0     H51773   8.561  10.186   5.704  2.8933  0.9445  3.3264
  384MOL0     H51774   8.698  10.136   5.887 -0.5995 -1.4382  0.0710
  384MOL0     H51775   9.105   9.957   5.973 -0.1096  2.0453  0.3545
  384MOL0     H51776   9.080   9.909   5.807 -1.1672  0.7568 -1.4698
  384MOL0     H51777   9.129  10.183   5.781  0.5190  1.7300  0.8130
  384MOL0     H51778   9.263  10.073   5.814 -1.9467 -1.3859 -3.6712
  384MOL0     H51779   9.266  10.266   5.971  1.8865 -1.7301  0.5166
  384MOL0     H51780   9.264  10.116   6.038  2.9607  1.9423 -1.7961
  384MOL0     H51781   9.143  10.338   6.112 -0.8455  0.4826 -0.8214
  384MOL0     H51782   9.018  10.283   5.996  1.6301  0.4658 -1.1628
  384MOL0     H51783   9.016  10.057   6.155  0.7952 -0.9939 -0.3026
  384MOL0     H51784   9.121  10.157   6.263  0.8225 -0.3295 -0.1093
  384MOL0     H51785   8.892  10.155   6.344 -0.2503 -1.4162 -1.0604
  384MOL0     H51786   8.936  10.315   6.327 -3.2063  0.8110 -0.9667
  384MOL0     H51787   8.767  10.139   6.141  1.6656 -0.4248 -1.4783
  384MOL0     H51788   8.812  10.288   6.073 -1.4695 -2.0164 -1.6459
  384MOL0     H51789   8.726  10.410   6.259  3.1022 -1.9240 -2.5425
  384MOL0     H51790   8.598  10.321   6.172  0.5910  2.6119 -1.3520
  384MOL0     H51791   8.534  10.072   6.279 -2.9306  3.1794 -1.3955
  384MOL0     H51792   8.548   9.878   6.472 -1.3865  0.2843 -0.2931
  384MOL0     H51793   8.614   9.933   6.624  1.8940  0.7251 -1.1991
  384MOL0     H51794   8.406   9.871   6.679  1.2929 -0.1148  1.0123
  384MOL0     H51795   8.412  10.050   6.673 -0.7541  0.4960 -0.8447
  384MOL0     H51796   8.277  10.068   6.474  4.0191  0.4219 -1.6869
  384MOL0     H51797   8.195   9.936   6.577  1.0770 -1.5434  0.9118
  384MOL0     H51798   8.261   9.771   6.437 -3.2771  0.3425 -0.0121
  384MOL0     H51799   8.370   9.876   6.331 -0.7265 -0.6424 -2.3888
  384MOL0     H51800   7.967   9.925   6.194 -0.5782 -1.3424  3.8933
  384MOL0     H51801   7.869   9.790   5.999  1.7811  1.5284 -0.1041
  384MOL0     H51802   8.083   9.227   5.830  0.5731 -1.5504 -0.1833
  384MOL0     H51803   8.038   9.061   5.633 -3.0873 -0.2630  1.2557
  384MOL0     H51804   7.826   9.221   5.271 -1.3892 -1.2725  1.2376
  384MOL0     H51805   7.989   9.176   5.207  0.2600  0.5797  0.5206
  384MOL0     H51806   7.790   8.958   5.293 -0.7442 -1.7332 -0.4992
  384MOL0     H51807   7.788   9.037   5.133 -0.4582  0.5152  0.7753
  384MOL0     H51808   7.997   8.944   5.066  0.9907 -1.3425 -0.3537
  384MOL0     H51809   8.038   8.915   5.248 -1.3314 -1.9930  1.3268
  384MOL0     H51810   7.833   8.773   5.058  1.3642 -1.1302 -1.8704
  384MOL0     H51811   7.854   8.741   5.238  0.2784  0.8666 -0.7093
  384MOL0     H51812   7.934   8.566   5.130 -1.3126  0.5601  2.6625
  384MOL0     H51813   8.071   8.640   5.202 -0.8015 -1.2440  1.7706
  384MOL0     H51814   7.985   8.671   4.918 -0.9450  0.2155  0.6386
  384MOL0     H51815   8.132   8.750   5.004  1.5366 -0.9925  0.3706
  384MOL0     H51816   8.112   8.462   5.013  0.1328  0.7342  2.1469
  384MOL0     H51817   8.256   8.575   5.024  1.0215 -1.2497 -1.7292
  384MOL0     H51818   8.253   8.595   4.784  0.6110 -0.5139  1.0565
  384MOL0     H51819   8.239   8.416   4.819  0.4833 -0.5763  1.8594
  384MOL0     H51820   7.927   9.397   5.382 -3.6733  0.5349  0.8084
  384MOL0     H51821   7.931   9.550   5.581 -0.4125  0.0113 -3.6833
  384MOL0     H51822   8.205   9.510   6.045  0.2014  0.4789 -1.0728
  384MOL0     H51823   8.282   9.660   6.221  0.0550  0.7578 -1.2612
  384MOL0     H51824   9.009   9.998   5.607  0.0659  1.0579 -1.7045
  384MOL0     H51825   8.873  10.050   5.429  2.1062  2.0630  0.9589
  384MOL0     H51826   8.376  10.238   5.311 -1.7229 -0.7984 -1.8367
  384MOL0     H51827   8.293  10.333   5.108  0.8220 -0.1605 -2.6451
  384MOL0     H51828   8.366  10.524   4.959  0.0801  0.6565 -0.3167
  384MOL0     H51829   8.243  10.417   4.915 -0.3621  2.0009  0.6107
  384MOL0     H51830   8.281  10.453   4.673  1.4210 -0.4221  0.1674
  384MOL0     H51831   8.431  10.543   4.710  1.0395 -0.3175  2.9168
  384MOL0     H51832   8.288  10.723   4.666  0.4824 -0.4791  0.2635
  384MOL0     H51833   8.271  10.708   4.848  0.8214 -0.5813  0.3112
  384MOL0     H51834   8.083  10.556   4.663  1.1685 -0.9928  1.6457
  384MOL0     H51835   8.071  10.595   4.836  2.0032 -2.2406 -0.0179
  384MOL0     H51836   7.850  10.884   4.646 -0.8778  0.7299  2.9076
  384MOL0     H51837   8.622  10.180   4.881 -2.9996 -0.7451 -1.8762
  384MOL0     H51838   8.834  10.068   5.164 -0.3646  0.7078  1.4153
  384MOL0     H51839   8.748   9.946   5.078 -1.1132  0.4004  0.8076
  384MOL0     H51840   8.815  10.091   4.989 -1.2356  0.3324 -0.8281
  385MOL0     O51841   5.603   0.974   3.220 -0.6987  0.0487 -0.8099
  385MOL0     C51842   5.677   0.892   3.276  0.1109  0.2770  0.0445
  385MOL0     O51843   5.803   0.921   3.322 -0.2744  0.8105  0.0747
  385MOL0     C51844   5.856   1.046   3.302 -0.6117 -1.1391  0.1974
  385MOL0     C51845   5.877   1.107   3.175 -0.1112  0.4903  0.7396
  385MOL0     C51846   5.911   1.237   3.158 -0.2237 -0.5703 -0.9571
  385MOL0     C51847   5.920   1.326   3.263 -0.5942  0.0987  0.6476
  385MOL0     O51848   5.947   1.461   3.248  0.2129 -0.8806  0.7410
  385MOL0     C51849   5.959   1.536   3.122 -0.5137 -0.2895  0.2298
  385MOL0     C51850   6.014   1.679   3.133  0.5823 -0.1277  0.1932
  385MOL0     C51851   5.933   1.763   3.242 -0.0166  0.5393 -0.6652
  385MOL0     C51852   5.799   1.817   3.191 -0.5594 -0.0827  0.0638
  385MOL0     C51853   5.735   1.925   3.281  0.0389 -0.4913 -0.1328
  385MOL0     C51854   5.612   1.995   3.230  0.0400  0.2188 -0.2378
  385MOL0     C51855   5.566   2.108   3.325 -0.0528  0.3277  0.8339
  385MOL0     C51856   5.436   2.171   3.290  0.3256  0.7249 -0.2843
  385MOL0     N51857   5.398   2.270   3.379  0.3704  0.0405 -0.6597
  385MOL0     C51858   5.477   2.384   3.408 -1.1390  0.1022  0.0068
  385MOL0     C51859   5.392   2.463   3.486 -0.6552 -0.5062 -0.1762
  385MOL0     C51860   5.418   2.600   3.549  0.1922 -0.0742  0.5702
  385MOL0     C51861   5.349   2.714   3.475  0.4369  0.0273  0.6130
  385MOL0     C51862   5.396   2.846   3.534  0.7665 -0.1359  0.1591
  385MOL0     C51863   5.301   2.960   3.487  0.0763 -0.1925  0.0785
  385MOL0     O51864   5.331   3.082   3.559  0.0455  0.2050 -0.1590
  385MOL0     C51865   5.253   3.192   3.521 -0.3342 -0.3213  0.3955
  385MOL0     C51866   5.158   3.189   3.424 -0.3037  0.0529  0.9520
  385MOL0     C51867   5.075   3.303   3.396 -0.3980 -0.2846  0.0073
  385MOL0     C51868   5.090   3.419   3.475 -1.1017 -0.4267  0.5657
  385MOL0     C51869   5.006   3.547   3.462 -1.4086  0.4133  0.8759
  385MOL0     O51870   4.908   3.545   3.366  0.1184 -0.4031 -0.3934
  385MOL0     C51871   4.808   3.637   3.369  0.4076  0.7017 -0.0131
  385MOL0     C51872   4.729   3.662   3.251 -0.1351 -0.1088  0.2305
  385MOL0     C51873   4.613   3.739   3.255 -1.2418 -0.2049 -0.1079
  385MOL0     C51874   4.572   3.802   3.374  0.2488 -0.4607  0.8590
  385MOL0     O51875   4.467   3.899   3.384 -0.3509  0.4055 -0.2394
  385MOL0     C51876   4.428   3.970   3.266 -0.5348  0.0448 -0.9670
  385MOL0     C51877   4.308   3.913   3.211 -0.3384  0.0419  0.0111
  385MOL0     C51878   4.188   3.905   3.321 -0.5403  0.1760 -0.2606
  385MOL0     C51879   4.088   3.795   3.284  0.7276 -0.1429 -0.0683
  385MOL0     C51880   3.957   3.816   3.346  0.5456  1.3574 -0.0382
  385MOL0     C51881   3.857   3.696   3.338 -0.0564 -0.5213  0.1444
  385MOL0     C51882   3.721   3.725   3.397  1.0877  0.1143 -0.7096
  385MOL0     C51883   3.612   3.670   3.316 -0.7749  0.1225  0.1683
  385MOL0    Cl51884   3.607   3.497   3.334  0.1894  0.1010  0.6798
  385MOL0     C51885   4.644   3.773   3.488 -0.2203 -0.0172  0.0712
  385MOL0     C51886   4.755   3.693   3.482 -1.1001  0.0087 -0.1745
  385MOL0     O51887   5.034   3.650   3.526  0.3163  0.1352 -0.1266
  385MOL0     C51888   5.198   3.417   3.570  0.2886  0.5371  0.4043
  385MOL0     C51889   5.279   3.305   3.590  0.2046  0.1554  0.8768
  385MOL0     N51890   5.271   2.396   3.504 -1.3241  0.6788 -0.3269
  385MOL0     N51891   5.274   2.290   3.435  0.3284  0.4671  0.1258
  385MOL0     C51892   5.922   1.266   3.397  0.2291  0.5200  0.8720
  385MOL0     C51893   5.882   1.132   3.407  0.5847  0.0843 -0.6335
  385MOL0     C51894   5.607   0.772   3.338  0.0579 -0.5690  1.0317
  385MOL0     C51895   5.666   0.725   3.462 -0.6185  0.3035  0.3431
  385MOL0     C51896   5.609   0.611   3.529  0.4884  0.6318  0.1979
  385MOL0     C51897   5.510   0.538   3.458 -0.2790 -0.0003  0.4412
  385MOL0     O51898   5.453   0.427   3.517  0.2919  0.6741  0.1436
  385MOL0     C51899   5.436   0.414   3.656  0.1783 -0.2659 -0.1066
  385MOL0     C51900   5.296   0.357   3.673  0.1005  0.2510  0.2326
  385MOL0     C51901   5.239   0.371   3.815 -0.1713  0.7696  0.9178
  385MOL0     C51902   5.159   0.500   3.836  0.2471  0.3387 -0.2637
  385MOL0     C51903   5.245   0.609   3.881  0.1674 -0.6284 -0.7583
  385MOL0     C51904   5.317   0.695   3.931  0.4413 -0.1054 -0.2203
  385MOL0     C51905   5.466   0.586   3.332  0.1871  0.5031  0.0573
  385MOL0     C51906   5.512   0.703   3.267  0.9451 -0.0016  0.9673
  385MOL0     C51907   5.466   0.727   3.126 -0.3965  0.1308  0.8340
  385MOL0     H51908   5.851   1.049   3.087 -4.0123  0.3311  1.8362
  385MOL0     H51909   5.917   1.268   3.054  0.9034  1.0433 -0.4448
  385MOL0     H51910   6.030   1.485   3.056  0.7732  1.6281  0.0214
  385MOL0     H51911   5.861   1.540   3.073 -0.1890 -0.9175 -0.5015
  385MOL0     H51912   6.010   1.722   3.032 -3.1166 -2.6962 -0.9128
  385MOL0     H51913   6.120   1.666   3.159  0.9076 -3.1836 -2.1838
  385MOL0     H51914   6.000   1.848   3.255  2.0400 -1.0434 -0.4381
  385MOL0     H51915   5.932   1.715   3.340  4.4075  1.6121  0.1005
  385MOL0     H51916   5.818   1.871   3.097  3.4678  0.7581  1.1519
  385MOL0     H51917   5.723   1.740   3.177  0.9541 -1.9333  1.5850
  385MOL0     H51918   5.704   1.879   3.376 -0.9226  0.9583  0.2830
  385MOL0     H51919   5.819   1.990   3.308  1.8274 -2.2691 -1.1100
  385MOL0     H51920   5.628   2.036   3.129 -1.4440 -2.8886 -1.8802
  385MOL0     H51921   5.531   1.923   3.222  1.8356 -2.0721  1.1356
  385MOL0     H51922   5.649   2.178   3.317  0.9955 -1.0879 -4.3558
  385MOL0     H51923   5.546   2.062   3.422 -3.7119 -1.1592 -0.4182
  385MOL0     H51924   5.453   2.223   3.195 -1.2128 -1.2521 -1.7301
  385MOL0     H51925   5.365   2.089   3.272 -0.5103  2.1682 -4.7730
  385MOL0     H51926   5.577   2.410   3.375 -1.6663  0.6536 -1.1952
  385MOL0     H51927   5.370   2.590   3.647 -2.1132 -0.0737 -0.4900
  385MOL0     H51928   5.523   2.630   3.552 -0.1995  1.2937  1.8281
  385MOL0     H51929   5.355   2.714   3.366 -0.7292 -0.8298  0.5289
  385MOL0     H51930   5.243   2.699   3.495  0.6519 -0.3620  1.4879
  385MOL0     H51931   5.500   2.867   3.507  2.1515 -4.5415  1.2387
  385MOL0     H51932   5.388   2.835   3.642 -1.8586  1.0018  0.1530
  385MOL0     H51933   5.198   2.932   3.508  0.3100 -1.2564 -0.1569
  385MOL0     H51934   5.330   2.973   3.383  0.6045 -1.0314  0.1138
  385MOL0     H51935   5.126   3.097   3.377 -1.9143 -0.0779  2.1847
  385MOL0     H51936   4.995   3.292   3.323  0.7720 -1.2057 -1.1978
  385MOL0     H51937   4.738   3.617   3.152 -0.7355  1.5086 -0.5923
  385MOL0     H51938   4.564   3.753   3.159  1.0902  0.0510 -1.3248
  385MOL0     H51939   4.405   4.074   3.286  0.3265 -0.1059  1.0531
  385MOL0     H51940   4.514   3.974   3.198 -1.0169  0.2468 -1.5669
  385MOL0     H51941   4.281   3.974   3.124  0.1673 -0.9323 -0.8438
  385MOL0     H51942   4.330   3.813   3.172  5.1226 -0.1731  2.7361
  385MOL0     H51943   4.223   3.885   3.423 -2.0533  0.1717  0.2782
  385MOL0     H51944   4.136   4.000   3.330  0.2030  0.7760 -1.8177
  385MOL0     H51945   4.133   3.706   3.329 -0.9711  0.3071  2.7669
  385MOL0     H51946   4.069   3.790   3.176  0.1256 -0.1071  0.0334
  385MOL0     H51947   3.901   3.901   3.309  0.0884  0.7071 -0.8690
  385MOL0     H51948   3.964   3.848   3.450 -0.4047 -0.0830  0.4995
  385MOL0     H51949   3.856   3.666   3.233  1.7259 -0.5314  0.1042
  385MOL0     H51950   3.916   3.618   3.387  2.5265  1.7836  0.9501
  385MOL0     H51951   3.706   3.833   3.403  0.8493  0.0646 -0.4450
  385MOL0     H51952   3.715   3.675   3.494  1.3764 -0.5941 -1.0456
  385MOL0     H51953   3.517   3.708   3.354 -0.8677 -1.0025  1.1249
  385MOL0     H51954   3.616   3.691   3.208  0.4911 -4.5451 -0.9219
  385MOL0     H51955   4.602   3.796   3.585 -1.2892 -1.6477  0.0390
  385MOL0     H51956   4.793   3.662   3.579 -1.9703  0.6887  0.3903
  385MOL0     H51957   5.222   3.505   3.628  0.3484  1.8638 -1.5260
  385MOL0     H51958   5.348   3.314   3.673 -1.0113  2.2902  1.7401
  385MOL0     H51959   5.948   1.324   3.485  0.1801 -1.2034  2.0638
  385MOL0     H51960   5.873   1.083   3.503 -0.4287 -2.7877 -2.0966
  385MOL0     H51961   5.753   0.770   3.510  0.2938  0.0396 -1.0118
  385MOL0     H51962   5.623   0.558   3.623  0.6617  0.2044 -0.0663
  385MOL0     H51963   5.424   0.512   3.704 -0.8770 -1.0184  1.2581
  385MOL0     H51964   5.514   0.350   3.698 -0.4716 -2.3453 -1.9229
  385MOL0     H51965   5.291   0.252   3.644  7.1245 -1.2419  2.3664
  385MOL0     H51966   5.241   0.417   3.600 -0.1207 -1.9519 -1.5291
  385MOL0     H51967   5.329   0.373   3.878 -1.2087 -1.9561  2.7155
  385MOL0     H51968   5.177   0.284   3.838 -0.1787  0.7109  0.6692
  385MOL0     H51969   5.095   0.514   3.748  0.9472 -1.2812 -1.0785
  385MOL0     H51970   5.097   0.483   3.925  0.9593  4.1992  1.1661
  385MOL0     H51971   5.383   0.769   3.973 -0.3456 -0.3103  1.4807
  385MOL0     H51972   5.389   0.535   3.276 -0.0362  0.5274  0.3366
  385MOL0     H51973   5.537   0.745   3.045 -2.5541 -2.4354 -1.8166
  385MOL0     H51974   5.419   0.636   3.087  2.1973 -1.5596  1.4259
  385MOL0     H51975   5.397   0.812   3.125 -2.4365 -1.4440  0.2131
  386MOL0     O51976   9.725   7.643   8.591 -0.1522  0.0184  0.3074
  386MOL0     C51977   9.734   7.700   8.487  0.2993 -0.4647 -0.3174
  386MOL0     O51978   9.840   7.778   8.446 -0.1748  0.4739  0.4605
  386MOL0     C51979   9.958   7.756   8.516  0.6377  0.0699  0.2821
  386MOL0     C51980  10.002   7.637   8.584 -0.1990 -0.2581  0.0803
  386MOL0     C51981  10.129   7.631   8.647  0.6205 -1.0004  0.8679
  386MOL0     C51982  10.214   7.751   8.653  0.4911  1.5057 -0.9901
  386MOL0     O51983  10.344   7.743   8.699 -0.0970 -0.1806  0.1808
  386MOL0     C51984  10.406   7.866   8.737 -0.6290 -0.4270 -0.3914
  386MOL0     C51985  10.542   7.834   8.801  0.1858 -0.0789  0.4971
  386MOL0     C51986  10.638   7.770   8.703  0.7348 -0.1008 -0.6175
  386MOL0     C51987  10.783   7.794   8.716  0.4765  0.0344 -0.6766
  386MOL0     C51988  10.834   7.713   8.838  0.1670  0.1251 -0.0069
  386MOL0     C51989  10.983   7.740   8.884 -0.3388 -0.4492  0.2842
  386MOL0     C51990  11.093   7.699   8.788 -0.7551  0.1599  0.1467
  386MOL0     C51991  11.224   7.739   8.855 -0.8442  0.0410 -0.4422
  386MOL0     N51992  11.327   7.750   8.750  0.4061 -1.0836 -0.0258
  386MOL0     C51993  11.357   7.869   8.682  0.4128 -0.1876 -0.1224
  386MOL0     C51994  11.451   7.842   8.595  0.5322 -0.2099  0.3354
  386MOL0     C51995  11.522   7.943   8.509  0.1891  0.0902  0.2403
  386MOL0     C51996  11.647   7.888   8.452 -0.7311  1.0231  0.8693
  386MOL0     C51997  11.670   7.958   8.318  0.1111 -0.0878 -0.0208
  386MOL0     C51998  11.808   7.939   8.257  0.2847  0.1076  0.8565
  386MOL0     O51999  11.911   7.983   8.340 -0.7156 -0.1805  0.2120
  386MOL0     C52000  12.041   7.992   8.295  0.6836  0.6064  0.2373
  386MOL0     C52001  12.096   7.933   8.180 -0.0215 -0.1744 -0.0306
  386MOL0     C52002  12.236   7.948   8.154  0.0203 -0.1177 -0.2302
  386MOL0     C52003  12.317   8.031   8.233 -0.5868 -0.6084 -0.4869
  386MOL0     C52004  12.462   8.051   8.205  1.1293 -0.1475 -0.7342
  386MOL0     O52005  12.541   8.082   8.312  0.1915 -0.2980 -0.0110
  386MOL0     C52006  12.672   8.102   8.276  0.3837 -0.3663  0.5390
  386MOL0     C52007  12.722   8.222   8.224  0.1660 -0.5029 -0.5184
  386MOL0     C52008  12.860   8.248   8.192 -0.0825  0.1951 -1.3084
  386MOL0     C52009  12.957   8.147   8.225 -0.4147 -0.2528 -0.3717
  386MOL0     O52010  13.085   8.186   8.198  0.6829  0.3706  1.0765
  386MOL0     C52011  13.171   8.081   8.190  0.8144  0.0119 -0.0281
  386MOL0     C52012  13.314   8.125   8.144 -0.0790  0.8415 -0.2134
  386MOL0     C52013  13.382   8.202   8.256  0.2843 -0.0988  0.9694
  386MOL0     C52014  13.537   8.222   8.242  0.6324  0.7406  0.2892
  386MOL0     C52015  13.615   8.125   8.323 -0.1470 -0.4031 -0.5619
  386MOL0     C52016  13.761   8.178   8.342 -0.2551 -0.5523  0.2518
  386MOL0     C52017  13.845   8.092   8.437 -0.3337 -0.2891 -0.1277
  386MOL0     C52018  13.924   7.991   8.349 -0.1860 -0.2404  0.5295
  386MOL0    Cl52019  13.819   7.865   8.282  0.1068 -0.0733 -0.1485
  386MOL0     C52020  12.914   8.033   8.292  0.4598 -0.2615 -0.4251
  386MOL0     C52021  12.770   8.008   8.303 -0.5038 -0.3842  0.0752
  386MOL0     O52022  12.497   8.035   8.092 -0.4004 -0.9542 -0.2491
  386MOL0     C52023  12.256   8.085   8.351  0.0890  0.0806  0.0245
  386MOL0     C52024  12.119   8.067   8.382  0.4829  1.0003  0.3994
  386MOL0     N52025  11.467   7.700   8.600  0.2626  0.2332  0.5962
  386MOL0     N52026  11.403   7.647   8.698 -0.2385 -0.8444  0.6827
  386MOL0     C52027  10.162   7.871   8.599 -0.8718  0.0666 -0.6572
  386MOL0     C52028  10.039   7.868   8.525 -0.8052 -0.2765  0.3630
  386MOL0     C52029   9.624   7.703   8.389  0.3533 -0.1301  0.4467
  386MOL0     C52030   9.623   7.794   8.281  0.1609 -0.3271 -0.2986
  386MOL0     C52031   9.514   7.801   8.193  0.3704 -0.3969  0.3686
  386MOL0     C52032   9.402   7.715   8.210  0.4480 -0.7788  0.0221
  386MOL0     O52033   9.292   7.727   8.127 -0.6995 -0.2235  0.1441
  386MOL0     C52034   9.162   7.686   8.179 -0.1209 -0.7859 -0.3662
  386MOL0     C52035   9.064   7.742   8.082  0.9111 -0.5538  0.4043
  386MOL0     C52036   8.923   7.670   8.107 -0.8449 -0.3867  0.6608
  386MOL0     C52037   8.796   7.759   8.063 -0.3110  0.2798  0.3001
  386MOL0     C52038   8.684   7.675   8.102  1.5924  0.5011 -0.1805
  386MOL0     C52039   8.597   7.589   8.114  0.1768  0.3336 -0.3772
  386MOL0     C52040   9.419   7.609   8.302 -0.0957 -0.7051 -0.0654
  386MOL0     C52041   9.526   7.595   8.389  0.0765  0.1045 -0.0584
  386MOL0     C52042   9.510   7.473   8.473 -0.7564  0.5487 -0.2451
  386MOL0     H52043   9.944   7.547   8.567 -0.3706  0.0898 -1.3062
  386MOL0     H52044  10.169   7.534   8.675  1.3757 -0.9817 -0.0688
  386MOL0     H52045  10.425   7.928   8.649  1.9230  2.0136  1.6427
  386MOL0     H52046  10.343   7.921   8.808  0.8879 -0.9435  1.4561
  386MOL0     H52047  10.529   7.778   8.894  1.8180 -0.3198  0.6159
  386MOL0     H52048  10.581   7.934   8.822 -1.9282  0.8927  0.0125
  386MOL0     H52049  10.605   7.818   8.610 -0.6207  2.1618  0.9249
  386MOL0     H52050  10.616   7.663   8.707 -1.1656  0.2606 -0.1128
  386MOL0     H52051  10.824   7.759   8.621  1.8246 -3.7256  1.1125
  386MOL0     H52052  10.799   7.898   8.746 -3.5755  0.2898  1.2002
  386MOL0     H52053  10.778   7.754   8.923  0.9301  2.3538 -0.5069
  386MOL0     H52054  10.827   7.607   8.815 -0.3999  0.3502 -0.8893
  386MOL0     H52055  10.985   7.846   8.908  1.3664 -0.9269  2.6030
  386MOL0     H52056  11.007   7.688   8.977 -0.0968 -0.7968  0.0331
  386MOL0     H52057  11.077   7.748   8.692  0.4241  1.3406  0.5350
  386MOL0     H52058  11.105   7.591   8.771  1.6347  0.3099  0.5638
  386MOL0     H52059  11.204   7.836   8.902 -0.4601  1.3174 -2.7327
  386MOL0     H52060  11.259   7.670   8.933  0.6337  1.7831  0.5404
  386MOL0     H52061  11.317   7.969   8.691  0.4758 -0.3432  3.0974
  386MOL0     H52062  11.460   7.986   8.429  2.3837  1.0474 -1.0474
  386MOL0     H52063  11.563   8.025   8.568  1.2170  0.1949 -0.5779
  386MOL0     H52064  11.735   7.904   8.515 -0.9138  0.8568  1.1692
  386MOL0     H52065  11.627   7.784   8.422 -3.4880  2.0295 -1.1472
  386MOL0     H52066  11.643   8.063   8.334 -2.2251 -0.3127 -1.9702
  386MOL0     H52067  11.598   7.936   8.239  2.6927  1.0382 -2.9053
  386MOL0     H52068  11.815   7.985   8.159  0.0177  2.0735  1.7108
  386MOL0     H52069  11.827   7.833   8.237 -0.2180  0.4453 -1.6810
  386MOL0     H52070  12.032   7.868   8.122 -1.0528  0.7914 -0.0136
  386MOL0     H52071  12.272   7.908   8.059 -0.6266 -0.4109 -0.3592
  386MOL0     H52072  12.657   8.306   8.200  1.4328  0.4619 -0.6930
  386MOL0     H52073  12.884   8.348   8.158  1.1721  0.6986  0.8163
  386MOL0     H52074  13.181   8.025   8.284 -2.5499  2.1883  1.8559
  386MOL0     H52075  13.118   8.014   8.122 -3.1588  1.1959  1.5828
  386MOL0     H52076  13.366   8.030   8.128 -0.8219  0.9909 -4.6986
  386MOL0     H52077  13.310   8.184   8.053  0.6840  1.3272  0.0499
  386MOL0     H52078  13.335   8.301   8.253 -0.6417 -0.4771  2.2669
  386MOL0     H52079  13.352   8.157   8.351 -2.4070  0.4076  0.4612
  386MOL0     H52080  13.563   8.321   8.282  0.9946  0.7307  0.0813
  386MOL0     H52081  13.568   8.227   8.138  1.4243  1.8089  0.5569
  386MOL0     H52082  13.610   8.028   8.273  1.8832 -1.0387  0.3446
  386MOL0     H52083  13.563   8.125   8.420 -1.2042  2.0154 -1.0463
  386MOL0     H52084  13.812   8.200   8.247 -1.5689 -0.2763 -0.4132
  386MOL0     H52085  13.749   8.275   8.392  0.3320  0.9119 -2.2665
  386MOL0     H52086  13.781   8.033   8.503  1.0126  0.2899  1.7761
  386MOL0     H52087  13.909   8.153   8.500  1.0273 -4.6423  3.1755
  386MOL0     H52088  13.968   8.035   8.260  1.4267 -4.2456 -0.8638
  386MOL0     H52089  14.004   7.953   8.413  1.0006  1.3548  0.0629
  386MOL0     H52090  12.971   7.950   8.332 -0.6930 -0.6250  0.5207
  386MOL0     H52091  12.746   7.908   8.336  0.4241 -1.8052 -3.1502
  386MOL0     H52092  12.316   8.145   8.418  1.2214  0.3378 -1.1766
  386MOL0     H52093  12.069   8.124   8.460 -0.4617 -2.4147  2.5162
  386MOL0     H52094  10.211   7.966   8.616  1.2938 -1.3672  2.0623
  386MOL0     H52095  10.012   7.966   8.488 -2.6245 -0.6802  0.5415
  386MOL0     H52096   9.691   7.877   8.264 -2.3973  1.4741 -2.6650
  386MOL0     H52097   9.519   7.876   8.115  1.1812  0.4659  1.2164
  386MOL0     H52098   9.146   7.730   8.278  0.1409 -0.7717 -0.3279
  386MOL0     H52099   9.153   7.578   8.192 -0.5799 -0.4670  2.7689
  386MOL0     H52100   9.093   7.719   7.979  0.2395 -0.6920  0.2419
  386MOL0     H52101   9.051   7.850   8.090 -1.8100 -0.4523 -3.0754
  386MOL0     H52102   8.927   7.644   8.213  2.1865 -0.7496  0.5477
  386MOL0     H52103   8.932   7.582   8.043 -0.9703  0.0277  0.0718
  386MOL0     H52104   8.790   7.839   8.138 -0.1852  0.0597  0.5464
  386MOL0     H52105   8.801   7.776   7.955  1.2831 -2.6655 -0.1642
  386MOL0     H52106   8.522   7.519   8.145 -0.0332  0.3752 -0.7852
  386MOL0     H52107   9.334   7.542   8.312 -0.5525  0.2084  2.9007
  386MOL0     H52108   9.485   7.494   8.578  1.0710  1.0801  0.1386
  386MOL0     H52109   9.440   7.398   8.436 -0.7039 -0.5928  1.8003
  386MOL0     H52110   9.608   7.429   8.495  0.1654  3.1670  1.3431
  387MOL0     O52111   5.399   9.013   0.117 -0.5009  0.5331  1.0748
  387MOL0     C52112   5.500   9.063   0.065  0.8327 -0.0851  0.8011
  387MOL0     O52113   5.536   9.194   0.078 -0.6539  0.5222 -0.5935
  387MOL0     C52114   5.452   9.287   0.143  0.2868 -0.4975 -0.8253
  387MOL0     C52115   5.515   9.362   0.246 -0.4419  0.0036  0.9949
  387MOL0     C52116   5.435   9.436   0.340 -0.0529  0.8501  0.4990
  387MOL0     C52117   5.299   9.440   0.319  1.3274 -0.0965 -0.6002
  387MOL0     O52118   5.226   9.517   0.412 -0.2217  0.3747  1.0896
  387MOL0     C52119   5.177   9.641   0.361  0.1623 -0.4121  0.0731
  387MOL0     C52120   5.022   9.646   0.352  0.4699 -0.6739 -0.3011
  387MOL0     C52121   4.958   9.789   0.350 -0.3881  0.2313  0.2362
  387MOL0     C52122   4.813   9.783   0.291  0.5927  0.2531 -0.1177
  387MOL0     C52123   4.716   9.897   0.336  0.3137 -1.0463 -0.2990
  387MOL0     C52124   4.634   9.932   0.215 -0.0861  0.2076 -0.4882
  387MOL0     C52125   4.558   9.811   0.149 -0.9743  1.0269  0.2347
  387MOL0     C52126   4.447   9.863   0.066  0.5533  0.0604  0.2860
  387MOL0     N52127   4.476   9.960  -0.041  0.3001 -0.0560  0.3450
  387MOL0     C52128   4.499   9.938  -0.177 -1.0447  0.0514  0.6235
  387MOL0     C52129   4.511  10.060  -0.232  0.3637  0.1923 -0.4366
  387MOL0     C52130   4.550  10.106  -0.374 -0.3317 -0.8116 -1.1752
  387MOL0     C52131   4.712  10.130  -0.372  0.6299  0.0609  0.5225
  387MOL0     C52132   4.799  10.005  -0.375 -0.3669 -0.5321  0.1773
  387MOL0     C52133   4.948  10.037  -0.389  0.0148  0.2123 -0.1960
  387MOL0     O52134   5.001   9.919  -0.438  0.3561  0.2288  0.0066
  387MOL0     C52135   5.115   9.919  -0.515 -0.6301  0.3956 -0.5454
  387MOL0     C52136   5.160   9.787  -0.543  0.3828 -0.6591 -0.3562
  387MOL0     C52137   5.279   9.763  -0.606  0.2976  0.1480 -0.5879
  387MOL0     C52138   5.356   9.878  -0.625  0.2904 -0.5296  0.5432
  387MOL0     C52139   5.484   9.859  -0.694 -0.3915 -0.1330  0.5834
  387MOL0     O52140   5.537   9.964  -0.742 -0.6941 -0.2119 -0.6618
  387MOL0     C52141   5.651   9.948  -0.819 -0.1919  0.3268 -0.4325
  387MOL0     C52142   5.638   9.904  -0.947  0.9126 -0.3408  0.3315
  387MOL0     C52143   5.750   9.892  -1.024 -0.2704 -0.4097 -0.3921
  387MOL0     C52144   5.882   9.922  -0.963  0.2636  0.6899 -1.0506
  387MOL0     O52145   5.998   9.894  -1.042  0.8651 -0.2404  0.6907
  387MOL0     C52146   6.109   9.819  -0.996 -0.0101  0.1162  0.9339
  387MOL0     C52147   6.074   9.684  -0.954  0.6886  0.6029 -0.0869
  387MOL0     C52148   6.019   9.592  -1.068  0.0702  0.9441 -0.1112
  387MOL0     C52149   5.967   9.457  -1.022  0.2906 -0.6496  0.0155
  387MOL0     C52150   5.839   9.481  -0.940  0.1619  0.1537 -0.1443
  387MOL0     C52151   5.769   9.358  -0.898  0.0669 -0.4415  0.3676
  387MOL0     C52152   5.641   9.388  -0.834  0.1649  0.0322  0.7822
  387MOL0     C52153   5.556   9.259  -0.796 -0.8347 -0.7548 -0.2117
  387MOL0    Cl52154   5.596   9.207  -0.626  0.3436  0.0195  0.0589
  387MOL0     C52155   5.888   9.978  -0.839 -1.0781 -0.1117 -0.9812
  387MOL0     C52156   5.770   9.995  -0.761  0.1862 -0.1158 -1.0653
  387MOL0     O52157   5.528   9.745  -0.706 -0.6066 -0.2750 -0.7042
  387MOL0     C52158   5.311  10.015  -0.593 -1.1861 -0.5810  0.5627
  387MOL0     C52159   5.192  10.029  -0.545  0.8100  0.7776  0.5214
  387MOL0     N52160   4.512  10.148  -0.130  0.0026  0.4341  0.1618
  387MOL0     N52161   4.488  10.097  -0.013 -0.4455  0.1606  1.2138
  387MOL0     C52162   5.238   9.366   0.224 -0.0327  0.1490  0.4903
  387MOL0     C52163   5.307   9.300   0.126 -0.0058 -0.8167 -0.4737
  387MOL0     C52164   5.582   8.980  -0.028  0.4250  1.3904 -0.7565
  387MOL0     C52165   5.658   9.047  -0.129  1.0345  0.4308  0.3369
  387MOL0     C52166   5.712   8.986  -0.241  0.3259  0.6354  0.2912
  387MOL0     C52167   5.697   8.843  -0.243 -0.0379  0.1208  0.3898
  387MOL0     O52168   5.757   8.761  -0.339 -0.4807 -0.0934  0.4184
  387MOL0     C52169   5.754   8.800  -0.478  0.0788 -0.6665  0.4540
  387MOL0     C52170   5.898   8.820  -0.523 -1.0447 -0.8520  0.3111
  387MOL0     C52171   5.887   8.903  -0.646  0.2766 -0.0045 -0.2035
  387MOL0     C52172   5.978   8.872  -0.761  0.1009  0.0264  0.0695
  387MOL0     C52173   5.930   8.751  -0.831 -0.5350 -0.6697  0.6452
  387MOL0     C52174   5.871   8.668  -0.896  1.0146  0.1000 -0.7159
  387MOL0     C52175   5.632   8.770  -0.143  0.1609 -0.4912 -0.5302
  387MOL0     C52176   5.574   8.837  -0.035 -1.2400  0.3723 -0.3164
  387MOL0     C52177   5.509   8.761   0.081 -0.3374 -0.2449 -0.7050
  387MOL0     H52178   5.621   9.381   0.257 -0.8178  2.5426  0.9012
  387MOL0     H52179   5.482   9.498   0.415  0.3816  0.4554  0.5544
  387MOL0     H52180   5.213   9.722   0.424 -2.5765  0.8762  0.1327
  387MOL0     H52181   5.214   9.664   0.261  0.4334 -1.9215 -0.1985
  387MOL0     H52182   4.987   9.593   0.441  0.1819  0.4390  0.2673
  387MOL0     H52183   4.985   9.583   0.271  2.5293 -1.6730 -0.5126
  387MOL0     H52184   5.020   9.858   0.292  0.6702 -1.0449 -0.2153
  387MOL0     H52185   4.963   9.828   0.452 -0.3949  0.8151  0.0155
  387MOL0     H52186   4.812   9.781   0.181  1.0513  2.9887 -0.2413
  387MOL0     H52187   4.763   9.691   0.323  0.5863  0.3106  0.0356
  387MOL0     H52188   4.642   9.883   0.415  0.5660  1.0465  0.3672
  387MOL0     H52189   4.788   9.975   0.363  0.1216 -1.2162  0.7666
  387MOL0     H52190   4.553   9.993   0.254 -0.6039 -1.0070  0.3844
  387MOL0     H52191   4.688   9.977   0.130 -0.2820  0.5816 -0.4183
  387MOL0     H52192   4.510   9.751   0.228 -0.7062  0.8751  0.2848
  387MOL0     H52193   4.635   9.761   0.090 -2.0770 -0.4312 -0.0149
  387MOL0     H52194   4.425   9.776   0.004  1.8908 -1.0873  1.3469
  387MOL0     H52195   4.367   9.900   0.131 -1.5131 -2.4974 -0.6604
  387MOL0     H52196   4.515   9.848  -0.234 -4.1741  1.0856 -2.2585
  387MOL0     H52197   4.536  10.011  -0.426 -2.3245 -1.0203 -0.3650
  387MOL0     H52198   4.491  10.189  -0.414  0.6617  4.4153  6.1234
  387MOL0     H52199   4.736  10.191  -0.459  0.5608 -2.4278 -1.3290
  387MOL0     H52200   4.733  10.197  -0.288 -1.0431  0.6373  0.5083
  387MOL0     H52201   4.781   9.960  -0.473  0.6552  0.6426 -0.5763
  387MOL0     H52202   4.788   9.934  -0.292 -1.7129 -1.6361 -0.8754
  387MOL0     H52203   5.007  10.042  -0.297  1.3115 -1.5784 -0.8773
  387MOL0     H52204   4.962  10.123  -0.456 -1.7922 -0.8646 -2.0382
  387MOL0     H52205   5.097   9.708  -0.504  2.4845 -2.3666 -0.1977
  387MOL0     H52206   5.312   9.663  -0.630  2.5458  0.6761  0.0438
  387MOL0     H52207   5.538   9.881  -0.984  0.5646 -0.1236  1.1337
  387MOL0     H52208   5.750   9.868  -1.130 -0.4433 -0.9291 -0.2784
  387MOL0     H52209   6.192   9.808  -1.066 -1.0264 -2.1628 -0.0253
  387MOL0     H52210   6.144   9.877  -0.910 -4.5281  3.5438  0.8399
  387MOL0     H52211   6.158   9.631  -0.908  1.5832  0.9864 -1.2210
  387MOL0     H52212   6.007   9.687  -0.867  1.7891  1.0567  0.7800
  387MOL0     H52213   5.940   9.634  -1.130 -0.5771 -2.2453 -1.6526
  387MOL0     H52214   6.112   9.569  -1.121 -0.5986 -1.1527 -0.4938
  387MOL0     H52215   6.039   9.406  -0.957  1.1515  1.8525  1.1212
  387MOL0     H52216   5.952   9.390  -1.107 -0.0643 -0.1626 -0.3095
  387MOL0     H52217   5.774   9.553  -0.991 -0.5517  0.6571  1.4248
  387MOL0     H52218   5.864   9.525  -0.843 -0.8976 -1.3316  0.8251
  387MOL0     H52219   5.754   9.301  -0.991 -1.8300  2.4648 -1.2932
  387MOL0     H52220   5.832   9.312  -0.822  0.4106 -1.3457 -0.4362
  387MOL0     H52221   5.569   9.442  -0.895 -2.7489 -3.8644  0.4622
  387MOL0     H52222   5.652   9.433  -0.734  1.7825  0.3882  0.4741
  387MOL0     H52223   5.448   9.277  -0.792 -0.7544  0.7679 -2.7945
  387MOL0     H52224   5.569   9.171  -0.859 -1.4904 -0.4214 -0.8289
  387MOL0     H52225   5.986  10.011  -0.808  1.8196 -5.0046 -3.5904
  387MOL0     H52226   5.776  10.061  -0.674  1.3395  0.2239 -1.3822
  387MOL0     H52227   5.384  10.095  -0.602  0.1886 -2.0454 -3.6628
  387MOL0     H52228   5.158  10.128  -0.514 -2.8187  0.3694 -1.6149
  387MOL0     H52229   5.131   9.381   0.216  0.3810  3.1641 -0.4879
  387MOL0     H52230   5.252   9.240   0.055 -0.1181 -1.1851 -0.0743
  387MOL0     H52231   5.655   9.156  -0.122 -1.9974  0.4180  0.4220
  387MOL0     H52232   5.772   9.037  -0.316  0.6264 -1.0529 -0.6438
  387MOL0     H52233   5.699   8.894  -0.478 -3.2698 -2.4599 -0.5294
  387MOL0     H52234   5.692   8.733  -0.538  0.2480  1.4485 -2.2752
  387MOL0     H52235   5.931   8.720  -0.553  0.6861 -0.1788 -0.1282
  387MOL0     H52236   5.957   8.868  -0.444 -0.1831 -1.2311 -0.0920
  387MOL0     H52237   5.904   9.003  -0.606  3.3115 -1.1032  1.6053
  387MOL0     H52238   5.790   8.910  -0.695  0.9266  0.0058 -1.5258
  387MOL0     H52239   5.982   8.950  -0.838  3.6132  0.4717  0.5367
  387MOL0     H52240   6.080   8.856  -0.725 -0.7773 -1.2156  2.2462
  387MOL0     H52241   5.822   8.590  -0.951 -1.5343  1.6773 -0.8271
  387MOL0     H52242   5.627   8.662  -0.143 -4.9269 -0.5086 -1.9223
  387MOL0     H52243   5.524   8.653   0.067  1.8611 -0.6797  3.3178
  387MOL0     H52244   5.568   8.796   0.166 -0.0236 -1.6551 -0.3100
  387MOL0     H52245   5.401   8.773   0.089 -0.3445 -1.3087  1.5245
  388MOL0     O52246  10.708   2.207   7.400  0.6688 -0.7137 -0.1436
  388MOL0     C52247  10.759   2.221   7.287  0.5480  0.7410  0.6013
  388MOL0     O52248  10.730   2.133   7.182 -0.0973  0.3371  0.1548
  388MOL0     C52249  10.702   1.992   7.199  0.2807 -1.2995 -0.1148
  388MOL0     C52250  10.583   1.954   7.272  0.2745  0.5044  0.1251
  388MOL0     C52251  10.548   1.820   7.278 -0.2784  0.1047  0.5549
  388MOL0     C52252  10.627   1.717   7.218 -0.6463 -1.5979 -0.6145
  388MOL0     O52253  10.607   1.587   7.247 -0.0596 -0.6146  0.1559
  388MOL0     C52254  10.470   1.548   7.233  0.3557  0.3715  0.2718
  388MOL0     C52255  10.447   1.399   7.217 -0.0414 -0.3694  0.1615
  388MOL0     C52256  10.509   1.328   7.337 -0.1820 -0.8147 -0.3050
  388MOL0     C52257  10.460   1.182   7.333 -0.0426  0.9124 -0.3032
  388MOL0     C52258  10.570   1.084   7.331  0.0383 -0.3718 -0.6971
  388MOL0     C52259  10.528   0.941   7.376  0.3139 -0.3632  0.2295
  388MOL0     C52260  10.524   0.928   7.531  1.2554 -0.5615  0.0396
  388MOL0     C52261  10.640   0.861   7.596  1.3908  0.2411  0.8497
  388MOL0     N52262  10.759   0.942   7.585 -0.4677  0.1749 -0.8920
  388MOL0     C52263  10.879   0.913   7.523 -0.2707  0.2509 -0.4436
  388MOL0     C52264  10.960   1.003   7.570 -0.5031  0.2403  0.6108
  388MOL0     C52265  11.111   0.996   7.584  0.6818  0.8115  0.2127
  388MOL0     C52266  11.205   1.083   7.502 -0.0549 -0.8384  0.2486
  388MOL0     C52267  11.155   1.230   7.502 -0.2886  1.0241  0.0050
  388MOL0     C52268  11.056   1.257   7.392  0.6308 -0.3800  0.9660
  388MOL0     O52269  11.116   1.265   7.258  0.3533 -0.6430  1.2860
  388MOL0     C52270  11.038   1.302   7.151 -0.9680 -0.6773  0.3791
  388MOL0     C52271  11.102   1.303   7.020 -0.1989  0.0673 -0.9429
  388MOL0     C52272  11.016   1.320   6.901 -0.3252  0.2774  0.5090
  388MOL0     C52273  10.877   1.336   6.915 -0.3557 -0.2452  0.6764
  388MOL0     C52274  10.795   1.355   6.796 -0.1106 -0.9133 -0.6506
  388MOL0     O52275  10.657   1.355   6.809 -0.4730  0.6178  0.2048
  388MOL0     C52276  10.584   1.337   6.691  0.0635 -0.3520 -0.5442
  388MOL0     C52277  10.537   1.208   6.665  0.5128  0.0242 -0.4760
  388MOL0     C52278  10.464   1.189   6.547  1.0806 -1.6323 -1.0473
  388MOL0     C52279  10.425   1.303   6.468  0.0323  0.8078  0.1386
  388MOL0     O52280  10.345   1.289   6.359  0.0316  0.4834  0.3623
  388MOL0     C52281  10.244   1.188   6.346  0.2282  0.4185 -0.5326
  388MOL0     C52282  10.121   1.217   6.434 -0.3570  1.6067  0.5894
  388MOL0     C52283  10.055   1.344   6.399 -0.1285  0.8336 -0.3841
  388MOL0     C52284   9.980   1.393   6.520  0.6705 -0.4151  0.0363
  388MOL0     C52285  10.058   1.494   6.607 -1.0668 -0.4051 -0.4801
  388MOL0     C52286  10.180   1.450   6.684  0.6227 -0.6941  0.4835
  388MOL0     C52287  10.137   1.364   6.805 -0.2620  0.0071  0.8379
  388MOL0     C52288  10.262   1.332   6.885  0.7431  0.0337 -0.0888
  388MOL0    Cl52289  10.201   1.231   7.016 -0.6749 -0.0388  0.1340
  388MOL0     C52290  10.479   1.425   6.500 -0.5062  0.0932 -0.3138
  388MOL0     C52291  10.553   1.449   6.612  0.4182  0.4854  0.4759
  388MOL0     O52292  10.849   1.346   6.687 -1.1279  0.3779 -0.3177
  388MOL0     C52293  10.823   1.339   7.040  0.8120 -0.5066  0.8240
  388MOL0     C52294  10.897   1.324   7.154  0.3738  0.0765 -0.3239
  388MOL0     N52295  10.895   1.100   7.640 -0.0262  0.1833  0.1451
  388MOL0     N52296  10.775   1.061   7.650  0.3217  0.4246  0.7619
  388MOL0     C52297  10.753   1.754   7.158 -0.4140  0.3797 -0.8534
  388MOL0     C52298  10.782   1.895   7.139 -0.7740 -0.3551 -0.1529
  388MOL0     C52299  10.859   2.334   7.268 -0.0757 -0.5544 -0.3410
  388MOL0     C52300  10.817   2.462   7.304 -0.8109  0.2654 -0.0710
  388MOL0     C52301  10.900   2.565   7.270  0.3356  0.6292 -0.5505
  388MOL0     C52302  11.026   2.551   7.219 -0.5777  0.1948  0.7048
  388MOL0     O52303  11.100   2.666   7.193  0.3416  0.3813 -0.5559
  388MOL0     C52304  11.202   2.671   7.098  0.4939  0.2420  0.7690
  388MOL0     C52305  11.208   2.818   7.063  0.2544 -0.1977  0.4434
  388MOL0     C52306  11.263   2.914   7.167  0.0775 -0.3089  0.3172
  388MOL0     C52307  11.271   3.043   7.100  0.3299 -0.6680  0.8040
  388MOL0     C52308  11.316   3.154   7.175 -0.0764 -1.1203 -0.3035
  388MOL0     C52309  11.336   3.252   7.242  0.5302 -0.0758 -0.6809
  388MOL0     C52310  11.076   2.421   7.191 -0.0685 -0.1236 -0.5705
  388MOL0     C52311  10.993   2.317   7.214 -0.1075 -0.0737 -0.1159
  388MOL0     C52312  11.041   2.170   7.172  0.1774  0.9189 -0.4281
  388MOL0     H52313  10.516   2.028   7.315 -0.2030 -0.1748  0.5664
  388MOL0     H52314  10.447   1.803   7.314 -1.0938  1.6968 -0.8408
  388MOL0     H52315  10.394   1.577   7.306 -0.5613 -2.3920  0.5303
  388MOL0     H52316  10.434   1.592   7.139  0.5405  1.2298  0.6015
  388MOL0     H52317  10.488   1.365   7.122 -0.9710  1.6609 -1.0221
  388MOL0     H52318  10.341   1.370   7.216  0.0948 -0.8912 -0.9863
  388MOL0     H52319  10.490   1.367   7.438  2.6370  0.6695 -0.2618
  388MOL0     H52320  10.617   1.336   7.325 -0.2831 -1.0144 -1.4350
  388MOL0     H52321  10.415   1.159   7.430  2.0957  1.3838  0.8778
  388MOL0     H52322  10.388   1.176   7.252  0.2630  1.6465 -0.6360
  388MOL0     H52323  10.610   1.074   7.230  2.1991  1.0496 -0.0681
  388MOL0     H52324  10.650   1.112   7.400  0.2398 -1.5958 -0.4285
  388MOL0     H52325  10.436   0.910   7.326 -0.9502 -0.6051  2.5860
  388MOL0     H52326  10.597   0.868   7.333 -1.6402 -4.8726  3.8738
  388MOL0     H52327  10.429   0.887   7.569 -0.2392  0.7457 -2.0610
  388MOL0     H52328  10.516   1.027   7.575  4.1110 -0.3076  0.1550
  388MOL0     H52329  10.622   0.860   7.703 -0.2479  0.0228  0.6063
  388MOL0     H52330  10.654   0.761   7.553 -2.4346  0.5517 -1.6157
  388MOL0     H52331  10.899   0.825   7.462 -1.7505  0.0357 -0.6422
  388MOL0     H52332  11.140   1.014   7.688  0.4018 -0.4167  0.5138
  388MOL0     H52333  11.135   0.894   7.552 -3.5843 -0.0762 -0.8230
  388MOL0     H52334  11.311   1.071   7.525  0.3864 -1.9801 -1.9818
  388MOL0     H52335  11.206   1.055   7.396 -0.9183  0.5696 -0.1505
  388MOL0     H52336  11.239   1.299   7.493  1.4663 -0.5811  2.6693
  388MOL0     H52337  11.106   1.255   7.596 -0.8647 -1.0113  0.3063
  388MOL0     H52338  11.007   1.353   7.406  2.6002  0.9894 -0.8029
  388MOL0     H52339  10.968   1.192   7.390 -1.1799  1.9651  1.4449
  388MOL0     H52340  11.209   1.290   7.011 -0.1433  1.2052 -2.2566
  388MOL0     H52341  11.056   1.320   6.800 -2.2381 -4.8289 -0.5221
  388MOL0     H52342  10.586   1.129   6.720  1.8399  0.5245 -0.8809
  388MOL0     H52343  10.432   1.087   6.531  2.7323 -2.2843 -0.4915
  388MOL0     H52344  10.213   1.203   6.242 -0.6842  2.5683 -0.0050
  388MOL0     H52345  10.303   1.098   6.366  0.3013  0.7774  0.9884
  388MOL0     H52346  10.039   1.148   6.411  1.3147  0.3633 -2.0749
  388MOL0     H52347  10.151   1.206   6.539 -0.5577 -2.3589  0.3655
  388MOL0     H52348  10.118   1.419   6.351  0.0523 -0.1488 -1.7414
  388MOL0     H52349   9.992   1.334   6.310  0.2711  0.4651 -0.6307
  388MOL0     H52350   9.946   1.316   6.589  1.7954 -3.0838 -2.2112
  388MOL0     H52351   9.886   1.434   6.481 -0.1650 -1.1066  1.2501
  388MOL0     H52352   9.999   1.535   6.690  1.3106  1.9690  0.1647
  388MOL0     H52353  10.093   1.572   6.539 -0.4153  0.1162  0.4403
  388MOL0     H52354  10.259   1.412   6.619 -0.1405 -0.2347 -0.7600
  388MOL0     H52355  10.219   1.545   6.721 -1.3820  0.6885 -0.7328
  388MOL0     H52356  10.077   1.280   6.769 -1.5183  1.2221 -0.0387
  388MOL0     H52357  10.059   1.413   6.863 -0.4776 -1.3756  1.7659
  388MOL0     H52358  10.341   1.274   6.835  1.2689  1.4802 -0.9925
  388MOL0     H52359  10.310   1.421   6.926  0.8904  0.0697 -0.3369
  388MOL0     H52360  10.451   1.509   6.437  1.5341  0.1632 -1.2338
  388MOL0     H52361  10.579   1.550   6.641  1.2294  0.0729  1.2455
  388MOL0     H52362  10.715   1.351   7.047  0.1057 -2.5310 -3.5050
  388MOL0     H52363  10.845   1.319   7.250  2.7764 -0.6086  1.0416
  388MOL0     H52364  10.809   1.667   7.125 -0.4173 -1.5983  3.6045
  388MOL0     H52365  10.863   1.926   7.073 -1.7283 -0.6490 -1.5144
  388MOL0     H52366  10.721   2.497   7.341 -0.9616  0.8730 -1.0155
  388MOL0     H52367  10.873   2.663   7.305  3.0222  1.5198 -0.7382
  388MOL0     H52368  11.187   2.621   7.002 -2.7682  0.4989  1.0130
  388MOL0     H52369  11.290   2.622   7.139  0.0203  0.7119  2.4167
  388MOL0     H52370  11.106   2.849   7.042  0.4302 -0.1667 -0.3791
  388MOL0     H52371  11.253   2.825   6.964 -0.7873 -0.8582 -0.0817
  388MOL0     H52372  11.363   2.882   7.197  1.2244  0.7722 -2.0532
  388MOL0     H52373  11.195   2.914   7.253  0.9504  0.2296  1.0236
  388MOL0     H52374  11.324   3.032   7.006  0.3360 -3.2010  1.0326
  388MOL0     H52375  11.170   3.078   7.078  0.1195 -1.2111  0.8847
  388MOL0     H52376  11.373   3.331   7.303  0.3201  1.6090 -2.6041
  388MOL0     H52377  11.177   2.407   7.154 -0.1712 -1.1276 -0.4852
  388MOL0     H52378  11.147   2.170   7.148  0.9572 -3.1929  2.0828
  388MOL0     H52379  11.034   2.101   7.257  0.8112  0.4100 -0.7813
  388MOL0     H52380  10.978   2.143   7.087  2.4462  2.8337 -2.8610
  389MOL0     O52381   1.059   2.237  10.685 -0.0963 -0.6833 -0.6165
  389MOL0     C52382   0.951   2.222  10.731 -0.4853  0.3664 -0.0167
  389MOL0     O52383   0.920   2.168  10.855 -0.0255 -0.2617 -0.0628
  389MOL0     C52384   1.023   2.155  10.951  0.2431 -0.8843 -0.4893
  389MOL0     C52385   1.132   2.248  10.962  0.2648 -0.2931  0.1185
  389MOL0     C52386   1.232   2.244  11.059  0.3126 -0.4013 -0.1252
  389MOL0     C52387   1.224   2.136  11.149  0.5460 -0.5600 -0.4138
  389MOL0     O52388   1.338   2.122  11.221  0.2689  0.2862  0.3374
  389MOL0     C52389   1.373   2.007  11.296 -0.1424  1.0229 -0.2052
  389MOL0     C52390   1.524   2.014  11.318 -0.3720 -1.1890  0.0090
  389MOL0     C52391   1.572   2.148  11.384 -0.1628 -0.5554  0.0742
  389MOL0     C52392   1.547   2.155  11.534 -0.1283 -0.1498 -0.2979
  389MOL0     C52393   1.569   2.304  11.586 -0.6133  0.7992  0.1990
  389MOL0     C52394   1.523   2.328  11.729  0.0281  0.2466 -0.5636
  389MOL0     C52395   1.585   2.232  11.833 -0.3814 -0.6392 -0.1246
  389MOL0     C52396   1.625   2.318  11.957  0.4478 -1.0545  0.9128
  389MOL0     N52397   1.649   2.231  12.074  0.0598 -0.1097  0.5301
  389MOL0     C52398   1.766   2.193  12.115  0.0937 -0.1158 -0.3803
  389MOL0     C52399   1.748   2.100  12.213 -0.2584  0.1386  0.0313
  389MOL0     C52400   1.843   2.009  12.273 -0.4499  0.0100  0.9703
  389MOL0     C52401   1.988   2.062  12.283  0.5320 -0.5799  0.3609
  389MOL0     C52402   2.087   1.965  12.336  0.8010  0.6189  0.8298
  389MOL0     C52403   2.231   2.014  12.311  0.5739 -0.0447  0.2323
  389MOL0     O52404   2.252   2.142  12.377 -0.0862  0.5979 -0.7286
  389MOL0     C52405   2.377   2.178  12.429  0.4095 -0.0947 -0.0328
  389MOL0     C52406   2.387   2.298  12.501 -0.8966 -1.1298 -1.0534
  389MOL0     C52407   2.516   2.336  12.545  0.3136  0.0787  0.3742
  389MOL0     C52408   2.634   2.253  12.524  0.1195 -0.0962  0.0091
  389MOL0     C52409   2.771   2.300  12.554 -0.3476  0.6040 -0.4358
  389MOL0     O52410   2.774   2.426  12.585 -0.4357  0.4037 -0.2120
  389MOL0     C52411   2.899   2.476  12.615  0.0434  0.7604 -0.1354
  389MOL0     C52412   2.974   2.507  12.505 -0.3205  0.3446  0.5243
  389MOL0     C52413   3.103   2.567  12.534  0.6099  0.0415  0.3618
  389MOL0     C52414   3.153   2.592  12.663  0.2664  0.7368 -0.7729
  389MOL0     O52415   3.288   2.635  12.672 -0.3341 -0.0507  0.0625
  389MOL0     C52416   3.353   2.634  12.795 -0.5543 -0.3209 -1.1501
  389MOL0     C52417   3.476   2.727  12.789 -0.4621 -0.6862 -0.3030
  389MOL0     C52418   3.444   2.881  12.790  0.3404  0.0115 -0.0260
  389MOL0     C52419   3.576   2.969  12.801  0.1182 -0.6156 -0.6963
  389MOL0     C52420   3.539   3.119  12.822  0.1352  0.0593  0.8642
  389MOL0     C52421   3.452   3.182  12.717 -0.1337  0.2195 -0.1443
  389MOL0     C52422   3.501   3.178  12.563 -0.0922  0.1490 -1.1674
  389MOL0     C52423   3.446   3.301  12.487 -0.0161  0.2022  0.0176
  389MOL0    Cl52424   3.540   3.445  12.527  0.3322 -0.3489  0.3169
  389MOL0     C52425   3.063   2.569  12.773 -0.0108 -0.4136 -0.4472
  389MOL0     C52426   2.939   2.511  12.748 -0.5978 -0.6636 -0.8536
  389MOL0     O52427   2.870   2.221  12.548  0.2493 -0.4304 -0.5435
  389MOL0     C52428   2.614   2.136  12.445 -0.4595 -0.0138 -0.0070
  389MOL0     C52429   2.491   2.105  12.394 -0.4999 -0.5441 -1.0516
  389MOL0     N52430   1.610   2.098  12.247 -0.6114 -0.3401  0.0187
  389MOL0     N52431   1.553   2.180  12.159  0.4429  0.4639 -0.4084
  389MOL0     C52432   1.122   2.049  11.142 -0.2821 -0.2478 -0.1114
  389MOL0     C52433   1.021   2.054  11.044  0.1419  0.2638 -0.0778
  389MOL0     C52434   0.831   2.263  10.656 -0.3877 -0.3573 -1.1969
  389MOL0     C52435   0.710   2.200  10.693  0.2009  0.5023  0.4363
  389MOL0     C52436   0.592   2.245  10.627 -0.8721  0.4970  0.1132
  389MOL0     C52437   0.599   2.334  10.524  0.5738  0.1604  0.2666
  389MOL0     O52438   0.481   2.382  10.468 -0.6494 -0.2437  0.4971
  389MOL0     C52439   0.389   2.287  10.412 -0.5726  0.3658 -0.4960
  389MOL0     C52440   0.299   2.359  10.315  0.3918  0.4753  0.5158
  389MOL0     C52441   0.367   2.398  10.176 -0.3104 -0.0790 -1.6359
  389MOL0     C52442   0.435   2.534  10.198  0.2079  0.6355 -1.3007
  389MOL0     C52443   0.502   2.574  10.078  0.6274  0.8670 -0.3724
  389MOL0     C52444   0.555   2.638   9.989 -0.4346  0.7684 -0.4974
  389MOL0     C52445   0.715   2.402  10.492 -1.2079  0.0361 -0.2082
  389MOL0     C52446   0.831   2.364  10.555  0.7068  0.1076 -0.1456
  389MOL0     C52447   0.954   2.420  10.503  0.0105  0.2743 -0.5823
  389MOL0     H52448   1.122   2.336  10.899 -1.0843 -1.4367 -1.3309
  389MOL0     H52449   1.319   2.309  11.057 -0.1196  0.1894  0.0567
  389MOL0     H52450   1.336   2.001  11.399  0.5892  0.2516  0.0212
  389MOL0     H52451   1.347   1.915  11.243 -3.7073  2.0175 -0.4434
  389MOL0     H52452   1.572   2.012  11.220 -0.8201  1.8388 -0.3737
  389MOL0     H52453   1.561   1.922  11.365 -2.3258 -0.9952  2.1492
  389MOL0     H52454   1.524   2.236  11.341 -3.9867 -1.3615  2.2243
  389MOL0     H52455   1.681   2.152  11.370 -0.0846 -1.0367  0.5344
  389MOL0     H52456   1.440   2.145  11.556 -0.2693  2.2870  0.5187
  389MOL0     H52457   1.596   2.073  11.587 -1.0698 -0.8612 -0.5135
  389MOL0     H52458   1.677   2.320  11.588 -0.5681  0.8115 -1.0482
  389MOL0     H52459   1.519   2.374  11.518  1.5630  1.4357 -0.8432
  389MOL0     H52460   1.566   2.428  11.742 -1.2366  0.6286  0.9701
  389MOL0     H52461   1.414   2.330  11.738 -0.0879 -4.0692  1.2296
  389MOL0     H52462   1.680   2.186  11.805 -1.1170 -0.7432 -2.6935
  389MOL0     H52463   1.520   2.150  11.865 -1.0419  0.2027  0.7737
  389MOL0     H52464   1.707   2.380  11.918 -0.5017 -0.6660 -0.5358
  389MOL0     H52465   1.560   2.401  11.987  1.3042  1.3966 -3.1955
  389MOL0     H52466   1.856   2.224  12.063 -0.2411 -0.4766 -1.1804
  389MOL0     H52467   1.827   1.984  12.379 -0.8801  0.8823  1.1174
  389MOL0     H52468   1.846   1.911  12.224  1.0586  0.4840  0.0679
  389MOL0     H52469   2.010   2.092  12.180 -0.5270 -1.6525 -0.2048
  389MOL0     H52470   1.985   2.148  12.350 -1.7149  0.1243 -0.5571
  389MOL0     H52471   2.085   1.868  12.287  1.2552 -0.0452  2.0693
  389MOL0     H52472   2.070   1.941  12.442  1.3351  2.5642  1.3996
  389MOL0     H52473   2.244   2.044  12.207 -0.2415 -0.3827  0.0254
  389MOL0     H52474   2.310   1.941  12.333  0.9501 -0.8654 -3.2918
  389MOL0     H52475   2.291   2.348  12.515 -0.0578  0.4907 -0.9037
  389MOL0     H52476   2.526   2.429  12.600  0.0666  1.6122 -2.0094
  389MOL0     H52477   2.947   2.480  12.403  1.3058 -0.8319  0.3670
  389MOL0     H52478   3.168   2.580  12.449  0.9696  0.7243  0.7387
  389MOL0     H52479   3.287   2.665  12.877  2.0703  0.2340  0.8998
  389MOL0     H52480   3.386   2.531  12.808 -1.7613 -0.6556 -0.6389
  389MOL0     H52481   3.524   2.713  12.887 -1.7043 -0.5248  0.3594
  389MOL0     H52482   3.545   2.702  12.708 -2.2750  0.1610 -2.1946
  389MOL0     H52483   3.393   2.898  12.695  0.0943 -3.6237 -0.6823
  389MOL0     H52484   3.373   2.899  12.871  1.4507  1.5599  0.6614
  389MOL0     H52485   3.632   2.967  12.708 -0.2472  1.7493 -1.0209
  389MOL0     H52486   3.649   2.940  12.878  1.0326  1.9469 -0.5005
  389MOL0     H52487   3.635   3.172  12.822  0.5665 -0.4779 -2.5857
  389MOL0     H52488   3.498   3.126  12.923  0.7030 -0.6884  1.1556
  389MOL0     H52489   3.351   3.141  12.725 -0.3123  0.8774  1.2794
  389MOL0     H52490   3.440   3.288  12.740  0.5480  0.2290  0.1862
  389MOL0     H52491   3.459   3.087  12.519  3.9180 -2.0765 -0.8846
  389MOL0     H52492   3.610   3.175  12.554 -0.0978  3.1745 -5.0375
  389MOL0     H52493   3.455   3.292  12.379  0.8293  1.9249 -0.1001
  389MOL0     H52494   3.338   3.305  12.498 -0.4684 -2.7684 -2.2609
  389MOL0     H52495   3.087   2.581  12.878 -0.7146 -0.0352 -0.3208
  389MOL0     H52496   2.870   2.514  12.831 -0.1686  2.1367 -0.4822
  389MOL0     H52497   2.699   2.087  12.400 -1.9416 -0.0184 -3.0868
  389MOL0     H52498   2.481   2.025  12.322 -1.0568 -2.0209  0.5779
  389MOL0     H52499   1.109   1.971  11.216  2.5022 -1.2994 -0.6184
  389MOL0     H52500   0.932   1.992  11.047  0.1783  0.2663  2.1693
  389MOL0     H52501   0.703   2.126  10.771  0.1931  0.6589  0.5846
  389MOL0     H52502   0.500   2.194  10.654  1.0985 -3.1489  0.5164
  389MOL0     H52503   0.322   2.235  10.481 -1.5511  0.0356 -1.6638
  389MOL0     H52504   0.446   2.213  10.356 -0.3102  1.5729 -1.8936
  389MOL0     H52505   0.259   2.449  10.363 -0.6091  0.8974 -1.0239
  389MOL0     H52506   0.214   2.295  10.291  1.1861 -1.8306  3.3039
  389MOL0     H52507   0.289   2.387  10.100 -2.4718  1.3874  0.2330
  389MOL0     H52508   0.439   2.321  10.146 -1.0975 -2.7023  2.3658
  389MOL0     H52509   0.368   2.611  10.235  2.5694  1.5758  1.3376
  389MOL0     H52510   0.515   2.519  10.271 -0.8052 -1.5259 -0.5593
  389MOL0     H52511   0.605   2.703   9.920  0.4581  1.0946  0.4508
  389MOL0     H52512   0.718   2.482  10.418 -0.5240  2.0333  1.8489
  389MOL0     H52513   0.939   2.496  10.426  3.3006 -0.3231 -2.0077
  389MOL0     H52514   1.028   2.451  10.577  0.2826  2.3599 -1.6425
  389MOL0     H52515   1.004   2.338  10.452 -2.0063 -0.5636 -1.3130
  390MOL0     O52516   6.886   1.033   2.299 -0.8208  0.4991 -0.3038
  390MOL0     C52517   6.945   1.023   2.195 -1.1941  0.3661  0.7964
  390MOL0     O52518   7.062   1.079   2.175 -0.3682  0.4443  0.5292
  390MOL0     C52519   7.115   1.135   2.287 -0.2923  0.6833 -0.9143
  390MOL0     C52520   7.093   1.273   2.317  0.2705 -0.6496 -0.2075
  390MOL0     C52521   7.168   1.325   2.423  0.2739 -0.1790  0.7077
  390MOL0     C52522   7.267   1.255   2.499  0.1218  0.8416  0.1689
  390MOL0     O52523   7.351   1.323   2.586 -0.0217  0.0916 -0.3368
  390MOL0     C52524   7.488   1.278   2.600  0.3053 -0.4604  0.3267
  390MOL0     C52525   7.551   1.397   2.654 -1.0958  0.3368 -0.2645
  390MOL0     C52526   7.700   1.382   2.688  0.0666  0.4756  1.0140
  390MOL0     C52527   7.794   1.491   2.642 -0.8077 -1.0382  1.0634
  390MOL0     C52528   7.945   1.456   2.671  0.2269 -0.4048  0.1867
  390MOL0     C52529   8.047   1.581   2.668 -1.5242  0.2372  0.0108
  390MOL0     C52530   8.007   1.693   2.767 -0.9935  0.3313  0.3848
  390MOL0     C52531   8.035   1.646   2.915  0.3538 -0.2661  0.0277
  390MOL0     N52532   8.174   1.626   2.943  1.1044 -0.6887  0.1528
  390MOL0     C52533   8.267   1.715   2.910 -0.1039  0.0738 -0.2037
  390MOL0     C52534   8.369   1.684   2.982 -0.1889 -0.4546  0.5446
  390MOL0     C52535   8.500   1.761   2.970 -0.1466  0.2696 -0.9344
  390MOL0     C52536   8.548   1.747   2.823 -0.4847 -0.4979 -1.4356
  390MOL0     C52537   8.554   1.601   2.778  0.2347 -0.2908 -0.2038
  390MOL0     C52538   8.627   1.588   2.640  0.2665 -0.4544  0.1020
  390MOL0     O52539   8.542   1.634   2.536 -0.2830  0.2443 -0.4044
  390MOL0     C52540   8.439   1.551   2.493 -0.2149 -0.3272  0.3091
  390MOL0     C52541   8.427   1.414   2.526 -0.2700  0.8681 -0.2221
  390MOL0     C52542   8.324   1.343   2.459 -0.2378  0.2953  0.0340
  390MOL0     C52543   8.225   1.394   2.379  0.3773 -0.5796 -0.8307
  390MOL0     C52544   8.131   1.306   2.327  0.4155 -0.0725 -0.7140
  390MOL0     O52545   8.032   1.363   2.260  0.2645 -0.0015  0.3632
  390MOL0     C52546   7.925   1.286   2.220 -0.2181  0.2740 -0.1068
  390MOL0     C52547   7.889   1.276   2.083 -0.4868  0.6943 -0.0450
  390MOL0     C52548   7.782   1.201   2.041 -0.8175  0.8718  0.5406
  390MOL0     C52549   7.707   1.140   2.142 -0.0880  0.1978 -0.8297
  390MOL0     O52550   7.582   1.080   2.113  0.7419  0.0056 -0.2568
  390MOL0     C52551   7.570   1.027   1.982 -0.3262  0.0640 -0.5733
  390MOL0     C52552   7.440   0.936   1.966 -0.2753 -0.6058  0.0539
  390MOL0     C52553   7.460   0.801   2.047 -0.2862 -0.0879 -0.0963
  390MOL0     C52554   7.332   0.726   2.056 -0.5448 -0.3867  0.5259
  390MOL0     C52555   7.355   0.593   2.128 -0.0866 -0.1144  0.0551
  390MOL0     C52556   7.228   0.563   2.205  1.2560  0.1391  0.4050
  390MOL0     C52557   7.238   0.470   2.329 -0.6387 -0.2592  0.0360
  390MOL0     C52558   7.295   0.328   2.293  0.1012 -0.9136 -0.3078
  390MOL0    Cl52559   7.184   0.253   2.174 -0.1253  0.2415  0.5221
  390MOL0     C52560   7.746   1.146   2.272 -0.1456 -0.5988  0.0506
  390MOL0     C52561   7.858   1.210   2.315 -1.0890 -0.3482  0.2705
  390MOL0     O52562   8.153   1.188   2.344 -0.0518  0.2202 -0.2753
  390MOL0     C52563   8.217   1.545   2.383  0.4653  0.8978 -0.2994
  390MOL0     C52564   8.333   1.618   2.429 -0.6542  0.1847  0.5081
  390MOL0     N52565   8.343   1.565   3.046 -0.2977  0.8947  0.3287
  390MOL0     N52566   8.223   1.548   3.045 -0.1894 -0.2499 -0.4744
  390MOL0     C52567   7.284   1.121   2.462  0.5300  0.5847 -0.2383
  390MOL0     C52568   7.207   1.069   2.356 -0.1564  0.6723  0.4508
  390MOL0     C52569   6.900   0.947   2.073  0.9039 -0.0949 -0.1946
  390MOL0     C52570   6.984   0.936   1.961 -0.1360  0.1025 -0.9267
  390MOL0     C52571   6.954   0.887   1.841 -0.2414 -0.2121  0.0467
  390MOL0     C52572   6.831   0.829   1.815 -0.4101  0.0609 -0.4231
  390MOL0     O52573   6.812   0.763   1.694  0.6580  0.1255  0.0352
  390MOL0     C52574   6.695   0.682   1.678  0.0404  0.2869 -0.1096
  390MOL0     C52575   6.664   0.605   1.553  0.1416  0.2815 -0.6286
  390MOL0     C52576   6.778   0.511   1.503  0.2747 -0.8286  0.3983
  390MOL0     C52577   6.759   0.473   1.360 -0.8597 -0.0529 -0.2428
  390MOL0     C52578   6.824   0.344   1.331  0.0700 -0.6128  0.2724
  390MOL0     C52579   6.859   0.238   1.297 -0.1622  0.3025 -1.0231
  390MOL0     C52580   6.747   0.826   1.929 -0.1541  0.0738  0.3779
  390MOL0     C52581   6.770   0.898   2.050 -0.1155  0.4907  0.3122
  390MOL0     C52582   6.672   0.901   2.168  0.6451 -0.8974 -0.5731
  390MOL0     H52583   7.022   1.335   2.262  0.9376 -2.2756 -3.0669
  390MOL0     H52584   7.158   1.430   2.449 -0.2490  0.0098 -0.2142
  390MOL0     H52585   7.494   1.191   2.667  0.8023 -1.8551 -1.4542
  390MOL0     H52586   7.536   1.249   2.506 -1.4548  2.1125 -1.4999
  390MOL0     H52587   7.500   1.422   2.747  1.1298 -1.9892  1.7311
  390MOL0     H52588   7.562   1.473   2.576  0.4310  0.2513 -0.1643
  390MOL0     H52589   7.739   1.289   2.644  0.1501  1.1431 -0.3862
  390MOL0     H52590   7.708   1.368   2.796 -0.4323 -1.9555  0.8031
  390MOL0     H52591   7.780   1.498   2.534  0.1536 -1.0532  0.9270
  390MOL0     H52592   7.777   1.587   2.692  0.6166 -1.3451  2.2261
  390MOL0     H52593   7.940   1.421   2.774  3.8813 -0.4639  0.4998
  390MOL0     H52594   7.991   1.379   2.609 -0.1511 -1.4066  1.1301
  390MOL0     H52595   8.149   1.546   2.682 -1.4050  0.2894 -0.6703
  390MOL0     H52596   8.035   1.630   2.571 -2.7642 -1.9576 -1.0241
  390MOL0     H52597   7.904   1.728   2.759 -0.5364  2.3351  2.1927
  390MOL0     H52598   8.069   1.782   2.747 -2.6574  1.2674 -0.8475
  390MOL0     H52599   7.985   1.717   2.982  2.5210 -0.6900  2.2570
  390MOL0     H52600   7.975   1.557   2.940 -1.2806  1.4348  2.7449
  390MOL0     H52601   8.280   1.796   2.839  0.3059  2.5379  2.4785
  390MOL0     H52602   8.471   1.863   2.999 -1.7502  0.1336 -1.9582
  390MOL0     H52603   8.568   1.718   3.045 -1.2184  0.9761  0.4991
  390MOL0     H52604   8.484   1.802   2.753  0.1845 -0.5920 -2.1235
  390MOL0     H52605   8.647   1.793   2.817 -0.3667 -0.8733 -2.5237
  390MOL0     H52606   8.450   1.567   2.772  0.6848 -1.6354 -0.7094
  390MOL0     H52607   8.608   1.546   2.855 -2.0518 -0.3501  1.4776
  390MOL0     H52608   8.670   1.488   2.632  1.9590  0.2705 -0.4037
  390MOL0     H52609   8.717   1.648   2.656  0.7016 -1.3137  0.9756
  390MOL0     H52610   8.499   1.365   2.590  1.7921  4.2125  0.2158
  390MOL0     H52611   8.336   1.239   2.486 -0.5718  0.0087 -0.8793
  390MOL0     H52612   7.951   1.334   2.016  1.4614  0.2542  1.2854
  390MOL0     H52613   7.767   1.209   1.934 -0.3905  6.0815  0.6276
  390MOL0     H52614   7.563   1.106   1.906  0.3238  0.1340 -0.5664
  390MOL0     H52615   7.655   0.964   1.953  0.1374 -0.4680  1.7673
  390MOL0     H52616   7.360   0.998   2.008 -0.6186 -0.8670 -0.2082
  390MOL0     H52617   7.426   0.917   1.859 -2.4842 -4.4667  0.8228
  390MOL0     H52618   7.544   0.741   2.012 -0.1657 -0.6242  1.0563
  390MOL0     H52619   7.490   0.836   2.147 -2.0742  1.4524 -0.0419
  390MOL0     H52620   7.295   0.706   1.955 -1.1760 -1.5229  0.9619
  390MOL0     H52621   7.257   0.786   2.108  1.0197  0.6805  1.6248
  390MOL0     H52622   7.435   0.608   2.201  0.3546  1.1304 -0.6432
  390MOL0     H52623   7.381   0.505   2.068 -0.4885 -0.4383  0.3533
  390MOL0     H52624   7.171   0.651   2.237 -2.3007 -1.6374 -0.4623
  390MOL0     H52625   7.149   0.532   2.136 -0.3146  4.3599 -0.0116
  390MOL0     H52626   7.142   0.442   2.373  0.2089  0.9574  2.9057
  390MOL0     H52627   7.293   0.520   2.409 -3.2985  1.2897  1.0132
  390MOL0     H52628   7.394   0.344   2.249  0.8508  0.6204  1.7514
  390MOL0     H52629   7.316   0.269   2.383 -2.4193  0.1372  1.0785
  390MOL0     H52630   7.687   1.106   2.353 -2.4596  1.4634 -0.5193
  390MOL0     H52631   7.895   1.212   2.417  0.7128 -2.0914 -0.2871
  390MOL0     H52632   8.127   1.584   2.337  0.5767 -0.0164 -1.3083
  390MOL0     H52633   8.346   1.725   2.426 -0.6479  0.2152  1.2612
  390MOL0     H52634   7.351   1.052   2.513 -1.2769  0.6569  2.3832
  390MOL0     H52635   7.234   0.969   2.326 -1.3275  0.6750 -0.6627
  390MOL0     H52636   7.083   0.980   1.970  0.6627 -1.4897 -1.6589
  390MOL0     H52637   7.030   0.890   1.763  0.2200  2.7487  0.4926
  390MOL0     H52638   6.607   0.744   1.695  0.4510  0.3946  1.9005
  390MOL0     H52639   6.702   0.607   1.757  1.8588 -0.9527 -1.3735
  390MOL0     H52640   6.628   0.674   1.477  0.7631  1.6518  0.2747
  390MOL0     H52641   6.578   0.540   1.572 -0.7457  2.2291  2.9594
  390MOL0     H52642   6.785   0.423   1.568  1.5190 -1.3951 -0.4718
  390MOL0     H52643   6.873   0.564   1.514  0.0380 -0.5997  1.4644
  390MOL0     H52644   6.655   0.471   1.327 -0.5218  2.3597 -1.7352
  390MOL0     H52645   6.808   0.542   1.290  3.8517 -0.2096  2.4871
  390MOL0     H52646   6.908   0.147   1.271  1.7133  1.4431 -1.6963
  390MOL0     H52647   6.656   0.772   1.905  0.1698  0.1698 -1.1730
  390MOL0     H52648   6.668   1.007   2.194  1.2609 -0.1372 -3.2045
  390MOL0     H52649   6.583   0.861   2.120  2.8457 -3.6502 -2.7452
  390MOL0     H52650   6.678   0.831   2.252 -4.8183 -0.9622  0.0981
  391MOL0     O52651   0.523   9.345   3.448  0.1936 -0.6615  0.9781
  391MOL0     C52652   0.467   9.456   3.449  1.1143 -0.3131 -0.4676
  391MOL0     O52653   0.336   9.481   3.500 -0.5696  0.1162  0.1434
  391MOL0     C52654   0.261   9.368   3.543 -0.9361  0.8348 -0.0701
  391MOL0     C52655   0.304   9.280   3.645  0.8017  0.0527  0.5404
  391MOL0     C52656   0.226   9.168   3.657  0.6969  0.8011  0.7171
  391MOL0     C52657   0.101   9.153   3.605 -0.8850 -0.2754 -1.1941
  391MOL0     O52658   0.038   9.036   3.626  0.7948  0.3837 -0.1442
  391MOL0     C52659  -0.003   8.968   3.509  0.7766  0.3636  0.2307
  391MOL0     C52660  -0.012   8.821   3.539  0.0976  0.1411  0.8156
  391MOL0     C52661  -0.114   8.773   3.650  0.2328 -0.9130 -0.7047
  391MOL0     C52662  -0.269   8.794   3.629 -1.0846 -0.1017 -0.4292
  391MOL0     C52663  -0.342   8.806   3.759 -0.6778  0.8544 -0.6309
  391MOL0     C52664  -0.467   8.890   3.733 -0.4685  0.1328 -0.6669
  391MOL0     C52665  -0.562   8.828   3.625  0.0650  0.1882 -0.2037
  391MOL0     C52666  -0.611   8.690   3.675  0.1645 -1.1701 -0.5130
  391MOL0     N52667  -0.736   8.632   3.607 -0.0940  0.3245  0.8563
  391MOL0     C52668  -0.741   8.582   3.477  0.2285  0.6186 -0.2862
  391MOL0     C52669  -0.870   8.584   3.441 -0.3804 -0.7366  0.2647
  391MOL0     C52670  -0.944   8.544   3.313 -0.6328 -1.0460  0.0180
  391MOL0     C52671  -0.991   8.659   3.224 -0.2203  0.1841  1.0807
  391MOL0     C52672  -1.078   8.768   3.295 -0.7985  0.5095 -0.5335
  391MOL0     C52673  -1.115   8.883   3.207  1.1174  0.3643 -0.8126
  391MOL0     O52674  -1.011   8.957   3.172  0.0262 -0.3286  0.9546
  391MOL0     C52675  -1.024   9.074   3.102 -0.4875  0.2722 -0.2275
  391MOL0     C52676  -0.920   9.103   3.019 -0.4123  0.4688 -0.1473
  391MOL0     C52677  -0.916   9.224   2.943 -0.5296  0.1106 -0.9664
  391MOL0     C52678  -1.020   9.313   2.954  0.1377 -0.1579  0.8549
  391MOL0     C52679  -1.015   9.443   2.866  0.8228 -0.5199 -0.2837
  391MOL0     O52680  -0.904   9.483   2.799  0.4689 -0.7189 -0.0538
  391MOL0     C52681  -0.879   9.615   2.776 -0.1931  0.2955 -0.1876
  391MOL0     C52682  -0.931   9.723   2.844 -0.2563 -0.0802  1.0149
  391MOL0     C52683  -0.919   9.854   2.820 -0.6765 -0.9639  1.2088
  391MOL0     C52684  -0.832   9.871   2.707  0.5192 -0.3838 -0.1287
  391MOL0     O52685  -0.767   9.987   2.670  0.4578  0.6618 -0.0175
  391MOL0     C52686  -0.819  10.111   2.723 -0.9615 -0.1516  0.2232
  391MOL0     C52687  -0.750  10.235   2.660  0.3683 -0.1008 -0.4277
  391MOL0     C52688  -0.745  10.228   2.510  0.1362 -0.6904 -0.4548
  391MOL0     C52689  -0.665  10.338   2.447 -0.1011  0.6101  0.1410
  391MOL0     C52690  -0.513  10.340   2.482  0.2365  0.3608  0.2161
  391MOL0     C52691  -0.443  10.446   2.398  0.0552  0.2263 -0.7311
  391MOL0     C52692  -0.295  10.458   2.451 -0.5026 -0.6536 -0.3929
  391MOL0     C52693  -0.215  10.548   2.357  0.0960  0.8295 -0.2432
  391MOL0    Cl52694  -0.214  10.480   2.193  0.4752 -0.3664  0.0488
  391MOL0     C52695  -0.791   9.767   2.622 -0.4247 -0.2282  0.2225
  391MOL0     C52696  -0.808   9.638   2.653  0.4477 -0.8047 -1.7083
  391MOL0     O52697  -1.126   9.495   2.858 -0.3354  0.3450 -0.3024
  391MOL0     C52698  -1.136   9.278   3.035 -0.9931  0.0567  0.6140
  391MOL0     C52699  -1.129   9.164   3.110 -0.3976  0.6660  1.2808
  391MOL0     N52700  -0.939   8.636   3.552 -0.0168 -0.9704 -0.4997
  391MOL0     N52701  -0.859   8.652   3.650  0.5263  0.6874 -0.6199
  391MOL0     C52702   0.046   9.259   3.523 -0.4650 -1.0122  0.0381
  391MOL0     C52703   0.135   9.362   3.490 -0.0635  0.5683 -0.5835
  391MOL0     C52704   0.536   9.584   3.405 -0.6758 -0.2581 -0.8078
  391MOL0     C52705   0.670   9.570   3.365  0.0153 -0.1856  0.2022
  391MOL0     C52706   0.756   9.681   3.327 -0.4052 -0.4269 -0.1047
  391MOL0     C52707   0.694   9.805   3.302 -0.0464  0.2158  0.2530
  391MOL0     O52708   0.753   9.923   3.267 -0.3453 -0.1891  0.4620
  391MOL0     C52709   0.878   9.930   3.205  0.6464  0.2955  0.5886
  391MOL0     C52710   0.917  10.080   3.201  0.2522  0.6498 -0.5063
  391MOL0     C52711   0.862  10.146   3.070  0.1724  0.8045  0.6436
  391MOL0     C52712   0.879  10.298   3.062 -0.1838 -0.1019  0.3815
  391MOL0     C52713   1.025  10.343   3.054  0.2128  0.2916 -0.7753
  391MOL0     C52714   1.136  10.372   3.045  0.1413  0.3826  0.6766
  391MOL0     C52715   0.559   9.822   3.340 -0.1762 -0.0909 -0.0811
  391MOL0     C52716   0.483   9.718   3.396  0.0273  0.1626 -0.5225
  391MOL0     C52717   0.349   9.750   3.447 -0.0532  0.4186 -0.2014
  391MOL0     H52718   0.408   9.261   3.667  0.7567 -1.2122 -0.2543
  391MOL0     H52719   0.284   9.084   3.695  0.6346  0.5050  0.1822
  391MOL0     H52720  -0.096   9.017   3.481 -0.3028 -1.1890  0.9937
  391MOL0     H52721   0.066   8.990   3.427  2.5134 -0.7159  1.3317
  391MOL0     H52722   0.088   8.785   3.565 -0.5522 -2.6407 -0.2246
  391MOL0     H52723  -0.045   8.767   3.450 -0.2776  2.1417 -0.3245
  391MOL0     H52724  -0.084   8.839   3.732 -0.5453 -1.8602  0.3831
  391MOL0     H52725  -0.087   8.670   3.673  1.0533 -0.8221 -1.2496
  391MOL0     H52726  -0.283   8.886   3.570 -1.7993  0.6230  0.8163
  391MOL0     H52727  -0.308   8.714   3.566 -3.0175  2.3521 -2.6140
  391MOL0     H52728  -0.348   8.714   3.819 -2.3651  1.9711  1.0137
  391MOL0     H52729  -0.283   8.863   3.831 -0.6766  2.0100 -1.5246
  391MOL0     H52730  -0.527   8.904   3.824 -0.7465 -0.4469 -0.7562
  391MOL0     H52731  -0.432   8.992   3.714 -3.2454  1.0137 -1.4728
  391MOL0     H52732  -0.520   8.816   3.525  0.1321  0.5990 -0.2227
  391MOL0     H52733  -0.648   8.894   3.615  0.4174  0.7858  0.6413
  391MOL0     H52734  -0.525   8.625   3.658 -0.4614 -2.4465  0.9242
  391MOL0     H52735  -0.633   8.692   3.782 -0.4839  1.3103 -0.6410
  391MOL0     H52736  -0.663   8.545   3.411  1.1566  1.6036  0.2145
  391MOL0     H52737  -0.870   8.485   3.257 -1.4154  1.5743 -4.2270
  391MOL0     H52738  -1.025   8.476   3.340  0.6431 -2.0046  1.6158
  391MOL0     H52739  -0.896   8.703   3.192  1.6930 -4.4623 -0.4298
  391MOL0     H52740  -1.040   8.612   3.138  2.2432  2.7050 -1.9569
  391MOL0     H52741  -1.018   8.807   3.378  1.2021 -3.0864 -0.1029
  391MOL0     H52742  -1.163   8.711   3.334  0.4401  0.4246  2.2919
  391MOL0     H52743  -1.172   8.948   3.274  2.5213  1.4898 -0.6649
  391MOL0     H52744  -1.177   8.853   3.122 -0.5310  2.0239 -0.2501
  391MOL0     H52745  -0.835   9.041   2.993 -0.4024  0.9884 -1.4194
  391MOL0     H52746  -0.830   9.242   2.878 -1.7571  0.0601 -2.6595
  391MOL0     H52747  -0.995   9.679   2.920  0.7973 -3.0327  0.3471
  391MOL0     H52748  -0.971   9.933   2.874 -1.2399 -1.1008  0.8709
  391MOL0     H52749  -0.928  10.113   2.714 -0.8563 -1.0166 -1.5931
  391MOL0     H52750  -0.794  10.113   2.830 -2.2871 -0.9604  0.5641
  391MOL0     H52751  -0.788  10.330   2.700 -1.2757 -1.5450  1.6384
  391MOL0     H52752  -0.645  10.228   2.691  0.1572  2.2044  1.0721
  391MOL0     H52753  -0.705  10.130   2.482  3.5068 -0.7056  3.3754
  391MOL0     H52754  -0.846  10.246   2.472 -0.0414  1.4876  0.8341
  391MOL0     H52755  -0.717  10.429   2.479 -2.3754 -0.7452  0.5389
  391MOL0     H52756  -0.684  10.328   2.340 -0.9854  0.4080  0.3049
  391MOL0     H52757  -0.468  10.244   2.454  0.3302  0.7582 -1.0556
  391MOL0     H52758  -0.495  10.363   2.587 -1.6839  2.3250  0.1842
  391MOL0     H52759  -0.439  10.407   2.296 -2.3355 -0.3788 -0.6481
  391MOL0     H52760  -0.499  10.540   2.398 -1.3481 -0.5741 -1.6819
  391MOL0     H52761  -0.242  10.362   2.448 -1.4187 -1.3783  2.7820
  391MOL0     H52762  -0.291  10.503   2.551  1.3981 -1.9575  0.1834
  391MOL0     H52763  -0.263  10.645   2.349  2.1601  1.7899 -1.8441
  391MOL0     H52764  -0.112  10.556   2.394 -0.0116  2.9495 -0.2852
  391MOL0     H52765  -0.739   9.809   2.537 -0.7131  1.0159  0.6360
  391MOL0     H52766  -0.768   9.550   2.604  1.0585 -0.1643 -2.3881
  391MOL0     H52767  -1.219   9.348   3.039 -1.6617 -0.6348 -0.6280
  391MOL0     H52768  -1.216   9.146   3.173 -0.2052  4.3385  2.8850
  391MOL0     H52769  -0.053   9.242   3.482 -0.7515 -0.9589  0.6850
  391MOL0     H52770   0.102   9.431   3.413  0.8790  0.8427 -0.7505
  391MOL0     H52771   0.724   9.476   3.372  1.8935  0.8171 -0.1233
  391MOL0     H52772   0.862   9.673   3.302  0.1654  1.3775  1.5039
  391MOL0     H52773   0.862   9.896   3.103  2.5572 -1.3312  0.7761
  391MOL0     H52774   0.959   9.873   3.253  1.6316  0.1061 -1.2395
  391MOL0     H52775   1.026  10.092   3.198  0.2700  0.2853 -1.8139
  391MOL0     H52776   0.882  10.123   3.296 -2.6721 -1.2617 -0.5687
  391MOL0     H52777   0.761  10.120   3.038  0.0348  2.8151 -0.6692
  391MOL0     H52778   0.935  10.099   3.004 -1.0290 -3.1490  1.8291
  391MOL0     H52779   0.838  10.333   2.967  1.5008 -1.3833 -0.9019
  391MOL0     H52780   0.827  10.342   3.147 -2.1371 -0.9313 -0.3325
  391MOL0     H52781   1.235  10.407   3.024  0.5006 -2.1051 -2.7143
  391MOL0     H52782   0.508   9.918   3.328 -0.7022 -0.1860  1.2191
  391MOL0     H52783   0.345   9.747   3.556 -1.2655 -0.6495 -0.2588
  391MOL0     H52784   0.320   9.851   3.418 -0.8684 -0.2773 -1.9532
  391MOL0     H52785   0.272   9.684   3.405 -1.6094  3.6590 -2.8992
  392MOL0     O52786   4.516   2.607  10.304 -0.6214 -0.2993 -0.1632
  392MOL0     C52787   4.497   2.723  10.282 -0.6410 -0.4206 -0.0358
  392MOL0     O52788   4.519   2.776  10.152  0.0344  0.1822  0.8755
  392MOL0     C52789   4.582   2.711  10.055  0.3639 -0.4146 -0.0463
  392MOL0     C52790   4.551   2.741   9.926  0.9363 -0.2399  0.1214
  392MOL0     C52791   4.634   2.714   9.819  0.3930 -0.3074  0.5940
  392MOL0     C52792   4.757   2.643   9.829  1.3079  0.5865  0.6455
  392MOL0     O52793   4.829   2.614   9.723  0.5960  0.0711 -0.8090
  392MOL0     C52794   4.917   2.499   9.736  0.1311 -0.8915 -0.0086
  392MOL0     C52795   4.964   2.473   9.594  0.3761 -0.4529 -0.2410
  392MOL0     C52796   4.851   2.428   9.499 -0.4438 -0.0401 -0.6269
  392MOL0     C52797   4.890   2.427   9.358 -0.3364  0.7927 -0.5381
  392MOL0     C52798   4.788   2.390   9.261 -0.2787 -0.8575  0.6820
  392MOL0     C52799   4.730   2.257   9.272 -0.4482  1.0198  0.3024
  392MOL0     C52800   4.598   2.255   9.194 -0.1340  0.0561  0.1880
  392MOL0     C52801   4.564   2.103   9.164  0.2812 -0.4540  0.5462
  392MOL0     N52802   4.447   2.085   9.090 -0.9314 -0.3742  0.2583
  392MOL0     C52803   4.425   2.113   8.955 -0.2275  1.2948  0.5663
  392MOL0     C52804   4.314   2.036   8.930 -0.2496 -0.0101  0.3356
  392MOL0     C52805   4.230   2.009   8.805  0.1593  0.5507  0.4638
  392MOL0     C52806   4.132   1.887   8.804  0.6219  0.6020 -0.3329
  392MOL0     C52807   4.096   1.839   8.662  0.0521  0.4685 -0.7254
  392MOL0     C52808   3.981   1.745   8.665  0.2235  0.2830 -0.0300
  392MOL0     O52809   3.864   1.824   8.649 -0.1842  0.3428 -0.2620
  392MOL0     C52810   3.744   1.753   8.650 -0.2823 -0.1529  0.2253
  392MOL0     C52811   3.729   1.619   8.638  0.6717 -0.0207  0.9108
  392MOL0     C52812   3.599   1.569   8.639  0.8475 -0.3149 -0.6538
  392MOL0     C52813   3.483   1.646   8.650 -0.0698 -0.9578  0.2420
  392MOL0     C52814   3.350   1.583   8.642  0.8295  0.1735 -1.0183
  392MOL0     O52815   3.247   1.678   8.655  0.2081 -0.5845  0.2723
  392MOL0     C52816   3.124   1.622   8.630  0.3769 -0.1212  0.1831
  392MOL0     C52817   3.027   1.629   8.730 -0.0188  0.0966  0.3431
  392MOL0     C52818   2.918   1.551   8.710  0.5453  0.3179 -0.5946
  392MOL0     C52819   2.891   1.494   8.590  0.5121 -0.1704 -0.0442
  392MOL0     O52820   2.777   1.418   8.577  0.1676 -0.1305  0.7320
  392MOL0     C52821   2.688   1.464   8.481 -0.7689 -0.4019 -0.3253
  392MOL0     C52822   2.603   1.341   8.432 -0.4950  0.8050 -0.6308
  392MOL0     C52823   2.685   1.226   8.368 -0.4685  0.7884  0.1525
  392MOL0     C52824   2.598   1.112   8.318 -0.0295 -0.1514  1.3792
  392MOL0     C52825   2.686   1.006   8.236  0.5494  0.8239 -0.0342
  392MOL0     C52826   2.604   0.885   8.192 -0.4820  0.5595  0.4846
  392MOL0     C52827   2.695   0.788   8.106  0.7512 -0.3985  0.3641
  392MOL0     C52828   2.610   0.663   8.063 -0.4990  0.0849 -0.4580
  392MOL0    Cl52829   2.497   0.723   7.934 -0.4598 -0.4607 -0.2427
  392MOL0     C52830   2.993   1.487   8.492 -0.0387 -0.3695  0.1479
  392MOL0     C52831   3.105   1.562   8.507  0.4949 -0.0909 -0.9558
  392MOL0     O52832   3.340   1.461   8.642 -0.9904 -0.3181  0.0300
  392MOL0     C52833   3.501   1.787   8.660 -0.2019  0.5930 -0.6268
  392MOL0     C52834   3.630   1.839   8.653 -0.4677 -0.0895 -0.0707
  392MOL0     N52835   4.270   1.984   9.055  0.3291 -0.0175 -0.7774
  392MOL0     N52836   4.349   2.014   9.147 -0.0595 -0.5285  1.0807
  392MOL0     C52837   4.777   2.596   9.959  1.0634  0.3929 -0.4012
  392MOL0     C52838   4.693   2.630  10.072  0.4989  0.0698 -0.4601
  392MOL0     C52839   4.464   2.844  10.376  0.0736 -0.1541 -1.0776
  392MOL0     C52840   4.518   2.963  10.338  0.2083  0.8834  0.7305
  392MOL0     C52841   4.485   3.081  10.411 -0.3549 -0.8343 -0.2271
  392MOL0     C52842   4.404   3.077  10.526 -0.3491  0.5581  0.0051
  392MOL0     O52843   4.350   3.181  10.591  0.2033  0.7326  1.1465
  392MOL0     C52844   4.437   3.286  10.618  1.1420 -0.3165  0.0464
  392MOL0     C52845   4.398   3.351  10.752  0.2404 -0.3426 -0.4020
  392MOL0     C52846   4.268   3.432  10.744  0.5303 -0.6204 -0.0129
  392MOL0     C52847   4.251   3.520  10.876  0.1578  0.1783  0.5480
  392MOL0     C52848   4.185   3.450  10.989  0.0451  0.4955  0.9233
  392MOL0     C52849   4.118   3.404  11.078  0.8694  0.2535  0.0063
  392MOL0     C52850   4.347   2.949  10.557  0.3130 -0.2821  0.7299
  392MOL0     C52851   4.368   2.832  10.489 -0.9057  0.7387  0.1659
  392MOL0     C52852   4.285   2.712  10.510  0.7805 -0.0668  1.8218
  392MOL0     H52853   4.458   2.794   9.911 -2.4834 -5.3076  0.6919
  392MOL0     H52854   4.590   2.754   9.728 -3.6163  0.2491  2.5334
  392MOL0     H52855   5.005   2.520   9.798  0.8151 -2.5166 -0.3940
  392MOL0     H52856   4.869   2.410   9.778 -1.9704  0.2233  0.0727
  392MOL0     H52857   5.036   2.392   9.611  1.0790  0.6650  2.6382
  392MOL0     H52858   5.010   2.563   9.551  3.3499 -1.8215 -0.1917
  392MOL0     H52859   4.764   2.494   9.508  1.1289  2.0307 -0.0126
  392MOL0     H52860   4.824   2.329   9.537  0.5516 -1.0348 -2.3991
  392MOL0     H52861   4.924   2.529   9.335  1.0715  0.5755  0.4544
  392MOL0     H52862   4.968   2.352   9.343 -0.6106  0.0846  1.2953
  392MOL0     H52863   4.709   2.465   9.275  0.3353 -0.3240  1.3841
  392MOL0     H52864   4.825   2.385   9.158 -3.1722 -6.5687 -0.4751
  392MOL0     H52865   4.798   2.177   9.241 -1.1889 -0.6506  2.6771
  392MOL0     H52866   4.712   2.235   9.378 -0.7688 -1.0257 -0.1312
  392MOL0     H52867   4.598   2.308   9.099  0.1674 -2.5385 -1.3435
  392MOL0     H52868   4.524   2.292   9.265  1.1341  0.6139  1.2617
  392MOL0     H52869   4.642   2.054   9.105  1.8000  2.1731  0.2452
  392MOL0     H52870   4.557   2.055   9.262  1.9008  0.5632  1.1874
  392MOL0     H52871   4.494   2.165   8.889  2.2572 -1.8122  0.4467
  392MOL0     H52872   4.165   2.091   8.774 -0.8413  0.2570  1.7319
  392MOL0     H52873   4.300   1.986   8.724 -1.3361  0.1449 -0.7579
  392MOL0     H52874   4.179   1.805   8.859  1.9343  0.3199 -1.8171
  392MOL0     H52875   4.037   1.906   8.855  0.5910  0.5862 -0.3846
  392MOL0     H52876   4.182   1.784   8.624  0.4220  0.9447 -0.5993
  392MOL0     H52877   4.083   1.921   8.591  3.0346  0.6658 -1.1876
  392MOL0     H52878   3.976   1.692   8.761  0.2631  1.4144  0.6188
  392MOL0     H52879   3.986   1.675   8.581  0.2628  3.1824 -2.6226
  392MOL0     H52880   3.807   1.545   8.653  1.1583 -0.0160 -1.2662
  392MOL0     H52881   3.594   1.461   8.632  0.7944 -0.3152 -0.6082
  392MOL0     H52882   3.041   1.687   8.821  0.3911  3.8523 -1.8907
  392MOL0     H52883   2.834   1.541   8.779  0.0625  1.8198 -0.9347
  392MOL0     H52884   2.622   1.533   8.534 -2.5940 -3.7493  2.1258
  392MOL0     H52885   2.731   1.525   8.401 -0.5378  0.3260  0.3486
  392MOL0     H52886   2.554   1.312   8.525 -3.1437 -0.2259 -2.2549
  392MOL0     H52887   2.525   1.372   8.363 -3.7678 -1.0294  1.9741
  392MOL0     H52888   2.754   1.263   8.292  0.6502 -0.1631  0.6685
  392MOL0     H52889   2.731   1.173   8.453 -1.9957  1.9280  1.7710
  392MOL0     H52890   2.520   1.154   8.254  0.4067  0.9671  1.5522
  392MOL0     H52891   2.545   1.069   8.404  3.0543 -0.3750  3.3642
  392MOL0     H52892   2.772   0.960   8.286 -0.5200 -0.7284  0.4763
  392MOL0     H52893   2.730   1.049   8.146 -1.7100 -2.5790 -3.0431
  392MOL0     H52894   2.565   0.834   8.280 -1.8828 -0.8175 -0.8711
  392MOL0     H52895   2.525   0.928   8.129 -0.3706  0.5726  0.3516
  392MOL0     H52896   2.778   0.766   8.174  1.5547  2.1675  0.3237
  392MOL0     H52897   2.740   0.845   8.025  0.6803  3.3875  2.7678
  392MOL0     H52898   2.673   0.589   8.012  0.5338  0.9771 -0.5027
  392MOL0     H52899   2.546   0.630   8.145  0.0044 -0.2097 -0.1771
  392MOL0     H52900   2.983   1.439   8.395  1.3733 -0.7573  0.1745
  392MOL0     H52901   3.178   1.548   8.428  1.5376 -1.4614  0.1871
  392MOL0     H52902   3.428   1.865   8.680 -0.1500  0.4046  0.3569
  392MOL0     H52903   3.643   1.945   8.672  0.5287 -0.7205  3.7416
  392MOL0     H52904   4.864   2.531   9.971  2.1412  0.4586 -5.6922
  392MOL0     H52905   4.713   2.583  10.168  0.5264  1.6642  0.3439
  392MOL0     H52906   4.571   2.970  10.244  0.2513  0.2489  0.7047
  392MOL0     H52907   4.523   3.175  10.372 -0.5232 -0.1709  1.1561
  392MOL0     H52908   4.425   3.366  10.544 -2.4553  1.8680  2.6477
  392MOL0     H52909   4.536   3.241  10.609  0.0632 -2.3459 -4.5297
  392MOL0     H52910   4.463   3.438  10.772 -0.0547 -0.0309 -0.7885
  392MOL0     H52911   4.398   3.278  10.833  0.6749  0.3715  0.2516
  392MOL0     H52912   4.182   3.365  10.733  0.2643 -0.8592  2.8989
  392MOL0     H52913   4.278   3.500  10.659  0.4444 -1.3356 -0.6124
  392MOL0     H52914   4.344   3.576  10.891 -0.9487  2.2847 -0.2265
  392MOL0     H52915   4.180   3.596  10.843  0.6911  1.2386  1.7509
  392MOL0     H52916   4.054   3.365  11.155  2.7996  0.8447  1.9806
  392MOL0     H52917   4.272   2.956  10.635  0.3295  2.9901  0.6218
  392MOL0     H52918   4.221   2.726  10.598 -0.5531 -1.2709  1.0848
  392MOL0     H52919   4.220   2.695  10.424  1.9814 -4.7740  1.5678
  392MOL0     H52920   4.346   2.622  10.520  1.5236 -0.0028 -1.2914
  393MOL0     O52921  11.163  11.083   5.109  0.4687 -0.8520 -0.1912
  393MOL0     C52922  11.252  11.167   5.144 -0.0414 -0.5320 -0.4863
  393MOL0     O52923  11.369  11.176   5.078 -0.5656  0.6180 -0.1603
  393MOL0     C52924  11.358  11.253   4.966  0.4490 -0.6812  0.3756
  393MOL0     C52925  11.283  11.203   4.861 -0.2529 -0.0277  0.4539
  393MOL0     C52926  11.271  11.280   4.744  0.8754 -1.3118 -0.2052
  393MOL0     C52927  11.324  11.409   4.735  0.5048 -0.3359 -0.1870
  393MOL0     O52928  11.299  11.489   4.622 -0.3285  0.6178 -0.6356
  393MOL0     C52929  11.180  11.564   4.608  0.4208  0.0247  0.2648
  393MOL0     C52930  11.115  11.533   4.471  0.5480  0.2628  0.0795
  393MOL0     C52931  10.969  11.578   4.466  0.8427  0.3039  1.1297
  393MOL0     C52932  10.929  11.593   4.317 -0.0630  0.4583  0.5254
  393MOL0     C52933  10.830  11.702   4.289  0.7616 -1.1852  1.0864
  393MOL0     C52934  10.821  11.731   4.137 -0.1264 -0.2171 -0.3500
  393MOL0     C52935  10.716  11.836   4.112  0.4069 -0.5343  0.2229
  393MOL0     C52936  10.688  11.849   3.956 -0.4498  0.3214 -0.0503
  393MOL0     N52937  10.604  11.966   3.921 -0.4666 -0.3755  0.5901
  393MOL0     C52938  10.624  12.096   3.954  0.6375 -0.2833  0.9241
  393MOL0     C52939  10.543  12.169   3.871 -0.4696  0.3260  0.3247
  393MOL0     C52940  10.523  12.323   3.893  0.8045 -0.0239  0.2796
  393MOL0     C52941  10.376  12.374   3.853  0.2048 -0.1697 -0.0168
  393MOL0     C52942  10.383  12.521   3.808 -0.3702  0.7621 -0.1622
  393MOL0     C52943  10.269  12.557   3.714 -0.1732  0.5863  0.1676
  393MOL0     O52944  10.137  12.512   3.772  0.0272 -0.3776 -0.1995
  393MOL0     C52945  10.032  12.505   3.696  0.1937  0.3312 -0.0826
  393MOL0     C52946  10.007  12.582   3.585 -0.2381  0.0048  0.8473
  393MOL0     C52947   9.888  12.572   3.512  0.0330  0.2689  0.0108
  393MOL0     C52948   9.793  12.479   3.545 -0.2568  0.5964 -0.2059
  393MOL0     C52949   9.664  12.475   3.481  0.6970 -0.3657  0.0528
  393MOL0     O52950   9.584  12.365   3.505 -0.4162 -0.4780  0.2425
  393MOL0     C52951   9.481  12.326   3.423  0.0920 -0.8202  0.2410
  393MOL0     C52952   9.381  12.245   3.473 -0.7477 -0.2298 -0.6904
  393MOL0     C52953   9.273  12.190   3.402 -0.0242  0.8846  0.1767
  393MOL0     C52954   9.274  12.210   3.262 -0.4399 -0.2815  0.2361
  393MOL0     O52955   9.179  12.171   3.173 -0.1912 -0.9985 -0.5222
  393MOL0     C52956   9.059  12.117   3.219  0.0091  0.5846 -0.3375
  393MOL0     C52957   8.967  12.116   3.096 -0.0263  0.2891  0.0762
  393MOL0     C52958   8.844  12.040   3.135 -0.2426  0.3257 -0.2434
  393MOL0     C52959   8.734  12.043   3.028  0.4973 -0.2207  0.5574
  393MOL0     C52960   8.599  12.050   3.088  0.1236  0.6035  0.7514
  393MOL0     C52961   8.489  12.083   2.993  0.7937 -0.7952 -0.3939
  393MOL0     C52962   8.358  12.088   3.081 -0.8341 -0.1269 -0.6917
  393MOL0     C52963   8.244  12.101   2.978  0.9000  0.2756  0.9907
  393MOL0    Cl52964   8.094  12.066   3.086  0.5225 -0.2098  0.1475
  393MOL0     C52965   9.379  12.289   3.208  0.2397  0.2562 -0.1269
  393MOL0     C52966   9.489  12.346   3.282  0.1888 -0.2503  0.2754
  393MOL0     O52967   9.631  12.558   3.397 -0.2471  0.2090 -0.2516
  393MOL0     C52968   9.824  12.389   3.650 -0.9989  1.0087 -0.7356
  393MOL0     C52969   9.944  12.393   3.722 -0.1027 -1.0306  0.2759
  393MOL0     N52970  10.477  12.081   3.788 -0.5820 -0.4034  0.8951
  393MOL0     N52971  10.511  11.961   3.825 -0.3118  1.8474 -0.4020
  393MOL0     C52972  11.380  11.463   4.845  0.8343  0.4186 -0.5376
  393MOL0     C52973  11.413  11.389   4.961  0.5926  0.0265 -0.3604
  393MOL0     C52974  11.228  11.235   5.277 -1.2346 -0.9585 -0.3933
  393MOL0     C52975  11.105  11.263   5.318  0.7544 -0.6805  0.1926
  393MOL0     C52976  11.079  11.320   5.440  0.1140  0.1534 -0.7785
  393MOL0     C52977  11.181  11.357   5.530 -0.1640  0.9267 -0.4596
  393MOL0     O52978  11.168  11.419   5.655 -0.4708  0.8135 -0.1802
  393MOL0     C52979  11.044  11.465   5.689  0.7191 -0.2891 -0.8510
  393MOL0     C52980  10.937  11.360   5.732 -0.1998  0.0562  0.0837
  393MOL0     C52981  10.990  11.269   5.833 -0.6919  0.0074 -0.9378
  393MOL0     C52982  10.878  11.164   5.872 -0.5669 -0.2253 -0.1386
  393MOL0     C52983  10.818  11.227   5.995  0.4742  0.5119  0.2899
  393MOL0     C52984  10.769  11.261   6.102  0.7733 -1.1038  0.4082
  393MOL0     C52985  11.306  11.326   5.484  0.1526  0.2660 -1.0010
  393MOL0     C52986  11.337  11.271   5.365 -0.0657  0.1747 -0.2959
  393MOL0     C52987  11.472  11.220   5.343 -0.5362  0.3148 -0.6968
  393MOL0     H52988  11.245  11.102   4.850 -0.9954  0.3097 -0.3373
  393MOL0     H52989  11.206  11.239   4.667 -1.0215  3.2122 -1.3125
  393MOL0     H52990  11.120  11.544   4.697 -2.1552  3.3545 -0.5103
  393MOL0     H52991  11.216  11.667   4.607  0.3574  0.0540  0.7495
  393MOL0     H52992  11.107  11.429   4.436  1.3190  0.9152 -2.2361
  393MOL0     H52993  11.177  11.583   4.396 -1.1324  1.1555 -0.7580
  393MOL0     H52994  10.958  11.674   4.518  0.5666  0.7889  0.2091
  393MOL0     H52995  10.916  11.497   4.515  1.0731 -1.3125 -1.1325
  393MOL0     H52996  11.018  11.625   4.263  0.7836  0.2720  1.7705
  393MOL0     H52997  10.895  11.492   4.291  0.5387 -0.1949  2.1477
  393MOL0     H52998  10.732  11.669   4.326 -0.1609  2.7611  2.6121
  393MOL0     H52999  10.854  11.794   4.343 -2.7165 -0.3154  1.3880
  393MOL0     H53000  10.916  11.766   4.096 -0.4383 -0.1862 -1.0644
  393MOL0     H53001  10.800  11.636   4.086  1.1010 -0.4317 -0.4899
  393MOL0     H53002  10.755  11.934   4.141 -0.4895 -0.6464  1.9670
  393MOL0     H53003  10.632  11.820   4.181  0.0289  0.4424 -0.0010
  393MOL0     H53004  10.781  11.859   3.900 -0.8191  4.3749 -0.2013
  393MOL0     H53005  10.637  11.757   3.926  0.2949 -0.2612  0.4263
  393MOL0     H53006  10.696  12.145   4.020 -1.4927 -0.8939  3.9060
  393MOL0     H53007  10.544  12.338   3.999  0.2163  0.7754  0.3000
  393MOL0     H53008  10.602  12.383   3.848 -2.1729  1.9233 -2.8524
  393MOL0     H53009  10.329  12.304   3.783 -2.3494  1.0871  0.2963
  393MOL0     H53010  10.312  12.359   3.940 -1.6196  0.8061 -1.1064
  393MOL0     H53011  10.478  12.532   3.755  0.0014  0.3204  0.4093
  393MOL0     H53012  10.383  12.591   3.892 -1.3354  1.4379 -0.7068
  393MOL0     H53013  10.281  12.504   3.620  0.1555 -2.0769  1.6244
  393MOL0     H53014  10.284  12.664   3.698 -1.7818  0.6418 -1.2225
  393MOL0     H53015  10.071  12.666   3.561  1.7572 -1.2454  1.4898
  393MOL0     H53016   9.864  12.636   3.427 -0.5376 -2.4820 -2.0493
  393MOL0     H53017   9.383  12.208   3.575  1.5554  1.1459 -0.1686
  393MOL0     H53018   9.193  12.130   3.442  2.3378 -3.0250 -0.4325
  393MOL0     H53019   9.075  12.016   3.258 -0.9841  0.5507  0.0093
  393MOL0     H53020   9.008  12.171   3.300  0.8165 -2.5807  2.5128
  393MOL0     H53021   8.945  12.218   3.064  1.2349 -0.0808 -2.1923
  393MOL0     H53022   9.016  12.068   3.011  0.4109  0.8557 -0.0027
  393MOL0     H53023   8.864  11.937   3.165 -0.3732 -0.0431 -1.3790
  393MOL0     H53024   8.809  12.094   3.223  0.3133 -0.3549  0.4041
  393MOL0     H53025   8.732  11.959   2.958 -1.4921  0.5668 -0.4142
  393MOL0     H53026   8.751  12.138   2.976 -1.1529 -0.2850 -0.1726
  393MOL0     H53027   8.601  12.124   3.169 -0.1095  2.0329 -0.5208
  393MOL0     H53028   8.593  11.952   3.138  2.1518 -0.9541 -1.7803
  393MOL0     H53029   8.496  12.185   2.955  0.5277 -0.3363  0.7604
  393MOL0     H53030   8.487  12.013   2.908 -2.1084 -1.0212 -0.2136
  393MOL0     H53031   8.352  12.173   3.150  0.7041  0.8320 -1.6818
  393MOL0     H53032   8.356  11.991   3.130  3.3849 -0.9625 -1.8123
  393MOL0     H53033   8.233  12.204   2.943  1.1134 -0.2242 -0.6395
  393MOL0     H53034   8.256  12.017   2.909 -0.9755  1.8082 -1.3711
  393MOL0     H53035   9.384  12.286   3.099  0.7559  0.8107 -0.1246
  393MOL0     H53036   9.567  12.402   3.232  1.1326 -2.2520 -0.5774
  393MOL0     H53037   9.754  12.307   3.670 -2.4146  2.3860  0.2213
  393MOL0     H53038   9.973  12.311   3.787  1.7034 -0.1678  0.6074
  393MOL0     H53039  11.418  11.564   4.838  1.5472  0.0911 -1.8768
  393MOL0     H53040  11.458  11.437   5.047 -2.3604  1.3576  0.5950
  393MOL0     H53041  11.020  11.250   5.251  1.3927 -2.0300 -0.3956
  393MOL0     H53042  10.974  11.342   5.451 -0.7700 -3.4583 -0.7304
  393MOL0     H53043  10.998  11.516   5.604 -0.3372  2.7670  1.3682
  393MOL0     H53044  11.052  11.545   5.763 -2.4344 -0.1677 -0.5104
  393MOL0     H53045  10.894  11.311   5.645 -2.7292  3.2903 -0.6920
  393MOL0     H53046  10.852  11.404   5.785  0.2523  3.0195 -1.4355
  393MOL0     H53047  11.017  11.326   5.922  0.1689  0.6197 -1.5726
  393MOL0     H53048  11.075  11.215   5.792 -0.7780 -1.0729  0.2799
  393MOL0     H53049  10.809  11.136   5.792  0.0618  0.2183 -0.8475
  393MOL0     H53050  10.934  11.076   5.905 -2.2241 -1.1629  0.2919
  393MOL0     H53051  10.731  11.293   6.198 -0.6817  1.8820 -1.0297
  393MOL0     H53052  11.378  11.346   5.563 -3.0264  3.0467  1.4530
  393MOL0     H53053  11.531  11.274   5.269  0.8048 -2.5695 -1.8559
  393MOL0     H53054  11.531  11.227   5.435 -1.0429  1.3896 -0.4319
  393MOL0     H53055  11.467  11.113   5.321 -1.0907 -0.8500  3.8769
  394MOL0     O53056   1.099   3.127   5.788 -0.3415  0.1640 -0.4977
  394MOL0     C53057   0.984   3.120   5.823  0.2227  0.2351  0.7865
  394MOL0     O53058   0.920   3.202   5.917 -0.0255  0.5451  0.4764
  394MOL0     C53059   0.980   3.300   5.990 -0.4106  0.2630  0.6456
  394MOL0     C53060   0.907   3.323   6.109 -0.7701  0.4242 -0.4553
  394MOL0     C53061   0.948   3.432   6.193  0.2086 -0.3888 -0.5990
  394MOL0     C53062   1.058   3.514   6.155 -0.9256 -0.1783  0.5241
  394MOL0     O53063   1.099   3.627   6.226  0.4923 -0.4785 -0.1553
  394MOL0     C53064   1.177   3.600   6.335  0.3225  0.7463 -0.9309
  394MOL0     C53065   1.249   3.729   6.377  0.3210  0.8406 -0.1477
  394MOL0     C53066   1.374   3.771   6.302  0.5859  0.3071  0.0268
  394MOL0     C53067   1.442   3.883   6.371  1.1380 -0.2428 -0.2874
  394MOL0     C53068   1.536   3.964   6.281  0.4155 -0.1233 -0.5240
  394MOL0     C53069   1.672   3.896   6.263 -0.4738 -0.2318  0.4174
  394MOL0     C53070   1.799   3.983   6.227  0.1352 -0.2034  0.5269
  394MOL0     C53071   1.915   3.892   6.190 -0.3272 -0.1877 -1.3117
  394MOL0     N53072   1.927   3.773   6.272 -0.2760  0.1077 -0.3583
  394MOL0     C53073   1.932   3.641   6.245 -0.5291  0.4662  0.9467
  394MOL0     C53074   1.956   3.579   6.364 -0.2961  0.3497  0.9585
  394MOL0     C53075   1.969   3.433   6.392 -0.5253  0.0642 -0.7278
  394MOL0     C53076   1.954   3.394   6.539  0.5967 -0.2936 -0.1793
  394MOL0     C53077   1.911   3.255   6.559 -0.7311 -0.9894 -0.1505
  394MOL0     C53078   1.863   3.226   6.703 -0.0273 -0.0923 -0.2076
  394MOL0     O53079   1.984   3.189   6.778 -1.0034  0.5545 -0.3399
  394MOL0     C53080   2.025   3.059   6.775  0.3845 -0.0441  0.4633
  394MOL0     C53081   1.971   2.944   6.714  0.6055  0.6304  0.8633
  394MOL0     C53082   2.018   2.816   6.728 -0.8918 -0.1935  0.1254
  394MOL0     C53083   2.127   2.798   6.814 -0.5633  0.0019  0.0788
  394MOL0     C53084   2.169   2.659   6.850  0.1951 -0.0835 -0.0937
  394MOL0     O53085   2.110   2.551   6.777  0.0752  0.3426 -0.4899
  394MOL0     C53086   2.133   2.422   6.818 -0.3734 -1.2527 -0.7253
  394MOL0     C53087   2.023   2.350   6.869 -0.1245  0.0069  0.7114
  394MOL0     C53088   2.044   2.222   6.922  0.0491 -0.8560  0.5448
  394MOL0     C53089   2.174   2.167   6.925 -0.3585  0.3247 -0.8970
  394MOL0     O53090   2.181   2.038   6.970  0.6250  0.6356  0.4416
  394MOL0     C53091   2.309   1.987   7.008  0.7196  0.3471 -0.5537
  394MOL0     C53092   2.313   1.881   7.119  0.3778  0.7799  0.1820
  394MOL0     C53093   2.457   1.855   7.147 -0.4876 -0.3600  0.8122
  394MOL0     C53094   2.490   1.733   7.231 -1.7893 -0.4521 -0.3271
  394MOL0     C53095   2.638   1.733   7.271 -0.1494 -0.2888  0.2709
  394MOL0     C53096   2.645   1.648   7.398 -0.0130  0.0441  0.3884
  394MOL0     C53097   2.783   1.637   7.467  0.0468  0.0834  0.7543
  394MOL0     C53098   2.784   1.498   7.524 -0.2374 -0.4855  0.1680
  394MOL0    Cl53099   2.652   1.458   7.626 -0.0801  0.4270  0.1346
  394MOL0     C53100   2.289   2.238   6.879  0.0803 -0.1216  0.3541
  394MOL0     C53101   2.261   2.363   6.817  0.3932  0.0900 -0.8045
  394MOL0     O53102   2.263   2.649   6.932  0.1839 -0.8650  0.1293
  394MOL0     C53103   2.180   2.901   6.886  0.3348 -0.4783  1.2993
  394MOL0     C53104   2.125   3.029   6.867  0.1550 -0.0314  0.3998
  394MOL0     N53105   1.968   3.680   6.464  0.4124 -0.0014 -0.7611
  394MOL0     N53106   1.943   3.793   6.405 -0.2416  0.0972  0.0570
  394MOL0     C53107   1.129   3.492   6.034  0.2939 -0.1196 -0.0225
  394MOL0     C53108   1.089   3.389   5.955 -0.1129  0.2855  0.1820
  394MOL0     C53109   0.895   3.015   5.771  0.5366 -0.7356  0.4088
  394MOL0     C53110   0.757   3.044   5.759  0.5386  0.1811  0.8153
  394MOL0     C53111   0.672   2.939   5.720  0.4992 -0.3323 -0.0658
  394MOL0     C53112   0.719   2.813   5.679  0.1414  0.7711 -0.5742
  394MOL0     O53113   0.625   2.728   5.642 -0.1917 -0.2708  0.6805
  394MOL0     C53114   0.657   2.602   5.571  0.0565 -0.3480 -1.0748
  394MOL0     C53115   0.542   2.578   5.473 -0.5574 -0.0916 -0.1628
  394MOL0     C53116   0.424   2.524   5.553  0.8505  0.0896 -0.2018
  394MOL0     C53117   0.320   2.469   5.452  0.3351 -0.3528 -0.2667
  394MOL0     C53118   0.359   2.335   5.412  1.0537 -0.6237  0.8578
  394MOL0     C53119   0.384   2.219   5.394 -0.4873 -0.0624 -0.5196
  394MOL0     C53120   0.861   2.795   5.668 -0.5686 -0.1715  0.3286
  394MOL0     C53121   0.942   2.887   5.731 -0.1228  0.8395 -0.9537
  394MOL0     C53122   1.093   2.854   5.718  1.2383  0.1883 -0.1117
  394MOL0     H53123   0.821   3.263   6.136 -1.9366  0.0535 -4.3694
  394MOL0     H53124   0.900   3.462   6.285 -1.2553  0.2548 -1.5388
  394MOL0     H53125   1.120   3.569   6.423  2.7196  0.8020  0.7569
  394MOL0     H53126   1.248   3.520   6.315 -0.7557  0.3063 -3.2666
  394MOL0     H53127   1.274   3.717   6.483 -0.7792 -1.7109 -0.0957
  394MOL0     H53128   1.178   3.812   6.376  0.4709  0.9645 -0.3648
  394MOL0     H53129   1.348   3.801   6.201 -2.7374  0.4109  0.8071
  394MOL0     H53130   1.442   3.685   6.299  0.4707  0.0659  2.2064
  394MOL0     H53131   1.360   3.949   6.400 -0.5644 -2.1380 -0.6356
  394MOL0     H53132   1.499   3.845   6.456  2.6268  0.8612 -0.7441
  394MOL0     H53133   1.491   3.979   6.183  0.0383  2.6556 -0.0269
  394MOL0     H53134   1.550   4.065   6.322  1.0433 -0.6464  0.5940
  394MOL0     H53135   1.692   3.849   6.360 -3.1182  1.9747  2.1946
  394MOL0     H53136   1.651   3.818   6.190 -1.1938  0.3607 -0.0178
  394MOL0     H53137   1.815   4.042   6.317 -1.9817  1.1853  0.0554
  394MOL0     H53138   1.790   4.052   6.142 -2.3575 -0.7236  0.2962
  394MOL0     H53139   1.893   3.852   6.091  0.4500 -1.0402 -1.1618
  394MOL0     H53140   2.012   3.943   6.195 -1.4352  2.3286 -3.1361
  394MOL0     H53141   1.929   3.588   6.150  1.0472 -0.5086  1.4067
  394MOL0     H53142   1.890   3.385   6.334  0.9320 -2.2332 -0.9501
  394MOL0     H53143   2.064   3.404   6.347 -1.1891 -2.7373 -0.5124
  394MOL0     H53144   2.041   3.414   6.602  0.9063 -0.9482 -0.3893
  394MOL0     H53145   1.881   3.468   6.570  0.1122 -0.0112 -1.9024
  394MOL0     H53146   1.984   3.178   6.534 -0.0896 -0.6649  0.6524
  394MOL0     H53147   1.815   3.247   6.507 -0.1431  3.5402 -2.4718
  394MOL0     H53148   1.784   3.151   6.715  1.4688 -1.2753  3.6833
  394MOL0     H53149   1.821   3.320   6.740 -0.8186 -0.6376  0.3170
  394MOL0     H53150   1.882   2.961   6.654 -0.2814  1.0067  2.2316
  394MOL0     H53151   1.959   2.735   6.688 -2.2417  1.2910 -1.0500
  394MOL0     H53152   1.924   2.395   6.870  0.6150  1.6968  1.1354
  394MOL0     H53153   1.964   2.168   6.971 -0.0371  0.5458  2.0326
  394MOL0     H53154   2.329   1.958   6.904 -0.5623 -0.8502 -0.5003
  394MOL0     H53155   2.367   2.075   7.035 -1.3153  1.3998  0.6511
  394MOL0     H53156   2.261   1.930   7.202 -0.1701  0.5777 -0.0334
  394MOL0     H53157   2.253   1.792   7.097 -1.2144  2.1382 -1.2493
  394MOL0     H53158   2.514   1.863   7.055  2.0652 -0.5702  2.2806
  394MOL0     H53159   2.478   1.947   7.203 -1.3717  0.7720 -0.6430
  394MOL0     H53160   2.470   1.641   7.174  0.7126 -0.9777 -0.4744
  394MOL0     H53161   2.435   1.747   7.324  2.4460  1.5586  2.1497
  394MOL0     H53162   2.691   1.827   7.288 -0.6276  0.8266 -3.6125
  394MOL0     H53163   2.688   1.682   7.188  0.8483  1.7942 -0.4859
  394MOL0     H53164   2.586   1.689   7.480  1.4100  0.2559  1.3555
  394MOL0     H53165   2.600   1.550   7.379  0.3726 -0.5247  2.2407
  394MOL0     H53166   2.774   1.718   7.541 -4.2914  1.1878 -0.6901
  394MOL0     H53167   2.873   1.658   7.408  0.4107 -0.7109  1.0188
  394MOL0     H53168   2.781   1.424   7.443  0.7146  1.1772 -1.4762
  394MOL0     H53169   2.886   1.500   7.566 -0.1383  1.8513 -0.0314
  394MOL0     H53170   2.393   2.206   6.880 -0.1706 -0.9667  0.0645
  394MOL0     H53171   2.340   2.414   6.762  1.7518 -0.6459  0.3780
  394MOL0     H53172   2.267   2.893   6.950  0.1515  0.0957  1.6347
  394MOL0     H53173   2.165   3.113   6.924  2.1519 -1.5143  1.3127
  394MOL0     H53174   1.214   3.558   6.019 -1.5018  2.2479 -0.3302
  394MOL0     H53175   1.151   3.381   5.866  1.6187  2.6392  1.0508
  394MOL0     H53176   0.712   3.138   5.787 -1.5938 -0.2708 -0.8133
  394MOL0     H53177   0.566   2.948   5.741  0.5329  0.4615 -0.2178
  394MOL0     H53178   0.665   2.520   5.643 -0.7539  0.6181  0.1615
  394MOL0     H53179   0.754   2.612   5.523  1.4200  2.6877  1.8889
  394MOL0     H53180   0.578   2.496   5.410 -0.1283 -0.2832  0.3228
  394MOL0     H53181   0.547   2.668   5.412  0.6734  1.0591  1.5459
  394MOL0     H53182   0.385   2.614   5.602  1.3268  1.0764 -1.5584
  394MOL0     H53183   0.428   2.441   5.624 -0.4950 -0.2755 -0.5255
  394MOL0     H53184   0.222   2.463   5.500 -0.1758  2.1753 -0.8481
  394MOL0     H53185   0.310   2.529   5.361  2.3999  0.7524  0.1795
  394MOL0     H53186   0.414   2.117   5.384  2.6031  0.6188  0.5515
  394MOL0     H53187   0.903   2.716   5.607 -0.6981 -1.2412  1.5828
  394MOL0     H53188   1.140   2.928   5.652  0.1671  1.9768  1.0462
  394MOL0     H53189   1.146   2.857   5.814  0.5794 -4.8765  0.6933
  394MOL0     H53190   1.108   2.751   5.686 -0.8376  0.0159 -0.6801
  395MOL0     O53191   1.697   2.520   1.573  0.7958 -0.0104 -0.3174
  395MOL0     C53192   1.634   2.555   1.676 -0.1330 -0.2858  0.5569
  395MOL0     O53193   1.501   2.568   1.686  0.2635 -0.1642 -0.0717
  395MOL0     C53194   1.432   2.526   1.577  0.1060  0.1367 -0.5174
  395MOL0     C53195   1.325   2.436   1.593 -0.9993  0.5314 -0.2507
  395MOL0     C53196   1.235   2.404   1.490 -0.2176  0.3891  0.1250
  395MOL0     C53197   1.248   2.465   1.367  0.1809 -0.8911 -0.1467
  395MOL0     O53198   1.181   2.447   1.251  0.1228 -0.5002  0.1763
  395MOL0     C53199   1.077   2.346   1.245 -0.7883  0.1854 -0.7007
  395MOL0     C53200   0.941   2.381   1.307 -1.0612 -0.1567 -0.3658
  395MOL0     C53201   0.867   2.473   1.220 -0.0465  0.3224 -1.0525
  395MOL0     C53202   0.726   2.488   1.267 -0.6348  0.7496 -0.3513
  395MOL0     C53203   0.636   2.562   1.173  0.9474  0.4765 -0.5545
  395MOL0     C53204   0.493   2.533   1.214  1.3542 -0.1294 -0.3366
  395MOL0     C53205   0.454   2.578   1.353 -0.6460 -0.7642 -0.3952
  395MOL0     C53206   0.440   2.734   1.356 -0.0259  0.7280 -0.3336
  395MOL0     N53207   0.333   2.791   1.278 -0.3353  0.1196  0.4333
  395MOL0     C53208   0.343   2.837   1.141  0.0135  0.2510  0.2476
  395MOL0     C53209   0.221   2.894   1.117 -0.3393  0.3153  0.0816
  395MOL0     C53210   0.166   2.949   0.988 -0.0457  0.2466  0.2294
  395MOL0     C53211   0.104   2.839   0.899 -0.3244 -0.8313 -0.5106
  395MOL0     C53212   0.125   2.850   0.739 -0.1764  0.3199  0.1750
  395MOL0     C53213   0.277   2.820   0.725  0.1070 -0.1570  0.0665
  395MOL0     O53214   0.305   2.686   0.738 -0.8381  0.5795 -0.5988
  395MOL0     C53215   0.438   2.649   0.757 -0.0271  2.0620 -0.9549
  395MOL0     C53216   0.539   2.747   0.747 -0.4200 -0.1391 -0.3306
  395MOL0     C53217   0.672   2.705   0.739 -0.1371 -0.2843  0.5948
  395MOL0     C53218   0.710   2.576   0.759 -0.4231 -0.4399 -0.0594
  395MOL0     C53219   0.851   2.531   0.764  0.3256 -0.4420 -0.0089
  395MOL0     O53220   0.947   2.625   0.742  0.1364 -0.1638 -0.0245
  395MOL0     C53221   1.077   2.589   0.730  0.3474  0.2625 -0.0888
  395MOL0     C53222   1.142   2.568   0.605 -0.2892  0.8475  0.2623
  395MOL0     C53223   1.282   2.553   0.593 -0.7165 -0.2817  0.4146
  395MOL0     C53224   1.363   2.558   0.707 -0.6780 -0.7869  1.1015
  395MOL0     O53225   1.505   2.564   0.696  0.5698  0.5930  0.2619
  395MOL0     C53226   1.579   2.556   0.811  0.3464  0.0483 -0.3732
  395MOL0     C53227   1.725   2.566   0.769 -0.0704 -0.1833 -0.1087
  395MOL0     C53228   1.819   2.536   0.869 -0.8093 -0.1195 -0.3757
  395MOL0     C53229   1.954   2.513   0.795  0.1823 -0.3452  0.3741
  395MOL0     C53230   2.076   2.510   0.887  1.0226  0.1453 -0.0785
  395MOL0     C53231   2.096   2.638   0.963 -0.8892  0.2374 -0.1439
  395MOL0     C53232   2.250   2.653   0.987  0.0559 -0.4069  0.6310
  395MOL0     C53233   2.282   2.797   1.048 -0.6176  0.1293  0.3926
  395MOL0    Cl53234   2.215   2.933   0.965 -0.1370 -0.3540  0.1397
  395MOL0     C53235   1.294   2.566   0.829 -0.4461 -0.1505 -0.1506
  395MOL0     C53236   1.159   2.579   0.848 -0.4115 -0.0283  1.0708
  395MOL0     O53237   0.868   2.417   0.790 -0.3960  0.9205 -0.1712
  395MOL0     C53238   0.606   2.485   0.785 -0.1712  0.3355 -0.8485
  395MOL0     C53239   0.472   2.516   0.774 -0.8090  0.3621 -0.6504
  395MOL0     N53240   0.143   2.878   1.232  0.3191  0.2658 -0.1633
  395MOL0     N53241   0.211   2.821   1.322 -0.6958 -0.2074  0.4014
  395MOL0     C53242   1.355   2.553   1.346  0.0579  0.3419 -0.4060
  395MOL0     C53243   1.445   2.583   1.451  0.0521 -0.5352 -0.3822
  395MOL0     C53244   1.713   2.623   1.782  0.5038 -0.0642 -0.0026
  395MOL0     C53245   1.802   2.728   1.744  0.5072 -0.2045 -0.6116
  395MOL0     C53246   1.887   2.792   1.834  0.0927 -0.1853 -0.4678
  395MOL0     C53247   1.885   2.756   1.968 -0.1126  0.4115 -0.6505
  395MOL0     O53248   1.999   2.796   2.036 -0.1042 -0.4696  0.1662
  395MOL0     C53249   1.984   2.855   2.165 -0.1219 -0.1343 -0.4060
  395MOL0     C53250   2.056   2.778   2.269  0.1224  0.1273  0.6922
  395MOL0     C53251   2.015   2.627   2.289 -0.0653  0.2382 -0.4026
  395MOL0     C53252   2.119   2.564   2.385 -0.2354  0.5143  1.0198
  395MOL0     C53253   2.114   2.616   2.527  0.1690 -0.1125 -0.5400
  395MOL0     C53254   2.096   2.662   2.639 -0.7865  0.4607  0.2171
  395MOL0     C53255   1.801   2.654   2.007 -0.0906 -0.2351  0.5866
  395MOL0     C53256   1.709   2.587   1.917  0.0017  0.5048  0.4162
  395MOL0     C53257   1.620   2.478   1.987 -0.1181  0.5336 -0.6847
  395MOL0     H53258   1.303   2.401   1.693  2.9887  3.0214  1.7763
  395MOL0     H53259   1.160   2.327   1.506 -1.4528  1.6864  0.7827
  395MOL0     H53260   1.073   2.313   1.141  0.3251 -0.0643 -0.6793
  395MOL0     H53261   1.114   2.260   1.301 -0.3545  0.9583  0.2184
  395MOL0     H53262   0.971   2.427   1.402 -1.0323 -1.8877  0.4984
  395MOL0     H53263   0.892   2.284   1.321  1.7762 -2.0551 -2.3717
  395MOL0     H53264   0.867   2.434   1.117  1.2667 -0.8556 -0.6412
  395MOL0     H53265   0.917   2.570   1.229  1.4659 -0.4346 -0.8287
  395MOL0     H53266   0.696   2.383   1.275  2.1106  0.0252  2.2672
  395MOL0     H53267   0.728   2.542   1.362  0.1538  1.4672 -0.7677
  395MOL0     H53268   0.649   2.670   1.182 -1.2351  0.6867  1.3962
  395MOL0     H53269   0.647   2.527   1.070 -2.4422  1.3848 -1.3647
  395MOL0     H53270   0.432   2.578   1.136  0.5090  1.4348  1.1734
  395MOL0     H53271   0.472   2.425   1.221 -0.5669  0.3259  4.0351
  395MOL0     H53272   0.531   2.553   1.427  0.4220 -1.5050 -1.7168
  395MOL0     H53273   0.355   2.536   1.374 -0.7507 -0.9433 -1.2268
  395MOL0     H53274   0.407   2.767   1.455 -1.8108  3.7753 -1.7885
  395MOL0     H53275   0.531   2.793   1.346  0.9747 -1.0968 -2.9122
  395MOL0     H53276   0.429   2.841   1.076 -0.5311  3.1741 -0.4051
  395MOL0     H53277   0.083   3.018   1.012 -0.0529 -1.1093  5.4261
  395MOL0     H53278   0.242   3.018   0.951 -2.1354  3.5491  1.5821
  395MOL0     H53279   0.134   2.744   0.946  0.8087 -0.5594 -0.6495
  395MOL0     H53280  -0.002   2.828   0.922 -0.1749 -4.1752 -0.8134
  395MOL0     H53281   0.102   2.954   0.713  0.9078  1.0908  2.0422
  395MOL0     H53282   0.074   2.778   0.676  2.0374  0.6523 -2.1963
  395MOL0     H53283   0.322   2.886   0.799 -1.5378 -0.5168  1.4437
  395MOL0     H53284   0.299   2.857   0.624 -3.9827 -3.4596 -2.3661
  395MOL0     H53285   0.515   2.853   0.743 -2.9442 -0.5847  0.6566
  395MOL0     H53286   0.746   2.782   0.724 -0.3006  0.4623  3.0913
  395MOL0     H53287   1.090   2.565   0.509  0.7554  1.0172 -0.3240
  395MOL0     H53288   1.320   2.563   0.491  0.2118 -0.5141  0.7299
  395MOL0     H53289   1.552   2.636   0.880 -2.4826 -2.3537  1.5602
  395MOL0     H53290   1.563   2.463   0.867  4.4033 -0.9748 -0.6360
  395MOL0     H53291   1.743   2.499   0.684  0.6114  1.5274 -1.3537
  395MOL0     H53292   1.745   2.665   0.729  1.8828 -0.3596  0.3189
  395MOL0     H53293   1.829   2.624   0.933  1.2501 -0.6827  0.1394
  395MOL0     H53294   1.791   2.451   0.932 -2.3419  1.8532  1.8091
  395MOL0     H53295   1.974   2.594   0.724 -0.8020  2.1411  2.7467
  395MOL0     H53296   1.943   2.415   0.747  0.6893  0.1314 -0.7473
  395MOL0     H53297   2.160   2.488   0.821  0.2135  0.6946 -1.3343
  395MOL0     H53298   2.069   2.429   0.961  0.2248 -1.5429 -1.9183
  395MOL0     H53299   2.064   2.727   0.907  3.6580  0.9711 -2.0492
  395MOL0     H53300   2.040   2.635   1.057  0.7607  0.5920  0.8980
  395MOL0     H53301   2.292   2.640   0.886  0.7860  0.6544  0.7751
  395MOL0     H53302   2.283   2.572   1.053 -0.2802 -0.5647  0.6036
  395MOL0     H53303   2.240   2.788   1.149  1.1717  0.7299  1.2321
  395MOL0     H53304   2.391   2.801   1.045 -0.5556 -1.4064 -0.6236
  395MOL0     H53305   1.352   2.568   0.921 -0.2945  1.1078 -0.2591
  395MOL0     H53306   1.110   2.583   0.945 -0.3552 -1.6000  1.1855
  395MOL0     H53307   0.620   2.382   0.813 -1.8415 -0.6052 -3.1913
  395MOL0     H53308   0.396   2.440   0.790 -0.4052  0.0013 -0.4037
  395MOL0     H53309   1.352   2.598   1.247 -1.5378  1.6774  0.2019
  395MOL0     H53310   1.527   2.651   1.431  0.1908 -0.3107  0.8347
  395MOL0     H53311   1.801   2.780   1.648  0.3570 -2.1405 -1.7053
  395MOL0     H53312   1.952   2.875   1.806  0.0897 -0.0742 -0.1504
  395MOL0     H53313   1.878   2.864   2.190 -0.3365 -0.3136 -1.2020
  395MOL0     H53314   2.019   2.958   2.154  0.3097 -0.2908 -0.5090
  395MOL0     H53315   2.043   2.841   2.358 -1.5332 -2.0042  2.0596
  395MOL0     H53316   2.162   2.774   2.243  0.6296  0.7128  2.4998
  395MOL0     H53317   2.021   2.573   2.194  1.0356  2.2360 -1.5285
  395MOL0     H53318   1.922   2.606   2.344  1.8316  1.7684  3.8797
  395MOL0     H53319   2.088   2.459   2.391  1.0257  0.0332 -0.2900
  395MOL0     H53320   2.223   2.569   2.351 -0.6834 -3.6232 -1.6078
  395MOL0     H53321   2.095   2.700   2.739 -0.8451 -0.0911  0.4300
  395MOL0     H53322   1.810   2.618   2.109 -0.6211 -0.3804  0.5864
  395MOL0     H53323   1.543   2.528   2.045  2.4204  1.6681  1.9924
  395MOL0     H53324   1.581   2.412   1.910 -1.8381  0.5397  0.1502
  395MOL0     H53325   1.685   2.429   2.060 -1.8872 -0.9576 -0.0443
  396MOL0     O53326   9.644   2.452  10.109 -0.4310  0.5809  0.7676
  396MOL0     C53327   9.568   2.451  10.203  0.4410  0.4638  0.6308
  396MOL0     O53328   9.425   2.464  10.205 -0.2790  0.7656  0.2391
  396MOL0     C53329   9.354   2.464  10.082 -0.0097  0.1333  0.3403
  396MOL0     C53330   9.245   2.373  10.065 -0.4084  0.0188  0.8457
  396MOL0     C53331   9.166   2.382   9.947 -0.1622  0.0411  0.2275
  396MOL0     C53332   9.194   2.468   9.838  0.3768 -0.6658  0.8934
  396MOL0     O53333   9.114   2.461   9.726  0.3697  0.1195 -0.0048
  396MOL0     C53334   9.191   2.456   9.600 -0.1428  1.0283  0.3536
  396MOL0     C53335   9.099   2.393   9.486 -0.2431  1.2423 -0.5136
  396MOL0     C53336   9.097   2.233   9.472  0.0641 -0.2084 -0.3423
  396MOL0     C53337   9.032   2.186   9.338  0.5155  0.3143  0.0467
  396MOL0     C53338   8.874   2.209   9.349  0.1226  0.0742  0.5863
  396MOL0     C53339   8.798   2.115   9.261  0.3089  0.2565 -0.3023
  396MOL0     C53340   8.811   2.140   9.108 -0.4698  0.0555  0.0094
  396MOL0     C53341   8.779   2.282   9.070  0.4431  0.5327  0.1419
  396MOL0     N53342   8.761   2.313   8.927 -0.0485  0.5686  1.1230
  396MOL0     C53343   8.668   2.250   8.850 -0.1280  0.4457  0.8175
  396MOL0     C53344   8.667   2.316   8.727 -0.3230  0.3813 -0.5064
  396MOL0     C53345   8.580   2.278   8.609  0.8814  0.3570  0.1196
  396MOL0     C53346   8.536   2.132   8.596 -0.0760 -0.0987  0.6558
  396MOL0     C53347   8.446   2.108   8.475  0.4532  0.1244  0.2334
  396MOL0     C53348   8.318   2.198   8.473 -0.4561 -0.0517  0.2932
  396MOL0     O53349   8.331   2.315   8.388 -0.1217 -0.0004  0.6264
  396MOL0     C53350   8.354   2.297   8.252 -1.0143  0.3006 -0.0992
  396MOL0     C53351   8.475   2.348   8.203  0.4124  0.3099  0.1121
  396MOL0     C53352   8.502   2.344   8.067  0.4300 -0.3872  0.5154
  396MOL0     C53353   8.405   2.287   7.981 -0.4428 -0.0197 -0.4692
  396MOL0     C53354   8.417   2.282   7.835 -0.5196 -0.5553  0.9797
  396MOL0     O53355   8.302   2.260   7.764 -0.3226  0.5435 -0.4767
  396MOL0     C53356   8.294   2.267   7.625 -0.3557 -0.0195 -0.1755
  396MOL0     C53357   8.355   2.165   7.553  0.8416  0.0525 -0.1449
  396MOL0     C53358   8.343   2.172   7.418 -0.0185  0.9477  0.5504
  396MOL0     C53359   8.275   2.262   7.345  0.7262 -0.2448 -0.0797
  396MOL0     O53360   8.255   2.240   7.218 -0.1901  0.4765 -0.2690
  396MOL0     C53361   8.135   2.167   7.200  0.0279  0.1754 -0.3191
  396MOL0     C53362   8.028   2.225   7.113  0.6650 -0.3634 -0.7453
  396MOL0     C53363   7.965   2.356   7.146 -0.4315  0.3887 -0.8159
  396MOL0     C53364   7.891   2.362   7.282 -0.2193  1.3520  0.4259
  396MOL0     C53365   7.775   2.264   7.277 -0.3752 -0.1796  0.2126
  396MOL0     C53366   7.655   2.281   7.383 -0.1996 -1.1695  0.7852
  396MOL0     C53367   7.525   2.211   7.348  0.7253  0.4795  0.9172
  396MOL0     C53368   7.540   2.061   7.323 -0.6552  0.3954  1.1521
  396MOL0    Cl53369   7.375   2.002   7.290 -0.0830  0.5434  0.2917
  396MOL0     C53370   8.218   2.373   7.424 -0.4506  0.5708  0.3523
  396MOL0     C53371   8.230   2.378   7.559  0.3416  0.1591 -0.7703
  396MOL0     O53372   8.531   2.307   7.784  0.1804  0.1809 -0.8542
  396MOL0     C53373   8.285   2.230   8.030  0.0726 -0.1451 -0.0404
  396MOL0     C53374   8.259   2.234   8.173  0.0421  0.3496 -0.2646
  396MOL0     N53375   8.774   2.411   8.737 -0.2868  0.3970  0.2851
  396MOL0     N53376   8.830   2.396   8.849 -0.9286  0.6390  0.0783
  396MOL0     C53377   9.299   2.562   9.858  0.5539  0.3432 -0.2689
  396MOL0     C53378   9.376   2.557   9.980 -0.7100 -0.1472  0.3889
  396MOL0     C53379   9.630   2.457  10.341  0.2289 -0.0399  0.5460
  396MOL0     C53380   9.561   2.539  10.434 -0.2701  0.0531  0.1277
  396MOL0     C53381   9.607   2.549  10.560  0.1234 -0.3556 -0.5536
  396MOL0     C53382   9.721   2.487  10.603 -0.1646 -0.5579  1.2992
  396MOL0     O53383   9.753   2.505  10.731  0.1112 -0.7575 -0.0668
  396MOL0     C53384   9.848   2.418  10.790  0.0890 -1.5760  0.2535
  396MOL0     C53385   9.848   2.469  10.932  0.3371 -0.5392 -0.1783
  396MOL0     C53386   9.710   2.447  10.997 -0.0138  0.8301 -1.1215
  396MOL0     C53387   9.720   2.490  11.142 -0.3346 -0.1096  0.3789
  396MOL0     C53388   9.592   2.454  11.218 -0.2505  0.7167 -0.3193
  396MOL0     C53389   9.488   2.435  11.278 -0.1113 -0.0704  0.5744
  396MOL0     C53390   9.788   2.406  10.509 -0.0440 -0.9827 -0.4548
  396MOL0     C53391   9.737   2.390  10.381 -2.1131  0.1622  0.4820
  396MOL0     C53392   9.816   2.296  10.292 -0.7618  0.2117  0.2928
  396MOL0     H53393   9.230   2.313  10.155 -0.6749  0.2316  0.9440
  396MOL0     H53394   9.079   2.320   9.925 -0.2028  0.2916 -0.3264
  396MOL0     H53395   9.214   2.558   9.566 -3.6219  2.2954  1.4223
  396MOL0     H53396   9.290   2.411   9.613  0.8616  3.1823  0.6718
  396MOL0     H53397   9.133   2.434   9.390 -0.4933  0.3999 -0.9775
  396MOL0     H53398   8.997   2.428   9.502 -0.4357  0.6655 -0.4449
  396MOL0     H53399   9.033   2.195   9.553 -0.6939  3.4357  0.9648
  396MOL0     H53400   9.200   2.200   9.485  0.5106  0.9861 -0.7928
  396MOL0     H53401   9.080   2.250   9.263  0.5475  1.0757  0.6987
  396MOL0     H53402   9.062   2.083   9.316 -1.4391 -0.7417  1.9523
  396MOL0     H53403   8.834   2.196   9.450  0.8481  2.8292  1.3239
  396MOL0     H53404   8.839   2.310   9.326 -0.3581 -0.8162 -3.3863
  396MOL0     H53405   8.825   2.013   9.288 -1.2417 -0.4119 -1.1507
  396MOL0     H53406   8.690   2.122   9.279  0.2568 -0.4955 -0.2807
  396MOL0     H53407   8.740   2.072   9.061  1.3064 -1.3149 -0.8093
  396MOL0     H53408   8.916   2.115   9.086  0.5799  1.3205  3.0393
  396MOL0     H53409   8.683   2.308   9.117  1.4351 -0.4970  2.9787
  396MOL0     H53410   8.850   2.355   9.110 -1.2861  3.0663 -1.0749
  396MOL0     H53411   8.602   2.167   8.872  1.3333 -0.6833  1.1607
  396MOL0     H53412   8.499   2.351   8.604 -0.4775 -0.9675  1.4891
  396MOL0     H53413   8.647   2.312   8.529 -0.4799  3.3088  0.1071
  396MOL0     H53414   8.626   2.071   8.580  0.6647  1.6834 -3.0372
  396MOL0     H53415   8.495   2.102   8.693  0.6467 -0.1291  0.9685
  396MOL0     H53416   8.407   2.006   8.468 -2.1336  1.1184 -0.8426
  396MOL0     H53417   8.510   2.125   8.388  2.5958  2.1997  2.0714
  396MOL0     H53418   8.302   2.241   8.572 -0.8701  3.7120 -1.2530
  396MOL0     H53419   8.234   2.133   8.445  0.8463 -1.8148  0.2550
  396MOL0     H53420   8.543   2.389   8.276  2.0318 -1.7857 -0.1073
  396MOL0     H53421   8.593   2.389   8.029  1.9522 -4.0349 -0.4922
  396MOL0     H53422   8.385   2.077   7.609  1.7683 -1.2323 -2.5574
  396MOL0     H53423   8.393   2.089   7.369  1.6056  1.8116  0.6405
  396MOL0     H53424   8.173   2.075   7.156  1.9268  0.6397  0.2251
  396MOL0     H53425   8.075   2.150   7.290 -0.7675 -1.6933 -1.1514
  396MOL0     H53426   8.075   2.220   7.014 -0.6505 -2.9422 -1.3302
  396MOL0     H53427   7.949   2.150   7.107 -1.1886  1.5778 -2.4078
  396MOL0     H53428   8.036   2.439   7.147  0.9997 -0.6529 -3.6343
  396MOL0     H53429   7.894   2.377   7.064 -1.4623 -0.9359 -0.2985
  396MOL0     H53430   7.851   2.455   7.324 -2.4850 -0.0950  1.6664
  396MOL0     H53431   7.963   2.334   7.359  0.3827 -1.5483 -1.0549
  396MOL0     H53432   7.816   2.164   7.285  1.5695  0.3239 -2.2679
  396MOL0     H53433   7.731   2.273   7.177 -3.2478  1.8420  1.4952
  396MOL0     H53434   7.687   2.244   7.481 -0.2820 -1.0821  0.8460
  396MOL0     H53435   7.633   2.388   7.394 -0.7350 -1.4778  3.3748
  396MOL0     H53436   7.489   2.255   7.255  1.9685 -3.0955 -1.4998
  396MOL0     H53437   7.450   2.219   7.427  1.2075  1.1051  1.3138
  396MOL0     H53438   7.615   2.055   7.244 -0.1945  5.3363  0.9344
  396MOL0     H53439   7.583   2.000   7.404 -1.4562 -5.4575 -2.2068
  396MOL0     H53440   8.152   2.428   7.358 -2.3080 -2.1020 -0.2152
  396MOL0     H53441   8.180   2.457   7.613  2.3042  3.3766 -3.3409
  396MOL0     H53442   8.216   2.183   7.961  0.1015 -0.8832  0.4250
  396MOL0     H53443   8.173   2.186   8.219  0.5303 -1.0874 -0.8000
  396MOL0     H53444   9.324   2.646   9.793 -1.6234 -0.2058 -1.9307
  396MOL0     H53445   9.459   2.626   9.992 -1.8970  0.9317  3.3490
  396MOL0     H53446   9.465   2.576  10.399 -1.7177 -0.6461  3.0483
  396MOL0     H53447   9.545   2.607  10.627 -0.9388 -1.7187 -0.3268
  396MOL0     H53448   9.950   2.427  10.750 -0.7247 -1.0398 -1.8394
  396MOL0     H53449   9.817   2.313  10.788  0.0005 -1.5477 -0.9491
  396MOL0     H53450   9.880   2.573  10.927 -1.2788  0.0937  1.8072
  396MOL0     H53451   9.928   2.418  10.987 -1.0729  0.0892  2.6312
  396MOL0     H53452   9.668   2.346  10.991 -1.4723  0.8004  4.2082
  396MOL0     H53453   9.648   2.521  10.946  2.2385  2.0635 -2.2399
  396MOL0     H53454   9.810   2.452  11.192  0.1000  2.0690  1.3450
  396MOL0     H53455   9.732   2.598  11.154 -0.4077 -0.2600  2.1504
  396MOL0     H53456   9.399   2.415  11.335  1.7766  1.2540  4.2727
  396MOL0     H53457   9.881   2.354  10.529  0.4360  0.4168  1.1298
  396MOL0     H53458   9.865   2.356  10.214 -0.9539 -0.4576 -0.3552
  396MOL0     H53459   9.889   2.237  10.347 -2.2431 -0.6682  1.3859
  396MOL0     H53460   9.749   2.221  10.250  3.0530 -1.5647 -3.3667
  397MOL0     O53461   4.694  11.037  11.468 -0.2337  0.4427 -0.3187
  397MOL0     C53462   4.679  11.117  11.565  0.0490 -0.4796  0.1058
  397MOL0     O53463   4.770  11.137  11.659 -0.1510  0.0488  0.7347
  397MOL0     C53464   4.878  11.040  11.680 -0.0991 -0.1713  0.3800
  397MOL0     C53465   4.875  10.900  11.645 -0.7904  0.1919 -0.3280
  397MOL0     C53466   4.976  10.815  11.692 -0.9998  0.4234  0.5336
  397MOL0     C53467   5.091  10.859  11.758 -0.3439 -0.0042  0.1429
  397MOL0     O53468   5.176  10.772  11.801 -0.6424 -0.3480 -0.7388
  397MOL0     C53469   5.144  10.657  11.882 -0.6145  0.1784  0.3301
  397MOL0     C53470   5.266  10.566  11.890  0.5197  0.1778 -0.0486
  397MOL0     C53471   5.243  10.435  11.969 -0.6117 -0.7020 -0.8400
  397MOL0     C53472   5.161  10.450  12.098 -0.2132  0.3282  0.1501
  397MOL0     C53473   5.118  10.305  12.149  0.0387 -0.8037 -0.4917
  397MOL0     C53474   4.993  10.306  12.223  0.4040  0.0651 -0.4131
  397MOL0     C53475   4.870  10.317  12.125  0.1064 -0.0744 -0.1209
  397MOL0     C53476   4.737  10.309  12.208  0.3607  0.8041 -0.1367
  397MOL0     N53477   4.613  10.319  12.135  0.4602  0.0840  0.5900
  397MOL0     C53478   4.588  10.244  12.020 -0.0250  1.0192 -0.5255
  397MOL0     C53479   4.467  10.273  11.978  0.3431 -0.7887  0.2719
  397MOL0     C53480   4.388  10.224  11.860  0.5107  0.5961  0.3682
  397MOL0     C53481   4.320  10.085  11.885 -0.1111  0.0684 -0.3103
  397MOL0     C53482   4.238  10.078  12.012  0.1306 -1.0856  0.0379
  397MOL0     C53483   4.116  10.179  12.002 -0.4275  0.5887 -0.8772
  397MOL0     O53484   4.036  10.130  11.894 -0.2325 -0.4176  0.0349
  397MOL0     C53485   3.905  10.086  11.923 -0.6075  0.5350  0.6016
  397MOL0     C53486   3.806  10.185  11.922  0.4029 -0.3062 -0.3023
  397MOL0     C53487   3.677  10.148  11.945  0.5261 -0.4837  0.3296
  397MOL0     C53488   3.651  10.010  11.968  0.3795 -0.7081  0.0889
  397MOL0     C53489   3.519   9.965  11.989  0.1292  0.2228 -0.7405
  397MOL0     O53490   3.428  10.059  12.032  0.3127  0.3118  0.6691
  397MOL0     C53491   3.299  10.011  12.030  0.6806 -0.5310 -1.4060
  397MOL0     C53492   3.227  10.004  11.918  0.2624 -0.3789 -0.0013
  397MOL0     C53493   3.102   9.949  11.916  0.2048 -1.0260  0.7843
  397MOL0     C53494   3.041   9.904  12.036 -0.2257  0.0363  0.0567
  397MOL0     O53495   2.908   9.867  12.060  0.1881 -0.1655 -0.2652
  397MOL0     C53496   2.804   9.854  11.957 -0.7592 -0.9901  0.6765
  397MOL0     C53497   2.669   9.846  12.007 -0.7453 -0.1404 -0.1705
  397MOL0     C53498   2.567   9.849  11.892 -0.6408  0.0778  0.3114
  397MOL0     C53499   2.433   9.806  11.954  0.5161 -0.0385  0.0059
  397MOL0     C53500   2.316   9.787  11.852 -0.7152  0.0462  0.0078
  397MOL0     C53501   2.172   9.801  11.920 -0.6760  0.7957 -0.2805
  397MOL0     C53502   2.055   9.811  11.826  0.4508  0.6398 -0.0016
  397MOL0     C53503   2.049   9.689  11.743 -0.4741  0.1028 -0.2522
  397MOL0    Cl53504   1.894   9.695  11.667 -0.3477  0.0063 -0.0173
  397MOL0     C53505   3.112   9.915  12.159  0.6462  0.0432  0.5492
  397MOL0     C53506   3.237   9.972  12.159  0.3506 -0.9776  0.0420
  397MOL0     O53507   3.488   9.848  11.959  0.2247 -0.0375 -0.1543
  397MOL0     C53508   3.751   9.916  11.967 -0.1171 -0.2664 -0.1107
  397MOL0     C53509   3.883   9.955  11.938 -0.5686 -0.4746 -0.2542
  397MOL0     N53510   4.412  10.362  12.068 -0.1658 -0.4287 -0.0321
  397MOL0     N53511   4.500  10.398  12.159 -0.2094 -0.3492 -0.4314
  397MOL0     C53512   5.101  11.002  11.776 -1.0869 -0.5403 -0.1346
  397MOL0     C53513   4.998  11.091  11.741  0.6412 -0.1846  0.4130
  397MOL0     C53514   4.557  11.198  11.581 -0.0341 -0.6383  1.1281
  397MOL0     C53515   4.490  11.242  11.470 -0.4688 -0.4674 -0.5914
  397MOL0     C53516   4.381  11.321  11.479 -0.0031  0.1246 -0.2740
  397MOL0     C53517   4.314  11.344  11.595  0.2555  0.1773 -0.3158
  397MOL0     O53518   4.201  11.418  11.594  0.5940  0.8075  0.7261
  397MOL0     C53519   4.160  11.497  11.705  0.5866  0.7134 -0.7258
  397MOL0     C53520   4.028  11.445  11.771  0.0080 -0.3600 -0.6771
  397MOL0     C53521   3.912  11.464  11.675  0.0361 -0.2214  0.1587
  397MOL0     C53522   3.775  11.429  11.727  0.4711  0.1907  0.4519
  397MOL0     C53523   3.671  11.474  11.633 -0.4091 -0.6014 -0.6973
  397MOL0     C53524   3.585  11.503  11.552 -0.0361  0.7933  0.1213
  397MOL0     C53525   4.375  11.294  11.717  0.3231  0.5559 -0.9399
  397MOL0     C53526   4.492  11.216  11.707  0.8934 -0.4423 -0.5742
  397MOL0     C53527   4.543  11.140  11.832 -0.1740 -0.2428  0.7134
  397MOL0     H53528   4.792  10.847  11.600  0.7371 -4.6692  1.9272
  397MOL0     H53529   4.981  10.709  11.667  1.3631  0.9504 -1.6654
  397MOL0     H53530   5.114  10.696  11.980  1.4428 -2.9043  2.3637
  397MOL0     H53531   5.057  10.601  11.848  0.5600 -0.3682 -2.0101
  397MOL0     H53532   5.350  10.621  11.934  0.9423  1.0939 -1.8948
  397MOL0     H53533   5.289  10.541  11.786 -0.2718 -0.2516 -0.1217
  397MOL0     H53534   5.337  10.397  12.010  1.0495  0.0124 -3.7277
  397MOL0     H53535   5.187  10.359  11.913 -0.8977 -1.5595  0.5589
  397MOL0     H53536   5.224  10.504  12.169  1.5714 -0.3206 -0.9004
  397MOL0     H53537   5.067  10.505  12.080  0.1449  0.2019 -2.4404
  397MOL0     H53538   5.106  10.229  12.071  1.0637 -1.3200 -0.1583
  397MOL0     H53539   5.203  10.279  12.213 -1.0555  0.7577  1.7545
  397MOL0     H53540   4.999  10.216  12.286  0.1952  1.1878  1.2803
  397MOL0     H53541   4.995  10.394  12.288 -0.9031  0.3746 -0.7800
  397MOL0     H53542   4.867  10.227  12.063 -2.6072 -0.9134  1.0352
  397MOL0     H53543   4.862  10.409  12.066  0.4293 -0.8808 -1.4340
  397MOL0     H53544   4.727  10.220  12.270  1.5701  1.3921  0.9572
  397MOL0     H53545   4.735  10.387  12.285  1.3031  1.4678 -0.7519
  397MOL0     H53546   4.655  10.170  11.979  0.0557  1.0234 -0.4019
  397MOL0     H53547   4.308  10.295  11.836  1.1892  1.7548  1.4195
  397MOL0     H53548   4.459  10.227  11.777 -0.3167 -0.5089 -0.4241
  397MOL0     H53549   4.255  10.070  11.798  1.9054  2.0893 -2.3058
  397MOL0     H53550   4.383   9.995  11.885  0.2716  0.3316 -0.5588
  397MOL0     H53551   4.305  10.096  12.096 -0.4452  0.2507  0.2394
  397MOL0     H53552   4.202   9.977  12.035 -0.6334 -0.7008  0.5613
  397MOL0     H53553   4.166  10.277  11.997  2.7093 -0.6112  2.3598
  397MOL0     H53554   4.058  10.168  12.094  0.5112 -1.3760 -0.4729
  397MOL0     H53555   3.833  10.288  11.903 -0.4286 -0.5033 -3.1038
  397MOL0     H53556   3.602  10.226  11.945 -0.6195 -1.5524 -0.2473
  397MOL0     H53557   3.269  10.048  11.827  0.3831 -0.0456  0.2154
  397MOL0     H53558   3.037   9.936  11.830  2.7419 -1.4169 -1.1992
  397MOL0     H53559   2.814   9.936  11.884  1.2614 -5.4731 -4.8222
  397MOL0     H53560   2.829   9.770  11.892 -2.0156  1.8412 -3.9540
  397MOL0     H53561   2.661   9.747  12.053  1.5838 -1.6508 -2.7518
  397MOL0     H53562   2.660   9.923  12.085 -0.2933 -0.8602  0.6037
  397MOL0     H53563   2.557   9.949  11.847 -4.1251 -0.3052 -0.0763
  397MOL0     H53564   2.593   9.779  11.812 -2.8058  0.4946 -0.8564
  397MOL0     H53565   2.403   9.893  12.014 -0.9640 -1.7816  1.9461
  397MOL0     H53566   2.442   9.720  12.021 -0.7441  0.6253  1.0653
  397MOL0     H53567   2.330   9.689  11.805  2.5010  1.5706 -2.7024
  397MOL0     H53568   2.321   9.862  11.772 -1.1039  3.4077  2.8561
  397MOL0     H53569   2.154   9.716  11.986 -1.6624 -0.6094 -2.2336
  397MOL0     H53570   2.168   9.886  11.987 -0.4342 -1.6797  3.1386
  397MOL0     H53571   2.054   9.903  11.768  1.7617 -1.0561 -2.9022
  397MOL0     H53572   1.969   9.803  11.894 -0.4615 -0.0529 -1.2024
  397MOL0     H53573   2.131   9.691  11.670 -0.7953 -2.2986 -0.7705
  397MOL0     H53574   2.051   9.596  11.800  0.5889 -0.2678 -0.8564
  397MOL0     H53575   3.060   9.887  12.250  1.9666 -0.0385  1.2920
  397MOL0     H53576   3.299   9.968  12.247 -2.0482 -2.1330  1.8038
  397MOL0     H53577   3.731   9.815  11.999 -0.7429 -0.2660 -0.4957
  397MOL0     H53578   3.954   9.874  11.929 -0.6983 -0.5174 -0.9645
  397MOL0     H53579   5.199  11.034  11.812 -1.4585 -0.6992  1.0930
  397MOL0     H53580   5.012  11.197  11.760 -0.4260  0.5418 -2.3196
  397MOL0     H53581   4.548  11.216  11.381  4.1178  1.3609  1.5403
  397MOL0     H53582   4.350  11.357  11.381  2.2210 -1.3202 -1.5852
  397MOL0     H53583   4.138  11.599  11.673 -1.0488  0.9345  0.9099
  397MOL0     H53584   4.237  11.495  11.783 -0.2328 -1.4165  0.1026
  397MOL0     H53585   4.011  11.508  11.859 -0.8641  0.7184 -1.5877
  397MOL0     H53586   4.050  11.348  11.815  2.7764  0.8576  0.9273
  397MOL0     H53587   3.931  11.381  11.606  0.5677 -2.3828  2.7306
  397MOL0     H53588   3.919  11.569  11.645  0.8042  0.7091  3.2257
  397MOL0     H53589   3.772  11.321  11.744  1.9032  0.5870  4.1431
  397MOL0     H53590   3.772  11.471  11.827  0.2543  0.2371  0.4260
  397MOL0     H53591   3.503  11.515  11.484  2.4512 -0.6349 -3.3595
  397MOL0     H53592   4.314  11.311  11.805 -0.1489  3.3664 -1.7038
  397MOL0     H53593   4.585  11.040  11.821 -1.6412 -1.0248  1.8675
  397MOL0     H53594   4.622  11.205  11.872 -2.0408  1.4336  1.9279
  397MOL0     H53595   4.462  11.132  11.905  0.6318  0.7150  1.7709
  398MOL0     O53596   2.389   8.203   5.811  0.1394  0.4130  0.3041
  398MOL0     C53597   2.464   8.267   5.887 -0.0256 -0.3828  0.6276
  398MOL0     O53598   2.471   8.406   5.902  0.1462  0.5190  0.3773
  398MOL0     C53599   2.389   8.487   5.829  0.5656 -0.5929  0.8265
  398MOL0     C53600   2.441   8.549   5.716  0.6467  0.1573  0.3665
  398MOL0     C53601   2.353   8.639   5.651  0.2254  0.8060  0.6683
  398MOL0     C53602   2.220   8.666   5.696  0.3363 -0.3010 -0.5139
  398MOL0     O53603   2.133   8.735   5.630  0.1131 -0.3871 -1.2402
  398MOL0     C53604   2.169   8.858   5.586 -0.1975 -0.9282 -0.6278
  398MOL0     C53605   2.108   8.968   5.680 -0.2781 -0.4296 -0.0358
  398MOL0     C53606   2.147   8.937   5.825  0.8660  0.3364  0.1444
  398MOL0     C53607   2.117   9.043   5.925  0.5047 -0.3386 -1.4501
  398MOL0     C53608   2.124   8.987   6.073 -0.3485 -0.2407  0.5945
  398MOL0     C53609   2.259   8.929   6.110  0.0251 -0.8185 -0.4526
  398MOL0     C53610   2.258   8.863   6.250 -0.2092  0.4887  0.3234
  398MOL0     C53611   2.246   8.712   6.246  0.5017 -0.3575  1.3048
  398MOL0     N53612   2.289   8.647   6.374  0.8273 -0.3080 -0.4587
  398MOL0     C53613   2.405   8.598   6.400  0.0108 -0.1273 -0.6102
  398MOL0     C53614   2.407   8.546   6.526 -0.4444 -0.9215  0.5822
  398MOL0     C53615   2.514   8.459   6.602  0.1660 -0.0495 -0.6333
  398MOL0     C53616   2.473   8.316   6.603  0.0799 -0.0876 -0.5582
  398MOL0     C53617   2.536   8.213   6.710 -0.7774 -0.3108  0.8306
  398MOL0     C53618   2.690   8.218   6.686 -0.1293  0.0874  1.1470
  398MOL0     O53619   2.747   8.096   6.736  0.5846 -1.0209 -0.1710
  398MOL0     C53620   2.746   7.980   6.665  0.4471 -0.0956  0.7078
  398MOL0     C53621   2.812   7.873   6.728 -0.2455 -0.2634 -0.2244
  398MOL0     C53622   2.808   7.741   6.665  1.0909  0.4436 -0.1553
  398MOL0     C53623   2.740   7.710   6.555  0.2570  0.7157  0.4282
  398MOL0     C53624   2.738   7.571   6.512  0.9066 -0.3216  0.0504
  398MOL0     O53625   2.791   7.474   6.584  0.6866  0.4152  0.2159
  398MOL0     C53626   2.834   7.359   6.523 -0.3809 -0.1697 -0.3306
  398MOL0     C53627   2.961   7.349   6.464  0.6419  0.5543  0.4785
  398MOL0     C53628   3.010   7.245   6.389  0.6335  0.9017  0.5818
  398MOL0     C53629   2.920   7.133   6.380  0.0907  0.3289 -0.4447
  398MOL0     O53630   2.966   7.028   6.307  1.0672  0.7411  0.0180
  398MOL0     C53631   2.995   6.909   6.377  0.1869 -0.2892 -0.2338
  398MOL0     C53632   3.122   6.850   6.311 -0.0213 -1.2921  0.2522
  398MOL0     C53633   3.103   6.808   6.161 -1.3415 -0.0477  0.4636
  398MOL0     C53634   3.025   6.671   6.157  0.4559 -0.7378  0.2683
  398MOL0     C53635   3.033   6.603   6.018 -0.4639  0.1893  1.2661
  398MOL0     C53636   2.985   6.686   5.907  0.0789  0.8016  0.2223
  398MOL0     C53637   3.003   6.606   5.771  1.0071 -0.1938 -0.2472
  398MOL0     C53638   2.967   6.705   5.659 -0.1691  0.7676 -0.4762
  398MOL0    Cl53639   2.994   6.639   5.487 -0.7992  0.0306 -0.1183
  398MOL0     C53640   2.787   7.141   6.423  0.2848 -0.2115  0.0472
  398MOL0     C53641   2.748   7.252   6.494 -0.2372 -1.0095  0.6522
  398MOL0     O53642   2.689   7.550   6.401  0.3940  0.1996 -0.1796
  398MOL0     C53643   2.669   7.818   6.498 -0.1852  0.2497 -0.6636
  398MOL0     C53644   2.671   7.946   6.545  0.0427 -0.7530 -0.2235
  398MOL0     N53645   2.275   8.569   6.567  0.0363 -1.2405  1.5004
  398MOL0     N53646   2.204   8.622   6.481 -0.3509 -0.4931 -0.3076
  398MOL0     C53647   2.187   8.607   5.820  0.9328  0.5030 -0.3256
  398MOL0     C53648   2.262   8.516   5.888 -0.3726 -0.9271  0.2254
  398MOL0     C53649   2.548   8.186   5.978  0.5083 -0.2711 -0.5853
  398MOL0     C53650   2.683   8.152   5.941  0.9058  0.1912 -0.2187
  398MOL0     C53651   2.775   8.108   6.035 -0.3132  0.2762 -0.1051
  398MOL0     C53652   2.729   8.085   6.164 -0.0501  0.9006  0.0431
  398MOL0     O53653   2.803   8.017   6.265 -0.9663 -0.8037 -0.4113
  398MOL0     C53654   2.947   8.015   6.265 -0.6016 -0.2387  0.0878
  398MOL0     C53655   3.017   8.147   6.302  0.0286  0.3451  0.7166
  398MOL0     C53656   2.984   8.207   6.435  0.1947  0.0139 -0.4973
  398MOL0     C53657   3.111   8.273   6.494  0.7955 -0.0819 -0.1264
  398MOL0     C53658   3.071   8.339   6.616 -0.0922 -0.3062  0.5704
  398MOL0     C53659   3.043   8.403   6.716  0.6293 -0.4271  0.2025
  398MOL0     C53660   2.584   8.098   6.194 -1.0283 -0.5042 -0.0659
  398MOL0     C53661   2.502   8.159   6.107  0.9037 -0.0582 -0.1339
  398MOL0     C53662   2.354   8.188   6.149 -0.3664  0.6731 -1.0373
  398MOL0     H53663   2.534   8.540   5.661 -0.8355 -0.4180 -2.2868
  398MOL0     H53664   2.396   8.690   5.565 -0.4915  1.6838  0.8190
  398MOL0     H53665   2.276   8.877   5.573  0.8728 -3.9172  2.5502
  398MOL0     H53666   2.115   8.881   5.494  1.4883 -1.6658 -1.8356
  398MOL0     H53667   1.998   8.963   5.674 -0.1477 -2.9514 -2.0525
  398MOL0     H53668   2.130   9.071   5.650  0.4291 -1.5985 -4.2070
  398MOL0     H53669   2.249   8.902   5.841  0.6227  0.9313  3.5775
  398MOL0     H53670   2.091   8.847   5.852  0.7117 -0.0876 -1.4395
  398MOL0     H53671   2.200   9.112   5.906 -0.0428  0.0965 -2.3181
  398MOL0     H53672   2.017   9.088   5.915 -0.9403 -2.1283  2.7050
  398MOL0     H53673   2.099   9.061   6.149 -1.0892 -2.9900  3.2419
  398MOL0     H53674   2.047   8.910   6.087  0.3164 -1.2438 -0.9859
  398MOL0     H53675   2.291   8.853   6.038  1.2853 -0.5313 -0.2143
  398MOL0     H53676   2.334   9.009   6.106 -2.2247  1.4020 -3.4359
  398MOL0     H53677   2.173   8.900   6.308  1.6179  1.2189  2.6905
  398MOL0     H53678   2.354   8.876   6.301  0.9672 -0.7244 -1.4536
  398MOL0     H53679   2.144   8.680   6.225 -0.2125 -0.0628  4.0087
  398MOL0     H53680   2.318   8.674   6.173 -0.4115 -0.5445  0.4800
  398MOL0     H53681   2.488   8.606   6.330  1.5688 -1.1187  1.0396
  398MOL0     H53682   2.610   8.484   6.555 -0.2323  1.1779 -0.8152
  398MOL0     H53683   2.527   8.500   6.702  0.4392 -1.3974 -0.0923
  398MOL0     H53684   2.366   8.317   6.628  0.2494  1.9676  0.3087
  398MOL0     H53685   2.489   8.279   6.501 -0.9117 -0.2286 -0.6816
  398MOL0     H53686   2.494   8.113   6.695  1.0131 -1.1971  1.4016
  398MOL0     H53687   2.512   8.241   6.813 -1.1072 -2.0097  1.2492
  398MOL0     H53688   2.734   8.305   6.736  0.1212  1.9071 -1.9871
  398MOL0     H53689   2.711   8.225   6.579 -1.9189 -3.6359  0.3798
  398MOL0     H53690   2.878   7.894   6.811  0.1361 -1.6320 -0.1595
  398MOL0     H53691   2.875   7.663   6.700 -0.8767 -1.0815  0.3988
  398MOL0     H53692   3.020   7.440   6.459  2.4984 -0.6096  0.4984
  398MOL0     H53693   3.109   7.238   6.346 -0.5287  0.2235 -2.1678
  398MOL0     H53694   3.024   6.936   6.479  1.5807 -0.1593 -0.6388
  398MOL0     H53695   2.914   6.836   6.375 -0.5962  0.5758 -1.7987
  398MOL0     H53696   3.213   6.910   6.321 -2.0944  1.8523  1.5742
  398MOL0     H53697   3.132   6.752   6.360 -3.2079 -1.9862 -0.2829
  398MOL0     H53698   3.065   6.888   6.098  2.7443  4.0772  2.6330
  398MOL0     H53699   3.202   6.787   6.118  0.4393  3.5063  2.3944
  398MOL0     H53700   2.922   6.695   6.187 -0.2650 -2.0315 -1.0045
  398MOL0     H53701   3.065   6.603   6.232 -0.1125 -0.3849  0.9028
  398MOL0     H53702   2.962   6.520   6.029 -2.9919  1.9366 -0.6459
  398MOL0     H53703   3.133   6.568   5.993  0.1619  0.9730  2.5680
  398MOL0     H53704   2.882   6.720   5.919 -0.3935 -1.2426  3.1696
  398MOL0     H53705   3.056   6.769   5.898  1.1241 -0.2828 -3.2892
  398MOL0     H53706   2.932   6.524   5.761  1.2710 -0.2153 -2.3700
  398MOL0     H53707   3.103   6.561   5.763  0.5555 -1.1938 -0.4422
  398MOL0     H53708   2.862   6.736   5.660 -0.6641 -0.7953  0.4016
  398MOL0     H53709   3.038   6.786   5.674  1.2271 -0.1519 -1.8681
  398MOL0     H53710   2.716   7.060   6.410 -0.4457  0.6054 -1.3346
  398MOL0     H53711   2.649   7.264   6.536  0.0578 -0.6213  1.2631
  398MOL0     H53712   2.617   7.784   6.409  2.5540 -4.4338 -0.7937
  398MOL0     H53713   2.606   8.021   6.501 -0.8251  1.9039  4.8261
  398MOL0     H53714   2.084   8.607   5.854  1.5596  0.4772  1.6770
  398MOL0     H53715   2.235   8.463   5.979 -1.3207  0.7601  0.9707
  398MOL0     H53716   2.695   8.154   5.833 -3.5092 -1.1831 -0.9541
  398MOL0     H53717   2.867   8.078   5.986  1.3075  4.7023 -0.3235
  398MOL0     H53718   2.974   7.976   6.166 -2.3434  0.3694 -0.6617
  398MOL0     H53719   2.961   7.940   6.344 -0.0001 -0.9620 -0.6749
  398MOL0     H53720   2.997   8.223   6.226 -0.8076 -0.2452  0.3288
  398MOL0     H53721   3.124   8.124   6.296  0.7733  3.6499 -1.1494
  398MOL0     H53722   2.942   8.135   6.506 -2.6741  3.8829  2.1543
  398MOL0     H53723   2.908   8.285   6.429 -1.1413 -1.0678  1.2695
  398MOL0     H53724   3.184   8.194   6.513  0.2686 -0.2644  1.2637
  398MOL0     H53725   3.157   8.345   6.425  4.0331 -1.5783  0.3146
  398MOL0     H53726   3.013   8.465   6.798  3.5705  0.6731  0.5702
  398MOL0     H53727   2.558   8.073   6.296  0.3899  1.7060  0.9155
  398MOL0     H53728   2.339   8.296   6.154  1.3583  0.9187 -0.2174
  398MOL0     H53729   2.282   8.141   6.082  0.7166  0.0211 -1.7818
  398MOL0     H53730   2.350   8.147   6.250  2.1235  1.0997 -0.7036
  399MOL0     O53731   6.270   5.159   5.579 -0.3686 -0.5652 -0.4023
  399MOL0     C53732   6.259   5.179   5.698 -0.9235 -0.1484  0.6248
  399MOL0     O53733   6.343   5.246   5.779  0.0669  0.5397 -0.2602
  399MOL0     C53734   6.449   5.313   5.735 -0.3428 -0.1312  0.6318
  399MOL0     C53735   6.536   5.267   5.628 -1.1623  0.0325  0.4867
  399MOL0     C53736   6.659   5.335   5.605  0.4959  0.4047  0.5135
  399MOL0     C53737   6.685   5.456   5.670  0.9801 -0.2729 -0.0448
  399MOL0     O53738   6.804   5.516   5.647  0.2185 -0.1449 -0.6012
  399MOL0     C53739   6.921   5.435   5.688 -0.2802  0.0242  0.5119
  399MOL0     C53740   7.050   5.505   5.639 -0.3519 -0.9161 -0.8609
  399MOL0     C53741   7.095   5.630   5.719 -0.5734 -1.0505 -0.2378
  399MOL0     C53742   7.176   5.728   5.636  0.6139  0.0713 -0.4017
  399MOL0     C53743   7.330   5.722   5.646  0.0043 -0.3469 -0.4812
  399MOL0     C53744   7.375   5.843   5.578  0.3874 -0.3378 -0.0779
  399MOL0     C53745   7.526   5.858   5.587 -1.2448 -0.7666 -0.5919
  399MOL0     C53746   7.570   5.994   5.533  0.6063 -0.0619  0.0747
  399MOL0     N53747   7.706   6.036   5.556 -0.1878  0.8320 -0.7091
  399MOL0     C53748   7.818   5.966   5.517 -0.5768  1.5936 -1.0277
  399MOL0     C53749   7.926   6.034   5.545 -0.2741  0.6193 -0.5624
  399MOL0     C53750   8.065   5.985   5.531  0.2769  1.1632  0.0102
  399MOL0     C53751   8.163   6.039   5.630  0.4766 -0.3506  0.0538
  399MOL0     C53752   8.300   5.979   5.614  0.2988  0.3312 -0.3527
  399MOL0     C53753   8.391   6.022   5.726  1.9258 -0.3913  0.8963
  399MOL0     O53754   8.532   5.998   5.706 -0.5689  0.1064 -0.5369
  399MOL0     C53755   8.616   6.065   5.793  1.4169  1.0092  0.4145
  399MOL0     C53756   8.581   6.110   5.925 -1.0731  0.9639  0.5910
  399MOL0     C53757   8.669   6.183   6.002  0.6975  0.5334 -0.5306
  399MOL0     C53758   8.804   6.189   5.959 -0.4030  0.6524 -0.1349
  399MOL0     C53759   8.899   6.253   6.047 -0.8644 -0.1791  0.7434
  399MOL0     O53760   9.029   6.239   6.011  0.7863  0.0389 -0.0726
  399MOL0     C53761   9.124   6.311   6.070  1.0002 -0.5824 -0.9314
  399MOL0     C53762   9.165   6.272   6.204 -0.2971  0.0059  0.0976
  399MOL0     C53763   9.281   6.341   6.254 -0.2684 -1.0796 -0.0891
  399MOL0     C53764   9.360   6.433   6.176 -0.0632 -0.3458 -0.4622
  399MOL0     O53765   9.471   6.481   6.242  0.0384 -0.5756 -0.7006
  399MOL0     C53766   9.539   6.600   6.197 -0.1872  0.2417 -0.0475
  399MOL0     C53767   9.655   6.635   6.289 -0.2430 -0.2340  0.1067
  399MOL0     C53768   9.783   6.567   6.247  0.0583 -0.5774 -0.4165
  399MOL0     C53769   9.901   6.600   6.335  0.3469 -0.3766 -0.4889
  399MOL0     C53770   9.949   6.746   6.341  0.4251  0.4324 -0.3996
  399MOL0     C53771   9.974   6.805   6.204 -0.2075  0.5787 -0.1477
  399MOL0     C53772  10.060   6.931   6.204  0.3459  0.5247 -0.8699
  399MOL0     C53773  10.045   7.007   6.068 -0.5673 -0.0139  0.1461
  399MOL0    Cl53774  10.102   6.898   5.948 -0.1308 -0.1074 -0.1389
  399MOL0     C53775   9.307   6.481   6.052  0.6972 -0.7776  1.1466
  399MOL0     C53776   9.188   6.415   6.001 -1.0134 -0.4446 -0.2818
  399MOL0     O53777   8.859   6.317   6.145 -0.0133 -0.1850  0.0593
  399MOL0     C53778   8.841   6.144   5.831  0.3496  0.0253 -0.2233
  399MOL0     C53779   8.748   6.082   5.747 -0.4332 -0.3777  0.1705
  399MOL0     N53780   7.884   6.151   5.604 -0.0937 -0.0682 -0.8908
  399MOL0     N53781   7.752   6.148   5.621 -0.2071  0.2421 -0.4412
  399MOL0     C53782   6.594   5.516   5.756 -0.5566 -0.6164 -0.0348
  399MOL0     C53783   6.482   5.438   5.792 -0.9271  0.7535 -0.4626
  399MOL0     C53784   6.121   5.146   5.756  0.4937  0.8086  0.4400
  399MOL0     C53785   6.017   5.096   5.673 -0.2408  0.3679 -0.6225
  399MOL0     C53786   5.886   5.068   5.718  0.9001 -0.9078 -0.2430
  399MOL0     C53787   5.849   5.102   5.843 -0.4370 -0.8350 -0.0545
  399MOL0     O53788   5.728   5.093   5.899  0.5342 -0.0187  0.2106
  399MOL0     C53789   5.613   5.040   5.819 -0.0585  0.0413  1.1299
  399MOL0     C53790   5.480   5.046   5.900  0.3528  0.7336 -0.0336
  399MOL0     C53791   5.421   5.189   5.920  0.3864 -0.1815  0.0046
  399MOL0     C53792   5.300   5.190   6.010  0.7472  0.3597  0.0793
  399MOL0     C53793   5.271   5.326   6.070 -0.2074 -0.8546 -0.3497
  399MOL0     C53794   5.242   5.436   6.115  0.0131  0.6223  0.1532
  399MOL0     C53795   5.947   5.141   5.934  0.1600 -0.4173 -0.4241
  399MOL0     C53796   6.087   5.156   5.897  0.0960  0.3389  0.2363
  399MOL0     C53797   6.190   5.214   6.003 -0.3043  0.2947  1.4404
  399MOL0     H53798   6.513   5.183   5.563 -0.6854  0.7441 -0.6325
  399MOL0     H53799   6.730   5.306   5.528 -1.7577 -1.5237 -0.9447
  399MOL0     H53800   6.936   5.422   5.795  3.1444 -1.2229 -0.0121
  399MOL0     H53801   6.916   5.336   5.643  0.7364 -0.3766  1.2630
  399MOL0     H53802   7.039   5.534   5.534  2.2638  1.4687 -0.5747
  399MOL0     H53803   7.120   5.421   5.635  0.4465 -0.5519  2.4451
  399MOL0     H53804   7.165   5.606   5.800  0.4812  1.5020 -0.3101
  399MOL0     H53805   7.014   5.688   5.762  3.3584  3.5910  1.8714
  399MOL0     H53806   7.146   5.734   5.531  3.2059 -0.0242 -1.2220
  399MOL0     H53807   7.147   5.823   5.682 -0.9581 -1.4301  1.9134
  399MOL0     H53808   7.361   5.729   5.751 -0.5821 -1.3449 -0.2365
  399MOL0     H53809   7.380   5.636   5.600  0.1977 -0.1587 -0.6277
  399MOL0     H53810   7.342   5.840   5.473 -5.2268 -1.7204  1.4259
  399MOL0     H53811   7.320   5.927   5.620 -2.0486 -2.2557  0.7765
  399MOL0     H53812   7.578   5.780   5.532  1.9770  2.0754 -1.8982
  399MOL0     H53813   7.562   5.842   5.689 -1.5323  0.7774 -0.2139
  399MOL0     H53814   7.538   6.002   5.429 -5.6712 -2.8653  1.3215
  399MOL0     H53815   7.493   6.058   5.577 -1.8221 -1.1587 -2.2852
  399MOL0     H53816   7.823   5.868   5.471 -0.3803  2.2027 -2.3677
  399MOL0     H53817   8.063   5.878   5.556 -2.3536  1.7337  2.8376
  399MOL0     H53818   8.101   5.990   5.428 -0.1617 -0.8306 -0.2801
  399MOL0     H53819   8.166   6.144   5.601 -3.1316 -0.3087 -0.6113
  399MOL0     H53820   8.125   6.021   5.731  0.9568 -1.5101  0.0408
  399MOL0     H53821   8.334   5.984   5.510 -1.7279 -2.9106 -1.3028
  399MOL0     H53822   8.281   5.872   5.625 -2.7411  0.5447 -2.3012
  399MOL0     H53823   8.351   5.983   5.820 -0.1889 -3.2180 -1.0222
  399MOL0     H53824   8.385   6.132   5.725 -1.4170 -0.4676  1.8694
  399MOL0     H53825   8.482   6.080   5.957 -1.6201  1.2758 -0.7199
  399MOL0     H53826   8.634   6.227   6.095 -1.1916 -1.3178 -0.2947
  399MOL0     H53827   9.109   6.202   6.265  0.4857 -2.0006 -1.3765
  399MOL0     H53828   9.322   6.310   6.350 -1.3578 -1.2012  0.3509
  399MOL0     H53829   9.580   6.599   6.095 -1.5444  0.6520 -0.6185
  399MOL0     H53830   9.468   6.682   6.209 -3.4975 -2.2401 -1.1898
  399MOL0     H53831   9.664   6.744   6.279 -2.3677 -0.2032 -2.4335
  399MOL0     H53832   9.632   6.597   6.389  0.6438  0.6460  0.6667
  399MOL0     H53833   9.751   6.462   6.240 -2.5771  0.1459 -0.4394
  399MOL0     H53834   9.806   6.610   6.149  0.7435  0.1451  0.0582
  399MOL0     H53835   9.976   6.533   6.294  0.3680  0.9086 -2.7147
  399MOL0     H53836   9.881   6.564   6.436 -1.2212 -2.6412 -1.5261
  399MOL0     H53837  10.043   6.757   6.396  0.7356 -0.7626 -0.6761
  399MOL0     H53838   9.879   6.810   6.397  0.5905  3.7223 -3.5973
  399MOL0     H53839  10.046   6.742   6.151 -0.2822  0.4078 -0.0452
  399MOL0     H53840   9.886   6.822   6.142 -0.3470  1.3579  0.2460
  399MOL0     H53841  10.164   6.904   6.224  0.4676  0.7039 -1.2542
  399MOL0     H53842  10.020   6.999   6.280 -1.4150  0.2092 -1.4688
  399MOL0     H53843   9.942   7.030   6.040 -0.5210 -2.0628 -1.9610
  399MOL0     H53844  10.108   7.097   6.066 -0.3692 -0.0061  2.9476
  399MOL0     H53845   9.366   6.555   5.998 -1.2135 -0.3704 -0.4977
  399MOL0     H53846   9.168   6.448   5.899  0.9783  1.4133 -0.1455
  399MOL0     H53847   8.942   6.153   5.793 -0.1567 -0.5076 -1.7794
  399MOL0     H53848   8.778   6.046   5.649  0.4284  0.3137  0.1644
  399MOL0     H53849   6.628   5.612   5.794  2.0161  0.0473 -3.5401
  399MOL0     H53850   6.431   5.474   5.881  1.3669  0.6208  0.9996
  399MOL0     H53851   6.037   5.067   5.571  0.5841 -0.9188 -0.1180
  399MOL0     H53852   5.812   5.046   5.642 -0.0523  0.3364  0.2865
  399MOL0     H53853   5.629   4.936   5.789  2.3321  0.1448  1.8483
  399MOL0     H53854   5.600   5.096   5.725  0.7489 -1.8064 -0.1281
  399MOL0     H53855   5.503   4.997   5.995  0.4828  1.7337  0.4631
  399MOL0     H53856   5.394   5.000   5.850  0.6896  1.8763 -1.7688
  399MOL0     H53857   5.403   5.239   5.824 -1.2452 -1.1224 -0.2214
  399MOL0     H53858   5.502   5.242   5.970 -1.3320  0.4649  2.2448
  399MOL0     H53859   5.206   5.157   5.965  0.9867  1.6248 -1.4671
  399MOL0     H53860   5.326   5.124   6.093  1.5184  1.7909  1.0186
  399MOL0     H53861   5.192   5.526   6.143 -1.0603 -0.6166  2.4952
  399MOL0     H53862   5.922   5.150   6.039  3.1454  1.3333  0.2373
  399MOL0     H53863   6.231   5.309   5.967 -1.4821 -0.0736 -1.0902
  399MOL0     H53864   6.154   5.226   6.106  1.0473 -0.1024  1.9901
  399MOL0     H53865   6.274   5.143   6.006  0.5885  1.2922  0.6059
  400MOL0     O53866   5.452   4.182   7.563 -0.1441 -0.2918  0.2685
  400MOL0     C53867   5.472   4.306   7.555  0.0131  0.0459  0.1041
  400MOL0     O53868   5.388   4.400   7.608  0.5274  0.7856 -0.1369
  400MOL0     C53869   5.269   4.362   7.655 -0.7619 -0.4573  0.2411
  400MOL0     C53870   5.229   4.415   7.779 -0.4520  0.0406 -1.4833
  400MOL0     C53871   5.097   4.402   7.819 -0.3814 -0.3636  0.3743
  400MOL0     C53872   4.999   4.331   7.741 -0.1463 -0.1520 -0.7815
  400MOL0     O53873   4.872   4.320   7.787  0.2347 -0.2229 -0.4163
  400MOL0     C53874   4.771   4.277   7.689 -0.6895 -0.2393  0.8857
  400MOL0     C53875   4.728   4.392   7.596  0.3532  0.0662  0.8750
  400MOL0     C53876   4.578   4.391   7.557 -0.3260 -0.0456  0.7434
  400MOL0     C53877   4.535   4.282   7.463 -0.1659  0.6687  0.0568
  400MOL0     C53878   4.395   4.314   7.397  0.0971 -0.2085 -0.2515
  400MOL0     C53879   4.320   4.191   7.344 -0.2655 -0.7448 -0.7626
  400MOL0     C53880   4.277   4.090   7.449 -0.3433 -0.8404  0.3479
  400MOL0     C53881   4.237   3.954   7.403 -0.1365  1.3766  0.1641
  400MOL0     N53882   4.153   3.885   7.503  0.5737 -0.6334  0.7935
  400MOL0     C53883   4.030   3.933   7.543  0.4025 -0.2248  0.8873
  400MOL0     C53884   3.976   3.837   7.613  0.5558 -0.2189 -0.4024
  400MOL0     C53885   3.834   3.822   7.668  0.0792 -0.6378 -0.0194
  400MOL0     C53886   3.818   3.896   7.799  0.2452  0.6789 -0.1310
  400MOL0     C53887   3.806   4.042   7.760  0.3060 -0.5657  0.6845
  400MOL0     C53888   3.793   4.132   7.892  0.5453 -0.1827 -0.3203
  400MOL0     O53889   3.721   4.236   7.820 -0.2668  1.1666 -0.0015
  400MOL0     C53890   3.665   4.337   7.887  0.6261  0.3026 -0.8395
  400MOL0     C53891   3.628   4.456   7.821  0.1753  0.1038  0.2570
  400MOL0     C53892   3.565   4.559   7.893 -0.2458  0.3527  0.4267
  400MOL0     C53893   3.553   4.563   8.037  1.0468  0.2552 -1.1237
  400MOL0     C53894   3.474   4.660   8.102 -0.7669  0.8115  0.6727
  400MOL0     O53895   3.456   4.783   8.042  0.7385  0.2143 -0.0060
  400MOL0     C53896   3.371   4.862   8.117  0.3964  0.5931  0.5158
  400MOL0     C53897   3.396   4.902   8.246  0.3596 -0.1555 -0.1509
  400MOL0     C53898   3.312   4.992   8.308 -0.1043  0.3436  0.5678
  400MOL0     C53899   3.197   5.045   8.227  0.5693  0.2302  0.3515
  400MOL0     O53900   3.088   5.113   8.283  0.2354 -0.2548  0.1278
  400MOL0     C53901   3.073   5.115   8.419  0.2433 -0.7746  0.2897
  400MOL0     C53902   2.923   5.107   8.453  1.2443  0.1781 -1.1096
  400MOL0     C53903   2.895   5.114   8.611 -0.0381 -0.6328  0.4848
  400MOL0     C53904   2.748   5.080   8.647 -0.5941 -0.1274 -0.6161
  400MOL0     C53905   2.725   5.082   8.799  0.4090 -0.2523 -0.7432
  400MOL0     C53906   2.708   5.222   8.849  0.7715  0.3811  1.3881
  400MOL0     C53907   2.672   5.215   9.006  0.6841  0.3288  0.2739
  400MOL0     C53908   2.792   5.192   9.098  0.4291 -0.0338  0.3309
  400MOL0    Cl53909   2.812   5.014   9.138  0.1976  0.2813  0.3121
  400MOL0     C53910   3.186   5.013   8.089  0.3964 -0.0499 -0.3940
  400MOL0     C53911   3.269   4.915   8.040 -0.6547 -0.1816 -0.3604
  400MOL0     O53912   3.431   4.629   8.215  0.0322 -0.0710  0.3809
  400MOL0     C53913   3.610   4.449   8.107 -0.0988 -0.2381 -0.0441
  400MOL0     C53914   3.662   4.340   8.032 -0.3007  0.0794 -0.2917
  400MOL0     N53915   4.060   3.726   7.611  0.0702 -0.0753 -0.0285
  400MOL0     N53916   4.164   3.760   7.544  0.6785  0.4343  0.4832
  400MOL0     C53917   5.054   4.268   7.625  0.7057 -1.1876  0.3314
  400MOL0     C53918   5.185   4.287   7.583  0.7248 -0.1345  0.7047
  400MOL0     C53919   5.615   4.346   7.513 -0.1471 -0.7274  0.2515
  400MOL0     C53920   5.688   4.249   7.442  0.9285  0.1131 -1.2116
  400MOL0     C53921   5.818   4.270   7.392  0.1559  0.0697  0.0907
  400MOL0     C53922   5.866   4.399   7.423 -0.1072  0.6971  0.1507
  400MOL0     O53923   5.997   4.433   7.381  0.6056 -0.1456  0.1849
  400MOL0     C53924   6.101   4.335   7.390  0.3306 -0.7258 -0.1397
  400MOL0     C53925   6.131   4.274   7.251 -0.4342  0.0630  1.0255
  400MOL0     C53926   6.168   4.374   7.142  0.4812 -0.0355  0.0571
  400MOL0     C53927   6.272   4.477   7.175 -0.6749 -0.0857 -0.4435
  400MOL0     C53928   6.401   4.406   7.213 -0.2067 -0.2010  0.5163
  400MOL0     C53929   6.506   4.350   7.255 -0.5459  0.3927  0.1328
  400MOL0     C53930   5.800   4.495   7.498  0.4390 -0.6834 -0.2094
  400MOL0     C53931   5.675   4.473   7.548  0.6854  0.3792  0.9005
  400MOL0     C53932   5.621   4.578   7.637 -1.2242 -0.2308 -0.5411
  400MOL0     H53933   5.308   4.464   7.835 -0.7310 -0.7138 -0.4119
  400MOL0     H53934   5.065   4.451   7.910  0.9137  0.4507  0.4165
  400MOL0     H53935   4.800   4.193   7.626 -1.5389 -1.5481  2.1758
  400MOL0     H53936   4.679   4.252   7.743  0.7530  1.3009  4.4065
  400MOL0     H53937   4.787   4.381   7.505 -0.7789  1.1333 -0.0169
  400MOL0     H53938   4.751   4.489   7.640  3.3628 -0.1997  0.1375
  400MOL0     H53939   4.560   4.488   7.511 -4.5221  0.1131  2.2854
  400MOL0     H53940   4.514   4.389   7.646  0.3407 -1.2002  1.2134
  400MOL0     H53941   4.611   4.276   7.385 -0.4665 -2.0287 -0.1174
  400MOL0     H53942   4.535   4.187   7.518  4.5433  0.4117  0.0012
  400MOL0     H53943   4.327   4.367   7.464  1.9227 -0.5417  2.0063
  400MOL0     H53944   4.412   4.379   7.312 -0.1730  2.4459  1.6110
  400MOL0     H53945   4.240   4.238   7.287  0.9945 -0.3315 -2.2577
  400MOL0     H53946   4.388   4.134   7.279  0.2814 -0.4203 -0.4883
  400MOL0     H53947   4.190   4.134   7.500 -0.0989  2.8985 -2.0880
  400MOL0     H53948   4.362   4.074   7.515 -1.1559 -1.3607  1.3035
  400MOL0     H53949   4.190   3.973   7.307  4.6390  2.6381 -2.2107
  400MOL0     H53950   4.324   3.889   7.394 -1.1692 -0.5034  2.4558
  400MOL0     H53951   3.980   4.024   7.512 -0.4230 -0.5786  1.1535
  400MOL0     H53952   3.755   3.841   7.595 -0.4898  0.4535  0.8441
  400MOL0     H53953   3.815   3.716   7.686 -0.9219 -0.6961 -1.3152
  400MOL0     H53954   3.729   3.859   7.852  0.4157 -0.5060 -0.6279
  400MOL0     H53955   3.910   3.880   7.856 -0.4688  2.6380  1.7008
  400MOL0     H53956   3.712   4.052   7.705 -0.0664  5.1481  1.7348
  400MOL0     H53957   3.881   4.088   7.695 -1.1502 -1.0449 -1.4426
  400MOL0     H53958   3.890   4.173   7.922 -0.9241  2.3018  1.4182
  400MOL0     H53959   3.751   4.075   7.975  2.2521  1.5080  1.8563
  400MOL0     H53960   3.644   4.470   7.715 -0.2332  1.3902  0.3494
  400MOL0     H53961   3.537   4.649   7.840  1.7775 -0.0242 -1.4438
  400MOL0     H53962   3.471   4.871   8.317  0.1745 -0.0686  0.0851
  400MOL0     H53963   3.320   5.009   8.415 -0.4500 -1.1694  0.8606
  400MOL0     H53964   3.117   5.029   8.470  4.1145  0.7827 -0.1047
  400MOL0     H53965   3.122   5.206   8.455  0.3078 -0.9634  0.6867
  400MOL0     H53966   2.856   5.185   8.414  1.9688  0.9944 -0.7432
  400MOL0     H53967   2.893   5.007   8.420  2.5136 -1.0631  1.2273
  400MOL0     H53968   2.962   5.059   8.678 -3.1858  0.1203  4.6760
  400MOL0     H53969   2.913   5.216   8.647  3.5297 -0.5838 -1.0139
  400MOL0     H53970   2.726   4.978   8.617 -1.9202 -0.4209  1.1844
  400MOL0     H53971   2.680   5.143   8.590  0.1915  1.6138  0.2831
  400MOL0     H53972   2.813   5.042   8.850 -0.8544  0.3947  2.1385
  400MOL0     H53973   2.638   5.019   8.823  0.7811 -0.1336  1.0381
  400MOL0     H53974   2.794   5.289   8.835 -0.5185  2.2111  1.8351
  400MOL0     H53975   2.622   5.261   8.794 -0.3014 -3.1810  0.2564
  400MOL0     H53976   2.594   5.147   9.040 -1.2995  3.1102  1.7386
  400MOL0     H53977   2.629   5.313   9.028  0.7909  0.2580  0.8209
  400MOL0     H53978   2.887   5.233   9.065  0.4308  1.0895  1.6436
  400MOL0     H53979   2.765   5.251   9.186 -1.7251  0.9352 -0.9164
  400MOL0     H53980   3.103   5.060   8.037 -2.9405 -0.7945  3.7104
  400MOL0     H53981   3.256   4.881   7.937 -0.8246 -0.0689 -0.3755
  400MOL0     H53982   3.613   4.436   8.214 -1.0023  0.9218  0.1441
  400MOL0     H53983   3.693   4.252   8.087 -2.1671 -0.5817 -0.2171
  400MOL0     H53984   4.994   4.222   7.547  0.4443  2.4154 -1.8198
  400MOL0     H53985   5.216   4.235   7.493 -0.9175  2.6849 -1.7122
  400MOL0     H53986   5.645   4.149   7.436 -2.5074  1.3583  0.2876
  400MOL0     H53987   5.876   4.195   7.339  2.7180  1.1097  1.2812
  400MOL0     H53988   6.071   4.258   7.462  3.7121 -1.6523  0.4411
  400MOL0     H53989   6.193   4.374   7.433 -0.2943  1.3731 -0.5908
  400MOL0     H53990   6.038   4.230   7.213  0.4283  1.2601 -2.8658
  400MOL0     H53991   6.216   4.205   7.262  0.4277  0.8954 -0.1796
  400MOL0     H53992   6.076   4.432   7.125 -0.2969 -1.3642 -0.4455
  400MOL0     H53993   6.195   4.312   7.056  0.4597  1.1067 -0.7868
  400MOL0     H53994   6.278   4.547   7.090 -1.2454  1.0756  0.4465
  400MOL0     H53995   6.246   4.538   7.262 -1.2971 -2.6833  1.2881
  400MOL0     H53996   6.596   4.299   7.280 -0.4862 -0.4021 -1.5393
  400MOL0     H53997   5.844   4.595   7.504  0.0853 -0.3735 -2.0870
  400MOL0     H53998   5.702   4.614   7.701 -1.6527 -0.3814  0.0991
  400MOL0     H53999   5.573   4.654   7.575 -1.3184 -0.5405 -0.8535
  400MOL0     H54000   5.545   4.542   7.707 -2.0289 -0.6712 -1.6179
  401MOL0     O54001   9.687   0.738   6.625 -0.1349  0.0690  0.3335
  401MOL0     C54002   9.746   0.845   6.637  0.1001  0.4216 -0.4221
  401MOL0     O54003   9.738   0.957   6.556 -0.5717  0.6828 -0.3807
  401MOL0     C54004   9.616   0.989   6.496  0.5927  0.2174 -0.4135
  401MOL0     C54005   9.489   0.960   6.556 -0.1235  0.7210  0.4836
  401MOL0     C54006   9.364   1.015   6.504  0.5077 -0.4914  0.2484
  401MOL0     C54007   9.367   1.087   6.390 -0.6536 -1.4071  0.6903
  401MOL0     O54008   9.247   1.141   6.354  0.4709 -0.4471 -0.8515
  401MOL0     C54009   9.225   1.238   6.243 -0.6045  0.4701 -0.2446
  401MOL0     C54010   9.091   1.297   6.232  0.8287 -0.5370  0.7791
  401MOL0     C54011   8.988   1.210   6.182 -0.6421 -0.0275 -0.0101
  401MOL0     C54012   8.853   1.278   6.210  0.9344 -0.3227  0.8871
  401MOL0     C54013   8.738   1.186   6.172 -0.3614 -0.5000 -0.8988
  401MOL0     C54014   8.596   1.247   6.223 -0.4079 -0.5585  1.4348
  401MOL0     C54015   8.471   1.167   6.188 -0.0486 -0.4725  0.1360
  401MOL0     C54016   8.467   1.117   6.039  0.9524  0.3781 -0.4586
  401MOL0     N54017   8.359   1.018   6.018  0.0522 -0.5393 -0.0254
  401MOL0     C54018   8.233   1.042   5.964  0.3981  0.4694  0.6491
  401MOL0     C54019   8.182   0.913   5.946  0.5842  0.1747 -0.0427
  401MOL0     C54020   8.057   0.883   5.879  0.7869  1.1039  0.1852
  401MOL0     C54021   7.949   0.792   5.953  0.2567  0.2132 -0.9252
  401MOL0     C54022   7.906   0.869   6.080 -0.4361 -0.4215  0.0317
  401MOL0     C54023   7.775   0.804   6.133 -0.2971  0.6028  0.3288
  401MOL0     O54024   7.711   0.882   6.237  0.5116  1.1543  0.1090
  401MOL0     C54025   7.631   0.985   6.220 -0.1693  0.1715  1.0493
  401MOL0     C54026   7.578   1.018   6.096 -0.1238 -0.1401  0.1416
  401MOL0     C54027   7.495   1.130   6.090 -0.8362 -0.8455  0.7033
  401MOL0     C54028   7.442   1.196   6.196 -0.3052 -0.8363 -0.6784
  401MOL0     C54029   7.346   1.306   6.179  0.0243  0.5388 -0.0317
  401MOL0     O54030   7.278   1.352   6.282  1.3077  0.4346 -0.5620
  401MOL0     C54031   7.193   1.450   6.270  0.9770 -0.2173  0.3281
  401MOL0     C54032   7.181   1.536   6.381  0.8343 -0.1063  0.5731
  401MOL0     C54033   7.084   1.630   6.376 -0.5249 -0.5303  0.1378
  401MOL0     C54034   7.003   1.660   6.262 -0.6364 -0.0647  0.8277
  401MOL0     O54035   6.913   1.767   6.267  0.4616  0.5576 -0.0116
  401MOL0     C54036   6.837   1.799   6.143  0.8830 -0.5072 -0.2220
  401MOL0     C54037   6.724   1.898   6.175  0.2889  0.1859 -0.0766
  401MOL0     C54038   6.651   1.951   6.053 -0.3814  0.2953 -0.0916
  401MOL0     C54039   6.737   2.008   5.953 -0.3836 -0.0367  0.0492
  401MOL0     C54040   6.673   2.068   5.830 -0.0990 -0.3290  0.3453
  401MOL0     C54041   6.565   1.980   5.772  0.1400  0.4297 -0.7363
  401MOL0     C54042   6.527   2.042   5.640  0.8218  0.2682 -0.6209
  401MOL0     C54043   6.427   1.957   5.562  0.2868  0.5437 -0.3174
  401MOL0    Cl54044   6.248   2.002   5.611  0.1962 -0.3782  0.1736
  401MOL0     C54045   7.011   1.571   6.152 -1.1252  0.1382  0.7500
  401MOL0     C54046   7.106   1.471   6.153 -0.1340 -0.0315 -0.4425
  401MOL0     O54047   7.345   1.355   6.064  0.8700 -0.0446 -0.4200
  401MOL0     C54048   7.488   1.161   6.322 -0.1016  0.5915 -0.9233
  401MOL0     C54049   7.582   1.052   6.332  0.2040 -0.1291  0.0500
  401MOL0     N54050   8.265   0.820   6.001  0.0955 -0.0606 -0.3479
  401MOL0     N54051   8.369   0.885   6.042 -0.3690  0.2662 -0.4964
  401MOL0     C54052   9.496   1.107   6.322  0.3494 -0.4046 -0.3458
  401MOL0     C54053   9.614   1.059   6.382  0.8305 -0.2534  0.2779
  401MOL0     C54054   9.850   0.837   6.741  0.5907 -0.3303  0.4807
  401MOL0     C54055   9.957   0.928   6.731  0.6395 -0.2491 -0.0300
  401MOL0     C54056  10.064   0.928   6.825  0.6124 -0.8009 -0.1515
  401MOL0     C54057  10.060   0.839   6.931 -0.3188  0.2454 -0.8053
  401MOL0     O54058  10.160   0.836   7.022 -0.1642  0.5846 -0.0464
  401MOL0     C54059  10.150   0.939   7.127  0.0585 -0.6396  0.9109
  401MOL0     C54060  10.096   0.872   7.257 -0.2129  1.0057 -1.1946
  401MOL0     C54061  10.139   0.960   7.373 -0.1854  0.2573 -0.1355
  401MOL0     C54062  10.157   0.884   7.516  0.7231  0.4507  0.5383
  401MOL0     C54063  10.039   0.827   7.581  0.1180  0.4745 -0.4749
  401MOL0     C54064   9.953   0.773   7.643  0.4818  0.2290  0.4264
  401MOL0     C54065   9.947   0.758   6.952 -0.4966  0.4325  0.2461
  401MOL0     C54066   9.847   0.747   6.846 -0.3770  0.1602 -1.5013
  401MOL0     C54067   9.753   0.632   6.871 -0.1024  0.1088  0.0246
  401MOL0     H54068   9.499   0.909   6.651  0.3553  0.4077  0.2736
  401MOL0     H54069   9.275   0.983   6.557  1.3037 -4.0228 -0.3214
  401MOL0     H54070   9.298   1.317   6.260  1.1475 -1.1457  0.1219
  401MOL0     H54071   9.248   1.196   6.144 -1.9242 -5.0993  1.4474
  401MOL0     H54072   9.092   1.386   6.169 -1.4520 -1.5753 -0.9094
  401MOL0     H54073   9.063   1.322   6.334 -1.6244 -1.8023  0.4956
  401MOL0     H54074   9.002   1.117   6.238 -0.2800  0.7280  1.1837
  401MOL0     H54075   8.995   1.201   6.073 -2.3582  1.9066 -0.3440
  401MOL0     H54076   8.830   1.291   6.316 -0.0945  0.3880  0.5941
  401MOL0     H54077   8.834   1.368   6.152  0.4589 -0.1626  1.2814
  401MOL0     H54078   8.749   1.178   6.063  0.9770 -0.4481 -0.7864
  401MOL0     H54079   8.743   1.092   6.226 -4.9338  0.2636  1.3557
  401MOL0     H54080   8.603   1.251   6.332 -1.8746 -1.1123  1.5804
  401MOL0     H54081   8.590   1.350   6.186  0.4698 -0.5416  1.3251
  401MOL0     H54082   8.383   1.231   6.191 -1.0573 -1.8100  0.0187
  401MOL0     H54083   8.457   1.086   6.260 -0.4383 -0.3906  0.1547
  401MOL0     H54084   8.464   1.206   5.975  3.4167  2.1471  1.6432
  401MOL0     H54085   8.568   1.081   6.020  0.6224  0.1558 -1.8865
  401MOL0     H54086   8.190   1.137   5.934  3.0823  1.1725 -1.3689
  401MOL0     H54087   8.016   0.979   5.846  0.7677  0.7192 -0.9566
  401MOL0     H54088   8.078   0.816   5.795 -2.5312 -0.3530  0.3788
  401MOL0     H54089   7.862   0.775   5.888 -0.6051  2.2625 -0.3981
  401MOL0     H54090   8.004   0.701   5.974  0.8655  0.0471 -2.9867
  401MOL0     H54091   7.880   0.969   6.043 -1.1196  0.8804  3.6585
  401MOL0     H54092   7.994   0.878   6.144  1.6588  1.0999 -2.8083
  401MOL0     H54093   7.793   0.701   6.164  0.7157  1.1761  1.7812
  401MOL0     H54094   7.711   0.774   6.050  2.6130 -0.9411 -1.5119
  401MOL0     H54095   7.607   0.958   6.011  4.2967 -1.3351  2.1879
  401MOL0     H54096   7.461   1.166   5.993  1.0654 -0.9367 -0.0383
  401MOL0     H54097   7.255   1.524   6.459  0.8100  0.3327  0.6655
  401MOL0     H54098   7.074   1.700   6.459 -3.4219  0.5203 -0.9851
  401MOL0     H54099   6.906   1.852   6.077 -1.4605  0.8856 -1.7316
  401MOL0     H54100   6.773   1.718   6.105 -4.2898 -0.3869  6.4816
  401MOL0     H54101   6.654   1.855   6.246  0.3876  2.4529  1.4978
  401MOL0     H54102   6.754   1.989   6.228  0.6351  0.0236  0.0051
  401MOL0     H54103   6.613   1.855   6.016  1.2661 -0.5802  0.3588
  401MOL0     H54104   6.566   2.016   6.077 -0.4882 -0.4367  1.6462
  401MOL0     H54105   6.803   1.935   5.904 -4.0201 -1.9193 -2.4765
  401MOL0     H54106   6.802   2.080   6.005 -1.8008  0.1549  1.6369
  401MOL0     H54107   6.751   2.083   5.755  0.4406  1.6535  1.2452
  401MOL0     H54108   6.627   2.166   5.847 -1.5708 -1.2456  1.9685
  401MOL0     H54109   6.601   1.877   5.759  1.0604  0.7073 -0.4423
  401MOL0     H54110   6.485   1.979   5.846  0.5887  1.2320 -0.2365
  401MOL0     H54111   6.615   2.067   5.580  3.0205  0.5188  2.5072
  401MOL0     H54112   6.476   2.138   5.656 -1.6430 -0.9394 -0.8047
  401MOL0     H54113   6.433   1.984   5.456 -2.3558  0.5577 -0.5200
  401MOL0     H54114   6.462   1.854   5.574  3.0601  1.4661  0.2825
  401MOL0     H54115   6.949   1.576   6.063  0.7883 -1.3064 -0.7626
  401MOL0     H54116   7.102   1.418   6.058  0.9557 -0.7719 -0.0996
  401MOL0     H54117   7.438   1.210   6.405 -0.9335  0.0136 -1.0670
  401MOL0     H54118   7.610   1.036   6.436  0.5040  3.8494  0.7508
  401MOL0     H54119   9.499   1.166   6.232 -0.0376  3.5881  2.0067
  401MOL0     H54120   9.710   1.095   6.346 -0.1466  0.2689 -1.9758
  401MOL0     H54121   9.962   1.006   6.655  5.1646  1.2401  1.4450
  401MOL0     H54122  10.149   0.992   6.802 -0.6284  1.6869  1.7492
  401MOL0     H54123  10.083   1.021   7.099  1.0959  0.4888  1.5881
  401MOL0     H54124  10.250   0.979   7.143 -0.4844  1.4626 -0.4333
  401MOL0     H54125  10.137   0.771   7.269 -0.6189  0.9568 -0.1594
  401MOL0     H54126   9.988   0.860   7.245 -0.3666  0.3382  0.5939
  401MOL0     H54127  10.053   1.025   7.390  1.3120  2.3489 -0.1562
  401MOL0     H54128  10.220   1.032   7.357  1.2561 -1.2235  0.1900
  401MOL0     H54129  10.229   0.805   7.494 -0.5171 -0.7022  0.4812
  401MOL0     H54130  10.194   0.957   7.589  2.2556  1.7690 -1.4191
  401MOL0     H54131   9.886   0.726   7.711  1.1412  0.1768  1.0554
  401MOL0     H54132   9.936   0.689   7.035  0.0656  2.5805  2.2110
  401MOL0     H54133   9.792   0.574   6.956  1.1752 -1.5960 -1.6436
  401MOL0     H54134   9.651   0.666   6.892 -1.2453 -1.6036 -2.3413
  401MOL0     H54135   9.740   0.562   6.789 -3.5180  0.9494 -0.3186
  402MOL0     O54136   2.403  10.268  11.187  0.2199 -0.1158 -0.4234
  402MOL0     C54137   2.384  10.389  11.207  0.2507 -0.5420 -0.5743
  402MOL0     O54138   2.279  10.444  11.256  0.2928 -0.4432 -0.0954
  402MOL0     C54139   2.164  10.370  11.236  0.4588  0.1445  0.0728
  402MOL0     C54140   2.073  10.397  11.140 -0.1030 -0.6165 -0.2427
  402MOL0     C54141   1.956  10.323  11.119  0.8531  0.7103 -0.8680
  402MOL0     C54142   1.925  10.221  11.222  0.6018 -0.2049  0.7006
  402MOL0     O54143   1.818  10.143  11.238  0.6633  0.2186  0.3679
  402MOL0     C54144   1.694  10.212  11.232 -0.6072  0.7785 -0.3477
  402MOL0     C54145   1.598  10.091  11.228  0.1802  0.1312 -0.0552
  402MOL0     C54146   1.450  10.121  11.214  0.0609  0.0825  0.0465
  402MOL0     C54147   1.370  10.064  11.338 -0.0070 -1.1927 -0.5836
  402MOL0     C54148   1.225  10.078  11.316  0.2676  0.6935 -0.4611
  402MOL0     C54149   1.171   9.979  11.212 -0.9714  0.0353  0.4334
  402MOL0     C54150   1.020   9.985  11.199  1.6138 -0.0882  0.7966
  402MOL0     C54151   0.969  10.122  11.159  0.1115 -0.3466  0.5243
  402MOL0     N54152   1.024  10.183  11.048 -0.0169 -1.1634  0.9081
  402MOL0     C54153   1.022  10.140  10.921  0.6940  0.3957 -0.6937
  402MOL0     C54154   1.063  10.240  10.846 -0.2274  0.2811  0.7092
  402MOL0     C54155   1.079  10.237  10.694 -0.3857  0.1631  0.1349
  402MOL0     C54156   1.228  10.250  10.661 -0.1505  0.2889  0.9990
  402MOL0     C54157   1.248  10.222  10.510  0.0360 -0.0346  0.6190
  402MOL0     C54158   1.381  10.277  10.461 -0.2068 -0.5469 -0.6376
  402MOL0     O54159   1.489  10.190  10.476  0.4409 -0.2876 -0.0605
  402MOL0     C54160   1.595  10.207  10.392 -0.7675  0.4837 -0.0909
  402MOL0     C54161   1.655  10.099  10.327 -0.2289 -0.0005 -0.0483
  402MOL0     C54162   1.773  10.106  10.251  0.3207 -0.0392  0.3048
  402MOL0     C54163   1.828  10.235  10.227 -0.4191 -0.9748  0.1889
  402MOL0     C54164   1.951  10.259  10.144 -0.6765  0.5864 -0.3231
  402MOL0     O54165   1.999  10.388  10.140  0.0636 -0.1082  0.1782
  402MOL0     C54166   2.128  10.405  10.103 -1.1099  0.8465 -0.8108
  402MOL0     C54167   2.156  10.417   9.965 -1.0003 -0.2428 -0.1430
  402MOL0     C54168   2.287  10.436   9.927 -0.2268 -0.0983 -0.0022
  402MOL0     C54169   2.393  10.448  10.017 -0.3443  0.0169 -0.4979
  402MOL0     O54170   2.528  10.463   9.973  0.2099 -0.0821 -0.4277
  402MOL0     C54171   2.555  10.576   9.890  0.2275 -0.7713 -0.5510
  402MOL0     C54172   2.620  10.689   9.968 -0.3240 -0.3790  0.6522
  402MOL0     C54173   2.637  10.829   9.892 -0.6807  1.5367 -0.6239
  402MOL0     C54174   2.778  10.831   9.833 -0.3388 -0.9144 -0.7080
  402MOL0     C54175   2.798  10.952   9.732 -0.1249 -0.1275  1.2102
  402MOL0     C54176   2.925  10.948   9.653  0.8705 -0.0796 -0.0380
  402MOL0     C54177   2.929  11.067   9.556  0.3313 -0.1436 -0.1449
  402MOL0     C54178   3.010  11.022   9.434  0.8118 -1.4653 -0.2209
  402MOL0    Cl54179   3.194  11.041   9.451 -0.0715  0.0080 -0.3420
  402MOL0     C54180   2.363  10.440  10.150  0.1825 -0.2465  0.6788
  402MOL0     C54181   2.230  10.418  10.200  0.0078 -0.5790  0.0056
  402MOL0     O54182   2.011  10.158  10.102 -0.2911 -0.3281 -0.9511
  402MOL0     C54183   1.771  10.346  10.289  0.1182  0.3506  0.5750
  402MOL0     C54184   1.652  10.330  10.367 -0.0869  0.2889  0.4432
  402MOL0     N54185   1.077  10.347  10.925  0.3474  0.8415 -0.5434
  402MOL0     N54186   1.071  10.307  11.047 -0.1453  0.5193 -1.1981
  402MOL0     C54187   2.016  10.201  11.324  0.8959 -0.2232 -0.1512
  402MOL0     C54188   2.131  10.276  11.337  0.4229  0.1090  0.4927
  402MOL0     C54189   2.494  10.492  11.183 -0.0363 -0.1998  0.0633
  402MOL0     C54190   2.503  10.602  11.280 -0.1032  0.0333 -0.3006
  402MOL0     C54191   2.606  10.690  11.267 -0.1477  0.6854  1.0201
  402MOL0     C54192   2.711  10.680  11.173  0.3897  0.4669 -0.3343
  402MOL0     O54193   2.820  10.769  11.169 -0.7157  0.4246  0.6253
  402MOL0     C54194   2.798  10.907  11.184  0.6680  0.0297 -0.1939
  402MOL0     C54195   2.921  10.977  11.147 -0.2938  0.1179 -0.0862
  402MOL0     C54196   2.907  11.124  11.178  0.4128 -0.5913 -0.5601
  402MOL0     C54197   2.833  11.207  11.074  0.2253  0.4597 -0.5824
  402MOL0     C54198   2.815  11.338  11.132 -1.0883  0.0268  0.5412
  402MOL0     C54199   2.787  11.451  11.164 -1.2240  1.0225 -0.2949
  402MOL0     C54200   2.702  10.576  11.084  0.0232  0.6669 -0.2603
  402MOL0     C54201   2.599  10.487  11.089  0.7794  0.4605 -0.4135
  402MOL0     C54202   2.606  10.383  10.976 -0.1762  0.1390  0.7306
  402MOL0     H54203   2.089  10.470  11.061 -1.1938 -0.5689 -0.4404
  402MOL0     H54204   1.889  10.358  11.040 -3.2431 -1.6797  1.1889
  402MOL0     H54205   1.679  10.272  11.322 -1.2750 -1.4603  1.1156
  402MOL0     H54206   1.675  10.273  11.143  3.1943 -0.1447 -1.9926
  402MOL0     H54207   1.615  10.041  11.324  1.2576  1.5753  0.5411
  402MOL0     H54208   1.644  10.025  11.154 -1.2142  0.6509 -1.4408
  402MOL0     H54209   1.421  10.068  11.123 -0.9397  0.4278  0.1553
  402MOL0     H54210   1.428  10.227  11.202  2.3048  0.2896 -3.8921
  402MOL0     H54211   1.388   9.958  11.358 -2.6176 -1.3494  1.6072
  402MOL0     H54212   1.388  10.120  11.430 -0.5624 -0.8264 -0.6923
  402MOL0     H54213   1.166  10.061  11.406  0.8695 -1.3799 -0.3928
  402MOL0     H54214   1.199  10.178  11.283 -3.2933  0.1239  0.2720
  402MOL0     H54215   1.216  10.007  11.116 -0.3297  1.2144  1.0626
  402MOL0     H54216   1.200   9.876  11.236 -0.7756  0.3422  1.5539
  402MOL0     H54217   0.972   9.958  11.294  0.7784  2.9250  1.3663
  402MOL0     H54218   1.004   9.911  11.121  5.7290 -1.4266  0.9718
  402MOL0     H54219   0.865  10.101  11.131  0.5052  0.1486 -1.5269
  402MOL0     H54220   0.975  10.179  11.252  0.6469 -5.3854  3.9711
  402MOL0     H54221   0.986  10.041  10.895 -0.8897  0.9659 -0.8098
  402MOL0     H54222   1.032  10.145  10.659 -1.8143  0.1939  1.8678
  402MOL0     H54223   1.032  10.326  10.652  1.0991  2.2198  2.5083
  402MOL0     H54224   1.269  10.348  10.686  0.6063 -0.3983  2.5999
  402MOL0     H54225   1.289  10.179  10.717  1.1415  0.3668 -0.2299
  402MOL0     H54226   1.169  10.265  10.450  2.5782  1.1024 -2.1629
  402MOL0     H54227   1.236  10.116  10.483  0.5284  0.1811 -0.5215
  402MOL0     H54228   1.401  10.373  10.508 -0.8873  0.5065 -2.4218
  402MOL0     H54229   1.379  10.313  10.358 -2.9625 -0.8760 -0.7713
  402MOL0     H54230   1.615   9.999  10.336 -1.8477  0.6946  1.1521
  402MOL0     H54231   1.812  10.012  10.213 -0.6770  0.1426 -1.2635
  402MOL0     H54232   2.078  10.390   9.895 -0.8043  1.7944 -1.2244
  402MOL0     H54233   2.314  10.433   9.822  4.1350  1.4259  0.8687
  402MOL0     H54234   2.633  10.542   9.821  0.6237 -0.6431 -0.1731
  402MOL0     H54235   2.466  10.600   9.832 -0.1261 -1.7992 -0.4619
  402MOL0     H54236   2.546  10.726  10.039 -1.0437  0.2727 -0.4078
  402MOL0     H54237   2.710  10.651  10.017  2.2598  3.0164 -0.9971
  402MOL0     H54238   2.561  10.828   9.814 -0.8647 -0.8316 -0.4833
  402MOL0     H54239   2.619  10.909   9.965  0.7944 -0.4863  2.1771
  402MOL0     H54240   2.786  10.737   9.778 -0.0948  0.0905 -2.4579
  402MOL0     H54241   2.841  10.836   9.922  0.0228  1.8125 -1.0235
  402MOL0     H54242   2.783  11.050   9.779  0.6599  1.1988 -1.1426
  402MOL0     H54243   2.713  10.937   9.665  0.1906 -0.2106  0.8309
  402MOL0     H54244   3.007  10.961   9.726  0.7320 -0.9898  0.3011
  402MOL0     H54245   2.934  10.857   9.593 -0.6431  0.2280 -0.7559
  402MOL0     H54246   2.982  11.149   9.605  0.1553  0.2576 -0.6224
  402MOL0     H54247   2.834  11.108   9.521  0.7687 -0.9420 -2.4987
  402MOL0     H54248   2.989  10.916   9.415  2.1066 -1.7191 -0.3146
  402MOL0     H54249   2.978  11.083   9.349  0.4967 -2.8578 -1.1349
  402MOL0     H54250   2.439  10.446  10.228 -0.6978  2.6083  1.4206
  402MOL0     H54251   2.208  10.423  10.306  1.5161  2.9835  0.2837
  402MOL0     H54252   1.809  10.447  10.293 -0.8055  0.7441 -0.2189
  402MOL0     H54253   1.620  10.422  10.414  0.8217  1.2780 -0.7920
  402MOL0     H54254   1.998  10.128  11.403 -1.8296 -0.1709 -0.6408
  402MOL0     H54255   2.208  10.266  11.413  1.5998  5.3758  0.4182
  402MOL0     H54256   2.429  10.628  11.355 -1.1123  1.5494 -1.7577
  402MOL0     H54257   2.606  10.781  11.326  1.8590  2.3534 -1.3303
  402MOL0     H54258   2.794  10.914  11.293  2.4023  1.7167 -0.1892
  402MOL0     H54259   2.706  10.942  11.137  1.2907 -0.3551 -1.7549
  402MOL0     H54260   2.961  10.957  11.047  4.5619  0.0666  1.6102
  402MOL0     H54261   2.997  10.943  11.218 -2.3324  0.6686  2.5243
  402MOL0     H54262   3.006  11.168  11.192 -0.1369 -0.0659  2.2790
  402MOL0     H54263   2.848  11.132  11.270  1.7173  1.7222  0.1562
  402MOL0     H54264   2.878  11.211  10.975 -0.4276  0.3588 -0.8916
  402MOL0     H54265   2.734  11.160  11.071  0.3052  0.3184 -0.9983
  402MOL0     H54266   2.760  11.551  11.191 -3.2943  0.4500 -0.1093
  402MOL0     H54267   2.777  10.563  11.006  2.2740  2.4746  1.4486
  402MOL0     H54268   2.661  10.295  11.009 -0.2529 -0.7661 -1.3916
  402MOL0     H54269   2.505  10.357  10.943 -0.9375  3.4995 -0.0045
  402MOL0     H54270   2.667  10.413  10.891 -0.4642  0.2922  0.5742
  403MOL0     O54271   4.234  10.279   6.706 -0.0547 -0.2392 -0.3439
  403MOL0     C54272   4.290  10.293   6.812 -0.2698  0.3692  0.0226
  403MOL0     O54273   4.224  10.315   6.930 -0.0031  0.6246  0.1244
  403MOL0     C54274   4.086  10.337   6.935  0.0632  0.0970  0.0931
  403MOL0     C54275   3.992  10.249   6.991  0.2179 -0.5217 -0.1141
  403MOL0     C54276   3.858  10.287   7.005 -0.7393 -0.4563  0.1100
  403MOL0     C54277   3.822  10.419   6.984  0.5618  0.7437 -0.5120
  403MOL0     O54278   3.697  10.464   7.023 -0.0039 -0.2268 -0.0446
  403MOL0     C54279   3.589  10.405   6.943 -0.8303 -0.8949  0.0059
  403MOL0     C54280   3.445  10.435   6.998 -0.6877 -0.2528 -0.3037
  403MOL0     C54281   3.424  10.430   7.146 -0.3956  0.1786  0.0833
  403MOL0     C54282   3.289  10.475   7.181  0.8679 -0.6506  0.1717
  403MOL0     C54283   3.243  10.428   7.318 -0.2188 -0.1427  0.2407
  403MOL0     C54284   3.304  10.523   7.432  1.5098 -0.8711  0.5505
  403MOL0     C54285   3.310  10.452   7.562 -0.4820 -0.8611  0.2322
  403MOL0     C54286   3.184  10.457   7.647  0.3452 -0.4994 -0.1984
  403MOL0     N54287   3.181  10.368   7.766  0.3224 -0.2808 -0.2120
  403MOL0     C54288   3.287  10.336   7.843  0.4696 -0.4762  0.6045
  403MOL0     C54289   3.257  10.222   7.902  0.5546  0.4185  0.4827
  403MOL0     C54290   3.340  10.147   8.012 -0.2265  0.1216  0.1254
  403MOL0     C54291   3.386  10.001   7.976  0.8844 -0.8483  0.3496
  403MOL0     C54292   3.498  10.001   7.880 -0.4758  0.5822 -0.6094
  403MOL0     C54293   3.527   9.855   7.823 -0.1532  0.4615  0.7276
  403MOL0     O54294   3.641   9.853   7.731  0.4837  0.0025 -0.0509
  403MOL0     C54295   3.693   9.731   7.685 -0.3271 -0.7264  0.0494
  403MOL0     C54296   3.616   9.614   7.680  0.1430 -0.5244 -0.2836
  403MOL0     C54297   3.668   9.498   7.638  0.5712  0.3401  0.2817
  403MOL0     C54298   3.796   9.492   7.583  0.5619  1.0529 -1.1774
  403MOL0     C54299   3.844   9.373   7.524 -0.1599  0.5682 -0.0589
  403MOL0     O54300   3.748   9.287   7.491  0.1867  0.3207  0.5646
  403MOL0     C54301   3.798   9.165   7.457 -0.1925  0.8670 -0.1934
  403MOL0     C54302   3.815   9.068   7.559 -0.0735 -0.5767  0.0622
  403MOL0     C54303   3.852   8.936   7.534 -0.0023 -0.4447  0.7372
  403MOL0     C54304   3.872   8.896   7.402  0.0779  0.1309  0.4818
  403MOL0     O54305   3.891   8.765   7.367 -0.3926  0.1546 -0.1000
  403MOL0     C54306   3.990   8.730   7.265 -0.5339 -0.3635  0.6156
  403MOL0     C54307   3.999   8.579   7.251 -0.1900  0.2007  0.3551
  403MOL0     C54308   4.127   8.531   7.178 -0.2779 -0.7843 -0.0690
  403MOL0     C54309   4.109   8.382   7.132 -0.1856  0.3369 -0.2026
  403MOL0     C54310   4.097   8.287   7.250  0.3334 -0.4994 -0.5817
  403MOL0     C54311   4.098   8.140   7.213  0.6305  0.5691  0.0581
  403MOL0     C54312   4.045   8.055   7.337 -0.2567 -0.6305  0.2134
  403MOL0     C54313   4.070   7.905   7.314 -0.0692  0.4192 -0.1415
  403MOL0    Cl54314   3.955   7.852   7.182 -0.1440 -0.0514 -0.0288
  403MOL0     C54315   3.865   8.995   7.298 -0.1949 -0.1251 -0.1450
  403MOL0     C54316   3.833   9.127   7.325  0.0942  0.5426  0.2668
  403MOL0     O54317   3.968   9.351   7.525  0.1536 -0.5396 -0.7976
  403MOL0     C54318   3.861   9.612   7.581 -1.2347  0.6269  0.5490
  403MOL0     C54319   3.815   9.733   7.627  0.7905 -0.3649  0.1136
  403MOL0     N54320   3.130  10.181   7.868 -0.9832 -0.0340  0.3190
  403MOL0     N54321   3.075  10.273   7.790  0.1296  0.3363  0.1333
  403MOL0     C54322   3.905  10.506   6.918 -0.1576 -0.7227 -0.4064
  403MOL0     C54323   4.040  10.461   6.893  0.0959 -0.6061 -0.1362
  403MOL0     C54324   4.438  10.288   6.820 -0.5123 -0.4130 -0.0251
  403MOL0     C54325   4.518  10.369   6.913 -0.1280 -0.7466  0.1374
  403MOL0     C54326   4.664  10.370   6.907 -0.5797 -0.1246  0.0704
  403MOL0     C54327   4.730  10.285   6.821 -0.4637 -0.5727  0.3511
  403MOL0     O54328   4.864  10.287   6.805 -0.0399 -0.5569  0.0300
  403MOL0     C54329   4.944  10.329   6.918 -0.2833  0.4170 -0.1912
  403MOL0     C54330   5.087  10.321   6.867 -0.4686 -0.9158  0.5455
  403MOL0     C54331   5.154  10.193   6.820  0.4005  0.4724 -0.6159
  403MOL0     C54332   5.302  10.228   6.786 -0.2434  0.8153  0.2637
  403MOL0     C54333   5.397  10.118   6.743  0.9951  0.3974  0.4981
  403MOL0     C54334   5.488  10.046   6.720 -0.0648  0.5479  0.0703
  403MOL0     C54335   4.657  10.202   6.740 -0.3158 -0.4681 -0.2097
  403MOL0     C54336   4.512  10.208   6.729 -0.0375 -0.7754 -0.7866
  403MOL0     C54337   4.450  10.119   6.632 -0.5260  0.3525 -0.5838
  403MOL0     H54338   4.026  10.149   7.015 -0.9166 -0.8391  0.2340
  403MOL0     H54339   3.789  10.223   7.058 -1.6998  3.1193  3.6933
  403MOL0     H54340   3.592  10.450   6.843 -0.2104 -2.3874 -0.6720
  403MOL0     H54341   3.593  10.297   6.926  0.8800 -0.9170  0.3956
  403MOL0     H54342   3.386  10.350   6.962  2.0191 -3.8570  2.9626
  403MOL0     H54343   3.405  10.530   6.961 -2.1832 -0.3290  1.0220
  403MOL0     H54344   3.495  10.493   7.201 -1.3763 -0.6516  2.4328
  403MOL0     H54345   3.430  10.328   7.185 -1.3952  0.7642  1.8991
  403MOL0     H54346   3.293  10.584   7.182  0.4090 -0.6343  0.7585
  403MOL0     H54347   3.218  10.423   7.116  0.4671 -3.0099  2.3054
  403MOL0     H54348   3.136  10.447   7.321  0.2620  3.8496 -1.8998
  403MOL0     H54349   3.276  10.325   7.337 -0.1805  0.1010  1.5975
  403MOL0     H54350   3.402  10.563   7.405  0.8329  0.0975 -0.5616
  403MOL0     H54351   3.229  10.602   7.434  3.4779  1.1028  0.9119
  403MOL0     H54352   3.377  10.515   7.623 -0.7060  0.9690 -1.3080
  403MOL0     H54353   3.371  10.362   7.558  0.7590 -0.0322 -0.3127
  403MOL0     H54354   3.177  10.561   7.679 -0.0529 -0.1821 -1.2744
  403MOL0     H54355   3.099  10.441   7.580  0.5813  0.8883 -0.8552
  403MOL0     H54356   3.382  10.386   7.864  1.4156 -1.4226 -1.1978
  403MOL0     H54357   3.427  10.209   8.037 -1.5580  2.3469 -0.4411
  403MOL0     H54358   3.276  10.145   8.101 -0.4033  1.8110  0.0735
  403MOL0     H54359   3.423   9.953   8.067 -2.2128  2.2883  3.6029
  403MOL0     H54360   3.296   9.960   7.930 -0.6964  2.1615  0.4748
  403MOL0     H54361   3.584  10.025   7.943  2.6942 -1.1809 -3.9087
  403MOL0     H54362   3.489  10.084   7.809 -5.5601  0.0533 -0.9618
  403MOL0     H54363   3.434   9.813   7.786  1.0290 -1.4603 -0.2395
  403MOL0     H54364   3.547   9.786   7.905 -1.9646 -2.6466 -1.2587
  403MOL0     H54365   3.512   9.597   7.709  0.0881  0.4171  0.0983
  403MOL0     H54366   3.621   9.400   7.632 -2.0570  1.5659 -0.6194
  403MOL0     H54367   3.796   9.112   7.656 -1.6724  2.4348 -1.4763
  403MOL0     H54368   3.846   8.867   7.618  1.8744 -0.7652  0.6437
  403MOL0     H54369   3.963   8.776   7.170 -0.3672 -0.7457  0.3765
  403MOL0     H54370   4.086   8.780   7.278 -1.5139  2.3526 -1.5165
  403MOL0     H54371   3.987   8.539   7.352 -0.0163  0.4899  0.4924
  403MOL0     H54372   3.919   8.558   7.180 -1.5333  0.6408  1.7032
  403MOL0     H54373   4.150   8.602   7.098 -3.2824 -0.8278 -1.1194
  403MOL0     H54374   4.207   8.530   7.253  0.0304 -1.1136 -0.3973
  403MOL0     H54375   4.199   8.355   7.077  0.3282 -2.0608  1.6710
  403MOL0     H54376   4.020   8.375   7.070  0.5094  1.0381 -1.3123
  403MOL0     H54377   3.998   8.308   7.290 -0.0426 -1.3471 -1.0543
  403MOL0     H54378   4.179   8.313   7.318  0.2852 -0.8677 -0.3787
  403MOL0     H54379   4.034   8.125   7.126  0.7007  1.4019 -0.1423
  403MOL0     H54380   4.202   8.123   7.186  0.8969  2.7137 -0.4288
  403MOL0     H54381   3.940   8.081   7.349  0.9422  4.5003  2.1394
  403MOL0     H54382   4.098   8.093   7.424 -1.2857 -0.1071  0.6264
  403MOL0     H54383   4.172   7.878   7.286 -0.5910 -1.6949 -0.1334
  403MOL0     H54384   4.042   7.853   7.406 -2.6744 -0.8220 -1.5304
  403MOL0     H54385   3.869   8.966   7.193  0.3947 -2.8762  0.5509
  403MOL0     H54386   3.823   9.202   7.247 -3.2537 -0.2107 -0.1883
  403MOL0     H54387   3.957   9.607   7.531 -2.0178 -5.5155 -1.2558
  403MOL0     H54388   3.870   9.826   7.627  0.3482 -0.0780  1.3704
  403MOL0     H54389   3.884  10.611   6.902  4.8381  0.4208 -1.0149
  403MOL0     H54390   4.114  10.534   6.860  0.1020 -1.1836 -1.4809
  403MOL0     H54391   4.467  10.428   6.988 -2.7842  0.3915 -2.3714
  403MOL0     H54392   4.723  10.428   6.978 -0.9922 -2.9552  2.9890
  403MOL0     H54393   4.927  10.271   7.010  1.2310  0.9279  0.4473
  403MOL0     H54394   4.934  10.432   6.952  0.7788  0.5353 -0.2008
  403MOL0     H54395   5.151  10.362   6.946 -0.9432 -1.3535  1.1617
  403MOL0     H54396   5.095  10.379   6.775 -0.6273 -4.1224 -1.6660
  403MOL0     H54397   5.106  10.160   6.727 -2.6662  0.0014  1.0207
  403MOL0     H54398   5.151  10.110   6.891 -4.5924 -1.1580 -2.3574
  403MOL0     H54399   5.308  10.309   6.714 -1.5670 -0.1808 -1.0326
  403MOL0     H54400   5.346  10.281   6.871  1.1744 -0.1090  0.1410
  403MOL0     H54401   5.575   9.986   6.704  0.8526  1.5309  1.1587
  403MOL0     H54402   4.712  10.147   6.665 -2.9464 -0.2101 -2.5040
  403MOL0     H54403   4.406  10.177   6.550 -1.2915  2.1829  1.0564
  403MOL0     H54404   4.524  10.058   6.579 -0.8989  0.0897 -0.8046
  403MOL0     H54405   4.375  10.066   6.692  2.2542 -0.5088  2.4284
  404MOL0     O54406   5.965  10.965   9.508  0.0553  0.0660  0.2277
  404MOL0     C54407   6.034  10.877   9.450  1.3856 -0.0249 -0.0989
  404MOL0     O54408   5.991  10.792   9.348  0.1739 -0.5469  0.4145
  404MOL0     C54409   5.860  10.766   9.323  0.5972 -0.8666  1.0600
  404MOL0     C54410   5.762  10.756   9.419 -0.1943 -0.1255  0.6160
  404MOL0     C54411   5.630  10.715   9.385  0.0805  0.1891 -0.0385
  404MOL0     C54412   5.583  10.681   9.261 -0.1291  0.2386  0.2788
  404MOL0     O54413   5.457  10.634   9.222 -0.2850 -0.7744 -0.0472
  404MOL0     C54414   5.455  10.496   9.209 -0.4222 -0.3440  0.4061
  404MOL0     C54415   5.484  10.413   9.335 -0.5045 -0.1134 -0.4423
  404MOL0     C54416   5.353  10.420   9.422 -0.0505  1.1161 -0.5772
  404MOL0     C54417   5.231  10.350   9.359 -0.8753 -0.9998  0.9264
  404MOL0     C54418   5.146  10.278   9.465 -0.3669  0.7278  1.2116
  404MOL0     C54419   5.033  10.209   9.387 -0.2643  0.6113  0.0677
  404MOL0     C54420   4.988  10.081   9.440  0.8222 -0.0201 -0.2272
  404MOL0     C54421   4.851  10.097   9.519 -0.2631 -0.3047 -0.3108
  404MOL0     N54422   4.802   9.968   9.580 -0.5132 -0.2615 -0.1248
  404MOL0     C54423   4.673   9.918   9.564 -1.2559 -0.0147 -0.1172
  404MOL0     C54424   4.680   9.805   9.647  0.4891 -0.4970  0.0473
  404MOL0     C54425   4.568   9.716   9.684  0.5491  0.0328 -0.2375
  404MOL0     C54426   4.583   9.655   9.825  0.7667  0.4554 -0.3453
  404MOL0     C54427   4.477   9.558   9.866 -0.0635 -0.0629 -0.0040
  404MOL0     C54428   4.500   9.512  10.010 -0.9986 -0.6879 -0.4444
  404MOL0     O54429   4.409   9.407  10.052 -0.4346 -0.0045  1.2133
  404MOL0     C54430   4.400   9.389  10.185  1.3140 -0.5601  0.1541
  404MOL0     C54431   4.464   9.445  10.293  0.2311 -0.1717  0.5229
  404MOL0     C54432   4.449   9.403  10.426 -0.0291 -0.1508 -0.0800
  404MOL0     C54433   4.337   9.333  10.457  0.8742  0.0995 -0.0167
  404MOL0     C54434   4.292   9.315  10.602 -0.6176  0.0393  0.1854
  404MOL0     O54435   4.386   9.348  10.694 -0.1747  0.7222 -0.2082
  404MOL0     C54436   4.376   9.312  10.825  0.6824  0.6238  0.7768
  404MOL0     C54437   4.294   9.384  10.912  1.4173  1.1220 -0.4013
  404MOL0     C54438   4.280   9.328  11.050  0.2819  0.0235  0.7387
  404MOL0     C54439   4.345   9.213  11.089  0.6643 -0.3541 -0.4686
  404MOL0     O54440   4.342   9.177  11.217  0.1719  0.1399 -0.3649
  404MOL0     C54441   4.387   9.043  11.260  0.0864 -0.0363  0.2742
  404MOL0     C54442   4.370   9.019  11.411  0.1452 -1.4317 -0.1531
  404MOL0     C54443   4.227   9.054  11.461 -0.1804  0.4223 -0.9020
  404MOL0     C54444   4.211   9.006  11.610 -0.1064 -0.1992 -0.2032
  404MOL0     C54445   4.068   9.016  11.667  0.2062  0.9622 -0.6739
  404MOL0     C54446   4.072   8.962  11.814 -0.8205 -0.9768 -0.3818
  404MOL0     C54447   3.942   8.976  11.877 -0.4643  0.7790 -0.2279
  404MOL0     C54448   3.941   8.976  12.033  0.4179 -0.6698  0.8184
  404MOL0    Cl54449   4.002   8.824  12.106  0.1583  0.6212 -0.3715
  404MOL0     C54450   4.423   9.152  10.996 -0.1132  0.7004  0.7559
  404MOL0     C54451   4.449   9.207  10.872  0.5858  0.9678 -0.1210
  404MOL0     O54452   4.179   9.279  10.624  0.2836 -0.2666 -0.4591
  404MOL0     C54453   4.256   9.290  10.349 -0.3198  0.1339 -0.5189
  404MOL0     C54454   4.290   9.315  10.216 -0.7090  0.4387  0.1347
  404MOL0     N54455   4.805   9.785   9.697 -0.0354  0.1494  1.2392
  404MOL0     N54456   4.873   9.886   9.657 -0.1182 -0.5491  0.6646
  404MOL0     C54457   5.687  10.683   9.163  1.3738 -0.3403 -0.0456
  404MOL0     C54458   5.819  10.716   9.200  0.4525  0.5066  0.5001
  404MOL0     C54459   6.171  10.859   9.495 -1.2159 -0.2515 -0.8026
  404MOL0     C54460   6.277  10.820   9.414 -0.5282  0.1569  0.2384
  404MOL0     C54461   6.408  10.807   9.456 -0.9281 -0.3696 -0.3720
  404MOL0     C54462   6.447  10.851   9.584  0.7435 -0.6442  0.9127
  404MOL0     O54463   6.571  10.831   9.631 -0.1180 -0.8617 -0.1512
  404MOL0     C54464   6.671  10.861   9.539  0.3309 -0.4444 -0.3243
  404MOL0     C54465   6.792  10.904   9.602 -0.9607  0.5284 -0.8800
  404MOL0     C54466   6.903  10.976   9.514 -0.0433 -0.7127 -0.3631
  404MOL0     C54467   7.028  11.020   9.594 -0.7624  0.6375  0.1785
  404MOL0     C54468   7.118  10.909   9.617  1.7802 -0.2519 -0.9618
  404MOL0     C54469   7.198  10.813   9.610 -0.1407  0.4281 -0.6782
  404MOL0     C54470   6.343  10.892   9.671  0.2757 -0.0851 -0.3888
  404MOL0     C54471   6.208  10.886   9.634  0.4162 -0.1563  0.2358
  404MOL0     C54472   6.103  10.914   9.740 -1.0233  0.7185  0.2702
  404MOL0     H54473   5.785  10.765   9.525 -0.8622 -0.7286  0.8192
  404MOL0     H54474   5.566  10.683   9.467 -0.9829  1.6957 -0.2487
  404MOL0     H54475   5.352  10.468   9.182 -1.8864  4.3631  0.1543
  404MOL0     H54476   5.524  10.479   9.126 -0.1283  1.7037  0.1938
  404MOL0     H54477   5.574  10.435   9.392 -0.1233  0.3320 -1.2107
  404MOL0     H54478   5.496  10.310   9.300 -1.3973  0.5196 -2.8411
  404MOL0     H54479   5.336  10.525   9.445 -1.4580  1.4405 -2.8178
  404MOL0     H54480   5.380  10.370   9.516 -2.2716 -0.2162 -0.6005
  404MOL0     H54481   5.168  10.419   9.302  0.2331  0.4130  1.3449
  404MOL0     H54482   5.268  10.281   9.283 -3.3825  1.9424 -3.3804
  404MOL0     H54483   5.194  10.201   9.527 -1.6436  1.9856  3.9602
  404MOL0     H54484   5.106  10.345   9.542  2.4889  4.1349 -0.0141
  404MOL0     H54485   4.956  10.280   9.357 -0.0879  1.1419  0.8522
  404MOL0     H54486   5.078  10.181   9.292 -0.1600 -0.1618  0.3328
  404MOL0     H54487   5.068  10.036   9.499  0.1974 -0.4979  0.2771
  404MOL0     H54488   4.962  10.006   9.364  1.6457 -0.7198  0.1707
  404MOL0     H54489   4.856  10.176   9.595  1.5645 -1.0185  0.3641
  404MOL0     H54490   4.777  10.125   9.444 -0.4999  1.5538  0.5391
  404MOL0     H54491   4.586   9.956   9.511 -3.5987 -0.2502  3.2480
  404MOL0     H54492   4.478   9.777   9.677  1.9923  2.1100 -1.9355
  404MOL0     H54493   4.568   9.635   9.610  0.2427 -1.7199  1.5945
  404MOL0     H54494   4.683   9.609   9.830  0.1894 -0.7845  0.1944
  404MOL0     H54495   4.580   9.738   9.896 -0.8975 -0.3170  0.5259
  404MOL0     H54496   4.475   9.472   9.798 -3.1352 -0.1488  0.0588
  404MOL0     H54497   4.374   9.593   9.853 -1.5020 -3.1945  1.7689
  404MOL0     H54498   4.481   9.600  10.071  0.9393 -1.5841  1.6058
  404MOL0     H54499   4.600   9.472  10.029 -1.3397 -0.7638  1.3451
  404MOL0     H54500   4.535   9.522  10.263  0.1424 -0.5350 -0.6812
  404MOL0     H54501   4.517   9.441  10.501  0.0659  4.3356 -2.1247
  404MOL0     H54502   4.246   9.469  10.867  0.1641  0.0715 -1.1246
  404MOL0     H54503   4.207   9.371  11.117  0.5240 -0.6252  1.4334
  404MOL0     H54504   4.337   8.966  11.200 -1.2286  1.1446 -0.2151
  404MOL0     H54505   4.488   9.020  11.226 -0.1202  2.6732 -2.5652
  404MOL0     H54506   4.390   8.913  11.430  0.4020 -1.1923  0.9999
  404MOL0     H54507   4.448   9.070  11.469  0.0013  0.8222 -1.8193
  404MOL0     H54508   4.205   9.161  11.456  0.2494  0.4693 -4.4831
  404MOL0     H54509   4.161   9.002  11.390 -1.8051  1.6563 -0.3623
  404MOL0     H54510   4.285   9.046  11.680  0.2649 -0.0345 -0.6903
  404MOL0     H54511   4.215   8.896  11.605 -4.7113 -0.5088 -1.8928
  404MOL0     H54512   3.995   8.959  11.609  2.4993 -1.3251 -1.4941
  404MOL0     H54513   4.036   9.120  11.667  0.7769  1.1587  0.8749
  404MOL0     H54514   4.089   8.854  11.819  0.8453 -0.6884  2.8938
  404MOL0     H54515   4.150   9.013  11.872  1.2548 -3.9059 -0.3836
  404MOL0     H54516   3.883   8.889  11.845  0.4160  0.7456 -1.8733
  404MOL0     H54517   3.887   9.060  11.835 -1.4639  0.5017  0.5033
  404MOL0     H54518   4.006   9.057  12.066  2.8177 -3.2397  2.9700
  404MOL0     H54519   3.845   8.997  12.080  0.9918  3.0460  0.6008
  404MOL0     H54520   4.485   9.069  11.028  0.7464 -0.2537 -2.9093
  404MOL0     H54521   4.516   9.155  10.805 -1.2370 -1.7807  0.0415
  404MOL0     H54522   4.167   9.233  10.374 -0.2226  0.9804  2.0315
  404MOL0     H54523   4.228   9.274  10.137 -1.4609  1.6976  0.0343
  404MOL0     H54524   5.679  10.658   9.058  0.8234  0.5658 -0.2234
  404MOL0     H54525   5.895  10.698   9.125 -1.0066  2.5778 -1.6329
  404MOL0     H54526   6.248  10.795   9.313 -6.3260  0.9455  1.3611
  404MOL0     H54527   6.482  10.755   9.396  3.3981 -0.4516  4.3864
  404MOL0     H54528   6.644  10.941   9.470 -1.2057  0.6775  1.5104
  404MOL0     H54529   6.694  10.771   9.481  0.4367 -0.2971 -0.5132
  404MOL0     H54530   6.840  10.819   9.651  0.7298  1.1429 -1.4046
  404MOL0     H54531   6.763  10.982   9.674 -1.5108 -2.0741  1.9402
  404MOL0     H54532   6.860  11.059   9.457  0.0654  0.7756  1.6146
  404MOL0     H54533   6.942  10.901   9.444  0.6136  0.6724 -1.5219
  404MOL0     H54534   7.080  11.099   9.539  0.6899  1.2137  2.2879
  404MOL0     H54535   6.984  11.059   9.686 -1.0766 -0.9741  0.7509
  404MOL0     H54536   7.286  10.752   9.607  0.3601  1.1903 -1.8598
  404MOL0     H54537   6.369  10.925   9.771 -0.5643  2.0630 -0.8205
  404MOL0     H54538   6.146  10.911   9.841 -0.8332 -1.5675  0.1584
  404MOL0     H54539   6.065  11.014   9.717 -0.4072  1.3603  1.8337
  404MOL0     H54540   6.017  10.847   9.740 -3.6388  3.6465 -3.6960
  405MOL0     O54541   2.620   5.238   6.667 -0.9994 -0.0697  1.0602
  405MOL0     C54542   2.649   5.359   6.671  0.2033 -0.3111  0.4834
  405MOL0     O54543   2.673   5.445   6.565  0.2141 -0.2812 -0.1801
  405MOL0     C54544   2.665   5.390   6.438  0.0466 -0.2403  0.7152
  405MOL0     C54545   2.757   5.302   6.379 -0.1423 -0.7677  0.2156
  405MOL0     C54546   2.740   5.237   6.259  0.0147 -0.1860  0.4304
  405MOL0     C54547   2.627   5.266   6.189  0.3438 -0.0462  0.3601
  405MOL0     O54548   2.600   5.240   6.058  0.2182 -0.4869 -0.7554
  405MOL0     C54549   2.673   5.128   5.997 -0.0482 -0.4041 -0.1268
  405MOL0     C54550   2.596   5.061   5.885  0.4049  0.6265 -0.3327
  405MOL0     C54551   2.636   4.915   5.848  0.3598  0.5212  0.1486
  405MOL0     C54552   2.555   4.851   5.725 -0.3772  0.1606 -0.0490
  405MOL0     C54553   2.563   4.925   5.595  0.1948  0.1184  0.9857
  405MOL0     C54554   2.704   4.900   5.532  0.2097  0.5313  0.7232
  405MOL0     C54555   2.730   4.997   5.415  0.4404  0.0078  0.9389
  405MOL0     C54556   2.885   5.032   5.399  0.3793  0.2684  0.7189
  405MOL0     N54557   2.932   5.074   5.272 -0.2519 -0.0104  0.3732
  405MOL0     C54558   2.862   5.158   5.183 -0.2606  0.5417  0.2885
  405MOL0     C54559   2.942   5.157   5.075  0.7415 -0.0180 -0.3574
  405MOL0     C54560   2.908   5.221   4.942  0.0476 -0.0829 -0.5829
  405MOL0     C54561   2.805   5.131   4.867 -0.4219 -0.1579 -0.0882
  405MOL0     C54562   2.882   5.018   4.805  0.6659 -0.2530  0.1170
  405MOL0     C54563   2.880   4.887   4.898 -0.1284  0.1866  0.0253
  405MOL0     O54564   2.749   4.831   4.915  0.0514 -0.5297 -0.2121
  405MOL0     C54565   2.732   4.768   5.039  0.4577 -0.1350 -0.0125
  405MOL0     C54566   2.827   4.686   5.102  0.5323 -0.1349 -0.5615
  405MOL0     C54567   2.802   4.626   5.228 -0.6385  0.0055  0.0615
  405MOL0     C54568   2.689   4.637   5.293  0.9953 -0.3538  0.6259
  405MOL0     C54569   2.658   4.562   5.411  0.7886 -0.6208 -0.8462
  405MOL0     O54570   2.527   4.548   5.438  0.4064  0.0944  0.6124
  405MOL0     C54571   2.466   4.490   5.551 -1.0701  0.4119 -0.0773
  405MOL0     C54572   2.484   4.350   5.583 -0.4473 -0.0888  0.5970
  405MOL0     C54573   2.438   4.298   5.716 -0.2795  0.8389  0.0995
  405MOL0     C54574   2.357   4.385   5.798  0.0120 -0.8910  1.4898
  405MOL0     O54575   2.313   4.348   5.921  0.3377  0.1622  0.1223
  405MOL0     C54576   2.333   4.215   5.964 -0.2290 -0.2905  0.2585
  405MOL0     C54577   2.256   4.203   6.099 -0.2222  0.1742  0.0117
  405MOL0     C54578   2.105   4.256   6.092 -0.2310  0.3909 -0.1676
  405MOL0     C54579   2.105   4.387   6.171  0.0742 -0.1136  0.2809
  405MOL0     C54580   1.965   4.449   6.160  0.0643  0.3485  0.2465
  405MOL0     C54581   1.849   4.350   6.204 -0.3292  0.4843 -1.7889
  405MOL0     C54582   1.712   4.422   6.199  0.6257 -0.4696  0.4528
  405MOL0     C54583   1.570   4.349   6.231 -0.4019 -0.8827 -1.0039
  405MOL0    Cl54584   1.527   4.231   6.102  0.2106 -0.0946 -0.1906
  405MOL0     C54585   2.337   4.516   5.753  1.0033 -0.1931  0.4982
  405MOL0     C54586   2.385   4.571   5.630  0.2141  0.9394 -0.0768
  405MOL0     O54587   2.747   4.493   5.463 -0.5576  0.0711 -0.2978
  405MOL0     C54588   2.583   4.712   5.231  0.7572 -0.3307  0.8313
  405MOL0     C54589   2.610   4.777   5.105  0.2025 -0.0346 -0.2682
  405MOL0     N54590   3.049   5.074   5.086 -0.4456 -0.4520  0.0544
  405MOL0     N54591   3.045   5.022   5.204  0.5687 -0.6900  0.4573
  405MOL0     C54592   2.534   5.348   6.246  0.3041 -0.7780 -0.4534
  405MOL0     C54593   2.549   5.409   6.366 -0.2292 -0.4171 -1.1743
  405MOL0     C54594   2.646   5.421   6.803 -0.2837 -0.3596  0.3308
  405MOL0     C54595   2.551   5.369   6.893  0.2437 -0.4204  0.3235
  405MOL0     C54596   2.517   5.434   7.008  0.5834  0.0394  0.0317
  405MOL0     C54597   2.593   5.543   7.052  0.8295 -0.1931 -0.4586
  405MOL0     O54598   2.549   5.610   7.163 -0.2755 -0.0430  0.2681
  405MOL0     C54599   2.638   5.687   7.247 -0.5739  0.6032 -0.3163
  405MOL0     C54600   2.625   5.837   7.220  0.0534  0.5821  0.2148
  405MOL0     C54601   2.475   5.869   7.194 -0.3565 -0.5269  0.2847
  405MOL0     C54602   2.421   5.904   7.327  1.0228 -0.0527 -0.2184
  405MOL0     C54603   2.273   5.936   7.324  0.2132 -0.2820  0.4736
  405MOL0     C54604   2.158   5.968   7.289  0.5661  0.6193 -0.0624
  405MOL0     C54605   2.696   5.593   6.975 -0.2609  0.8538  0.1747
  405MOL0     C54606   2.721   5.534   6.849  0.0939  0.7093 -0.3617
  405MOL0     C54607   2.825   5.586   6.764  0.4309 -0.3025  0.4766
  405MOL0     H54608   2.851   5.279   6.427  0.8832 -0.4188 -1.5074
  405MOL0     H54609   2.826   5.177   6.230  1.8543  1.9525  1.1419
  405MOL0     H54610   2.760   5.177   5.954 -0.5865 -1.5681 -2.7488
  405MOL0     H54611   2.698   5.059   6.079  1.5690 -0.8726 -0.9769
  405MOL0     H54612   2.593   5.132   5.802 -4.0330  1.4214  0.2908
  405MOL0     H54613   2.493   5.053   5.920  0.2643  1.7671 -0.4380
  405MOL0     H54614   2.624   4.847   5.933  3.8790 -1.7255 -0.9301
  405MOL0     H54615   2.745   4.904   5.839  0.6488  2.5337  0.7331
  405MOL0     H54616   2.581   4.745   5.719 -1.2113 -0.3100  2.9512
  405MOL0     H54617   2.453   4.834   5.759 -0.1880 -1.7461 -0.3301
  405MOL0     H54618   2.489   4.884   5.525 -0.2650 -3.3482  3.2647
  405MOL0     H54619   2.548   5.032   5.611  0.4843  0.0781  1.5460
  405MOL0     H54620   2.775   4.935   5.608  1.2911  0.8730 -0.4093
  405MOL0     H54621   2.729   4.794   5.526 -1.2935  0.2101 -0.2969
  405MOL0     H54622   2.684   5.096   5.421  2.4350  1.0666 -0.0983
  405MOL0     H54623   2.702   4.946   5.322 -0.1131  2.4387 -0.2954
  405MOL0     H54624   2.919   5.093   5.484 -0.6856  1.8237  0.0614
  405MOL0     H54625   2.933   4.933   5.403 -2.3028 -1.0908  1.1526
  405MOL0     H54626   2.761   5.197   5.178 -0.5948 -0.2488  0.7391
  405MOL0     H54627   2.867   5.316   4.977  1.2105  0.6206 -1.0709
  405MOL0     H54628   3.001   5.249   4.892 -0.6859  4.8127  0.3019
  405MOL0     H54629   2.738   5.091   4.944  0.9628  1.7752  2.2946
  405MOL0     H54630   2.749   5.191   4.796 -0.1101  0.5716  0.2688
  405MOL0     H54631   2.982   5.052   4.776  1.7358 -0.8692  2.7508
  405MOL0     H54632   2.837   4.978   4.714  1.7790  1.5454 -1.2971
  405MOL0     H54633   2.930   4.904   4.994  1.2408 -0.0477 -0.6194
  405MOL0     H54634   2.941   4.809   4.850 -0.2964  1.3859 -2.2829
  405MOL0     H54635   2.927   4.677   5.061  2.2497  0.7493  3.0300
  405MOL0     H54636   2.877   4.554   5.259  0.8617  1.6951  0.5229
  405MOL0     H54637   2.537   4.301   5.502  3.3816  5.0571 -0.5450
  405MOL0     H54638   2.446   4.196   5.752 -4.5562  1.4449  3.8055
  405MOL0     H54639   2.289   4.136   5.903  1.2364 -1.3921  0.5835
  405MOL0     H54640   2.440   4.197   5.974  0.1605 -1.0227 -3.7362
  405MOL0     H54641   2.258   4.099   6.131 -1.5736  0.0669 -0.1880
  405MOL0     H54642   2.318   4.261   6.168 -1.2747 -1.5191  2.5014
  405MOL0     H54643   2.075   4.281   5.990  0.2924 -0.9861 -0.6712
  405MOL0     H54644   2.035   4.185   6.137  1.3992 -1.3117 -0.2056
  405MOL0     H54645   2.174   4.455   6.121 -2.5831  2.2020 -0.5262
  405MOL0     H54646   2.145   4.358   6.269  2.6937 -2.4598 -1.3314
  405MOL0     H54647   1.940   4.475   6.056  0.5928 -2.5131 -0.6923
  405MOL0     H54648   1.970   4.542   6.218  1.0442  1.0064 -0.8182
  405MOL0     H54649   1.851   4.259   6.142 -0.2773 -2.3333  1.9945
  405MOL0     H54650   1.853   4.327   6.311  1.0244  2.5929 -1.3395
  405MOL0     H54651   1.708   4.479   6.106  0.0994  0.4615  1.0317
  405MOL0     H54652   1.723   4.501   6.275  2.7723 -0.6800  0.4368
  405MOL0     H54653   1.588   4.298   6.326  1.8012 -0.8462 -1.3531
  405MOL0     H54654   1.495   4.428   6.233  0.6578  0.1448 -0.9262
  405MOL0     H54655   2.290   4.588   5.820  1.2508 -1.4276  2.0644
  405MOL0     H54656   2.356   4.673   5.605  2.7571  1.5129 -1.0068
  405MOL0     H54657   2.488   4.727   5.282  0.7185  0.2730  0.5979
  405MOL0     H54658   2.540   4.849   5.063 -0.5853 -1.3270 -1.2170
  405MOL0     H54659   2.446   5.374   6.187  1.8842  0.8887 -2.1910
  405MOL0     H54660   2.482   5.479   6.415 -1.4129 -0.6471 -2.4138
  405MOL0     H54661   2.491   5.283   6.866 -0.2983  0.1919 -0.4623
  405MOL0     H54662   2.440   5.383   7.064 -0.7740 -0.4243 -2.1348
  405MOL0     H54663   2.741   5.650   7.243 -0.4214  1.1287 -2.7702
  405MOL0     H54664   2.599   5.694   7.349  0.6289  0.2518  0.1839
  405MOL0     H54665   2.690   5.858   7.135  0.7297 -0.5874  0.4261
  405MOL0     H54666   2.660   5.892   7.308  0.3519 -1.2336  1.2834
  405MOL0     H54667   2.418   5.787   7.149  1.4677 -2.6566  1.6338
  405MOL0     H54668   2.470   5.960   7.134  0.2465  0.6610  1.9542
  405MOL0     H54669   2.448   5.829   7.401  0.4507  1.4391  1.5747
  405MOL0     H54670   2.475   5.993   7.360 -0.6973  0.7612  0.5223
  405MOL0     H54671   2.057   5.999   7.272  0.2487 -0.3786 -0.0819
  405MOL0     H54672   2.755   5.673   7.019  0.3906 -0.3753  1.6097
  405MOL0     H54673   2.777   5.638   6.680  1.7698  0.7744  0.3346
  405MOL0     H54674   2.877   5.659   6.827 -0.3343 -1.5401  2.6253
  405MOL0     H54675   2.881   5.508   6.712 -0.6124 -0.8755  0.1985
  406MOL0     O54676   7.044   5.765   9.778 -0.1970 -0.0964 -0.1182
  406MOL0     C54677   6.955   5.689   9.756 -0.4010  0.4704 -0.4422
  406MOL0     O54678   6.923   5.634   9.638  0.3756 -0.2604  0.0532
  406MOL0     C54679   7.016   5.658   9.539  0.3055  0.1342 -0.4926
  406MOL0     C54680   7.133   5.587   9.540  0.7649 -0.6922  0.0376
  406MOL0     C54681   7.223   5.613   9.436  0.0720 -0.2962  0.5311
  406MOL0     C54682   7.193   5.707   9.337 -0.7665 -0.1267 -0.4569
  406MOL0     O54683   7.276   5.732   9.229  0.0530  0.5699  0.0552
  406MOL0     C54684   7.357   5.853   9.222  0.7357  0.6463 -0.6524
  406MOL0     C54685   7.424   5.851   9.093  0.0609  0.2656 -0.2448
  406MOL0     C54686   7.531   5.743   9.076 -0.2973  0.2126  0.4473
  406MOL0     C54687   7.616   5.751   8.947  0.3475 -0.0302 -0.3245
  406MOL0     C54688   7.751   5.687   8.961 -0.9735 -0.2109 -0.1815
  406MOL0     C54689   7.860   5.771   9.016 -0.3925  1.0582 -0.6664
  406MOL0     C54690   7.977   5.678   9.061 -0.7738  0.1446  0.4119
  406MOL0     C54691   8.122   5.731   9.081  1.0778  0.2954  0.1937
  406MOL0     N54692   8.114   5.853   9.151  0.0612 -0.8870 -0.3098
  406MOL0     C54693   8.190   5.973   9.130  0.8979 -0.4388  0.3936
  406MOL0     C54694   8.179   6.028   9.256  0.1786 -0.7195  0.5989
  406MOL0     C54695   8.268   6.141   9.310 -0.6532 -0.0524 -0.2180
  406MOL0     C54696   8.196   6.216   9.425  0.5113 -0.9631 -0.0336
  406MOL0     C54697   8.262   6.344   9.472  0.2111 -0.2011  1.0092
  406MOL0     C54698   8.189   6.425   9.577  0.7092 -0.2979  0.2861
  406MOL0     O54699   8.246   6.561   9.578 -0.8102  0.2472  0.2499
  406MOL0     C54700   8.178   6.640   9.669 -0.0965  0.5339  0.5471
  406MOL0     C54701   8.202   6.775   9.656 -0.0310  0.1995  0.1604
  406MOL0     C54702   8.156   6.865   9.748  0.1804  0.3650 -0.4570
  406MOL0     C54703   8.089   6.819   9.865  0.6035 -0.0261 -0.4945
  406MOL0     C54704   8.033   6.915   9.954 -0.8816 -0.2754 -1.5513
  406MOL0     O54705   8.109   7.029   9.963 -0.2647  0.0230 -0.1388
  406MOL0     C54706   8.074   7.116  10.056 -0.5878 -1.2461  0.7338
  406MOL0     C54707   8.131   7.121  10.180  0.4696  0.0684  0.1177
  406MOL0     C54708   8.089   7.212  10.282  0.1645  0.7760  1.0335
  406MOL0     C54709   7.992   7.305  10.250 -0.1896 -0.3010  0.6792
  406MOL0     O54710   7.954   7.376  10.364 -0.0613 -0.4740 -0.0934
  406MOL0     C54711   7.879   7.499  10.348 -0.6272  0.0090  0.4823
  406MOL0     C54712   7.908   7.595  10.460 -0.5876 -0.5568 -0.0467
  406MOL0     C54713   7.833   7.731  10.448 -0.4329 -0.2188  0.5161
  406MOL0     C54714   7.907   7.829  10.352  0.5769 -0.4031  0.2051
  406MOL0     C54715   7.859   7.974  10.354 -0.7327  1.1691 -0.3053
  406MOL0     C54716   7.873   8.036  10.492  1.2228  0.2369 -0.1825
  406MOL0     C54717   7.847   8.185  10.492 -0.6321  0.1070  0.5440
  406MOL0     C54718   7.979   8.244  10.439  0.3809  0.8540 -0.1831
  406MOL0    Cl54719   7.935   8.418  10.449 -0.0615 -0.1936 -0.0695
  406MOL0     C54720   7.932   7.304  10.122  0.8418 -0.5075  0.0094
  406MOL0     C54721   7.966   7.204  10.028  0.2541 -0.0408 -0.7569
  406MOL0     O54722   7.937   6.877  10.024 -0.6280 -0.8109 -0.2494
  406MOL0     C54723   8.059   6.680   9.876 -1.0025  0.5958  0.2364
  406MOL0     C54724   8.104   6.591   9.782 -1.2673  0.7323 -0.3046
  406MOL0     N54725   8.077   5.971   9.331 -0.3679 -0.5916  0.4107
  406MOL0     N54726   8.054   5.856   9.275  0.4803  1.0160  0.4804
  406MOL0     C54727   7.074   5.790   9.348 -0.8722 -0.3268 -0.0853
  406MOL0     C54728   6.986   5.766   9.452  0.1545  0.7059  0.2101
  406MOL0     C54729   6.888   5.653   9.875 -0.2090 -0.1783 -0.2271
  406MOL0     C54730   6.954   5.599   9.986  0.4051  0.9405  0.0919
  406MOL0     C54731   6.873   5.537  10.090 -0.0101  0.6561  0.9296
  406MOL0     C54732   6.726   5.537  10.089 -0.0196  0.2198 -0.5069
  406MOL0     O54733   6.654   5.478  10.195  0.6158  0.6761  0.2001
  406MOL0     C54734   6.511   5.449  10.180 -1.3576 -0.3077 -0.2029
  406MOL0     C54735   6.450   5.377  10.051 -0.4373 -0.4501 -0.1578
  406MOL0     C54736   6.518   5.242  10.008  0.8686 -0.4473  1.6815
  406MOL0     C54737   6.457   5.204   9.870  0.0902 -0.7814 -0.6925
  406MOL0     C54738   6.520   5.281   9.763  0.2697  0.2333 -0.6057
  406MOL0     C54739   6.579   5.340   9.673  1.0347  0.1438  0.6077
  406MOL0     C54740   6.669   5.598   9.978 -0.1246  0.2762  0.6591
  406MOL0     C54741   6.747   5.660   9.877  1.1180 -0.6321  1.1737
  406MOL0     C54742   6.673   5.734   9.768  0.2569 -0.0009 -0.7901
  406MOL0     H54743   7.155   5.518   9.621  0.4729 -1.0485 -0.1848
  406MOL0     H54744   7.325   5.576   9.425  0.1247  0.0458 -0.1656
  406MOL0     H54745   7.294   5.939   9.244 -0.4595 -0.7513  1.7291
  406MOL0     H54746   7.425   5.841   9.307 -0.5027  0.7934  0.3796
  406MOL0     H54747   7.467   5.951   9.097 -1.5790  0.9498  2.7732
  406MOL0     H54748   7.352   5.848   9.011 -3.0118  0.5231  2.2591
  406MOL0     H54749   7.481   5.646   9.083 -1.4664  0.9090  2.6859
  406MOL0     H54750   7.591   5.752   9.167  1.5085 -2.7698 -0.3098
  406MOL0     H54751   7.554   5.700   8.873 -2.8337  1.7648  0.8661
  406MOL0     H54752   7.622   5.850   8.902 -0.0683 -0.5963 -1.6646
  406MOL0     H54753   7.742   5.596   9.021  1.3030 -0.6250 -0.3863
  406MOL0     H54754   7.793   5.653   8.866 -3.0957 -1.4029 -0.7551
  406MOL0     H54755   7.901   5.855   8.959  2.6751  1.5921  2.0204
  406MOL0     H54756   7.828   5.820   9.108 -2.6206  2.9736 -2.3563
  406MOL0     H54757   7.992   5.600   8.987  1.5014  0.6257  0.2832
  406MOL0     H54758   7.953   5.634   9.158  0.3945 -1.0850  0.1835
  406MOL0     H54759   8.180   5.658   9.139 -0.4379 -0.7774  0.4114
  406MOL0     H54760   8.186   5.740   8.993  2.6807 -0.6835  1.1955
  406MOL0     H54761   8.250   6.009   9.047  1.1281  1.9853  1.5211
  406MOL0     H54762   8.351   6.085   9.356  0.6130 -1.9138 -4.2484
  406MOL0     H54763   8.305   6.206   9.231  1.4418 -1.6552 -0.6631
  406MOL0     H54764   8.101   6.250   9.383 -0.0691 -0.4404  1.6113
  406MOL0     H54765   8.170   6.150   9.509  2.1646 -0.4841  0.8881
  406MOL0     H54766   8.281   6.407   9.385  0.0064 -0.6389  0.6460
  406MOL0     H54767   8.367   6.333   9.503  0.8262 -0.1273 -0.8936
  406MOL0     H54768   8.210   6.379   9.674  2.0569  0.7926  0.5285
  406MOL0     H54769   8.082   6.442   9.561  1.0196 -0.0890 -1.8648
  406MOL0     H54770   8.272   6.799   9.576 -0.9135 -1.4629 -1.1691
  406MOL0     H54771   8.206   6.962   9.749  1.4351  0.0369  5.3770
  406MOL0     H54772   8.215   7.056  10.202 -0.1655 -1.4987 -1.8018
  406MOL0     H54773   8.142   7.210  10.377  3.7772 -0.2528 -0.7870
  406MOL0     H54774   7.903   7.546  10.252  0.5227  2.6407  1.9654
  406MOL0     H54775   7.770   7.496  10.351 -0.7341  1.3296 -0.9981
  406MOL0     H54776   7.875   7.560  10.558 -1.9447  0.4288 -0.1283
  406MOL0     H54777   8.017   7.608  10.469 -0.2947 -1.3116 -2.0557
  406MOL0     H54778   7.725   7.723  10.433 -0.1680 -2.7762 -0.6180
  406MOL0     H54779   7.866   7.775  10.542  2.8114  2.5916 -1.6806
  406MOL0     H54780   7.889   7.797  10.249  0.6070  0.1717  0.0181
  406MOL0     H54781   8.011   7.828  10.385  0.2759 -0.9107  1.1636
  406MOL0     H54782   7.753   7.968  10.325 -0.2965  0.3888 -1.7964
  406MOL0     H54783   7.911   8.030  10.276  1.1779 -3.1790 -2.4541
  406MOL0     H54784   7.799   7.992  10.560  0.9577  3.7934  2.0699
  406MOL0     H54785   7.965   8.009  10.545  0.4005  1.4514  2.0360
  406MOL0     H54786   7.828   8.232  10.589  2.9707  2.6038  0.2240
  406MOL0     H54787   7.774   8.210  10.415  1.8861  2.9416 -1.0959
  406MOL0     H54788   8.071   8.222  10.495 -1.4620 -1.1676  2.2675
  406MOL0     H54789   7.978   8.205  10.337  0.7745 -1.5346  0.6532
  406MOL0     H54790   7.860   7.379  10.089  3.1827  2.2588  0.7979
  406MOL0     H54791   7.919   7.209   9.930 -0.9784  0.5204 -0.1647
  406MOL0     H54792   7.996   6.642   9.957  1.3159  1.5325  2.6434
  406MOL0     H54793   8.078   6.488   9.801  1.0091  0.0114 -0.7053
  406MOL0     H54794   7.053   5.873   9.281 -0.7871 -2.7227 -3.3439
  406MOL0     H54795   6.915   5.843   9.481  2.2761  2.8981 -0.2009
  406MOL0     H54796   7.062   5.609   9.993  0.7879 -1.4987 -1.3138
  406MOL0     H54797   6.921   5.497  10.180  0.0229 -0.1736  0.5538
  406MOL0     H54798   6.455   5.543  10.182  1.9196  1.7953  0.5232
  406MOL0     H54799   6.483   5.385  10.264 -0.7535 -2.2744 -1.4556
  406MOL0     H54800   6.450   5.441   9.963 -3.5075  0.2087  0.2135
  406MOL0     H54801   6.342   5.368  10.069 -0.7264 -0.6126 -1.8696
  406MOL0     H54802   6.490   5.171  10.087  2.0345 -1.8754  0.8507
  406MOL0     H54803   6.626   5.253   9.997  1.0125 -0.6392  2.7456
  406MOL0     H54804   6.471   5.096   9.861 -3.0386 -1.5475  1.9147
  406MOL0     H54805   6.350   5.224   9.860  0.4984  2.3498  0.2637
  406MOL0     H54806   6.641   5.392   9.601  3.0231 -1.5385  1.0059
  406MOL0     H54807   6.564   5.623   9.985 -0.0651  0.2091  2.2208
  406MOL0     H54808   6.729   5.825   9.746 -0.7309  1.1831  1.2907
  406MOL0     H54809   6.644   5.683   9.676 -2.6660  0.0634  0.0124
  406MOL0     H54810   6.581   5.766   9.817  0.7704  1.8726 -0.9604
  407MOL0     O54811   7.900   3.855   6.199  0.0321 -0.6269  0.3895
  407MOL0     C54812   7.929   3.968   6.231 -0.2877  0.3708 -0.5290
  407MOL0     O54813   7.842   4.064   6.267 -0.4854  0.8315 -0.0369
  407MOL0     C54814   7.706   4.038   6.253 -0.9286 -1.7289  0.1688
  407MOL0     C54815   7.646   3.969   6.148 -0.4252  0.1423 -0.1122
  407MOL0     C54816   7.511   3.957   6.137  0.2970 -1.1841 -0.2993
  407MOL0     C54817   7.429   4.011   6.241 -0.1249  0.3135  0.4422
  407MOL0     O54818   7.296   4.012   6.228 -0.4239 -0.2876  0.6599
  407MOL0     C54819   7.224   4.023   6.348  0.6336  0.7293 -0.4156
  407MOL0     C54820   7.083   3.987   6.313 -0.1402  0.4419  0.3781
  407MOL0     C54821   6.987   4.024   6.423 -0.1427 -0.4145  0.0445
  407MOL0     C54822   6.834   3.989   6.388  0.6593 -0.2203 -0.3701
  407MOL0     C54823   6.739   4.076   6.474  0.0719  0.9047 -0.2740
  407MOL0     C54824   6.595   4.073   6.419  0.1271 -0.4650 -0.0154
  407MOL0     C54825   6.547   3.945   6.354 -0.7201 -0.0007 -0.2024
  407MOL0     C54826   6.392   3.937   6.358  0.6008 -0.4547 -0.3566
  407MOL0     N54827   6.335   4.031   6.260  0.5326 -0.1669  0.4172
  407MOL0     C54828   6.320   4.166   6.268  0.1071 -0.1088 -0.3595
  407MOL0     C54829   6.279   4.202   6.144  0.2351  0.5154  0.1500
  407MOL0     C54830   6.270   4.338   6.072 -0.9106  0.6047  0.3189
  407MOL0     C54831   6.417   4.386   6.039 -0.9328 -1.4726  0.1434
  407MOL0     C54832   6.443   4.540   6.078 -0.1357  0.3312 -0.0762
  407MOL0     C54833   6.456   4.554   6.225  0.2449 -0.0589  0.7170
  407MOL0     O54834   6.530   4.455   6.293 -0.1060  0.3038 -0.1919
  407MOL0     C54835   6.667   4.470   6.292  0.1033  0.2803 -0.0871
  407MOL0     C54836   6.741   4.575   6.347 -0.6789 -0.8305 -0.3843
  407MOL0     C54837   6.883   4.577   6.357  0.0847 -0.6865  0.1563
  407MOL0     C54838   6.945   4.460   6.313  0.2105  0.7517  0.1818
  407MOL0     C54839   7.092   4.452   6.331  0.3003  0.0540 -1.4443
  407MOL0     O54840   7.158   4.566   6.359  0.0143 -0.8957  0.1210
  407MOL0     C54841   7.293   4.556   6.390 -0.3745  0.0543 -1.4351
  407MOL0     C54842   7.349   4.655   6.469 -0.0232  0.0682  0.8523
  407MOL0     C54843   7.479   4.651   6.520 -0.5690  0.4174 -0.3809
  407MOL0     C54844   7.568   4.545   6.483 -0.3474  0.4127  0.2369
  407MOL0     O54845   7.688   4.533   6.544 -0.4920  0.1239  0.2648
  407MOL0     C54846   7.764   4.652   6.540 -0.0040  0.2589 -0.5906
  407MOL0     C54847   7.919   4.610   6.501  0.4837 -0.0235  0.4940
  407MOL0     C54848   7.932   4.518   6.372  0.8490  0.3196 -0.4122
  407MOL0     C54849   7.852   4.588   6.257 -0.2880 -0.2194  1.0225
  407MOL0     C54850   7.854   4.512   6.122 -0.1526  0.6163  1.1274
  407MOL0     C54851   7.738   4.540   6.030  0.1272  0.4205 -0.6063
  407MOL0     C54852   7.731   4.442   5.906  0.6199  0.2548 -0.4622
  407MOL0     C54853   7.704   4.296   5.934  0.5224  0.2803 -0.1716
  407MOL0    Cl54854   7.692   4.192   5.777  0.5482  0.1722  0.2416
  407MOL0     C54855   7.525   4.452   6.388  0.4762 -0.0295  0.2730
  407MOL0     C54856   7.392   4.456   6.348  0.9911  0.3121  1.0214
  407MOL0     O54857   7.139   4.337   6.338 -0.5935  0.2018  0.1718
  407MOL0     C54858   6.872   4.359   6.250 -0.1436 -0.4035 -0.1343
  407MOL0     C54859   6.733   4.362   6.246 -0.2919  0.1633  0.6267
  407MOL0     N54860   6.257   4.088   6.064  0.4307 -0.0750 -0.0170
  407MOL0     N54861   6.294   3.989   6.136  0.5715 -0.5138 -0.2851
  407MOL0     C54862   7.486   4.090   6.342 -1.0297  0.0106 -0.1814
  407MOL0     C54863   7.621   4.092   6.348 -1.2332  1.3477 -0.7854
  407MOL0     C54864   8.071   3.991   6.267  0.4407  0.1755  1.0432
  407MOL0     C54865   8.107   4.122   6.276 -0.3647 -0.2355 -0.2016
  407MOL0     C54866   8.240   4.152   6.295  1.0633 -0.1321 -0.3618
  407MOL0     C54867   8.340   4.058   6.318 -0.6938  0.1833  0.7844
  407MOL0     O54868   8.470   4.105   6.344 -0.1571 -0.0733 -0.1617
  407MOL0     C54869   8.578   4.010   6.319  0.3504 -0.3398  0.5827
  407MOL0     C54870   8.715   4.081   6.317 -0.4346 -0.5741  1.2460
  407MOL0     C54871   8.781   4.099   6.452 -0.8592  0.4413  0.9104
  407MOL0     C54872   8.901   4.004   6.477 -1.3772 -0.1219  0.7448
  407MOL0     C54873   8.869   3.864   6.493 -0.0761  0.6239  0.6012
  407MOL0     C54874   8.845   3.753   6.523 -0.6361 -0.0923 -0.0565
  407MOL0     C54875   8.304   3.929   6.305 -0.0617 -0.5908 -0.4880
  407MOL0     C54876   8.172   3.884   6.273  0.5941 -0.1364 -0.4932
  407MOL0     C54877   8.146   3.737   6.284 -0.1487  0.9820  0.3971
  407MOL0     H54878   7.696   3.917   6.067 -1.2602  1.0672 -1.2556
  407MOL0     H54879   7.465   3.892   6.064 -2.4163  0.4565 -0.1933
  407MOL0     H54880   7.255   3.959   6.431 -2.6400  0.5768  0.8251
  407MOL0     H54881   7.233   4.126   6.384 -1.3469  0.5069  0.8190
  407MOL0     H54882   7.090   3.879   6.298  0.6724  0.7392 -1.6871
  407MOL0     H54883   7.051   4.048   6.228  3.4805  5.3266  2.0208
  407MOL0     H54884   6.995   4.132   6.440 -2.6587 -0.3119  1.1851
  407MOL0     H54885   7.008   3.981   6.522 -0.0514  2.2354  1.2747
  407MOL0     H54886   6.819   4.018   6.283  0.7354  0.3186 -0.2368
  407MOL0     H54887   6.836   3.880   6.387  1.7372 -0.2444  1.2140
  407MOL0     H54888   6.751   4.032   6.574  3.6199 -1.5440 -1.5623
  407MOL0     H54889   6.785   4.174   6.490  1.2359  0.7221 -2.2178
  407MOL0     H54890   6.534   4.087   6.509  0.6182 -3.0085  0.7787
  407MOL0     H54891   6.595   4.153   6.343  1.3807 -0.8104 -0.4010
  407MOL0     H54892   6.597   3.867   6.412  0.6064 -0.9563 -2.4738
  407MOL0     H54893   6.581   3.932   6.250 -2.8388  0.9995 -1.0811
  407MOL0     H54894   6.362   3.833   6.346  0.5057 -0.7767  2.1029
  407MOL0     H54895   6.362   3.970   6.458  0.6078 -0.7871 -0.2448
  407MOL0     H54896   6.357   4.231   6.347  2.6678  2.8602 -3.6499
  407MOL0     H54897   6.215   4.337   5.978 -1.8513  1.1696  0.8430
  407MOL0     H54898   6.206   4.406   6.130 -1.3740  2.9441 -2.6799
  407MOL0     H54899   6.499   4.330   6.084  0.7070  1.0714  0.5020
  407MOL0     H54900   6.439   4.381   5.932  0.5032  0.1116  0.3364
  407MOL0     H54901   6.376   4.614   6.034  1.2624  1.3213 -0.6208
  407MOL0     H54902   6.531   4.569   6.021 -0.8350  0.2060 -1.2457
  407MOL0     H54903   6.353   4.548   6.261 -0.0045  2.8156  0.6706
  407MOL0     H54904   6.494   4.656   6.237 -1.1269  0.3305  1.9707
  407MOL0     H54905   6.699   4.671   6.376  3.5813  1.4840 -0.9696
  407MOL0     H54906   6.937   4.668   6.380 -1.6432  0.2593  0.6804
  407MOL0     H54907   7.280   4.735   6.494 -0.1103  0.3488 -0.2417
  407MOL0     H54908   7.494   4.728   6.595 -0.2133  1.3305 -1.3794
  407MOL0     H54909   7.724   4.724   6.468 -2.6180  0.8059  1.2530
  407MOL0     H54910   7.760   4.707   6.634 -0.8220 -0.4202 -0.2073
  407MOL0     H54911   7.950   4.714   6.494  1.4744 -0.3094  0.5559
  407MOL0     H54912   7.969   4.565   6.588 -1.4969 -0.3687  1.5122
  407MOL0     H54913   8.035   4.512   6.335  1.3958  2.8743  0.4622
  407MOL0     H54914   7.889   4.420   6.393 -0.3570  0.4991 -1.8715
  407MOL0     H54915   7.882   4.690   6.233 -0.3800 -0.4027  0.0916
  407MOL0     H54916   7.746   4.591   6.281 -0.6291 -3.2647  0.2593
  407MOL0     H54917   7.856   4.405   6.144  0.5824 -0.2006 -2.3981
  407MOL0     H54918   7.949   4.523   6.070 -0.7371 -0.1993 -0.1531
  407MOL0     H54919   7.639   4.535   6.077 -0.4505 -0.9000 -1.8586
  407MOL0     H54920   7.752   4.635   5.978  0.3610  1.4071  1.2166
  407MOL0     H54921   7.830   4.447   5.859  0.7263  0.5872 -0.2128
  407MOL0     H54922   7.663   4.490   5.834  1.0586  0.5635 -0.6779
  407MOL0     H54923   7.778   4.247   5.998 -0.2021 -0.8447 -0.1580
  407MOL0     H54924   7.608   4.285   5.985  0.4401 -1.1247 -0.5673
  407MOL0     H54925   7.592   4.372   6.357 -0.9245 -0.6211 -1.3593
  407MOL0     H54926   7.362   4.381   6.276 -1.1786  1.8400  0.2515
  407MOL0     H54927   6.931   4.275   6.218  2.5911 -0.7514  4.8592
  407MOL0     H54928   6.680   4.277   6.206  0.1554  0.1925 -0.0380
  407MOL0     H54929   7.438   4.157   6.412  1.2427  3.8653 -2.0206
  407MOL0     H54930   7.679   4.147   6.422 -0.0908  1.6604 -1.8859
  407MOL0     H54931   8.035   4.203   6.269 -1.4408 -1.2268 -1.0559
  407MOL0     H54932   8.268   4.255   6.313  2.2514 -0.6345  0.7929
  407MOL0     H54933   8.568   3.957   6.224 -0.7901 -4.3962  2.7177
  407MOL0     H54934   8.572   3.926   6.388  1.9421 -2.1757 -1.3936
  407MOL0     H54935   8.699   4.174   6.262 -0.4017 -2.1866 -1.6709
  407MOL0     H54936   8.781   4.019   6.256 -0.9619 -1.8553  1.9348
  407MOL0     H54937   8.705   4.093   6.530 -1.1051 -0.0830  0.6360
  407MOL0     H54938   8.827   4.198   6.457  1.4283 -0.1558 -3.5333
  407MOL0     H54939   8.980   4.024   6.405 -3.0321  0.8038 -0.8816
  407MOL0     H54940   8.934   4.039   6.575 -0.5350  3.5565 -0.7196
  407MOL0     H54941   8.814   3.662   6.571 -2.6698  2.1047  3.2238
  407MOL0     H54942   8.372   3.847   6.327  2.1395  0.6595 -2.1698
  407MOL0     H54943   8.098   3.703   6.193  2.2187 -1.5345 -0.0546
  407MOL0     H54944   8.227   3.663   6.274 -0.9256  0.3133 -1.2717
  407MOL0     H54945   8.088   3.703   6.370 -0.0902 -0.0827  0.0322
  408MOL0     O54946   7.236   0.023   8.798  0.5979 -0.0336 -0.1251
  408MOL0     C54947   7.274   0.126   8.853  0.5445 -0.5364  0.8463
  408MOL0     O54948   7.204   0.243   8.843 -0.1805  0.3185  0.1228
  408MOL0     C54949   7.072   0.242   8.803  0.6940 -0.5843  0.4637
  408MOL0     C54950   7.041   0.267   8.667 -0.3938  0.3031 -0.3394
  408MOL0     C54951   6.911   0.256   8.625 -0.7591 -1.0159  0.0525
  408MOL0     C54952   6.816   0.190   8.701  0.6007  0.0103 -0.2209
  408MOL0     O54953   6.688   0.175   8.659  1.6011 -0.0167 -0.2083
  408MOL0     C54954   6.637   0.254   8.545  0.2266 -1.1235 -0.6544
  408MOL0     C54955   6.494   0.293   8.567  0.7926  0.9584 -0.9997
  408MOL0     C54956   6.439   0.362   8.439  0.3515  0.5742  0.1706
  408MOL0     C54957   6.398   0.251   8.333 -0.0179 -1.3213  0.3040
  408MOL0     C54958   6.386   0.302   8.187  0.5350  0.1505  0.7351
  408MOL0     C54959   6.270   0.410   8.167  0.4127 -0.3483 -0.2605
  408MOL0     C54960   6.260   0.458   8.017 -0.0548  0.9501 -0.3124
  408MOL0     C54961   6.226   0.355   7.919  0.7011  0.1580 -0.1443
  408MOL0     N54962   6.097   0.291   7.951  0.7903 -0.2652  0.2596
  408MOL0     C54963   5.978   0.359   7.961  0.2051 -0.1203  0.2513
  408MOL0     C54964   5.891   0.262   8.000  0.1456 -0.0311 -0.5152
  408MOL0     C54965   5.750   0.287   8.037  0.6051  0.5986 -0.3855
  408MOL0     C54966   5.681   0.415   7.991  0.1369 -0.0406  0.2942
  408MOL0     C54967   5.675   0.445   7.837  0.0176 -0.2526  0.8210
  408MOL0     C54968   5.592   0.342   7.765 -0.4023 -0.4819  0.4463
  408MOL0     O54969   5.455   0.327   7.807  0.2823  0.5507  0.7942
  408MOL0     C54970   5.360   0.340   7.718  0.3078 -0.1459  0.4608
  408MOL0     C54971   5.361   0.429   7.617  0.0958 -0.7108  0.4562
  408MOL0     C54972   5.253   0.448   7.526  0.1985  0.0258 -1.0374
  408MOL0     C54973   5.143   0.367   7.541 -0.0537 -0.3491 -0.1012
  408MOL0     C54974   5.044   0.374   7.431  0.7335  0.0605  0.1729
  408MOL0     O54975   5.098   0.382   7.304  0.0320 -0.9562 -0.0377
  408MOL0     C54976   5.011   0.353   7.200  0.1178  0.2419  0.3549
  408MOL0     C54977   5.003   0.455   7.095  0.7214 -0.2421  0.3919
  408MOL0     C54978   4.939   0.429   6.976 -0.2272  0.1294 -0.3414
  408MOL0     C54979   4.868   0.312   6.955  0.0798  0.3547  0.2860
  408MOL0     O54980   4.789   0.318   6.846  0.1036 -0.8257  0.9517
  408MOL0     C54981   4.663   0.250   6.833  0.3834  0.0243  0.5068
  408MOL0     C54982   4.562   0.357   6.847  0.0982  0.5788  0.1845
  408MOL0     C54983   4.570   0.452   6.721 -0.5268 -0.7245  1.8265
  408MOL0     C54984   4.494   0.583   6.738  0.7683 -0.0414  0.3413
  408MOL0     C54985   4.462   0.641   6.586  0.4704 -0.6718 -0.3836
  408MOL0     C54986   4.385   0.776   6.583 -0.6014 -0.1254 -1.3100
  408MOL0     C54987   4.393   0.829   6.443  0.6040  0.6237  0.4140
  408MOL0     C54988   4.301   0.950   6.435 -0.4185  0.4344 -0.5757
  408MOL0    Cl54989   4.344   1.070   6.304 -0.2843  0.0383 -0.0448
  408MOL0     C54990   4.873   0.208   7.054  0.4165  0.6243 -0.0100
  408MOL0     C54991   4.941   0.228   7.178  0.2288 -0.5069  0.1162
  408MOL0     O54992   4.922   0.367   7.454  0.2756 -0.8056 -0.4231
  408MOL0     C54993   5.130   0.288   7.660  0.2379  0.0234 -0.8451
  408MOL0     C54994   5.236   0.282   7.749 -0.1395  0.0013 -0.6132
  408MOL0     N54995   5.958   0.138   8.002 -0.1227 -0.1535  0.3723
  408MOL0     N54996   6.084   0.158   7.969 -0.8094  0.3946 -0.5587
  408MOL0     C54997   6.849   0.154   8.836 -0.4782 -1.0077 -0.4375
  408MOL0     C54998   6.974   0.182   8.880 -0.1967  0.7753  0.0366
  408MOL0     C54999   7.393   0.135   8.942  0.1442 -0.4268  0.2338
  408MOL0     C55000   7.429   0.258   8.992  0.5950 -0.6330  0.4251
  408MOL0     C55001   7.551   0.276   9.063 -0.4636 -0.5877  0.1672
  408MOL0     C55002   7.639   0.177   9.088  0.3358  0.5455 -0.5077
  408MOL0     O55003   7.753   0.206   9.160 -0.0733 -0.4990  0.1032
  408MOL0     C55004   7.854   0.111   9.152  0.3061  0.6076 -0.9507
  408MOL0     C55005   7.966   0.162   9.237 -0.9034 -0.2201  0.7078
  408MOL0     C55006   8.039   0.047   9.307  0.3865  0.4529  0.1993
  408MOL0     C55007   8.146   0.098   9.415  1.1307  0.3117  0.3421
  408MOL0     C55008   8.141   0.030   9.537 -0.1591 -0.5489 -0.4311
  408MOL0     C55009   8.160  -0.014   9.648 -0.9473 -0.1975  0.0778
  408MOL0     C55010   7.599   0.046   9.053  0.6192  0.5214 -0.7955
  408MOL0     C55011   7.482   0.025   8.976 -0.0037  0.4067  0.2277
  408MOL0     C55012   7.459  -0.116   8.925  0.0430 -0.1568  0.3757
  408MOL0     H55013   7.127   0.299   8.608  0.4816 -0.9436  0.2302
  408MOL0     H55014   6.897   0.304   8.529  0.1355 -1.3889 -0.2806
  408MOL0     H55015   6.684   0.351   8.525 -1.8059  0.0785  0.1087
  408MOL0     H55016   6.660   0.195   8.456  2.9985 -0.6555 -0.3674
  408MOL0     H55017   6.491   0.359   8.654  1.6280 -0.6657  0.3101
  408MOL0     H55018   6.436   0.207   8.600  2.4358  0.7052  1.4441
  408MOL0     H55019   6.510   0.436   8.401 -1.9075  1.4805 -2.5893
  408MOL0     H55020   6.352   0.416   8.479  2.7066  1.8714  4.2478
  408MOL0     H55021   6.469   0.168   8.344  1.0183 -0.2732  1.7387
  408MOL0     H55022   6.298   0.215   8.358 -1.9375  2.3888 -1.2657
  408MOL0     H55023   6.482   0.348   8.160  0.2551  0.9934  1.1478
  408MOL0     H55024   6.359   0.217   8.123  0.9576  0.8354 -0.3803
  408MOL0     H55025   6.172   0.366   8.184  0.3684 -0.3889 -0.6213
  408MOL0     H55026   6.292   0.493   8.235  2.1809 -0.7901 -0.2295
  408MOL0     H55027   6.356   0.504   7.991  1.7351 -2.0272  0.5239
  408MOL0     H55028   6.186   0.538   8.014  0.4109  1.3530 -1.5863
  408MOL0     H55029   6.212   0.413   7.827 -2.0108 -0.5455 -0.2631
  408MOL0     H55030   6.314   0.297   7.889 -0.2765 -1.0122 -0.8262
  408MOL0     H55031   5.970   0.467   7.947 -1.2988  0.2097  3.0102
  408MOL0     H55032   5.697   0.205   7.987  1.7883 -1.1308  1.0828
  408MOL0     H55033   5.750   0.273   8.145  2.8208  2.7040 -0.0043
  408MOL0     H55034   5.583   0.434   8.035  0.7879  3.2420  0.6145
  408MOL0     H55035   5.743   0.491   8.041 -1.8697  1.5543  0.4928
  408MOL0     H55036   5.771   0.446   7.784 -1.2683 -0.8310 -1.7092
  408MOL0     H55037   5.619   0.538   7.824 -0.2453 -0.6298 -1.0577
  408MOL0     H55038   5.645   0.247   7.776 -1.4782 -1.1719 -0.1290
  408MOL0     H55039   5.606   0.369   7.660  0.3198  1.0773  0.9157
  408MOL0     H55040   5.437   0.503   7.596 -1.3123  0.3528 -1.2118
  408MOL0     H55041   5.276   0.513   7.442  2.9645 -1.3710 -1.4925
  408MOL0     H55042   5.058   0.547   7.110 -1.1437  1.4079 -2.1106
  408MOL0     H55043   4.938   0.500   6.894  0.3050 -0.5052 -0.9076
  408MOL0     H55044   4.646   0.185   6.746  0.0248  0.3046  0.3656
  408MOL0     H55045   4.653   0.182   6.918 -2.2214 -0.3159  0.0221
  408MOL0     H55046   4.464   0.308   6.846  1.2495 -1.8611 -1.2182
  408MOL0     H55047   4.565   0.418   6.938 -4.3705  3.7535 -1.3965
  408MOL0     H55048   4.676   0.467   6.702 -0.7975 -0.8309  0.0779
  408MOL0     H55049   4.523   0.399   6.638  1.0231  1.2411 -0.4389
  408MOL0     H55050   4.554   0.660   6.787  1.5878  2.9479 -4.5977
  408MOL0     H55051   4.401   0.559   6.790  1.5147 -0.5153  1.5082
  408MOL0     H55052   4.407   0.569   6.525  1.2820 -0.6471 -1.1779
  408MOL0     H55053   4.565   0.660   6.552  1.3915 -2.9473  0.8713
  408MOL0     H55054   4.278   0.765   6.602 -0.5794 -2.2959 -2.2670
  408MOL0     H55055   4.427   0.844   6.658 -0.4800 -2.1292  0.5213
  408MOL0     H55056   4.370   0.762   6.360  1.2392 -2.5483  2.6253
  408MOL0     H55057   4.496   0.856   6.419  1.0656  1.4523  2.9564
  408MOL0     H55058   4.198   0.914   6.429 -1.9665  3.5148  3.2330
  408MOL0     H55059   4.295   0.996   6.534 -1.0457  1.1659 -0.9403
  408MOL0     H55060   4.823   0.112   7.041  2.7130 -0.6493 -0.0315
  408MOL0     H55061   4.954   0.135   7.234  0.9026 -2.2774 -2.7799
  408MOL0     H55062   5.041   0.233   7.690  0.4602 -0.6103 -1.3245
  408MOL0     H55063   5.223   0.231   7.843  1.6698 -2.0449 -1.3746
  408MOL0     H55064   6.767   0.112   8.894 -2.4745 -1.1135 -3.1213
  408MOL0     H55065   6.999   0.159   8.982 -2.5064 -1.7280  0.1548
  408MOL0     H55066   7.364   0.342   8.970  0.0366 -1.5046 -1.3831
  408MOL0     H55067   7.589   0.366   9.110 -2.2713 -0.6511  1.8802
  408MOL0     H55068   7.884   0.075   9.053  0.5821  0.9302 -0.9832
  408MOL0     H55069   7.822   0.013   9.190 -0.0332  1.1016  0.0834
  408MOL0     H55070   7.930   0.227   9.317  1.0288  4.2473 -1.6745
  408MOL0     H55071   8.032   0.226   9.177  1.3784 -1.2031  2.0192
  408MOL0     H55072   8.090  -0.006   9.225  1.3774  1.2817  0.2658
  408MOL0     H55073   7.961  -0.022   9.341 -0.1418  1.0189  0.1359
  408MOL0     H55074   8.242   0.068   9.371  1.2193  1.4288 -0.2380
  408MOL0     H55075   8.122   0.203   9.431  0.0261 -0.1181  1.7590
  408MOL0     H55076   8.175  -0.050   9.748 -1.4292 -2.0255 -0.4812
  408MOL0     H55077   7.673  -0.033   9.063  2.6197  2.1059 -2.1318
  408MOL0     H55078   7.518  -0.191   8.978 -0.3039  0.7815  2.1992
  408MOL0     H55079   7.354  -0.139   8.944  0.2076  0.5995  2.5319
  408MOL0     H55080   7.492  -0.121   8.821 -0.5453  3.3268 -0.1236
  409MOL0     O55081   7.485   7.352   9.807 -0.5385 -0.6189  0.0286
  409MOL0     C55082   7.382   7.408   9.761 -0.4182  0.0929 -0.1771
  409MOL0     O55083   7.362   7.456   9.633  0.1011  0.6764  0.2193
  409MOL0     C55084   7.473   7.453   9.553 -0.1299  0.1836  0.2696
  409MOL0     C55085   7.517   7.580   9.516  0.3242 -0.4529  0.6383
  409MOL0     C55086   7.630   7.603   9.438 -0.6636  0.3436 -0.9657
  409MOL0     C55087   7.704   7.491   9.404 -0.5676  0.7088 -0.1977
  409MOL0     O55088   7.804   7.504   9.319  0.2020  0.2004  0.1111
  409MOL0     C55089   7.922   7.562   9.374 -0.2284 -1.2410 -0.4296
  409MOL0     C55090   8.043   7.533   9.294 -0.4616  0.7719 -0.2898
  409MOL0     C55091   8.093   7.395   9.317 -0.0048  0.5853  0.1998
  409MOL0     C55092   8.238   7.388   9.280 -0.1739  0.4597 -0.1804
  409MOL0     C55093   8.252   7.384   9.130 -0.0046  0.4119  0.0031
  409MOL0     C55094   8.362   7.284   9.091  0.1866  0.6975 -0.0680
  409MOL0     C55095   8.378   7.268   8.937  0.4449 -0.1916 -1.0765
  409MOL0     C55096   8.402   7.399   8.860 -0.5869 -0.4133 -0.7158
  409MOL0     N55097   8.442   7.379   8.714 -0.1600 -0.6269 -1.0933
  409MOL0     C55098   8.560   7.329   8.667 -0.7922 -1.1727  0.0311
  409MOL0     C55099   8.555   7.346   8.532 -0.1358  0.5799 -0.1434
  409MOL0     C55100   8.666   7.314   8.438  0.1356 -0.1481  0.6307
  409MOL0     C55101   8.615   7.212   8.324  0.0278 -1.1664  0.1274
  409MOL0     C55102   8.722   7.153   8.230  0.0116  0.1988 -0.2603
  409MOL0     C55103   8.790   7.270   8.158 -0.0405  1.1779 -0.8396
  409MOL0     O55104   8.878   7.353   8.239 -0.2579  0.1662  0.3401
  409MOL0     C55105   9.001   7.291   8.245  0.3918  0.0470  0.7168
  409MOL0     C55106   9.090   7.300   8.134  0.7826 -0.3820 -0.5954
  409MOL0     C55107   9.217   7.245   8.136 -1.4802 -0.0692 -0.2147
  409MOL0     C55108   9.262   7.182   8.258  1.0849  0.4251 -0.5779
  409MOL0     C55109   9.397   7.127   8.280 -0.0603  0.5684  0.3741
  409MOL0     O55110   9.435   7.079   8.403  0.0744 -0.0635  0.5905
  409MOL0     C55111   9.570   7.047   8.413 -0.8996  0.3952  0.5336
  409MOL0     C55112   9.635   6.938   8.367 -0.2798  0.0941 -0.0466
  409MOL0     C55113   9.773   6.925   8.379  0.5298 -0.7151 -0.7862
  409MOL0     C55114   9.854   7.025   8.439  0.0986  0.1064 -0.9791
  409MOL0     O55115   9.993   7.029   8.437  0.0624 -0.1075 -0.1448
  409MOL0     C55116  10.065   6.917   8.385  0.8242 -0.0712 -0.8831
  409MOL0     C55117  10.220   6.943   8.398  0.2061  0.2063  0.8234
  409MOL0     C55118  10.309   6.831   8.330 -0.1685  0.7501  0.3129
  409MOL0     C55119  10.464   6.854   8.352 -0.5694 -0.4359 -0.4895
  409MOL0     C55120  10.533   6.775   8.246 -0.4415  0.4683  0.2712
  409MOL0     C55121  10.676   6.745   8.278 -0.4169  1.0166  0.7040
  409MOL0     C55122  10.750   6.664   8.159  0.0298 -0.5508  0.0781
  409MOL0     C55123  10.779   6.762   8.040 -0.4008 -1.8055 -0.4917
  409MOL0    Cl55124  10.913   6.882   8.095  0.0081 -0.0491  0.4035
  409MOL0     C55125   9.790   7.136   8.491  0.1120  0.5736  0.3370
  409MOL0     C55126   9.651   7.142   8.482  0.8368  0.4911 -0.6685
  409MOL0     O55127   9.474   7.123   8.181 -0.5425 -0.4055 -0.3918
  409MOL0     C55128   9.173   7.172   8.367 -0.5391  0.5755 -0.5927
  409MOL0     C55129   9.037   7.222   8.357  0.5181 -0.1301 -0.2271
  409MOL0     N55130   8.433   7.396   8.497 -0.0193 -0.1288 -0.1640
  409MOL0     N55131   8.364   7.403   8.605  0.7287  0.5100 -0.5445
  409MOL0     C55132   7.654   7.364   9.429 -0.5395  0.7661 -0.4734
  409MOL0     C55133   7.542   7.343   9.506 -0.3392 -0.3443 -0.9004
  409MOL0     C55134   7.275   7.431   9.860 -0.3087 -0.9892 -0.1857
  409MOL0     C55135   7.197   7.552   9.853 -0.9245  0.2657  0.3109
  409MOL0     C55136   7.099   7.587   9.948 -0.0532  0.2620  0.4615
  409MOL0     C55137   7.068   7.495  10.049 -0.0034 -0.6293  0.2698
  409MOL0     O55138   6.979   7.536  10.143  0.1979  0.0759  0.4421
  409MOL0     C55139   6.830   7.554  10.117 -0.2785  0.0436  0.0839
  409MOL0     C55140   6.755   7.423  10.107  0.1746 -0.0559  0.1837
  409MOL0     C55141   6.598   7.449  10.130 -0.1727 -0.5135 -0.6235
  409MOL0     C55142   6.511   7.365  10.045  0.6292  0.5815 -0.8739
  409MOL0     C55143   6.541   7.221  10.052  0.1801  1.2262 -0.2404
  409MOL0     C55144   6.556   7.105  10.073 -0.1226  0.1459 -1.0937
  409MOL0     C55145   7.141   7.379  10.058 -0.1607 -0.4249 -0.8730
  409MOL0     C55146   7.239   7.345   9.972 -1.0089 -0.5741 -0.2334
  409MOL0     C55147   7.315   7.215   9.998  0.3534 -0.1543  0.3381
  409MOL0     H55148   7.464   7.666   9.555  0.1638  0.2988 -1.1572
  409MOL0     H55149   7.671   7.701   9.420  0.8807  0.3286  1.8256
  409MOL0     H55150   7.913   7.670   9.360 -1.1792 -1.5054 -2.1329
  409MOL0     H55151   7.935   7.537   9.480  1.8323  2.2352  0.3099
  409MOL0     H55152   8.126   7.598   9.323  0.3663  1.3266 -3.5070
  409MOL0     H55153   8.017   7.553   9.190  0.4919  4.1146 -0.0100
  409MOL0     H55154   8.028   7.322   9.269 -1.2944  0.7544  1.6394
  409MOL0     H55155   8.089   7.375   9.424  0.2589 -1.1713 -0.0944
  409MOL0     H55156   8.297   7.461   9.335  1.0532 -1.3954  1.0799
  409MOL0     H55157   8.265   7.285   9.306  1.0712  0.7413 -0.2846
  409MOL0     H55158   8.163   7.350   9.076  0.3232  1.5868 -1.3365
  409MOL0     H55159   8.277   7.487   9.104  3.0732 -0.2626 -0.1647
  409MOL0     H55160   8.452   7.313   9.146  1.2616  1.9389 -2.3054
  409MOL0     H55161   8.345   7.183   9.127  0.1778  0.1332 -1.5710
  409MOL0     H55162   8.279   7.240   8.901 -0.2842 -2.2453  2.1533
  409MOL0     H55163   8.459   7.195   8.927  0.7497  0.1056 -0.8158
  409MOL0     H55164   8.324   7.474   8.877 -0.4902 -0.8460  2.0785
  409MOL0     H55165   8.492   7.437   8.910  0.2798 -0.4858 -2.1703
  409MOL0     H55166   8.657   7.299   8.707  0.7985  1.0332 -1.8861
  409MOL0     H55167   8.690   7.410   8.391 -1.6413 -0.5718 -1.3130
  409MOL0     H55168   8.748   7.276   8.499 -1.2313  1.5010  3.7346
  409MOL0     H55169   8.571   7.126   8.374  0.3481 -1.2742  0.2296
  409MOL0     H55170   8.546   7.259   8.254  1.6842  0.0591 -0.7671
  409MOL0     H55171   8.671   7.086   8.161  2.0613 -2.2193  0.4432
  409MOL0     H55172   8.792   7.089   8.285  1.5787  1.3031 -0.8788
  409MOL0     H55173   8.709   7.332   8.119  0.1747  1.8934 -0.1968
  409MOL0     H55174   8.852   7.230   8.077 -0.1293  2.9823 -1.8567
  409MOL0     H55175   9.052   7.344   8.042 -0.6457 -0.8200 -0.2355
  409MOL0     H55176   9.288   7.256   8.054 -2.5340  1.5194 -0.9592
  409MOL0     H55177   9.580   6.857   8.318 -0.1078  0.4138 -0.7865
  409MOL0     H55178   9.824   6.834   8.350 -0.1742 -1.1529 -0.6627
  409MOL0     H55179  10.039   6.832   8.449  1.8678  1.5887  1.8853
  409MOL0     H55180  10.038   6.880   8.285  1.8526 -3.0948 -0.1539
  409MOL0     H55181  10.244   7.041   8.354  1.6765  0.4804  2.1366
  409MOL0     H55182  10.246   6.952   8.504  0.0041  1.9787  0.7605
  409MOL0     H55183  10.280   6.739   8.382  0.7341  0.4604  0.3091
  409MOL0     H55184  10.294   6.831   8.222  2.5793 -0.9931 -0.1608
  409MOL0     H55185  10.500   6.822   8.451 -3.5970  1.6388  1.4718
  409MOL0     H55186  10.488   6.960   8.337 -2.8389  0.0986 -0.6161
  409MOL0     H55187  10.534   6.830   8.151  3.2282  1.2652  0.5972
  409MOL0     H55188  10.485   6.679   8.225 -4.0754  2.1772  0.0517
  409MOL0     H55189  10.731   6.836   8.304 -1.7736  1.4347  2.3226
  409MOL0     H55190  10.679   6.678   8.364  0.4665 -1.0993 -0.8901
  409MOL0     H55191  10.691   6.574   8.137  1.9417 -1.9458  0.4220
  409MOL0     H55192  10.847   6.635   8.201  0.8057  2.6329  0.7235
  409MOL0     H55193  10.816   6.706   7.953 -1.6470 -3.7322  0.1621
  409MOL0     H55194  10.688   6.817   8.015 -0.0470 -1.2112 -0.5030
  409MOL0     H55195   9.839   7.224   8.532 -0.8785  0.5290  1.6988
  409MOL0     H55196   9.606   7.219   8.544  1.8059  0.7744 -0.3031
  409MOL0     H55197   9.210   7.149   8.467 -0.1359  0.1729 -0.8339
  409MOL0     H55198   8.969   7.204   8.440 -0.1790 -1.2144 -1.0016
  409MOL0     H55199   7.709   7.275   9.398 -1.4267 -0.0954  0.3611
  409MOL0     H55200   7.506   7.242   9.524 -0.6061 -0.1949 -0.5844
  409MOL0     H55201   7.231   7.616   9.772 -0.5041 -1.2433 -0.7618
  409MOL0     H55202   7.060   7.688   9.938 -2.7469 -0.7884 -0.7420
  409MOL0     H55203   6.811   7.607  10.022  0.3829  2.0341  1.0136
  409MOL0     H55204   6.784   7.604  10.203  1.9537  0.6493  1.0012
  409MOL0     H55205   6.796   7.358  10.184 -1.8530 -1.1023  0.4469
  409MOL0     H55206   6.773   7.381  10.007 -1.5514  0.2972 -0.3032
  409MOL0     H55207   6.576   7.556  10.129 -0.8605 -0.6040  1.1047
  409MOL0     H55208   6.573   7.430  10.235  3.3783 -0.6271  0.3588
  409MOL0     H55209   6.409   7.382  10.079  0.7182  0.1660 -0.3851
  409MOL0     H55210   6.506   7.401   9.942 -1.2324  2.6437 -0.1175
  409MOL0     H55211   6.571   6.999  10.080 -2.1777 -0.0891  0.7617
  409MOL0     H55212   7.102   7.313  10.134 -1.8432 -1.3436 -2.4724
  409MOL0     H55213   7.419   7.239  10.023  0.6706  0.5345 -1.4864
  409MOL0     H55214   7.274   7.148  10.074 -1.3651 -1.5766 -1.7056
  409MOL0     H55215   7.332   7.163   9.903  2.1841 -0.4760  0.8079
  410MOL0     O55216   8.012   7.187   6.634  0.3066 -0.1547  0.6700
  410MOL0     C55217   8.059   7.078   6.669  0.1425 -0.3624  0.4815
  410MOL0     O55218   7.987   6.964   6.714 -0.9557  0.3614  0.5462
  410MOL0     C55219   7.861   6.975   6.673  1.0271  0.3341  0.4405
  410MOL0     C55220   7.760   6.964   6.775 -0.1130 -0.7816  0.6436
  410MOL0     C55221   7.622   6.985   6.744 -0.1897  0.0112  0.0294
  410MOL0     C55222   7.580   7.009   6.617  0.7079  0.2493  0.7401
  410MOL0     O55223   7.451   7.032   6.585 -0.1534 -0.4257 -0.1211
  410MOL0     C55224   7.378   6.909   6.552 -0.1510  0.2281  0.0902
  410MOL0     C55225   7.241   6.922   6.627 -0.3734 -1.0724  0.7442
  410MOL0     C55226   7.150   6.811   6.579 -0.7796  0.3743  0.8816
  410MOL0     C55227   7.005   6.855   6.564  0.4439  0.4345 -0.5894
  410MOL0     C55228   6.915   6.727   6.539 -0.2610  0.4669 -0.4110
  410MOL0     C55229   6.766   6.750   6.545  0.0875 -1.3328  0.2605
  410MOL0     C55230   6.699   6.816   6.422  0.2924  0.0281  0.7610
  410MOL0     C55231   6.544   6.814   6.434  0.0991 -0.0384  0.3928
  410MOL0     N55232   6.490   6.898   6.551  0.0020 -0.3625  0.8522
  410MOL0     C55233   6.481   7.035   6.547  0.5201 -0.0960 -0.4890
  410MOL0     C55234   6.466   7.069   6.675  0.6530  0.6372 -0.0445
  410MOL0     C55235   6.454   7.209   6.732 -0.2616  0.4870  0.0956
  410MOL0     C55236   6.513   7.215   6.880 -0.3365 -0.4074 -0.3418
  410MOL0     C55237   6.535   7.367   6.929 -0.0714  0.0320  0.0279
  410MOL0     C55238   6.556   7.382   7.079  0.3406 -0.1464  0.0623
  410MOL0     O55239   6.531   7.519   7.109  0.5022  0.2747 -0.1609
  410MOL0     C55240   6.578   7.559   7.229 -0.0858  0.0445  0.5367
  410MOL0     C55241   6.634   7.681   7.221 -0.0270 -0.0829 -0.2851
  410MOL0     C55242   6.687   7.736   7.342 -0.5370  0.4360 -0.0880
  410MOL0     C55243   6.668   7.672   7.463  0.0229  0.9162 -0.3147
  410MOL0     C55244   6.692   7.745   7.590 -0.0628 -0.3849  0.2162
  410MOL0     O55245   6.767   7.873   7.585  0.4657 -0.7191  0.6487
  410MOL0     C55246   6.815   7.931   7.702 -0.8393  0.5452  0.1552
  410MOL0     C55247   6.825   8.067   7.708 -0.5053  0.2601  0.4498
  410MOL0     C55248   6.883   8.146   7.810  1.4257  0.3750  0.0742
  410MOL0     C55249   6.922   8.085   7.931 -0.1053  0.0832  0.1764
  410MOL0     O55250   6.976   8.153   8.041  0.5614 -0.6322  1.0094
  410MOL0     C55251   7.115   8.172   8.053  0.0485  0.6471  0.5029
  410MOL0     C55252   7.152   8.213   8.199  1.3128  0.8079  0.2904
  410MOL0     C55253   7.295   8.263   8.190 -0.0373 -0.6778  0.7126
  410MOL0     C55254   7.389   8.267   8.313  0.3941 -0.4884 -0.1540
  410MOL0     C55255   7.344   8.367   8.420  0.1277  0.4628  0.0790
  410MOL0     C55256   7.404   8.328   8.560 -0.7030 -0.4810  0.0843
  410MOL0     C55257   7.351   8.424   8.680 -0.9502  0.4435 -0.6528
  410MOL0     C55258   7.415   8.555   8.689 -1.0709  0.0717  0.1496
  410MOL0    Cl55259   7.595   8.549   8.670 -0.4546  0.4361  0.0260
  410MOL0     C55260   6.910   7.950   7.931  0.9067 -0.5253 -0.0809
  410MOL0     C55261   6.869   7.868   7.817  0.6450 -0.3378  0.1098
  410MOL0     O55262   6.661   7.689   7.692  0.2765 -0.2517  0.5688
  410MOL0     C55263   6.603   7.540   7.464  0.4663 -1.3284  0.4903
  410MOL0     C55264   6.563   7.493   7.342  0.1956  0.3099 -0.3879
  410MOL0     N55265   6.443   6.960   6.751 -0.2515  0.1968 -0.5788
  410MOL0     N55266   6.452   6.852   6.673 -0.1669  0.3192 -0.9851
  410MOL0     C55267   7.671   6.995   6.516 -0.5999 -0.5449  0.1585
  410MOL0     C55268   7.811   6.983   6.543  0.0744 -1.0906 -0.1303
  410MOL0     C55269   8.205   7.065   6.657  0.3787  0.7998  0.2942
  410MOL0     C55270   8.268   6.941   6.641  0.9078  0.6041  0.2605
  410MOL0     C55271   8.406   6.925   6.658 -0.2168 -0.6506 -0.1377
  410MOL0     C55272   8.487   7.033   6.679 -0.6461 -0.1621  0.4230
  410MOL0     O55273   8.614   7.008   6.717 -0.6430  0.0638 -0.0264
  410MOL0     C55274   8.704   6.908   6.668 -0.4622 -0.1134 -0.2872
  410MOL0     C55275   8.835   6.977   6.605  0.4281  0.1327  0.8151
  410MOL0     C55276   8.862   6.914   6.459  0.8071 -0.2407  0.3506
  410MOL0     C55277   8.778   6.991   6.350 -0.6151  0.4707  0.4762
  410MOL0     C55278   8.635   7.003   6.369 -0.5528  0.7300  0.4852
  410MOL0     C55279   8.520   7.039   6.371 -0.8739  0.5820 -1.0652
  410MOL0     C55280   8.432   7.162   6.676 -0.1446 -0.0472 -0.6298
  410MOL0     C55281   8.290   7.182   6.667  0.1668  0.2867 -0.1545
  410MOL0     C55282   8.243   7.325   6.685 -0.5355 -0.5956  0.3300
  410MOL0     H55283   7.798   6.956   6.876  3.1008  0.2229 -0.3601
  410MOL0     H55284   7.545   6.973   6.820 -1.6017  1.2280 -1.1603
  410MOL0     H55285   7.379   6.909   6.443  0.8767  0.8585  0.0880
  410MOL0     H55286   7.433   6.820   6.585 -3.1003 -1.9551 -0.5017
  410MOL0     H55287   7.201   7.020   6.601  0.1511 -0.7965  0.9429
  410MOL0     H55288   7.260   6.932   6.735  1.5054 -0.6228  0.4077
  410MOL0     H55289   7.164   6.734   6.655 -1.2545 -2.1616 -1.4631
  410MOL0     H55290   7.187   6.773   6.484 -1.2308  0.0846  0.8203
  410MOL0     H55291   6.979   6.905   6.658  1.1038 -1.6083  0.7587
  410MOL0     H55292   6.992   6.926   6.482 -1.3910  3.3242  2.0082
  410MOL0     H55293   6.933   6.683   6.440 -1.9585 -3.3190  0.7669
  410MOL0     H55294   6.945   6.645   6.604 -1.7712 -1.5146 -2.0573
  410MOL0     H55295   6.728   6.648   6.561  0.4376 -2.0140 -2.7207
  410MOL0     H55296   6.753   6.817   6.630  0.6942 -1.2725  0.3087
  410MOL0     H55297   6.728   6.760   6.333  3.0145  4.8578 -1.8540
  410MOL0     H55298   6.733   6.919   6.407 -1.6821  0.6729  0.4006
  410MOL0     H55299   6.492   6.852   6.346 -0.7504  0.0994  0.9477
  410MOL0     H55300   6.514   6.710   6.447  0.9614 -0.1178  1.9882
  410MOL0     H55301   6.502   7.098   6.460  2.0227 -0.5226 -0.4616
  410MOL0     H55302   6.509   7.278   6.667 -0.1318  0.4720  0.1895
  410MOL0     H55303   6.349   7.243   6.729  0.0840  1.5154 -2.6480
  410MOL0     H55304   6.443   7.167   6.949  0.0769  1.3063  1.3540
  410MOL0     H55305   6.607   7.159   6.882 -0.4655 -0.6699 -1.2844
  410MOL0     H55306   6.447   7.422   6.896 -0.1291  0.4009  0.7979
  410MOL0     H55307   6.626   7.406   6.882  0.7452 -2.4314 -0.5817
  410MOL0     H55308   6.658   7.355   7.105  0.9596  2.1700  0.3093
  410MOL0     H55309   6.484   7.317   7.130 -1.1307  1.6990  0.4607
  410MOL0     H55310   6.645   7.744   7.134  2.1423  2.0223  1.3619
  410MOL0     H55311   6.741   7.830   7.348  3.7264 -1.7218 -0.5358
  410MOL0     H55312   6.787   8.133   7.631  0.7098  0.6086  0.1293
  410MOL0     H55313   6.886   8.254   7.795 -0.4226  0.4772  0.2496
  410MOL0     H55314   7.159   8.074   8.033 -1.0586  0.7437 -3.3023
  410MOL0     H55315   7.156   8.245   7.983 -4.1276  1.1753 -1.7303
  410MOL0     H55316   7.081   8.290   8.230  0.2045  0.1649 -0.5693
  410MOL0     H55317   7.148   8.125   8.264  1.1923  0.7057  0.1457
  410MOL0     H55318   7.357   8.206   8.120  2.4848  2.9453 -0.3311
  410MOL0     H55319   7.285   8.364   8.149  0.1145  0.0560  2.4136
  410MOL0     H55320   7.492   8.302   8.301 -1.1752  5.4045  0.1521
  410MOL0     H55321   7.400   8.166   8.353  0.6272 -0.0263  0.9959
  410MOL0     H55322   7.236   8.361   8.432 -0.1881  3.0765 -0.9183
  410MOL0     H55323   7.382   8.468   8.403  4.2617 -0.6704  1.4138
  410MOL0     H55324   7.385   8.222   8.581  2.5480 -0.5865  3.6009
  410MOL0     H55325   7.512   8.338   8.564 -0.8534  3.3519 -1.6145
  410MOL0     H55326   7.364   8.364   8.771 -1.6930 -2.9931 -2.6411
  410MOL0     H55327   7.242   8.425   8.693 -0.8849 -1.5329  0.5470
  410MOL0     H55328   7.361   8.601   8.606 -1.9713  0.3451  0.8592
  410MOL0     H55329   7.384   8.607   8.780 -0.1049 -0.7497  0.9703
  410MOL0     H55330   6.950   7.905   8.021  2.5168 -0.7158 -0.8695
  410MOL0     H55331   6.864   7.759   7.824 -2.8826 -0.3881 -1.3019
  410MOL0     H55332   6.598   7.479   7.554  2.4640 -2.6430 -0.2167
  410MOL0     H55333   6.517   7.395   7.344 -1.3221  0.9761 -0.8748
  410MOL0     H55334   7.644   7.016   6.413 -0.2041  0.2675  0.2180
  410MOL0     H55335   7.879   6.997   6.460  0.3061  2.0478  0.4573
  410MOL0     H55336   8.200   6.857   6.631  0.4989  1.0223 -0.5587
  410MOL0     H55337   8.445   6.825   6.645 -2.2632 -1.2354 -2.5677
  410MOL0     H55338   8.653   6.837   6.601 -0.2547  0.7418 -1.3902
  410MOL0     H55339   8.740   6.852   6.755 -0.0794  1.2167  0.4409
  410MOL0     H55340   8.926   6.979   6.666  1.1029  3.3928 -0.0973
  410MOL0     H55341   8.815   7.084   6.595 -0.7114 -0.0866  0.5985
  410MOL0     H55342   8.837   6.809   6.439  2.2049 -0.1121 -2.5702
  410MOL0     H55343   8.968   6.928   6.433  0.7124  0.3907  0.2923
  410MOL0     H55344   8.814   7.093   6.332  0.8130  0.3522  2.2735
  410MOL0     H55345   8.793   6.941   6.254 -0.1031  0.2671  0.6561
  410MOL0     H55346   8.425   7.087   6.383 -0.8306  0.8731 -1.8519
  410MOL0     H55347   8.498   7.248   6.686 -1.4118  1.1116 -1.8941
  410MOL0     H55348   8.188   7.353   6.594 -0.7887 -1.1679  0.3029
  410MOL0     H55349   8.184   7.349   6.774 -1.5171 -0.1968 -0.4123
  410MOL0     H55350   8.329   7.391   6.697 -0.3377 -0.3445 -1.9671
  411MOL0     O55351   0.854   4.228   6.873 -0.9470 -1.0563  0.0445
  411MOL0     C55352   0.959   4.292   6.869  0.3808  0.0711  0.3656
  411MOL0     O55353   1.014   4.373   6.970 -0.0062  0.0594  0.2299
  411MOL0     C55354   0.975   4.367   7.100  0.5069  0.3375 -1.1690
  411MOL0     C55355   0.843   4.339   7.153 -0.3963  0.5179  0.0329
  411MOL0     C55356   0.817   4.324   7.288  0.7376 -0.2500  0.3722
  411MOL0     C55357   0.923   4.318   7.377 -0.3305 -0.2077 -0.6408
  411MOL0     O55358   0.914   4.282   7.509 -0.1363 -0.0545 -0.6706
  411MOL0     C55359   0.880   4.144   7.524  0.4028 -0.1468 -0.3310
  411MOL0     C55360   0.979   4.039   7.498  0.5010 -0.2027  0.5965
  411MOL0     C55361   1.112   4.076   7.572  0.4317  0.4221 -0.5693
  411MOL0     C55362   1.233   3.988   7.526  0.8984  1.0054 -0.4027
  411MOL0     C55363   1.232   3.840   7.581  0.2229 -0.1454  0.4703
  411MOL0     C55364   1.356   3.760   7.538  0.0346 -0.0224  0.2673
  411MOL0     C55365   1.356   3.633   7.627 -0.3135 -0.0241  1.1370
  411MOL0     C55366   1.458   3.532   7.574 -0.7016 -0.2084  0.1838
  411MOL0     N55367   1.600   3.567   7.564  0.4129  0.0776  0.0703
  411MOL0     C55368   1.697   3.564   7.672  0.5125  0.2960 -0.1622
  411MOL0     C55369   1.806   3.628   7.622 -0.1410 -0.2171 -0.6489
  411MOL0     C55370   1.938   3.669   7.687  0.2569  0.2413  0.0385
  411MOL0     C55371   1.956   3.643   7.840 -0.0429  0.2903  0.3219
  411MOL0     C55372   2.105   3.640   7.885  0.2431  1.2217  0.3545
  411MOL0     C55373   2.135   3.601   8.034  1.0866 -0.0628  0.1646
  411MOL0     O55374   2.136   3.718   8.109 -0.1093 -0.2545 -0.0659
  411MOL0     C55375   2.108   3.715   8.245 -0.5971 -0.1186 -0.8834
  411MOL0     C55376   2.154   3.612   8.320 -1.1542 -0.7454  0.2005
  411MOL0     C55377   2.131   3.607   8.456  0.1225  0.4873  0.9166
  411MOL0     C55378   2.061   3.707   8.525  0.4253 -0.1358 -0.6519
  411MOL0     C55379   2.035   3.711   8.671 -0.4742  0.7529 -0.3108
  411MOL0     O55380   1.981   3.819   8.728  0.7527 -0.1488  0.1719
  411MOL0     C55381   1.936   3.827   8.855 -0.0203  0.3960  0.7127
  411MOL0     C55382   1.814   3.767   8.894  0.1313 -0.0321 -0.3311
  411MOL0     C55383   1.786   3.783   9.035  0.5539  0.3495  0.1784
  411MOL0     C55384   1.878   3.853   9.120  0.3688  1.4625 -0.0878
  411MOL0     O55385   1.854   3.886   9.254  0.4206 -0.4376  0.0655
  411MOL0     C55386   1.727   3.912   9.299  0.3780 -0.1075 -0.3865
  411MOL0     C55387   1.726   3.948   9.448 -0.0531 -0.1976 -0.3931
  411MOL0     C55388   1.584   3.949   9.485  0.0164  0.3615  0.0377
  411MOL0     C55389   1.564   4.004   9.628  0.2967  1.1234  0.2555
  411MOL0     C55390   1.430   4.078   9.646  0.8402 -0.6989  0.2418
  411MOL0     C55391   1.435   4.219   9.583  0.1163  0.5874 -1.0715
  411MOL0     C55392   1.320   4.232   9.479 -0.0215  0.4116 -1.2622
  411MOL0     C55393   1.309   4.367   9.412  0.0691 -0.1883 -0.5769
  411MOL0    Cl55394   1.451   4.407   9.304  0.0375 -0.0459 -0.4557
  411MOL0     C55395   1.997   3.898   9.074 -0.3903  0.4277 -1.2540
  411MOL0     C55396   2.030   3.884   8.943  0.0356 -0.5729 -0.9998
  411MOL0     O55397   2.080   3.615   8.730 -0.8867  1.2596  1.3650
  411MOL0     C55398   2.004   3.797   8.447  0.0473 -1.0252  0.7953
  411MOL0     C55399   2.014   3.796   8.306 -0.0586 -0.5982  0.3813
  411MOL0     N55400   1.779   3.655   7.485  0.1525  0.3047  0.3752
  411MOL0     N55401   1.660   3.625   7.462 -0.6383 -0.3243  0.1023
  411MOL0     C55402   1.048   4.361   7.331  0.9320 -0.1788 -0.4911
  411MOL0     C55403   1.073   4.384   7.200 -0.0015 -0.1152  0.2719
  411MOL0     C55404   1.010   4.294   6.732  1.6237 -0.8513 -0.0799
  411MOL0     C55405   1.039   4.422   6.683  0.0122 -0.5906 -0.3832
  411MOL0     C55406   1.081   4.433   6.546  0.5148  0.4105  0.8729
  411MOL0     C55407   1.089   4.317   6.464 -1.1730 -0.1156  0.8255
  411MOL0     O55408   1.128   4.335   6.330 -0.1295 -0.1403 -0.5361
  411MOL0     C55409   1.038   4.281   6.235 -0.1571  0.0061  0.7283
  411MOL0     C55410   1.061   4.357   6.109  0.3644 -1.3594 -0.4032
  411MOL0     C55411   1.191   4.332   6.037  0.4767  0.1942  0.8675
  411MOL0     C55412   1.205   4.426   5.919 -1.1249  0.7366  0.2565
  411MOL0     C55413   1.109   4.399   5.813 -0.4802 -0.3752 -0.1448
  411MOL0     C55414   1.022   4.355   5.741 -1.1702  0.4416  0.1598
  411MOL0     C55415   1.075   4.193   6.512  0.6249  0.2391 -0.1176
  411MOL0     C55416   1.032   4.179   6.648  0.4483  0.0797  0.0634
  411MOL0     C55417   1.005   4.032   6.692 -0.5689  0.5490 -0.3173
  411MOL0     H55418   0.760   4.321   7.085  1.7939 -2.5665 -2.1357
  411MOL0     H55419   0.715   4.304   7.318  0.8522 -3.2066 -0.8418
  411MOL0     H55420   0.851   4.142   7.630 -1.9794  2.8074 -0.7976
  411MOL0     H55421   0.790   4.144   7.461 -1.3251  0.4650  1.9937
  411MOL0     H55422   0.996   4.025   7.391  5.6264 -4.2087  1.5210
  411MOL0     H55423   0.945   3.940   7.529 -0.4114 -0.5069 -1.2255
  411MOL0     H55424   1.097   4.073   7.680  2.9780 -1.5852 -0.1749
  411MOL0     H55425   1.134   4.177   7.536  0.4002 -0.0008 -1.8489
  411MOL0     H55426   1.224   3.991   7.417  0.4745  1.2435 -0.3611
  411MOL0     H55427   1.330   4.029   7.557  2.2412 -2.0155 -0.2388
  411MOL0     H55428   1.230   3.837   7.690 -2.4229  0.2326  0.4933
  411MOL0     H55429   1.142   3.791   7.542 -0.9416 -1.9411  4.8365
  411MOL0     H55430   1.340   3.733   7.434 -1.5232 -3.8777  1.3398
  411MOL0     H55431   1.449   3.813   7.561 -0.1879 -0.1638  1.5802
  411MOL0     H55432   1.266   3.573   7.610  0.2397 -1.1993  2.2238
  411MOL0     H55433   1.345   3.653   7.733  3.5669  1.1528  1.4881
  411MOL0     H55434   1.462   3.438   7.631  2.3445 -0.5436 -0.4100
  411MOL0     H55435   1.418   3.505   7.476 -0.1558  0.8655 -0.3439
  411MOL0     H55436   1.683   3.533   7.776  2.3323  2.1318  0.7022
  411MOL0     H55437   2.025   3.630   7.633  2.0604  3.1458  0.5934
  411MOL0     H55438   1.952   3.778   7.677  1.5191 -0.0671 -2.2038
  411MOL0     H55439   1.902   3.732   7.874 -2.4009 -0.0705 -2.1319
  411MOL0     H55440   1.903   3.558   7.885 -0.2368  0.9633  1.4076
  411MOL0     H55441   2.158   3.735   7.878  0.8766  0.7982 -0.7397
  411MOL0     H55442   2.158   3.567   7.824 -0.1130  0.7670  0.5822
  411MOL0     H55443   2.232   3.550   8.039 -0.1050 -2.5002 -0.3768
  411MOL0     H55444   2.076   3.516   8.070 -1.6638  1.3090 -0.8780
  411MOL0     H55445   2.214   3.533   8.275 -0.7872 -0.5850  0.4053
  411MOL0     H55446   2.166   3.519   8.508  0.6613  1.0574  1.5478
  411MOL0     H55447   1.757   3.720   8.815  0.6373 -0.3983 -0.4862
  411MOL0     H55448   1.692   3.732   9.055  1.7918 -3.0305 -1.8105
  411MOL0     H55449   1.677   3.999   9.255 -2.7480 -1.4034  0.2998
  411MOL0     H55450   1.669   3.820   9.284  1.1472 -0.7107  0.2181
  411MOL0     H55451   1.802   3.881   9.488  0.4448 -0.4352 -1.6680
  411MOL0     H55452   1.770   4.047   9.464  2.9683 -1.5893  0.5638
  411MOL0     H55453   1.531   4.020   9.421 -0.3544 -1.1843 -1.4813
  411MOL0     H55454   1.540   3.849   9.474 -0.2708  0.6667 -1.9239
  411MOL0     H55455   1.648   4.069   9.654 -1.3142  2.5170  2.3260
  411MOL0     H55456   1.564   3.917   9.695  0.4644  1.6834  1.0010
  411MOL0     H55457   1.413   4.094   9.753  0.4608  1.7474 -0.1302
  411MOL0     H55458   1.349   4.017   9.606 -1.1451  1.3132  1.0287
  411MOL0     H55459   1.422   4.293   9.663 -0.0236  0.2554 -0.7888
  411MOL0     H55460   1.529   4.240   9.531  0.1124  0.8155 -0.9881
  411MOL0     H55461   1.232   4.220   9.542  1.5179 -1.2158  0.7118
  411MOL0     H55462   1.310   4.149   9.408 -1.6464  0.1392 -0.7348
  411MOL0     H55463   1.223   4.355   9.346 -0.6067  2.5426 -0.2966
  411MOL0     H55464   1.277   4.440   9.487  0.2560 -0.3999 -0.2896
  411MOL0     H55465   2.075   3.942   9.135 -1.7162  0.9420  0.1280
  411MOL0     H55466   2.128   3.922   8.913  0.6999 -0.2751  1.3150
  411MOL0     H55467   1.935   3.877   8.472 -0.6002 -1.5450  0.6941
  411MOL0     H55468   1.969   3.867   8.238  3.2571  0.4403 -0.9545
  411MOL0     H55469   1.127   4.362   7.406  1.3139  2.0143 -0.8358
  411MOL0     H55470   1.175   4.401   7.166 -0.8365  0.3556 -2.2396
  411MOL0     H55471   1.022   4.515   6.737 -0.1945 -1.0596  0.3729
  411MOL0     H55472   1.099   4.528   6.496  0.5111 -0.2548 -0.4578
  411MOL0     H55473   0.935   4.292   6.271 -1.0363  0.5647 -1.7214
  411MOL0     H55474   1.064   4.175   6.225  3.1580  0.8550 -1.0023
  411MOL0     H55475   1.043   4.463   6.126  0.1316 -1.3616 -0.6220
  411MOL0     H55476   0.974   4.339   6.044  1.7351 -2.0012 -2.1445
  411MOL0     H55477   1.205   4.230   6.002  3.3187  1.4412 -2.1699
  411MOL0     H55478   1.272   4.349   6.109 -0.6392 -1.5788  2.6337
  411MOL0     H55479   1.193   4.529   5.955 -1.2237  1.2221 -1.1157
  411MOL0     H55480   1.304   4.411   5.876 -1.0027  1.0605  0.4215
  411MOL0     H55481   0.950   4.339   5.663 -4.1354 -0.5839  2.9048
  411MOL0     H55482   1.078   4.105   6.449 -2.4819 -0.9729  1.2623
  411MOL0     H55483   1.025   4.025   6.799 -1.3297 -2.8130 -0.2942
  411MOL0     H55484   0.906   4.001   6.656  0.8067 -2.9219 -1.5051
  411MOL0     H55485   1.077   3.970   6.640 -1.5080 -2.2201  1.4822
  412MOL0     O55486   1.449   5.531   8.989  0.2535 -0.6893  0.5774
  412MOL0     C55487   1.528   5.584   8.911  0.9000  0.1298 -0.4501
  412MOL0     O55488   1.645   5.643   8.946  0.0616 -0.2156 -0.0457
  412MOL0     C55489   1.697   5.661   9.074 -0.3019 -0.2872  0.5590
  412MOL0     C55490   1.638   5.635   9.194  0.6331 -0.0562  0.5818
  412MOL0     C55491   1.713   5.642   9.312 -0.0781 -0.2667  0.2177
  412MOL0     C55492   1.845   5.683   9.309  0.2608  0.2925 -0.6032
  412MOL0     O55493   1.911   5.672   9.429  1.1945 -0.0358  0.0908
  412MOL0     C55494   1.984   5.793   9.472 -0.5222  0.3863 -0.7908
  412MOL0     C55495   2.071   5.760   9.586 -0.0003  0.5564 -1.0921
  412MOL0     C55496   2.167   5.883   9.616 -0.6077  0.4545  0.5116
  412MOL0     C55497   2.230   5.873   9.753  0.2356 -0.2925 -0.8088
  412MOL0     C55498   2.333   5.990   9.765 -0.9109 -0.5003  0.5877
  412MOL0     C55499   2.457   5.924   9.701 -0.5149 -0.6302 -0.1743
  412MOL0     C55500   2.583   6.019   9.709  0.5964  0.3959  0.7500
  412MOL0     C55501   2.577   6.130   9.599 -0.4206 -0.4005 -0.1196
  412MOL0     N55502   2.607   6.077   9.464 -0.2406 -0.2392 -0.2830
  412MOL0     C55503   2.714   6.005   9.437 -0.4038  0.0852 -0.1230
  412MOL0     C55504   2.685   5.945   9.320 -0.5912 -0.5400 -0.7879
  412MOL0     C55505   2.774   5.873   9.224 -0.5113 -0.1034 -0.5230
  412MOL0     C55506   2.713   5.753   9.164 -0.2147  1.0137  0.5254
  412MOL0     C55507   2.833   5.699   9.086  0.7195  0.0220 -0.0528
  412MOL0     C55508   2.803   5.555   9.055 -0.2098 -0.2567 -0.7772
  412MOL0     O55509   2.719   5.544   8.942  0.1756 -0.0596 -0.9001
  412MOL0     C55510   2.770   5.555   8.814  0.7012  0.6843  0.9974
  412MOL0     C55511   2.666   5.546   8.723 -0.0185  0.9914  0.5534
  412MOL0     C55512   2.680   5.540   8.584 -0.3142 -0.1139 -0.8869
  412MOL0     C55513   2.815   5.563   8.540 -0.4149  0.3267 -0.0717
  412MOL0     C55514   2.845   5.556   8.391 -0.2463  1.5195  1.5028
  412MOL0     O55515   2.965   5.530   8.349 -0.9016 -0.6834  0.1160
  412MOL0     C55516   2.991   5.526   8.210  0.6363 -0.2762 -0.5571
  412MOL0     C55517   3.083   5.430   8.167  0.5280 -0.7442 -0.6168
  412MOL0     C55518   3.114   5.407   8.033 -0.3493  0.6141 -0.3060
  412MOL0     C55519   3.050   5.486   7.937 -0.4505  0.0415 -0.3231
  412MOL0     O55520   3.069   5.447   7.809 -0.0762  0.5930 -0.3819
  412MOL0     C55521   3.083   5.558   7.711 -0.6253  0.8357  0.0568
  412MOL0     C55522   3.168   5.508   7.596 -0.8543 -0.1478 -0.2297
  412MOL0     C55523   3.306   5.445   7.638  0.5087 -0.0358  0.4372
  412MOL0     C55524   3.392   5.441   7.525 -0.0470 -0.2689  0.7968
  412MOL0     C55525   3.543   5.404   7.566 -0.3847 -0.1370 -0.3099
  412MOL0     C55526   3.634   5.404   7.445 -0.0791  0.1831 -0.0514
  412MOL0     C55527   3.779   5.374   7.491 -0.8353  0.5745 -0.1744
  412MOL0     C55528   3.889   5.431   7.387 -0.7734  0.7816  0.3058
  412MOL0    Cl55529   3.894   5.619   7.380  0.2453  0.6056 -0.7089
  412MOL0     C55530   2.971   5.594   7.975 -0.3636 -0.2196 -0.5222
  412MOL0     C55531   2.926   5.604   8.109 -0.7858  0.1289 -0.2964
  412MOL0     O55532   2.745   5.568   8.314 -0.3888  0.4012 -0.6819
  412MOL0     C55533   2.923   5.546   8.627 -0.6081 -0.9796 -0.8328
  412MOL0     C55534   2.899   5.548   8.768  0.3140 -0.0174 -1.0161
  412MOL0     N55535   2.554   5.974   9.283 -0.4886  0.3627 -0.0077
  412MOL0     N55536   2.506   6.048   9.374 -0.6276  0.2569  0.2100
  412MOL0     C55537   1.913   5.706   9.189  0.1772 -0.2611  0.0489
  412MOL0     C55538   1.837   5.691   9.074  0.3757  0.3656  0.8167
  412MOL0     C55539   1.483   5.597   8.770  0.0356 -0.4379  0.2615
  412MOL0     C55540   1.352   5.643   8.757 -0.2493 -0.5821 -0.1303
  412MOL0     C55541   1.301   5.643   8.629 -0.0704 -0.0460  0.3687
  412MOL0     C55542   1.372   5.608   8.511 -0.6287  0.2768 -0.0841
  412MOL0     O55543   1.317   5.599   8.387 -0.7985  0.6257  0.1930
  412MOL0     C55544   1.174   5.597   8.360  0.1897  0.3256  0.4031
  412MOL0     C55545   1.119   5.469   8.441 -0.9256  0.0934  0.6560
  412MOL0     C55546   1.080   5.372   8.340  0.0451  0.2930 -0.1989
  412MOL0     C55547   1.026   5.249   8.416 -0.2811 -0.1355  0.3276
  412MOL0     C55548   0.974   5.151   8.319  0.6105  0.1062  0.0145
  412MOL0     C55549   0.929   5.064   8.244  0.0324  0.4302 -0.2522
  412MOL0     C55550   1.507   5.565   8.531  0.1020  0.3520  0.4833
  412MOL0     C55551   1.559   5.559   8.662  0.3053  0.1421 -0.3045
  412MOL0     C55552   1.708   5.519   8.684  0.2354 -0.9638  0.7036
  412MOL0     H55553   1.532   5.610   9.198  0.7034 -0.2061  1.7739
  412MOL0     H55554   1.683   5.616   9.413 -1.1028 -2.7257 -0.6512
  412MOL0     H55555   2.038   5.831   9.384  1.1207 -0.4423 -0.1863
  412MOL0     H55556   1.906   5.869   9.485  1.2358  1.9699  1.5009
  412MOL0     H55557   2.133   5.672   9.565  0.1457  0.1820  0.7362
  412MOL0     H55558   2.005   5.735   9.669  1.2120  0.1331 -0.2152
  412MOL0     H55559   2.107   5.972   9.599 -2.4970 -0.5027  1.7858
  412MOL0     H55560   2.244   5.897   9.539  1.5171  1.7699  2.7511
  412MOL0     H55561   2.144   5.888   9.819 -1.7466  0.6250 -3.4243
  412MOL0     H55562   2.277   5.777   9.777  1.1940  0.5189  0.7954
  412MOL0     H55563   2.303   6.086   9.722 -0.9853 -0.5407  0.5478
  412MOL0     H55564   2.363   6.017   9.866  0.7656  2.0386 -0.4998
  412MOL0     H55565   2.481   5.831   9.754  0.0421 -1.0158 -1.0913
  412MOL0     H55566   2.445   5.909   9.594 -1.6297  2.0095 -0.4932
  412MOL0     H55567   2.672   5.956   9.701  0.5587  0.0323  2.6075
  412MOL0     H55568   2.589   6.061   9.810  0.4724  2.0099  0.1229
  412MOL0     H55569   2.478   6.177   9.597 -0.0985  0.4620 -3.8221
  412MOL0     H55570   2.649   6.208   9.624  3.4328 -3.1835 -1.4969
  412MOL0     H55571   2.802   5.995   9.501 -0.3111 -1.6747 -0.4675
  412MOL0     H55572   2.800   5.945   9.145  2.2927  0.0165  0.3801
  412MOL0     H55573   2.872   5.860   9.272  1.3033  0.7720 -3.6605
  412MOL0     H55574   2.680   5.677   9.235  0.5012 -0.8746 -1.0460
  412MOL0     H55575   2.620   5.773   9.110  0.5832  0.9890 -0.9186
  412MOL0     H55576   2.930   5.706   9.137  1.7215 -1.1504 -1.7049
  412MOL0     H55577   2.838   5.759   8.994 -2.4520  0.8232  0.1818
  412MOL0     H55578   2.753   5.515   9.144  1.4042 -1.2991 -0.2828
  412MOL0     H55579   2.896   5.500   9.038  0.8472  2.4843 -5.8171
  412MOL0     H55580   2.565   5.539   8.762  0.0322  2.4800  1.0222
  412MOL0     H55581   2.600   5.537   8.511  1.5071 -3.1218 -3.0034
  412MOL0     H55582   3.133   5.376   8.247 -0.3690 -0.8497 -0.1153
  412MOL0     H55583   3.180   5.323   8.012  0.4439  0.6031  1.9927
  412MOL0     H55584   2.990   5.587   7.662 -0.0564  0.9782 -0.9727
  412MOL0     H55585   3.135   5.647   7.749  0.2425  1.3053 -2.0894
  412MOL0     H55586   3.106   5.430   7.551 -0.6386  0.7144 -2.1088
  412MOL0     H55587   3.179   5.583   7.517 -0.9585 -1.0009 -1.0867
  412MOL0     H55588   3.347   5.518   7.708 -0.2565  0.8097  0.0371
  412MOL0     H55589   3.297   5.346   7.682 -3.1096 -1.0483 -2.1009
  412MOL0     H55590   3.395   5.533   7.466  0.3574 -2.1887 -2.4104
  412MOL0     H55591   3.366   5.368   7.448  0.1077  0.6103 -0.1208
  412MOL0     H55592   3.553   5.310   7.622  1.7214 -0.1339 -0.5960
  412MOL0     H55593   3.576   5.473   7.644  0.0413 -1.1821  0.4545
  412MOL0     H55594   3.601   5.331   7.370  1.1469 -0.8339  0.3631
  412MOL0     H55595   3.617   5.503   7.400 -1.8655  0.1131  0.3860
  412MOL0     H55596   3.799   5.267   7.494  1.6459  0.9963  0.3032
  412MOL0     H55597   3.790   5.421   7.589 -0.7104 -1.0235  0.6052
  412MOL0     H55598   3.986   5.388   7.413 -1.7151 -1.1391  0.8486
  412MOL0     H55599   3.853   5.397   7.289  0.9705  1.2991 -0.5611
  412MOL0     H55600   2.925   5.656   7.899 -0.8707 -1.6594 -1.4343
  412MOL0     H55601   2.857   5.683   8.136 -1.0203 -0.2569  0.2551
  412MOL0     H55602   3.019   5.560   8.579 -0.8830  0.6125 -0.9550
  412MOL0     H55603   2.976   5.562   8.843 -1.9814  0.3279  1.4146
  412MOL0     H55604   2.018   5.732   9.183  0.4998 -1.6179 -0.4554
  412MOL0     H55605   1.869   5.720   8.974 -1.6402  0.9994  0.2880
  412MOL0     H55606   1.299   5.655   8.851  2.2087 -3.3695  1.8049
  412MOL0     H55607   1.199   5.678   8.617 -0.5651 -2.0746 -2.2212
  412MOL0     H55608   1.170   5.582   8.251  4.4950  1.5660 -0.1198
  412MOL0     H55609   1.126   5.691   8.387 -0.4857  0.1337 -0.1119
  412MOL0     H55610   1.033   5.488   8.505 -1.7601 -0.8178 -0.1778
  412MOL0     H55611   1.194   5.421   8.505 -1.8881 -1.1822  0.8535
  412MOL0     H55612   1.155   5.331   8.273 -0.8541 -3.0435  0.6346
  412MOL0     H55613   1.002   5.425   8.286  1.0954 -0.3545 -2.4597
  412MOL0     H55614   1.108   5.210   8.477  1.3896  1.9298 -0.4560
  412MOL0     H55615   0.952   5.284   8.488 -0.4920 -4.5860  2.6763
  412MOL0     H55616   0.900   4.980   8.185 -2.2368  0.2855  0.9427
  412MOL0     H55617   1.565   5.523   8.450 -1.5893  2.0030 -1.7109
  412MOL0     H55618   1.717   5.438   8.756  0.1768  1.0092  3.0758
  412MOL0     H55619   1.754   5.499   8.587 -1.9876 -0.2280 -0.5528
  412MOL0     H55620   1.772   5.600   8.723 -0.8085  0.4826 -0.4649
  413MOL0     O55621   7.919  10.261  11.370 -0.4292 -0.5605  0.2932
  413MOL0     C55622   8.047  10.278  11.366  0.6299  0.4360  0.1091
  413MOL0     O55623   8.129  10.222  11.280  0.4750  0.0426 -0.1841
  413MOL0     C55624   8.090  10.113  11.214 -0.5294  0.3514  0.2428
  413MOL0     C55625   8.083  10.116  11.076 -0.0098  0.1609 -0.8896
  413MOL0     C55626   8.035  10.008  11.010 -0.1870 -0.6561 -0.8491
  413MOL0     C55627   8.003   9.881  11.074 -0.0505  0.5793  0.3937
  413MOL0     O55628   7.971   9.772  10.995 -0.0888  0.4308  0.4123
  413MOL0     C55629   7.871   9.684  11.055  0.6572 -0.2720  0.8141
  413MOL0     C55630   7.911   9.549  11.116 -0.9789 -1.2671 -0.7974
  413MOL0     C55631   8.028   9.483  11.039  0.2382  0.4162 -0.3440
  413MOL0     C55632   8.100   9.379  11.109 -0.4029  0.5504  0.9309
  413MOL0     C55633   8.069   9.231  11.060  0.4404  0.0400  0.8068
  413MOL0     C55634   8.156   9.136  11.130 -0.0514  0.8842  0.6390
  413MOL0     C55635   8.136   8.994  11.095  0.6580  0.1078 -1.0612
  413MOL0     C55636   8.017   8.923  11.151  0.6441 -0.4897  0.0738
  413MOL0     N55637   7.988   8.946  11.296  0.1574 -0.4291 -0.6492
  413MOL0     C55638   8.024   8.849  11.389 -0.7588 -0.4473  0.7662
  413MOL0     C55639   7.980   8.895  11.503 -1.0028 -0.4582  0.2774
  413MOL0     C55640   7.975   8.816  11.634 -0.3926 -0.2347 -0.3952
  413MOL0     C55641   8.116   8.785  11.694  0.9686  1.1760 -0.4185
  413MOL0     C55642   8.101   8.706  11.827 -0.4562 -1.0060 -0.2865
  413MOL0     C55643   8.063   8.798  11.952 -0.3399  0.3276  1.0265
  413MOL0     O55644   8.047   8.714  12.078  0.1930 -0.2420  0.8615
  413MOL0     C55645   8.151   8.733  12.164  0.6992  0.5889  0.5872
  413MOL0     C55646   8.096   8.754  12.296 -0.3586 -0.0678 -0.5850
  413MOL0     C55647   8.185   8.772  12.404 -1.1877  0.1100  0.2195
  413MOL0     C55648   8.324   8.777  12.378 -0.0055  1.2837  0.1364
  413MOL0     C55649   8.417   8.792  12.499  0.3575  0.4162 -0.4142
  413MOL0     O55650   8.351   8.796  12.619  0.3540  0.0395 -0.5363
  413MOL0     C55651   8.418   8.803  12.741 -1.1009 -0.1191 -0.1051
  413MOL0     C55652   8.377   8.876  12.852 -0.4633  0.0978 -0.1269
  413MOL0     C55653   8.438   8.875  12.978 -0.3424 -0.0374  0.5724
  413MOL0     C55654   8.549   8.800  12.997 -0.3443 -0.3387  0.4426
  413MOL0     O55655   8.610   8.800  13.122  0.3587 -0.3063  0.3879
  413MOL0     C55656   8.733   8.728  13.140 -0.2516 -0.1049  0.6243
  413MOL0     C55657   8.803   8.779  13.268  0.1263  0.1871 -0.0215
  413MOL0     C55658   8.956   8.771  13.257  0.1799 -0.2134 -0.1389
  413MOL0     C55659   9.012   8.634  13.292 -0.4748 -0.4861 -0.8186
  413MOL0     C55660   9.164   8.662  13.316  0.2032 -0.6034 -0.4522
  413MOL0     C55661   9.231   8.543  13.389  0.3103 -0.2900 -0.2575
  413MOL0     C55662   9.360   8.589  13.437 -0.8759  0.5704 -0.0735
  413MOL0     C55663   9.423   8.487  13.531 -0.2743  0.0135 -0.2138
  413MOL0    Cl55664   9.426   8.326  13.452 -0.0292 -0.0199 -0.0185
  413MOL0     C55665   8.594   8.721  12.895  0.3994 -0.0539 -0.0947
  413MOL0     C55666   8.544   8.737  12.767  0.0268 -0.1558 -0.0790
  413MOL0     O55667   8.527   8.829  12.482 -0.4823 -0.1039 -0.5349
  413MOL0     C55668   8.366   8.754  12.247  0.1075  0.5379  0.5122
  413MOL0     C55669   8.283   8.725  12.142  0.1028 -0.5538 -0.4334
  413MOL0     N55670   7.913   9.011  11.487  0.0172  0.1139  0.7518
  413MOL0     N55671   7.916   9.042  11.363  0.2221  0.0652 -0.2512
  413MOL0     C55672   8.012   9.879  11.212 -0.2367  0.2968 -0.3900
  413MOL0     C55673   8.069   9.991  11.282  0.8308 -0.1475  1.0745
  413MOL0     C55674   8.093  10.362  11.472 -0.6479 -0.3005  0.8509
  413MOL0     C55675   8.034  10.355  11.600  0.4245  0.2461 -0.4303
  413MOL0     C55676   8.101  10.419  11.707  0.0269  0.9735 -0.5068
  413MOL0     C55677   8.217  10.493  11.692  0.7505 -0.8505 -0.6707
  413MOL0     O55678   8.281  10.557  11.796  0.2421  0.5884  0.2597
  413MOL0     C55679   8.252  10.521  11.929 -0.9988  0.1462  0.9154
  413MOL0     C55680   8.161  10.631  11.987 -0.1690  0.3337  0.2226
  413MOL0     C55681   8.221  10.686  12.113  0.1646  0.4101 -0.9594
  413MOL0     C55682   8.358  10.762  12.102 -0.6952  0.1778 -0.9033
  413MOL0     C55683   8.481  10.697  12.149  1.3480 -0.7056  0.4522
  413MOL0     C55684   8.576  10.634  12.186 -0.8260 -0.5938  0.2933
  413MOL0     C55685   8.261  10.516  11.561 -0.5298 -0.1109  0.7303
  413MOL0     C55686   8.209  10.444  11.454 -0.3194  0.0737 -0.5842
  413MOL0     C55687   8.267  10.466  11.317  0.0990  0.0726  0.9049
  413MOL0     H55688   8.105  10.205  11.018  2.6754  0.4120  0.3677
  413MOL0     H55689   8.012  10.018  10.904 -2.5929  0.2888 -0.3027
  413MOL0     H55690   7.806   9.734  11.127  2.8310  0.4043  2.4071
  413MOL0     H55691   7.808   9.657  10.970 -3.1851  1.6844  2.8134
  413MOL0     H55692   7.819   9.490  11.113 -0.2544 -2.4019 -2.7319
  413MOL0     H55693   7.946   9.567  11.218  0.7583  0.8750 -1.7133
  413MOL0     H55694   8.098   9.564  11.020  2.4306 -1.4625 -0.7097
  413MOL0     H55695   7.984   9.453  10.944  0.4595 -1.1945  0.0292
  413MOL0     H55696   8.204   9.395  11.079 -1.0233 -0.1126 -1.9230
  413MOL0     H55697   8.076   9.382  11.216 -5.1709  1.4199  0.0849
  413MOL0     H55698   7.963   9.206  11.074  0.2473  1.4657  2.0457
  413MOL0     H55699   8.081   9.231  10.951  1.6969 -0.8942  0.9227
  413MOL0     H55700   8.257   9.146  11.089 -0.9287 -1.4030 -2.5212
  413MOL0     H55701   8.173   9.163  11.234  0.4774  0.0772  0.7751
  413MOL0     H55702   8.226   8.941  11.126  0.8386 -0.1158 -1.9154
  413MOL0     H55703   8.124   8.989  10.986  0.7093 -1.0441 -1.0263
  413MOL0     H55704   7.930   8.961  11.096 -0.4549  1.1703  2.7575
  413MOL0     H55705   8.025   8.815  11.132  1.9135 -0.2649 -0.7685
  413MOL0     H55706   8.068   8.751  11.376  0.5005  0.1438  0.4697
  413MOL0     H55707   7.910   8.865  11.708  0.1918 -1.7931  1.2287
  413MOL0     H55708   7.944   8.721  11.591  5.4715 -2.5991 -0.4025
  413MOL0     H55709   8.173   8.720  11.627  0.3785 -0.3161  0.4769
  413MOL0     H55710   8.179   8.873  11.712  0.9632  0.6348  2.9885
  413MOL0     H55711   8.201   8.662  11.838  0.7032  1.7798  1.4195
  413MOL0     H55712   8.022   8.632  11.814 -1.5199  0.3954 -2.4426
  413MOL0     H55713   7.966   8.844  11.929 -1.0266 -2.0799 -1.4838
  413MOL0     H55714   8.139   8.877  11.951 -0.7372  0.7059  0.4663
  413MOL0     H55715   7.991   8.745  12.321  0.1939 -3.1422  1.1356
  413MOL0     H55716   8.141   8.786  12.502 -0.6850  1.7014  0.2431
  413MOL0     H55717   8.290   8.939  12.838 -0.3578  0.4175  0.6218
  413MOL0     H55718   8.392   8.933  13.058 -1.2232  2.4752 -1.6076
  413MOL0     H55719   8.719   8.621  13.156  0.2557 -0.1787  0.5766
  413MOL0     H55720   8.811   8.743  13.065 -0.0801 -0.5559  0.7099
  413MOL0     H55721   8.779   8.885  13.279  2.0537  0.5229  1.6679
  413MOL0     H55722   8.773   8.724  13.358 -0.3353  0.3813 -0.0552
  413MOL0     H55723   8.985   8.780  13.152 -1.2460  0.6082 -0.4908
  413MOL0     H55724   9.000   8.849  13.320  1.8111 -2.2392  1.4008
  413MOL0     H55725   8.995   8.567  13.207 -2.1025  1.0947 -1.8245
  413MOL0     H55726   8.963   8.589  13.379 -0.4025  1.5035  0.2973
  413MOL0     H55727   9.179   8.756  13.370 -1.1778 -0.6211  0.0102
  413MOL0     H55728   9.206   8.682  13.217 -1.2160  2.7259 -0.5053
  413MOL0     H55729   9.155   8.508  13.460  2.3659 -0.6797  1.8698
  413MOL0     H55730   9.235   8.478  13.302 -2.4529  0.6289 -1.1810
  413MOL0     H55731   9.352   8.690  13.478  1.4521  0.1783  1.4922
  413MOL0     H55732   9.426   8.608  13.353 -0.6175 -0.8673 -0.2321
  413MOL0     H55733   9.525   8.517  13.558 -0.8574  2.6966 -0.6991
  413MOL0     H55734   9.373   8.484  13.629  1.4483 -1.9909  0.6754
  413MOL0     H55735   8.685   8.661  12.897 -0.0585 -0.8659 -1.6994
  413MOL0     H55736   8.596   8.687  12.686  1.7646 -0.2787  1.0628
  413MOL0     H55737   8.472   8.741  12.228  0.0021 -0.8805  0.8077
  413MOL0     H55738   8.344   8.707  12.053  1.8019  0.3006  0.5058
  413MOL0     H55739   7.990   9.792  11.273 -4.0824  0.8431 -0.7746
  413MOL0     H55740   8.069   9.977  11.389  0.6761 -1.0887  0.9625
  413MOL0     H55741   7.950  10.295  11.632  1.4613  0.9298  4.2416
  413MOL0     H55742   8.056  10.412  11.805 -1.3723  2.4333 -0.9935
  413MOL0     H55743   8.349  10.507  11.979  0.4241  4.4442 -0.2220
  413MOL0     H55744   8.187  10.435  11.948 -2.0168  0.9822  1.3239
  413MOL0     H55745   8.058  10.595  12.001 -0.7485  1.9746  0.5046
  413MOL0     H55746   8.137  10.710  11.914 -1.3917  0.2357  0.4889
  413MOL0     H55747   8.241  10.608  12.187 -0.5925 -1.0992 -2.2803
  413MOL0     H55748   8.140  10.745  12.154  0.2805 -1.7414  2.7927
  413MOL0     H55749   8.376  10.773  11.995  0.0507 -0.1018 -0.8124
  413MOL0     H55750   8.342  10.864  12.140  2.2799 -0.0494  1.3274
  413MOL0     H55751   8.663  10.583  12.223 -0.8156 -0.8468 -0.0805
  413MOL0     H55752   8.341  10.585  11.539 -0.2650 -0.1292  1.5866
  413MOL0     H55753   8.206  10.524  11.247  0.0437 -2.6550 -1.5363
  413MOL0     H55754   8.360  10.524  11.318  0.3022 -0.2292  2.6090
  413MOL0     H55755   8.295  10.368  11.276 -3.1715 -0.9325  0.8145
  414MOL0     O55756   1.202   3.908   0.123  0.7190 -0.1823 -0.5914
  414MOL0     C55757   1.079   3.900   0.141 -0.6406 -0.5288  0.8320
  414MOL0     O55758   1.014   3.941   0.247 -0.3935 -0.5021 -0.5012
  414MOL0     C55759   1.077   3.982   0.366  0.3423  1.5559  1.2090
  414MOL0     C55760   1.005   3.943   0.477  0.0394  0.5574 -0.2920
  414MOL0     C55761   1.056   3.957   0.607  0.4701  0.3191 -0.5984
  414MOL0     C55762   1.176   4.015   0.618 -0.0886 -1.1102  0.5070
  414MOL0     O55763   1.233   4.046   0.742  0.2125 -0.4465  0.0333
  414MOL0     C55764   1.159   4.044   0.866  0.2774 -0.8769  0.1519
  414MOL0     C55765   1.254   4.059   0.986 -0.0118 -0.0918  0.0986
  414MOL0     C55766   1.313   4.188   1.001 -0.2085 -1.4197 -0.2747
  414MOL0     C55767   1.435   4.182   1.105 -0.6738 -0.5063  0.0592
  414MOL0     C55768   1.489   4.322   1.156  0.3992 -0.3077  0.2964
  414MOL0     C55769   1.606   4.322   1.256 -0.3234 -0.3400  0.1220
  414MOL0     C55770   1.552   4.278   1.391  0.3311 -0.7449 -0.4772
  414MOL0     C55771   1.666   4.224   1.494  0.2602  0.5122  0.3453
  414MOL0     N55772   1.625   4.096   1.539 -0.1369  0.7249 -0.4973
  414MOL0     C55773   1.593   3.995   1.456 -0.4774  1.0996 -0.1012
  414MOL0     C55774   1.512   3.915   1.536 -0.1176  0.3052  0.4798
  414MOL0     C55775   1.422   3.804   1.474 -0.3248  0.3374 -0.5204
  414MOL0     C55776   1.408   3.679   1.576  0.1145  0.1972  0.3974
  414MOL0     C55777   1.311   3.562   1.536 -0.1309 -0.5095  0.4029
  414MOL0     C55778   1.164   3.597   1.530 -0.2363 -0.0914  0.7931
  414MOL0     O55779   1.143   3.684   1.416  0.2419  0.2369  0.4350
  414MOL0     C55780   1.024   3.759   1.422 -1.0160 -0.8847  1.0837
  414MOL0     C55781   0.913   3.715   1.489 -0.0244 -0.0007  0.7242
  414MOL0     C55782   0.790   3.791   1.483 -0.5895  0.4552  0.0769
  414MOL0     C55783   0.789   3.910   1.415 -0.4066  0.3888  1.2288
  414MOL0     C55784   0.667   3.989   1.390  1.0404 -0.2416 -0.9801
  414MOL0     O55785   0.540   3.938   1.421  0.0696  0.1664 -0.1946
  414MOL0     C55786   0.426   3.995   1.364  0.7850  0.2692  1.4045
  414MOL0     C55787   0.362   4.102   1.422 -0.3657  0.1807 -0.2474
  414MOL0     C55788   0.234   4.145   1.374  0.3207 -0.5881  0.1329
  414MOL0     C55789   0.169   4.088   1.264 -0.7120  0.4341 -0.3394
  414MOL0     O55790   0.047   4.139   1.211 -0.3091 -0.6213  0.4901
  414MOL0     C55791   0.053   4.191   1.074  0.6722 -1.1079  0.8525
  414MOL0     C55792  -0.073   4.145   0.995 -0.4307 -0.0162 -0.3765
  414MOL0     C55793  -0.066   3.992   0.972 -0.0446 -0.4775 -0.3981
  414MOL0     C55794  -0.187   3.933   0.896 -0.0691  0.0993 -0.6700
  414MOL0     C55795  -0.179   3.781   0.849  0.1098 -0.8730 -0.3417
  414MOL0     C55796  -0.084   3.763   0.723  0.4201 -0.8445  0.0204
  414MOL0     C55797  -0.088   3.628   0.665  0.8318 -0.3049 -0.6047
  414MOL0     C55798  -0.010   3.621   0.532 -0.4579  0.0994 -1.1362
  414MOL0    Cl55799   0.160   3.673   0.556  0.0192 -0.0769  0.2342
  414MOL0     C55800   0.243   3.978   1.199 -0.0103 -0.4912 -0.7794
  414MOL0     C55801   0.365   3.937   1.244  0.0999  0.6969 -0.0546
  414MOL0     O55802   0.686   4.092   1.336  0.5989  0.0821  0.0823
  414MOL0     C55803   0.906   3.962   1.365 -0.9201 -0.1792  0.2696
  414MOL0     C55804   1.022   3.885   1.352  0.2007  0.2151 -0.7388
  414MOL0     N55805   1.506   3.969   1.666 -0.3495  1.2261  0.5377
  414MOL0     N55806   1.565   4.075   1.663 -0.9690  0.4187 -0.1193
  414MOL0     C55807   1.245   4.058   0.513 -0.4004  0.0158  0.3165
  414MOL0     C55808   1.195   4.042   0.387 -0.5423 -0.2606 -1.1091
  414MOL0     C55809   0.993   3.836   0.030  0.8760 -0.1426 -0.7707
  414MOL0     C55810   0.872   3.776   0.068  0.3301 -0.2285 -0.3244
  414MOL0     C55811   0.800   3.714  -0.027  0.5546 -0.5757  0.1481
  414MOL0     C55812   0.834   3.712  -0.160 -0.4871 -0.2518 -0.3625
  414MOL0     O55813   0.763   3.651  -0.261  0.5317  0.0839 -1.3715
  414MOL0     C55814   0.645   3.584  -0.231  0.2466 -0.2510 -0.0368
  414MOL0     C55815   0.615   3.464  -0.335 -0.6869  0.4197  0.1355
  414MOL0     C55816   0.594   3.507  -0.475 -1.2405  0.3353  0.5622
  414MOL0     C55817   0.482   3.432  -0.544 -1.0772 -0.0924  0.0980
  414MOL0     C55818   0.350   3.455  -0.487 -0.3879  0.5938  0.3003
  414MOL0     C55819   0.243   3.484  -0.432 -0.6323  0.6143  0.2181
  414MOL0     C55820   0.942   3.774  -0.200  0.3397 -0.5657 -0.8196
  414MOL0     C55821   1.028   3.835  -0.105  0.8475 -0.0309  0.0122
  414MOL0     C55822   1.156   3.912  -0.159  1.0401  0.2297  1.1533
  414MOL0     H55823   0.908   3.897   0.462  0.5256 -1.0089  0.9870
  414MOL0     H55824   0.996   3.908   0.683 -0.5218 -1.1854 -2.2741
  414MOL0     H55825   1.091   4.130   0.867  0.2453 -0.9027  0.5431
  414MOL0     H55826   1.108   3.947   0.876  0.6279 -1.0145  0.6040
  414MOL0     H55827   1.322   3.974   0.977 -0.8436 -0.7787  0.1434
  414MOL0     H55828   1.208   4.042   1.084 -1.4969  2.0675 -0.1439
  414MOL0     H55829   1.243   4.261   1.042  0.7008 -0.0668 -1.0630
  414MOL0     H55830   1.343   4.223   0.902 -2.5203 -0.0826 -0.5724
  414MOL0     H55831   1.411   4.120   1.192 -0.2440 -0.7282  0.0183
  414MOL0     H55832   1.509   4.119   1.055 -2.8961 -1.1156 -2.6951
  414MOL0     H55833   1.518   4.392   1.077  3.3255  0.8328  2.1972
  414MOL0     H55834   1.402   4.371   1.201 -1.2981  0.0783 -3.0723
  414MOL0     H55835   1.691   4.263   1.222  0.4761  0.6386  0.3746
  414MOL0     H55836   1.654   4.420   1.265 -0.6051 -0.1396 -0.5009
  414MOL0     H55837   1.483   4.196   1.370  4.0344 -4.2076 -0.3766
  414MOL0     H55838   1.505   4.368   1.432  1.8140 -0.6757  1.2072
  414MOL0     H55839   1.764   4.222   1.445  0.9435 -0.5997  1.6917
  414MOL0     H55840   1.672   4.293   1.579 -0.1960  1.8528 -0.6617
  414MOL0     H55841   1.598   3.999   1.347 -1.4632 -0.9495 -0.2768
  414MOL0     H55842   1.327   3.839   1.433 -1.1676 -1.8920 -0.6022
  414MOL0     H55843   1.469   3.773   1.380  1.5390  3.5296 -0.8074
  414MOL0     H55844   1.506   3.634   1.595  1.6157  3.3883  0.7202
  414MOL0     H55845   1.371   3.713   1.673 -1.6019 -3.5933  1.2539
  414MOL0     H55846   1.330   3.480   1.606 -0.9507 -0.9922  0.0744
  414MOL0     H55847   1.344   3.526   1.438  2.1831  2.8689 -0.2244
  414MOL0     H55848   1.129   3.652   1.618 -1.9750 -2.8521  1.9965
  414MOL0     H55849   1.108   3.503   1.524  1.3113 -0.9773 -0.2624
  414MOL0     H55850   0.915   3.620   1.542  0.7560 -0.3060  0.1536
  414MOL0     H55851   0.700   3.751   1.527  1.6483 -3.5494  1.4770
  414MOL0     H55852   0.415   4.151   1.504  1.5847  0.5826 -1.6697
  414MOL0     H55853   0.173   4.220   1.423  2.3275  2.2015 -1.3627
  414MOL0     H55854   0.043   4.299   1.083  4.3582 -0.1493 -3.2001
  414MOL0     H55855   0.144   4.152   1.027  0.7809 -3.0026  2.4744
  414MOL0     H55856  -0.162   4.169   1.055  0.7560  1.2846  0.9451
  414MOL0     H55857  -0.080   4.197   0.900 -2.7326  1.6937  0.6308
  414MOL0     H55858   0.028   3.964   0.923 -0.3250 -2.1248 -0.0795
  414MOL0     H55859  -0.067   3.944   1.071 -1.1464 -0.6207 -0.4631
  414MOL0     H55860  -0.204   3.994   0.807  0.2992  2.2590  0.6488
  414MOL0     H55861  -0.277   3.941   0.958  0.7729  0.7946  0.5281
  414MOL0     H55862  -0.284   3.767   0.818  0.1467 -0.7327 -0.5297
  414MOL0     H55863  -0.157   3.709   0.929  1.6686  1.8419  1.8220
  414MOL0     H55864  -0.105   3.840   0.648  0.8619 -0.5916  0.1545
  414MOL0     H55865   0.016   3.786   0.761 -0.0446  2.6103 -0.4888
  414MOL0     H55866  -0.194   3.605   0.652  0.1040  2.4227 -0.0373
  414MOL0     H55867  -0.042   3.575   0.749 -2.6027  2.7183  3.6381
  414MOL0     H55868  -0.014   3.518   0.495  2.2585  0.1613 -1.8173
  414MOL0     H55869  -0.065   3.682   0.459 -2.0181 -0.5105 -0.4906
  414MOL0     H55870   0.206   3.940   1.104  1.5389 -0.7920 -1.2970
  414MOL0     H55871   0.432   3.868   1.192  2.3305  0.1102  3.2732
  414MOL0     H55872   0.910   4.057   1.313 -3.9498  0.8128  1.6193
  414MOL0     H55873   1.119   3.925   1.326  0.4306 -0.2838 -0.6393
  414MOL0     H55874   1.347   4.096   0.523 -1.2829  2.7567 -0.2655
  414MOL0     H55875   1.267   4.069   0.310  1.9274 -0.6214  0.9480
  414MOL0     H55876   0.848   3.767   0.174  1.1774 -0.8233 -0.1685
  414MOL0     H55877   0.702   3.675   0.002  0.2036  0.0504 -0.1702
  414MOL0     H55878   0.556   3.646  -0.244 -0.6496 -1.7263 -1.1510
  414MOL0     H55879   0.637   3.540  -0.131  3.5617 -0.5225  0.2428
  414MOL0     H55880   0.532   3.398  -0.305 -0.4159  0.6379  1.4374
  414MOL0     H55881   0.700   3.399  -0.313 -1.6159 -1.4638 -1.4642
  414MOL0     H55882   0.695   3.494  -0.515 -0.2995  2.3164  2.1020
  414MOL0     H55883   0.577   3.615  -0.473 -0.1415  0.5145  2.1529
  414MOL0     H55884   0.467   3.474  -0.643 -1.3940 -1.8428 -0.6367
  414MOL0     H55885   0.502   3.324  -0.550 -2.2421 -0.3796  0.9053
  414MOL0     H55886   0.147   3.513  -0.395 -0.7359 -0.4679  0.8356
  414MOL0     H55887   0.964   3.759  -0.306  1.0983 -2.2703 -0.4600
  414MOL0     H55888   1.158   3.908  -0.268  1.1895 -2.2942  1.1890
  414MOL0     H55889   1.160   4.017  -0.128  1.5060  0.5974 -0.1102
  414MOL0     H55890   1.244   3.861  -0.120  1.5951  1.8363  2.1323
  415MOL0     O55891   5.218   4.678   2.115  0.0457 -0.5068 -0.6102
  415MOL0     C55892   5.324   4.693   2.180 -0.3186 -0.6516 -0.6382
  415MOL0     O55893   5.355   4.801   2.259 -0.2099 -0.0954 -0.3414
  415MOL0     C55894   5.261   4.895   2.284  0.5380  0.9290  0.6860
  415MOL0     C55895   5.228   4.926   2.416  0.2818  0.2953 -0.0636
  415MOL0     C55896   5.131   5.022   2.446  0.2673 -0.6876 -0.5785
  415MOL0     C55897   5.057   5.086   2.346  0.6842 -0.1985 -0.3125
  415MOL0     O55898   4.951   5.166   2.365  0.3087 -0.3682 -0.7107
  415MOL0     C55899   4.970   5.281   2.454 -0.6563 -0.3039 -0.7216
  415MOL0     C55900   4.961   5.419   2.387 -0.1293  0.8646  1.0413
  415MOL0     C55901   5.052   5.422   2.264  0.0869 -0.4020 -0.2047
  415MOL0     C55902   5.205   5.410   2.293 -0.3055  0.9308 -0.6581
  415MOL0     C55903   5.305   5.449   2.180  0.0782  0.4140  0.8774
  415MOL0     C55904   5.293   5.344   2.059 -1.3452 -0.2280 -0.3646
  415MOL0     C55905   5.398   5.367   1.944  0.3996 -0.4111 -0.0366
  415MOL0     C55906   5.333   5.344   1.804 -0.1787  0.7774 -0.8842
  415MOL0     N55907   5.255   5.455   1.751  0.5224 -0.0178 -0.8694
  415MOL0     C55908   5.134   5.454   1.691 -0.4193 -0.7030  0.2072
  415MOL0     C55909   5.137   5.576   1.623  1.1699 -0.0867  1.5917
  415MOL0     C55910   5.023   5.625   1.531  0.3759 -0.0262 -0.5094
  415MOL0     C55911   4.915   5.672   1.624  0.0906  1.2293 -0.2653
  415MOL0     C55912   4.943   5.809   1.700  0.3719  0.2567 -0.2045
  415MOL0     C55913   4.888   5.919   1.613 -0.3570 -1.0525 -0.0728
  415MOL0     O55914   4.764   5.958   1.677  0.0759  0.6619 -0.2425
  415MOL0     C55915   4.743   6.099   1.698 -0.1339 -1.0371  0.3425
  415MOL0     C55916   4.615   6.151   1.672  0.3988  0.7077 -0.1084
  415MOL0     C55917   4.581   6.282   1.715  0.0230  1.3204  0.3357
  415MOL0     C55918   4.668   6.371   1.773 -0.1799  0.1930 -0.1461
  415MOL0     C55919   4.622   6.502   1.826 -0.2827 -1.0115  0.1139
  415MOL0     O55920   4.519   6.568   1.758 -0.4920  0.3015 -0.5090
  415MOL0     C55921   4.489   6.693   1.792  1.4869 -0.4979 -0.7099
  415MOL0     C55922   4.435   6.724   1.925  0.3806 -0.4143 -0.1720
  415MOL0     C55923   4.371   6.850   1.956  0.0395  0.5313  0.0299
  415MOL0     C55924   4.342   6.942   1.848 -0.4244  0.3045  0.3051
  415MOL0     O55925   4.279   7.061   1.871 -0.1413 -0.9265 -0.0891
  415MOL0     C55926   4.134   7.079   1.855 -0.5143 -0.1211 -0.2907
  415MOL0     C55927   4.113   7.193   1.761  0.2930  1.0416 -0.2576
  415MOL0     C55928   3.970   7.205   1.719  0.5724 -0.0689  0.2831
  415MOL0     C55929   3.940   7.320   1.637 -0.0675 -0.8473 -0.6909
  415MOL0     C55930   3.792   7.310   1.608 -0.2253 -0.4878 -0.8994
  415MOL0     C55931   3.739   7.423   1.509 -1.0540  0.2289 -0.5057
  415MOL0     C55932   3.799   7.399   1.372 -0.7782 -0.6671 -0.3030
  415MOL0     C55933   3.708   7.421   1.249  0.0060 -0.6189 -0.5048
  415MOL0    Cl55934   3.644   7.591   1.269 -0.0603  0.1150 -0.2426
  415MOL0     C55935   4.376   6.896   1.716 -0.0536 -0.6415  0.0762
  415MOL0     C55936   4.451   6.781   1.694  0.1622  1.5041 -0.6559
  415MOL0     O55937   4.693   6.554   1.917 -0.0077 -0.4970  0.6326
  415MOL0     C55938   4.802   6.321   1.784 -0.3610  0.3132  1.4123
  415MOL0     C55939   4.836   6.189   1.759 -0.0163  0.6248 -0.0278
  415MOL0     N55940   5.247   5.647   1.654 -1.2276 -0.8831 -0.6402
  415MOL0     N55941   5.325   5.574   1.722  0.4727 -0.2942 -0.1122
  415MOL0     C55942   5.100   5.053   2.212 -0.3527  0.3428  0.0750
  415MOL0     C55943   5.205   4.972   2.185  0.3371 -0.2954  0.0800
  415MOL0     C55944   5.434   4.597   2.157  0.3359 -0.7529  0.3429
  415MOL0     C55945   5.442   4.494   2.245 -0.6940  0.7827 -0.2343
  415MOL0     C55946   5.535   4.394   2.222  0.5768  0.8128  0.4759
  415MOL0     C55947   5.638   4.398   2.126  1.0447  1.1911  0.5930
  415MOL0     O55948   5.724   4.296   2.113 -0.5633  0.6881  0.0197
  415MOL0     C55949   5.774   4.251   1.986  0.8481 -0.9544 -0.5925
  415MOL0     C55950   5.905   4.326   1.971 -1.0792 -0.5504  0.0632
  415MOL0     C55951   6.008   4.240   1.898  0.5068  0.7320 -1.1102
  415MOL0     C55952   6.152   4.303   1.911  0.4598  0.1517  0.2011
  415MOL0     C55953   6.255   4.226   1.844 -0.2752  0.0632 -0.0780
  415MOL0     C55954   6.311   4.162   1.753  0.1863 -0.1095  0.0005
  415MOL0     C55955   5.625   4.496   2.036 -1.1438 -0.7483  0.0065
  415MOL0     C55956   5.530   4.601   2.050 -0.3883  0.2895 -0.1639
  415MOL0     C55957   5.536   4.712   1.950 -0.0306  0.5816  0.2090
  415MOL0     H55958   5.259   4.855   2.492 -1.3374 -0.2798  0.0866
  415MOL0     H55959   5.129   5.040   2.553 -3.7436 -2.1652 -0.2226
  415MOL0     H55960   4.909   5.257   2.542  0.6351 -2.3657 -0.3171
  415MOL0     H55961   5.066   5.279   2.505 -0.2540 -0.0730 -1.4545
  415MOL0     H55962   4.960   5.500   2.461  1.7073 -0.2337  2.3403
  415MOL0     H55963   4.855   5.419   2.357  0.2912 -0.1866 -0.5674
  415MOL0     H55964   5.033   5.516   2.210  1.0302 -1.4300 -2.4698
  415MOL0     H55965   5.026   5.347   2.189  0.6301 -0.8837  0.0847
  415MOL0     H55966   5.229   5.475   2.377  0.5192 -0.8398  0.5315
  415MOL0     H55967   5.233   5.310   2.328 -1.0740 -0.0334 -2.6108
  415MOL0     H55968   5.284   5.554   2.160  3.4276  1.0068 -0.1203
  415MOL0     H55969   5.406   5.450   2.220  0.5819  3.3150 -0.2807
  415MOL0     H55970   5.316   5.250   2.109  1.9244 -0.5050 -2.0736
  415MOL0     H55971   5.188   5.339   2.031 -2.3335  0.9608  2.6643
  415MOL0     H55972   5.484   5.304   1.968  1.5111 -0.1078 -2.7930
  415MOL0     H55973   5.428   5.471   1.959 -1.1981 -0.1747  1.9618
  415MOL0     H55974   5.412   5.321   1.732  0.8188  2.9024 -0.5544
  415MOL0     H55975   5.276   5.251   1.814  0.4832  0.6634  4.4156
  415MOL0     H55976   5.060   5.374   1.685 -2.9874  1.5385  0.4738
  415MOL0     H55977   5.047   5.721   1.484  2.1539  0.8317  1.9187
  415MOL0     H55978   4.981   5.547   1.468 -0.0876 -0.9208  0.8501
  415MOL0     H55979   4.824   5.698   1.569 -0.8649 -0.6130  0.3748
  415MOL0     H55980   4.899   5.587   1.691  4.5341 -3.9360 -4.7422
  415MOL0     H55981   5.046   5.825   1.732  0.2228  2.7608 -0.7968
  415MOL0     H55982   4.888   5.806   1.794  1.3918 -2.0481  0.3929
  415MOL0     H55983   4.884   5.888   1.508  2.6664 -0.3117 -0.4861
  415MOL0     H55984   4.965   5.996   1.620 -0.9804 -0.5572  1.5407
  415MOL0     H55985   4.558   6.075   1.619 -0.6267  0.2732  1.5423
  415MOL0     H55986   4.476   6.310   1.711 -0.8944 -1.7829  0.1159
  415MOL0     H55987   4.437   6.637   1.990 -1.2358 -3.0035 -3.2838
  415MOL0     H55988   4.317   6.860   2.050  0.1836  0.0044  0.1763
  415MOL0     H55989   4.104   6.983   1.813  2.7469 -1.8723  0.9928
  415MOL0     H55990   4.086   7.092   1.952 -0.2619  3.3639 -0.5247
  415MOL0     H55991   4.142   7.292   1.797  1.1064 -0.3432  3.3611
  415MOL0     H55992   4.177   7.169   1.676  1.9318 -1.4157  1.5475
  415MOL0     H55993   3.941   7.116   1.662 -1.8401  0.1443  1.0643
  415MOL0     H55994   3.902   7.188   1.803  1.1071 -0.7199  0.6015
  415MOL0     H55995   4.006   7.325   1.550 -1.9612 -1.6160 -2.2523
  415MOL0     H55996   3.951   7.417   1.687  0.1048 -1.1392 -0.1553
  415MOL0     H55997   3.728   7.296   1.696 -4.4021  2.0791 -3.1600
  415MOL0     H55998   3.788   7.217   1.550  0.0208 -0.4551 -0.9663
  415MOL0     H55999   3.630   7.419   1.505 -1.1558  0.8920  1.0660
  415MOL0     H56000   3.766   7.519   1.554  0.8636 -0.6553  0.3554
  415MOL0     H56001   3.832   7.296   1.362 -3.3290 -1.5655 -0.2441
  415MOL0     H56002   3.883   7.468   1.381  0.0992 -1.7855  0.3134
  415MOL0     H56003   3.770   7.386   1.166 -0.4304 -1.0645 -0.6477
  415MOL0     H56004   3.622   7.354   1.260 -0.4878 -0.1290 -1.3077
  415MOL0     H56005   4.359   6.960   1.629  2.5715 -0.0686 -0.1009
  415MOL0     H56006   4.473   6.755   1.591 -1.1089  1.4518 -0.9250
  415MOL0     H56007   4.872   6.378   1.844  0.4873 -3.2113  4.1110
  415MOL0     H56008   4.937   6.155   1.775  0.4659  1.6385 -0.8413
  415MOL0     H56009   5.033   5.092   2.136 -2.0590 -1.7624  0.4030
  415MOL0     H56010   5.237   4.960   2.082 -2.4235 -3.3372 -0.6080
  415MOL0     H56011   5.382   4.503   2.335 -3.5255  0.1480 -1.9160
  415MOL0     H56012   5.518   4.315   2.294 -2.5351  2.1091  1.3488
  415MOL0     H56013   5.695   4.274   1.914  0.4843 -2.5610 -0.7376
  415MOL0     H56014   5.788   4.143   1.987  0.1938 -1.0412 -0.3080
  415MOL0     H56015   5.939   4.362   2.068 -0.1607  0.0532 -0.4680
  415MOL0     H56016   5.886   4.412   1.907 -1.6393  0.0866  1.0638
  415MOL0     H56017   5.996   4.230   1.790 -0.4689 -0.1660 -0.9402
  415MOL0     H56018   6.004   4.143   1.948 -1.5326  1.0852 -0.4836
  415MOL0     H56019   6.140   4.404   1.870  5.7609  0.2042 -2.0455
  415MOL0     H56020   6.173   4.299   2.019 -0.1651 -3.5770  0.3159
  415MOL0     H56021   6.361   4.119   1.668  1.0877  1.4716 -0.2976
  415MOL0     H56022   5.709   4.506   1.968 -1.7980 -2.3530 -1.0879
  415MOL0     H56023   5.447   4.737   1.892  1.2359 -3.2917 -4.0445
  415MOL0     H56024   5.565   4.801   2.006  4.2238  0.9801 -2.1726
  415MOL0     H56025   5.609   4.698   1.870  1.2271  0.1777  1.3816
  416MOL0     O56026  11.281   9.753   9.555 -0.1182 -0.2584  0.1148
  416MOL0     C56027  11.227   9.722   9.658  0.0944 -0.5218 -0.5332
  416MOL0     O56028  11.292   9.722   9.778  0.2905  0.1195 -0.5487
  416MOL0     C56029  11.427   9.748   9.789  0.0152 -0.7225  0.5372
  416MOL0     C56030  11.479   9.849   9.875 -0.0191  0.7977 -0.5424
  416MOL0     C56031  11.613   9.869   9.891  0.5478 -0.3475 -1.4096
  416MOL0     C56032  11.708   9.803   9.824 -0.3316  0.2486 -0.6046
  416MOL0     O56033  11.837   9.842   9.831 -0.8636 -0.5196 -0.0948
  416MOL0     C56034  11.930   9.776   9.750 -0.5812 -0.6627 -0.1104
  416MOL0     C56035  12.067   9.849   9.755  0.1851 -0.3934 -0.4704
  416MOL0     C56036  12.131   9.811   9.891 -0.5026 -0.5056 -0.5480
  416MOL0     C56037  12.199   9.668   9.871 -0.0505 -1.4848  0.0048
  416MOL0     C56038  12.255   9.600  10.004  0.5159 -0.5309  0.8168
  416MOL0     C56039  12.401   9.664  10.029 -0.1368 -0.2044 -0.4099
  416MOL0     C56040  12.441   9.617  10.168 -0.1344 -0.5130 -0.1788
  416MOL0     C56041  12.581   9.635  10.219  0.3562  0.2106  0.6706
  416MOL0     N56042  12.611   9.779  10.207  0.9636 -0.4851 -0.6370
  416MOL0     C56043  12.731   9.836  10.160  0.9097 -0.9704  0.1862
  416MOL0     C56044  12.697   9.972  10.173 -0.9341 -0.1408 -0.9762
  416MOL0     C56045  12.794  10.083  10.127 -0.7325  0.0695  0.9982
  416MOL0     C56046  12.908  10.043  10.024  0.3213  0.0701 -0.1425
  416MOL0     C56047  12.857   9.981   9.893  0.1444  0.1264  0.2798
  416MOL0     C56048  12.716  10.009   9.847  0.0266  0.6775  0.2587
  416MOL0     O56049  12.675  10.143   9.816 -0.1067 -0.0095 -0.6087
  416MOL0     C56050  12.546  10.170   9.778 -0.8142 -0.2851  0.0555
  416MOL0     C56051  12.453  10.083   9.753  1.0494 -0.0612 -0.4173
  416MOL0     C56052  12.323  10.122   9.715 -0.3004 -0.0755  0.3903
  416MOL0     C56053  12.291  10.258   9.719 -0.2588  0.5020  0.0441
  416MOL0     C56054  12.147  10.297   9.691  0.2649  1.1835  0.4223
  416MOL0     O56055  12.066  10.200   9.649  0.6616  0.2384 -0.7643
  416MOL0     C56056  11.934  10.230   9.625  0.9880  0.7230  0.6414
  416MOL0     C56057  11.843  10.122   9.618 -0.0276  0.1921  0.0208
  416MOL0     C56058  11.700  10.133   9.613 -0.6629  1.0099  0.0649
  416MOL0     C56059  11.648  10.253   9.563 -0.0697  0.0434 -0.0907
  416MOL0     O56060  11.515  10.275   9.540  0.1455  0.4474  0.5298
  416MOL0     C56061  11.440  10.157   9.503 -0.0866  0.4692 -0.7176
  416MOL0     C56062  11.303  10.189   9.455 -0.7941  0.9173  0.0161
  416MOL0     C56063  11.208  10.079   9.508 -0.3856  0.0025 -0.3510
  416MOL0     C56064  11.073  10.107   9.451 -0.6387 -0.7673  0.0600
  416MOL0     C56065  10.977  10.004   9.514  0.8372  0.1894  0.3985
  416MOL0     C56066  10.829  10.031   9.489  0.6457 -0.2928  0.2653
  416MOL0     C56067  10.747   9.899   9.490  0.1656  1.5049 -0.6506
  416MOL0     C56068  10.593   9.916   9.497  0.8413  0.4868  0.1306
  416MOL0    Cl56069  10.536   9.996   9.349  0.0585  0.3735 -0.0014
  416MOL0     C56070  11.726  10.367   9.567  0.1559  0.6413  0.5330
  416MOL0     C56071  11.873  10.354   9.595  0.8846 -0.3113 -0.2666
  416MOL0     O56072  12.118  10.408   9.734 -0.6164  0.1888 -0.2932
  416MOL0     C56073  12.384  10.357   9.752 -0.6959 -0.1822 -0.1219
  416MOL0     C56074  12.510  10.307   9.791 -0.4483  0.0527 -0.2351
  416MOL0     N56075  12.579   9.989  10.242  0.7774 -0.2033 -0.0907
  416MOL0     N56076  12.530   9.871  10.270  0.0810 -0.0541  0.4511
  416MOL0     C56077  11.661   9.717   9.732 -0.4903  0.5159  0.3000
  416MOL0     C56078  11.524   9.684   9.718  0.3845  0.5953  0.1526
  416MOL0     C56079  11.093   9.663   9.664 -0.2683  0.3081  0.6001
  416MOL0     C56080  11.028   9.659   9.781 -0.4741 -0.7805 -0.0559
  416MOL0     C56081  10.896   9.614   9.798  0.9476 -0.3952 -0.5789
  416MOL0     C56082  10.828   9.563   9.684  0.7065 -0.2809 -0.3494
  416MOL0     O56083  10.693   9.520   9.680  0.1599 -0.0024  0.7549
  416MOL0     C56084  10.611   9.532   9.797 -0.7912 -0.2999  1.1896
  416MOL0     C56085  10.517   9.411   9.788  0.5177  0.1050 -0.6406
  416MOL0     C56086  10.410   9.387   9.906 -0.4786  0.1557  0.0616
  416MOL0     C56087  10.270   9.436   9.855  0.4527 -0.4624  0.4369
  416MOL0     C56088  10.156   9.448   9.950  0.9453 -0.3924  0.0598
  416MOL0     C56089  10.058   9.446  10.032  0.1266  0.4825 -0.0203
  416MOL0     C56090  10.888   9.569   9.556 -0.6120 -1.3930 -0.8097
  416MOL0     C56091  11.018   9.633   9.547 -0.1414 -0.0188  0.2818
  416MOL0     C56092  11.076   9.625   9.408  1.6667 -1.1821 -1.0172
  416MOL0     H56093  11.410   9.905   9.937 -2.1342  1.1857 -3.0786
  416MOL0     H56094  11.640   9.955   9.951  0.0344 -0.4643 -1.0053
  416MOL0     H56095  11.932   9.671   9.780 -2.6334 -0.2597  1.7580
  416MOL0     H56096  11.898   9.779   9.645  0.0436 -1.7060 -0.3452
  416MOL0     H56097  12.047   9.956   9.747 -0.6470 -0.0136  4.1855
  416MOL0     H56098  12.129   9.821   9.669 -1.3103  1.3572 -2.2153
  416MOL0     H56099  12.064   9.809   9.978 -1.7443 -0.9926 -1.4946
  416MOL0     H56100  12.206   9.885   9.923 -4.0158  3.5121 -0.6894
  416MOL0     H56101  12.119   9.603   9.835  0.5891 -0.2886 -3.9654
  416MOL0     H56102  12.272   9.672   9.790 -2.5066  1.0640 -2.2806
  416MOL0     H56103  12.180   9.604  10.084 -1.3656 -1.7240 -0.7697
  416MOL0     H56104  12.269   9.493   9.985 -0.0494 -1.0818  3.1952
  416MOL0     H56105  12.471   9.638   9.950 -1.0761 -0.7137 -1.0974
  416MOL0     H56106  12.396   9.773  10.033 -1.3681 -0.1977 -1.5681
  416MOL0     H56107  12.427   9.510  10.184 -2.2619 -0.2865 -0.2162
  416MOL0     H56108  12.378   9.661  10.246  0.2752 -2.1834  1.1449
  416MOL0     H56109  12.593   9.597  10.320  0.2123 -0.6825  0.3557
  416MOL0     H56110  12.656   9.589  10.153  1.2098  3.3018 -0.7175
  416MOL0     H56111  12.818   9.794  10.112  3.8517  1.8905  2.5243
  416MOL0     H56112  12.737  10.157  10.070  0.2925  0.3399  0.3023
  416MOL0     H56113  12.850  10.120  10.213  2.1355  1.2352 -1.2084
  416MOL0     H56114  12.959  10.135   9.993 -0.2548 -0.2686 -2.2781
  416MOL0     H56115  12.977   9.969  10.065 -1.8191 -1.5935  0.7078
  416MOL0     H56116  12.869   9.873   9.907  1.7076  0.5328  2.5474
  416MOL0     H56117  12.921  10.007   9.808 -0.4763  1.1181  0.0944
  416MOL0     H56118  12.643   9.969   9.919  0.8132 -0.5901  0.3743
  416MOL0     H56119  12.709   9.956   9.751 -0.5435 -0.2682  0.8100
  416MOL0     H56120  12.475   9.977   9.763 -1.5228 -0.3903  4.4215
  416MOL0     H56121  12.255  10.044   9.680 -0.1739  0.7067 -1.7440
  416MOL0     H56122  11.888  10.031   9.657 -0.2108 -0.2098 -0.6809
  416MOL0     H56123  11.639  10.046   9.637 -1.0679  1.4454  0.6511
  416MOL0     H56124  11.494  10.099   9.427  4.3454  0.0596  2.3588
  416MOL0     H56125  11.417  10.095   9.590 -0.2628 -1.6663 -2.2172
  416MOL0     H56126  11.274  10.289   9.487  2.5848  1.8022  0.5768
  416MOL0     H56127  11.311  10.179   9.346  1.2755 -3.0122  0.3528
  416MOL0     H56128  11.234   9.976   9.485  1.5853  0.8364 -2.1538
  416MOL0     H56129  11.205  10.087   9.617 -4.0166 -0.7252 -0.2618
  416MOL0     H56130  11.083  10.099   9.342  1.9064  2.8002 -0.1323
  416MOL0     H56131  11.036  10.207   9.475  0.0889 -0.5153  0.1582
  416MOL0     H56132  11.005   9.994   9.620 -0.9485  1.3904  1.0194
  416MOL0     H56133  11.000   9.904   9.475 -1.1485  0.2779 -1.1269
  416MOL0     H56134  10.782  10.108   9.550 -0.5917 -1.4130  0.7791
  416MOL0     H56135  10.807  10.062   9.387 -1.9853 -2.4145  0.0623
  416MOL0     H56136  10.766   9.847   9.585 -1.3677  2.5342  0.2640
  416MOL0     H56137  10.765   9.832   9.407 -1.7107 -0.4290  0.4132
  416MOL0     H56138  10.543   9.819   9.502 -0.7138  1.0360 -2.7910
  416MOL0     H56139  10.565   9.976   9.584  0.6142 -0.5401  0.7891
  416MOL0     H56140  11.687  10.462   9.533  1.5746  0.5976 -1.3561
  416MOL0     H56141  11.925  10.449   9.585  2.6074 -1.4826 -5.7769
  416MOL0     H56142  12.348  10.459   9.762 -2.0204 -0.7946  2.0515
  416MOL0     H56143  12.589  10.379   9.804  2.1399 -2.5539 -0.4723
  416MOL0     H56144  11.735   9.672   9.667 -0.1564 -0.8851  1.5833
  416MOL0     H56145  11.495   9.611   9.643  0.2898  2.1151 -1.3609
  416MOL0     H56146  11.073   9.697   9.872 -2.8036 -0.6222  1.0945
  416MOL0     H56147  10.854   9.610   9.898 -1.9106  1.3866 -1.5861
  416MOL0     H56148  10.546   9.619   9.783 -2.0838 -1.4020  0.1826
  416MOL0     H56149  10.664   9.530   9.893  0.2199 -3.8144  0.7049
  416MOL0     H56150  10.576   9.319   9.797 -1.7177 -1.2063  5.0062
  416MOL0     H56151  10.458   9.422   9.697 -1.9212  1.6274  1.0144
  416MOL0     H56152  10.439   9.448   9.993 -0.9669 -1.9769  1.8156
  416MOL0     H56153  10.408   9.282   9.934  1.5256  0.3645  1.1972
  416MOL0     H56154  10.285   9.536   9.814  0.1622 -0.2322  0.8873
  416MOL0     H56155  10.227   9.379   9.771  0.6548  0.8981 -0.6158
  416MOL0     H56156   9.964   9.449  10.083 -0.7217  0.5329 -1.5492
  416MOL0     H56157  10.832   9.533   9.470 -0.1931 -0.0626 -1.6828
  416MOL0     H56158  11.146   9.542   9.398 -1.4848 -4.6296  2.2807
  416MOL0     H56159  10.981   9.609   9.356 -0.5054  1.3653  1.7915
  416MOL0     H56160  11.121   9.720   9.378 -1.0820  0.9096  0.9510
  417MOL0     O56161  10.918   0.064   7.265 -0.4932  0.5179 -0.1839
  417MOL0     C56162  10.828   0.072   7.347 -1.1001  0.9321  0.0704
  417MOL0     O56163  10.702   0.127   7.324  0.1580 -0.2894 -0.5781
  417MOL0     C56164  10.635   0.145   7.203  0.7457  0.3318 -0.6914
  417MOL0     C56165  10.495   0.180   7.204  1.1662 -1.2145  0.8629
  417MOL0     C56166  10.423   0.194   7.086  1.1533 -0.1473  0.2050
  417MOL0     C56167  10.478   0.158   6.964  0.4572  0.2152  0.1558
  417MOL0     O56168  10.419   0.164   6.839  0.0786 -0.3727  0.0973
  417MOL0     C56169  10.294   0.100   6.827 -0.8329  0.5247  0.3305
  417MOL0     C56170  10.293   0.031   6.691  0.2964  0.7088  0.2133
  417MOL0     C56171  10.391  -0.079   6.671 -1.0408  0.1722  0.1292
  417MOL0     C56172  10.372  -0.168   6.548 -0.3563  0.2573 -0.4996
  417MOL0     C56173  10.399  -0.102   6.402 -0.4686  0.3954 -0.6169
  417MOL0     C56174  10.354  -0.205   6.296  0.2022 -0.1982  0.3319
  417MOL0     C56175  10.359  -0.153   6.156 -0.1322  0.2866  0.4758
  417MOL0     C56176  10.347  -0.283   6.061  0.2797  0.2939 -0.1797
  417MOL0     N56177  10.358  -0.240   5.921 -0.8828 -0.3104 -0.4067
  417MOL0     C56178  10.470  -0.259   5.840  0.0999  0.4186  0.4416
  417MOL0     C56179  10.426  -0.216   5.720  0.2843 -1.1397 -0.5799
  417MOL0     C56180  10.496  -0.231   5.590  0.3110 -1.0772  0.3261
  417MOL0     C56181  10.543  -0.095   5.543 -0.2484 -0.2452  0.1978
  417MOL0     C56182  10.636  -0.119   5.414 -0.0866 -0.3234 -0.3028
  417MOL0     C56183  10.566  -0.106   5.274  0.2025 -0.0824 -0.1721
  417MOL0     O56184  10.503  -0.237   5.245  0.4678 -0.3665  0.0362
  417MOL0     C56185  10.467  -0.254   5.110  0.2472  0.0074 -0.1541
  417MOL0     C56186  10.523  -0.356   5.041  0.3820  0.2005  0.2666
  417MOL0     C56187  10.489  -0.364   4.901 -0.3361 -0.4161 -0.2251
  417MOL0     C56188  10.393  -0.288   4.834 -0.0788 -0.6981  0.1742
  417MOL0     C56189  10.363  -0.314   4.693 -0.4319  0.1289  0.2287
  417MOL0     O56190  10.234  -0.289   4.661 -0.9075  0.4772  0.4569
  417MOL0     C56191  10.201  -0.285   4.529  0.0744 -0.0438  0.3042
  417MOL0     C56192  10.271  -0.208   4.437 -0.1692 -0.2871 -0.4152
  417MOL0     C56193  10.232  -0.199   4.306 -0.4630  0.1142  0.1503
  417MOL0     C56194  10.107  -0.244   4.264  0.1584  0.0782  0.4242
  417MOL0     O56195  10.076  -0.218   4.131 -0.1383  0.0554 -0.1431
  417MOL0     C56196   9.985  -0.108   4.122  0.1668 -0.9214  0.1195
  417MOL0     C56197  10.064   0.018   4.097  1.1114 -0.9278 -0.1935
  417MOL0     C56198   9.992   0.147   4.076  0.3167 -0.1406 -0.2240
  417MOL0     C56199   9.945   0.205   4.211 -0.2680  0.1919  0.2366
  417MOL0     C56200   9.893   0.353   4.221  0.0158  0.1359 -0.2320
  417MOL0     C56201   9.758   0.365   4.151  0.7614  0.2201 -0.0986
  417MOL0     C56202   9.703   0.499   4.189 -0.3625 -0.3021 -0.3552
  417MOL0     C56203   9.604   0.554   4.095  0.0079 -0.0895 -0.6733
  417MOL0    Cl56204   9.688   0.598   3.948  0.1890 -0.0144  0.4102
  417MOL0     C56205  10.014  -0.300   4.353  0.3066  0.0767 -0.7354
  417MOL0     C56206  10.071  -0.326   4.487 -1.2799  1.1260  0.5446
  417MOL0     O56207  10.455  -0.352   4.621 -0.4492  1.2002 -0.8150
  417MOL0     C56208  10.335  -0.185   4.915  0.4280 -1.2718 -0.8824
  417MOL0     C56209  10.370  -0.171   5.051  0.3509 -0.6637 -0.5492
  417MOL0     N56210  10.301  -0.158   5.745 -0.0490  0.1270  0.2575
  417MOL0     N56211  10.257  -0.181   5.864  0.4623 -0.4179 -0.3642
  417MOL0     C56212  10.622   0.134   6.961 -0.2091  1.3932  0.7235
  417MOL0     C56213  10.695   0.122   7.081 -0.3063 -1.0544 -0.5649
  417MOL0     C56214  10.877   0.048   7.485  0.4892 -0.5530  0.7632
  417MOL0     C56215  10.803   0.114   7.587 -0.1331  1.2490 -0.0052
  417MOL0     C56216  10.839   0.104   7.726  0.0665  0.0007 -0.3960
  417MOL0     C56217  10.955   0.037   7.761  0.6769  0.8456  0.0711
  417MOL0     O56218  10.967   0.027   7.895  0.1414  0.3978  0.3083
  417MOL0     C56219  11.081  -0.026   7.941 -0.5569 -0.2756 -0.3890
  417MOL0     C56220  11.090   0.042   8.078  0.3801 -0.0396 -0.5933
  417MOL0     C56221  11.209  -0.008   8.157  0.2782  0.7391 -0.9440
  417MOL0     C56222  11.206   0.065   8.290 -0.0517  0.1977 -0.7575
  417MOL0     C56223  11.317   0.164   8.305 -0.7449 -0.6442  0.0877
  417MOL0     C56224  11.415   0.235   8.324  0.3921  0.2878  0.0856
  417MOL0     C56225  11.031  -0.032   7.662  0.7930  0.4223  0.2045
  417MOL0     C56226  10.992  -0.035   7.524 -0.4916  0.8142 -0.6770
  417MOL0     C56227  11.066  -0.126   7.427  1.0084 -0.5521 -0.3281
  417MOL0     H56228  10.442   0.191   7.298  0.3421 -1.7099  0.4644
  417MOL0     H56229  10.324   0.236   7.075  1.5865  1.8340  2.8830
  417MOL0     H56230  10.268   0.033   6.909  2.2572  0.0944  1.0666
  417MOL0     H56231  10.223   0.182   6.839 -1.5927 -0.2012  0.9520
  417MOL0     H56232  10.304   0.110   6.615 -1.6551  2.7791  1.9230
  417MOL0     H56233  10.189   0.001   6.675  0.0229  2.8092 -3.0190
  417MOL0     H56234  10.381  -0.134   6.765 -0.5226 -0.1445  0.0044
  417MOL0     H56235  10.496  -0.048   6.675 -0.7857 -0.7435  1.2396
  417MOL0     H56236  10.450  -0.245   6.553 -0.4236 -0.5890 -6.0840
  417MOL0     H56237  10.276  -0.219   6.558 -0.7256  0.9789 -0.3144
  417MOL0     H56238  10.345  -0.007   6.404 -0.8833  0.1628  1.2133
  417MOL0     H56239  10.507  -0.087   6.393 -0.2777 -1.6210 -2.7112
  417MOL0     H56240  10.402  -0.303   6.307 -0.1028 -0.4804 -0.7312
  417MOL0     H56241  10.251  -0.234   6.318  0.1132 -1.9274 -1.9300
  417MOL0     H56242  10.450  -0.094   6.138 -0.5670  0.6327 -0.6449
  417MOL0     H56243  10.279  -0.081   6.141 -0.9039 -0.1728  2.1194
  417MOL0     H56244  10.425  -0.353   6.091  0.5861  0.8111  0.2533
  417MOL0     H56245  10.251  -0.332   6.083  0.4349 -0.2033 -0.5974
  417MOL0     H56246  10.556  -0.323   5.852 -0.7971 -1.2950 -1.6223
  417MOL0     H56247  10.565  -0.316   5.590  0.7702 -0.7123  0.8900
  417MOL0     H56248  10.417  -0.258   5.519  0.3095 -0.1842 -0.0255
  417MOL0     H56249  10.458  -0.033   5.513 -0.5362 -0.9918 -0.5531
  417MOL0     H56250  10.588  -0.035   5.623 -3.3430  2.1844  0.2949
  417MOL0     H56251  10.698  -0.208   5.423  2.6140  1.5338  0.8613
  417MOL0     H56252  10.699  -0.029   5.422 -2.6863  1.5573  0.2977
  417MOL0     H56253  10.629  -0.083   5.188  1.6738 -3.0249 -0.0122
  417MOL0     H56254  10.492  -0.026   5.274  1.3916  1.1677  2.5258
  417MOL0     H56255  10.593  -0.418   5.096  0.8362  0.5509  0.0891
  417MOL0     H56256  10.541  -0.447   4.852 -1.9329 -2.4222  1.3280
  417MOL0     H56257  10.359  -0.153   4.468 -1.7175  2.9103 -1.2999
  417MOL0     H56258  10.295  -0.157   4.228  0.8730 -1.6281  0.2161
  417MOL0     H56259   9.916  -0.133   4.041  2.0046 -0.7764 -1.5742
  417MOL0     H56260   9.924  -0.081   4.209 -0.2559 -0.2911 -0.3635
  417MOL0     H56261  10.136   0.030   4.178 -0.0513  4.0594  0.4142
  417MOL0     H56262  10.122  -0.002   4.006  2.6961 -0.6250  0.7049
  417MOL0     H56263  10.057   0.218   4.024  1.7172 -0.4235  1.0614
  417MOL0     H56264   9.902   0.137   4.014 -0.3523 -0.6735  0.8053
  417MOL0     H56265  10.029   0.203   4.281 -0.1048  1.3430  0.0973
  417MOL0     H56266   9.867   0.141   4.254  0.4599 -0.0437  1.2527
  417MOL0     H56267   9.967   0.418   4.175  0.9448 -0.5374  0.2632
  417MOL0     H56268   9.885   0.377   4.328  2.2841 -3.6115  0.9947
  417MOL0     H56269   9.772   0.347   4.044 -1.1869 -0.5029 -0.2705
  417MOL0     H56270   9.702   0.282   4.195  2.8972 -0.0937  2.2887
  417MOL0     H56271   9.789   0.565   4.198  0.2129 -0.9509 -0.9573
  417MOL0     H56272   9.659   0.494   4.289 -1.6103 -1.5727 -0.9310
  417MOL0     H56273   9.518   0.486   4.082 -1.9132  2.2709 -1.0317
  417MOL0     H56274   9.564   0.638   4.153 -0.0763 -2.2037  2.5645
  417MOL0     H56275   9.920  -0.339   4.315 -0.4983 -0.4690  1.6097
  417MOL0     H56276  10.018  -0.381   4.565 -5.0506  1.4013 -1.6029
  417MOL0     H56277  10.264  -0.117   4.870  0.3681 -1.2969 -0.8246
  417MOL0     H56278  10.334  -0.091   5.115  1.9701 -0.1259 -0.2682
  417MOL0     H56279  10.666   0.126   6.862  0.1762  0.3234  0.9710
  417MOL0     H56280  10.799   0.095   7.067 -0.8091 -2.2322 -2.4236
  417MOL0     H56281  10.709   0.166   7.577 -0.5335  0.2544 -1.7129
  417MOL0     H56282  10.780   0.158   7.800  1.0286  1.0419 -0.3632
  417MOL0     H56283  11.162   0.004   7.875 -2.8928  3.5531 -1.8343
  417MOL0     H56284  11.080  -0.135   7.948  1.4840 -0.3932 -1.3506
  417MOL0     H56285  10.994   0.017   8.125 -0.5945 -0.4062 -2.6681
  417MOL0     H56286  11.091   0.151   8.071 -0.3708  0.1424  1.4502
  417MOL0     H56287  11.308   0.005   8.111  0.8664 -0.1715  0.0121
  417MOL0     H56288  11.182  -0.110   8.185 -1.0691  1.6718  1.4547
  417MOL0     H56289  11.107   0.110   8.307 -0.0362 -0.1515  0.3225
  417MOL0     H56290  11.211  -0.005   8.373  0.1440  0.8520 -0.2070
  417MOL0     H56291  11.493   0.302   8.351  0.9439 -0.0808 -0.5649
  417MOL0     H56292  11.111  -0.101   7.685  1.5863  0.5745 -1.8958
  417MOL0     H56293  10.992  -0.173   7.362 -0.7368 -0.6291  1.5987
  417MOL0     H56294  11.122  -0.061   7.359 -0.8875  3.0492  1.2092
  417MOL0     H56295  11.138  -0.194   7.472  1.7878  1.0622  0.9808
  418MOL0     O56296  11.153   7.566   7.032 -0.5028 -0.6182 -0.3036
  418MOL0     C56297  11.121   7.602   7.142  0.3817  1.7497 -0.5857
  418MOL0     O56298  11.173   7.556   7.264 -0.1979 -0.1386 -0.3653
  418MOL0     C56299  11.295   7.498   7.253  0.7841 -0.7661 -0.5661
  418MOL0     C56300  11.416   7.572   7.280 -0.3992 -0.6163 -0.6761
  418MOL0     C56301  11.538   7.513   7.277  0.2438 -0.0833 -0.3008
  418MOL0     C56302  11.543   7.377   7.263 -0.2099  0.6894  0.8344
  418MOL0     O56303  11.662   7.307   7.250  0.1199  0.8185 -0.7850
  418MOL0     C56304  11.779   7.359   7.319 -0.6387  1.0248 -0.0167
  418MOL0     C56305  11.874   7.244   7.354 -0.5209 -0.3449  0.4291
  418MOL0     C56306  11.980   7.301   7.443  0.7106  0.1285  0.6641
  418MOL0     C56307  12.080   7.191   7.500 -0.5122 -0.4672  0.1304
  418MOL0     C56308  12.097   7.179   7.645  0.6478 -0.3075 -0.5820
  418MOL0     C56309  11.970   7.141   7.727 -1.0003  0.5049  0.1991
  418MOL0     C56310  12.007   7.131   7.879  0.3585  0.1896  1.1606
  418MOL0     C56311  12.008   6.986   7.937  0.4915 -0.3516 -0.5607
  418MOL0     N56312  12.148   6.941   7.945 -0.4311  0.3902 -0.4659
  418MOL0     C56313  12.220   6.952   8.062 -0.1764  0.0052 -1.2547
  418MOL0     C56314  12.313   6.862   8.058 -0.4594  0.1688 -0.0010
  418MOL0     C56315  12.407   6.810   8.155  0.7178  0.1430 -0.8681
  418MOL0     C56316  12.550   6.868   8.139  0.2297 -0.7962  1.3040
  418MOL0     C56317  12.651   6.831   8.253  0.3465  1.0907  0.9270
  418MOL0     C56318  12.783   6.900   8.246  0.0375  0.4180  0.3154
  418MOL0     O56319  12.773   7.031   8.314  0.1039 -0.2201  0.4204
  418MOL0     C56320  12.861   7.061   8.423  0.7361  0.1224  1.2997
  418MOL0     C56321  12.799   7.106   8.543  0.2461  0.2173 -0.5103
  418MOL0     C56322  12.875   7.134   8.657 -0.1536 -0.6427  0.4980
  418MOL0     C56323  13.020   7.116   8.663  0.5028  1.2042  0.5662
  418MOL0     C56324  13.083   7.137   8.790  1.0333  0.4745  0.1671
  418MOL0     O56325  13.211   7.099   8.787 -0.1469 -0.4267  0.0035
  418MOL0     C56326  13.290   7.091   8.898  0.2360 -0.0571  0.8550
  418MOL0     C56327  13.419   7.134   8.887  0.2290 -0.2518 -0.5663
  418MOL0     C56328  13.489   7.170   9.004 -0.5333  0.4479  1.1241
  418MOL0     C56329  13.444   7.135   9.129  0.5382  0.3910 -0.4840
  418MOL0     O56330  13.510   7.154   9.247 -1.0339 -0.2580  0.1820
  418MOL0     C56331  13.629   7.236   9.241 -0.2614 -0.3383  0.5968
  418MOL0     C56332  13.650   7.288   9.383  0.3424  0.1925  0.2083
  418MOL0     C56333  13.785   7.366   9.380 -0.9000  0.0770 -0.1370
  418MOL0     C56334  13.860   7.363   9.514  0.8140 -0.6156 -0.1702
  418MOL0     C56335  13.952   7.475   9.538 -0.4327 -0.0326 -0.5008
  418MOL0     C56336  14.082   7.437   9.454  0.5176  0.3353 -0.1000
  418MOL0     C56337  14.187   7.543   9.454  0.0965 -0.4315 -0.2911
  418MOL0     C56338  14.298   7.510   9.550  0.5299  0.2058  0.4039
  418MOL0    Cl56339  14.430   7.620   9.530  0.1067  0.3172  0.0428
  418MOL0     C56340  13.324   7.056   9.140  0.5939  0.1864 -0.2285
  418MOL0     C56341  13.247   7.035   9.020 -0.2246  0.0715 -0.2345
  418MOL0     O56342  13.014   7.175   8.887 -0.0259 -0.4476  0.1228
  418MOL0     C56343  13.075   7.063   8.545 -1.3288 -0.6078  0.4241
  418MOL0     C56344  12.999   7.038   8.431 -0.0002  0.2552 -0.3489
  418MOL0     N56345  12.304   6.801   7.934 -0.1576  0.1274  0.3958
  418MOL0     N56346  12.202   6.842   7.872 -0.7380 -0.8428 -0.2553
  418MOL0     C56347  11.427   7.298   7.253 -0.2209 -0.3853 -0.0306
  418MOL0     C56348  11.301   7.364   7.236 -0.1800 -0.7500  0.6324
  418MOL0     C56349  10.997   7.687   7.151  1.0349 -0.6304  0.6663
  418MOL0     C56350  10.880   7.633   7.089  0.2204  0.2708 -0.3228
  418MOL0     C56351  10.757   7.711   7.081  0.1756  0.1638  0.2563
  418MOL0     C56352  10.756   7.842   7.131 -0.4436  1.1694  0.9687
  418MOL0     O56353  10.638   7.921   7.123 -0.1502  0.1551 -0.2523
  418MOL0     C56354  10.512   7.847   7.151  0.2616  0.2254 -0.0391
  418MOL0     C56355  10.484   7.820   7.301  0.5349 -0.3200 -0.1139
  418MOL0     C56356  10.337   7.808   7.330 -0.0477 -0.3109 -0.1178
  418MOL0     C56357  10.285   7.720   7.446 -0.1252 -0.2638  0.8389
  418MOL0     C56358  10.343   7.744   7.581 -0.0659 -0.0593 -0.0158
  418MOL0     C56359  10.387   7.774   7.689 -0.2790 -0.5888  0.0285
  418MOL0     C56360  10.881   7.893   7.187  0.0497 -0.3018 -0.1913
  418MOL0     C56361  10.997   7.823   7.187  0.2787  0.1022  0.5306
  418MOL0     C56362  11.124   7.895   7.228 -0.4410 -0.3207  0.8032
  418MOL0     H56363  11.419   7.679   7.298  0.8612 -0.4449 -1.7510
  418MOL0     H56364  11.629   7.571   7.291  0.2275 -0.3218  0.9577
  418MOL0     H56365  11.828   7.436   7.259 -2.0075  0.2424 -2.2773
  418MOL0     H56366  11.742   7.401   7.413 -0.5828 -0.8110  0.8882
  418MOL0     H56367  11.922   7.205   7.264  0.7949  0.9470  0.5394
  418MOL0     H56368  11.824   7.157   7.398 -1.0843 -2.6626 -4.1876
  418MOL0     H56369  11.939   7.345   7.535  0.7827 -2.7834  2.1915
  418MOL0     H56370  12.041   7.373   7.387  3.9248  1.1201  4.8312
  418MOL0     H56371  12.069   7.093   7.451  4.0600 -0.8545 -0.5130
  418MOL0     H56372  12.182   7.215   7.471  0.3481 -1.8638  1.8205
  418MOL0     H56373  12.168   7.097   7.660 -0.3893 -0.8178  2.1590
  418MOL0     H56374  12.150   7.265   7.687  2.3903 -1.8302  0.5527
  418MOL0     H56375  11.880   7.203   7.725 -0.0306  1.9484 -2.0663
  418MOL0     H56376  11.950   7.043   7.685 -0.6108  0.7533 -0.5806
  418MOL0     H56377  11.928   7.190   7.927  0.4044  1.0883  0.1679
  418MOL0     H56378  12.104   7.179   7.896  1.4800 -2.3562  2.5646
  418MOL0     H56379  11.977   6.990   8.042 -1.0281  3.2648 -0.9941
  418MOL0     H56380  11.946   6.915   7.883 -0.2386 -0.8087  0.8243
  418MOL0     H56381  12.201   7.007   8.154  4.0085  0.3591 -0.4193
  418MOL0     H56382  12.361   6.823   8.254 -0.0455 -0.7031 -1.0950
  418MOL0     H56383  12.419   6.702   8.140  0.3764 -0.1466  0.7133
  418MOL0     H56384  12.592   6.819   8.051  0.3027 -0.4671  1.1542
  418MOL0     H56385  12.553   6.976   8.122  0.8490 -1.3374 -3.3615
  418MOL0     H56386  12.668   6.723   8.252 -2.1456  0.6394  0.7518
  418MOL0     H56387  12.600   6.854   8.348  0.6556 -1.0339  1.6679
  418MOL0     H56388  12.822   6.910   8.144  1.0413 -0.8386  0.5526
  418MOL0     H56389  12.842   6.831   8.307  1.8697  2.1515  0.6105
  418MOL0     H56390  12.690   7.107   8.540  0.1379 -1.5550  0.9041
  418MOL0     H56391  12.827   7.169   8.748  0.1304 -1.8066  1.1084
  418MOL0     H56392  13.463   7.151   8.789  3.0342  1.0845  0.7914
  418MOL0     H56393  13.586   7.215   8.987  0.5083 -0.4765  4.0590
  418MOL0     H56394  13.715   7.181   9.204 -1.6258 -0.3289 -3.0748
  418MOL0     H56395  13.616   7.319   9.171  0.4493 -0.7768 -0.0717
  418MOL0     H56396  13.569   7.357   9.408  0.2522 -0.8164  3.0753
  418MOL0     H56397  13.644   7.218   9.468 -2.8778  0.6878  0.5088
  418MOL0     H56398  13.849   7.309   9.312  3.5924  1.1685  2.7617
  418MOL0     H56399  13.779   7.473   9.356  1.8623  0.5200  0.7490
  418MOL0     H56400  13.913   7.269   9.528  0.9090 -0.3660  1.3624
  418MOL0     H56401  13.798   7.369   9.604 -0.5973 -3.3260 -0.8810
  418MOL0     H56402  13.972   7.490   9.644  1.7587  1.2868 -1.0380
  418MOL0     H56403  13.900   7.565   9.505 -2.3593 -0.1934  1.8514
  418MOL0     H56404  14.124   7.347   9.499 -1.9107  0.6994  3.3336
  418MOL0     H56405  14.045   7.414   9.354 -1.7872  1.0446  0.5278
  418MOL0     H56406  14.148   7.640   9.487 -0.2065 -0.4646 -0.5513
  418MOL0     H56407  14.221   7.552   9.351  0.8794 -0.0606 -0.0033
  418MOL0     H56408  14.270   7.518   9.655  3.0747  4.1335  1.0135
  418MOL0     H56409  14.338   7.409   9.536 -2.1870 -1.6561  4.1947
  418MOL0     H56410  13.295   7.013   9.236 -1.2745 -0.3045 -0.9772
  418MOL0     H56411  13.150   6.989   9.036 -0.2156  0.0275 -0.3084
  418MOL0     H56412  13.182   7.055   8.526 -1.4532 -1.0109 -0.1140
  418MOL0     H56413  13.051   7.021   8.337  0.0929  0.6762 -0.3751
  418MOL0     H56414  11.432   7.189   7.245 -0.3537 -0.5981  2.2770
  418MOL0     H56415  11.214   7.304   7.209 -1.8438  1.5804  0.5300
  418MOL0     H56416  10.892   7.536   7.042  0.2454  0.8418 -1.5361
  418MOL0     H56417  10.680   7.661   7.024  0.8661 -1.8906  1.0215
  418MOL0     H56418  10.501   7.749   7.104  0.2865 -0.3634  1.1366
  418MOL0     H56419  10.425   7.893   7.103 -0.5015  0.7459  1.7556
  418MOL0     H56420  10.539   7.897   7.356  0.9404  1.3368 -2.6857
  418MOL0     H56421  10.539   7.729   7.330 -0.3172 -1.8281 -2.8695
  418MOL0     H56422  10.304   7.752   7.242  0.6140  0.7306 -1.0622
  418MOL0     H56423  10.297   7.910   7.326  2.2292  0.6468 -3.0231
  418MOL0     H56424  10.177   7.741   7.444 -0.3140 -0.7578 -3.9187
  418MOL0     H56425  10.299   7.613   7.428 -2.5590 -0.2071 -2.2702
  418MOL0     H56426  10.406   7.804   7.790  0.8581  2.5923 -0.9797
  418MOL0     H56427  10.881   7.997   7.219  3.1448 -0.3205  0.1360
  418MOL0     H56428  11.194   7.881   7.145 -2.1386  0.0245 -0.7419
  418MOL0     H56429  11.097   8.001   7.232  1.2328  0.2413 -1.0839
  418MOL0     H56430  11.176   7.854   7.315  1.0191  1.4819  0.8356
  419MOL0     O56431  10.590   5.232   7.133 -0.0769  0.0492 -1.4820
  419MOL0     C56432  10.649   5.185   7.041  0.5863 -0.9117 -0.3543
  419MOL0     O56433  10.604   5.063   6.988 -0.7644  0.2223  1.0499
  419MOL0     C56434  10.518   4.989   7.067  0.0758  0.2551 -0.4998
  419MOL0     C56435  10.381   4.994   7.046  0.5945  0.1348  0.8583
  419MOL0     C56436  10.293   4.931   7.136 -0.2550 -0.3522 -0.0195
  419MOL0     C56437  10.348   4.850   7.243 -0.5315 -0.2527 -0.2820
  419MOL0     O56438  10.265   4.818   7.349  1.0610  0.5087 -0.0550
  419MOL0     C56439  10.289   4.695   7.425 -0.8456  0.0735 -0.3214
  419MOL0     C56440  10.162   4.628   7.460  0.3518  0.0257  0.0426
  419MOL0     C56441  10.180   4.506   7.547  0.3993 -0.1141 -1.1311
  419MOL0     C56442  10.046   4.450   7.590 -0.3801 -0.5384 -0.0392
  419MOL0     C56443   9.992   4.516   7.716 -0.2965 -0.6274  0.1078
  419MOL0     C56444   9.948   4.415   7.824 -0.1082 -0.6073  0.6637
  419MOL0     C56445   9.936   4.481   7.957 -0.1903  0.2944 -0.2108
  419MOL0     C56446   9.868   4.396   8.068 -0.3148  0.8873 -0.6619
  419MOL0     N56447   9.730   4.337   8.050 -0.3264 -0.3126  0.0327
  419MOL0     C56448   9.692   4.236   7.967  0.6585  0.7054 -0.4973
  419MOL0     C56449   9.553   4.217   7.982 -0.5408 -0.5032  0.6457
  419MOL0     C56450   9.484   4.114   7.901 -0.2428  0.0158 -0.5626
  419MOL0     C56451   9.360   4.171   7.843  0.6142  0.0321  0.7101
  419MOL0     C56452   9.288   4.049   7.788 -0.6080 -0.0458  0.4944
  419MOL0     C56453   9.149   4.090   7.740 -0.1905 -1.0624 -0.8018
  419MOL0     O56454   9.151   4.164   7.621 -0.4353  0.0337 -1.1237
  419MOL0     C56455   9.043   4.248   7.597  0.6329  0.5919  0.5094
  419MOL0     C56456   9.069   4.353   7.506  0.2453 -0.1922  0.0568
  419MOL0     C56457   8.965   4.439   7.460 -1.1420  0.1349  0.1240
  419MOL0     C56458   8.835   4.424   7.513  0.3386  0.1397 -1.9354
  419MOL0     C56459   8.729   4.518   7.473 -0.1691  0.5683 -1.3369
  419MOL0     O56460   8.605   4.496   7.531  0.0229 -0.6649 -0.3085
  419MOL0     C56461   8.515   4.601   7.535  0.1818 -0.1077  0.1700
  419MOL0     C56462   8.546   4.727   7.578 -0.0288 -0.6855 -0.1682
  419MOL0     C56463   8.450   4.829   7.567  0.0895 -0.4625  0.2428
  419MOL0     C56464   8.316   4.800   7.526  1.1239  0.4690  0.2572
  419MOL0     O56465   8.212   4.889   7.540 -0.5244  0.3319 -0.4077
  419MOL0     C56466   8.082   4.843   7.561  0.2120  0.0992  0.5298
  419MOL0     C56467   7.984   4.960   7.582  0.1487 -0.2829  0.2946
  419MOL0     C56468   7.966   5.023   7.446  0.6064 -0.1673  0.9673
  419MOL0     C56469   7.826   5.092   7.434 -0.1563 -0.8483  0.2875
  419MOL0     C56470   7.778   5.122   7.301 -0.2330 -0.6565 -0.5573
  419MOL0     C56471   7.882   5.216   7.235 -0.5354 -0.4727 -0.5718
  419MOL0     C56472   7.844   5.249   7.089 -0.2671 -0.5551  0.1388
  419MOL0     C56473   7.947   5.332   7.012 -0.0893  0.3803  0.1561
  419MOL0    Cl56474   7.996   5.474   7.119 -0.0081  0.4070 -0.2618
  419MOL0     C56475   8.280   4.668   7.497 -0.1977 -0.4003  0.9658
  419MOL0     C56476   8.380   4.571   7.499  0.2012 -0.1641  0.5424
  419MOL0     O56477   8.769   4.611   7.413  0.2142 -0.6640 -0.2772
  419MOL0     C56478   8.814   4.305   7.597  0.6117 -0.2376  0.5919
  419MOL0     C56479   8.914   4.216   7.635  0.2600 -0.4398 -1.3419
  419MOL0     N56480   9.512   4.296   8.085  0.3181 -0.1534  0.7093
  419MOL0     N56481   9.616   4.366   8.122  0.0787 -0.3248 -0.2718
  419MOL0     C56482  10.488   4.831   7.252  0.0381  0.4599  0.3514
  419MOL0     C56483  10.565   4.908   7.167  0.1322  0.5277 -0.9208
  419MOL0     C56484  10.756   5.256   6.978 -0.9985 -0.4105 -0.4150
  419MOL0     C56485  10.791   5.215   6.842 -0.0605  0.3755  0.4554
  419MOL0     C56486  10.899   5.271   6.780  0.0149  0.3695  0.7441
  419MOL0     C56487  10.967   5.373   6.838  0.1822  0.7773  0.1422
  419MOL0     O56488  11.074   5.425   6.759 -0.7023 -0.1138 -0.1192
  419MOL0     C56489  11.171   5.514   6.823 -1.0588  0.7613 -0.5153
  419MOL0     C56490  11.309   5.471   6.776 -0.9468  0.2062  0.0769
  419MOL0     C56491  11.325   5.503   6.635  0.3503 -0.4651  0.4993
  419MOL0     C56492  11.463   5.502   6.569  0.3383 -0.2309 -0.5585
  419MOL0     C56493  11.542   5.388   6.599 -0.3590 -0.0539 -0.0199
  419MOL0     C56494  11.595   5.278   6.605  0.1233 -1.0448 -0.1532
  419MOL0     C56495  10.928   5.420   6.962 -0.0715 -0.3159  0.3789
  419MOL0     C56496  10.830   5.359   7.040  0.0476  0.0284 -0.1583
  419MOL0     C56497  10.815   5.396   7.185  0.4873  0.7364  0.7040
  419MOL0     H56498  10.337   5.051   6.965 -1.0622 -3.9758 -1.4043
  419MOL0     H56499  10.187   4.954   7.130 -0.1813  1.8383  3.6649
  419MOL0     H56500  10.352   4.622   7.375 -0.1558  0.6584 -0.3128
  419MOL0     H56501  10.332   4.729   7.520  0.1369 -1.9225 -0.0145
  419MOL0     H56502  10.108   4.597   7.371 -0.4868 -0.6442  0.7647
  419MOL0     H56503  10.096   4.696   7.515 -1.9802  0.1718 -2.6900
  419MOL0     H56504  10.254   4.510   7.627 -0.0082 -1.7538 -0.6476
  419MOL0     H56505  10.224   4.438   7.474 -0.9657 -2.5856  0.2257
  419MOL0     H56506   9.976   4.446   7.506 -0.5597  0.2731  0.0633
  419MOL0     H56507  10.042   4.342   7.605 -0.2640 -0.8984 -2.2432
  419MOL0     H56508  10.072   4.567   7.771 -1.0449 -1.2035  1.7969
  419MOL0     H56509   9.914   4.592   7.703 -0.0262  0.5103  3.7841
  419MOL0     H56510   9.860   4.362   7.786  0.3043  0.2476 -1.6541
  419MOL0     H56511  10.024   4.339   7.843  0.8014  0.1660  0.2286
  419MOL0     H56512   9.869   4.566   7.941 -0.7839 -0.6523 -3.6488
  419MOL0     H56513  10.034   4.508   7.997  0.5427 -2.2527 -0.1003
  419MOL0     H56514   9.934   4.317   8.106 -3.9560 -2.2583 -0.3847
  419MOL0     H56515   9.872   4.462   8.156 -0.0524  0.1146 -0.0761
  419MOL0     H56516   9.753   4.176   7.900  3.2001  3.6288 -1.0521
  419MOL0     H56517   9.554   4.086   7.822  2.1676  0.6748  1.2531
  419MOL0     H56518   9.465   4.023   7.958  0.8601 -0.8752 -1.5620
  419MOL0     H56519   9.303   4.220   7.922  1.2776  0.9946  0.6105
  419MOL0     H56520   9.383   4.251   7.772 -0.2006  0.6550  1.1373
  419MOL0     H56521   9.286   3.980   7.873  1.9231 -0.0455  0.6313
  419MOL0     H56522   9.349   4.009   7.706  0.0313 -0.0305  0.9531
  419MOL0     H56523   9.095   4.138   7.823 -0.3646 -1.3569 -0.7430
  419MOL0     H56524   9.078   4.012   7.714 -2.9919  2.1658 -3.8456
  419MOL0     H56525   9.168   4.367   7.464  0.4315 -0.7704  0.2838
  419MOL0     H56526   8.981   4.521   7.391  1.9314 -0.4277  0.0301
  419MOL0     H56527   8.649   4.750   7.604 -0.5988 -0.5820  2.2095
  419MOL0     H56528   8.465   4.930   7.603  1.1057 -1.0240  1.5007
  419MOL0     H56529   8.049   4.794   7.469  2.0474  2.6730 -1.6316
  419MOL0     H56530   8.077   4.784   7.654 -2.0314  0.7302  0.8602
  419MOL0     H56531   7.892   4.933   7.634  0.4569 -1.1061  0.4131
  419MOL0     H56532   8.019   5.045   7.641 -2.0496  1.5536 -0.8495
  419MOL0     H56533   8.048   5.092   7.428  1.3533 -0.8360  1.7246
  419MOL0     H56534   7.964   4.959   7.358 -1.3527  0.0160  0.8271
  419MOL0     H56535   7.820   5.182   7.496  2.4779 -1.6727  1.8906
  419MOL0     H56536   7.747   5.035   7.485 -2.2376 -2.3816 -4.1055
  419MOL0     H56537   7.679   5.170   7.307 -0.4470 -1.2638  2.2037
  419MOL0     H56538   7.757   5.027   7.250 -0.9518 -1.7057  1.5772
  419MOL0     H56539   7.903   5.296   7.307  0.1134 -2.5680  1.6872
  419MOL0     H56540   7.977   5.162   7.235  1.3887  2.2182  4.5196
  419MOL0     H56541   7.748   5.301   7.097 -0.9360 -1.8898  1.4923
  419MOL0     H56542   7.825   5.154   7.036 -3.3543 -1.1814  2.1090
  419MOL0     H56543   8.022   5.268   6.964 -1.1070  1.7316 -3.5625
  419MOL0     H56544   7.890   5.377   6.930 -0.8750 -1.5516 -0.4251
  419MOL0     H56545   8.183   4.634   7.464  0.4876 -1.1825 -0.3303
  419MOL0     H56546   8.361   4.465   7.482  0.9627 -0.2387  0.1146
  419MOL0     H56547   8.715   4.274   7.629 -0.0881  0.2749 -1.0064
  419MOL0     H56548   8.890   4.130   7.696 -0.0993 -0.5321 -1.6106
  419MOL0     H56549  10.530   4.795   7.346  1.8518  1.9778  0.1842
  419MOL0     H56550  10.671   4.911   7.190  0.2647  4.9198 -1.3943
  419MOL0     H56551  10.750   5.134   6.782  1.9099  0.4389 -1.0692
  419MOL0     H56552  10.932   5.241   6.682 -0.3189  0.5180  0.5851
  419MOL0     H56553  11.169   5.517   6.932  1.1607  0.4884 -0.4195
  419MOL0     H56554  11.137   5.612   6.787 -1.0966  0.9438  0.0178
  419MOL0     H56555  11.315   5.364   6.798  0.5250  0.4821  1.1354
  419MOL0     H56556  11.386   5.510   6.843 -1.2360 -0.2151  0.6604
  419MOL0     H56557  11.286   5.604   6.628 -1.2997 -0.7733  3.6111
  419MOL0     H56558  11.240   5.455   6.586 -2.7019  4.1483  0.7324
  419MOL0     H56559  11.458   5.526   6.463  0.8979 -1.1216 -0.8012
  419MOL0     H56560  11.530   5.574   6.616  0.6516 -2.3269  2.4806
  419MOL0     H56561  11.622   5.175   6.604  2.3273 -0.5148 -1.4668
  419MOL0     H56562  10.973   5.509   7.006 -0.5482 -1.3948  3.3098
  419MOL0     H56563  10.899   5.458   7.217  0.3039  2.5431 -1.9401
  419MOL0     H56564  10.723   5.437   7.228  2.0086  4.7942  0.5808
  419MOL0     H56565  10.838   5.304   7.238  2.6974  2.7553  3.5507
  420MOL0     O56566   0.149   4.840   1.433  0.6130  0.1368 -0.1582
  420MOL0     C56567   0.096   4.730   1.403 -0.1512 -0.9410  0.4902
  420MOL0     O56568   0.085   4.625   1.482  0.8112  0.0129  0.0447
  420MOL0     C56569   0.120   4.635   1.611 -0.1040 -0.4593 -0.3559
  420MOL0     C56570   0.097   4.748   1.695  0.0204 -0.4449  0.0102
  420MOL0     C56571   0.158   4.753   1.822 -0.5035  0.4415  0.4016
  420MOL0     C56572   0.238   4.660   1.873 -0.5251  0.9788 -0.1171
  420MOL0     O56573   0.292   4.678   1.993 -0.4771 -0.0135  0.1303
  420MOL0     C56574   0.384   4.586   2.055 -0.4341 -0.1597 -0.0568
  420MOL0     C56575   0.531   4.590   2.001  0.7578  0.3341 -0.5946
  420MOL0     C56576   0.591   4.733   1.997  0.3342  0.3517  0.5906
  420MOL0     C56577   0.602   4.804   2.134  0.2977  0.4859  0.7158
  420MOL0     C56578   0.713   4.914   2.140  0.1002  0.2730 -0.8533
  420MOL0     C56579   0.734   4.984   2.276  0.1868  0.0346 -0.2234
  420MOL0     C56580   0.750   4.890   2.392  0.3001 -0.1917 -1.1079
  420MOL0     C56581   0.858   4.803   2.392  0.1547  0.8613 -0.1545
  420MOL0     N56582   0.914   4.788   2.532  0.3783 -0.7441 -0.0414
  420MOL0     C56583   0.859   4.702   2.623 -0.3512 -0.4488 -0.8244
  420MOL0     C56584   0.942   4.710   2.736  0.4595 -0.2023 -0.1637
  420MOL0     C56585   0.948   4.606   2.850  0.1874 -0.3168  1.4381
  420MOL0     C56586   1.045   4.501   2.831  0.7296  0.0161  0.4842
  420MOL0     C56587   1.000   4.411   2.710 -0.0317 -0.2201  0.9312
  420MOL0     C56588   1.084   4.283   2.685  1.3456 -0.5735  1.3165
  420MOL0     O56589   1.074   4.197   2.797 -0.2201 -0.1337 -0.4471
  420MOL0     C56590   1.123   4.062   2.782 -0.7242 -0.7479 -0.2276
  420MOL0     C56591   1.225   4.023   2.698  0.0159 -0.5222 -0.2360
  420MOL0     C56592   1.287   3.900   2.713 -0.7885  0.2114  0.3287
  420MOL0     C56593   1.234   3.813   2.807 -0.1684 -0.1076 -0.0743
  420MOL0     C56594   1.292   3.682   2.841  0.4585  0.6075 -0.5338
  420MOL0     O56595   1.230   3.602   2.928  0.5886  0.0237  0.0715
  420MOL0     C56596   1.264   3.475   2.941 -0.5284  0.8627  0.3134
  420MOL0     C56597   1.268   3.420   3.070 -0.3442 -0.7608  0.6914
  420MOL0     C56598   1.303   3.291   3.092  0.3064 -0.2959 -0.1337
  420MOL0     C56599   1.328   3.209   2.986 -0.4271  0.5933  0.4117
  420MOL0     O56600   1.344   3.085   3.010  0.1253  0.7374 -0.5474
  420MOL0     C56601   1.267   2.991   2.934  0.6117  0.1975  0.5414
  420MOL0     C56602   1.295   2.860   2.999  0.0725  0.3720 -0.4654
  420MOL0     C56603   1.328   2.746   2.903 -0.4714 -0.1795  0.0279
  420MOL0     C56604   1.208   2.685   2.830  0.3520  0.5303  1.1751
  420MOL0     C56605   1.267   2.586   2.728  0.2218  0.0225 -0.2084
  420MOL0     C56606   1.180   2.583   2.601  0.2589  0.1034 -0.9739
  420MOL0     C56607   1.260   2.511   2.490  0.1768  0.7450 -0.0746
  420MOL0     C56608   1.302   2.367   2.533  0.0389 -0.1477  1.1248
  420MOL0    Cl56609   1.186   2.277   2.629 -0.2194  0.3054  0.0799
  420MOL0     C56610   1.334   3.262   2.859 -1.3375  0.0265 -0.3075
  420MOL0     C56611   1.296   3.394   2.833 -0.0528  0.4769  0.0368
  420MOL0     O56612   1.398   3.662   2.784 -0.5411  0.9574 -0.1062
  420MOL0     C56613   1.117   3.846   2.892 -0.1836  0.5967  0.7969
  420MOL0     C56614   1.064   3.976   2.875  0.6045  0.0659  0.3558
  420MOL0     N56615   1.033   4.808   2.714  0.5799 -0.0348  0.0359
  420MOL0     N56616   1.018   4.852   2.587  0.4470  1.2734 -0.1527
  420MOL0     C56617   0.263   4.556   1.789 -0.6914 -0.3010  0.1451
  420MOL0     C56618   0.207   4.542   1.666  0.2279 -0.3126 -0.0202
  420MOL0     C56619   0.031   4.742   1.269  0.0932 -0.2196  0.8618
  420MOL0     C56620   0.032   4.865   1.188 -0.7183 -0.6163 -0.0479
  420MOL0     C56621  -0.024   4.873   1.060  0.3764  0.0572 -0.1629
  420MOL0     C56622  -0.118   4.762   1.025  0.8362  0.1537 -0.8127
  420MOL0     O56623  -0.191   4.742   0.908  0.8456  0.9600 -0.3106
  420MOL0     C56624  -0.131   4.791   0.791  0.7100  0.8866 -0.9225
  420MOL0     C56625   0.010   4.733   0.766  0.9740 -0.1458 -0.6331
  420MOL0     C56626   0.013   4.580   0.787  0.1180  0.3391  0.5222
  420MOL0     C56627  -0.093   4.514   0.700 -0.0457 -0.0976 -0.0354
  420MOL0     C56628  -0.070   4.524   0.563  0.5940  0.4759  0.4003
  420MOL0     C56629  -0.073   4.559   0.449  1.0106  0.2625  0.9084
  420MOL0     C56630  -0.132   4.658   1.109 -0.3127  0.8715 -0.0736
  420MOL0     C56631  -0.051   4.639   1.226  0.8434  0.3648 -0.4197
  420MOL0     C56632  -0.078   4.503   1.295 -0.4737 -0.3732 -0.1774
  420MOL0     H56633   0.032   4.833   1.677 -1.5297 -1.3517  1.0577
  420MOL0     H56634   0.127   4.833   1.889  0.3977 -0.0815  1.4791
  420MOL0     H56635   0.389   4.617   2.160  0.0413  1.2984 -0.4919
  420MOL0     H56636   0.354   4.481   2.050  2.3991 -1.0608  0.0547
  420MOL0     H56637   0.537   4.556   1.897  0.1675  1.5699 -1.0505
  420MOL0     H56638   0.610   4.535   2.053  0.1294 -0.2374 -0.2188
  420MOL0     H56639   0.539   4.793   1.922 -0.3080 -2.5082 -1.4473
  420MOL0     H56640   0.687   4.728   1.945 -0.4477  1.1313 -1.0019
  420MOL0     H56641   0.508   4.858   2.145 -0.0642 -0.5530  3.1005
  420MOL0     H56642   0.606   4.726   2.210  1.5876 -0.4394 -0.2561
  420MOL0     H56643   0.805   4.864   2.109  0.4263  1.5047 -1.9868
  420MOL0     H56644   0.689   4.993   2.068  2.6150 -0.0552 -2.1470
  420MOL0     H56645   0.825   5.044   2.279 -0.8243  1.6890 -1.2083
  420MOL0     H56646   0.655   5.058   2.293  0.2355  0.1944 -0.6675
  420MOL0     H56647   0.660   4.829   2.401 -1.4622  2.0546 -2.3206
  420MOL0     H56648   0.745   4.940   2.490  1.1354  0.3461 -1.3321
  420MOL0     H56649   0.831   4.711   2.339 -0.0888  1.0611 -0.3817
  420MOL0     H56650   0.940   4.845   2.333  3.1848 -3.1214  0.7840
  420MOL0     H56651   0.781   4.629   2.602 -0.1940 -0.8983  0.1112
  420MOL0     H56652   0.958   4.669   2.939 -3.0323 -0.7981  2.2602
  420MOL0     H56653   0.850   4.558   2.843 -1.6452  3.3805 -0.6846
  420MOL0     H56654   1.141   4.548   2.810 -0.7922  2.1461 -2.4329
  420MOL0     H56655   1.062   4.430   2.913  3.5192 -0.9217 -0.8195
  420MOL0     H56656   1.009   4.473   2.620  0.5363  0.0097  1.1366
  420MOL0     H56657   0.897   4.380   2.728 -1.1026  2.5843  0.2490
  420MOL0     H56658   1.185   4.326   2.679  0.5033  1.3377 -0.7848
  420MOL0     H56659   1.044   4.237   2.594 -3.0003 -0.0136  2.7055
  420MOL0     H56660   1.277   4.087   2.628  1.9204 -0.1941  1.3768
  420MOL0     H56661   1.357   3.867   2.637 -0.4254 -1.7956  1.4776
  420MOL0     H56662   1.256   3.485   3.156  0.7819  0.0818  0.2330
  420MOL0     H56663   1.295   3.251   3.192  0.1461  0.2883  0.0924
  420MOL0     H56664   1.162   3.021   2.923  1.2579  1.7445 -3.0595
  420MOL0     H56665   1.304   2.983   2.831 -1.1215  1.8284 -0.2751
  420MOL0     H56666   1.374   2.869   3.074 -0.4602 -4.0637  0.9111
  420MOL0     H56667   1.220   2.825   3.071  1.2206 -3.2034 -0.8256
  420MOL0     H56668   1.399   2.781   2.828  1.2445 -0.5542  1.4223
  420MOL0     H56669   1.382   2.678   2.970 -2.1390 -1.5606  0.0362
  420MOL0     H56670   1.150   2.768   2.789 -0.0088  0.1817  0.9634
  420MOL0     H56671   1.151   2.631   2.907 -2.6008  1.3058 -0.3099
  420MOL0     H56672   1.280   2.493   2.783  0.9805  0.0884 -0.2683
  420MOL0     H56673   1.368   2.616   2.700  0.5786 -0.0776  0.9490
  420MOL0     H56674   1.084   2.531   2.615  0.8020 -0.8486 -0.6918
  420MOL0     H56675   1.166   2.691   2.590 -1.9163  0.6940  4.4502
  420MOL0     H56676   1.351   2.564   2.464 -0.7293  1.8988 -1.0026
  420MOL0     H56677   1.213   2.515   2.391 -0.4203 -1.6055  0.0522
  420MOL0     H56678   1.316   2.315   2.437  1.2847  0.0314  1.1915
  420MOL0     H56679   1.397   2.378   2.585  0.3738 -0.6041  0.6224
  420MOL0     H56680   1.366   3.209   2.770  1.5652  1.5874 -0.3146
  420MOL0     H56681   1.289   3.429   2.731 -0.9527 -1.1740 -0.5147
  420MOL0     H56682   1.057   3.779   2.953 -1.4353 -0.0854 -1.0910
  420MOL0     H56683   0.981   4.015   2.932  1.6130  0.9780  1.2586
  420MOL0     H56684   0.313   4.467   1.826 -1.7893 -0.8338  0.3682
  420MOL0     H56685   0.232   4.450   1.614 -1.2529 -0.1712 -1.0689
  420MOL0     H56686   0.076   4.955   1.229 -1.0435 -1.5626  2.5391
  420MOL0     H56687  -0.032   4.955   0.990 -1.2401 -1.2586 -1.6236
  420MOL0     H56688  -0.135   4.900   0.801 -1.8631  0.7256  0.8081
  420MOL0     H56689  -0.193   4.764   0.705 -1.0212 -2.5665  1.1943
  420MOL0     H56690   0.069   4.783   0.843 -2.8900  0.2291  2.4323
  420MOL0     H56691   0.038   4.777   0.670 -1.6753  1.5725 -0.7222
  420MOL0     H56692  -0.004   4.557   0.893 -2.4903 -1.7569 -0.2481
  420MOL0     H56693   0.111   4.534   0.769 -0.5515 -1.5378  1.3743
  420MOL0     H56694  -0.098   4.407   0.722 -2.4496 -0.2983 -1.2753
  420MOL0     H56695  -0.190   4.545   0.739  1.3473  0.1514  3.6255
  420MOL0     H56696  -0.073   4.610   0.355  2.3911  0.1611  0.8336
  420MOL0     H56697  -0.184   4.573   1.067 -0.1877  1.3503 -1.2315
  420MOL0     H56698   0.017   4.450   1.312  0.4330  0.5918 -1.9527
  420MOL0     H56699  -0.143   4.514   1.382  0.3944 -2.7078  0.8785
  420MOL0     H56700  -0.126   4.444   1.216  1.2113  0.8855 -2.2661
  421MOL0     O56701   1.794   0.839   5.332 -0.2826  0.0933 -0.6887
  421MOL0     C56702   1.813   0.896   5.224  0.2874  0.7194  0.1088
  421MOL0     O56703   1.882   0.840   5.129  0.7098  0.1644 -0.8913
  421MOL0     C56704   1.951   0.719   5.120 -0.3855  0.0919  0.3578
  421MOL0     C56705   2.029   0.700   5.003  0.0222  0.1595 -0.7539
  421MOL0     C56706   2.068   0.575   4.968 -0.1599  0.2918 -1.3175
  421MOL0     C56707   2.039   0.473   5.051  0.0872  0.4276  0.5206
  421MOL0     O56708   2.093   0.358   5.000 -0.7251 -0.0769  0.1504
  421MOL0     C56709   2.059   0.237   5.072  0.0924  0.3764  0.3574
  421MOL0     C56710   2.138   0.126   4.999  0.4446  0.7017  0.4631
  421MOL0     C56711   2.283   0.106   5.050  0.1696  0.3873  0.2618
  421MOL0     C56712   2.360  -0.007   4.982  0.6545  0.5289 -0.4941
  421MOL0     C56713   2.398   0.024   4.832  0.0254  0.4679  0.5375
  421MOL0     C56714   2.496   0.135   4.812 -0.0972  0.3815  0.2091
  421MOL0     C56715   2.554   0.160   4.669  0.2655 -0.1603 -0.9973
  421MOL0     C56716   2.618   0.297   4.677 -0.7348 -0.3544  0.0538
  421MOL0     N56717   2.673   0.335   4.545  0.1271 -0.1880 -0.0017
  421MOL0     C56718   2.789   0.288   4.481  0.6570 -0.3660 -0.2788
  421MOL0     C56719   2.800   0.356   4.365 -0.4953 -0.1797 -0.0736
  421MOL0     C56720   2.916   0.379   4.273  0.4032  0.4109 -0.4721
  421MOL0     C56721   2.977   0.516   4.296 -1.0996  0.1742 -0.7813
  421MOL0     C56722   3.098   0.539   4.195 -0.0008  0.7713 -0.2831
  421MOL0     C56723   3.215   0.445   4.223 -0.3085  0.9916  0.7557
  421MOL0     O56724   3.192   0.313   4.179  0.8967  0.0813  0.2633
  421MOL0     C56725   3.161   0.272   4.054 -0.1456  0.4834  0.4517
  421MOL0     C56726   3.202   0.348   3.942  0.3555  0.1799  0.3471
  421MOL0     C56727   3.178   0.300   3.816  0.1423 -0.6789  0.1629
  421MOL0     C56728   3.117   0.171   3.789  0.2950 -0.4062 -0.1976
  421MOL0     C56729   3.097   0.116   3.651 -0.0411 -0.1838 -0.8375
  421MOL0     O56730   3.154   0.186   3.549 -0.0934  0.3314 -0.1251
  421MOL0     C56731   3.137   0.157   3.413 -1.0520  0.0168 -0.3434
  421MOL0     C56732   3.140   0.023   3.369  0.4100 -0.9581 -0.2707
  421MOL0     C56733   3.130   0.001   3.232  0.4914  0.8124 -0.0296
  421MOL0     C56734   3.111   0.104   3.141  0.0955  0.7987  0.5700
  421MOL0     O56735   3.103   0.075   3.015 -0.5799  0.6529 -0.1093
  421MOL0     C56736   3.218   0.111   2.940 -0.2956 -0.3050  0.3446
  421MOL0     C56737   3.179   0.120   2.790 -0.5312  0.2455  0.1666
  421MOL0     C56738   3.298   0.149   2.691 -0.6755  0.1663 -0.2199
  421MOL0     C56739   3.320   0.297   2.681  0.3005  0.3682  0.1682
  421MOL0     C56740   3.358   0.340   2.540 -0.0707 -0.1548  0.4562
  421MOL0     C56741   3.336   0.485   2.502 -0.8539 -0.1378 -0.4051
  421MOL0     C56742   3.439   0.535   2.389 -0.1162 -0.3524  1.2241
  421MOL0     C56743   3.389   0.664   2.323  1.1636  0.2374 -0.6393
  421MOL0    Cl56744   3.508   0.713   2.196 -0.2139  0.1224 -0.4465
  421MOL0     C56745   3.098   0.232   3.183  0.3080 -0.1025 -0.4627
  421MOL0     C56746   3.108   0.268   3.326 -0.4768 -0.3957  1.1326
  421MOL0     O56747   3.030   0.016   3.649  0.8742 -1.1623  0.3126
  421MOL0     C56748   3.077   0.100   3.901  0.5703 -0.0659 -1.2647
  421MOL0     C56749   3.098   0.149   4.035 -1.0354 -0.5735 -1.2438
  421MOL0     N56750   2.688   0.427   4.348  0.4140  0.5126 -0.8836
  421MOL0     N56751   2.609   0.405   4.447 -0.4012  1.0597  0.4742
  421MOL0     C56752   1.959   0.483   5.165 -0.6870  0.0205 -0.4217
  421MOL0     C56753   1.911   0.614   5.195 -0.2536  0.0260 -0.4001
  421MOL0     C56754   1.744   1.024   5.202 -0.6058  0.2999  0.3669
  421MOL0     C56755   1.681   1.048   5.080  0.1795 -0.3180 -0.1876
  421MOL0     C56756   1.599   1.158   5.058 -1.0219  0.4595 -0.9396
  421MOL0     C56757   1.555   1.238   5.165  0.0689 -0.1896 -0.5277
  421MOL0     O56758   1.467   1.340   5.144  0.8906  0.4112  0.1930
  421MOL0     C56759   1.513   1.475   5.151  0.3272  0.2542 -0.0936
  421MOL0     C56760   1.599   1.527   5.039  0.4907 -0.1537 -0.2187
  421MOL0     C56761   1.646   1.668   5.072 -0.2635 -0.4410 -0.3273
  421MOL0     C56762   1.782   1.706   5.019 -0.1574 -0.1693  0.0345
  421MOL0     C56763   1.814   1.844   5.058  1.5601  1.3698 -0.7602
  421MOL0     C56764   1.859   1.947   5.099 -0.7523 -0.6420  0.3098
  421MOL0     C56765   1.605   1.206   5.292 -0.4729 -0.7084 -0.0397
  421MOL0     C56766   1.713   1.113   5.306  0.7253 -0.5606  0.4244
  421MOL0     C56767   1.788   1.105   5.436 -0.1933 -0.3465  0.3272
  421MOL0     H56768   2.055   0.790   4.949  0.6096 -0.4496 -1.4963
  421MOL0     H56769   2.125   0.563   4.876 -1.0091 -0.8982 -1.7063
  421MOL0     H56770   2.100   0.241   5.173  0.3072 -1.8099  0.3977
  421MOL0     H56771   1.950   0.228   5.075  0.2436 -1.6205  1.1183
  421MOL0     H56772   2.147   0.157   4.895 -1.8655 -1.7010 -0.5867
  421MOL0     H56773   2.085   0.031   4.989 -0.3579  0.8753  2.4299
  421MOL0     H56774   2.265   0.071   5.152 -1.9858  1.2856  0.2336
  421MOL0     H56775   2.327   0.207   5.050 -0.0104  0.6013  3.9702
  421MOL0     H56776   2.447  -0.026   5.046 -0.0268 -0.4405  0.1773
  421MOL0     H56777   2.308  -0.102   4.969 -0.7881  1.0420  1.1068
  421MOL0     H56778   2.426  -0.063   4.771 -0.3877  1.3810 -1.0082
  421MOL0     H56779   2.303   0.062   4.794  0.0862 -0.1739 -0.2911
  421MOL0     H56780   2.450   0.229   4.843  2.1889  1.6412  0.0380
  421MOL0     H56781   2.581   0.121   4.879  1.0045  1.2437 -0.9626
  421MOL0     H56782   2.476   0.156   4.593  1.5987  0.9329 -2.5108
  421MOL0     H56783   2.628   0.086   4.637 -0.0348 -0.7551 -0.3325
  421MOL0     H56784   2.545   0.372   4.709 -3.6127 -1.1344 -3.8095
  421MOL0     H56785   2.698   0.310   4.750 -0.5888  2.4439 -0.4841
  421MOL0     H56786   2.857   0.210   4.512  0.6488  0.1049  0.9861
  421MOL0     H56787   2.989   0.302   4.298  1.2377  1.2609 -0.2096
  421MOL0     H56788   2.883   0.365   4.169 -0.8301  2.1767 -0.3754
  421MOL0     H56789   2.892   0.584   4.281 -1.5239  0.0737  0.9841
  421MOL0     H56790   3.022   0.514   4.395  0.8130  0.7228 -1.5908
  421MOL0     H56791   3.124   0.643   4.213 -1.6962  1.2360 -0.3635
  421MOL0     H56792   3.076   0.523   4.088  0.8745 -2.4707 -0.0998
  421MOL0     H56793   3.205   0.437   4.331 -4.8830 -2.6914  0.3742
  421MOL0     H56794   3.306   0.490   4.180  0.2496 -0.3814  0.4439
  421MOL0     H56795   3.263   0.436   3.963  1.9466 -0.4814 -1.1971
  421MOL0     H56796   3.221   0.361   3.737  1.2966 -1.3832  0.2350
  421MOL0     H56797   3.175  -0.054   3.437 -0.5810 -0.8921  0.3330
  421MOL0     H56798   3.108  -0.100   3.198  0.3330  0.4944  0.9629
  421MOL0     H56799   3.260   0.204   2.980  1.0654 -0.9886  0.5797
  421MOL0     H56800   3.289   0.028   2.943 -2.4897 -2.2712  1.3369
  421MOL0     H56801   3.128   0.025   2.771 -0.9617  0.0951  1.8910
  421MOL0     H56802   3.106   0.202   2.785 -0.8897 -0.1210 -1.1174
  421MOL0     H56803   3.387   0.098   2.729  0.2109  0.9126 -1.2486
  421MOL0     H56804   3.268   0.119   2.590 -0.3197  1.3844 -0.7102
  421MOL0     H56805   3.401   0.327   2.748  0.5489 -2.9881  1.5741
  421MOL0     H56806   3.230   0.354   2.705  0.1541  0.8676 -1.5055
  421MOL0     H56807   3.294   0.287   2.469  0.7089  0.0991 -0.4578
  421MOL0     H56808   3.459   0.304   2.517 -1.2763 -2.0809 -2.3304
  421MOL0     H56809   3.236   0.512   2.467  0.3659  3.4922 -1.5845
  421MOL0     H56810   3.357   0.553   2.585  2.8240  1.0096 -2.0428
  421MOL0     H56811   3.449   0.461   2.308  2.5539  2.8207 -1.6457
  421MOL0     H56812   3.532   0.553   2.444  0.1944 -1.7333  1.1989
  421MOL0     H56813   3.288   0.648   2.282  0.7427 -1.2466  0.8633
  421MOL0     H56814   3.376   0.747   2.393  0.9626 -0.0268 -0.3582
  421MOL0     H56815   3.067   0.309   3.113 -1.4960 -1.2589 -0.9923
  421MOL0     H56816   3.090   0.368   3.364 -2.4386 -0.9207  1.6926
  421MOL0     H56817   3.018   0.009   3.889 -1.4551  0.2725  3.7124
  421MOL0     H56818   3.065   0.088   4.118 -1.9031  2.3562  0.7475
  421MOL0     H56819   1.928   0.392   5.216 -0.9845  1.4856  2.2418
  421MOL0     H56820   1.832   0.622   5.268  1.5900  1.7496  1.5323
  421MOL0     H56821   1.713   0.988   4.995  1.2145 -1.5715  1.0479
  421MOL0     H56822   1.558   1.182   4.960  2.3996 -0.8865 -2.8848
  421MOL0     H56823   1.574   1.492   5.240 -0.1579 -0.7689  0.4596
  421MOL0     H56824   1.424   1.535   5.175  1.7039  1.8133  1.3403
  421MOL0     H56825   1.559   1.520   4.938  0.0874 -0.2959 -0.0506
  421MOL0     H56826   1.687   1.462   5.040  0.4971 -0.1526 -0.7498
  421MOL0     H56827   1.645   1.687   5.180  2.0886 -1.5269 -0.0557
  421MOL0     H56828   1.572   1.732   5.024  0.5567  0.0604 -0.9488
  421MOL0     H56829   1.854   1.632   5.053  0.6476  0.1879 -0.8626
  421MOL0     H56830   1.778   1.702   4.910 -0.8016 -1.9286  0.0845
  421MOL0     H56831   1.890   2.040   5.141  0.7860 -0.2737 -1.5064
  421MOL0     H56832   1.564   1.272   5.368  1.2146  0.9847 -0.5228
  421MOL0     H56833   1.896   1.089   5.429  0.7147  4.5736 -0.3421
  421MOL0     H56834   1.775   1.202   5.485  2.0734  0.4165 -0.4885
  421MOL0     H56835   1.750   1.031   5.508  1.4019 -0.7414  0.8064
  422MOL0     O56836   2.696   1.311  10.248 -0.8083  0.0357  0.2828
  422MOL0     C56837   2.718   1.226  10.162 -0.0540 -0.1811  0.1751
  422MOL0     O56838   2.677   1.219  10.032  0.0355  0.9835 -0.5229
  422MOL0     C56839   2.618   1.321   9.965 -0.2193 -0.2106 -0.0879
  422MOL0     C56840   2.516   1.291   9.878  0.5733 -1.0259  0.0330
  422MOL0     C56841   2.445   1.385   9.802  0.3726 -0.5101 -0.3221
  422MOL0     C56842   2.477   1.527   9.818 -1.3228  0.1138  0.1135
  422MOL0     O56843   2.417   1.610   9.725  0.9745 -0.5414  0.1615
  422MOL0     C56844   2.436   1.750   9.739  0.2050 -0.2853 -0.8139
  422MOL0     C56845   2.376   1.815   9.871 -0.5553 -0.7449 -0.0804
  422MOL0     C56846   2.406   1.966   9.861 -0.7940 -0.2285 -0.6616
  422MOL0     C56847   2.554   1.988   9.892 -0.0804 -0.2398  0.3859
  422MOL0     C56848   2.590   2.134   9.900 -0.0745 -0.0397 -0.7967
  422MOL0     C56849   2.524   2.206  10.019 -0.4056 -0.4758  0.3562
  422MOL0     C56850   2.554   2.355   9.998  0.2889 -0.2401  0.2829
  422MOL0     C56851   2.481   2.443  10.095 -1.1755  0.3446  0.4483
  422MOL0     N56852   2.543   2.570  10.115 -0.9752  0.3216 -0.5489
  422MOL0     C56853   2.631   2.598  10.217 -0.3665  0.7840 -0.3401
  422MOL0     C56854   2.661   2.728  10.201  0.4456  1.2352 -0.4810
  422MOL0     C56855   2.735   2.799  10.309 -0.8378  0.0260  0.7948
  422MOL0     C56856   2.632   2.816  10.422 -0.4346  0.5240  0.1274
  422MOL0     C56857   2.668   2.929  10.509  0.0536  0.7306  0.5851
  422MOL0     C56858   2.654   3.066  10.448  0.4237 -0.7459  0.1715
  422MOL0     O56859   2.764   3.163  10.488 -0.6759  0.1423  0.7071
  422MOL0     C56860   2.801   3.213  10.611  1.1432  0.1511  0.7271
  422MOL0     C56861   2.926   3.280  10.612  0.1484  0.7615 -0.5257
  422MOL0     C56862   2.977   3.335  10.723  0.4424 -0.2214 -1.0693
  422MOL0     C56863   2.904   3.326  10.845 -0.2908 -0.4083  0.2900
  422MOL0     C56864   2.953   3.392  10.972 -0.6889 -0.6602 -0.6076
  422MOL0     O56865   2.870   3.383  11.076 -0.4307  0.4403 -0.3248
  422MOL0     C56866   2.919   3.413  11.202  0.1416  0.1075  0.4974
  422MOL0     C56867   2.977   3.316  11.282  0.5334  0.2658  1.0797
  422MOL0     C56868   2.999   3.334  11.417  1.6752 -0.1744 -1.1140
  422MOL0     C56869   2.994   3.467  11.471 -0.1311  0.6819 -0.2321
  422MOL0     O56870   2.990   3.469  11.606 -0.2697  0.2234  0.0963
  422MOL0     C56871   3.051   3.577  11.671  0.3462  0.4436 -0.0496
  422MOL0     C56872   3.060   3.552  11.822  0.3604 -0.1876  0.2648
  422MOL0     C56873   3.167   3.455  11.866 -0.1666  0.9304 -0.4168
  422MOL0     C56874   3.183   3.330  11.779 -0.2052  0.7948  0.0802
  422MOL0     C56875   3.251   3.203  11.843 -0.7527 -0.3126  0.5460
  422MOL0     C56876   3.215   3.069  11.782  0.3121 -0.1084 -0.1131
  422MOL0     C56877   3.336   2.965  11.773 -0.0783  0.2942  0.3037
  422MOL0     C56878   3.406   2.925  11.904 -0.1367  0.3341 -0.7070
  422MOL0    Cl56879   3.548   3.031  11.945  0.2779  0.1802  0.0551
  422MOL0     C56880   2.963   3.574  11.390  0.5306  0.8055 -0.1040
  422MOL0     C56881   2.914   3.542  11.256 -0.1352 -0.0758  0.1171
  422MOL0     O56882   3.070   3.433  10.984  0.4570  0.3943  0.2076
  422MOL0     C56883   2.781   3.259  10.844  0.5885 -0.6213  0.1857
  422MOL0     C56884   2.735   3.196  10.735  0.1897 -0.0106  0.1987
  422MOL0     N56885   2.601   2.771  10.080 -0.2586  0.1401  0.0985
  422MOL0     N56886   2.532   2.679  10.037 -0.1058  0.6069  0.1328
  422MOL0     C56887   2.586   1.558   9.905  0.5167  0.5132  0.3894
  422MOL0     C56888   2.657   1.459   9.979  0.1530  0.7050 -0.1613
  422MOL0     C56889   2.789   1.102  10.194 -0.0325  0.0167  1.1640
  422MOL0     C56890   2.854   1.032  10.086 -0.7808  0.7823 -0.0449
  422MOL0     C56891   2.939   0.918  10.113  0.7747  0.7970  0.6160
  422MOL0     C56892   2.933   0.864  10.239  0.0034  0.3309 -0.4431
  422MOL0     O56893   3.005   0.748  10.269 -0.7880 -0.2025  0.2986
  422MOL0     C56894   3.029   0.668  10.159 -0.7366  0.7337 -0.0346
  422MOL0     C56895   3.072   0.526  10.202 -0.3183 -0.9318 -0.6997
  422MOL0     C56896   2.944   0.440  10.197  0.1827 -0.7045 -0.1346
  422MOL0     C56897   2.899   0.401  10.053  0.4613 -0.9327 -0.7155
  422MOL0     C56898   2.832   0.273  10.069 -0.0424  0.4474 -0.2828
  422MOL0     C56899   2.775   0.168  10.091 -0.2477 -0.1297  0.4498
  422MOL0     C56900   2.863   0.924  10.342 -0.1758  0.3351 -0.1360
  422MOL0     C56901   2.793   1.047  10.324 -0.6012 -0.1045  0.2557
  422MOL0     C56902   2.741   1.106  10.454 -0.4448  0.4880 -0.0851
  422MOL0     H56903   2.479   1.189   9.878 -3.5614  0.2255  3.2057
  422MOL0     H56904   2.372   1.365   9.724 -0.6761 -0.5080  0.6326
  422MOL0     H56905   2.541   1.775   9.724  0.9751 -2.1518  0.9887
  422MOL0     H56906   2.372   1.789   9.659 -0.6976 -2.0150 -0.9896
  422MOL0     H56907   2.416   1.774   9.964  3.0919 -0.6551 -1.4374
  422MOL0     H56908   2.267   1.804   9.878 -0.6075 -2.3535 -2.3187
  422MOL0     H56909   2.339   2.010   9.936  0.5611 -2.9912  2.4216
  422MOL0     H56910   2.392   2.010   9.762 -2.6033  2.4160  0.6424
  422MOL0     H56911   2.576   1.940   9.987  0.6961  0.4214  0.5558
  422MOL0     H56912   2.627   1.933   9.832  0.7345 -1.3606  2.3019
  422MOL0     H56913   2.699   2.144   9.904  0.0562 -0.9034 -1.6984
  422MOL0     H56914   2.564   2.183   9.806 -0.4706 -0.0862 -0.7116
  422MOL0     H56915   2.416   2.193  10.017 -0.4205 -0.2854 -0.6790
  422MOL0     H56916   2.556   2.174  10.118  0.8818  0.8502  0.4020
  422MOL0     H56917   2.520   2.375   9.896  1.5664 -0.5586 -0.2182
  422MOL0     H56918   2.660   2.378  10.012 -0.4512  3.9034  0.2306
  422MOL0     H56919   2.380   2.462  10.058 -1.4870 -3.1960 -0.9017
  422MOL0     H56920   2.469   2.390  10.190  1.0718  0.9756  1.1569
  422MOL0     H56921   2.670   2.541  10.300 -0.5390  2.6268  1.0713
  422MOL0     H56922   2.819   2.736  10.340  0.8793  2.4376  1.2876
  422MOL0     H56923   2.769   2.897  10.273 -0.1688  0.6138  2.8696
  422MOL0     H56924   2.533   2.833  10.378 -1.6486  1.0162  2.8314
  422MOL0     H56925   2.628   2.731  10.490  1.3109  1.6334  1.7223
  422MOL0     H56926   2.772   2.914  10.539  0.7434  0.4098 -1.7519
  422MOL0     H56927   2.604   2.932  10.598  0.7922  3.6584  1.1213
  422MOL0     H56928   2.561   3.117  10.475 -0.0344 -1.6606  0.3435
  422MOL0     H56929   2.645   3.051  10.340  0.8836 -3.1644  0.4023
  422MOL0     H56930   2.992   3.278  10.526  0.0516 -0.9841 -0.6083
  422MOL0     H56931   3.072   3.388  10.728  0.7762 -0.8892  1.1513
  422MOL0     H56932   2.985   3.216  11.240 -0.0060  0.0371  1.5023
  422MOL0     H56933   3.034   3.257  11.485  0.0494  1.2461  1.5069
  422MOL0     H56934   3.151   3.601  11.632  1.4571 -1.7254  1.2989
  422MOL0     H56935   2.980   3.659  11.656 -0.8090 -0.6201 -0.6230
  422MOL0     H56936   3.080   3.646  11.876 -1.8357  0.3646  0.2205
  422MOL0     H56937   2.962   3.515  11.853  2.0119 -3.3175  2.2255
  422MOL0     H56938   3.261   3.509  11.856 -0.1630  0.9918 -0.0356
  422MOL0     H56939   3.147   3.414  11.965 -2.2758  1.0584 -0.7341
  422MOL0     H56940   3.233   3.354  11.685 -1.2663 -1.0856 -1.0324
  422MOL0     H56941   3.084   3.295  11.747 -0.2852  0.6830  0.4456
  422MOL0     H56942   3.253   3.201  11.953  1.4932  1.1474  0.6073
  422MOL0     H56943   3.356   3.218  11.815  0.5420  0.1703  4.8091
  422MOL0     H56944   3.132   3.022  11.836  1.1626 -1.5613 -0.0017
  422MOL0     H56945   3.189   3.085  11.677 -3.4840 -1.8629  0.4218
  422MOL0     H56946   3.412   2.999  11.702 -2.0567 -2.1753 -3.3254
  422MOL0     H56947   3.284   2.881  11.727 -2.3211  2.4387 -1.3224
  422MOL0     H56948   3.330   2.920  11.982  0.2697 -2.2589 -0.3719
  422MOL0     H56949   3.445   2.823  11.901 -1.6138 -0.2931  0.4605
  422MOL0     H56950   2.960   3.677  11.424  0.6963  1.8083 -2.8904
  422MOL0     H56951   2.889   3.630  11.198 -0.6862  0.5778  1.3030
  422MOL0     H56952   2.720   3.261  10.934  0.6916 -4.0794  0.5027
  422MOL0     H56953   2.643   3.138  10.736  0.3312 -0.2354  1.2849
  422MOL0     H56954   2.629   1.657   9.918  2.3631 -0.4026  1.7407
  422MOL0     H56955   2.743   1.492  10.037  0.2988  2.3882 -1.2672
  422MOL0     H56956   2.861   1.064   9.983 -0.9247  0.1551 -0.2536
  422MOL0     H56957   2.982   0.878  10.022 -3.3658  1.4387 -1.9086
  422MOL0     H56958   3.122   0.706  10.113  0.8262 -2.4691  0.2246
  422MOL0     H56959   2.951   0.670  10.083  0.1616 -0.9879 -1.0621
  422MOL0     H56960   3.109   0.534  10.304  1.4634 -2.3907 -1.1743
  422MOL0     H56961   3.153   0.479  10.145 -0.4407 -5.8371  2.5521
  422MOL0     H56962   2.861   0.494  10.243  0.7964  1.0200 -0.9513
  422MOL0     H56963   2.964   0.351  10.257  0.1527 -1.0264 -0.6009
  422MOL0     H56964   2.827   0.472  10.012  0.6328 -0.2350  0.1702
  422MOL0     H56965   2.990   0.400   9.992  1.4066  2.0859  0.4437
  422MOL0     H56966   2.744   0.067  10.109 -1.3930  0.0207 -0.5401
  422MOL0     H56967   2.871   0.888  10.444  2.1942 -2.3341 -1.1269
  422MOL0     H56968   2.707   1.017  10.507 -0.7001 -0.9064 -2.4385
  422MOL0     H56969   2.814   1.158  10.516 -0.1741  1.2540 -1.0145
  422MOL0     H56970   2.658   1.175  10.439 -0.5606  0.7386  1.5455
  423MOL0     O56971  10.605   3.368   1.066 -0.8539 -0.1631 -1.0042
  423MOL0     C56972  10.554   3.390   0.959  0.1151 -0.5334 -0.1144
  423MOL0     O56973  10.574   3.313   0.848 -0.5587  0.6449  0.2575
  423MOL0     C56974  10.654   3.201   0.873 -0.7600  0.3055  0.7393
  423MOL0     C56975  10.597   3.076   0.864 -0.7624 -1.1645  1.0612
  423MOL0     C56976  10.669   2.964   0.893  0.4889 -0.6643 -0.2082
  423MOL0     C56977  10.803   2.975   0.936 -0.5497  0.9066  0.7228
  423MOL0     O56978  10.866   2.860   0.972 -0.0299 -0.3092 -0.0317
  423MOL0     C56979  11.001   2.843   1.023  0.2277 -0.0408 -0.0035
  423MOL0     C56980  11.005   2.701   1.084 -0.5624  0.0791  0.5187
  423MOL0     C56981  11.148   2.673   1.132 -1.0450 -0.0232  0.0584
  423MOL0     C56982  11.165   2.533   1.186  0.3922 -0.1640 -0.7984
  423MOL0     C56983  11.310   2.490   1.213  0.1529 -0.0704  0.2654
  423MOL0     C56984  11.368   2.563   1.340 -0.0234  0.1415  0.2025
  423MOL0     C56985  11.504   2.513   1.383 -0.8217  0.8905 -0.0111
  423MOL0     C56986  11.536   2.548   1.531 -0.7232  0.1680  0.0456
  423MOL0     N56987  11.452   2.486   1.633  0.8777 -0.1916 -0.4926
  423MOL0     C56988  11.485   2.368   1.684 -0.6223 -0.8489 -0.9668
  423MOL0     C56989  11.407   2.340   1.791  1.1460 -0.5637  0.5880
  423MOL0     C56990  11.419   2.222   1.889  0.3001  0.7148 -0.7137
  423MOL0     C56991  11.281   2.187   1.960  0.0918 -0.5475 -0.9759
  423MOL0     C56992  11.278   2.051   2.042  0.2600  0.3206 -0.7472
  423MOL0     C56993  11.142   2.035   2.106 -0.4999  0.3550  0.0700
  423MOL0     O56994  11.147   1.895   2.145  0.4859 -0.4708 -0.0888
  423MOL0     C56995  11.192   1.857   2.268 -0.5888  0.6255  0.0395
  423MOL0     C56996  11.196   1.722   2.305  0.3468  0.2188  0.6231
  423MOL0     C56997  11.246   1.665   2.419  0.1238 -1.0920  0.4236
  423MOL0     C56998  11.306   1.754   2.508 -0.6594 -0.2766  0.2422
  423MOL0     C56999  11.352   1.706   2.644 -0.0145  0.1525 -0.3066
  423MOL0     O57000  11.293   1.592   2.686  0.1735 -0.6388  0.0997
  423MOL0     C57001  11.289   1.527   2.804  0.7899  1.5365 -0.1959
  423MOL0     C57002  11.268   1.391   2.805 -1.2237  0.7186 -0.5906
  423MOL0     C57003  11.293   1.313   2.916 -0.4256  0.4713  0.3622
  423MOL0     C57004  11.343   1.375   3.037 -0.2726  0.9843  0.9412
  423MOL0     O57005  11.364   1.306   3.154 -1.1959 -0.1018  0.2944
  423MOL0     C57006  11.327   1.168   3.146  0.1873 -0.0569  0.3456
  423MOL0     C57007  11.358   1.076   3.268 -0.6912  0.3971 -0.3180
  423MOL0     C57008  11.243   1.081   3.372  0.0293 -0.6570  0.3331
  423MOL0     C57009  11.229   1.188   3.477 -0.0233 -0.0030  0.1888
  423MOL0     C57010  11.316   1.160   3.604  0.2679  0.4498  0.0019
  423MOL0     C57011  11.312   1.280   3.709 -0.5854  0.1456  0.9956
  423MOL0     C57012  11.425   1.261   3.801 -0.2225 -0.1490  0.7701
  423MOL0     C57013  11.471   1.120   3.845 -0.2403 -0.9443  1.0933
  423MOL0    Cl57014  11.336   1.031   3.917 -0.1774 -0.2521 -0.3555
  423MOL0     C57015  11.357   1.514   3.035 -0.2884  0.2493  0.5035
  423MOL0     C57016  11.326   1.589   2.924 -0.1572  0.0580  0.4524
  423MOL0     O57017  11.436   1.772   2.708  0.2395 -0.5928 -0.5064
  423MOL0     C57018  11.311   1.890   2.478  0.7267 -0.2753  0.6076
  423MOL0     C57019  11.249   1.940   2.363  0.4128 -0.6709  0.1169
  423MOL0     N57020  11.324   2.447   1.798 -0.4482  0.5759 -0.5357
  423MOL0     N57021  11.353   2.544   1.713  0.1397  0.0612  0.0921
  423MOL0     C57022  10.869   3.103   0.942  0.5391 -0.0669  1.1901
  423MOL0     C57023  10.791   3.213   0.910 -0.3289 -0.3172  0.2939
  423MOL0     C57024  10.458   3.507   0.950 -0.0754  0.2017  0.4366
  423MOL0     C57025  10.382   3.556   1.054 -0.0212 -0.5043 -0.0012
  423MOL0     C57026  10.285   3.646   1.031  0.6364 -0.4999  0.6172
  423MOL0     C57027  10.255   3.704   0.907  1.5894  1.1046 -0.0227
  423MOL0     O57028  10.168   3.796   0.877 -0.3726 -0.4201  0.0732
  423MOL0     C57029  10.093   3.845   0.992  0.8598 -0.8137 -0.0762
  423MOL0     C57030   9.973   3.929   0.934  0.3464 -0.1219 -0.0252
  423MOL0     C57031  10.002   4.070   0.897 -0.3626  0.9053  0.0648
  423MOL0     C57032  10.102   4.112   0.780 -0.0502 -0.0171  0.6365
  423MOL0     C57033  10.082   4.023   0.659 -0.2202  0.1756  0.3150
  423MOL0     C57034  10.058   3.962   0.553 -0.1616 -0.2098 -0.7404
  423MOL0     C57035  10.338   3.665   0.802  0.0960  0.6869  0.6084
  423MOL0     C57036  10.439   3.568   0.822  0.7897 -0.1314 -0.9196
  423MOL0     C57037  10.527   3.541   0.700 -0.3685 -0.3536 -0.0637
  423MOL0     H57038  10.491   3.054   0.856 -1.3472  0.6647  2.9568
  423MOL0     H57039  10.630   2.863   0.895 -0.0447 -0.4650 -0.4230
  423MOL0     H57040  11.072   2.860   0.941 -1.9017 -0.9991 -2.1463
  423MOL0     H57041  11.026   2.922   1.095  0.1811 -2.3631  2.7089
  423MOL0     H57042  10.974   2.629   1.007 -1.3360  2.0235 -1.0597
  423MOL0     H57043  10.934   2.692   1.166 -0.8076  4.1015  0.9472
  423MOL0     H57044  11.187   2.747   1.203  0.0337  0.9939 -1.5297
  423MOL0     H57045  11.219   2.667   1.049 -1.6798  0.3341 -0.5325
  423MOL0     H57046  11.117   2.509   1.280  0.8668  0.6872 -0.3204
  423MOL0     H57047  11.131   2.473   1.101 -1.2413  0.4236 -0.6075
  423MOL0     H57048  11.313   2.381   1.225  4.1185 -0.1500 -0.2224
  423MOL0     H57049  11.370   2.514   1.125  1.2041 -5.1412 -0.7580
  423MOL0     H57050  11.370   2.671   1.322 -4.9061  0.3930  0.0208
  423MOL0     H57051  11.302   2.539   1.424 -0.3532  0.0987 -0.0703
  423MOL0     H57052  11.589   2.557   1.330 -0.6801  0.0657 -0.4850
  423MOL0     H57053  11.503   2.404   1.372 -1.6303  0.6307  2.1168
  423MOL0     H57054  11.635   2.512   1.559 -0.7646 -0.3435 -0.4649
  423MOL0     H57055  11.531   2.657   1.535  1.0102  0.2617  0.6002
  423MOL0     H57056  11.562   2.299   1.650 -1.6617 -1.3167 -2.4842
  423MOL0     H57057  11.464   2.135   1.841  0.1792  0.6288 -0.6711
  423MOL0     H57058  11.480   2.249   1.976  0.9598  0.3739 -1.0606
  423MOL0     H57059  11.258   2.263   2.035 -1.6298 -1.1438 -0.8565
  423MOL0     H57060  11.204   2.185   1.882  1.7052 -2.0751 -2.6388
  423MOL0     H57061  11.362   2.048   2.112  0.7476 -0.7032 -1.3687
  423MOL0     H57062  11.294   1.978   1.963  2.1201  1.1625 -1.1788
  423MOL0     H57063  11.074   2.058   2.024 -1.0144 -0.5461  0.2201
  423MOL0     H57064  11.125   2.105   2.189 -1.0850 -0.2026  0.4363
  423MOL0     H57065  11.155   1.648   2.237  0.1066 -0.3948  1.4207
  423MOL0     H57066  11.242   1.557   2.421 -4.4881 -1.1157  0.6200
  423MOL0     H57067  11.248   1.342   2.710  3.1411 -2.5363 -0.1766
  423MOL0     H57068  11.269   1.208   2.904 -1.6769  1.0127 -2.9092
  423MOL0     H57069  11.218   1.163   3.133  0.4047 -0.0294 -1.9419
  423MOL0     H57070  11.366   1.120   3.056 -0.5401 -1.4068  0.7299
  423MOL0     H57071  11.371   0.971   3.243  1.5906  0.4205  0.5702
  423MOL0     H57072  11.452   1.110   3.312  0.0797 -0.1400 -1.4923
  423MOL0     H57073  11.153   1.089   3.309 -0.5737 -0.8029  1.1625
  423MOL0     H57074  11.247   0.988   3.429  0.4834  0.3944  2.0786
  423MOL0     H57075  11.126   1.203   3.513 -1.4500 -4.3489 -1.4331
  423MOL0     H57076  11.263   1.282   3.433 -2.8723  0.3087 -1.6359
  423MOL0     H57077  11.421   1.166   3.572  0.0874  1.0629 -0.5064
  423MOL0     H57078  11.296   1.056   3.633  0.3898  0.4762  0.1841
  423MOL0     H57079  11.327   1.375   3.658 -0.4318  0.3243  1.3719
  423MOL0     H57080  11.213   1.288   3.757  0.5930  2.5658  3.2917
  423MOL0     H57081  11.396   1.304   3.897  2.2096  0.9492  1.0843
  423MOL0     H57082  11.519   1.302   3.763 -0.3420 -2.0923 -1.9394
  423MOL0     H57083  11.507   1.072   3.754  3.4687  1.9288  0.7683
  423MOL0     H57084  11.558   1.129   3.912 -0.5517 -0.6837  1.4726
  423MOL0     H57085  11.393   1.567   3.123  0.8597 -1.4041  1.0866
  423MOL0     H57086  11.341   1.696   2.912 -1.0597  0.1582  0.0904
  423MOL0     H57087  11.366   1.965   2.535 -0.4085  0.6981  0.4850
  423MOL0     H57088  11.252   2.048   2.353 -2.5674 -0.3050  2.2168
  423MOL0     H57089  10.977   3.106   0.957  0.9375 -3.0715 -0.3132
  423MOL0     H57090  10.848   3.306   0.911 -2.1799  0.8743  0.1754
  423MOL0     H57091  10.386   3.507   1.151 -1.1138 -2.4337 -0.8681
  423MOL0     H57092  10.231   3.669   1.122  1.0250 -0.3774  0.8213
  423MOL0     H57093  10.145   3.891   1.076 -0.0390  3.0238 -1.4392
  423MOL0     H57094  10.034   3.758   1.025 -1.5807  1.3427  1.6152
  423MOL0     H57095   9.899   3.919   1.014  0.5321  0.9252  0.3046
  423MOL0     H57096   9.920   3.878   0.853  0.5613 -2.2874  1.1209
  423MOL0     H57097  10.051   4.103   0.989  2.7099 -3.3232  0.2321
  423MOL0     H57098   9.904   4.117   0.881 -0.1103  0.5943 -2.9937
  423MOL0     H57099  10.072   4.216   0.770  0.3552  0.3762  2.8830
  423MOL0     H57100  10.210   4.110   0.797  0.3140  0.9394 -1.3250
  423MOL0     H57101  10.034   3.909   0.463 -0.5447  0.9975 -1.3694
  423MOL0     H57102  10.326   3.722   0.710  1.7959  3.2624  1.8580
  423MOL0     H57103  10.490   3.449   0.653  4.2220 -2.9985  0.9401
  423MOL0     H57104  10.524   3.630   0.637 -2.6715  1.2683  2.1521
  423MOL0     H57105  10.630   3.519   0.729  0.5927 -0.6926 -3.3483
  424MOL0     O57106   7.673  10.756   5.187  0.2177 -0.0154  0.0404
  424MOL0     C57107   7.566  10.775   5.236  0.6851  0.7667 -0.6014
  424MOL0     O57108   7.458  10.849   5.180 -0.5916 -0.4596  0.1405
  424MOL0     C57109   7.479  10.876   5.046  0.9139 -0.2532  0.1587
  424MOL0     C57110   7.396  10.805   4.961 -0.2050 -0.7895 -0.3905
  424MOL0     C57111   7.402  10.827   4.826 -0.4062  0.2894 -0.4406
  424MOL0     C57112   7.493  10.921   4.775  0.3387 -0.3290 -1.3203
  424MOL0     O57113   7.502  10.958   4.646 -0.6088  0.8169  0.1554
  424MOL0     C57114   7.381  11.003   4.590 -1.1272 -0.6043  0.8850
  424MOL0     C57115   7.337  10.910   4.474 -0.6138 -0.0440 -0.7023
  424MOL0     C57116   7.220  10.955   4.379  0.2871 -0.4604  0.2159
  424MOL0     C57117   7.093  10.995   4.459  0.2784 -0.0537  0.4572
  424MOL0     C57118   6.996  10.879   4.505  0.0184 -0.1119  0.1089
  424MOL0     C57119   6.885  10.919   4.607  0.2063  0.5139  0.4210
  424MOL0     C57120   6.802  10.790   4.658  0.5494  0.0940 -0.1176
  424MOL0     C57121   6.862  10.724   4.785 -0.3725  0.6382  0.5360
  424MOL0     N57122   6.862  10.815   4.901 -0.3227 -0.8912  0.2833
  424MOL0     C57123   6.964  10.837   4.982  0.1697 -0.0433 -0.1746
  424MOL0     C57124   6.918  10.922   5.080 -0.2377 -0.1153 -0.2506
  424MOL0     C57125   7.010  10.999   5.171  0.0170 -0.2268 -1.5654
  424MOL0     C57126   7.096  11.104   5.094  0.1884  0.2242 -0.4236
  424MOL0     C57127   7.160  11.203   5.194 -0.4659 -0.2934  0.9141
  424MOL0     C57128   7.240  11.141   5.309  0.5742 -0.7639 -0.5263
  424MOL0     O57129   7.296  11.250   5.391  0.3479  0.1646 -0.2941
  424MOL0     C57130   7.377  11.218   5.494 -0.1078 -0.7216  0.5968
  424MOL0     C57131   7.411  11.087   5.530 -0.4234 -1.0306  0.8880
  424MOL0     C57132   7.497  11.064   5.627  0.2425  0.7903  0.3275
  424MOL0     C57133   7.564  11.162   5.702  1.2686  0.0287 -0.3993
  424MOL0     C57134   7.656  11.132   5.815 -0.4978  0.2885 -0.4151
  424MOL0     O57135   7.713  11.244   5.862  0.0596 -0.7410  0.6076
  424MOL0     C57136   7.822  11.248   5.944  0.0196 -0.3957  0.5087
  424MOL0     C57137   7.850  11.378   5.995  1.0431 -0.2784  0.4948
  424MOL0     C57138   7.944  11.394   6.101  0.5920 -0.0510  0.2929
  424MOL0     C57139   8.029  11.285   6.141  0.2937 -0.3572  0.3329
  424MOL0     O57140   8.129  11.288   6.236  0.3382  0.0970  0.5920
  424MOL0     C57141   8.121  11.404   6.326  0.9323  0.7173 -0.2536
  424MOL0     C57142   8.243  11.400   6.407  0.2550 -0.6303  0.6835
  424MOL0     C57143   8.242  11.514   6.522 -0.3362  0.5262 -0.8432
  424MOL0     C57144   8.388  11.526   6.578 -1.0146  0.1347  0.2006
  424MOL0     C57145   8.400  11.649   6.667 -0.5207  0.5338 -0.0391
  424MOL0     C57146   8.553  11.665   6.715 -0.0961  0.0542  0.1528
  424MOL0     C57147   8.550  11.779   6.813 -0.3248  1.4787  0.2935
  424MOL0     C57148   8.688  11.815   6.845  0.3031  0.7176 -0.2791
  424MOL0    Cl57149   8.708  11.915   6.989 -0.4761  0.1630 -0.2883
  424MOL0     C57150   8.013  11.161   6.067  0.5037 -0.0521 -0.6267
  424MOL0     C57151   7.920  11.146   5.960  0.3676 -0.1244  0.3608
  424MOL0     O57152   7.651  11.023   5.867 -0.6106  1.1940 -0.1982
  424MOL0     C57153   7.527  11.295   5.665  0.8868 -0.1484  0.4450
  424MOL0     C57154   7.429  11.324   5.564  0.7403  0.2057 -0.8052
  424MOL0     N57155   6.790  10.956   5.047 -0.3011  0.7631  0.0098
  424MOL0     N57156   6.755  10.887   4.942  0.0135  0.2039  0.2422
  424MOL0     C57157   7.580  10.987   4.857 -0.0971 -0.4850  0.0642
  424MOL0     C57158   7.566  10.968   4.995 -0.1120 -0.5950 -0.6757
  424MOL0     C57159   7.548  10.718   5.375  0.4695  0.5169  0.1347
  424MOL0     C57160   7.647  10.735   5.472  0.5830  0.7597  0.1122
  424MOL0     C57161   7.625  10.696   5.607  0.2571 -0.1291 -0.5721
  424MOL0     C57162   7.498  10.642   5.645 -0.1018  0.2997  1.1577
  424MOL0     O57163   7.475  10.601   5.773 -0.3834  0.4053  0.5787
  424MOL0     C57164   7.491  10.711   5.870 -0.6900 -0.9995  0.5363
  424MOL0     C57165   7.433  10.666   5.998  0.7888  0.2011  0.3083
  424MOL0     C57166   7.434  10.788   6.092 -0.1867  0.4614  0.0928
  424MOL0     C57167   7.394  10.735   6.230 -0.0946 -0.4083  1.1209
  424MOL0     C57168   7.258  10.682   6.209  0.0525  0.6757  0.2170
  424MOL0     C57169   7.149  10.635   6.203 -0.8266  0.3591 -0.0154
  424MOL0     C57170   7.407  10.618   5.548  1.0908 -0.2291  0.6808
  424MOL0     C57171   7.429  10.660   5.419  0.0009  0.7157 -0.0595
  424MOL0     C57172   7.318  10.626   5.316 -0.6362 -1.0740  0.0417
  424MOL0     H57173   7.330  10.729   5.001 -2.0581  0.7540 -0.3807
  424MOL0     H57174   7.340  10.755   4.773 -1.2879 -0.1277  1.1057
  424MOL0     H57175   7.298  11.003   4.661 -1.1103  0.9336  0.9396
  424MOL0     H57176   7.403  11.106   4.558 -2.2244 -0.3182  1.0103
  424MOL0     H57177   7.298  10.827   4.534  0.1037 -0.7190 -1.1570
  424MOL0     H57178   7.430  10.886   4.422  0.5362  0.6130  0.9733
  424MOL0     H57179   7.198  10.875   4.309 -0.5807  2.0816 -2.6397
  424MOL0     H57180   7.248  11.040   4.316  0.8030 -0.4790  0.4180
  424MOL0     H57181   7.129  11.040   4.552  3.6966 -3.9108  1.2573
  424MOL0     H57182   7.042  11.076   4.405  1.4953 -0.5264 -1.4959
  424MOL0     H57183   6.947  10.850   4.412 -0.5280 -3.4942  1.2879
  424MOL0     H57184   7.056  10.795   4.541  2.9401  2.8743  2.8954
  424MOL0     H57185   6.938  10.967   4.690  0.4293 -1.8541  1.7152
  424MOL0     H57186   6.820  10.992   4.557  0.1592 -1.9658 -3.5430
  424MOL0     H57187   6.792  10.716   4.579  2.1667 -2.0448  1.5502
  424MOL0     H57188   6.703  10.828   4.685  1.9831  2.8584  1.6681
  424MOL0     H57189   6.811  10.629   4.801  1.1970 -0.1784  0.8903
  424MOL0     H57190   6.966  10.696   4.766 -1.1229 -2.1874  0.1343
  424MOL0     H57191   7.068  10.808   4.972  0.3520  1.0537 -1.7416
  424MOL0     H57192   6.946  11.037   5.251  0.9555 -1.7309 -0.0336
  424MOL0     H57193   7.071  10.926   5.224 -2.5595 -0.5064  1.2963
  424MOL0     H57194   7.163  11.041   5.035  1.4579  1.9857 -0.9254
  424MOL0     H57195   7.027  11.157   5.027 -1.3250 -0.8781  0.1952
  424MOL0     H57196   7.085  11.273   5.233 -0.3989  0.9705 -1.1142
  424MOL0     H57197   7.228  11.268   5.139 -4.1173  1.9429 -1.3541
  424MOL0     H57198   7.318  11.081   5.259  2.2108 -0.5229  1.6315
  424MOL0     H57199   7.166  11.077   5.358 -3.2471  2.0292 -2.1319
  424MOL0     H57200   7.355  11.004   5.488 -2.5293  0.8694 -0.2173
  424MOL0     H57201   7.523  10.959   5.623  1.5629  1.1236 -0.2118
  424MOL0     H57202   7.775  11.452   5.967  1.2437  1.0756  3.1605
  424MOL0     H57203   7.947  11.491   6.150 -0.9555 -0.6642  1.7029
  424MOL0     H57204   8.136  11.494   6.265 -1.7874  1.5118  0.1173
  424MOL0     H57205   8.032  11.422   6.387 -0.2120  2.8899 -2.3852
  424MOL0     H57206   8.264  11.305   6.457 -0.2918 -1.4603 -0.6107
  424MOL0     H57207   8.333  11.416   6.347  2.2538  1.4200  3.8700
  424MOL0     H57208   8.218  11.608   6.471 -0.3139  0.6420 -0.6433
  424MOL0     H57209   8.164  11.486   6.593 -2.2216  1.1785 -2.5657
  424MOL0     H57210   8.459  11.538   6.496  0.2860  0.3746  1.3206
  424MOL0     H57211   8.409  11.427   6.618 -1.2724 -0.2248 -0.5438
  424MOL0     H57212   8.333  11.636   6.753  2.6628 -1.2526  2.3695
  424MOL0     H57213   8.372  11.734   6.603 -2.2501  0.6041  0.7417
  424MOL0     H57214   8.587  11.570   6.756  0.5735 -0.4092 -1.4292
  424MOL0     H57215   8.618  11.686   6.630 -1.3223 -3.4025 -1.8275
  424MOL0     H57216   8.501  11.736   6.901  3.0787 -1.1617  1.1282
  424MOL0     H57217   8.485  11.863   6.789  1.1133  1.9967 -2.1512
  424MOL0     H57218   8.737  11.719   6.863 -0.6104  0.8260  3.5417
  424MOL0     H57219   8.730  11.859   6.753 -4.1671  0.1712 -2.8905
  424MOL0     H57220   8.065  11.072   6.103  0.0694 -1.0265 -2.2657
  424MOL0     H57221   7.913  11.047   5.918  0.3215  0.3855 -0.8852
  424MOL0     H57222   7.578  11.367   5.729 -0.1562  1.5076 -0.5068
  424MOL0     H57223   7.389  11.420   5.535 -0.9757  0.0892  0.9693
  424MOL0     H57224   7.663  11.046   4.821 -0.8633  1.1497  0.8517
  424MOL0     H57225   7.638  11.027   5.051  2.2408  2.7080 -6.3933
  424MOL0     H57226   7.744  10.767   5.436  1.2100 -0.3043  0.8094
  424MOL0     H57227   7.689  10.722   5.691 -1.5368 -0.6672  1.0436
  424MOL0     H57228   7.438  10.799   5.835  0.0852 -1.2883 -1.4973
  424MOL0     H57229   7.594  10.743   5.887 -1.5360  1.6871  0.9450
  424MOL0     H57230   7.485  10.578   6.036 -2.4642 -2.6351 -1.2602
  424MOL0     H57231   7.332  10.632   5.976  2.0011 -4.9518  1.4672
  424MOL0     H57232   7.367  10.870   6.065 -1.0645 -0.7314 -1.5519
  424MOL0     H57233   7.531  10.838   6.095  0.5205 -0.8902  0.7504
  424MOL0     H57234   7.463  10.656   6.263 -0.1714 -0.1232  1.9836
  424MOL0     H57235   7.400  10.815   6.304  2.5722  0.0235  0.5486
  424MOL0     H57236   7.049  10.595   6.200 -1.0157  0.7894  0.3291
  424MOL0     H57237   7.307  10.581   5.571 -0.4942  0.9461 -3.4134
  424MOL0     H57238   7.271  10.720   5.284 -0.4131  0.7481  4.2992
  424MOL0     H57239   7.352  10.566   5.232 -2.5807 -1.4076 -0.5573
  424MOL0     H57240   7.234  10.571   5.361 -2.1001 -0.4901 -1.8390
  425MOL0     O57241   1.049  10.538   1.170 -0.8161  0.1361 -0.0342
  425MOL0     C57242   0.981  10.638   1.168  1.2949  0.3502  0.4037
  425MOL0     O57243   0.848  10.634   1.129  0.2087 -0.0326 -0.2861
  425MOL0     C57244   0.787  10.522   1.075  0.5626  0.2856 -0.1205
  425MOL0     C57245   0.835  10.400   1.019 -0.1385 -0.4807  0.3016
  425MOL0     C57246   0.750  10.294   0.978  0.3804 -0.6369 -0.5352
  425MOL0     C57247   0.612  10.300   1.014 -0.7431  0.4458  0.1093
  425MOL0     O57248   0.509  10.210   0.995  0.7503  0.1200 -0.1063
  425MOL0     C57249   0.552  10.081   0.951  0.5220 -0.6358 -0.1896
  425MOL0     C57250   0.606   9.991   1.061  0.0764 -0.0511 -1.5802
  425MOL0     C57251   0.701   9.867   1.031 -0.7850 -0.2979  0.0839
  425MOL0     C57252   0.615   9.768   0.959 -0.2678 -0.2892  0.4050
  425MOL0     C57253   0.684   9.631   0.931  0.3043 -0.0117  0.0075
  425MOL0     C57254   0.692   9.556   1.071  0.0482 -0.9615  0.6054
  425MOL0     C57255   0.733   9.411   1.055 -0.3833 -0.8439 -0.2969
  425MOL0     C57256   0.873   9.388   0.985 -0.5450 -0.6691  0.0799
  425MOL0     N57257   0.910   9.255   0.983  0.1891  0.2062  0.0588
  425MOL0     C57258   0.892   9.166   1.082 -0.2032 -0.1318  0.2281
  425MOL0     C57259   0.930   9.042   1.030  0.3839 -0.4502  0.0409
  425MOL0     C57260   0.919   8.914   1.096 -0.0357  1.2299  0.2931
  425MOL0     C57261   1.032   8.886   1.205  0.4097 -1.1890  0.5526
  425MOL0     C57262   1.170   8.855   1.142 -0.2536  0.7419 -0.8134
  425MOL0     C57263   1.238   8.984   1.102 -0.5602  0.2678  0.0529
  425MOL0     O57264   1.373   8.952   1.066  0.6668  0.4799 -0.6206
  425MOL0     C57265   1.462   8.929   1.168 -0.3301  0.3097 -1.1424
  425MOL0     C57266   1.588   8.891   1.114  0.2402 -0.5326  0.4881
  425MOL0     C57267   1.696   8.880   1.197 -0.0484  0.4013 -1.1599
  425MOL0     C57268   1.693   8.899   1.336 -0.8601 -0.7272  0.6579
  425MOL0     C57269   1.816   8.881   1.418 -0.5192 -0.5969  0.4197
  425MOL0     O57270   1.817   8.937   1.545  0.1568 -0.3040  0.3706
  425MOL0     C57271   1.947   8.983   1.580 -0.0031  0.0743 -0.1232
  425MOL0     C57272   2.002   9.109   1.545  0.5341  0.5821 -0.2179
  425MOL0     C57273   2.128   9.141   1.579  0.7522 -0.0493  0.1191
  425MOL0     C57274   2.216   9.053   1.655 -0.2434 -0.3497  0.5652
  425MOL0     O57275   2.353   9.074   1.682  0.1336 -0.1240  0.1646
  425MOL0     C57276   2.427   9.194   1.636  0.0876 -0.6787  0.2782
  425MOL0     C57277   2.467   9.194   1.481  0.0692  0.1722 -0.6331
  425MOL0     C57278   2.545   9.318   1.448 -0.2377 -0.4270 -0.9637
  425MOL0     C57279   2.612   9.313   1.307 -0.1304 -0.0389 -0.0368
  425MOL0     C57280   2.704   9.425   1.281  0.1441 -0.7747 -0.6802
  425MOL0     C57281   2.771   9.396   1.142  0.0704  1.0971  0.3564
  425MOL0     C57282   2.845   9.520   1.094  0.8514 -0.3936 -0.6983
  425MOL0     C57283   2.887   9.510   0.949 -1.1259 -0.3292  0.0939
  425MOL0    Cl57284   2.762   9.464   0.830 -0.1177  0.0335  0.9383
  425MOL0     C57285   2.158   8.927   1.680 -0.7000  0.5888  0.3759
  425MOL0     C57286   2.027   8.890   1.649 -0.5075  0.5603  0.2892
  425MOL0     O57287   1.902   8.810   1.380  0.2055 -0.0573  0.1633
  425MOL0     C57288   1.569   8.926   1.379  0.0239 -0.6445 -0.8025
  425MOL0     C57289   1.458   8.952   1.306  1.0001  0.0810 -0.8394
  425MOL0     N57290   0.970   9.068   0.904  0.0288  1.0000 -0.0759
  425MOL0     N57291   0.951   9.194   0.867 -0.0682 -0.2575 -0.1377
  425MOL0     C57292   0.563  10.419   1.061  0.4100 -0.0459  0.7035
  425MOL0     C57293   0.647  10.526   1.079  0.7861 -0.1563 -0.1034
  425MOL0     C57294   1.019  10.764   1.230  0.7301  0.7191 -0.6700
  425MOL0     C57295   0.931  10.815   1.337 -0.4392  0.2422  0.5965
  425MOL0     C57296   0.959  10.924   1.414 -0.1457  0.1549  0.0170
  425MOL0     C57297   1.079  10.993   1.391  0.9566 -0.4667  0.0308
  425MOL0     O57298   1.115  11.106   1.451 -0.1473 -0.5278 -0.2760
  425MOL0     C57299   1.023  11.197   1.524 -0.5978 -0.2251 -0.1174
  425MOL0     C57300   1.082  11.229   1.663 -0.4579 -0.8048  0.0256
  425MOL0     C57301   1.057  11.119   1.758  0.6777 -0.0340  0.1660
  425MOL0     C57302   1.164  11.080   1.857 -0.1528  0.0020 -0.5768
  425MOL0     C57303   1.102  10.960   1.922 -0.2638  0.4636 -1.5507
  425MOL0     C57304   1.051  10.858   1.970 -0.3787  0.0087 -0.0212
  425MOL0     C57305   1.163  10.943   1.288 -0.4200  0.4593 -0.2959
  425MOL0     C57306   1.134  10.832   1.208  0.0708  0.9953  0.3677
  425MOL0     C57307   1.246  10.784   1.122  0.6530 -0.6493 -0.0197
  425MOL0     H57308   0.938  10.402   0.984  0.5089 -0.9414  2.0855
  425MOL0     H57309   0.787  10.203   0.930  2.5209  0.4901 -1.1288
  425MOL0     H57310   0.465  10.028   0.911  0.9050 -2.2267  0.9624
  425MOL0     H57311   0.616  10.082   0.862  1.3303 -2.7487  0.2894
  425MOL0     H57312   0.522   9.947   1.115 -0.4747  0.2198 -2.1995
  425MOL0     H57313   0.670  10.053   1.124 -0.8470  1.2656 -1.8821
  425MOL0     H57314   0.771   9.828   1.106  3.1619 -0.7309 -3.4419
  425MOL0     H57315   0.789   9.905   0.978  0.6828  1.2517  3.3940
  425MOL0     H57316   0.516   9.752   1.004 -0.6817  2.1888  0.5172
  425MOL0     H57317   0.594   9.806   0.859 -2.5502  1.4979  1.4890
  425MOL0     H57318   0.624   9.585   0.852  0.2619  0.8548 -0.4813
  425MOL0     H57319   0.783   9.661   0.895 -1.6896  2.3988 -4.2801
  425MOL0     H57320   0.762   9.607   1.139  0.0586  1.2334 -0.9574
  425MOL0     H57321   0.590   9.550   1.109  0.6185 -1.8914  2.1134
  425MOL0     H57322   0.663   9.370   0.981 -1.7678  1.0241 -0.0997
  425MOL0     H57323   0.728   9.358   1.151 -1.5129  1.5076  1.0184
  425MOL0     H57324   0.876   9.433   0.885  1.8602  0.0540  0.3995
  425MOL0     H57325   0.937   9.453   1.046 -0.2452  1.0665 -1.9891
  425MOL0     H57326   0.847   9.176   1.180 -2.1586 -1.6155 -0.4459
  425MOL0     H57327   0.819   8.912   1.142 -1.2393  0.0108 -2.1865
  425MOL0     H57328   0.918   8.832   1.024 -0.4597 -0.2809  1.9383
  425MOL0     H57329   1.039   8.969   1.276 -0.0082 -1.0969  0.4948
  425MOL0     H57330   0.994   8.811   1.275 -2.6516  1.1178  1.5814
  425MOL0     H57331   1.163   8.795   1.050  1.0280 -2.5860  1.0677
  425MOL0     H57332   1.230   8.801   1.216 -1.7378 -0.4440 -0.4358
  425MOL0     H57333   1.225   9.056   1.183 -1.6442 -0.2124  0.3340
  425MOL0     H57334   1.187   9.031   1.017 -1.8821 -1.3680 -0.1192
  425MOL0     H57335   1.593   8.871   1.007  1.3270  2.4742 -0.1013
  425MOL0     H57336   1.787   8.846   1.148 -0.2462 -1.0083 -0.5924
  425MOL0     H57337   1.936   9.178   1.493  0.1503  0.4644  0.1082
  425MOL0     H57338   2.149   9.246   1.563  0.5163  0.1519  1.0659
  425MOL0     H57339   2.354   9.274   1.648 -1.5359 -1.9591 -0.5305
  425MOL0     H57340   2.511   9.227   1.697 -1.9578  1.1322  2.2821
  425MOL0     H57341   2.528   9.105   1.462 -1.0550 -0.7226 -0.2261
  425MOL0     H57342   2.377   9.172   1.423  0.0053 -1.3446 -0.0180
  425MOL0     H57343   2.472   9.398   1.459  1.4010  0.9132  0.6785
  425MOL0     H57344   2.620   9.339   1.525 -3.2494 -0.1169  2.0873
  425MOL0     H57345   2.528   9.323   1.238  0.6047  2.5345 -0.6465
  425MOL0     H57346   2.666   9.218   1.303 -0.4247 -0.3476  2.1714
  425MOL0     H57347   2.772   9.427   1.367 -2.3147  1.2298  1.3736
  425MOL0     H57348   2.648   9.519   1.279  0.0112 -0.7357  1.8817
  425MOL0     H57349   2.839   9.310   1.149 -0.7587  0.5485  2.1948
  425MOL0     H57350   2.702   9.368   1.062 -0.1629  2.1659  0.1708
  425MOL0     H57351   2.927   9.541   1.164  0.6112  0.8811 -0.7753
  425MOL0     H57352   2.777   9.605   1.102  1.0088 -0.3716  6.1653
  425MOL0     H57353   2.918   9.609   0.916  1.6722 -1.5485 -1.2143
  425MOL0     H57354   2.971   9.441   0.942 -1.2974 -0.5714  0.3757
  425MOL0     H57355   2.216   8.853   1.734 -1.6321 -0.2797  0.2188
  425MOL0     H57356   1.984   8.793   1.673  0.3401  0.3629  1.0738
  425MOL0     H57357   1.557   8.938   1.486 -1.2491 -1.5118 -0.8351
  425MOL0     H57358   1.377   8.989   1.368  3.8604  1.9205  2.1349
  425MOL0     H57359   0.456  10.434   1.067  0.6576  2.1745  0.3603
  425MOL0     H57360   0.612  10.628   1.095  1.9045  0.4221 -1.2066
  425MOL0     H57361   0.844  10.752   1.352 -0.2240 -0.3835 -0.6369
  425MOL0     H57362   0.889  10.944   1.495  1.9101 -0.7887  2.1202
  425MOL0     H57363   0.919  11.166   1.536 -0.5662 -0.7867 -1.2083
  425MOL0     H57364   1.029  11.295   1.475  0.5054 -0.7896 -1.1522
  425MOL0     H57365   1.039  11.316   1.715 -0.1618 -1.4814  1.4420
  425MOL0     H57366   1.190  11.242   1.654 -0.5443  1.7068  1.5115
  425MOL0     H57367   1.015  11.035   1.702  0.5401  0.1376  0.0096
  425MOL0     H57368   0.969  11.154   1.812 -0.7648 -0.4534 -1.7903
  425MOL0     H57369   1.257  11.066   1.800  0.2177 -0.7485  0.1829
  425MOL0     H57370   1.188  11.162   1.925 -0.2541  0.4815 -1.1124
  425MOL0     H57371   1.020  10.782   2.040  2.2654 -0.6107  0.5953
  425MOL0     H57372   1.260  10.991   1.280  0.0635 -0.3848  0.3612
  425MOL0     H57373   1.322  10.731   1.179  1.6105  0.5256 -0.1641
  425MOL0     H57374   1.198  10.719   1.048 -0.5519 -0.1669  0.3055
  425MOL0     H57375   1.286  10.873   1.071 -1.8797 -1.3868 -3.6796
  426MOL0     O57376   2.407   9.835  10.224 -0.0235 -0.1240  0.7316
  426MOL0     C57377   2.308   9.761  10.205  0.6585 -0.7613 -0.9021
  426MOL0     O57378   2.276   9.681  10.102  0.4995 -0.2392 -0.6180
  426MOL0     C57379   2.344   9.672   9.985 -0.1421  0.4518  0.1437
  426MOL0     C57380   2.277   9.598   9.880  0.8810 -0.9795 -0.3488
  426MOL0     C57381   2.340   9.579   9.760  0.8517 -0.4223  0.2583
  426MOL0     C57382   2.472   9.606   9.740 -0.0028 -0.7432 -0.0208
  426MOL0     O57383   2.522   9.584   9.615 -0.5308  0.1010 -0.4478
  426MOL0     C57384   2.589   9.682   9.538 -1.1378  0.6721  0.1917
  426MOL0     C57385   2.675   9.611   9.427 -1.7718 -0.0488  0.1120
  426MOL0     C57386   2.822   9.594   9.466 -0.0569 -0.4812  0.0249
  426MOL0     C57387   2.894   9.483   9.390 -0.1616  0.3622 -0.5327
  426MOL0     C57388   2.892   9.483   9.239  0.8634  0.2824 -0.8286
  426MOL0     C57389   2.941   9.620   9.169  0.7843  0.6284 -1.5758
  426MOL0     C57390   2.979   9.602   9.027  0.4326  0.0810 -0.7410
  426MOL0     C57391   3.117   9.549   9.018 -0.0003 -0.1955 -0.0598
  426MOL0     N57392   3.168   9.551   8.881  0.0775  0.1318 -0.5912
  426MOL0     C57393   3.219   9.444   8.810  0.0486  0.5046  0.3537
  426MOL0     C57394   3.248   9.499   8.690 -0.2047 -0.3130  0.5485
  426MOL0     C57395   3.327   9.422   8.591 -1.0949  0.5027 -0.3338
  426MOL0     C57396   3.377   9.508   8.471  1.2184  0.2131  0.0749
  426MOL0     C57397   3.447   9.416   8.373 -0.7496 -0.5290 -0.0376
  426MOL0     C57398   3.353   9.328   8.283  0.2504 -0.1149 -0.5448
  426MOL0     O57399   3.333   9.198   8.331  0.4292 -0.8218  0.0738
  426MOL0     C57400   3.446   9.114   8.331  0.9382  0.4315 -0.1635
  426MOL0     C57401   3.429   8.976   8.365  0.2843  0.8771  0.0697
  426MOL0     C57402   3.540   8.882   8.339 -0.2572 -0.0646  0.0797
  426MOL0     C57403   3.666   8.924   8.292 -0.7468 -0.1834  0.6297
  426MOL0     C57404   3.771   8.829   8.255  0.7034  1.0401 -0.3430
  426MOL0     O57405   3.895   8.874   8.220  0.9245  0.4616  0.6259
  426MOL0     C57406   3.989   8.777   8.210  0.3721 -0.4899 -0.0647
  426MOL0     C57407   4.015   8.686   8.311 -0.2180  0.9325  0.2934
  426MOL0     C57408   4.101   8.575   8.284 -0.1081  0.3534  0.6784
  426MOL0     C57409   4.183   8.582   8.166 -0.0969 -0.2763  0.8834
  426MOL0     O57410   4.274   8.489   8.130  0.9648  0.3837  0.2031
  426MOL0     C57411   4.330   8.429   8.243  0.2543 -0.2486  0.8771
  426MOL0     C57412   4.457   8.354   8.209  0.1762 -0.8810 -0.5655
  426MOL0     C57413   4.427   8.224   8.138  0.2743  0.0471 -0.3305
  426MOL0     C57414   4.548   8.142   8.103 -1.1881  0.1722  0.1964
  426MOL0     C57415   4.597   8.054   8.214 -0.6547  0.6117 -0.5960
  426MOL0     C57416   4.753   8.057   8.226  0.2623  0.8159 -0.1833
  426MOL0     C57417   4.804   8.191   8.280  0.0500 -0.0324 -0.2280
  426MOL0     C57418   4.960   8.196   8.296  0.0298 -1.1619  0.6258
  426MOL0    Cl57419   5.013   8.355   8.364  0.2211 -0.6058  0.1731
  426MOL0     C57420   4.172   8.693   8.078  0.1478  1.0851  0.1975
  426MOL0     C57421   4.064   8.784   8.091 -0.6049  0.0223  0.1576
  426MOL0     O57422   3.734   8.708   8.272  0.4125  0.3785 -0.4979
  426MOL0     C57423   3.680   9.063   8.256  0.3399  0.4163 -0.3093
  426MOL0     C57424   3.570   9.149   8.264  0.5602  0.3611  0.6384
  426MOL0     N57425   3.200   9.628   8.684  0.2860 -0.3556  0.1115
  426MOL0     N57426   3.157   9.657   8.807 -0.2105 -0.7172  0.0858
  426MOL0     C57427   2.543   9.672   9.838 -0.3686 -0.4847  0.2817
  426MOL0     C57428   2.479   9.712   9.956 -0.1223  0.1905 -1.1172
  426MOL0     C57429   2.218   9.768  10.331 -0.0793  0.3629  0.6976
  426MOL0     C57430   2.201   9.891  10.398  0.0202  0.9307  0.3792
  426MOL0     C57431   2.127   9.898  10.516  0.0596 -0.2278  0.1319
  426MOL0     C57432   2.064   9.786  10.562 -0.6629  0.5921  0.2014
  426MOL0     O57433   1.986   9.807  10.663  0.0325 -0.6998 -0.6522
  426MOL0     C57434   1.929   9.703  10.734 -0.2819  0.7437  0.6278
  426MOL0     C57435   1.783   9.664  10.689  1.2223 -1.3974  0.6858
  426MOL0     C57436   1.672   9.773  10.678  0.0802 -0.2535 -0.2843
  426MOL0     C57437   1.687   9.882  10.793 -0.6697 -0.6952  0.1025
  426MOL0     C57438   1.549   9.934  10.825  0.0038  0.1676 -0.0955
  426MOL0     C57439   1.432   9.963  10.857 -0.4175  0.0935  0.4293
  426MOL0     C57440   2.079   9.657  10.506 -0.0159  0.8983  0.4086
  426MOL0     C57441   2.154   9.641  10.382  0.3142 -0.6111  0.1046
  426MOL0     C57442   2.159   9.503  10.323 -0.5423  0.6016  0.1263
  426MOL0     H57443   2.175   9.562   9.880  0.9822 -1.4369 -2.8288
  426MOL0     H57444   2.287   9.549   9.671  0.9758 -0.4501  0.1938
  426MOL0     H57445   2.518   9.749   9.490 -2.3657 -0.2293  0.6891
  426MOL0     H57446   2.662   9.739   9.595  0.3078 -4.0260  3.6936
  426MOL0     H57447   2.656   9.668   9.336 -4.1510 -2.7623 -1.2428
  426MOL0     H57448   2.644   9.508   9.405 -0.5592 -0.0504 -1.8634
  426MOL0     H57449   2.824   9.554   9.568 -2.2551 -0.7842  0.0001
  426MOL0     H57450   2.880   9.686   9.457  1.1955 -1.1299  1.1146
  426MOL0     H57451   3.001   9.468   9.406  0.4562  1.6085 -2.9591
  426MOL0     H57452   2.842   9.394   9.425  2.1126  0.1015  2.5408
  426MOL0     H57453   2.951   9.396   9.211 -0.2634 -1.1678  1.0727
  426MOL0     H57454   2.790   9.461   9.204  1.5088 -1.0860 -1.9362
  426MOL0     H57455   2.856   9.688   9.159 -0.9147 -0.9624  0.9079
  426MOL0     H57456   3.013   9.672   9.233 -0.7658 -2.7420  3.5133
  426MOL0     H57457   2.971   9.699   8.976 -1.4909  0.2996 -0.1065
  426MOL0     H57458   2.909   9.531   8.983  1.3006 -2.6908  2.0507
  426MOL0     H57459   3.188   9.606   9.079  1.1116 -0.5346 -0.9836
  426MOL0     H57460   3.118   9.445   9.051 -1.9528 -0.8217 -1.7745
  426MOL0     H57461   3.230   9.340   8.838  1.7542  0.5578  0.0132
  426MOL0     H57462   3.415   9.376   8.637 -2.0774 -0.7297  0.3711
  426MOL0     H57463   3.259   9.346   8.552  1.4389 -1.9392 -0.3332
  426MOL0     H57464   3.286   9.548   8.425  0.2353 -1.4202  0.5058
  426MOL0     H57465   3.455   9.581   8.495  3.2101 -1.9339  0.5086
  426MOL0     H57466   3.516   9.354   8.431  1.5226  0.1667 -1.8441
  426MOL0     H57467   3.505   9.469   8.297  0.0895  1.2843  1.7898
  426MOL0     H57468   3.382   9.325   8.177 -0.4680  4.1035 -1.0154
  426MOL0     H57469   3.251   9.367   8.281  0.6846  1.0451 -2.0101
  426MOL0     H57470   3.331   8.950   8.406 -1.1501  2.2087 -2.3011
  426MOL0     H57471   3.538   8.775   8.357  1.8107  0.3278  3.5793
  426MOL0     H57472   3.960   8.691   8.405  3.9304  0.0698  3.0398
  426MOL0     H57473   4.082   8.496   8.357 -1.8524 -0.2319 -0.3359
  426MOL0     H57474   4.370   8.507   8.309  3.8308 -1.8992  0.8652
  426MOL0     H57475   4.271   8.351   8.291 -1.6159  0.1188 -0.6805
  426MOL0     H57476   4.526   8.413   8.148 -1.9341  0.2923 -1.9294
  426MOL0     H57477   4.516   8.336   8.300 -1.6175  4.4738  2.0944
  426MOL0     H57478   4.350   8.173   8.197 -0.7315  2.0709  0.2130
  426MOL0     H57479   4.388   8.254   8.040 -0.5950 -0.3222 -0.1109
  426MOL0     H57480   4.620   8.201   8.046  1.7172 -1.4610  1.9523
  426MOL0     H57481   4.520   8.073   8.023  0.0407  0.0898 -0.1857
  426MOL0     H57482   4.553   7.954   8.217  1.9318 -0.6564 -2.0679
  426MOL0     H57483   4.552   8.091   8.307  4.1609 -0.3403  2.4388
  426MOL0     H57484   4.766   7.978   8.301 -2.5279 -0.1089 -0.5728
  426MOL0     H57485   4.803   8.038   8.130  0.6412  0.9348 -0.0132
  426MOL0     H57486   4.749   8.216   8.371 -3.8481 -2.4093 -1.6605
  426MOL0     H57487   4.769   8.259   8.202 -0.7126  0.5902  0.6314
  426MOL0     H57488   5.010   8.120   8.357 -2.7009 -0.3224  4.3134
  426MOL0     H57489   4.998   8.182   8.195 -2.6580 -0.5290 -0.5825
  426MOL0     H57490   4.238   8.710   7.993  0.1896  1.0491  0.2226
  426MOL0     H57491   4.049   8.864   8.020  4.8593  1.1098 -0.2135
  426MOL0     H57492   3.767   9.116   8.219  1.0137  0.2723  0.9933
  426MOL0     H57493   3.583   9.246   8.217  1.7166  0.0947  0.3743
  426MOL0     H57494   2.650   9.681   9.820  0.1960 -1.6600  2.6556
  426MOL0     H57495   2.533   9.764  10.035 -0.1944  0.8148 -1.4721
  426MOL0     H57496   2.247   9.979  10.355  0.0617 -0.8943 -3.7707
  426MOL0     H57497   2.125   9.989  10.576  0.4170 -0.3263  0.2947
  426MOL0     H57498   1.921   9.737  10.837  1.2121  0.2737  0.9223
  426MOL0     H57499   1.996   9.617  10.734 -0.3950  0.6553  0.5947
  426MOL0     H57500   1.749   9.591  10.763 -3.3315 -1.5278 -1.2285
  426MOL0     H57501   1.782   9.624  10.587  1.2322  0.3936 -0.0467
  426MOL0     H57502   1.575   9.722  10.676  0.6912 -1.4500 -0.4744
  426MOL0     H57503   1.686   9.826  10.584 -4.1033  3.3440  0.7867
  426MOL0     H57504   1.721   9.844  10.890  3.5037  1.8696 -0.1115
  426MOL0     H57505   1.740   9.972  10.759 -3.1834  0.3616 -1.2438
  426MOL0     H57506   1.330   9.979  10.884 -0.7354 -0.8155 -0.1663
  426MOL0     H57507   2.034   9.564  10.539  1.0847  0.6227  1.1864
  426MOL0     H57508   2.259   9.479  10.285 -1.9497 -1.8697 -2.4000
  426MOL0     H57509   2.127   9.419  10.385 -1.0830 -2.1910 -3.5895
  426MOL0     H57510   2.092   9.516  10.238 -0.0704  3.3016  0.0930
  427MOL0     O57511   1.771   0.218   3.792  0.1327 -0.3894 -0.6784
  427MOL0     C57512   1.869   0.156   3.746  0.1801  0.3241 -0.1557
  427MOL0     O57513   1.971   0.205   3.666  0.3454  0.3320 -0.0937
  427MOL0     C57514   1.978   0.338   3.647  1.0338 -0.3037 -0.1089
  427MOL0     C57515   1.907   0.396   3.543 -0.1850 -1.2207  0.2410
  427MOL0     C57516   1.920   0.536   3.529  0.2222 -0.6940 -0.3475
  427MOL0     C57517   1.995   0.621   3.619  0.5604  0.7338  0.6188
  427MOL0     O57518   2.013   0.753   3.600  0.5732  0.1250 -0.9600
  427MOL0     C57519   2.020   0.803   3.465  0.2193  0.2612  1.0219
  427MOL0     C57520   2.079   0.942   3.451 -0.8444 -0.2122  0.0355
  427MOL0     C57521   2.127   0.960   3.306 -0.2786  0.6393 -1.1699
  427MOL0     C57522   2.227   1.087   3.303 -0.2876 -0.0181 -0.1094
  427MOL0     C57523   2.178   1.223   3.348  0.2035 -0.2894  0.4037
  427MOL0     C57524   2.268   1.342   3.338 -0.5053  0.7388  0.8514
  427MOL0     C57525   2.339   1.350   3.203  0.4952  0.2556 -0.1057
  427MOL0     C57526   2.355   1.501   3.175 -0.4193 -0.4688  0.6713
  427MOL0     N57527   2.418   1.510   3.043  0.2626  0.3326  0.2084
  427MOL0     C57528   2.539   1.436   3.017  1.1173  1.0001 -0.4053
  427MOL0     C57529   2.581   1.484   2.899 -0.2960 -0.1579 -0.4806
  427MOL0     C57530   2.712   1.464   2.825  0.1892 -0.3747 -1.1781
  427MOL0     C57531   2.702   1.416   2.683  0.2198  0.1241  0.1455
  427MOL0     C57532   2.627   1.280   2.669  0.4108 -0.0187  0.3709
  427MOL0     C57533   2.476   1.291   2.620 -0.0590 -0.2055  0.5079
  427MOL0     O57534   2.418   1.157   2.596 -0.4652  0.1293  0.1737
  427MOL0     C57535   2.411   1.067   2.697 -0.6096  0.2336 -0.0998
  427MOL0     C57536   2.405   1.093   2.840  0.5459 -0.9821 -0.9790
  427MOL0     C57537   2.373   0.983   2.930  1.1964 -0.1592  0.4383
  427MOL0     C57538   2.356   0.851   2.885  0.2901 -0.1778 -0.6101
  427MOL0     C57539   2.312   0.747   2.981 -0.2859  0.1334 -0.6231
  427MOL0     O57540   2.261   0.634   2.923  0.1208 -0.1549  0.0423
  427MOL0     C57541   2.215   0.534   2.996 -0.1870  1.4859 -1.4705
  427MOL0     C57542   2.189   0.425   2.918  0.3697 -0.6293  0.0419
  427MOL0     C57543   2.128   0.311   2.973 -0.2059 -1.3287 -0.1091
  427MOL0     C57544   2.102   0.298   3.113  0.4431 -0.4180  0.3183
  427MOL0     O57545   2.043   0.178   3.139 -0.0005 -0.2390 -0.1930
  427MOL0     C57546   1.992   0.169   3.273 -0.0004 -0.5875  0.5152
  427MOL0     C57547   1.912   0.038   3.286  0.4894 -0.2248  0.0066
  427MOL0     C57548   1.994  -0.094   3.259 -0.1510 -0.7304 -0.4789
  427MOL0     C57549   1.955  -0.166   3.132 -0.1562  0.0102  0.6993
  427MOL0     C57550   2.022  -0.300   3.102  0.5005  0.1049 -0.8568
  427MOL0     C57551   2.172  -0.308   3.077 -0.3293 -0.8154  0.0238
  427MOL0     C57552   2.215  -0.233   2.950  0.1306 -0.4173 -0.2644
  427MOL0     C57553   2.322  -0.310   2.871 -0.0881  0.2813  0.4211
  427MOL0    Cl57554   2.239  -0.454   2.797 -0.0785 -0.3651  0.2377
  427MOL0     C57555   2.118   0.412   3.191 -0.0490  0.6996  0.0591
  427MOL0     C57556   2.165   0.532   3.136  0.0317 -0.5580 -0.2453
  427MOL0     O57557   2.358   0.756   3.095  0.3835 -0.3207  0.0096
  427MOL0     C57558   2.372   0.826   2.754 -0.5812  0.7022  0.4558
  427MOL0     C57559   2.392   0.926   2.657 -0.1748  0.4598 -0.1780
  427MOL0     N57560   2.489   1.581   2.857  0.7254 -0.2531 -0.4670
  427MOL0     N57561   2.388   1.597   2.942 -0.1875  0.1433  0.5778
  427MOL0     C57562   2.047   0.560   3.733 -0.5865 -0.3802  0.9219
  427MOL0     C57563   2.040   0.422   3.748 -0.0805  0.0383  0.5667
  427MOL0     C57564   1.882   0.017   3.782  0.0032  0.8233 -0.0966
  427MOL0     C57565   1.767  -0.058   3.789 -0.5558  0.0287  0.3941
  427MOL0     C57566   1.781  -0.196   3.791 -0.1145 -0.6858 -0.1636
  427MOL0     C57567   1.904  -0.255   3.821 -0.4249 -0.1279  0.4416
  427MOL0     O57568   1.931  -0.386   3.828 -0.0516 -1.1323  0.4302
  427MOL0     C57569   1.847  -0.477   3.909  0.4505 -0.1217 -0.4499
  427MOL0     C57570   1.912  -0.598   3.973 -0.1283  0.2380 -0.9657
  427MOL0     C57571   1.800  -0.671   4.053 -0.3530 -0.1257 -0.2027
  427MOL0     C57572   1.835  -0.814   4.079  0.4690  0.5616 -0.1811
  427MOL0     C57573   1.739  -0.896   4.158  0.5355  0.4005  0.2304
  427MOL0     C57574   1.659  -0.966   4.218  0.2718 -0.0660 -0.1763
  427MOL0     C57575   2.011  -0.173   3.845  0.5093  1.1587  0.1971
  427MOL0     C57576   2.007  -0.036   3.823 -1.1725 -0.3225  0.6950
  427MOL0     C57577   2.134   0.049   3.853 -0.0451 -0.7993  0.1989
  427MOL0     H57578   1.851   0.328   3.480  0.5689 -1.9383  0.3173
  427MOL0     H57579   1.860   0.577   3.449  0.2526  0.5964  0.2599
  427MOL0     H57580   2.082   0.741   3.399 -0.8719  0.0326  0.1876
  427MOL0     H57581   1.925   0.791   3.412  2.8195  1.0400 -4.6427
  427MOL0     H57582   2.161   0.948   3.523 -0.6826 -0.9302 -0.0800
  427MOL0     H57583   2.000   1.013   3.475 -1.5716 -0.8877 -0.3317
  427MOL0     H57584   2.040   0.963   3.239 -2.5781 -1.7601  1.3941
  427MOL0     H57585   2.180   0.869   3.275 -0.6998  0.3028 -0.9312
  427MOL0     H57586   2.314   1.064   3.366  0.0390  0.1464 -0.4926
  427MOL0     H57587   2.269   1.093   3.202  0.7558  1.2078  0.3624
  427MOL0     H57588   2.093   1.250   3.284  1.5065  1.8651 -0.5117
  427MOL0     H57589   2.142   1.218   3.451  0.8423 -2.1225  0.5906
  427MOL0     H57590   2.203   1.429   3.350  0.3966  1.7111 -0.9574
  427MOL0     H57591   2.335   1.330   3.424  1.2175 -0.5117 -0.5803
  427MOL0     H57592   2.276   1.310   3.123 -0.8632 -1.6983  1.8247
  427MOL0     H57593   2.433   1.295   3.197  0.6996  0.7603 -2.2844
  427MOL0     H57594   2.259   1.552   3.185 -0.2899 -0.0947  0.0132
  427MOL0     H57595   2.426   1.538   3.250  1.1693  1.1696 -1.5319
  427MOL0     H57596   2.599   1.375   3.083 -0.7148  2.8348  3.2427
  427MOL0     H57597   2.762   1.561   2.832  0.7665 -0.7204 -0.4129
  427MOL0     H57598   2.768   1.391   2.885 -1.0168 -1.9412 -1.8765
  427MOL0     H57599   2.647   1.489   2.623 -1.3314 -0.0315  1.3147
  427MOL0     H57600   2.806   1.399   2.653 -0.2417  0.7595 -2.0241
  427MOL0     H57601   2.657   1.215   2.752  0.6694  0.8342  0.9631
  427MOL0     H57602   2.684   1.233   2.588 -0.9035  1.4849 -1.5206
  427MOL0     H57603   2.477   1.336   2.521 -0.1545  1.2958  1.1653
  427MOL0     H57604   2.417   1.345   2.695  1.2538  1.1371  0.6287
  427MOL0     H57605   2.416   1.191   2.884  1.0129 -1.6713  0.4920
  427MOL0     H57606   2.370   1.005   3.036 -0.8531  1.6711  0.0802
  427MOL0     H57607   2.216   0.427   2.813 -3.5060  1.8634 -1.0836
  427MOL0     H57608   2.115   0.226   2.906  2.2800 -1.3299 -0.6911
  427MOL0     H57609   2.073   0.160   3.345  1.2524 -3.5918 -1.1067
  427MOL0     H57610   1.927   0.254   3.298 -0.4946 -0.6750 -0.4095
  427MOL0     H57611   1.864   0.030   3.384  1.4937  1.7491  0.7134
  427MOL0     H57612   1.836   0.038   3.207 -1.0063 -2.1432  1.3561
  427MOL0     H57613   2.102  -0.092   3.278  0.0805 -0.9945 -1.7064
  427MOL0     H57614   1.960  -0.166   3.335  1.9604 -0.5671  0.6989
  427MOL0     H57615   1.975  -0.100   3.046  2.4149 -1.5670 -0.0351
  427MOL0     H57616   1.848  -0.185   3.135 -0.1720 -0.2704 -0.6560
  427MOL0     H57617   1.968  -0.350   3.021  2.2060 -1.4273 -1.1259
  427MOL0     H57618   2.001  -0.364   3.189  1.6043 -0.9682 -1.3440
  427MOL0     H57619   2.223  -0.268   3.166  2.1060 -3.6918  0.0866
  427MOL0     H57620   2.202  -0.412   3.066  0.2524 -0.6644  0.0917
  427MOL0     H57621   2.233  -0.130   2.982  0.8114  0.2971 -2.7496
  427MOL0     H57622   2.125  -0.224   2.889 -0.8318 -0.9439  1.0343
  427MOL0     H57623   2.376  -0.252   2.796  1.9898 -3.4757 -1.2521
  427MOL0     H57624   2.403  -0.352   2.932 -1.3255 -1.0384  1.2343
  427MOL0     H57625   2.097   0.415   3.297  0.7599  0.3818  0.2312
  427MOL0     H57626   2.162   0.629   3.184  0.9857  0.9117 -2.8989
  427MOL0     H57627   2.358   0.726   2.712 -3.2159  1.8454 -1.7469
  427MOL0     H57628   2.387   0.889   2.555  1.4155  4.0681 -1.7317
  427MOL0     H57629   2.099   0.622   3.806  0.0144 -1.8427  1.7946
  427MOL0     H57630   2.089   0.374   3.831 -0.3341 -2.4035 -0.5826
  427MOL0     H57631   1.674  -0.006   3.769 -1.0380 -1.4173 -1.3984
  427MOL0     H57632   1.693  -0.259   3.782 -1.5906  1.4174 -1.2995
  427MOL0     H57633   1.780  -0.530   3.841 -0.3066  0.4663 -0.1787
  427MOL0     H57634   1.780  -0.426   3.979  2.0937 -2.0533  2.7249
  427MOL0     H57635   1.990  -0.555   4.036 -1.6172  0.5319  0.7874
  427MOL0     H57636   1.964  -0.647   3.890  0.1597  1.8195 -1.7499
  427MOL0     H57637   1.702  -0.665   4.005 -0.0707  1.0971 -0.6681
  427MOL0     H57638   1.795  -0.616   4.148  2.6688 -0.3005  0.1499
  427MOL0     H57639   1.842  -0.864   3.981  1.1849  0.2983 -0.0016
  427MOL0     H57640   1.926  -0.825   4.139 -0.9005 -2.7528  1.5561
  427MOL0     H57641   1.578  -1.022   4.262  1.3227 -1.1972  0.3518
  427MOL0     H57642   2.103  -0.213   3.887  1.5569 -0.1388 -3.0327
  427MOL0     H57643   2.125   0.128   3.927  0.7194  1.3488 -1.8710
  427MOL0     H57644   2.204  -0.022   3.898 -1.6794 -1.5323  1.6938
  427MOL0     H57645   2.179   0.091   3.762 -0.9350 -0.7740 -0.2429
  428MOL0     O57646   8.891   1.466   2.726 -0.5183  0.6092 -0.5451
  428MOL0     C57647   9.006   1.447   2.738  0.7968  0.2245 -0.2619
  428MOL0     O57648   9.087   1.525   2.825 -0.4766  0.2954 -1.0683
  428MOL0     C57649   9.012   1.619   2.895  0.5465 -0.0795 -1.2010
  428MOL0     C57650   8.940   1.584   3.012  0.2408 -0.6367  0.4076
  428MOL0     C57651   8.864   1.676   3.078 -0.1625 -0.0473 -0.3995
  428MOL0     C57652   8.876   1.809   3.053 -0.1415 -0.5022  0.5198
  428MOL0     O57653   8.818   1.912   3.132 -0.5186  0.3882  0.9382
  428MOL0     C57654   8.734   1.898   3.241  0.2647 -0.7082 -0.2680
  428MOL0     C57655   8.656   2.036   3.247 -0.2407 -0.6251 -1.0025
  428MOL0     C57656   8.737   2.155   3.304  0.2862  0.4051  0.3517
  428MOL0     C57657   8.644   2.262   3.354  0.4717  0.4639 -0.3033
  428MOL0     C57658   8.715   2.386   3.407  0.9500  0.1260  0.4288
  428MOL0     C57659   8.780   2.470   3.298 -0.8231  0.2099  0.0605
  428MOL0     C57660   8.843   2.605   3.337  0.7156  0.2278 -0.0922
  428MOL0     C57661   8.734   2.698   3.386 -0.0365 -0.1448  0.3998
  428MOL0     N57662   8.627   2.715   3.284 -0.2435 -0.1085 -0.5241
  428MOL0     C57663   8.511   2.641   3.267  0.2714  0.4554  0.3076
  428MOL0     C57664   8.434   2.703   3.170 -0.0027 -0.3456  0.6739
  428MOL0     C57665   8.295   2.649   3.141  0.1797 -0.4642 -0.8495
  428MOL0     C57666   8.196   2.749   3.073 -0.3406  0.3132  0.3216
  428MOL0     C57667   8.229   2.794   2.930  0.1491 -0.2350  0.5939
  428MOL0     C57668   8.245   2.687   2.821 -0.1491  0.4389 -0.8512
  428MOL0     O57669   8.257   2.742   2.691 -0.2721  0.3487  0.5037
  428MOL0     C57670   8.375   2.780   2.637 -0.5931 -0.2361 -0.4234
  428MOL0     C57671   8.496   2.785   2.706  0.8405  0.1468  1.0507
  428MOL0     C57672   8.614   2.831   2.642  0.0504 -1.2497 -0.0956
  428MOL0     C57673   8.625   2.851   2.501  0.6243  0.0834  0.2316
  428MOL0     C57674   8.752   2.867   2.437  1.2731  0.9215 -0.6678
  428MOL0     O57675   8.746   2.868   2.304  0.3701 -0.3704  0.7608
  428MOL0     C57676   8.858   2.896   2.232 -1.2758 -0.6953  0.1323
  428MOL0     C57677   8.888   2.808   2.127 -0.6342 -0.0658  0.2079
  428MOL0     C57678   8.994   2.848   2.039  0.2932 -0.0677  0.6217
  428MOL0     C57679   9.059   2.969   2.049 -0.2813 -0.5323 -0.5993
  428MOL0     O57680   9.148   2.999   1.948  0.6009  0.3327  0.2511
  428MOL0     C57681   9.267   3.059   1.990  0.6216  0.1243 -0.0603
  428MOL0     C57682   9.371   2.987   1.902 -0.7603 -0.4553  0.2916
  428MOL0     C57683   9.529   3.016   1.931  0.9320  0.4500  0.3268
  428MOL0     C57684   9.571   3.013   2.075 -0.0867 -0.1775 -1.0031
  428MOL0     C57685   9.722   2.994   2.105  0.0305 -0.2122  0.4377
  428MOL0     C57686   9.752   2.840   2.086 -0.2284  0.2353 -0.3492
  428MOL0     C57687   9.894   2.806   2.123  0.0373 -0.4201 -0.9120
  428MOL0     C57688   9.911   2.821   2.275  0.7112 -0.1931  0.1990
  428MOL0    Cl57689  10.064   2.734   2.310  0.3205 -0.7101  0.0477
  428MOL0     C57690   9.023   3.054   2.157 -0.7607  0.5231 -0.5841
  428MOL0     C57691   8.924   3.013   2.248 -0.3892 -0.0752 -0.4487
  428MOL0     O57692   8.850   2.863   2.506  0.0248  0.7134  0.7846
  428MOL0     C57693   8.503   2.821   2.429 -0.4931  0.3008  0.2410
  428MOL0     C57694   8.384   2.795   2.494 -0.2152 -0.7357 -0.6096
  428MOL0     N57695   8.499   2.822   3.133 -0.2321 -0.1421  0.5024
  428MOL0     N57696   8.604   2.831   3.211  0.2891  0.9351  0.2809
  428MOL0     C57697   8.949   1.849   2.936  0.0749  0.0651 -0.1180
  428MOL0     C57698   9.013   1.753   2.855 -0.0874  0.1090  0.6126
  428MOL0     C57699   9.071   1.328   2.666  0.7739 -0.4960  0.4097
  428MOL0     C57700   9.210   1.322   2.668  0.0894 -0.4277  0.4172
  428MOL0     C57701   9.275   1.219   2.601  0.0740 -0.4241 -0.0076
  428MOL0     C57702   9.204   1.106   2.552 -0.0326  1.0326 -0.3641
  428MOL0     O57703   9.256   0.976   2.516  0.1110 -0.3120 -0.0615
  428MOL0     C57704   9.390   0.958   2.514 -1.1165  0.4957 -0.4782
  428MOL0     C57705   9.431   0.919   2.665  0.5801  0.2002  0.5953
  428MOL0     C57706   9.585   0.924   2.681 -0.4533  0.5607  0.2785
  428MOL0     C57707   9.668   0.832   2.579  0.1398  0.4868 -0.4180
  428MOL0     C57708   9.633   0.693   2.601 -0.5047  0.2932  0.4946
  428MOL0     C57709   9.576   0.588   2.625 -0.9785 -0.4191  0.5788
  428MOL0     C57710   9.064   1.115   2.541  0.9352 -0.0102  0.4124
  428MOL0     C57711   8.996   1.233   2.587  0.1974  0.0170 -0.3180
  428MOL0     C57712   8.848   1.236   2.571  0.0944  0.2581  0.7691
  428MOL0     H57713   8.932   1.480   3.045 -0.4507 -0.7782 -0.1770
  428MOL0     H57714   8.793   1.651   3.156 -1.5670  3.8500 -0.1742
  428MOL0     H57715   8.656   1.822   3.234  0.3382 -0.8170  0.0785
  428MOL0     H57716   8.800   1.876   3.326  0.6430 -4.6949 -1.3948
  428MOL0     H57717   8.561   2.027   3.301 -0.4656 -0.6835 -1.4035
  428MOL0     H57718   8.628   2.069   3.147 -1.1318  4.5548  0.6016
  428MOL0     H57719   8.801   2.191   3.223 -0.3506 -1.2478 -0.9275
  428MOL0     H57720   8.802   2.115   3.382  2.1445 -1.5694 -2.0653
  428MOL0     H57721   8.573   2.299   3.279  1.9091  3.4530 -0.3431
  428MOL0     H57722   8.579   2.206   3.421  0.1980 -0.7087 -1.5095
  428MOL0     H57723   8.654   2.451   3.470 -0.0797  1.3944 -1.7484
  428MOL0     H57724   8.801   2.352   3.465  2.0046 -2.0452 -2.1673
  428MOL0     H57725   8.861   2.405   3.264 -0.2947  1.3428 -0.9076
  428MOL0     H57726   8.722   2.481   3.207 -0.1760 -2.8192 -0.8075
  428MOL0     H57727   8.893   2.655   3.254  0.7139  0.3316 -0.0318
  428MOL0     H57728   8.913   2.582   3.417  1.3918 -0.4655 -0.8769
  428MOL0     H57729   8.692   2.671   3.484 -1.5748 -0.0642 -0.2130
  428MOL0     H57730   8.796   2.788   3.398  1.7263 -1.5117  2.1940
  428MOL0     H57731   8.476   2.548   3.311 -4.5341  1.6524 -0.4293
  428MOL0     H57732   8.309   2.559   3.081  0.5198 -1.7356  1.0413
  428MOL0     H57733   8.245   2.604   3.227 -0.1128 -4.6144 -2.9514
  428MOL0     H57734   8.095   2.708   3.078 -1.0532  2.0736  2.9036
  428MOL0     H57735   8.201   2.833   3.143 -0.1634 -1.4340  2.5213
  428MOL0     H57736   8.327   2.843   2.937  0.7897 -1.4635  0.4747
  428MOL0     H57737   8.162   2.867   2.884  0.3284 -1.0532 -1.0253
  428MOL0     H57738   8.158   2.621   2.810 -1.2072  0.4698  4.4559
  428MOL0     H57739   8.324   2.620   2.855 -0.9717 -0.3742 -0.4807
  428MOL0     H57740   8.504   2.771   2.813  0.5859 -1.9276  0.8353
  428MOL0     H57741   8.706   2.834   2.699  0.4730 -0.2006 -0.8106
  428MOL0     H57742   8.830   2.717   2.118  1.4580 -1.7787  2.3917
  428MOL0     H57743   9.034   2.784   1.962  1.8758  1.5213  0.0697
  428MOL0     H57744   9.253   3.166   1.970  0.1037  0.0624 -0.0222
  428MOL0     H57745   9.286   3.046   2.097  0.5799 -1.2975 -0.2074
  428MOL0     H57746   9.361   2.880   1.925 -1.7907 -0.4109  0.0535
  428MOL0     H57747   9.361   2.994   1.794 -0.2279 -5.4054 -0.3368
  428MOL0     H57748   9.572   2.932   1.875 -1.9811 -0.5310 -0.5934
  428MOL0     H57749   9.561   3.112   1.890  0.7291  0.2556 -0.2987
  428MOL0     H57750   9.521   2.932   2.130 -0.5895  2.2013  2.3970
  428MOL0     H57751   9.530   3.107   2.114 -0.1576 -0.1645 -1.1075
  428MOL0     H57752   9.745   3.023   2.208  1.6409  1.8452 -0.4464
  428MOL0     H57753   9.779   3.054   2.034 -1.8044 -0.1512 -1.0799
  428MOL0     H57754   9.677   2.786   2.145  0.4044 -2.4913 -1.8514
  428MOL0     H57755   9.750   2.800   1.984  2.1356 -3.7709  0.9241
  428MOL0     H57756   9.971   2.867   2.074  1.8743  0.0365  2.2669
  428MOL0     H57757   9.910   2.699   2.112 -2.0200 -1.1512  2.0200
  428MOL0     H57758   9.908   2.927   2.305 -1.3207 -0.8100  2.5182
  428MOL0     H57759   9.821   2.778   2.321 -0.7728 -1.0243 -3.1651
  428MOL0     H57760   9.079   3.145   2.177 -0.9558  0.2647  1.3113
  428MOL0     H57761   8.900   3.082   2.329 -0.3321 -0.9476  0.3227
  428MOL0     H57762   8.502   2.819   2.321  1.4490 -0.8227  0.1995
  428MOL0     H57763   8.296   2.770   2.435 -2.2740 -0.6157  2.2223
  428MOL0     H57764   8.951   1.953   2.904 -0.0972 -0.9471 -3.8135
  428MOL0     H57765   9.078   1.773   2.771 -0.0276  2.8769  1.2115
  428MOL0     H57766   9.272   1.394   2.722 -0.6385  1.1135 -0.7233
  428MOL0     H57767   9.380   1.198   2.618 -0.3160 -3.5273 -0.6836
  428MOL0     H57768   9.444   1.048   2.482 -1.0365 -0.4757 -3.4053
  428MOL0     H57769   9.408   0.870   2.452 -0.4521 -1.1601  1.9358
  428MOL0     H57770   9.401   0.820   2.700  1.0021  0.8487  2.9779
  428MOL0     H57771   9.393   0.989   2.740  1.6657  1.4615  0.0154
  428MOL0     H57772   9.615   0.898   2.783  0.9615 -1.6115 -0.6297
  428MOL0     H57773   9.624   1.020   2.647  0.7284  0.4058  1.1396
  428MOL0     H57774   9.644   0.863   2.477 -2.9636  3.2803  0.9578
  428MOL0     H57775   9.773   0.842   2.606  0.1808 -0.3546 -0.2294
  428MOL0     H57776   9.524   0.496   2.642  1.8492 -2.4812 -1.1199
  428MOL0     H57777   9.007   1.029   2.507  1.1727 -0.5275  1.3121
  428MOL0     H57778   8.806   1.224   2.671 -1.9563  2.4949  0.2887
  428MOL0     H57779   8.812   1.334   2.536  0.8005  0.1208 -0.3674
  428MOL0     H57780   8.815   1.152   2.510 -0.4834 -0.4947  2.0781
  429MOL0     O57781  10.782   6.282   3.272  0.1637  0.4920 -0.4983
  429MOL0     C57782  10.729   6.205   3.187  0.2670  0.2269  0.3585
  429MOL0     O57783  10.789   6.143   3.079 -0.0603  0.0555  0.8452
  429MOL0     C57784  10.920   6.120   3.091 -0.8086  0.1925 -0.6231
  429MOL0     C57785  10.989   6.041   3.186 -0.2336 -0.5880 -0.2449
  429MOL0     C57786  11.111   5.991   3.173 -0.1967  0.1039  0.6259
  429MOL0     C57787  11.186   6.020   3.053 -1.2830 -0.0782 -0.0029
  429MOL0     O57788  11.309   5.958   3.027  0.2281 -0.0655  0.6167
  429MOL0     C57789  11.396   5.950   3.138 -0.5816  0.3880 -0.3860
  429MOL0     C57790  11.469   6.085   3.137  1.2285 -0.3989 -0.3740
  429MOL0     C57791  11.593   6.085   3.053  0.4111 -0.3457 -0.4838
  429MOL0     C57792  11.689   6.200   3.088  0.2549 -0.4847  0.5278
  429MOL0     C57793  11.824   6.198   3.006  0.5978 -0.0649 -0.0522
  429MOL0     C57794  11.898   6.329   3.031  0.5006  0.4576 -0.0348
  429MOL0     C57795  12.026   6.334   2.952  0.4135  0.4648 -0.3362
  429MOL0     C57796  12.122   6.448   2.980 -1.1143 -0.1470 -0.1317
  429MOL0     N57797  12.202   6.424   3.104 -0.3059 -0.7696  0.5284
  429MOL0     C57798  12.164   6.461   3.231 -0.4709 -0.2778  0.3734
  429MOL0     C57799  12.259   6.409   3.315 -0.6840 -0.6855 -0.5564
  429MOL0     C57800  12.288   6.425   3.465  0.5152 -0.6339  0.4941
  429MOL0     C57801  12.176   6.496   3.538  0.7350  0.0992 -0.8813
  429MOL0     C57802  12.065   6.387   3.567 -0.4562  0.4576  0.7268
  429MOL0     C57803  11.951   6.449   3.650 -0.3124  0.2944  0.6673
  429MOL0     O57804  11.869   6.342   3.695 -0.4209  0.0312  1.0269
  429MOL0     C57805  11.769   6.375   3.785  0.7498  0.2047  0.7459
  429MOL0     C57806  11.714   6.269   3.858  0.6907  0.3459  0.3678
  429MOL0     C57807  11.605   6.294   3.946 -0.1959 -0.4875  1.1130
  429MOL0     C57808  11.553   6.424   3.973 -0.0978 -0.9773  0.9343
  429MOL0     C57809  11.438   6.456   4.068 -0.3064  0.5092 -0.5997
  429MOL0     O57810  11.366   6.577   4.055 -0.4719  0.4141 -0.0444
  429MOL0     C57811  11.275   6.626   4.161 -0.5539 -0.2378  0.1094
  429MOL0     C57812  11.146   6.667   4.125  0.0626 -0.8843  0.3512
  429MOL0     C57813  11.053   6.709   4.217 -0.7536  0.5699 -0.3184
  429MOL0     C57814  11.082   6.704   4.351 -0.2443  0.0138 -0.4562
  429MOL0     O57815  10.991   6.736   4.441  0.4535  0.0125  0.3418
  429MOL0     C57816  10.949   6.873   4.440 -1.4805  0.1709 -0.3537
  429MOL0     C57817  10.809   6.872   4.482 -0.0590 -0.1928 -1.2470
  429MOL0     C57818  10.783   7.010   4.539  0.8018 -0.5997 -0.4058
  429MOL0     C57819  10.633   7.034   4.568 -0.1696  0.0201  0.1646
  429MOL0     C57820  10.588   7.099   4.700 -0.6550  0.1246  0.5472
  429MOL0     C57821  10.651   7.041   4.823 -0.8280  0.5276  0.1999
  429MOL0     C57822  10.546   7.057   4.945 -0.0395  0.2241  0.6255
  429MOL0     C57823  10.597   7.007   5.082  0.1278  0.4320  0.5350
  429MOL0    Cl57824  10.484   7.040   5.209  0.2754 -0.6472  0.2486
  429MOL0     C57825  11.210   6.666   4.390  0.6879 -0.9311  0.1701
  429MOL0     C57826  11.305   6.625   4.296  0.4049 -0.4163  0.0983
  429MOL0     O57827  11.422   6.368   4.162  0.0434 -0.2749  0.6068
  429MOL0     C57828  11.607   6.530   3.896 -0.6923 -0.2234  0.1435
  429MOL0     C57829  11.724   6.509   3.815 -0.4501 -0.1004  1.3929
  429MOL0     N57830  12.344   6.342   3.232  0.6348  0.0938 -0.3630
  429MOL0     N57831  12.315   6.344   3.106  0.1104  0.4093 -0.1731
  429MOL0     C57832  11.130   6.121   2.971 -0.3609  0.4644 -0.3690
  429MOL0     C57833  10.995   6.163   2.988 -0.5996 -0.2121  0.5219
  429MOL0     C57834  10.582   6.233   3.188  0.0302  0.7002 -0.6546
  429MOL0     C57835  10.516   6.220   3.059 -0.1116  0.0211  0.1498
  429MOL0     C57836  10.375   6.244   3.041 -0.2224 -0.1124  0.0717
  429MOL0     C57837  10.296   6.296   3.144 -0.2590  0.5763 -0.7992
  429MOL0     O57838  10.169   6.340   3.120 -0.2914 -0.0353 -0.0673
  429MOL0     C57839  10.091   6.417   3.210 -0.1709  0.2276  0.0036
  429MOL0     C57840  10.002   6.332   3.291 -0.4551 -0.5837 -0.3135
  429MOL0     C57841   9.929   6.399   3.406 -0.4008 -0.7735  0.0826
  429MOL0     C57842   9.829   6.311   3.482  0.9310 -0.0977  0.1298
  429MOL0     C57843   9.711   6.282   3.399 -0.3858  0.8733 -0.4793
  429MOL0     C57844   9.617   6.278   3.327  1.0690  0.6821 -0.0404
  429MOL0     C57845  10.363   6.307   3.272 -0.1787 -0.8632 -0.2626
  429MOL0     C57846  10.502   6.271   3.297  0.3445  0.7224  0.3008
  429MOL0     C57847  10.555   6.276   3.438 -0.3924  0.1518  0.9730
  429MOL0     H57848  10.930   6.011   3.272  1.0930 -0.0351  0.8831
  429MOL0     H57849  11.149   5.925   3.249 -0.3270 -2.9501 -1.7719
  429MOL0     H57850  11.346   5.954   3.236 -0.7412  1.5245 -0.5053
  429MOL0     H57851  11.464   5.864   3.139 -0.0831  0.7638  1.0246
  429MOL0     H57852  11.498   6.118   3.237  2.2155 -0.9732 -0.4582
  429MOL0     H57853  11.394   6.157   3.103  0.2400 -1.8346 -1.3816
  429MOL0     H57854  11.557   6.076   2.950  1.5950 -1.3695 -0.8337
  429MOL0     H57855  11.640   5.989   3.077  1.5480  0.3620  0.2012
  429MOL0     H57856  11.630   6.291   3.077  1.1274  0.0542  0.2504
  429MOL0     H57857  11.718   6.187   3.193  1.4777 -1.9865  0.0479
  429MOL0     H57858  11.890   6.115   3.035  0.5887  0.3537  1.2591
  429MOL0     H57859  11.799   6.201   2.900 -3.1666 -0.0694  0.6657
  429MOL0     H57860  11.831   6.403   2.987  0.6360  0.1050 -0.8550
  429MOL0     H57861  11.923   6.337   3.138 -0.2616  0.8812  0.1127
  429MOL0     H57862  12.014   6.335   2.844  3.1552  0.3211 -0.6873
  429MOL0     H57863  12.071   6.235   2.958 -2.0419 -0.7709 -0.7636
  429MOL0     H57864  12.198   6.455   2.903  1.9428 -1.1740  2.5705
  429MOL0     H57865  12.067   6.542   2.990  3.1324  2.3517  3.0155
  429MOL0     H57866  12.085   6.529   3.261 -1.3638 -0.1577 -2.0503
  429MOL0     H57867  12.294   6.323   3.505  2.8896 -1.8345 -2.5074
  429MOL0     H57868  12.385   6.476   3.467 -0.8703  2.3700 -1.4100
  429MOL0     H57869  12.208   6.535   3.635 -2.2307  1.2817 -0.2338
  429MOL0     H57870  12.143   6.584   3.481 -1.0750  0.1086  0.1082
  429MOL0     H57871  12.107   6.300   3.618 -1.5041 -1.8133 -2.0233
  429MOL0     H57872  12.034   6.352   3.468 -0.3625 -2.3275  1.5879
  429MOL0     H57873  11.895   6.512   3.579  2.1778  0.2571 -1.4647
  429MOL0     H57874  11.987   6.500   3.740 -0.5168  2.3933 -0.3860
  429MOL0     H57875  11.760   6.172   3.838 -0.6205 -0.2070 -0.0787
  429MOL0     H57876  11.580   6.213   4.013  1.3458 -0.7027  1.4627
  429MOL0     H57877  11.116   6.648   4.022 -1.2581  2.5324 -0.0275
  429MOL0     H57878  10.957   6.746   4.184 -1.8840  0.0808  2.1645
  429MOL0     H57879  11.013   6.923   4.514 -1.7409 -0.5447  0.3728
  429MOL0     H57880  10.958   6.927   4.345 -0.4303  2.1278  0.7920
  429MOL0     H57881  10.747   6.851   4.394  2.2124 -0.3292 -2.9036
  429MOL0     H57882  10.795   6.798   4.562 -0.3646  3.0688  1.9475
  429MOL0     H57883  10.837   7.031   4.632  0.9316  1.9281 -0.9869
  429MOL0     H57884  10.818   7.086   4.468  2.1198 -1.3729 -0.6152
  429MOL0     H57885  10.577   6.939   4.565  3.5096 -2.3945  0.9236
  429MOL0     H57886  10.583   7.085   4.485  0.2670 -1.7820 -1.3072
  429MOL0     H57887  10.485   7.066   4.712  0.4491 -4.4469 -0.4493
  429MOL0     H57888  10.585   7.208   4.700  1.3949  0.2234  0.8659
  429MOL0     H57889  10.683   6.937   4.807 -0.5503  0.5686  0.4757
  429MOL0     H57890  10.742   7.093   4.854 -1.9371  0.7605  3.4379
  429MOL0     H57891  10.467   6.984   4.921  2.4564 -3.3396  2.2952
  429MOL0     H57892  10.517   7.162   4.941 -0.6429  0.1174  1.8852
  429MOL0     H57893  10.615   6.899   5.074  1.1827  0.6287  0.0168
  429MOL0     H57894  10.690   7.059   5.106  0.7662  0.2352 -1.3035
  429MOL0     H57895  11.230   6.678   4.496 -2.5152  4.0648  0.4903
  429MOL0     H57896  11.395   6.594   4.347 -0.0555  0.1713  1.2880
  429MOL0     H57897  11.570   6.632   3.901  0.8776  0.3626  0.2860
  429MOL0     H57898  11.769   6.590   3.758  3.5960 -1.3492  2.4470
  429MOL0     H57899  11.179   6.162   2.883  0.4096 -0.7556 -0.5305
  429MOL0     H57900  10.950   6.221   2.908  1.9427  1.0644 -0.0793
  429MOL0     H57901  10.576   6.203   2.970 -1.7672 -2.8976 -0.5221
  429MOL0     H57902  10.317   6.232   2.951  0.2548  0.1140 -0.2746
  429MOL0     H57903  10.042   6.482   3.136  2.0097 -2.1330 -3.8106
  429MOL0     H57904  10.147   6.475   3.284 -0.6541 -0.5531  1.0062
  429MOL0     H57905  10.054   6.246   3.335  1.4340 -0.4118 -2.0210
  429MOL0     H57906   9.922   6.309   3.220 -1.6594  0.2829  0.7169
  429MOL0     H57907   9.878   6.486   3.365 -2.8814 -1.5312  1.3830
  429MOL0     H57908   9.995   6.429   3.488 -2.2218  0.9739  0.9761
  429MOL0     H57909   9.857   6.208   3.506 -0.6420 -0.7731 -0.7683
  429MOL0     H57910   9.799   6.358   3.576  0.6575 -0.9852  0.5001
  429MOL0     H57911   9.544   6.295   3.251  0.3277 -0.1052  0.4801
  429MOL0     H57912  10.300   6.338   3.355 -2.2571 -0.1530 -1.9961
  429MOL0     H57913  10.481   6.260   3.518 -0.1782 -3.7025  0.5954
  429MOL0     H57914  10.629   6.197   3.456  0.6150  0.5118 -1.2296
  429MOL0     H57915  10.589   6.377   3.461 -0.3493 -0.0978  2.0839
  430MOL0     O57916   8.232   3.410   1.835  0.2725  0.3537  0.8320
  430MOL0     C57917   8.234   3.346   1.938  0.5100 -0.1494  0.2353
  430MOL0     O57918   8.145   3.362   2.049  0.2261  0.4973 -0.0201
  430MOL0     C57919   8.045   3.455   2.050 -0.1728  0.6299 -0.2680
  430MOL0     C57920   7.918   3.408   2.072 -0.6308  0.1051 -0.2444
  430MOL0     C57921   7.805   3.498   2.062  0.1757 -0.8960 -0.0253
  430MOL0     C57922   7.834   3.638   2.065  0.2354  0.9303  0.7148
  430MOL0     O57923   7.727   3.732   2.072 -0.2839  0.0089 -0.0754
  430MOL0     C57924   7.753   3.872   2.086  0.7711 -0.2586  0.5937
  430MOL0     C57925   7.633   3.949   2.158 -0.2293  0.3590  0.1032
  430MOL0     C57926   7.687   4.093   2.202 -0.9307  0.3636  0.5681
  430MOL0     C57927   7.688   4.196   2.091 -0.1688  0.0979 -0.2980
  430MOL0     C57928   7.550   4.232   2.040  0.4616  0.4737 -1.4375
  430MOL0     C57929   7.472   4.311   2.142  1.1758 -0.3337  0.4143
  430MOL0     C57930   7.363   4.385   2.058 -0.0296  0.1032  0.7387
  430MOL0     C57931   7.279   4.492   2.139 -0.0863 -0.2664 -0.7913
  430MOL0     N57932   7.163   4.432   2.220 -0.2794 -0.4520  1.2511
  430MOL0     C57933   7.082   4.512   2.291  0.2059 -0.5140  0.0561
  430MOL0     C57934   7.005   4.434   2.365  1.0246 -0.1529  0.4692
  430MOL0     C57935   6.910   4.484   2.469  0.1779  1.1182 -0.1346
  430MOL0     C57936   6.969   4.480   2.610  0.8776 -0.6218  0.2936
  430MOL0     C57937   6.869   4.521   2.724  0.5736  0.7027 -0.2567
  430MOL0     C57938   6.802   4.661   2.712  0.2328  0.1269 -0.4550
  430MOL0     O57939   6.673   4.654   2.769 -0.0887 -0.1200 -0.1231
  430MOL0     C57940   6.613   4.769   2.809  0.5566  0.5525 -0.5186
  430MOL0     C57941   6.477   4.756   2.826  0.8923 -0.8217 -0.7602
  430MOL0     C57942   6.398   4.871   2.867 -0.0887 -0.1210 -0.0885
  430MOL0     C57943   6.452   4.997   2.887  0.1034 -0.8411 -0.1641
  430MOL0     C57944   6.363   5.109   2.926  0.3170 -0.2186 -0.3627
  430MOL0     O57945   6.440   5.215   2.975  0.0189 -0.0811  0.3538
  430MOL0     C57946   6.368   5.321   3.030 -0.0810  0.3036 -0.5554
  430MOL0     C57947   6.339   5.320   3.166 -0.2680  0.5088 -0.0408
  430MOL0     C57948   6.264   5.427   3.219  0.0879  0.0521  0.2556
  430MOL0     C57949   6.223   5.537   3.146 -0.6907  0.2062 -0.3944
  430MOL0     O57950   6.141   5.641   3.204 -0.1797 -0.1104  0.5917
  430MOL0     C57951   6.194   5.738   3.297  0.3388  0.6517  0.1522
  430MOL0     C57952   6.273   5.845   3.221  0.6515  0.1327  0.4966
  430MOL0     C57953   6.326   5.955   3.314 -0.9023 -0.5826 -0.4026
  430MOL0     C57954   6.437   6.038   3.254 -0.7861 -0.6689 -0.3585
  430MOL0     C57955   6.509   6.133   3.352  0.0414  0.2797 -0.5021
  430MOL0     C57956   6.545   6.067   3.486  0.5582 -0.5443  1.1440
  430MOL0     C57957   6.653   5.951   3.482  0.5678  0.0007 -0.8526
  430MOL0     C57958   6.668   5.902   3.632  0.3886  0.2931 -0.4016
  430MOL0    Cl57959   6.703   6.021   3.769  0.0201 -0.0130  0.1980
  430MOL0     C57960   6.269   5.542   3.008 -0.1094  0.3642  0.0407
  430MOL0     C57961   6.333   5.435   2.947  0.5045  0.5020 -1.3733
  430MOL0     O57962   6.240   5.088   2.936 -0.6135  0.2949 -0.7274
  430MOL0     C57963   6.591   5.005   2.862  0.0908  0.1657 -0.3494
  430MOL0     C57964   6.669   4.897   2.832  0.3711 -0.4393 -0.8448
  430MOL0     N57965   7.038   4.303   2.345 -0.4399  0.5556  0.5345
  430MOL0     N57966   7.134   4.301   2.250  0.3202  0.0063  0.4411
  430MOL0     C57967   7.968   3.686   2.039 -0.3441 -0.4798  0.1499
  430MOL0     C57968   8.069   3.589   2.035 -0.2821 -0.7983 -1.5878
  430MOL0     C57969   8.326   3.222   1.943 -0.3749 -0.9885 -0.4251
  430MOL0     C57970   8.364   3.160   1.823 -0.6453  0.0028 -0.1959
  430MOL0     C57971   8.453   3.050   1.831  0.2219  0.6638  0.5877
  430MOL0     C57972   8.505   2.987   1.951  0.0227  0.2875 -0.3490
  430MOL0     O57973   8.594   2.890   1.972  0.4143  0.5750 -0.4203
  430MOL0     C57974   8.606   2.803   1.857 -0.9337 -0.5199  0.6836
  430MOL0     C57975   8.712   2.855   1.762 -0.5576  0.0604  0.0790
  430MOL0     C57976   8.712   2.800   1.622  1.0970 -0.0943 -0.3680
  430MOL0     C57977   8.776   2.900   1.511 -0.1433  0.1265 -0.4674
  430MOL0     C57978   8.926   2.914   1.536 -0.4066  0.9261  0.0634
  430MOL0     C57979   9.033   2.918   1.597 -0.3970 -1.3916  0.8925
  430MOL0     C57980   8.449   3.040   2.068  0.1527  0.1446 -0.1663
  430MOL0     C57981   8.357   3.151   2.064  0.2061  0.3562 -0.0879
  430MOL0     C57982   8.302   3.194   2.201 -0.2547 -0.4662 -0.1520
  430MOL0     H57983   7.895   3.303   2.089 -1.1685  0.3331  0.4708
  430MOL0     H57984   7.702   3.465   2.073 -0.0216 -0.1147  0.6277
  430MOL0     H57985   7.838   3.880   2.154  0.6347  0.4432  0.6833
  430MOL0     H57986   7.776   3.919   1.990 -3.6395  2.7598  0.7088
  430MOL0     H57987   7.595   3.894   2.244 -2.2792  1.1609 -0.2337
  430MOL0     H57988   7.560   3.953   2.077  1.3150  2.6620 -1.3170
  430MOL0     H57989   7.788   4.091   2.243 -1.6280 -0.2833  2.3355
  430MOL0     H57990   7.624   4.139   2.279 -1.2873 -0.3011  0.6824
  430MOL0     H57991   7.730   4.290   2.128  4.8084 -2.4118  1.4452
  430MOL0     H57992   7.753   4.173   2.006  2.4724  0.7646  1.4086
  430MOL0     H57993   7.559   4.285   1.945  0.9964 -0.3005 -1.8303
  430MOL0     H57994   7.485   4.149   2.013 -1.4305  0.8318  1.5657
  430MOL0     H57995   7.434   4.244   2.219  2.9674 -0.3165  1.3860
  430MOL0     H57996   7.528   4.388   2.196  0.3401 -0.3859  1.3786
  430MOL0     H57997   7.300   4.312   2.007 -0.0469 -1.2416  2.5923
  430MOL0     H57998   7.409   4.444   1.978 -0.1570  1.2924  1.5209
  430MOL0     H57999   7.346   4.547   2.206  1.5440  0.7583 -3.1108
  430MOL0     H58000   7.239   4.567   2.070 -2.9022 -0.2010  0.7487
  430MOL0     H58001   7.091   4.620   2.293  2.0239 -0.6352  1.7019
  430MOL0     H58002   6.877   4.584   2.439  0.6303  1.6655  1.1269
  430MOL0     H58003   6.821   4.421   2.476  0.6251  0.2463 -1.8729
  430MOL0     H58004   6.984   4.372   2.623 -1.6768 -0.9562  1.0002
  430MOL0     H58005   7.067   4.528   2.620  0.7644 -0.4453  0.5662
  430MOL0     H58006   6.928   4.501   2.814  0.1974 -1.3215 -0.3954
  430MOL0     H58007   6.787   4.452   2.701  1.4207  0.5572 -3.1850
  430MOL0     H58008   6.790   4.688   2.607 -0.7484 -0.7933 -0.5877
  430MOL0     H58009   6.868   4.729   2.768  0.5002 -1.3985  1.1781
  430MOL0     H58010   6.429   4.662   2.803  0.4029 -0.7400 -0.0915
  430MOL0     H58011   6.292   4.853   2.884  0.2667 -1.0166  1.3836
  430MOL0     H58012   6.365   5.246   3.241  0.0751  0.7980  0.1276
  430MOL0     H58013   6.230   5.442   3.321 -0.8268  2.1707 -0.3031
  430MOL0     H58014   6.119   5.788   3.360 -0.2307 -0.3420  0.2909
  430MOL0     H58015   6.256   5.686   3.371 -0.1619  1.6554  1.3201
  430MOL0     H58016   6.354   5.792   3.169 -0.4295 -1.0896  0.0090
  430MOL0     H58017   6.204   5.877   3.143  0.0168  0.2163  1.0879
  430MOL0     H58018   6.249   6.022   3.354  1.6650  1.6923  1.0366
  430MOL0     H58019   6.380   5.897   3.390  0.1939  1.7819  0.7088
  430MOL0     H58020   6.389   6.108   3.184  0.2059  2.8947  2.2283
  430MOL0     H58021   6.513   5.975   3.208  0.1694  1.5603 -2.0400
  430MOL0     H58022   6.445   6.217   3.379 -1.5288 -1.1347  0.4010
  430MOL0     H58023   6.601   6.162   3.301 -0.1319  1.7495 -0.0272
  430MOL0     H58024   6.587   6.143   3.552  2.1317  0.1829 -0.6116
  430MOL0     H58025   6.458   6.031   3.541  1.0267 -1.1422  1.5161
  430MOL0     H58026   6.749   5.981   3.439  0.7469 -1.5858 -1.6416
  430MOL0     H58027   6.620   5.864   3.424  2.1740 -1.0294 -0.2728
  430MOL0     H58028   6.575   5.852   3.660  0.3338 -0.5116 -1.8971
  430MOL0     H58029   6.753   5.833   3.635  2.3657  2.6024 -0.3527
  430MOL0     H58030   6.213   5.608   2.943 -1.7281 -2.4460 -1.6225
  430MOL0     H58031   6.361   5.434   2.842  1.7848 -2.6165 -1.1119
  430MOL0     H58032   6.640   5.100   2.847 -0.3919  0.2689 -1.3215
  430MOL0     H58033   6.776   4.915   2.824 -0.0531  2.4669 -1.1305
  430MOL0     H58034   7.985   3.789   2.009  0.5067 -0.8750 -0.7695
  430MOL0     H58035   8.168   3.634   2.029 -0.7828  0.1511 -3.6031
  430MOL0     H58036   8.329   3.196   1.727 -0.0423 -0.7513 -0.7062
  430MOL0     H58037   8.475   3.005   1.734 -1.5724 -1.0667  0.9176
  430MOL0     H58038   8.507   2.789   1.812 -1.9834 -2.9740  3.4076
  430MOL0     H58039   8.651   2.709   1.892  1.8427  0.1992 -0.6452
  430MOL0     H58040   8.814   2.837   1.796  1.6577 -1.7477 -6.2096
  430MOL0     H58041   8.708   2.963   1.746  1.8230 -0.0939 -2.2138
  430MOL0     H58042   8.609   2.776   1.592  1.6903 -4.1551  0.2996
  430MOL0     H58043   8.768   2.706   1.623 -0.8772 -1.3679  1.9386
  430MOL0     H58044   8.756   2.869   1.408 -1.1473  0.3797 -0.3594
  430MOL0     H58045   8.733   3.000   1.521  1.2398  0.5015  3.2629
  430MOL0     H58046   9.129   2.924   1.644  0.2843 -2.4085 -0.3069
  430MOL0     H58047   8.487   3.010   2.165 -2.1726 -4.5451 -0.4397
  430MOL0     H58048   8.331   3.299   2.213 -0.4238 -0.5243  0.9323
  430MOL0     H58049   8.194   3.187   2.219 -0.0078 -5.2169  0.6658
  430MOL0     H58050   8.348   3.142   2.286 -0.2653 -0.1550  0.0478
  431MOL0     O58051   0.735   8.647  10.259  0.1065 -0.2816  0.0791
  431MOL0     C58052   0.621   8.657  10.211  0.3325  0.2820 -1.3235
  431MOL0     O58053   0.524   8.556  10.227 -0.1665 -0.5198  0.3351
  431MOL0     C58054   0.548   8.445  10.303 -0.6035  0.5592  0.7164
  431MOL0     C58055   0.486   8.322  10.255  0.2614 -0.2825 -0.2721
  431MOL0     C58056   0.511   8.204  10.330 -0.1433  0.2199 -0.0557
  431MOL0     C58057   0.574   8.204  10.454 -0.3075  0.2835  0.3168
  431MOL0     O58058   0.586   8.085  10.527 -0.4153 -0.3430 -0.9187
  431MOL0     C58059   0.562   7.957  10.461  0.2738 -0.0360 -0.7186
  431MOL0     C58060   0.625   7.853  10.548 -0.3146 -0.6266 -0.4970
  431MOL0     C58061   0.626   7.725  10.469  0.1782 -0.2882 -0.6201
  431MOL0     C58062   0.485   7.678  10.432  0.5119  0.2313  0.5534
  431MOL0     C58063   0.475   7.534  10.384 -0.0920 -0.4489  0.4154
  431MOL0     C58064   0.446   7.437  10.487  0.0868 -0.1695 -0.1841
  431MOL0     C58065   0.512   7.452  10.631 -0.3334  0.2126  0.4008
  431MOL0     C58066   0.656   7.395  10.636 -0.1942  0.4740  0.2493
  431MOL0     N58067   0.657   7.252  10.622 -0.5574 -0.1677  0.0545
  431MOL0     C58068   0.750   7.186  10.547  0.2116  0.1785 -0.8019
  431MOL0     C58069   0.739   7.051  10.587 -0.6232 -0.0542  0.2295
  431MOL0     C58070   0.841   6.941  10.558  1.0626 -0.5031 -0.2947
  431MOL0     C58071   0.984   6.981  10.590 -0.4506  0.5444 -0.6338
  431MOL0     C58072   1.070   6.878  10.507  0.0126 -0.2301  0.0264
  431MOL0     C58073   1.223   6.892  10.521  0.2112  0.1270  1.1329
  431MOL0     O58074   1.286   7.011  10.465  0.6786 -0.1947  0.1066
  431MOL0     C58075   1.424   7.012  10.456  0.2167 -0.6543 -0.2124
  431MOL0     C58076   1.486   7.132  10.468  0.0283 -0.3520 -0.6742
  431MOL0     C58077   1.618   7.147  10.458  0.2437 -0.0594  0.8114
  431MOL0     C58078   1.703   7.029  10.446 -0.2103  0.2288  0.8106
  431MOL0     C58079   1.848   7.041  10.449  0.4846 -0.3760  0.8150
  431MOL0     O58080   1.922   6.945  10.503 -0.5102 -0.0695 -0.0762
  431MOL0     C58081   2.056   6.964  10.538  0.3127  0.5784 -0.3774
  431MOL0     C58082   2.154   7.017  10.447 -0.0507 -1.3288  0.2719
  431MOL0     C58083   2.292   7.028  10.476 -1.0139  1.2801 -0.6611
  431MOL0     C58084   2.338   6.969  10.600  0.4174 -0.7950  0.1910
  431MOL0     O58085   2.471   6.989  10.644 -0.7907 -0.3827  0.4190
  431MOL0     C58086   2.568   6.934  10.559  0.7787  0.6475 -0.6451
  431MOL0     C58087   2.712   6.937  10.623 -0.3914  0.0730 -0.7348
  431MOL0     C58088   2.787   7.067  10.595 -0.0710 -0.3581  0.2463
  431MOL0     C58089   2.720   7.187  10.671  0.5308  0.0070 -0.5112
  431MOL0     C58090   2.810   7.306  10.680 -0.1758 -0.6256 -0.2172
  431MOL0     C58091   2.760   7.439  10.753 -0.2512  1.0682  0.1055
  431MOL0     C58092   2.873   7.536  10.772  0.4066  0.0746  0.3418
  431MOL0     C58093   2.826   7.677  10.786 -0.3395 -0.3505  0.7604
  431MOL0    Cl58094   2.715   7.720  10.926  0.5275  0.3980 -0.3102
  431MOL0     C58095   2.234   6.926  10.693  0.1284  0.4073  0.5893
  431MOL0     C58096   2.100   6.929  10.665 -0.1703  0.3585  0.2877
  431MOL0     O58097   1.889   7.147  10.399  0.3509 -0.2188 -0.1043
  431MOL0     C58098   1.638   6.904  10.447 -0.5502  0.0096 -0.5314
  431MOL0     C58099   1.501   6.898  10.457 -0.3184 -0.1349  0.5494
  431MOL0     N58100   0.639   7.045  10.682  0.5446  0.0002  0.1733
  431MOL0     N58101   0.582   7.161  10.694 -0.7661 -0.1336 -0.1897
  431MOL0     C58102   0.645   8.320  10.493  1.1269 -0.5295  0.1415
  431MOL0     C58103   0.628   8.439  10.423  0.6243 -0.3806 -0.1810
  431MOL0     C58104   0.588   8.786  10.134  0.3755  0.2750 -0.7395
  431MOL0     C58105   0.471   8.776  10.059 -0.6927  0.3297  0.0385
  431MOL0     C58106   0.424   8.880   9.992  0.9512 -0.5116 -0.3832
  431MOL0     C58107   0.491   9.012   9.990  0.8933  0.7978 -0.9936
  431MOL0     O58108   0.454   9.110   9.902  0.4838 -1.0005  0.3395
  431MOL0     C58109   0.348   9.081   9.803  0.5468 -0.3881  0.7116
  431MOL0     C58110   0.283   9.204   9.765  0.3823 -0.9647 -0.7965
  431MOL0     C58111   0.168   9.205   9.654  0.2402 -0.0803 -0.4537
  431MOL0     C58112   0.141   9.342   9.601  0.3747 -0.4374  0.4753
  431MOL0     C58113   0.048   9.327   9.488  0.9984 -0.5994  0.7141
  431MOL0     C58114  -0.038   9.302   9.400 -0.4732  0.2579 -0.4160
  431MOL0     C58115   0.603   9.020  10.066  0.1934  0.1325 -1.2764
  431MOL0     C58116   0.658   8.904  10.140  0.0670 -1.1891  0.4867
  431MOL0     C58117   0.794   8.917  10.214 -0.3189  0.1081  0.0845
  431MOL0     H58118   0.435   8.324  10.159 -2.3520  0.8675  1.0126
  431MOL0     H58119   0.472   8.109  10.296 -1.3132  0.7582 -0.2561
  431MOL0     H58120   0.454   7.961  10.443  0.1236 -0.3100  0.1042
  431MOL0     H58121   0.609   7.951  10.362  0.1414  3.0074 -1.0710
  431MOL0     H58122   0.564   7.861  10.639 -0.9705 -1.3531 -0.8579
  431MOL0     H58123   0.727   7.875  10.582 -0.2849  1.6467 -1.8216
  431MOL0     H58124   0.672   7.651  10.535 -1.0785 -0.2678  0.3130
  431MOL0     H58125   0.684   7.734  10.377  1.1832  0.6485  0.0739
  431MOL0     H58126   0.405   7.696  10.505 -1.3558 -0.4109 -1.2335
  431MOL0     H58127   0.443   7.737  10.351 -2.3873 -1.4681  0.6593
  431MOL0     H58128   0.381   7.521  10.329 -0.0401 -1.8262  0.6076
  431MOL0     H58129   0.574   7.501  10.353  1.1345  2.2753  1.2108
  431MOL0     H58130   0.337   7.434  10.496 -0.1637  1.7430 -1.8580
  431MOL0     H58131   0.472   7.339  10.445 -1.1199 -0.0423 -1.2963
  431MOL0     H58132   0.451   7.394  10.701  0.5900  0.3060  1.3223
  431MOL0     H58133   0.515   7.557  10.662  1.2363  0.8462 -1.6715
  431MOL0     H58134   0.715   7.444  10.558  1.6374  1.1644  2.0040
  431MOL0     H58135   0.694   7.435  10.730 -2.0253  3.9533 -0.3115
  431MOL0     H58136   0.813   7.226  10.468  0.1892 -2.7331 -2.4306
  431MOL0     H58137   0.821   6.841  10.596 -0.6072 -0.5756 -1.2630
  431MOL0     H58138   0.826   6.929  10.450  1.5817  2.8628 -0.8528
  431MOL0     H58139   1.012   7.083  10.566 -0.8943  0.9394  0.4646
  431MOL0     H58140   0.999   6.967  10.697  0.1256 -1.0894 -0.8895
  431MOL0     H58141   1.046   6.886  10.401  2.1518  0.4274 -0.4484
  431MOL0     H58142   1.041   6.775  10.530  0.5109 -0.5350 -0.6835
  431MOL0     H58143   1.256   6.813  10.452  0.0740  1.9029 -1.0674
  431MOL0     H58144   1.280   6.864  10.610  2.9641 -0.6598 -0.7535
  431MOL0     H58145   1.425   7.222  10.479 -0.6728 -0.8194 -0.6649
  431MOL0     H58146   1.668   7.243  10.465  1.5938 -0.6087 -0.6835
  431MOL0     H58147   2.126   7.057  10.350 -0.0943 -0.4476  0.6411
  431MOL0     H58148   2.368   7.075  10.414  2.6456 -0.9219  1.7061
  431MOL0     H58149   2.530   6.832  10.557 -0.2409  1.0274 -1.3464
  431MOL0     H58150   2.553   6.968  10.456  1.6219  3.6929  0.1399
  431MOL0     H58151   2.714   6.912  10.729 -0.6524 -0.1435 -0.7775
  431MOL0     H58152   2.772   6.859  10.575  2.6881  1.5707  0.4073
  431MOL0     H58153   2.893   7.063  10.621  0.4549 -0.6659 -1.7885
  431MOL0     H58154   2.774   7.090  10.489 -1.9175 -1.6023  0.1568
  431MOL0     H58155   2.686   7.161  10.771  3.8252  1.8409  1.2460
  431MOL0     H58156   2.635   7.208  10.606  0.6590  0.7073 -0.4518
  431MOL0     H58157   2.839   7.345  10.582  0.0745  0.4306  0.2594
  431MOL0     H58158   2.894   7.264  10.736 -0.0165 -1.1267 -0.8220
  431MOL0     H58159   2.690   7.480  10.680  1.9490  1.1617 -2.0570
  431MOL0     H58160   2.717   7.413  10.850  1.1301  1.7366  0.9274
  431MOL0     H58161   2.941   7.528  10.687  0.9252  4.1536  0.2030
  431MOL0     H58162   2.931   7.510  10.861 -1.5757  1.0080  2.0022
  431MOL0     H58163   2.910   7.746  10.796 -1.5071  1.3850 -0.6439
  431MOL0     H58164   2.772   7.714  10.698 -0.4538  0.1530  1.0349
  431MOL0     H58165   2.250   6.915  10.799 -1.6090  0.7761  0.9190
  431MOL0     H58166   2.027   6.895  10.738  0.3628  2.0098  1.6587
  431MOL0     H58167   1.694   6.811  10.448  1.2992  1.0585 -1.3680
  431MOL0     H58168   1.465   6.795  10.464  2.2296 -1.5447 -3.3500
  431MOL0     H58169   0.716   8.323  10.575  0.8764  2.2169  0.3490
  431MOL0     H58170   0.688   8.524  10.455 -1.6904  2.3748 -2.6368
  431MOL0     H58171   0.422   8.681  10.043 -1.9731  0.9318  0.2398
  431MOL0     H58172   0.343   8.852   9.926 -0.3607 -1.0340  1.3921
  431MOL0     H58173   0.266   9.022   9.846 -1.3984  1.2268 -0.6108
  431MOL0     H58174   0.397   9.036   9.717  2.0167 -1.1101  1.8728
  431MOL0     H58175   0.366   9.268   9.734 -1.1152  0.1503 -2.7602
  431MOL0     H58176   0.249   9.261   9.852  2.0332 -0.3184 -0.5211
  431MOL0     H58177   0.075   9.161   9.691 -0.5595 -1.1559 -3.4353
  431MOL0     H58178   0.198   9.138   9.572  0.0427  1.5733 -1.9373
  431MOL0     H58179   0.094   9.405   9.678  0.5250 -3.6590  3.4504
  431MOL0     H58180   0.233   9.396   9.577 -1.4122  1.8949 -1.6201
  431MOL0     H58181  -0.115   9.276   9.330  0.1063  0.3183 -1.0949
  431MOL0     H58182   0.673   9.103  10.061  0.4174  0.2180  1.6839
  431MOL0     H58183   0.865   8.840  10.183  0.4428  0.3549  1.1753
  431MOL0     H58184   0.841   9.014  10.192 -2.2148  1.4672  1.6399
  431MOL0     H58185   0.779   8.906  10.322  1.7781  2.0263  0.6453
  432MOL0     O58186  10.801   1.107   5.963  0.0196 -0.0655  0.3118
  432MOL0     C58187  10.779   1.158   6.072 -0.0024 -0.6576 -0.5416
  432MOL0     O58188  10.656   1.181   6.122 -0.2720 -0.3824  0.1718
  432MOL0     C58189  10.547   1.145   6.053 -0.8064 -0.7310 -0.8943
  432MOL0     C58190  10.524   1.202   5.930 -0.5089  0.9670  0.2003
  432MOL0     C58191  10.397   1.191   5.873 -0.3479  0.3951  0.4664
  432MOL0     C58192  10.295   1.119   5.930  0.6538  0.0814 -0.0730
  432MOL0     O58193  10.176   1.127   5.871  0.3502 -0.0558 -0.1962
  432MOL0     C58194  10.060   1.127   5.955 -1.4399 -0.2778  0.2367
  432MOL0     C58195   9.944   1.166   5.860 -0.0714 -0.4368 -0.9691
  432MOL0     C58196   9.803   1.180   5.917  0.8525 -0.2989 -0.5073
  432MOL0     C58197   9.692   1.207   5.816 -0.0858  0.2231 -1.4623
  432MOL0     C58198   9.550   1.220   5.878  0.0199  0.5073 -0.1836
  432MOL0     C58199   9.439   1.249   5.764 -0.0760 -0.7581 -0.5103
  432MOL0     C58200   9.377   1.129   5.694 -0.6188  0.0686  0.5736
  432MOL0     C58201   9.232   1.139   5.670  0.1934 -0.5052  0.2739
  432MOL0     N58202   9.207   1.217   5.551 -0.1771  0.1126 -0.3954
  432MOL0     C58203   9.095   1.216   5.472  0.5594 -0.0886  0.1802
  432MOL0     C58204   9.087   1.325   5.394 -0.3713  0.2902  0.3866
  432MOL0     C58205   8.980   1.366   5.297  0.4127  0.4503  0.2459
  432MOL0     C58206   8.878   1.457   5.362 -0.0445 -0.8977  0.7638
  432MOL0     C58207   8.811   1.557   5.251 -0.4479 -0.3022 -0.5712
  432MOL0     C58208   8.703   1.478   5.161  0.4851  0.0764  0.3731
  432MOL0     O58209   8.669   1.557   5.042  0.3565 -0.1568  0.2803
  432MOL0     C58210   8.577   1.651   5.051 -0.4294  0.0546  0.2183
  432MOL0     C58211   8.453   1.633   4.999  0.0876  0.1563  0.6864
  432MOL0     C58212   8.354   1.727   4.995  0.0678 -0.4916  0.1999
  432MOL0     C58213   8.366   1.847   5.067 -1.2054 -0.2465  0.5967
  432MOL0     C58214   8.249   1.928   5.090 -0.2186 -0.3469 -0.5140
  432MOL0     O58215   8.125   1.875   5.065 -0.3830 -0.0035 -0.0778
  432MOL0     C58216   8.016   1.953   5.085 -1.3085 -0.6387 -0.2953
  432MOL0     C58217   7.983   2.007   5.206  0.0904 -0.2498 -0.0072
  432MOL0     C58218   7.870   2.088   5.213  1.0792  0.0995  0.1013
  432MOL0     C58219   7.794   2.116   5.097 -0.1499  0.4452 -0.2187
  432MOL0     O58220   7.698   2.209   5.109  0.1113  0.4838  0.0628
  432MOL0     C58221   7.568   2.160   5.099  0.0631  0.5064  0.1286
  432MOL0     C58222   7.475   2.236   5.190  0.3522 -0.1832  0.4955
  432MOL0     C58223   7.458   2.390   5.167  0.2622  1.4554  0.1931
  432MOL0     C58224   7.340   2.414   5.072 -0.0696 -1.2562 -0.6775
  432MOL0     C58225   7.319   2.569   5.062 -1.0260  0.3469 -0.3792
  432MOL0     C58226   7.173   2.598   5.012 -0.2074 -0.4137 -0.3785
  432MOL0     C58227   7.168   2.752   4.979  0.7828  0.4395 -0.2664
  432MOL0     C58228   7.027   2.792   4.939  0.1137  0.5522  0.1970
  432MOL0    Cl58229   6.996   2.704   4.786 -0.1710 -0.1703 -0.0169
  432MOL0     C58230   7.828   2.060   4.975 -0.2115  0.8285 -1.0710
  432MOL0     C58231   7.936   1.974   4.970 -0.2145  0.7029  0.0572
  432MOL0     O58232   8.274   2.047   5.128 -0.1318 -0.5220 -1.0890
  432MOL0     C58233   8.497   1.869   5.124 -0.1482  0.2909  1.2078
  432MOL0     C58234   8.600   1.775   5.115  0.4149  0.4601 -0.4908
  432MOL0     N58235   9.203   1.390   5.419 -0.4076  0.3104  0.3388
  432MOL0     N58236   9.276   1.322   5.499  0.5251  0.3305 -0.7398
  432MOL0     C58237  10.316   1.059   6.050 -0.1609  0.0532 -0.1468
  432MOL0     C58238  10.438   1.072   6.116 -0.6398 -0.3989 -0.1375
  432MOL0     C58239  10.886   1.195   6.166  0.0575 -0.2821 -0.0468
  432MOL0     C58240  10.861   1.267   6.291 -1.2597  0.7959 -0.0644
  432MOL0     C58241  10.971   1.313   6.371  0.7925  1.4357  0.3773
  432MOL0     C58242  11.101   1.285   6.333  0.1324 -0.0945 -1.0985
  432MOL0     O58243  11.214   1.338   6.398  0.5662  0.4445  1.0016
  432MOL0     C58244  11.213   1.354   6.542  0.0576 -0.5590  0.4346
  432MOL0     C58245  11.343   1.366   6.606 -0.7743 -0.2968 -0.8362
  432MOL0     C58246  11.340   1.348   6.763 -0.2599 -0.4717 -0.0544
  432MOL0     C58247  11.473   1.389   6.823 -0.0294  0.9330  0.5873
  432MOL0     C58248  11.476   1.408   6.965  0.4405  0.7380  0.0999
  432MOL0     C58249  11.480   1.399   7.086  0.7401 -0.1633 -0.3602
  432MOL0     C58250  11.125   1.211   6.219  0.3298  0.1609  0.5400
  432MOL0     C58251  11.028   1.165   6.140  0.5100  0.2608 -0.1881
  432MOL0     C58252  11.066   1.073   6.025 -0.8567  0.1895 -0.2604
  432MOL0     H58253  10.597   1.271   5.890 -0.1878  0.9074  0.6709
  432MOL0     H58254  10.366   1.252   5.789 -1.5523 -0.7501  0.0339
  432MOL0     H58255  10.047   1.031   6.006 -0.4313  1.1825  3.4644
  432MOL0     H58256  10.059   1.206   6.029 -0.1600  2.2178 -2.2210
  432MOL0     H58257   9.935   1.086   5.786  1.7975 -2.7166  1.1096
  432MOL0     H58258   9.975   1.261   5.816 -0.9885  1.8439  2.7807
  432MOL0     H58259   9.789   1.261   5.988 -2.6766  1.3519 -2.8017
  432MOL0     H58260   9.767   1.084   5.954 -1.1751  0.4777 -0.3546
  432MOL0     H58261   9.713   1.300   5.764 -1.1194  0.1327 -2.0728
  432MOL0     H58262   9.686   1.125   5.744 -0.5523 -0.8560 -0.2493
  432MOL0     H58263   9.526   1.128   5.933 -2.2051  1.0885 -0.0857
  432MOL0     H58264   9.548   1.295   5.958  2.5670 -1.5153  1.9833
  432MOL0     H58265   9.358   1.299   5.818  0.1075  1.6710 -2.2801
  432MOL0     H58266   9.470   1.306   5.675 -1.6256 -1.3775 -1.4887
  432MOL0     H58267   9.413   1.044   5.752 -0.0728  1.7500  2.8513
  432MOL0     H58268   9.424   1.104   5.598  2.3137  3.2048  0.9571
  432MOL0     H58269   9.190   1.039   5.654 -1.0644  0.1940 -0.9753
  432MOL0     H58270   9.186   1.183   5.759 -0.1181 -0.2996  0.0139
  432MOL0     H58271   9.016   1.142   5.480 -0.6721  1.0133 -1.2847
  432MOL0     H58272   9.023   1.417   5.210  1.4958  1.3448  1.2614
  432MOL0     H58273   8.925   1.282   5.255 -1.3842  1.1104  1.1907
  432MOL0     H58274   8.796   1.400   5.407 -1.4956  0.1406 -0.4090
  432MOL0     H58275   8.927   1.508   5.445  2.2001 -3.1494  0.9304
  432MOL0     H58276   8.878   1.608   5.182 -0.6204  0.4878 -0.1697
  432MOL0     H58277   8.773   1.638   5.315 -1.2040 -0.4352 -0.8358
  432MOL0     H58278   8.615   1.450   5.219 -0.0912  2.8122  0.9663
  432MOL0     H58279   8.745   1.382   5.128 -1.8369 -0.6257 -0.7305
  432MOL0     H58280   8.427   1.539   4.951 -1.3328  0.6669  0.3842
  432MOL0     H58281   8.262   1.700   4.945 -1.3695  5.2008 -0.9455
  432MOL0     H58282   8.026   1.999   5.305 -3.3326  0.5005  1.6896
  432MOL0     H58283   7.835   2.124   5.309 -0.3124 -0.7300 -0.0771
  432MOL0     H58284   7.538   2.168   4.994  2.6182  0.3005 -0.6866
  432MOL0     H58285   7.569   2.057   5.138 -2.2752  0.3248 -0.1407
  432MOL0     H58286   7.375   2.193   5.188  0.9999 -1.7690 -1.5713
  432MOL0     H58287   7.520   2.216   5.288  0.3373  0.7718  0.7050
  432MOL0     H58288   7.435   2.423   5.268  3.5445 -1.0890  1.9821
  432MOL0     H58289   7.553   2.435   5.138 -0.0397  0.5441 -2.5160
  432MOL0     H58290   7.257   2.378   5.134  0.2376  1.5033  1.5577
  432MOL0     H58291   7.355   2.363   4.977  1.9252 -1.3785 -0.3380
  432MOL0     H58292   7.396   2.602   4.992 -0.4297 -1.1689 -0.4771
  432MOL0     H58293   7.329   2.620   5.158 -1.6902 -2.0870  1.0768
  432MOL0     H58294   7.150   2.531   4.929 -0.5217 -0.3893 -0.3112
  432MOL0     H58295   7.095   2.573   5.084  0.0086 -0.5759 -0.1985
  432MOL0     H58296   7.228   2.783   4.893  0.4582  1.5155 -0.1186
  432MOL0     H58297   7.200   2.812   5.065  0.9597 -1.3477  0.9812
  432MOL0     H58298   6.949   2.780   5.015 -0.4640  0.2152 -0.4330
  432MOL0     H58299   7.002   2.897   4.921 -0.6568  0.6098  1.4476
  432MOL0     H58300   7.775   2.088   4.885  0.4548  1.4528 -1.2843
  432MOL0     H58301   7.969   1.929   4.878 -2.7697 -0.6397 -0.3007
  432MOL0     H58302   8.518   1.958   5.183  1.6240 -1.4322  3.3184
  432MOL0     H58303   8.700   1.789   5.153  0.2528 -2.1241  1.2156
  432MOL0     H58304  10.239   1.000   6.098  2.5497 -2.5263  1.4174
  432MOL0     H58305  10.452   1.043   6.220 -0.1183 -5.1318 -1.2868
  432MOL0     H58306  10.763   1.293   6.328 -1.0814  0.9431  0.3037
  432MOL0     H58307  10.952   1.357   6.468  0.9628  0.4924  0.8462
  432MOL0     H58308  11.157   1.270   6.584  0.1433 -1.7646 -1.7154
  432MOL0     H58309  11.159   1.447   6.560  0.1999  0.1795 -2.4485
  432MOL0     H58310  11.406   1.453   6.585 -1.4108  1.5697  3.8571
  432MOL0     H58311  11.397   1.283   6.559 -1.4825 -0.2220 -1.8261
  432MOL0     H58312  11.313   1.248   6.800 -1.9716  0.4246  1.2876
  432MOL0     H58313  11.263   1.408   6.812 -2.4458 -2.1222 -1.3111
  432MOL0     H58314  11.549   1.313   6.803 -1.2570 -0.6126  1.5841
  432MOL0     H58315  11.504   1.484   6.777 -0.4268  0.5636 -0.4743
  432MOL0     H58316  11.497   1.399   7.192  0.0796  3.0002 -0.1559
  432MOL0     H58317  11.230   1.196   6.195  1.1286  4.6260  0.3373
  432MOL0     H58318  10.998   0.987   6.026 -0.5979 -0.0170 -0.3211
  432MOL0     H58319  11.049   1.130   5.933 -3.2330 -0.4520 -0.2910
  432MOL0     H58320  11.169   1.045   6.047 -1.4142 -1.4320  0.4296
  433MOL0     O58321   3.048   8.854   8.379 -0.2317  0.8659 -0.6016
  433MOL0     C58322   2.983   8.760   8.420 -0.5110 -0.2215  0.0453
  433MOL0     O58323   3.012   8.682   8.525 -0.3568  0.0488  0.0123
  433MOL0     C58324   3.133   8.674   8.590 -0.0145 -0.0368 -0.6297
  433MOL0     C58325   3.262   8.642   8.538  0.2686  0.2989  0.5273
  433MOL0     C58326   3.379   8.635   8.614  1.1215 -0.6060  0.0527
  433MOL0     C58327   3.371   8.675   8.746 -0.3398  0.0792 -0.4809
  433MOL0     O58328   3.491   8.684   8.818 -0.0604 -0.4879  0.3443
  433MOL0     C58329   3.476   8.716   8.961 -0.9300 -1.1875 -0.8851
  433MOL0     C58330   3.621   8.735   8.995 -0.5864  0.0659  0.5113
  433MOL0     C58331   3.649   8.818   9.122  0.1905  0.7786 -0.2166
  433MOL0     C58332   3.800   8.820   9.129  0.8436  0.5742 -0.5193
  433MOL0     C58333   3.853   8.881   9.257  0.8416  0.2796  0.0407
  433MOL0     C58334   3.998   8.876   9.297  0.1276  0.1084  0.5035
  433MOL0     C58335   4.086   8.909   9.172  0.7000 -0.0605  0.5090
  433MOL0     C58336   4.088   9.063   9.138  0.8659  0.0755  0.1822
  433MOL0     N58337   3.986   9.086   9.024  0.6216  0.3420 -0.0643
  433MOL0     C58338   3.981   9.048   8.892 -0.0220  0.3837  0.3546
  433MOL0     C58339   3.877   9.126   8.841 -0.3641  0.2500  1.4836
  433MOL0     C58340   3.828   9.121   8.693  0.0840 -0.4043 -0.3799
  433MOL0     C58341   3.708   9.027   8.678 -0.1361  0.6222 -0.1257
  433MOL0     C58342   3.587   9.074   8.761 -0.2910  0.3432 -0.2101
  433MOL0     C58343   3.446   9.027   8.716  1.2213 -0.0093 -0.1743
  433MOL0     O58344   3.356   9.055   8.826 -0.2377 -0.6192  0.3542
  433MOL0     C58345   3.221   9.030   8.814 -0.2958 -0.3286  0.0024
  433MOL0     C58346   3.147   9.036   8.927  0.7133  0.3911  0.6952
  433MOL0     C58347   3.010   9.003   8.923  0.0442  0.0958  0.0363
  433MOL0     C58348   2.940   8.990   8.804 -0.2519 -0.1619  0.0642
  433MOL0     C58349   2.791   8.971   8.797 -1.0795 -0.4261  0.0582
  433MOL0     O58350   2.712   8.992   8.909 -0.1063 -0.1696 -1.3638
  433MOL0     C58351   2.580   8.990   8.905  0.2594  0.2131 -0.1104
  433MOL0     C58352   2.517   8.904   8.998 -0.2582  0.3638 -0.4942
  433MOL0     C58353   2.377   8.897   8.981 -0.2835  0.5279 -0.2412
  433MOL0     C58354   2.315   8.959   8.869 -0.6009  0.2727  0.0708
  433MOL0     O58355   2.176   8.937   8.856 -0.1319  0.5048  0.0993
  433MOL0     C58356   2.113   8.947   8.727 -0.2307 -0.7855 -0.0477
  433MOL0     C58357   2.014   8.828   8.726 -0.1640  0.0338 -0.3603
  433MOL0     C58358   1.863   8.858   8.765  0.4752 -0.4763  1.0044
  433MOL0     C58359   1.785   8.920   8.643  0.5548  0.6320  0.0493
  433MOL0     C58360   1.641   8.975   8.683  0.2984  0.7450 -0.3994
  433MOL0     C58361   1.576   9.038   8.551 -0.6157  0.4980  0.1250
  433MOL0     C58362   1.435   9.089   8.585  0.4331  0.5078 -0.1086
  433MOL0     C58363   1.442   9.238   8.621  0.7775  0.8231  0.2008
  433MOL0    Cl58364   1.279   9.306   8.641 -0.1534 -0.4848  0.4981
  433MOL0     C58365   2.386   9.043   8.786 -0.9909  0.6684  0.1881
  433MOL0     C58366   2.524   9.074   8.813 -1.5580 -0.7799 -0.2976
  433MOL0     O58367   2.751   8.932   8.689 -0.4333  0.1407 -0.3506
  433MOL0     C58368   3.015   8.994   8.686 -0.3278 -0.4457  0.1770
  433MOL0     C58369   3.156   9.015   8.684 -0.0993  0.0782  0.2640
  433MOL0     N58370   3.821   9.204   8.941 -0.2810  0.1677  0.5268
  433MOL0     N58371   3.895   9.182   9.045  1.6300  0.4285  0.3886
  433MOL0     C58372   3.245   8.697   8.801  0.4664 -0.0470  0.3230
  433MOL0     C58373   3.128   8.692   8.729  1.1932 -0.1272  0.4377
  433MOL0     C58374   2.868   8.711   8.330 -0.3659  0.4219 -1.0906
  433MOL0     C58375   2.800   8.589   8.365  0.2296  1.0192  0.4915
  433MOL0     C58376   2.697   8.533   8.285  1.5799  1.0038  0.0774
  433MOL0     C58377   2.657   8.592   8.169 -0.7406 -0.3797 -0.4001
  433MOL0     O58378   2.545   8.562   8.099  0.1924  0.3202  0.0046
  433MOL0     C58379   2.521   8.425   8.074 -0.5962 -0.5405 -0.4563
  433MOL0     C58380   2.468   8.404   7.940  0.5347 -0.0506  0.0416
  433MOL0     C58381   2.352   8.495   7.912  0.4635  1.0741  0.3892
  433MOL0     C58382   2.289   8.467   7.771  0.5934  0.1194 -0.2953
  433MOL0     C58383   2.390   8.454   7.666  1.0155  0.4807  0.1633
  433MOL0     C58384   2.475   8.461   7.571 -0.3064 -0.5245  0.3333
  433MOL0     C58385   2.734   8.706   8.126 -0.6256 -0.0448  0.6717
  433MOL0     C58386   2.835   8.768   8.205 -0.7353 -0.0887  0.0915
  433MOL0     C58387   2.900   8.886   8.144  0.0510 -0.2293 -0.8276
  433MOL0     H58388   3.264   8.632   8.430 -0.1313 -3.1540  0.7282
  433MOL0     H58389   3.477   8.639   8.567  0.9916 -0.9655 -0.2485
  433MOL0     H58390   3.425   8.811   8.982  2.8498  0.8633 -0.2086
  433MOL0     H58391   3.445   8.634   9.027 -1.1076  0.4703  1.1743
  433MOL0     H58392   3.668   8.794   8.916  0.7632  0.0411  1.2688
  433MOL0     H58393   3.662   8.634   8.994 -2.3096 -0.6803  1.3049
  433MOL0     H58394   3.591   8.788   9.209  0.8475  3.9791  1.4823
  433MOL0     H58395   3.609   8.919   9.106 -2.7307 -0.0893  0.9954
  433MOL0     H58396   3.832   8.717   9.111  0.0487  0.6416 -2.5594
  433MOL0     H58397   3.840   8.879   9.046 -1.1800  2.6690 -0.1200
  433MOL0     H58398   3.834   8.988   9.246  1.5684  0.4525  0.3571
  433MOL0     H58399   3.794   8.838   9.338 -3.1829 -1.6365 -3.5686
  433MOL0     H58400   4.010   8.959   9.367 -0.8104  1.2339 -0.6195
  433MOL0     H58401   4.023   8.777   9.336 -2.5368 -0.9781 -0.3525
  433MOL0     H58402   4.070   8.849   9.083  0.0634  0.0121  0.5687
  433MOL0     H58403   4.190   8.886   9.198  1.7020  3.1712 -0.2088
  433MOL0     H58404   4.055   9.133   9.215 -2.8804  1.3030 -2.2985
  433MOL0     H58405   4.195   9.076   9.118  1.1847 -2.8919 -0.5928
  433MOL0     H58406   4.061   8.989   8.847 -0.6385 -1.9266  2.1101
  433MOL0     H58407   3.795   9.220   8.660 -1.6220 -0.8048  0.0048
  433MOL0     H58408   3.913   9.093   8.631  0.4306 -2.2873  0.8522
  433MOL0     H58409   3.676   9.012   8.575  2.1495  2.4240 -1.2014
  433MOL0     H58410   3.734   8.928   8.719  0.3131  2.0698  3.4881
  433MOL0     H58411   3.586   9.184   8.756  0.4773  0.4767  1.7638
  433MOL0     H58412   3.599   9.051   8.867 -2.9751 -0.5101 -0.0379
  433MOL0     H58413   3.450   8.924   8.680 -0.8359 -0.5894  1.0796
  433MOL0     H58414   3.415   9.080   8.625 -0.2889 -0.8492 -0.1737
  433MOL0     H58415   3.203   9.054   9.018 -1.4728 -0.9517  2.4378
  433MOL0     H58416   2.950   9.001   9.013  2.0035  1.1291  1.4599
  433MOL0     H58417   2.570   8.840   9.068 -1.4779 -1.2771 -1.0240
  433MOL0     H58418   2.320   8.822   9.034  0.6748 -2.3616 -3.0355
  433MOL0     H58419   2.061   9.044   8.723  1.6079  0.2382 -0.4245
  433MOL0     H58420   2.183   8.950   8.643  0.2356 -2.1145  0.2730
  433MOL0     H58421   2.008   8.783   8.627  0.2117  1.2403 -0.9456
  433MOL0     H58422   2.047   8.746   8.791 -3.5846 -1.0526  0.1795
  433MOL0     H58423   1.812   8.765   8.789  1.2238 -0.6758  1.8647
  433MOL0     H58424   1.854   8.917   8.857  2.7788 -2.0361  2.3306
  433MOL0     H58425   1.766   8.841   8.569 -0.6482 -1.8019  2.7714
  433MOL0     H58426   1.842   8.998   8.592 -0.7554  1.7111  0.1755
  433MOL0     H58427   1.655   9.051   8.761  0.3848  0.5658 -0.2398
  433MOL0     H58428   1.590   8.885   8.720  2.4375  0.1098  1.2063
  433MOL0     H58429   1.641   9.118   8.516  2.1379 -1.1737  1.1015
  433MOL0     H58430   1.573   8.961   8.473  4.2970 -0.3898  0.4621
  433MOL0     H58431   1.393   9.034   8.670  1.2468  0.9730  0.6146
  433MOL0     H58432   1.372   9.074   8.497  1.4640 -1.8958 -0.4967
  433MOL0     H58433   1.492   9.247   8.718  2.0188 -1.2246 -0.1678
  433MOL0     H58434   1.498   9.302   8.552 -0.1006  4.1764  2.4027
  433MOL0     H58435   2.341   9.091   8.700 -3.7795 -1.3275  0.4185
  433MOL0     H58436   2.580   9.145   8.754 -1.8244  1.0984  1.5830
  433MOL0     H58437   2.955   8.985   8.596 -2.6463  0.2506  1.5829
  433MOL0     H58438   3.203   9.011   8.586 -0.1332 -6.0885  0.0888
  433MOL0     H58439   3.223   8.718   8.905 -0.8328  1.1196 -0.1512
  433MOL0     H58440   3.032   8.723   8.768 -0.4998 -1.0602 -2.6697
  433MOL0     H58441   2.836   8.512   8.432  0.1651 -2.0550 -2.7565
  433MOL0     H58442   2.634   8.450   8.315 -0.0639  2.4180  0.7362
  433MOL0     H58443   2.445   8.383   8.141 -2.0884 -0.5990 -2.1081
  433MOL0     H58444   2.610   8.362   8.069 -1.3066 -1.4860 -2.2251
  433MOL0     H58445   2.436   8.303   7.913 -0.7889  0.0644  1.0656
  433MOL0     H58446   2.549   8.426   7.869 -0.7228  0.6133 -1.2529
  433MOL0     H58447   2.362   8.603   7.926 -0.0455  1.2494 -0.5721
  433MOL0     H58448   2.273   8.468   7.982  1.2146  2.0338  1.6560
  433MOL0     H58449   2.221   8.381   7.778  1.0926 -0.1875  1.1910
  433MOL0     H58450   2.221   8.546   7.740  0.9170 -0.1043 -1.6700
  433MOL0     H58451   2.547   8.474   7.493 -2.1716  2.3186 -1.0951
  433MOL0     H58452   2.714   8.749   8.029 -1.0558 -1.5210  0.0755
  433MOL0     H58453   2.861   8.971   8.201 -2.8778 -2.4914  0.8186
  433MOL0     H58454   3.007   8.872   8.164 -0.2600 -0.7279  0.5642
  433MOL0     H58455   2.873   8.903   8.040 -3.7292  2.0374  0.3455
  434MOL0     O58456   1.987   1.531   8.803 -0.6187  0.3631 -0.7574
  434MOL0     C58457   1.976   1.566   8.922 -0.1135 -0.3172  0.1245
  434MOL0     O58458   1.864   1.554   9.000 -0.8058 -0.8690 -0.4661
  434MOL0     C58459   1.745   1.516   8.952 -0.2417 -0.2512  0.3569
  434MOL0     C58460   1.636   1.590   8.969 -0.4657  0.4856  0.2941
  434MOL0     C58461   1.509   1.543   8.952 -0.5352 -0.5368  0.3431
  434MOL0     C58462   1.489   1.407   8.914 -0.0103 -0.6425 -1.2950
  434MOL0     O58463   1.367   1.354   8.907 -0.8285 -0.0731  0.8528
  434MOL0     C58464   1.251   1.432   8.900 -0.4093 -0.0506  0.1542
  434MOL0     C58465   1.124   1.341   8.910  0.0100 -0.3341 -0.3186
  434MOL0     C58466   1.141   1.200   8.854  0.9744  0.6309  0.6619
  434MOL0     C58467   1.005   1.121   8.845  0.4530  0.5534  0.4506
  434MOL0     C58468   0.966   1.050   8.968  0.1577  0.2838 -0.1292
  434MOL0     C58469   0.829   0.998   8.973 -0.2989  0.2189 -0.1400
  434MOL0     C58470   0.821   0.875   8.889 -0.4305  0.8409  0.3370
  434MOL0     C58471   0.672   0.843   8.864  0.7519  0.4362  1.1526
  434MOL0     N58472   0.610   0.769   8.975  0.6727 -1.0113 -0.3759
  434MOL0     C58473   0.584   0.809   9.102 -0.0667 -1.0375 -0.0944
  434MOL0     C58474   0.522   0.701   9.157 -0.5544  0.2656  0.4058
  434MOL0     C58475   0.477   0.689   9.293 -0.4668  0.1825 -0.4611
  434MOL0     C58476   0.581   0.728   9.406 -0.1826  0.1685 -0.1550
  434MOL0     C58477   0.709   0.643   9.382  0.8858 -0.7103  0.9438
  434MOL0     C58478   0.827   0.712   9.318  0.5186  0.0155  0.0310
  434MOL0     O58479   0.944   0.628   9.337  0.0320 -0.1967 -0.7161
  434MOL0     C58480   1.067   0.691   9.327  0.2758 -0.1913  0.1497
  434MOL0     C58481   1.164   0.647   9.409  0.5276  0.5623 -0.4904
  434MOL0     C58482   1.277   0.726   9.436 -0.3382  0.5990  0.4265
  434MOL0     C58483   1.305   0.844   9.368 -0.7944 -0.0436  0.0619
  434MOL0     C58484   1.425   0.935   9.385  0.9308 -0.1353  0.4003
  434MOL0     O58485   1.425   1.043   9.304 -0.1078  0.3175  0.8261
  434MOL0     C58486   1.510   1.143   9.332  0.7680  0.0594  0.8332
  434MOL0     C58487   1.529   1.231   9.224  0.0252 -0.1401  0.4822
  434MOL0     C58488   1.609   1.340   9.242 -1.3667 -0.6795  0.2230
  434MOL0     C58489   1.650   1.391   9.365 -0.6526 -0.0746  0.0730
  434MOL0     O58490   1.708   1.510   9.369 -0.3848 -0.4264 -0.6896
  434MOL0     C58491   1.703   1.595   9.485  0.4531  0.8636 -0.4519
  434MOL0     C58492   1.560   1.645   9.502 -1.2461  0.2078 -0.3914
  434MOL0     C58493   1.557   1.750   9.610  0.7246 -0.6611  0.0425
  434MOL0     C58494   1.413   1.779   9.648  0.0353  0.7431  0.3383
  434MOL0     C58495   1.401   1.912   9.709  0.1140 -0.0704 -0.0902
  434MOL0     C58496   1.249   1.928   9.741 -0.3791 -0.3189 -0.1563
  434MOL0     C58497   1.196   2.074   9.754  0.1098  0.1231  0.5341
  434MOL0     C58498   1.298   2.173   9.825  0.5808  0.5336  0.0108
  434MOL0    Cl58499   1.318   2.121  10.000  0.0998  0.1571 -0.4513
  434MOL0     C58500   1.629   1.309   9.479 -0.5384 -0.1082  0.2322
  434MOL0     C58501   1.559   1.188   9.462  0.8719 -0.2202  0.4174
  434MOL0     O58502   1.513   0.900   9.460 -0.1962  0.2573  0.8107
  434MOL0     C58503   1.215   0.873   9.263  0.2581  0.5707  0.4102
  434MOL0     C58504   1.096   0.803   9.240  0.4961 -0.2134  0.1505
  434MOL0     N58505   0.516   0.595   9.064 -0.7022 -0.6658 -0.8469
  434MOL0     N58506   0.557   0.643   8.954 -0.2423  0.9694  0.2477
  434MOL0     C58507   1.602   1.336   8.887 -0.0739  0.9143 -0.1944
  434MOL0     C58508   1.731   1.387   8.907 -0.8632 -0.2887 -0.0347
  434MOL0     C58509   2.086   1.602   9.002 -0.4128  0.1904 -0.6376
  434MOL0     C58510   2.212   1.581   8.940 -0.6764  1.0180  0.0867
  434MOL0     C58511   2.320   1.584   9.016  0.3706 -0.0576 -0.8700
  434MOL0     C58512   2.313   1.625   9.150  0.0259  0.1279 -0.6330
  434MOL0     O58513   2.437   1.638   9.213 -0.7445 -0.2781  0.3061
  434MOL0     C58514   2.428   1.628   9.356 -1.2907 -0.8199  0.7026
  434MOL0     C58515   2.560   1.575   9.407 -0.6078 -0.4893  0.0138
  434MOL0     C58516   2.597   1.434   9.353  0.6533  0.3774  0.1556
  434MOL0     C58517   2.597   1.336   9.467  0.5105  0.4501 -0.8221
  434MOL0     C58518   2.707   1.361   9.556 -0.7775 -0.4740 -0.4220
  434MOL0     C58519   2.809   1.370   9.627 -0.4830 -0.2203  0.5519
  434MOL0     C58520   2.195   1.662   9.206  1.0051  0.2959 -0.0744
  434MOL0     C58521   2.080   1.653   9.131 -0.5397 -0.1738  0.9088
  434MOL0     C58522   1.947   1.709   9.197  0.2471  0.3371  0.5636
  434MOL0     H58523   1.653   1.686   9.016  0.6655 -1.0023  3.1666
  434MOL0     H58524   1.421   1.602   8.977 -0.9605 -0.8663 -0.3315
  434MOL0     H58525   1.239   1.512   8.974 -0.1660  0.0399  0.1012
  434MOL0     H58526   1.254   1.477   8.800 -1.2826  0.4301  0.3339
  434MOL0     H58527   1.047   1.391   8.851  1.1680 -0.6297 -2.1755
  434MOL0     H58528   1.099   1.341   9.017 -1.7424  2.2542 -0.6181
  434MOL0     H58529   1.212   1.143   8.914  1.4435  1.3109  0.7620
  434MOL0     H58530   1.180   1.191   8.752 -1.3557 -0.0862 -0.2282
  434MOL0     H58531   0.921   1.183   8.815  0.2013 -0.0058 -0.0150
  434MOL0     H58532   1.003   1.046   8.766  0.6608  0.9460  0.0683
  434MOL0     H58533   1.029   0.961   8.984 -2.5649 -1.4778  1.6895
  434MOL0     H58534   0.982   1.101   9.063 -3.1568 -1.9777  1.8486
  434MOL0     H58535   0.807   0.975   9.078 -0.4902  2.0137  0.2424
  434MOL0     H58536   0.767   1.086   8.955  1.8150  1.5259 -1.5216
  434MOL0     H58537   0.864   0.786   8.936 -2.2117  0.3332  1.0726
  434MOL0     H58538   0.856   0.898   8.788 -0.5100  0.9808  0.3409
  434MOL0     H58539   0.608   0.931   8.852  2.0657  1.2982  0.2765
  434MOL0     H58540   0.655   0.791   8.769 -1.5212  2.0293  0.6164
  434MOL0     H58541   0.610   0.907   9.142  3.6182 -1.5387 -0.8244
  434MOL0     H58542   0.388   0.750   9.309 -0.7613 -0.2760 -0.3443
  434MOL0     H58543   0.435   0.589   9.312 -0.2436  0.3135  0.8239
  434MOL0     H58544   0.613   0.832   9.415 -0.5361  0.1704  1.2080
  434MOL0     H58545   0.549   0.711   9.509  0.4799  0.1773  0.0558
  434MOL0     H58546   0.683   0.565   9.310  1.1413 -0.8152  0.9637
  434MOL0     H58547   0.734   0.591   9.474 -1.8096 -2.5669  0.7253
  434MOL0     H58548   0.846   0.800   9.381  1.2227 -1.3900  1.8752
  434MOL0     H58549   0.814   0.744   9.214 -0.2107 -0.5081 -0.0433
  434MOL0     H58550   1.140   0.567   9.478  1.3154  2.0691  1.6455
  434MOL0     H58551   1.312   0.705   9.536  0.9560 -0.7942 -0.2791
  434MOL0     H58552   1.497   1.206   9.124  2.7633 -1.1295 -0.2236
  434MOL0     H58553   1.635   1.402   9.157 -0.2374 -1.7622 -0.2532
  434MOL0     H58554   1.729   1.533   9.572 -1.1960  1.6175  0.6329
  434MOL0     H58555   1.777   1.675   9.482  0.6725  0.7098  0.4441
  434MOL0     H58556   1.529   1.692   9.409  0.9744  1.1859 -0.7030
  434MOL0     H58557   1.494   1.560   9.524  0.7483 -1.0429  1.1421
  434MOL0     H58558   1.602   1.705   9.700  1.7825 -2.4486 -1.3037
  434MOL0     H58559   1.619   1.833   9.576  0.1805 -0.1141  0.3776
  434MOL0     H58560   1.379   1.701   9.717 -0.6383  0.1466 -0.6483
  434MOL0     H58561   1.353   1.760   9.558  1.6338 -3.4554 -0.0870
  434MOL0     H58562   1.427   1.999   9.649 -0.3480 -0.2455 -0.5483
  434MOL0     H58563   1.452   1.916   9.806  0.7257  1.6419 -0.4582
  434MOL0     H58564   1.197   1.890   9.652  1.6062 -1.2884 -0.9415
  434MOL0     H58565   1.216   1.867   9.826  0.4675 -2.0565 -1.0255
  434MOL0     H58566   1.100   2.078   9.806 -0.9416  0.1419 -1.3357
  434MOL0     H58567   1.175   2.113   9.655  3.8248  1.9300  0.3079
  434MOL0     H58568   1.399   2.176   9.784  1.2289  4.7337  1.4068
  434MOL0     H58569   1.255   2.274   9.829 -3.2799 -0.9392  1.4305
  434MOL0     H58570   1.668   1.323   9.579  0.5416 -0.2056 -0.1650
  434MOL0     H58571   1.524   1.128   9.546  0.8017 -2.1013 -0.9066
  434MOL0     H58572   1.232   0.958   9.197 -1.0958  1.9540  1.7482
  434MOL0     H58573   1.030   0.822   9.156 -0.0899  2.5393  1.1282
  434MOL0     H58574   1.599   1.234   8.849  2.0553  1.3037 -1.5832
  434MOL0     H58575   1.820   1.328   8.885 -0.0765  0.7271  0.3543
  434MOL0     H58576   2.231   1.554   8.836 -0.0065 -0.0006  0.4563
  434MOL0     H58577   2.418   1.558   8.976  0.0122 -3.1171 -0.0322
  434MOL0     H58578   2.349   1.554   9.372  0.2282 -3.4784 -2.7925
  434MOL0     H58579   2.395   1.718   9.408 -0.7175 -1.7223  2.7270
  434MOL0     H58580   2.566   1.579   9.516 -0.1474  3.9070 -0.0184
  434MOL0     H58581   2.630   1.648   9.366 -1.5451  0.4336  0.0134
  434MOL0     H58582   2.694   1.436   9.303  0.3936  0.2751 -0.3596
  434MOL0     H58583   2.529   1.392   9.278 -0.1242  1.9679 -0.0851
  434MOL0     H58584   2.509   1.348   9.531  2.6997 -1.3960  2.8538
  434MOL0     H58585   2.613   1.234   9.430 -2.6005 -0.6183  0.4628
  434MOL0     H58586   2.894   1.374   9.693 -0.2800  0.8329  0.2498
  434MOL0     H58587   2.199   1.693   9.310  5.4861  0.8406 -0.2210
  434MOL0     H58588   1.884   1.631   9.240  0.1718  0.2390  0.2744
  434MOL0     H58589   1.967   1.780   9.279 -0.6131  0.6521  0.5092
  434MOL0     H58590   1.882   1.768   9.131  2.4465  0.4549 -1.6654
  435MOL0     O58591   8.286   0.645   8.343  0.3681  0.0865 -0.4444
  435MOL0     C58592   8.289   0.724   8.436  0.5152  0.1391 -0.3507
  435MOL0     O58593   8.204   0.828   8.447 -0.5194 -1.4671  0.9664
  435MOL0     C58594   8.077   0.816   8.396 -0.0170 -0.8516  0.6220
  435MOL0     C58595   8.041   0.909   8.296 -0.2757  0.7700 -0.0582
  435MOL0     C58596   7.911   0.911   8.241 -1.7650 -0.7132  0.4088
  435MOL0     C58597   7.815   0.823   8.284 -0.1492 -0.7290  0.1189
  435MOL0     O58598   7.701   0.832   8.217 -0.2994 -0.7775  0.7931
  435MOL0     C58599   7.660   0.709   8.150  0.9882 -0.1070 -0.8305
  435MOL0     C58600   7.517   0.722   8.074 -0.2866  0.2007  0.2539
  435MOL0     C58601   7.415   0.779   8.155  0.7682  0.2259 -0.8455
  435MOL0     C58602   7.282   0.814   8.085 -0.3146  0.7360 -0.6903
  435MOL0     C58603   7.222   0.691   8.015  0.2849 -0.4753 -0.7598
  435MOL0     C58604   7.106   0.747   7.929 -0.7772 -0.1710 -1.6206
  435MOL0     C58605   7.022   0.642   7.854 -0.8863  0.4796  0.1420
  435MOL0     C58606   7.105   0.578   7.741 -0.4008  0.0893 -0.7799
  435MOL0     N58607   7.212   0.658   7.679 -0.3654 -0.2529 -0.5808
  435MOL0     C58608   7.341   0.642   7.705 -0.5520 -0.3458 -0.2815
  435MOL0     C58609   7.409   0.735   7.627 -0.3179  0.3273  0.5226
  435MOL0     C58610   7.561   0.736   7.595  0.1323 -0.0491  0.1456
  435MOL0     C58611   7.643   0.752   7.718  1.3451 -0.2656 -0.2600
  435MOL0     C58612   7.662   0.889   7.780  0.9922  0.2241  0.3958
  435MOL0     C58613   7.736   0.993   7.705 -0.0804 -0.4548  1.7663
  435MOL0     O58614   7.872   0.958   7.668  0.0409 -0.1720  0.3117
  435MOL0     C58615   7.983   0.982   7.749  0.2693  0.5626  0.2502
  435MOL0     C58616   8.102   1.023   7.693  0.0264  0.1768  0.4632
  435MOL0     C58617   8.211   1.077   7.763 -0.9923  0.5075  0.8498
  435MOL0     C58618   8.218   1.084   7.907 -0.4731  0.3825 -0.9224
  435MOL0     C58619   8.341   1.124   7.984  0.2398  0.9961  0.6894
  435MOL0     O58620   8.341   1.127   8.123  0.0696  0.0356  0.3652
  435MOL0     C58621   8.452   1.159   8.194  0.0741  0.9194 -0.2351
  435MOL0     C58622   8.435   1.196   8.324  0.3891 -0.4739  0.5252
  435MOL0     C58623   8.549   1.214   8.409  0.2809 -0.9225 -0.2703
  435MOL0     C58624   8.683   1.200   8.357  0.6725 -1.0114  0.0528
  435MOL0     O58625   8.800   1.223   8.422  0.7265 -0.3200 -0.1444
  435MOL0     C58626   8.801   1.223   8.567 -1.1756 -0.0184 -0.8543
  435MOL0     C58627   8.959   1.224   8.606 -0.0090  0.6966  0.8833
  435MOL0     C58628   8.977   1.298   8.738 -0.2797  0.1631  0.1619
  435MOL0     C58629   9.128   1.289   8.771 -0.0406 -0.3977  0.8461
  435MOL0     C58630   9.171   1.342   8.908 -0.9962 -0.0036 -0.3383
  435MOL0     C58631   9.285   1.257   8.972  0.5130 -1.1692  0.3781
  435MOL0     C58632   9.424   1.255   8.902  0.4186 -0.5095 -1.2521
  435MOL0     C58633   9.532   1.201   8.998 -0.4004 -0.0246  0.9568
  435MOL0    Cl58634   9.590   1.323   9.107  0.1929 -0.1030 -0.1111
  435MOL0     C58635   8.695   1.153   8.231  0.7873  0.0037  0.1454
  435MOL0     C58636   8.584   1.134   8.155 -0.3321  0.4936  0.3666
  435MOL0     O58637   8.440   1.155   7.915  0.1225  0.1231  0.0862
  435MOL0     C58638   8.091   1.051   7.969 -0.6099  0.2076 -0.0288
  435MOL0     C58639   7.982   1.004   7.894  0.9985  1.2786  0.0981
  435MOL0     N58640   7.317   0.802   7.546 -0.9708 -0.2269 -0.1551
  435MOL0     N58641   7.203   0.761   7.587 -0.5475  0.4679 -0.5127
  435MOL0     C58642   7.856   0.737   8.381  0.3287 -0.7273 -0.3872
  435MOL0     C58643   7.984   0.723   8.439 -1.4659 -0.4151 -0.7521
  435MOL0     C58644   8.421   0.732   8.498  0.8601  0.7278  0.6592
  435MOL0     C58645   8.503   0.823   8.439  0.1066  0.2747  0.8587
  435MOL0     C58646   8.640   0.828   8.463 -0.4108  0.1936  0.0788
  435MOL0     C58647   8.674   0.748   8.578  0.5112 -1.2785  0.0495
  435MOL0     O58648   8.797   0.739   8.640  0.1438  0.4210  0.4427
  435MOL0     C58649   8.912   0.818   8.592  0.2988 -0.1280  0.4559
  435MOL0     C58650   9.057   0.761   8.618  0.0327 -0.4427  0.0794
  435MOL0     C58651   9.129   0.823   8.734  0.0040 -0.3096 -0.6550
  435MOL0     C58652   9.274   0.796   8.721 -0.0844  1.0401 -0.5442
  435MOL0     C58653   9.341   0.820   8.851 -0.4353  0.4743  0.2996
  435MOL0     C58654   9.412   0.850   8.943 -0.6832 -0.3502  0.5277
  435MOL0     C58655   8.587   0.669   8.646 -1.4171  0.0729 -0.4647
  435MOL0     C58656   8.457   0.653   8.604 -0.6457  0.8335  0.5140
  435MOL0     C58657   8.363   0.556   8.667 -0.3173  0.3794 -0.6930
  435MOL0     H58658   8.119   0.973   8.258  0.7158 -0.4373 -0.1283
  435MOL0     H58659   7.887   0.985   8.166  0.5183 -1.4040 -1.1059
  435MOL0     H58660   7.738   0.661   8.090  1.9265  0.4173 -0.0549
  435MOL0     H58661   7.637   0.628   8.220 -4.4860  0.4611 -1.5494
  435MOL0     H58662   7.483   0.633   8.020 -4.5616  1.6867  0.1150
  435MOL0     H58663   7.536   0.788   7.989  1.1018  0.2452  0.5757
  435MOL0     H58664   7.443   0.877   8.195 -0.4267 -0.2857  1.4001
  435MOL0     H58665   7.405   0.716   8.244  2.9273  1.0816  0.0824
  435MOL0     H58666   7.211   0.857   8.156 -0.5920 -1.7940  0.6633
  435MOL0     H58667   7.296   0.895   8.012  3.3374  1.3538  0.4988
  435MOL0     H58668   7.295   0.641   7.951  0.5683 -2.8354  1.2488
  435MOL0     H58669   7.180   0.609   8.075  1.1310 -1.1370 -1.0538
  435MOL0     H58670   7.044   0.800   8.002 -0.9787 -3.1307  0.4979
  435MOL0     H58671   7.153   0.823   7.865  0.4603  0.9379  0.4787
  435MOL0     H58672   6.939   0.694   7.806 -2.0531 -1.1722  0.2859
  435MOL0     H58673   6.988   0.563   7.921  1.1538 -0.8572 -0.3128
  435MOL0     H58674   7.151   0.485   7.776 -0.4800  0.0824 -0.6946
  435MOL0     H58675   7.037   0.549   7.661  2.4338 -2.7887 -2.3574
  435MOL0     H58676   7.387   0.566   7.767 -1.0865  2.0079  3.2990
  435MOL0     H58677   7.594   0.640   7.553 -0.0380  0.4116 -1.0809
  435MOL0     H58678   7.567   0.821   7.527 -1.1274 -0.7420 -0.8773
  435MOL0     H58679   7.610   0.698   7.808 -1.6247  2.5219  0.5360
  435MOL0     H58680   7.742   0.714   7.691  0.8119 -1.8271 -0.1140
  435MOL0     H58681   7.714   0.884   7.876  2.8708 -0.4751 -0.6061
  435MOL0     H58682   7.568   0.938   7.808 -0.7111 -3.9817  2.8717
  435MOL0     H58683   7.739   1.085   7.764  0.7674  1.8531 -1.5832
  435MOL0     H58684   7.686   1.020   7.611  0.1901 -0.4750  1.6178
  435MOL0     H58685   8.109   1.020   7.584  0.0783  0.0224  0.4709
  435MOL0     H58686   8.311   1.088   7.723 -0.2204 -1.4143  2.1231
  435MOL0     H58687   8.338   1.204   8.372  1.1127 -1.4199  2.2212
  435MOL0     H58688   8.519   1.241   8.510 -2.0239 -1.4314 -0.7693
  435MOL0     H58689   8.769   1.322   8.600  2.6088  1.0590  0.0944
  435MOL0     H58690   8.748   1.142   8.619 -0.9376  0.7838  0.7089
  435MOL0     H58691   8.995   1.121   8.610  1.2210  0.7497 -3.5803
  435MOL0     H58692   9.017   1.270   8.525  1.0905 -0.3241  1.0568
  435MOL0     H58693   8.957   1.405   8.738  2.1426  0.7068 -2.2085
  435MOL0     H58694   8.924   1.247   8.819 -1.3744  0.3942 -0.3942
  435MOL0     H58695   9.175   1.343   8.688 -1.3536 -1.3048 -0.5425
  435MOL0     H58696   9.154   1.184   8.752 -1.5281 -0.6978  0.3153
  435MOL0     H58697   9.085   1.337   8.974 -1.4454 -3.2573 -0.9655
  435MOL0     H58698   9.196   1.448   8.907  2.5381 -0.7044  0.4655
  435MOL0     H58699   9.303   1.290   9.075  2.1086  0.3066 -0.3199
  435MOL0     H58700   9.251   1.154   8.981  1.5882 -1.7779 -1.7771
  435MOL0     H58701   9.457   1.358   8.885 -0.3345 -0.3072 -1.5229
  435MOL0     H58702   9.427   1.201   8.806  3.1655 -2.7996 -0.0203
  435MOL0     H58703   9.511   1.106   9.046 -0.5304  1.0257  3.0840
  435MOL0     H58704   9.618   1.184   8.933 -0.1923  1.8025  0.6755
  435MOL0     H58705   8.793   1.141   8.187  0.6139  1.8767 -0.8580
  435MOL0     H58706   8.595   1.089   8.056 -1.5585  0.5276  0.1979
  435MOL0     H58707   8.079   1.069   8.075  0.0069  2.0119 -0.2221
  435MOL0     H58708   7.889   0.991   7.948 -0.7071 -1.0400 -3.0941
  435MOL0     H58709   7.770   0.676   8.407 -1.9767  3.0032  1.5453
  435MOL0     H58710   8.017   0.648   8.510  0.0686  0.2036 -0.7783
  435MOL0     H58711   8.465   0.885   8.359  2.7879  1.8042  0.6362
  435MOL0     H58712   8.708   0.895   8.412 -0.4198  0.6934  0.7100
  435MOL0     H58713   8.902   0.918   8.633  2.5319  0.3441 -0.0198
  435MOL0     H58714   8.892   0.829   8.485  3.9237  4.1630 -0.0672
  435MOL0     H58715   9.117   0.783   8.529  0.6842  0.6030  0.7604
  435MOL0     H58716   9.068   0.654   8.638  1.6301 -0.3294 -0.0066
  435MOL0     H58717   9.088   0.778   8.825 -2.0275  0.3117 -1.2014
  435MOL0     H58718   9.115   0.931   8.741 -0.9009 -0.1155 -3.9264
  435MOL0     H58719   9.293   0.690   8.703  1.4333  1.1677  0.1832
  435MOL0     H58720   9.319   0.854   8.640  0.7205  2.0560  0.5990
  435MOL0     H58721   9.469   0.867   9.032 -3.9045 -3.6641  3.5414
  435MOL0     H58722   8.617   0.619   8.737 -3.3436 -1.2101 -0.4820
  435MOL0     H58723   8.416   0.469   8.707 -1.3355  0.1730  0.2839
  435MOL0     H58724   8.297   0.598   8.744 -0.1736  2.6262 -1.7407
  435MOL0     H58725   8.304   0.510   8.587 -1.4856 -2.2303  1.4964
  436MOL0     O58726   6.189  10.409   4.675  0.1359 -0.0731 -0.0568
  436MOL0     C58727   6.292  10.339   4.690 -0.6276  0.1647  0.4640
  436MOL0     O58728   6.406  10.368   4.767  0.2076  0.2637  0.2102
  436MOL0     C58729   6.408  10.465   4.855  1.3704  0.0611 -0.0313
  436MOL0     C58730   6.318  10.456   4.959  0.1931 -0.6796 -0.2841
  436MOL0     C58731   6.313  10.570   5.052 -0.7520  1.2276  0.1626
  436MOL0     C58732   6.388  10.682   5.030  0.4273  0.9398  0.4576
  436MOL0     O58733   6.373  10.776   5.130 -1.0187 -0.0805  0.0581
  436MOL0     C58734   6.498  10.823   5.175 -0.4516  0.0789 -0.1363
  436MOL0     C58735   6.480  10.899   5.308 -0.3091  0.0561  0.5723
  436MOL0     C58736   6.609  10.952   5.354 -0.3284  0.1034  0.6808
  436MOL0     C58737   6.598  10.946   5.507  0.5479  0.1259  1.0484
  436MOL0     C58738   6.731  10.983   5.575 -0.0434  0.1644  0.2645
  436MOL0     C58739   6.772  11.135   5.596 -0.1831 -1.1585  0.3180
  436MOL0     C58740   6.867  11.189   5.487 -0.0355 -0.5524 -0.0515
  436MOL0     C58741   6.889  11.336   5.502  0.1209  0.4097  0.4608
  436MOL0     N58742   6.944  11.371   5.641  0.4035  0.0874  0.1142
  436MOL0     C58743   7.065  11.318   5.680 -0.2697 -0.4830 -0.0521
  436MOL0     C58744   7.103  11.393   5.785  1.0535 -0.6994 -0.0552
  436MOL0     C58745   7.216  11.353   5.876 -0.2686  0.4578  0.9914
  436MOL0     C58746   7.312  11.464   5.881  0.9871 -0.4478  0.4731
  436MOL0     C58747   7.416  11.426   5.991  0.7288 -0.4871  0.6294
  436MOL0     C58748   7.374  11.436   6.136  0.7353 -1.2148  1.0034
  436MOL0     O58749   7.395  11.574   6.184  0.3092 -0.1576  0.3932
  436MOL0     C58750   7.500  11.616   6.266  0.2284 -0.5336  0.0141
  436MOL0     C58751   7.609  11.526   6.292  0.7532 -1.0375  0.7998
  436MOL0     C58752   7.692  11.549   6.398  0.7907  0.6702 -0.5869
  436MOL0     C58753   7.699  11.678   6.463  0.7291  0.1621 -0.1843
  436MOL0     C58754   7.816  11.715   6.553 -0.0677 -0.0193 -0.6270
  436MOL0     O58755   7.812  11.820   6.639  0.5163 -0.2508 -1.3488
  436MOL0     C58756   7.917  11.824   6.733  0.2958 -0.0339 -0.1540
  436MOL0     C58757   8.029  11.892   6.716  0.2604 -0.4288 -0.1988
  436MOL0     C58758   8.136  11.866   6.803  0.0496 -0.7543  0.4694
  436MOL0     C58759   8.129  11.778   6.904  0.3901  0.0504  0.7455
  436MOL0     O58760   8.245  11.772   6.977 -0.1124 -0.8015  0.1135
  436MOL0     C58761   8.250  11.676   7.074 -0.2391  0.3156 -0.6318
  436MOL0     C58762   8.389  11.686   7.129 -0.9982  0.2887 -0.3313
  436MOL0     C58763   8.411  11.623   7.273 -0.5229  0.1972 -0.1734
  436MOL0     C58764   8.557  11.583   7.299  0.4294  0.0769  0.7446
  436MOL0     C58765   8.577  11.543   7.447  0.3665  0.3490 -0.7449
  436MOL0     C58766   8.725  11.530   7.499 -0.2298  0.0977  0.2261
  436MOL0     C58767   8.752  11.484   7.640  0.5628  0.4664  0.0820
  436MOL0     C58768   8.674  11.381   7.705  0.5109  1.0535  0.0180
  436MOL0    Cl58769   8.725  11.344   7.871  0.3133  0.1188 -0.1321
  436MOL0     C58770   8.016  11.705   6.913  0.7983  0.4565 -1.4098
  436MOL0     C58771   7.902  11.739   6.843 -0.6171  0.0972 -0.0591
  436MOL0     O58772   7.909  11.635   6.533 -0.4413 -0.5642  0.6751
  436MOL0     C58773   7.602  11.777   6.432  0.1317  0.5669  0.3169
  436MOL0     C58774   7.499  11.744   6.342  0.2055  0.2918 -0.8428
  436MOL0     N58775   6.999  11.480   5.809 -0.4191 -0.2647 -0.3292
  436MOL0     N58776   6.912  11.476   5.718 -0.0369  0.1721  0.1523
  436MOL0     C58777   6.475  10.684   4.917 -0.0603 -0.8547 -0.6679
  436MOL0     C58778   6.490  10.577   4.837  0.2231  0.5245 -0.5664
  436MOL0     C58779   6.295  10.212   4.625  0.4233  0.4644 -0.0118
  436MOL0     C58780   6.422  10.149   4.620 -0.6870  0.5036  0.7213
  436MOL0     C58781   6.443  10.026   4.571  0.6090  0.2062  0.2741
  436MOL0     C58782   6.345   9.963   4.498 -0.4227  0.4326  0.1126
  436MOL0     O58783   6.379   9.847   4.438  1.0665 -0.2552 -0.3393
  436MOL0     C58784   6.408   9.736   4.515 -0.0149 -0.1187  0.0379
  436MOL0     C58785   6.514   9.645   4.445  1.0182 -0.3616 -0.2741
  436MOL0     C58786   6.450   9.561   4.337  0.3853 -0.0440  0.2346
  436MOL0     C58787   6.424   9.648   4.210  0.3123  0.9140 -0.5118
  436MOL0     C58788   6.536   9.643   4.116 -1.1585  0.2171 -1.1376
  436MOL0     C58789   6.637   9.633   4.046 -1.3848 -0.3406 -0.1068
  436MOL0     C58790   6.212  10.013   4.502  0.2173  0.0692 -0.6489
  436MOL0     C58791   6.190  10.137   4.570 -0.3883  0.0502 -0.8475
  436MOL0     C58792   6.041  10.191   4.574  0.9561 -0.3283  0.4820
  436MOL0     H58793   6.250  10.372   4.960  1.5908 -1.8484 -0.1233
  436MOL0     H58794   6.235  10.570   5.128 -0.7033  0.8650  0.2153
  436MOL0     H58795   6.566  10.740   5.197 -0.4378  0.8154  2.9617
  436MOL0     H58796   6.539  10.885   5.094  0.1650  1.6765  1.3464
  436MOL0     H58797   6.428  10.836   5.381 -0.3693  1.4223  1.7483
  436MOL0     H58798   6.414  10.982   5.280 -3.0802 -1.8382  1.0679
  436MOL0     H58799   6.623  11.052   5.310  4.4123  1.2731  3.9779
  436MOL0     H58800   6.691  10.884   5.328 -0.7172 -0.4580  0.9155
  436MOL0     H58801   6.522  11.010   5.553 -0.8498 -1.6646  1.3683
  436MOL0     H58802   6.586  10.842   5.542  1.1094  1.0593  4.3680
  436MOL0     H58803   6.728  10.929   5.670  0.2355 -0.4285 -0.0612
  436MOL0     H58804   6.817  10.930   5.531 -0.5708  2.2772 -3.7890
  436MOL0     H58805   6.694  11.209   5.615 -1.3764 -2.1895 -0.3838
  436MOL0     H58806   6.831  11.129   5.689  0.7735 -1.4345 -0.2924
  436MOL0     H58807   6.820  11.173   5.390 -1.2318 -2.7689  0.8324
  436MOL0     H58808   6.954  11.125   5.472  1.3305  1.7199 -2.7937
  436MOL0     H58809   6.961  11.358   5.422  2.7355 -0.3282  2.4674
  436MOL0     H58810   6.799  11.397   5.489 -1.0006  0.1505  5.3212
  436MOL0     H58811   7.131  11.240   5.642  4.0013  2.4834  0.4536
  436MOL0     H58812   7.177  11.334   5.977  2.2789 -0.6273  1.8436
  436MOL0     H58813   7.259  11.256   5.848 -0.9830  0.0799  1.1695
  436MOL0     H58814   7.373  11.479   5.792  0.6630  2.4307  0.6277
  436MOL0     H58815   7.272  11.565   5.899 -0.3992 -0.2867 -2.7780
  436MOL0     H58816   7.495  11.495   5.961 -1.2379  0.7808 -2.0415
  436MOL0     H58817   7.457  11.327   5.968  1.2402  0.2483 -2.0288
  436MOL0     H58818   7.425  11.364   6.201 -1.3252 -3.3609  0.3834
  436MOL0     H58819   7.271  11.399   6.140  0.1938  0.1103  0.0239
  436MOL0     H58820   7.617  11.434   6.235 -1.0530 -0.6806 -0.0958
  436MOL0     H58821   7.758  11.465   6.419 -2.3224 -1.9343 -0.3664
  436MOL0     H58822   8.055  11.951   6.629  1.6033  0.6495  0.8751
  436MOL0     H58823   8.224  11.923   6.776 -0.3293 -1.2583 -2.1027
  436MOL0     H58824   8.175  11.702   7.149  2.5600  1.4551  1.9985
  436MOL0     H58825   8.228  11.579   7.029 -1.8528  0.9040 -1.1686
  436MOL0     H58826   8.459  11.628   7.068  0.1998  0.7650  0.5404
  436MOL0     H58827   8.423  11.790   7.126 -0.5352  0.1637  0.3177
  436MOL0     H58828   8.387  11.707   7.339  1.7963  2.1875 -1.7318
  436MOL0     H58829   8.330  11.551   7.293 -2.8948  2.3022 -1.5395
  436MOL0     H58830   8.629  11.656   7.260 -1.1042  0.3471 -1.7528
  436MOL0     H58831   8.584  11.494   7.242  3.1518  1.2998 -0.0562
  436MOL0     H58832   8.527  11.450   7.474  1.8164 -0.2267  0.0954
  436MOL0     H58833   8.530  11.621   7.508 -3.3555 -1.1343 -1.4610
  436MOL0     H58834   8.770  11.448   7.442 -1.2517 -0.9996  0.9388
  436MOL0     H58835   8.782  11.622   7.486 -0.5406  0.0316 -2.0780
  436MOL0     H58836   8.755  11.575   7.701  0.9914 -0.7232  1.9270
  436MOL0     H58837   8.852  11.441   7.641  2.3584  4.2037 -0.3220
  436MOL0     H58838   8.566  11.402   7.707 -0.6726 -3.6863  2.9871
  436MOL0     H58839   8.680  11.287   7.651 -1.6515  1.7208 -1.5430
  436MOL0     H58840   8.008  11.615   6.973  1.8480 -0.6648 -2.8670
  436MOL0     H58841   7.810  11.683   6.855 -0.5888 -0.3237 -1.5700
  436MOL0     H58842   7.614  11.875   6.476 -0.9247  1.1342 -0.6001
  436MOL0     H58843   7.409  11.805   6.339 -0.9112 -1.1907  0.7203
  436MOL0     H58844   6.525  10.779   4.898 -1.4591 -0.2024 -1.2715
  436MOL0     H58845   6.558  10.581   4.752  0.5124 -1.7075 -0.5000
  436MOL0     H58846   6.516  10.192   4.655 -0.3515  0.1849  0.2173
  436MOL0     H58847   6.541   9.986   4.592  1.2096  1.8664  0.6954
  436MOL0     H58848   6.313   9.683   4.522 -1.4027  1.9696 -1.6753
  436MOL0     H58849   6.452   9.771   4.609 -0.2103 -1.9860  0.8729
  436MOL0     H58850   6.553   9.577   4.521 -1.3527 -2.0542 -0.4623
  436MOL0     H58851   6.594   9.705   4.401 -0.3380 -0.5265 -3.1592
  436MOL0     H58852   6.351   9.541   4.379 -0.8778 -0.3040 -2.6499
  436MOL0     H58853   6.508   9.475   4.305  4.9366  2.7583  0.1031
  436MOL0     H58854   6.330   9.619   4.163  1.3725 -6.2498  0.6695
  436MOL0     H58855   6.411   9.755   4.229 -0.2554  0.8387 -0.4632
  436MOL0     H58856   6.736   9.610   4.013 -1.3147 -1.2723  0.6760
  436MOL0     H58857   6.120   9.964   4.474  0.1849 -0.3129  0.0760
  436MOL0     H58858   5.956  10.128   4.548  0.3641  0.0320  1.4512
  436MOL0     H58859   6.013  10.215   4.677  0.1337 -2.6511  0.8553
  436MOL0     H58860   6.029  10.277   4.507 -0.2740 -1.3100 -0.5923
  437MOL0     O58861  11.255   7.774  11.170 -0.0862  0.2308 -0.5090
  437MOL0     C58862  11.339   7.688  11.177 -0.3393  0.0208 -0.3236
  437MOL0     O58863  11.453   7.679  11.097 -0.6757  0.4172  0.0850
  437MOL0     C58864  11.470   7.778  11.007  0.2791 -1.1055  0.6280
  437MOL0     C58865  11.530   7.906  11.040 -0.0378 -0.2967  0.0019
  437MOL0     C58866  11.543   8.003  10.938  0.4633  0.5771  0.2020
  437MOL0     C58867  11.511   7.981  10.804  1.2909 -0.2076 -0.0585
  437MOL0     O58868  11.517   8.085  10.712 -0.2029  1.1399  0.2431
  437MOL0     C58869  11.628   8.168  10.716 -0.2828 -0.3157  0.2452
  437MOL0     C58870  11.678   8.208  10.569 -0.0186 -0.7969 -0.7911
  437MOL0     C58871  11.559   8.242  10.474 -0.5287  0.7056 -0.4680
  437MOL0     C58872  11.605   8.282  10.330 -0.4745  0.5856 -0.4058
  437MOL0     C58873  11.515   8.256  10.217  1.2364  0.4501 -0.1382
  437MOL0     C58874  11.563   8.309  10.076 -0.7248  0.5873 -0.4068
  437MOL0     C58875  11.451   8.287   9.974 -0.2495 -0.2414  0.4981
  437MOL0     C58876  11.507   8.273   9.830  0.4585 -0.3614  0.1088
  437MOL0     N58877  11.579   8.387   9.781  0.3854 -0.7520  0.3690
  437MOL0     C58878  11.515   8.501   9.736 -0.0362 -1.2838 -0.3336
  437MOL0     C58879  11.612   8.561   9.660  0.6550 -0.5885  0.0222
  437MOL0     C58880  11.610   8.685   9.570  0.5934 -0.4930 -0.1474
  437MOL0     C58881  11.583   8.652   9.424 -0.6205 -0.4367 -0.4801
  437MOL0     C58882  11.575   8.776   9.338 -0.8589 -0.6002 -0.3370
  437MOL0     C58883  11.683   8.889   9.370  0.4208 -1.0143 -0.0906
  437MOL0     O58884  11.691   8.979   9.264  0.0965 -0.7142  0.2667
  437MOL0     C58885  11.770   9.092   9.278  0.4977  0.4706  0.6600
  437MOL0     C58886  11.710   9.202   9.211 -0.0819  0.1259 -0.2026
  437MOL0     C58887  11.772   9.327   9.227 -0.3054 -0.4103 -0.4410
  437MOL0     C58888  11.894   9.345   9.294  0.5603 -0.2749  0.4037
  437MOL0     C58889  11.973   9.470   9.293 -0.1232  0.2508 -0.1206
  437MOL0     O58890  11.919   9.560   9.212  0.1309 -0.3423  0.6018
  437MOL0     C58891  11.976   9.674   9.166 -0.2999 -0.2065 -0.0685
  437MOL0     C58892  11.903   9.746   9.075 -0.1409 -0.1206  0.7803
  437MOL0     C58893  11.948   9.870   9.020 -0.1784 -0.2553 -0.2797
  437MOL0     C58894  12.070   9.925   9.060 -0.2424 -0.4086 -0.2595
  437MOL0     O58895  12.112  10.053   9.021  0.1053 -0.3990  0.6183
  437MOL0     C58896  12.017  10.159   8.995 -0.7942 -0.8877  0.2045
  437MOL0     C58897  11.936  10.200   9.118 -0.1045 -0.8219  0.1168
  437MOL0     C58898  11.872  10.343   9.096 -0.8076  0.2245 -0.2999
  437MOL0     C58899  11.750  10.351   9.188  0.7149  0.3871  0.1772
  437MOL0     C58900  11.658  10.476   9.160 -0.6982 -0.0472  0.3435
  437MOL0     C58901  11.547  10.448   9.065  0.2923  0.2980  0.0823
  437MOL0     C58902  11.477  10.580   9.025  0.2096  0.1527 -0.2666
  437MOL0     C58903  11.391  10.627   9.146  0.6865  0.6608  0.8873
  437MOL0    Cl58904  11.250  10.529   9.166 -0.6164 -0.2624  0.2320
  437MOL0     C58905  12.149   9.849   9.145  0.5430  0.9347 -0.4350
  437MOL0     C58906  12.098   9.727   9.204  0.4196 -0.0423 -0.3870
  437MOL0     O58907  12.083   9.481   9.350  0.3827  0.3004 -0.1208
  437MOL0     C58908  11.941   9.235   9.355 -0.4846  0.9832  0.7188
  437MOL0     C58909  11.878   9.105   9.345 -0.6059 -0.3362 -0.9625
  437MOL0     N58910  11.728   8.495   9.688 -0.9291  0.4694  0.5286
  437MOL0     N58911  11.705   8.389   9.760 -0.3171 -0.8564  0.0609
  437MOL0     C58912  11.462   7.855  10.768  0.6252  1.3814  0.5602
  437MOL0     C58913  11.441   7.752  10.870 -0.5468 -0.0958 -0.6117
  437MOL0     C58914  11.310   7.568  11.266  0.3662 -0.0663  0.3405
  437MOL0     C58915  11.364   7.448  11.229  0.0019 -0.2746 -0.4884
  437MOL0     C58916  11.352   7.326  11.303 -0.5114 -0.1555  0.0370
  437MOL0     C58917  11.286   7.332  11.424  0.9600 -0.6577  0.4696
  437MOL0     O58918  11.261   7.212  11.491 -0.4175 -0.0816 -0.2358
  437MOL0     C58919  11.180   7.205  11.607  0.0502 -0.5051 -0.2841
  437MOL0     C58920  11.034   7.174  11.568 -1.1232  0.6466  0.6603
  437MOL0     C58921  11.005   7.060  11.467  0.5337  0.1436  0.1277
  437MOL0     C58922  11.029   6.909  11.521 -0.1707 -0.6403 -0.7899
  437MOL0     C58923  10.995   6.808  11.426 -0.5807  0.0540 -0.4947
  437MOL0     C58924  10.966   6.742  11.326  1.1046  0.1527  0.3469
  437MOL0     C58925  11.234   7.453  11.464  0.0057  0.0149 -0.2421
  437MOL0     C58926  11.244   7.572  11.394 -0.3354 -0.8173 -0.0966
  437MOL0     C58927  11.198   7.708  11.466 -0.4037 -0.1769  1.0365
  437MOL0     H58928  11.567   7.923  11.140  2.6722  1.6446 -1.2257
  437MOL0     H58929  11.582   8.101  10.966 -0.6437  1.9467 -2.6521
  437MOL0     H58930  11.608   8.260  10.771 -0.2473  1.2075 -2.1489
  437MOL0     H58931  11.709   8.119  10.771 -0.3343 -2.0590 -1.1376
  437MOL0     H58932  11.753   8.141  10.525  3.0580  1.6536  0.3129
  437MOL0     H58933  11.731   8.302  10.588  0.0498 -1.1341  0.8540
  437MOL0     H58934  11.493   8.325  10.500 -5.6799 -2.7232 -1.1726
  437MOL0     H58935  11.494   8.154  10.475  1.0347 -0.5635  2.1420
  437MOL0     H58936  11.619   8.391  10.333 -1.2168  0.7229 -1.3870
  437MOL0     H58937  11.705   8.245  10.304 -0.6760 -3.1221  3.0690
  437MOL0     H58938  11.507   8.148  10.205  3.7961  0.3282 -1.5773
  437MOL0     H58939  11.423   8.310  10.241  2.8684  2.6888  1.4823
  437MOL0     H58940  11.604   8.411  10.082 -3.0078  1.4786  1.1282
  437MOL0     H58941  11.648   8.242  10.058  2.4850  3.8215  1.3041
  437MOL0     H58942  11.365   8.354   9.978 -0.6997 -0.8288  0.9443
  437MOL0     H58943  11.400   8.191   9.991 -1.7904  0.6160  0.9319
  437MOL0     H58944  11.579   8.192   9.818 -0.8688 -1.2735 -2.8218
  437MOL0     H58945  11.431   8.255   9.753 -0.3757 -2.0888  1.2560
  437MOL0     H58946  11.417   8.546   9.746 -0.3113 -2.4701  4.2037
  437MOL0     H58947  11.534   8.761   9.593  3.5881  2.9921 -0.8978
  437MOL0     H58948  11.698   8.747   9.587  0.2382  2.0929 -5.4569
  437MOL0     H58949  11.669   8.590   9.396  0.8182  1.7690 -1.1524
  437MOL0     H58950  11.494   8.594   9.398 -0.3503 -1.1819  0.2006
  437MOL0     H58951  11.476   8.821   9.327 -0.5000 -0.1589 -2.0231
  437MOL0     H58952  11.588   8.742   9.235 -1.0506  1.1325 -0.9726
  437MOL0     H58953  11.785   8.850   9.382  0.1341 -2.2703 -1.4626
  437MOL0     H58954  11.657   8.938   9.464 -1.7904  1.2865 -1.7607
  437MOL0     H58955  11.620   9.191   9.151 -1.9266  3.1904  1.6908
  437MOL0     H58956  11.739   9.410   9.166 -2.6772 -2.5545 -2.2314
  437MOL0     H58957  11.812   9.704   9.035 -0.6383  0.0492  1.7049
  437MOL0     H58958  11.886   9.923   8.949 -1.2610  1.5247  1.8441
  437MOL0     H58959  12.073  10.248   8.964  2.0359 -1.7702  2.2589
  437MOL0     H58960  11.944  10.140   8.916 -2.5011  2.2645  0.8711
  437MOL0     H58961  11.868  10.117   9.139  1.4484 -2.6155 -1.4996
  437MOL0     H58962  12.005  10.206   9.203  2.0955 -0.4174 -1.6019
  437MOL0     H58963  11.941  10.423   9.123 -2.7518  2.0508 -0.5496
  437MOL0     H58964  11.828  10.351   8.996 -1.8204 -3.0559 -0.2563
  437MOL0     H58965  11.782  10.352   9.292 -1.2215 -1.2206  0.8543
  437MOL0     H58966  11.692  10.260   9.173  1.1662 -0.1436  1.5730
  437MOL0     H58967  11.724  10.544   9.106  0.3162 -0.4866  1.0121
  437MOL0     H58968  11.628  10.517   9.257  1.9100  0.5885  0.9628
  437MOL0     H58969  11.583  10.400   8.974 -1.7327 -0.2978 -0.4615
  437MOL0     H58970  11.470  10.383   9.109 -1.8024  2.6197  0.1022
  437MOL0     H58971  11.416  10.561   8.937 -0.7523  0.5892  0.2931
  437MOL0     H58972  11.551  10.652   8.991 -1.4931  1.8195 -0.5559
  437MOL0     H58973  11.448  10.636   9.239  1.7378  0.5261  0.2700
  437MOL0     H58974  11.349  10.726   9.122  2.5156  1.4756  0.8907
  437MOL0     H58975  12.251   9.881   9.166  0.6032  1.0940 -0.9402
  437MOL0     H58976  12.156   9.684   9.285 -2.3214 -3.4137  0.0445
  437MOL0     H58977  12.030   9.247   9.417  2.0707  5.0380 -3.1638
  437MOL0     H58978  11.931   9.020   9.388  1.0609  1.1762  0.1434
  437MOL0     H58979  11.432   7.832  10.667 -1.5274 -5.1792  2.2331
  437MOL0     H58980  11.392   7.658  10.846 -0.2826  0.2738 -2.8081
  437MOL0     H58981  11.431   7.442  11.144  0.0301 -1.4785 -0.4099
  437MOL0     H58982  11.405   7.236  11.275  0.1881  0.6070 -1.1426
  437MOL0     H58983  11.180   7.298  11.665 -0.3253 -0.7808  0.1573
  437MOL0     H58984  11.205   7.118  11.669 -4.7256 -2.3688 -0.5543
  437MOL0     H58985  10.992   7.270  11.534  1.8122  3.2071  3.5858
  437MOL0     H58986  10.977   7.148  11.657  0.0389  0.4337  1.3546
  437MOL0     H58987  11.070   7.070  11.380 -0.2616 -0.3381 -0.5365
  437MOL0     H58988  10.901   7.073  11.434 -0.2437  3.8592  3.3111
  437MOL0     H58989  11.135   6.894  11.540 -0.2919 -2.2367 -1.2534
  437MOL0     H58990  10.986   6.879  11.617 -2.7509 -1.7561 -2.1869
  437MOL0     H58991  10.949   6.705  11.227  2.0984  0.9880 -0.1543
  437MOL0     H58992  11.191   7.469  11.562  1.1176 -2.4719  0.7277
  437MOL0     H58993  11.156   7.775  11.391  0.2913  0.0057  0.8072
  437MOL0     H58994  11.129   7.679  11.546  1.1860 -1.2507  2.0637
  437MOL0     H58995  11.284   7.761  11.508 -0.0243  0.0797 -0.0412
  438MOL0     O58996   9.562   3.456   5.640  0.0971 -0.1347  0.6335
  438MOL0     C58997   9.450   3.480   5.592 -0.4876  0.4967 -1.1456
  438MOL0     O58998   9.367   3.385   5.539 -0.1842 -0.3945 -0.3893
  438MOL0     C58999   9.412   3.255   5.543 -0.2940 -0.4548  0.1032
  438MOL0     C59000   9.500   3.205   5.449 -1.0417  0.1672 -1.0930
  438MOL0     C59001   9.523   3.071   5.442 -0.5924  0.3567 -0.4604
  438MOL0     C59002   9.461   2.987   5.533 -0.0182  0.3629 -0.5509
  438MOL0     O59003   9.487   2.853   5.528 -0.0619 -0.2181  0.9383
  438MOL0     C59004   9.440   2.766   5.629  0.1328 -0.2005 -0.6840
  438MOL0     C59005   9.522   2.647   5.636  0.5937  0.9936 -0.6882
  438MOL0     C59006   9.656   2.650   5.724  0.0908 -0.7290 -0.1850
  438MOL0     C59007   9.752   2.545   5.681  1.0292 -0.8126 -0.2353
  438MOL0     C59008   9.865   2.538   5.779  0.6733 -0.9609  0.3143
  438MOL0     C59009   9.974   2.443   5.730  0.0862  0.3262  0.4099
  438MOL0     C59010  10.105   2.451   5.809  0.7349  0.9846  0.0335
  438MOL0     C59011  10.196   2.336   5.769  0.0148 -1.5529  0.7071
  438MOL0     N59012  10.324   2.331   5.850 -0.4187 -0.6628  0.0613
  438MOL0     C59013  10.447   2.284   5.796 -0.0840 -0.4405 -0.2651
  438MOL0     C59014  10.540   2.306   5.898 -0.6034 -0.5842  0.6845
  438MOL0     C59015  10.675   2.256   5.895 -0.3047  1.2164 -0.7703
  438MOL0     C59016  10.785   2.349   5.947 -0.8010 -0.2170  0.1082
  438MOL0     C59017  10.775   2.469   5.858 -0.6856 -0.5954  0.3049
  438MOL0     C59018  10.848   2.587   5.916 -1.0934 -0.0391 -0.2553
  438MOL0     O59019  10.977   2.544   5.947  0.3793 -0.1891 -0.3964
  438MOL0     C59020  11.080   2.592   5.873  0.1655 -0.6092 -0.1148
  438MOL0     C59021  11.205   2.571   5.933 -0.2703 -0.5899 -0.2021
  438MOL0     C59022  11.323   2.593   5.870  0.3104  0.8141  0.0263
  438MOL0     C59023  11.312   2.645   5.738  0.4879  0.4202 -1.4644
  438MOL0     C59024  11.433   2.675   5.658  0.3286 -0.2856 -0.5888
  438MOL0     O59025  11.420   2.764   5.555 -0.0428 -0.0555  0.2067
  438MOL0     C59026  11.523   2.792   5.469  0.2074 -0.0772  0.0132
  438MOL0     C59027  11.515   2.766   5.334  0.3680  0.9169  0.0182
  438MOL0     C59028  11.622   2.793   5.249  0.8084 -0.5503 -0.2546
  438MOL0     C59029  11.749   2.827   5.296  0.9038  0.5082  0.1430
  438MOL0     O59030  11.855   2.818   5.217  0.1578  0.1712 -0.8617
  438MOL0     C59031  11.899   2.953   5.191 -0.1953  0.3364  0.0489
  438MOL0     C59032  11.970   2.961   5.051 -0.1041  0.2630  0.4915
  438MOL0     C59033  12.119   2.940   5.071 -0.2210 -0.0755  0.7371
  438MOL0     C59034  12.189   2.957   4.939  0.5926  0.0418  0.2756
  438MOL0     C59035  12.344   2.945   4.966 -0.2590 -0.2729  0.5829
  438MOL0     C59036  12.423   2.956   4.829  0.0420  0.0733 -0.5181
  438MOL0     C59037  12.563   2.883   4.846 -0.6460 -0.7670 -0.6694
  438MOL0     C59038  12.638   2.886   4.713  0.9810 -0.4028 -0.4211
  438MOL0    Cl59039  12.797   2.802   4.726  0.3033  0.1257 -0.1738
  438MOL0     C59040  11.761   2.858   5.436  0.0474  0.2815  0.8425
  438MOL0     C59041  11.645   2.845   5.519  0.3980  0.3317  0.2921
  438MOL0     O59042  11.536   2.621   5.693  0.0903  0.2241 -0.1473
  438MOL0     C59043  11.188   2.677   5.680 -0.0262  0.0510 -0.2427
  438MOL0     C59044  11.070   2.647   5.741  0.1274  0.6908 -0.0575
  438MOL0     N59045  10.469   2.355   6.007  0.3009 -0.3115  0.6627
  438MOL0     N59046  10.338   2.357   5.979 -0.6298 -0.5555  0.2842
  438MOL0     C59047   9.374   3.037   5.624  0.7882  0.8321 -0.1280
  438MOL0     C59048   9.338   3.171   5.620  0.0065  0.7791  0.9087
  438MOL0     C59049   9.390   3.618   5.619 -0.8436  0.3517  0.4417
  438MOL0     C59050   9.461   3.727   5.572  0.0645  0.6999  0.7076
  438MOL0     C59051   9.409   3.850   5.593  0.7801 -0.0150 -0.0785
  438MOL0     C59052   9.284   3.877   5.650  0.3536  0.3806  0.0782
  438MOL0     O59053   9.229   4.000   5.656  0.5949 -0.1930  0.7652
  438MOL0     C59054   9.258   4.080   5.543  0.1582 -0.4291 -0.3096
  438MOL0     C59055   9.135   4.170   5.524  0.5659  0.0609  0.5803
  438MOL0     C59056   9.111   4.277   5.636 -0.9129  0.0609 -0.0365
  438MOL0     C59057   8.966   4.329   5.662 -0.6393 -0.4046  1.3241
  438MOL0     C59058   8.908   4.414   5.558  0.8216 -0.9077  0.3278
  438MOL0     C59059   8.868   4.494   5.474  0.3613  1.0750 -0.8471
  438MOL0     C59060   9.218   3.766   5.710  0.4043  0.9606  0.1009
  438MOL0     C59061   9.270   3.636   5.696 -0.0546 -0.2896  0.2651
  438MOL0     C59062   9.191   3.529   5.770  0.4317 -0.0043 -0.3676
  438MOL0     H59063   9.553   3.276   5.387 -2.3704  0.9660 -1.3417
  438MOL0     H59064   9.593   3.033   5.368 -2.0927 -0.1993 -1.6266
  438MOL0     H59065   9.446   2.810   5.729 -0.4227 -2.2065  0.2677
  438MOL0     H59066   9.340   2.741   5.592  1.3955 -0.0795 -4.6906
  438MOL0     H59067   9.558   2.625   5.535  1.0335  1.4478 -0.6304
  438MOL0     H59068   9.450   2.570   5.665 -0.0191  0.1806 -3.9103
  438MOL0     H59069   9.615   2.631   5.824 -3.7382 -3.0899 -1.9722
  438MOL0     H59070   9.707   2.745   5.709 -0.3989 -0.3177  0.6902
  438MOL0     H59071   9.695   2.451   5.680  0.7492 -0.7300  1.9635
  438MOL0     H59072   9.798   2.566   5.584  1.1015 -3.7444 -0.9506
  438MOL0     H59073   9.904   2.639   5.796 -2.1903 -0.1985  3.2451
  438MOL0     H59074   9.828   2.505   5.876  0.7395  0.3861  0.8231
  438MOL0     H59075   9.934   2.343   5.750  1.9356 -0.4005  0.6071
  438MOL0     H59076   9.979   2.447   5.621  0.0330 -1.5542  0.3029
  438MOL0     H59077  10.076   2.444   5.914 -0.3821  0.1123 -0.3123
  438MOL0     H59078  10.159   2.546   5.803 -2.1399  2.6777 -1.4888
  438MOL0     H59079  10.141   2.244   5.789 -1.4942 -0.3401  2.4800
  438MOL0     H59080  10.219   2.338   5.662  1.9193 -0.1556  1.0936
  438MOL0     H59081  10.457   2.242   5.697  1.9531 -1.1183  0.1864
  438MOL0     H59082  10.683   2.160   5.946 -1.0660  1.3801 -0.3183
  438MOL0     H59083  10.719   2.239   5.797  4.5360 -2.4593  1.5989
  438MOL0     H59084  10.760   2.382   6.048 -0.9555 -1.2905  0.4351
  438MOL0     H59085  10.886   2.307   5.941 -0.0804  0.9505  2.7077
  438MOL0     H59086  10.669   2.494   5.853 -0.7770 -0.5731  1.8889
  438MOL0     H59087  10.817   2.441   5.760  2.4857 -4.0921  2.3693
  438MOL0     H59088  10.815   2.623   6.014 -0.4473 -1.4094  0.4978
  438MOL0     H59089  10.841   2.680   5.860  0.8177  1.3918  1.6844
  438MOL0     H59090  11.215   2.530   6.033 -0.9524 -1.8283 -0.6104
  438MOL0     H59091  11.421   2.588   5.917  1.0272 -0.0874 -1.4654
  438MOL0     H59092  11.423   2.738   5.284  0.6240  0.7906 -0.3862
  438MOL0     H59093  11.607   2.768   5.145  0.9052  1.6582 -0.8537
  438MOL0     H59094  11.814   3.020   5.203 -0.0357  0.1328  3.4499
  438MOL0     H59095  11.969   2.991   5.267 -0.1850 -0.6167  0.5356
  438MOL0     H59096  11.923   2.900   4.973  0.3796  1.5635 -0.8789
  438MOL0     H59097  11.951   3.063   5.017 -1.3290 -0.1539 -0.1632
  438MOL0     H59098  12.155   3.001   5.154  1.3659 -1.8280  1.4281
  438MOL0     H59099  12.147   2.838   5.099  2.9208 -0.3380 -2.5130
  438MOL0     H59100  12.168   3.051   4.887  0.3071 -0.7191 -1.0500
  438MOL0     H59101  12.168   2.876   4.868 -0.8300  0.2616  0.4098
  438MOL0     H59102  12.359   2.847   5.012 -0.4754 -0.2030  0.8012
  438MOL0     H59103  12.360   3.033   5.029  1.6202 -0.8906  1.0319
  438MOL0     H59104  12.373   2.914   4.741 -0.0715  0.7732 -0.7950
  438MOL0     H59105  12.437   3.063   4.809  2.7024  0.0175  0.6558
  438MOL0     H59106  12.545   2.782   4.883 -0.4607 -0.9074 -0.9548
  438MOL0     H59107  12.615   2.924   4.933 -0.5368 -2.4070  0.0611
  438MOL0     H59108  12.565   2.834   4.649 -3.1793  0.6516  3.0011
  438MOL0     H59109  12.650   2.987   4.673 -1.5535  0.8432  1.6774
  438MOL0     H59110  11.861   2.881   5.472  0.1840 -0.4888  0.9763
  438MOL0     H59111  11.647   2.870   5.624  0.9082  1.7225 -0.0289
  438MOL0     H59112  11.190   2.715   5.579  1.0764 -0.7673 -0.5497
  438MOL0     H59113  10.970   2.657   5.700  1.5932 -0.2097 -4.3935
  438MOL0     H59114   9.321   2.971   5.691 -1.0325 -0.5029 -2.7114
  438MOL0     H59115   9.249   3.191   5.680 -0.8376 -0.3472  0.0785
  438MOL0     H59116   9.557   3.721   5.522 -0.5927 -2.8084 -0.4024
  438MOL0     H59117   9.466   3.938   5.565 -2.6077  2.2209 -0.4985
  438MOL0     H59118   9.278   4.019   5.454  3.2189 -1.3443  0.9038
  438MOL0     H59119   9.351   4.136   5.553  0.5157 -0.9126 -0.8234
  438MOL0     H59120   9.038   4.121   5.513 -1.2702  3.1855  1.3629
  438MOL0     H59121   9.159   4.228   5.435  0.8136 -2.2103 -0.9027
  438MOL0     H59122   9.188   4.350   5.612 -2.4477  1.1530 -1.9433
  438MOL0     H59123   9.144   4.233   5.730  1.8388 -2.4429 -1.9855
  438MOL0     H59124   8.904   4.240   5.673 -1.4361 -0.4616 -2.3139
  438MOL0     H59125   8.967   4.384   5.757 -1.4713  1.2520  0.4199
  438MOL0     H59126   8.826   4.562   5.402 -0.4016  0.1155 -1.3400
  438MOL0     H59127   9.125   3.769   5.765 -0.4133 -2.5102 -0.8264
  438MOL0     H59128   9.229   3.538   5.873 -3.4054  2.4149  1.0477
  438MOL0     H59129   9.082   3.535   5.776  0.3469 -1.9482  4.1696
  438MOL0     H59130   9.199   3.428   5.729 -1.4229 -0.1165 -0.4984
  439MOL0     O59131   2.176   9.825   4.758  0.5820 -0.0253  0.0205
  439MOL0     C59132   2.138   9.923   4.826 -0.4230 -0.4681  0.0973
  439MOL0     O59133   2.037   9.918   4.921  0.3183 -0.5052 -0.6626
  439MOL0     C59134   1.967   9.803   4.948 -1.4727 -0.3460  0.2761
  439MOL0     C59135   2.019   9.681   4.982 -0.0043 -0.1985 -1.2504
  439MOL0     C59136   1.934   9.573   5.021 -0.6351  0.0381  0.7647
  439MOL0     C59137   1.800   9.580   5.006  0.5372 -0.6687 -0.1954
  439MOL0     O59138   1.708   9.474   5.024 -0.3076 -0.3134 -0.5206
  439MOL0     C59139   1.753   9.374   5.117 -0.7705  0.0583  0.2897
  439MOL0     C59140   1.617   9.318   5.162 -0.1192 -0.5481 -0.0869
  439MOL0     C59141   1.619   9.216   5.269 -0.3496  0.3116  0.6349
  439MOL0     C59142   1.699   9.090   5.237  0.4436  0.9016 -0.0973
  439MOL0     C59143   1.695   9.003   5.363 -0.1880  0.4413 -0.0639
  439MOL0     C59144   1.711   8.852   5.329 -0.2277 -0.1090  0.1645
  439MOL0     C59145   1.727   8.770   5.460 -0.1635  0.6242  0.4644
  439MOL0     C59146   1.737   8.620   5.421 -0.1639  0.3004 -0.3005
  439MOL0     N59147   1.843   8.594   5.321  0.4090  0.0275 -0.1504
  439MOL0     C59148   1.974   8.613   5.347  0.3732  0.0735 -0.3699
  439MOL0     C59149   2.041   8.543   5.251 -0.3200 -0.3910  0.2612
  439MOL0     C59150   2.191   8.533   5.249 -0.3384  1.4591 -0.2439
  439MOL0     C59151   2.278   8.627   5.166 -0.6697  0.3334  0.1736
  439MOL0     C59152   2.289   8.764   5.230 -0.5788 -0.0450  0.0881
  439MOL0     C59153   2.431   8.807   5.269 -0.3619  0.3469 -0.1093
  439MOL0     O59154   2.419   8.945   5.291  1.0479  0.6166 -0.0762
  439MOL0     C59155   2.533   9.009   5.257 -0.2024  0.6541 -0.0244
  439MOL0     C59156   2.621   9.037   5.363 -0.4903 -0.6422  1.0486
  439MOL0     C59157   2.738   9.099   5.335  0.0296 -0.0662  0.1347
  439MOL0     C59158   2.780   9.137   5.200  0.2070  0.5532 -0.0826
  439MOL0     C59159   2.905   9.204   5.174 -0.7268  0.4836  0.3773
  439MOL0     O59160   2.916   9.241   5.045  0.2186  0.5457  0.1539
  439MOL0     C59161   3.043   9.251   4.993  0.0579 -0.1662  0.0432
  439MOL0     C59162   3.169   9.208   5.054  0.2100 -0.3875  1.1939
  439MOL0     C59163   3.288   9.208   4.969  0.1295  0.4235 -0.1662
  439MOL0     C59164   3.287   9.265   4.836  0.6661 -0.6653  0.1238
  439MOL0     O59165   3.388   9.288   4.744  0.2301 -0.4665  0.1333
  439MOL0     C59166   3.377   9.221   4.615 -0.8787 -0.6544  0.6693
  439MOL0     C59167   3.376   9.066   4.636 -0.1998 -0.2154  0.3961
  439MOL0     C59168   3.379   8.996   4.498 -0.0679 -0.0362 -0.7416
  439MOL0     C59169   3.247   9.005   4.423 -0.1540  1.1754 -0.7781
  439MOL0     C59170   3.122   8.920   4.479 -0.2633  0.3618 -0.7734
  439MOL0     C59171   2.995   8.900   4.398 -0.4716  0.8717 -0.3873
  439MOL0     C59172   2.879   8.818   4.458  0.6603 -0.4168 -0.2217
  439MOL0     C59173   2.741   8.856   4.405  0.7683  1.0261  0.1557
  439MOL0    Cl59174   2.613   8.763   4.484 -0.6056 -0.0406 -0.1413
  439MOL0     C59175   3.164   9.324   4.794 -1.0490  0.2112  0.9061
  439MOL0     C59176   3.047   9.306   4.864  0.3409 -0.5764 -0.6454
  439MOL0     O59177   2.986   9.218   5.264  0.3287 -0.7186 -0.2351
  439MOL0     C59178   2.685   9.114   5.101 -0.1125  0.3928 -0.0970
  439MOL0     C59179   2.564   9.046   5.127 -0.0983 -0.6295 -0.2671
  439MOL0     N59180   1.950   8.489   5.162  0.8793 -0.1932 -0.2961
  439MOL0     N59181   1.824   8.534   5.206 -0.6304  0.1745  0.3370
  439MOL0     C59182   1.750   9.707   4.992 -0.4673 -0.0760 -0.2936
  439MOL0     C59183   1.830   9.819   4.965  0.2262 -0.2421  0.2717
  439MOL0     C59184   2.184  10.052   4.777  0.2440 -0.9555  0.3189
  439MOL0     C59185   2.221  10.055   4.640  0.9407 -0.2165 -0.1860
  439MOL0     C59186   2.249  10.176   4.583  0.9597  0.1140  1.4309
  439MOL0     C59187   2.258  10.290   4.658 -0.1516 -1.4544 -0.0871
  439MOL0     O59188   2.293  10.402   4.585  0.1959  0.0395 -0.0459
  439MOL0     C59189   2.419  10.457   4.606  0.0773 -1.0786 -0.9874
  439MOL0     C59190   2.453  10.498   4.456  0.0201  0.2759 -0.6742
  439MOL0     C59191   2.411  10.626   4.420 -0.1106  0.1145 -0.1821
  439MOL0     C59192   2.490  10.716   4.327 -0.3689 -0.1687  0.7038
  439MOL0     C59193   2.624  10.757   4.372  0.2810  0.2791  0.6080
  439MOL0     C59194   2.733  10.789   4.412  0.1278 -0.0292  1.2142
  439MOL0     C59195   2.227  10.280   4.800  0.0058 -1.3041  1.2068
  439MOL0     C59196   2.184  10.164   4.861 -0.0708 -0.7483 -0.8264
  439MOL0     C59197   2.157  10.156   5.011  0.0562 -0.2356 -0.3994
  439MOL0     H59198   2.126   9.685   5.002 -0.4746  0.6190  1.4924
  439MOL0     H59199   1.985   9.481   5.051  0.6164  0.4228 -0.0796
  439MOL0     H59200   1.811   9.301   5.060  1.5715  1.1053  1.2084
  439MOL0     H59201   1.824   9.413   5.191  0.6670  0.7266 -1.3768
  439MOL0     H59202   1.570   9.278   5.071 -0.9795  3.3354 -1.5583
  439MOL0     H59203   1.566   9.407   5.198 -2.1727 -1.0027 -1.6460
  439MOL0     H59204   1.514   9.186   5.279 -0.6096  0.6161 -0.9420
  439MOL0     H59205   1.656   9.252   5.365  2.0187  0.9965 -0.4617
  439MOL0     H59206   1.639   9.044   5.158  1.1729 -0.5293  0.1560
  439MOL0     H59207   1.799   9.106   5.194  0.7379  1.6326  0.8193
  439MOL0     H59208   1.762   9.040   5.441 -2.8098  2.3676  1.4423
  439MOL0     H59209   1.600   9.017   5.417 -0.1074  1.5866 -0.1942
  439MOL0     H59210   1.632   8.816   5.263  0.8046 -2.1746 -0.0561
  439MOL0     H59211   1.803   8.857   5.269 -2.7234  1.7400 -3.8692
  439MOL0     H59212   1.638   8.780   5.523 -0.4887  0.2597  0.0684
  439MOL0     H59213   1.817   8.803   5.512 -0.3452  0.6590  0.7594
  439MOL0     H59214   1.759   8.553   5.505  1.0047  0.5856 -0.3634
  439MOL0     H59215   1.643   8.583   5.377  1.2624 -3.7544 -0.3631
  439MOL0     H59216   2.005   8.665   5.437 -1.0070  0.3662 -0.0357
  439MOL0     H59217   2.227   8.532   5.352 -3.1986  0.0396  0.8581
  439MOL0     H59218   2.221   8.431   5.220  3.2936  2.6466 -1.2486
  439MOL0     H59219   2.383   8.600   5.148  0.1493  3.3349  0.0006
  439MOL0     H59220   2.228   8.644   5.070  1.0560 -1.9633 -1.2461
  439MOL0     H59221   2.235   8.769   5.325  1.4422 -5.0048  1.8158
  439MOL0     H59222   2.251   8.840   5.161  1.4860  0.2747 -0.7414
  439MOL0     H59223   2.493   8.773   5.186 -0.7984  1.8878 -1.1240
  439MOL0     H59224   2.455   8.761   5.365  0.1902  1.9656  0.5622
  439MOL0     H59225   2.579   9.018   5.461 -1.4895 -1.3674  0.5030
  439MOL0     H59226   2.806   9.105   5.420 -0.1651 -4.6508  0.8476
  439MOL0     H59227   3.175   9.172   5.156 -0.8845  3.7005  2.9488
  439MOL0     H59228   3.378   9.167   5.013 -0.9490 -1.7261  0.1726
  439MOL0     H59229   3.283   9.259   4.573  1.0174  2.0080 -1.5907
  439MOL0     H59230   3.456   9.237   4.541 -0.9453 -0.7584  0.5760
  439MOL0     H59231   3.458   9.039   4.702 -1.1975 -0.8647  1.4081
  439MOL0     H59232   3.282   9.042   4.686  0.6100  1.8008  3.1203
  439MOL0     H59233   3.459   9.034   4.433 -0.2703  0.9085 -0.4522
  439MOL0     H59234   3.401   8.890   4.509 -1.7571 -0.5401 -1.8158
  439MOL0     H59235   3.261   8.969   4.321 -0.2022 -1.2557  0.0157
  439MOL0     H59236   3.216   9.110   4.424  1.4493  1.7366  2.2271
  439MOL0     H59237   3.090   8.971   4.571 -1.2796  0.6702 -1.2820
  439MOL0     H59238   3.166   8.824   4.507 -0.2808  0.8022  0.8973
  439MOL0     H59239   2.964   9.000   4.366 -1.0785  1.1750  1.0719
  439MOL0     H59240   3.028   8.851   4.306 -0.1468  2.9205 -1.4280
  439MOL0     H59241   2.886   8.827   4.566  0.4464 -0.8155 -0.1702
  439MOL0     H59242   2.902   8.713   4.436  0.7070  0.1462 -3.3803
  439MOL0     H59243   2.726   8.963   4.424  0.8184  0.8001  1.5555
  439MOL0     H59244   2.718   8.840   4.299 -5.5032  1.0449  1.1468
  439MOL0     H59245   3.152   9.366   4.695 -2.6559  1.4667  1.5880
  439MOL0     H59246   2.955   9.329   4.811  0.1932  0.8548  0.1938
  439MOL0     H59247   2.710   9.148   5.001 -1.4161 -0.4723 -0.7399
  439MOL0     H59248   2.487   9.047   5.051  0.0295  2.0018 -0.4620
  439MOL0     H59249   1.643   9.719   4.999 -0.5318 -0.8139  0.0204
  439MOL0     H59250   1.801   9.923   4.954  0.0413 -0.1656  1.3980
  439MOL0     H59251   2.220   9.968   4.575 -0.9416 -1.2106  1.0751
  439MOL0     H59252   2.269  10.167   4.476  0.5712 -3.0115  1.5320
  439MOL0     H59253   2.488  10.394   4.663  1.8632 -0.0580 -1.9186
  439MOL0     H59254   2.399  10.549   4.661  0.4790 -1.1220 -0.7627
  439MOL0     H59255   2.420  10.423   4.383 -0.7552 -1.4739  1.3433
  439MOL0     H59256   2.562  10.499   4.454  0.0087  0.1091 -2.2205
  439MOL0     H59257   2.400  10.691   4.508 -1.5260  1.1891 -1.1195
  439MOL0     H59258   2.307  10.620   4.386 -0.9612  0.4971  2.1130
  439MOL0     H59259   2.488  10.675   4.225  0.4409 -0.0530  0.6402
  439MOL0     H59260   2.436  10.811   4.329  0.4777  0.4596 -1.9771
  439MOL0     H59261   2.829  10.816   4.452  2.0853 -3.5613 -0.6273
  439MOL0     H59262   2.247  10.359   4.871  1.9819 -0.8043  0.1544
  439MOL0     H59263   2.173  10.261   5.039  1.0114  0.1609 -2.2201
  439MOL0     H59264   2.055  10.135   5.045 -2.0674  6.0080 -1.6023
  439MOL0     H59265   2.233  10.098   5.065 -0.5125 -0.2713  0.3754
  440MOL0     O59266   7.318   3.751   8.858 -0.9830 -0.1026  0.7462
  440MOL0     C59267   7.353   3.861   8.813  0.1069  0.8857  0.1421
  440MOL0     O59268   7.268   3.957   8.776  0.7732 -0.3890  0.6333
  440MOL0     C59269   7.130   3.923   8.790 -0.1310 -0.5206  0.1208
  440MOL0     C59270   7.049   3.983   8.884  0.1840  0.5441  0.6506
  440MOL0     C59271   6.910   3.956   8.886  0.5873  0.8030 -0.1589
  440MOL0     C59272   6.852   3.867   8.801 -0.1382  0.0835  0.0982
  440MOL0     O59273   6.713   3.855   8.808  0.3289 -0.1231 -0.3017
  440MOL0     C59274   6.639   3.786   8.711 -0.0429  1.5181  0.3890
  440MOL0     C59275   6.489   3.833   8.730 -0.4320  0.2016 -0.2751
  440MOL0     C59276   6.454   3.819   8.886  0.2163 -0.9582 -0.1546
  440MOL0     C59277   6.314   3.838   8.914  1.0110 -0.4802 -0.2220
  440MOL0     C59278   6.280   3.809   9.061  0.1640  0.7825  0.3655
  440MOL0     C59279   6.129   3.840   9.092 -0.2272  0.7376 -1.0883
  440MOL0     C59280   6.112   3.972   9.168 -0.0691 -0.2287  0.1861
  440MOL0     C59281   5.973   3.964   9.229  0.0038  0.9060  0.4833
  440MOL0     N59282   5.945   4.076   9.318 -1.3099  0.2228 -0.1078
  440MOL0     C59283   5.899   4.193   9.270  0.2295  0.5294  0.1665
  440MOL0     C59284   5.871   4.263   9.387  0.0326  0.0589  0.3254
  440MOL0     C59285   5.825   4.412   9.394  0.0528  0.2831 -0.1172
  440MOL0     C59286   5.934   4.503   9.447  0.1162 -0.4667  0.0754
  440MOL0     C59287   5.883   4.642   9.457  0.6934  0.4253  0.0842
  440MOL0     C59288   5.998   4.745   9.461 -0.1827  0.3806 -0.4444
  440MOL0     O59289   6.062   4.736   9.591  0.2110  1.0421 -0.2694
  440MOL0     C59290   6.069   4.856   9.667 -0.3241 -0.1931  0.9206
  440MOL0     C59291   6.033   4.846   9.807  0.5378  0.2094 -0.2367
  440MOL0     C59292   6.023   4.964   9.885 -0.4569 -0.7476  0.0340
  440MOL0     C59293   6.065   5.090   9.829  0.0238  0.4211  0.4306
  440MOL0     C59294   6.065   5.208   9.912 -0.1754 -0.0375  0.5095
  440MOL0     O59295   6.002   5.191  10.027 -0.0273  0.4471  0.4042
  440MOL0     C59296   6.029   5.269  10.132  0.5622 -0.7813  0.3882
  440MOL0     C59297   5.969   5.389  10.140 -0.1954  0.7401 -0.7366
  440MOL0     C59298   6.017   5.475  10.238  0.5782 -0.1211  0.4085
  440MOL0     C59299   6.095   5.427  10.350 -0.1493 -0.7104  0.1299
  440MOL0     O59300   6.149   5.510  10.451 -0.2217  0.4036  0.3514
  440MOL0     C59301   6.155   5.654  10.423 -0.7233 -0.7457 -0.0333
  440MOL0     C59302   6.277   5.718  10.500  0.0887  0.7258 -0.1416
  440MOL0     C59303   6.409   5.653  10.459  0.3078 -0.3418 -0.1586
  440MOL0     C59304   6.520   5.679  10.570  0.0689  0.0083  0.1046
  440MOL0     C59305   6.654   5.632  10.513 -0.8058 -0.3826 -0.1057
  440MOL0     C59306   6.776   5.715  10.564  0.3341 -0.3753  0.1678
  440MOL0     C59307   6.895   5.667  10.475  0.1278 -0.3332 -0.4429
  440MOL0     C59308   7.007   5.759  10.511  0.4988  0.2805 -0.8796
  440MOL0    Cl59309   6.997   5.923  10.425 -0.1031 -0.2340 -0.4589
  440MOL0     C59310   6.147   5.298  10.343 -0.8434  0.4511  0.4977
  440MOL0     C59311   6.111   5.219  10.232 -0.1888  0.3802 -0.8056
  440MOL0     O59312   6.118   5.312   9.880  0.6037  1.3475  0.1678
  440MOL0     C59313   6.107   5.090   9.695 -0.5104  0.6459  0.4651
  440MOL0     C59314   6.106   4.974   9.613 -0.5191 -0.3344 -0.2123
  440MOL0     N59315   5.932   4.195   9.492  0.8904 -0.3328  0.0635
  440MOL0     N59316   5.972   4.078   9.442 -0.2516  0.4276 -0.8609
  440MOL0     C59317   6.938   3.810   8.713 -0.1441 -0.9562  0.2385
  440MOL0     C59318   7.071   3.836   8.695 -0.6814  0.1486 -0.3611
  440MOL0     C59319   7.494   3.906   8.824 -0.5445 -0.3176 -0.6820
  440MOL0     C59320   7.523   4.040   8.859  0.2000  0.2237  1.0256
  440MOL0     C59321   7.652   4.085   8.872  0.0849  0.3737  0.2622
  440MOL0     C59322   7.754   4.001   8.853 -0.3681  0.4636 -1.0409
  440MOL0     O59323   7.878   4.055   8.883  0.3302 -0.6696  0.6256
  440MOL0     C59324   7.978   4.029   8.784 -0.6360  0.6651 -0.3002
  440MOL0     C59325   8.112   4.073   8.834 -0.2589  0.9607 -0.6610
  440MOL0     C59326   8.215   4.027   8.724 -0.6696  0.7654 -0.5689
  440MOL0     C59327   8.362   4.072   8.764  0.2856 -0.0523  0.3090
  440MOL0     C59328   8.453   4.076   8.652 -1.2488 -0.6021 -0.9772
  440MOL0     C59329   8.511   4.062   8.549 -1.0604 -0.2549  0.5503
  440MOL0     C59330   7.727   3.870   8.819 -0.2320 -0.0045 -0.7969
  440MOL0     C59331   7.598   3.813   8.807 -0.1643  0.3810 -0.1617
  440MOL0     C59332   7.582   3.662   8.765 -0.2251 -0.1845  0.6694
  440MOL0     H59333   7.083   4.051   8.962  0.0879  1.4332 -0.0680
  440MOL0     H59334   6.844   3.994   8.963 -0.8924 -1.7981 -0.0089
  440MOL0     H59335   6.675   3.801   8.608  3.3889 -2.3107  0.7595
  440MOL0     H59336   6.648   3.678   8.725  0.7965  1.4849 -0.2890
  440MOL0     H59337   6.433   3.762   8.667  2.2331 -2.4763  0.1404
  440MOL0     H59338   6.481   3.937   8.696  0.7060  0.6947  0.8993
  440MOL0     H59339   6.499   3.903   8.940  1.1705 -0.1946 -2.0481
  440MOL0     H59340   6.502   3.725   8.916  1.2747  0.1185  1.7420
  440MOL0     H59341   6.272   3.935   8.884 -0.3282 -0.4282  1.6607
  440MOL0     H59342   6.255   3.769   8.854  4.9003 -2.1066 -2.5467
  440MOL0     H59343   6.303   3.706   9.087  1.2939  0.4724 -1.5930
  440MOL0     H59344   6.351   3.873   9.113 -0.5874  1.5415  0.4815
  440MOL0     H59345   6.071   3.823   9.001  0.4038  3.4056 -2.0802
  440MOL0     H59346   6.095   3.760   9.157  1.6554  1.1744  0.5294
  440MOL0     H59347   6.118   4.059   9.102 -2.1920  0.2049  0.4858
  440MOL0     H59348   6.185   3.983   9.248 -0.4911 -0.7286  0.6493
  440MOL0     H59349   5.890   3.960   9.159 -1.2650 -1.1884  1.9833
  440MOL0     H59350   5.972   3.869   9.284  2.3692  2.5040  3.6887
  440MOL0     H59351   5.857   4.211   9.172 -0.8077 -1.4342  0.2007
  440MOL0     H59352   5.793   4.451   9.297  1.2730 -1.0572 -1.1136
  440MOL0     H59353   5.742   4.407   9.465 -2.1048  1.6638 -2.3592
  440MOL0     H59354   5.965   4.461   9.543  1.7248 -2.3008 -1.1637
  440MOL0     H59355   6.027   4.495   9.390  1.9508 -0.4416  2.8622
  440MOL0     H59356   5.808   4.652   9.536  1.0376 -0.2623  0.5006
  440MOL0     H59357   5.829   4.663   9.364  1.2141  1.5942  0.0299
  440MOL0     H59358   5.965   4.843   9.426  1.2395  0.6992 -0.9781
  440MOL0     H59359   6.074   4.732   9.383 -0.0019 -0.2320 -0.1707
  440MOL0     H59360   5.997   4.756   9.854 -0.2009  0.3646 -0.4977
  440MOL0     H59361   5.971   4.964   9.980 -0.2411 -1.6613  0.1634
  440MOL0     H59362   5.907   5.436  10.064 -0.4220  1.3062 -0.2169
  440MOL0     H59363   5.985   5.578  10.241 -1.4810 -0.5945 -1.8384
  440MOL0     H59364   6.178   5.665  10.317  0.8571  0.4292  0.4004
  440MOL0     H59365   6.067   5.709  10.458  0.5251  1.5805 -0.3654
  440MOL0     H59366   6.265   5.825  10.478  0.9540  0.7828 -0.3823
  440MOL0     H59367   6.254   5.700  10.606 -0.1078  0.8400 -0.1661
  440MOL0     H59368   6.385   5.546  10.453  1.0992 -0.5418  0.0228
  440MOL0     H59369   6.438   5.674  10.356 -1.4246  1.5484 -0.3043
  440MOL0     H59370   6.491   5.622  10.659 -0.3604 -0.0047 -0.0414
  440MOL0     H59371   6.520   5.787  10.587  0.7632 -0.2402  1.8970
  440MOL0     H59372   6.654   5.647  10.404 -1.0958 -0.0514 -0.0618
  440MOL0     H59373   6.664   5.529  10.546 -3.5459 -0.4632  0.7279
  440MOL0     H59374   6.750   5.819  10.543  1.6285 -0.1635 -0.5128
  440MOL0     H59375   6.791   5.711  10.673  1.5281 -1.0044 -0.0007
  440MOL0     H59376   6.872   5.679  10.368  0.1954 -1.2137 -0.5611
  440MOL0     H59377   6.916   5.563  10.501  0.8745 -0.1206 -0.1619
  440MOL0     H59378   7.018   5.788  10.616  3.9760  2.5379 -1.6918
  440MOL0     H59379   7.094   5.701  10.480 -0.3377 -0.4628 -1.9480
  440MOL0     H59380   6.217   5.270  10.421 -0.1079  0.5175 -0.1288
  440MOL0     H59381   6.151   5.119  10.214  1.0478  0.8515 -0.7550
  440MOL0     H59382   6.145   5.185   9.658  0.9487 -0.3977 -0.8675
  440MOL0     H59383   6.147   4.988   9.514  0.1245  0.3533  0.1418
  440MOL0     H59384   6.898   3.740   8.641  1.1715 -2.1752  0.6506
  440MOL0     H59385   7.119   3.780   8.615 -3.5048  0.4590 -2.3999
  440MOL0     H59386   7.437   4.104   8.879  0.0723  0.1241  0.7887
  440MOL0     H59387   7.683   4.186   8.897  0.7472  0.4497 -0.8010
  440MOL0     H59388   7.946   4.080   8.692 -2.7659 -0.3727 -0.1990
  440MOL0     H59389   7.969   3.924   8.756  0.3892  0.1280  1.2753
  440MOL0     H59390   8.129   4.029   8.933  1.1610 -3.2681 -2.5306
  440MOL0     H59391   8.108   4.182   8.844 -0.4837  0.7560  2.7760
  440MOL0     H59392   8.192   4.082   8.632  0.2891  2.2817  0.0504
  440MOL0     H59393   8.214   3.919   8.713  0.1797  0.7507 -0.5793
  440MOL0     H59394   8.363   4.168   8.818 -0.1588 -2.7272  5.8477
  440MOL0     H59395   8.403   3.999   8.834  2.7992 -2.9760 -3.8000
  440MOL0     H59396   8.563   4.052   8.456 -2.4546 -2.1702 -0.0817
  440MOL0     H59397   7.817   3.809   8.827  1.5232  2.5471  0.1527
  440MOL0     H59398   7.678   3.621   8.732 -0.7807 -1.6771  0.8442
  440MOL0     H59399   7.556   3.608   8.856  4.1448  0.4055  2.4993
  440MOL0     H59400   7.512   3.660   8.680  2.9873 -0.1680 -2.1973
  441MOL0     O59401  10.704   0.635   7.316  1.2393  0.3087  0.3922
  441MOL0     C59402  10.633   0.630   7.219  0.3880 -0.5284  0.1486
  441MOL0     O59403  10.668   0.674   7.087  0.4034 -0.3652 -0.8370
  441MOL0     C59404  10.807   0.705   7.078  0.3476  0.9357  0.0042
  441MOL0     C59405  10.852   0.842   7.088  0.1775 -0.0592 -0.4551
  441MOL0     C59406  10.984   0.877   7.100  0.7527  0.9152 -0.7339
  441MOL0     C59407  11.080   0.771   7.098 -0.3804 -0.6607 -0.3530
  441MOL0     O59408  11.217   0.808   7.113  0.7444  0.3055  0.6055
  441MOL0     C59409  11.291   0.713   7.200  0.6152  0.5533  0.0292
  441MOL0     C59410  11.327   0.787   7.324 -0.8999 -0.3470  0.2325
  441MOL0     C59411  11.465   0.731   7.370  0.7566  0.0668  0.9209
  441MOL0     C59412  11.524   0.802   7.484  0.1549 -0.8827  0.5641
  441MOL0     C59413  11.654   0.739   7.539  0.0859 -0.0990 -0.1196
  441MOL0     C59414  11.716   0.834   7.652  0.0672 -0.7044 -1.0182
  441MOL0     C59415  11.611   0.864   7.751  0.1712  0.2900 -0.5094
  441MOL0     C59416  11.675   0.922   7.884 -1.0680 -0.4256 -0.1161
  441MOL0     N59417  11.760   0.833   7.963 -0.2029  0.1623  0.2456
  441MOL0     C59418  11.747   0.697   7.977  0.2499  0.4641  0.3611
  441MOL0     C59419  11.842   0.653   8.058 -0.3392  0.1281  0.3880
  441MOL0     C59420  11.873   0.517   8.113 -0.1078  0.1237 -0.0761
  441MOL0     C59421  11.764   0.458   8.219  0.1351 -0.1215  0.5294
  441MOL0     C59422  11.788   0.314   8.283  1.0479  0.1782  0.3017
  441MOL0     C59423  11.929   0.282   8.322  1.0314  0.1421 -0.7531
  441MOL0     O59424  11.962   0.383   8.420 -0.0718  0.1613 -0.1407
  441MOL0     C59425  12.092   0.376   8.471  0.3927 -0.6912  0.5016
  441MOL0     C59426  12.114   0.461   8.574 -0.4164  0.4182  0.0600
  441MOL0     C59427  12.242   0.476   8.630 -1.2423  0.5454  0.5615
  441MOL0     C59428  12.345   0.381   8.597 -0.5238 -0.3387 -0.2095
  441MOL0     C59429  12.481   0.383   8.656 -0.7083  0.1377 -0.1218
  441MOL0     O59430  12.513   0.498   8.716  0.3225 -0.1954 -0.2208
  441MOL0     C59431  12.648   0.511   8.756  0.2720 -0.4724 -0.3847
  441MOL0     C59432  12.692   0.639   8.727 -0.0671  1.3515 -0.5651
  441MOL0     C59433  12.818   0.681   8.766 -0.1595 -0.1388 -0.1676
  441MOL0     C59434  12.900   0.593   8.843  0.0642 -0.2544  0.6814
  441MOL0     O59435  13.030   0.623   8.879  1.0204 -0.3732 -0.1600
  441MOL0     C59436  13.059   0.746   8.940  0.2455  0.3935  0.9398
  441MOL0     C59437  13.214   0.767   8.948  0.6027 -0.4495  0.2258
  441MOL0     C59438  13.234   0.899   9.023  0.1679  0.2679  0.7077
  441MOL0     C59439  13.380   0.917   9.070 -0.3482  0.3834 -0.1276
  441MOL0     C59440  13.378   1.036   9.159 -0.3570 -0.3483  0.1843
  441MOL0     C59441  13.520   1.080   9.184 -0.8339 -0.0314 -0.0628
  441MOL0     C59442  13.512   1.221   9.247  0.2449  0.3009  0.1511
  441MOL0     C59443  13.664   1.273   9.258  1.4045  0.7300  0.3312
  441MOL0    Cl59444  13.755   1.169   9.364  0.5657 -0.0759  0.0226
  441MOL0     C59445  12.862   0.462   8.875 -0.4371  0.1836 -0.4880
  441MOL0     C59446  12.729   0.425   8.836  0.5535  0.8716 -0.2593
  441MOL0     O59447  12.552   0.276   8.651  0.3495  0.2410 -0.5714
  441MOL0     C59448  12.319   0.285   8.500 -0.7306 -0.2743  0.1431
  441MOL0     C59449  12.195   0.295   8.429  0.1734  0.2508  0.4502
  441MOL0     N59450  11.921   0.762   8.082 -0.5986 -0.8275 -0.7467
  441MOL0     N59451  11.868   0.875   8.036  0.1534 -0.1898 -0.4029
  441MOL0     C59452  11.038   0.645   7.081  0.8581  0.3200  0.3211
  441MOL0     C59453  10.906   0.607   7.062  0.9016  0.0654  1.0572
  441MOL0     C59454  10.494   0.563   7.239 -0.5620 -0.4474  1.3370
  441MOL0     C59455  10.473   0.504   7.365  1.1735 -0.2087 -0.2064
  441MOL0     C59456  10.338   0.475   7.405  0.1314  0.0666 -0.0218
  441MOL0     C59457  10.237   0.470   7.309  0.0970  0.4445  0.6138
  441MOL0     O59458  10.115   0.433   7.355  0.3397  0.1008  0.5931
  441MOL0     C59459  10.003   0.449   7.263 -0.1919 -0.1114 -0.7094
  441MOL0     C59460   9.994   0.322   7.176  0.0760  0.0876 -0.1262
  441MOL0     C59461   9.903   0.322   7.052  0.1834  0.4131  0.5084
  441MOL0     C59462   9.880   0.178   7.019 -0.5507 -0.3188  0.4126
  441MOL0     C59463   9.775   0.118   7.095  0.5044 -0.4446 -0.4213
  441MOL0     C59464   9.685   0.066   7.170  0.3713 -0.2679 -0.1954
  441MOL0     C59465  10.272   0.504   7.172  0.7200  0.7621 -0.6604
  441MOL0     C59466  10.401   0.548   7.136  0.2200  0.0798 -0.1471
  441MOL0     C59467  10.431   0.569   6.991  0.2856  0.6600 -0.4158
  441MOL0     H59468  10.764   0.905   7.095  0.3358  0.1290 -0.1708
  441MOL0     H59469  11.005   0.981   7.122 -2.6163  1.1228  2.6439
  441MOL0     H59470  11.242   0.620   7.228 -0.4896  1.2658  0.5216
  441MOL0     H59471  11.382   0.681   7.147  0.9936 -0.6878  1.3807
  441MOL0     H59472  11.251   0.762   7.398 -0.8704 -2.2708 -0.3475
  441MOL0     H59473  11.350   0.891   7.299 -1.5282 -0.6585 -1.8534
  441MOL0     H59474  11.538   0.757   7.293  0.6844  3.4183  1.8248
  441MOL0     H59475  11.458   0.625   7.398  1.3783 -0.0571  0.6185
  441MOL0     H59476  11.541   0.907   7.461  0.8913 -0.6954  1.8354
  441MOL0     H59477  11.447   0.808   7.562  0.1707 -0.3919  0.5416
  441MOL0     H59478  11.641   0.633   7.562  4.1743 -1.1895 -1.9692
  441MOL0     H59479  11.734   0.744   7.465  0.8652 -2.5646  0.4585
  441MOL0     H59480  11.794   0.771   7.697  0.3318  0.5715  0.4000
  441MOL0     H59481  11.755   0.929   7.615 -2.1712  0.6276 -0.2013
  441MOL0     H59482  11.558   0.771   7.774 -1.9332  1.0067 -2.0665
  441MOL0     H59483  11.539   0.932   7.702  0.2596  0.0162 -1.0260
  441MOL0     H59484  11.733   1.010   7.857 -0.5351 -1.1489 -1.4200
  441MOL0     H59485  11.588   0.948   7.946 -0.6347 -1.8234  1.1526
  441MOL0     H59486  11.665   0.638   7.937  0.8136 -1.4137  1.8318
  441MOL0     H59487  11.891   0.443   8.034  0.5356 -2.5465  2.4197
  441MOL0     H59488  11.966   0.520   8.170 -1.1145 -1.3392  1.7762
  441MOL0     H59489  11.780   0.530   8.300  2.3784  0.0869 -0.0278
  441MOL0     H59490  11.663   0.460   8.178  1.2186  2.5408 -2.3806
  441MOL0     H59491  11.767   0.232   8.214  0.4815 -2.0291  2.9134
  441MOL0     H59492  11.730   0.296   8.374  1.7299  0.7871  0.8732
  441MOL0     H59493  11.981   0.283   8.226  1.4111 -0.9971 -0.5754
  441MOL0     H59494  11.932   0.183   8.369 -2.6723  0.4097  0.3107
  441MOL0     H59495  12.034   0.524   8.611 -2.9543 -2.2893 -0.4080
  441MOL0     H59496  12.241   0.550   8.709  4.8949  1.3540  0.3486
  441MOL0     H59497  12.619   0.694   8.667 -1.4170  1.2723  0.9309
  441MOL0     H59498  12.869   0.774   8.740  0.7353 -0.2413  1.1334
  441MOL0     H59499  13.035   0.829   8.873  0.6114 -1.4956 -1.6553
  441MOL0     H59500  13.005   0.756   9.035  2.1199 -0.4823  2.1684
  441MOL0     H59501  13.265   0.682   8.994 -0.5564 -2.9458 -2.7586
  441MOL0     H59502  13.267   0.764   8.853  1.4200 -0.8789  0.6878
  441MOL0     H59503  13.201   0.979   8.956 -1.9675  0.2829  1.6861
  441MOL0     H59504  13.165   0.902   9.108 -0.6572 -1.2135  0.1327
  441MOL0     H59505  13.454   0.934   8.991  0.9543 -0.3014  0.9048
  441MOL0     H59506  13.409   0.823   9.118  0.2711  0.7202  0.1840
  441MOL0     H59507  13.324   1.015   9.252  1.1111  1.3661  1.4852
  441MOL0     H59508  13.325   1.112   9.101 -0.5458 -2.4448 -2.5947
  441MOL0     H59509  13.568   1.010   9.253  0.8603  3.3757  2.5250
  441MOL0     H59510  13.577   1.072   9.091 -0.0097 -3.6585  0.6289
  441MOL0     H59511  13.468   1.218   9.347  1.3126 -2.4718  0.6123
  441MOL0     H59512  13.446   1.282   9.184 -2.0336  0.7724  2.7754
  441MOL0     H59513  13.698   1.288   9.155 -1.0057  1.6899 -0.3901
  441MOL0     H59514  13.654   1.374   9.298 -1.9842  1.1809 -1.3229
  441MOL0     H59515  12.920   0.388   8.929 -0.5114  1.2397  1.1273
  441MOL0     H59516  12.693   0.327   8.868  0.0731  1.7833  2.2429
  441MOL0     H59517  12.389   0.203   8.484  0.8734  0.9105  0.8375
  441MOL0     H59518  12.172   0.231   8.345  3.7136  0.6997 -1.0439
  441MOL0     H59519  11.112   0.571   7.054 -0.7644 -0.6737 -1.6759
  441MOL0     H59520  10.867   0.507   7.043  1.9486  0.1592 -2.2024
  441MOL0     H59521  10.541   0.513   7.449 -1.9040  0.1311  2.4669
  441MOL0     H59522  10.307   0.453   7.506 -2.1317 -0.3942 -0.7610
  441MOL0     H59523  10.000   0.540   7.204 -2.8616 -0.4419 -1.2198
  441MOL0     H59524   9.907   0.440   7.316  0.9684  1.1747  1.8149
  441MOL0     H59525   9.969   0.245   7.250  0.2355 -0.0333 -0.2001
  441MOL0     H59526  10.093   0.294   7.139  0.2041  0.6697 -0.2275
  441MOL0     H59527   9.948   0.372   6.966  1.0560  0.2888  0.8816
  441MOL0     H59528   9.812   0.375   7.080  0.5447  2.8962 -2.5447
  441MOL0     H59529   9.866   0.167   6.911  1.5469  1.1229 -0.0813
  441MOL0     H59530   9.969   0.118   7.039  0.2069  0.3047 -0.9065
  441MOL0     H59531   9.614   0.012   7.231 -0.5030  0.1996 -0.7743
  441MOL0     H59532  10.195   0.495   7.096 -0.1121 -2.1864  0.3883
  441MOL0     H59533  10.435   0.678   6.985  0.6883  0.7593  1.1091
  441MOL0     H59534  10.531   0.527   6.975  0.9376  1.1317  2.0562
  441MOL0     H59535  10.362   0.518   6.923  0.0319 -0.4295  0.6120
  442MOL0     O59536   5.933   2.739   6.733  0.5814 -0.0040 -0.5021
  442MOL0     C59537   5.933   2.753   6.855 -0.0780  0.7612 -0.0132
  442MOL0     O59538   6.012   2.839   6.923  0.4397  0.2271  0.8237
  442MOL0     C59539   6.150   2.843   6.893  0.1185 -0.4053 -0.4149
  442MOL0     C59540   6.236   2.743   6.940  0.9107 -0.8087  0.0771
  442MOL0     C59541   6.363   2.744   6.902  0.0897 -0.1229  0.1409
  442MOL0     C59542   6.418   2.847   6.832  1.0773  0.1836 -0.6196
  442MOL0     O59543   6.545   2.828   6.789 -0.6366 -0.3141  0.1937
  442MOL0     C59544   6.646   2.928   6.802 -0.1603  0.4827 -0.8506
  442MOL0     C59545   6.677   2.991   6.671  0.0426  0.8337  1.6343
  442MOL0     C59546   6.762   3.114   6.663 -0.7282  0.1749 -0.2798
  442MOL0     C59547   6.673   3.235   6.668  0.2267  0.3987 -0.9817
  442MOL0     C59548   6.758   3.364   6.637  1.6367  1.0104  0.0643
  442MOL0     C59549   6.710   3.490   6.719 -0.1477  0.6083 -1.4019
  442MOL0     C59550   6.767   3.626   6.668 -0.0022  0.0700  0.4933
  442MOL0     C59551   6.911   3.658   6.704 -0.1599  0.3114 -0.4529
  442MOL0     N59552   7.003   3.632   6.600 -0.3356  1.0833  0.9873
  442MOL0     C59553   7.080   3.521   6.598  0.5920  0.1287  0.2510
  442MOL0     C59554   7.174   3.542   6.500  0.5433  0.1991 -0.1967
  442MOL0     C59555   7.273   3.433   6.456  0.7683  0.1845 -0.1511
  442MOL0     C59556   7.320   3.341   6.564  0.3436  0.0130 -0.0806
  442MOL0     C59557   7.393   3.417   6.676  0.2913  0.3740  0.6559
  442MOL0     C59558   7.473   3.324   6.758 -0.4439  0.5985  0.0728
  442MOL0     O59559   7.565   3.403   6.836  0.3689  0.2381  0.7297
  442MOL0     C59560   7.638   3.329   6.928  0.9329 -0.1064 -0.3449
  442MOL0     C59561   7.661   3.192   6.923  1.2859 -0.2363  0.6863
  442MOL0     C59562   7.733   3.132   7.028 -0.7873 -0.9397  0.6960
  442MOL0     C59563   7.795   3.204   7.135 -0.1288 -0.6366  0.8023
  442MOL0     C59564   7.889   3.141   7.230 -0.0109  0.0900 -0.1544
  442MOL0     O59565   7.947   3.216   7.323 -0.0854 -0.4447 -0.4691
  442MOL0     C59566   8.044   3.170   7.409 -1.0757 -1.5109 -0.6477
  442MOL0     C59567   8.078   3.040   7.451 -0.1293 -1.0603 -0.1728
  442MOL0     C59568   8.162   3.020   7.560 -0.6455  1.5449 -0.4622
  442MOL0     C59569   8.230   3.121   7.623 -0.0879  0.2579  0.5375
  442MOL0     O59570   8.317   3.100   7.720  0.1002  0.4012 -0.7132
  442MOL0     C59571   8.437   3.183   7.728 -0.3573  0.8301 -0.5553
  442MOL0     C59572   8.538   3.102   7.813 -0.4784 -0.7037  0.4435
  442MOL0     C59573   8.678   3.155   7.787 -0.6394 -0.3315 -0.2111
  442MOL0     C59574   8.774   3.083   7.882 -0.6463 -0.5132 -0.5665
  442MOL0     C59575   8.910   3.161   7.876 -0.9385  0.5664  0.4266
  442MOL0     C59576   9.016   3.089   7.965  0.2304  0.4209 -0.0767
  442MOL0     C59577   9.141   3.166   7.987 -0.0706 -0.2254 -0.1401
  442MOL0     C59578   9.242   3.082   8.055  0.0341  0.6445 -0.2909
  442MOL0    Cl59579   9.379   3.193   8.083 -0.3896 -0.0723 -0.0373
  442MOL0     C59580   8.199   3.249   7.579 -0.2790 -0.5699 -0.1478
  442MOL0     C59581   8.104   3.276   7.485  0.0276  0.6171  0.8343
  442MOL0     O59582   7.909   3.022   7.211  0.7797  0.7403 -0.6952
  442MOL0     C59583   7.769   3.339   7.140 -0.6334  0.2474 -0.2821
  442MOL0     C59584   7.694   3.401   7.035  0.6794  0.4532 -0.2718
  442MOL0     N59585   7.149   3.662   6.439  0.4525 -0.0239  0.1232
  442MOL0     N59586   7.057   3.719   6.506  1.2243 -0.6129 -1.1742
  442MOL0     C59587   6.338   2.951   6.796  0.0648  0.1685  0.4979
  442MOL0     C59588   6.205   2.951   6.820 -0.0828  0.2649  1.2806
  442MOL0     C59589   5.830   2.676   6.938 -1.3967 -0.8084  1.1882
  442MOL0     C59590   5.843   2.696   7.075 -0.1072  0.4214 -0.3340
  442MOL0     C59591   5.733   2.657   7.150  0.1501 -0.0551 -0.2162
  442MOL0     C59592   5.625   2.589   7.107 -0.5866  0.1613  0.5413
  442MOL0     O59593   5.518   2.548   7.189  0.3640 -0.4085  0.3681
  442MOL0     C59594   5.458   2.636   7.279  0.4111 -0.5303  0.4528
  442MOL0     C59595   5.496   2.603   7.424 -0.2121 -1.1121 -0.3715
  442MOL0     C59596   5.422   2.685   7.541  0.2257 -0.1434  0.7632
  442MOL0     C59597   5.526   2.722   7.656  0.0197 -0.5773 -0.2139
  442MOL0     C59598   5.482   2.847   7.704  0.1709  0.6493  0.2901
  442MOL0     C59599   5.420   2.941   7.747  0.0269 -0.9748 -0.0053
  442MOL0     C59600   5.626   2.559   6.973 -0.8167 -0.0778 -0.6092
  442MOL0     C59601   5.725   2.604   6.885 -0.2396  0.6988 -0.4119
  442MOL0     C59602   5.691   2.592   6.734 -0.1317  0.1699 -0.0557
  442MOL0     H59603   6.186   2.673   7.007  0.7259 -0.9671 -0.2266
  442MOL0     H59604   6.436   2.669   6.933 -0.4126 -0.3685  0.7416
  442MOL0     H59605   6.636   3.000   6.884  2.9238 -0.7074  0.7588
  442MOL0     H59606   6.738   2.878   6.834  1.6946  5.2378  2.3045
  442MOL0     H59607   6.583   3.001   6.615  1.1941 -1.3264 -0.8893
  442MOL0     H59608   6.736   2.912   6.625  0.5429  1.5707  0.9819
  442MOL0     H59609   6.811   3.104   6.566  0.0175 -3.0790  0.3110
  442MOL0     H59610   6.836   3.113   6.744  0.8959  1.2495 -1.6888
  442MOL0     H59611   6.581   3.229   6.609  0.6284  1.4371 -1.7540
  442MOL0     H59612   6.644   3.237   6.774 -0.7197  0.0435 -1.2302
  442MOL0     H59613   6.864   3.350   6.659  1.3364  1.6415  2.0985
  442MOL0     H59614   6.748   3.382   6.529  0.4160 -0.1886 -0.0478
  442MOL0     H59615   6.603   3.498   6.741  0.0097  0.5610 -0.5841
  442MOL0     H59616   6.761   3.474   6.815  2.7649  0.5294 -2.8668
  442MOL0     H59617   6.701   3.703   6.709 -0.9603 -0.6890  0.4146
  442MOL0     H59618   6.753   3.623   6.559  0.5285 -2.4746  0.4311
  442MOL0     H59619   6.926   3.763   6.728  4.7611 -0.8625  3.3001
  442MOL0     H59620   6.944   3.619   6.801  3.2611  2.4737 -0.5663
  442MOL0     H59621   7.073   3.435   6.664 -0.4522  0.1274  0.1628
  442MOL0     H59622   7.219   3.377   6.379 -1.1035  0.2907  1.0381
  442MOL0     H59623   7.356   3.483   6.404  2.0535 -0.9092  0.7730
  442MOL0     H59624   7.236   3.282   6.602  0.1780 -0.5798 -1.3241
  442MOL0     H59625   7.394   3.277   6.514 -0.1067 -1.5966  1.2289
  442MOL0     H59626   7.328   3.469   6.747 -3.5177 -0.1190 -2.1179
  442MOL0     H59627   7.469   3.482   6.631  1.4403 -0.3072  1.5617
  442MOL0     H59628   7.532   3.267   6.685 -2.0377 -1.1795  0.0922
  442MOL0     H59629   7.420   3.243   6.810  2.0295 -0.8675  0.5222
  442MOL0     H59630   7.623   3.134   6.839 -3.4931  1.8112  1.0952
  442MOL0     H59631   7.748   3.025   7.017  0.5456 -0.6236 -0.8381
  442MOL0     H59632   8.036   2.947   7.413  0.4214 -1.5141  0.3092
  442MOL0     H59633   8.197   2.927   7.605  0.6640  3.4593  2.9051
  442MOL0     H59634   8.473   3.210   7.629  1.5893  0.9035  0.1260
  442MOL0     H59635   8.414   3.277   7.780 -2.5582  0.7483 -1.3148
  442MOL0     H59636   8.506   3.113   7.917  0.5689 -0.2763  0.7423
  442MOL0     H59637   8.519   2.996   7.796 -2.0057 -0.4009  0.0985
  442MOL0     H59638   8.709   3.121   7.688  1.4445 -0.1013  0.3010
  442MOL0     H59639   8.696   3.262   7.779  2.4071 -0.8546 -1.8548
  442MOL0     H59640   8.779   2.981   7.843 -1.4588 -0.0850 -1.8795
  442MOL0     H59641   8.741   3.078   7.986  2.2613 -0.3421  0.4454
  442MOL0     H59642   8.898   3.265   7.907  0.2786  0.3276  1.8293
  442MOL0     H59643   8.951   3.167   7.775  2.3948  0.6273  1.6596
  442MOL0     H59644   8.963   3.078   8.060 -0.2280  1.1708 -0.2323
  442MOL0     H59645   9.040   2.996   7.913 -0.8235 -0.1398  0.4078
  442MOL0     H59646   9.122   3.259   8.042 -3.1795  0.3171 -1.8442
  442MOL0     H59647   9.167   3.192   7.883  1.7783 -0.0135  0.3398
  442MOL0     H59648   9.210   3.048   8.154  3.3378  1.2912  1.1619
  442MOL0     H59649   9.272   3.009   7.980 -1.7830 -1.0528  0.5483
  442MOL0     H59650   8.236   3.325   7.647 -3.9929  1.4134 -0.1123
  442MOL0     H59651   8.078   3.381   7.472  1.6826  1.1436  1.4375
  442MOL0     H59652   7.812   3.409   7.211 -2.1657  1.3346 -0.3766
  442MOL0     H59653   7.669   3.506   7.045  0.6630  0.3042  1.5393
  442MOL0     H59654   6.387   3.025   6.734  0.6361 -1.1960 -0.7566
  442MOL0     H59655   6.143   3.033   6.783 -3.6231 -2.1598  1.2658
  442MOL0     H59656   5.919   2.740   7.139 -0.1282 -0.1632  0.1073
  442MOL0     H59657   5.753   2.661   7.256  1.8576 -2.0553 -0.3996
  442MOL0     H59658   5.349   2.634   7.269  0.3320  3.6108 -1.8484
  442MOL0     H59659   5.478   2.741   7.257 -4.7142  0.4005 -1.1099
  442MOL0     H59660   5.602   2.629   7.420 -0.4005 -0.4162 -1.2464
  442MOL0     H59661   5.490   2.495   7.437  1.5348 -2.0528 -5.3150
  442MOL0     H59662   5.343   2.621   7.581  2.4271 -1.3864  3.4396
  442MOL0     H59663   5.379   2.771   7.488 -0.1343 -2.6822 -3.5524
  442MOL0     H59664   5.521   2.642   7.731 -4.0770 -1.7646 -1.4976
  442MOL0     H59665   5.624   2.743   7.612  1.6572 -1.2273  2.8059
  442MOL0     H59666   5.356   3.017   7.786 -2.8235 -3.1971 -0.0575
  442MOL0     H59667   5.540   2.500   6.942 -0.1204 -1.0995 -0.6563
  442MOL0     H59668   5.630   2.502   6.721  0.0510 -0.2896  1.8465
  442MOL0     H59669   5.642   2.687   6.712 -0.0396  0.6079  1.4660
  442MOL0     H59670   5.774   2.584   6.664  0.7844  3.5383  0.4707
  443MOL0     O59671   9.328   2.549   7.860  0.2648 -0.1919 -0.6773
  443MOL0     C59672   9.220   2.486   7.851  0.1014  0.3977  0.0656
  443MOL0     O59673   9.196   2.364   7.902  0.1906  0.3648  0.6464
  443MOL0     C59674   9.285   2.261   7.947  0.0911 -0.7813  0.3077
  443MOL0     C59675   9.240   2.128   7.915  0.3000 -0.2653 -0.5200
  443MOL0     C59676   9.314   2.022   7.968  0.7549 -0.0419 -0.3328
  443MOL0     C59677   9.435   2.052   8.047 -0.5715 -0.9901  1.1409
  443MOL0     O59678   9.508   1.942   8.099 -0.2323  0.1954  0.2579
  443MOL0     C59679   9.556   1.960   8.229  0.0502  0.4148  0.5261
  443MOL0     C59680   9.597   1.826   8.291  0.3422 -0.2620  0.4242
  443MOL0     C59681   9.706   1.756   8.219 -0.8640  0.0622  0.3137
  443MOL0     C59682   9.841   1.808   8.256 -0.5393 -0.6232 -0.0974
  443MOL0     C59683   9.945   1.755   8.150 -0.2731 -0.1499 -0.2501
  443MOL0     C59684   9.977   1.613   8.166  0.8270  0.7336  0.3046
  443MOL0     C59685  10.084   1.580   8.278 -0.8033  0.1530  0.1454
  443MOL0     C59686  10.059   1.435   8.317 -0.9566 -0.5860  0.8913
  443MOL0     N59687  10.178   1.375   8.373 -0.1942 -0.7105  0.4785
  443MOL0     C59688  10.263   1.449   8.460  0.6257  0.2636 -0.0686
  443MOL0     C59689  10.369   1.362   8.487  0.3830  0.8181  1.1104
  443MOL0     C59690  10.499   1.397   8.552  0.1920  0.2739  0.0237
  443MOL0     C59691  10.594   1.456   8.447  0.6591 -0.4270 -0.0306
  443MOL0     C59692  10.673   1.349   8.359 -0.1710 -0.5517 -0.5012
  443MOL0     C59693  10.788   1.394   8.276 -0.5927 -0.4939  0.6279
  443MOL0     O59694  10.894   1.446   8.364  0.4368 -0.2765  0.0762
  443MOL0     C59695  10.969   1.368   8.440 -0.7330 -0.6481 -0.7902
  443MOL0     C59696  11.030   1.429   8.550 -0.2195 -0.1681  0.3262
  443MOL0     C59697  11.089   1.357   8.653  0.0164  0.4001  0.1087
  443MOL0     C59698  11.098   1.216   8.646  0.4511 -0.0081 -0.2670
  443MOL0     C59699  11.168   1.132   8.742 -0.4421 -0.2476  0.1238
  443MOL0     O59700  11.158   0.991   8.742  0.0526  0.0472  0.3347
  443MOL0     C59701  11.215   0.907   8.837 -0.8128  0.4713  0.0051
  443MOL0     C59702  11.326   0.823   8.804  0.7124 -0.0519  0.1401
  443MOL0     C59703  11.353   0.716   8.893  0.2915 -0.2068 -0.0296
  443MOL0     C59704  11.297   0.705   9.024  0.1662  0.2062 -0.9911
  443MOL0     O59705  11.350   0.616   9.116  0.1059 -0.1590 -0.5544
  443MOL0     C59706  11.324   0.630   9.252 -1.0673 -1.5675 -0.4555
  443MOL0     C59707  11.444   0.558   9.321  0.0715 -0.5608 -0.6763
  443MOL0     C59708  11.435   0.572   9.471 -0.8195 -0.4224  0.2483
  443MOL0     C59709  11.575   0.520   9.539  1.6616 -0.2659  1.1114
  443MOL0     C59710  11.571   0.555   9.689 -0.1113  0.3913  0.6783
  443MOL0     C59711  11.693   0.502   9.770 -0.9627  0.4085  0.6668
  443MOL0     C59712  11.828   0.543   9.713  0.1712  0.1924  0.5909
  443MOL0     C59713  11.940   0.493   9.793 -0.9780 -0.2959 -0.8873
  443MOL0    Cl59714  12.098   0.570   9.746  0.2767  0.0484 -0.4410
  443MOL0     C59715  11.197   0.807   9.047 -0.3948 -0.2734 -0.6780
  443MOL0     C59716  11.152   0.903   8.961 -0.8240  0.3509 -1.1894
  443MOL0     O59717  11.250   1.192   8.803  0.9378 -0.1087 -0.5631
  443MOL0     C59718  11.037   1.153   8.539  0.2634  0.6448 -0.3117
  443MOL0     C59719  10.961   1.225   8.440  0.0458 -0.0604 -0.0781
  443MOL0     N59720  10.337   1.240   8.424  1.1835  0.2076  0.3540
  443MOL0     N59721  10.228   1.244   8.359  0.8804  1.0724  0.1124
  443MOL0     C59722   9.487   2.185   8.053 -0.2062 -0.1767 -0.0077
  443MOL0     C59723   9.406   2.289   8.012  0.5639 -0.5212 -0.3057
  443MOL0     C59724   9.101   2.566   7.795 -0.2969  0.3406  0.0549
  443MOL0     C59725   8.978   2.504   7.798  0.1048  0.6781 -0.6293
  443MOL0     C59726   8.858   2.558   7.751  0.9387 -0.7627 -0.6283
  443MOL0     C59727   8.864   2.685   7.691  0.5791  0.6783  0.2662
  443MOL0     O59728   8.752   2.756   7.639  0.0311 -0.1757  0.5190
  443MOL0     C59729   8.643   2.679   7.590  0.7430  1.0201 -0.6002
  443MOL0     C59730   8.543   2.768   7.522  0.7464  0.0651  0.4392
  443MOL0     C59731   8.445   2.685   7.430 -0.7376  0.4450 -0.2255
  443MOL0     C59732   8.317   2.756   7.415  0.1689 -0.4691 -0.1847
  443MOL0     C59733   8.238   2.721   7.300 -0.3314  0.7805  0.7163
  443MOL0     C59734   8.166   2.699   7.202  0.5316 -0.2717 -0.1808
  443MOL0     C59735   8.986   2.743   7.687 -1.1277 -0.1469  0.3907
  443MOL0     C59736   9.108   2.698   7.746  0.2595 -0.1922 -0.5058
  443MOL0     C59737   9.235   2.782   7.735  0.4952  0.7443 -0.3385
  443MOL0     H59738   9.153   2.109   7.853  0.7972  0.9437 -1.6401
  443MOL0     H59739   9.274   1.921   7.962 -2.4503  0.7724  3.3148
  443MOL0     H59740   9.640   2.030   8.223 -0.7228  1.3249  0.1688
  443MOL0     H59741   9.484   2.008   8.295  1.2483  0.9744  1.4742
  443MOL0     H59742   9.503   1.770   8.289 -0.2089  0.6441  0.7392
  443MOL0     H59743   9.612   1.823   8.399  0.5879 -3.1185  0.4033
  443MOL0     H59744   9.696   1.778   8.113 -1.2906  1.5361  0.6392
  443MOL0     H59745   9.687   1.649   8.231 -0.2037  0.0520  1.4831
  443MOL0     H59746   9.842   1.917   8.253  1.0671 -0.4899  2.5055
  443MOL0     H59747   9.867   1.777   8.357 -1.4944 -1.0437  0.0309
  443MOL0     H59748   9.907   1.763   8.048 -0.4309 -0.4227 -0.2142
  443MOL0     H59749  10.034   1.817   8.162  0.2175 -1.0512  1.0112
  443MOL0     H59750   9.889   1.549   8.179  0.8598 -0.3059 -3.3637
  443MOL0     H59751  10.014   1.577   8.069  1.1144 -0.4699  0.8493
  443MOL0     H59752  10.072   1.637   8.371 -2.8715 -4.1393  2.7815
  443MOL0     H59753  10.182   1.597   8.232 -1.6693 -1.5595 -2.4882
  443MOL0     H59754   9.988   1.431   8.400 -0.4741  1.7283  1.5053
  443MOL0     H59755  10.020   1.379   8.232 -2.0739  0.8323  0.4230
  443MOL0     H59756  10.258   1.553   8.490 -0.9254  0.8118 -1.9880
  443MOL0     H59757  10.497   1.472   8.631  0.6180 -1.1899  1.4767
  443MOL0     H59758  10.543   1.306   8.596  0.9637 -0.8825 -2.9070
  443MOL0     H59759  10.530   1.518   8.383 -0.9275  0.0100  1.8752
  443MOL0     H59760  10.668   1.516   8.501  2.5589 -0.2801 -2.5619
  443MOL0     H59761  10.609   1.288   8.294  1.6747 -1.6792 -1.3397
  443MOL0     H59762  10.715   1.282   8.434  1.4352 -0.5803 -1.3827
  443MOL0     H59763  10.753   1.478   8.217 -4.2581 -1.4912  1.1538
  443MOL0     H59764  10.820   1.312   8.211  0.8432  0.5062  0.0208
  443MOL0     H59765  11.029   1.537   8.566  1.6206 -0.2102  0.9290
  443MOL0     H59766  11.150   1.400   8.732  0.4463 -0.8033  0.4677
  443MOL0     H59767  11.373   0.832   8.706  1.8305 -0.3666  0.6313
  443MOL0     H59768  11.427   0.641   8.869 -2.4403 -3.2219  0.2834
  443MOL0     H59769  11.325   0.735   9.283 -3.4101 -2.3131  2.7198
  443MOL0     H59770  11.222   0.606   9.281 -1.5922 -1.1813 -1.8832
  443MOL0     H59771  11.443   0.452   9.295  0.9405  0.0961 -3.8228
  443MOL0     H59772  11.540   0.594   9.283  0.2745  0.0719  0.3779
  443MOL0     H59773  11.435   0.677   9.502 -1.1659 -0.6244  0.9565
  443MOL0     H59774  11.353   0.515   9.515 -0.0403 -1.8867 -0.1560
  443MOL0     H59775  11.666   0.567   9.500  1.3060  1.3522  2.1555
  443MOL0     H59776  11.577   0.412   9.522 -0.2307 -0.9864  4.5854
  443MOL0     H59777  11.477   0.521   9.732 -0.9089  0.3090 -1.0235
  443MOL0     H59778  11.579   0.664   9.696  3.8307  0.2940  0.0848
  443MOL0     H59779  11.686   0.549   9.869  2.2792 -2.3436  2.4050
  443MOL0     H59780  11.688   0.394   9.789 -1.2660  0.0787 -1.1689
  443MOL0     H59781  11.829   0.652   9.701  1.2446  0.1008 -0.2227
  443MOL0     H59782  11.837   0.494   9.616 -2.8813 -0.6320  0.6294
  443MOL0     H59783  11.925   0.520   9.898 -1.1845  1.4992 -1.3447
  443MOL0     H59784  11.943   0.385   9.783 -0.2252 -0.1007 -3.8488
  443MOL0     H59785  11.149   0.811   9.144  0.4079  0.2091 -0.2951
  443MOL0     H59786  11.067   0.968   8.981 -1.2812  0.3713 -3.0145
  443MOL0     H59787  11.041   1.044   8.536 -1.2671  0.5822 -1.4557
  443MOL0     H59788  10.895   1.184   8.365 -1.8877  0.6533  1.1673
  443MOL0     H59789   9.587   2.204   8.090 -0.6870  1.1499  0.6779
  443MOL0     H59790   9.427   2.395   8.020 -2.3673  0.0732  0.4741
  443MOL0     H59791   8.972   2.401   7.830  0.2638  1.4660  2.1365
  443MOL0     H59792   8.765   2.504   7.763  0.0116  0.9433  0.2664
  443MOL0     H59793   8.599   2.614   7.666  2.1540  2.3795  1.4965
  443MOL0     H59794   8.679   2.612   7.511 -2.3351 -0.0220 -1.2961
  443MOL0     H59795   8.593   2.844   7.461 -2.3699  1.9762  0.0506
  443MOL0     H59796   8.489   2.832   7.592 -0.3146  0.2541 -0.5167
  443MOL0     H59797   8.415   2.586   7.464 -5.7751  1.3349 -1.1975
  443MOL0     H59798   8.495   2.673   7.333  3.2921  0.3281  1.6859
  443MOL0     H59799   8.262   2.720   7.502  0.1958 -0.0339  0.0139
  443MOL0     H59800   8.352   2.859   7.408  3.7143 -1.4084  1.3988
  443MOL0     H59801   8.089   2.687   7.128 -1.0325 -1.5492  1.5575
  443MOL0     H59802   8.981   2.846   7.652  1.3047 -0.1284 -0.0462
  443MOL0     H59803   9.202   2.886   7.720  2.2319  1.0799 -2.2329
  443MOL0     H59804   9.287   2.773   7.831 -1.3376  1.3849  0.7758
  443MOL0     H59805   9.297   2.752   7.650  1.1952 -0.7421  0.6684
  444MOL0     O59806   9.052  10.878   4.212  0.4794  0.1618  0.2097
  444MOL0     C59807   9.124  10.922   4.300  0.5511  0.1202 -0.8230
  444MOL0     O59808   9.223  10.850   4.356  0.1750  0.0810 -0.0464
  444MOL0     C59809   9.227  10.714   4.343  0.7925  0.1592  0.2002
  444MOL0     C59810   9.350  10.663   4.358  0.1832  0.2904  0.4083
  444MOL0     C59811   9.366  10.530   4.353 -0.0766 -0.0564  0.0282
  444MOL0     C59812   9.267  10.438   4.342  1.4132  0.7343 -0.6146
  444MOL0     O59813   9.298  10.300   4.357 -0.0962 -0.0288 -0.2412
  444MOL0     C59814   9.186  10.209   4.348 -0.3679 -0.6130  0.1696
  444MOL0     C59815   9.144  10.156   4.210 -0.0092 -0.6092  0.5210
  444MOL0     C59816   9.046  10.043   4.226 -0.7255  0.1032  0.7637
  444MOL0     C59817   8.954  10.030   4.095 -0.4737  0.0327 -0.7458
  444MOL0     C59818   8.829   9.946   4.137 -0.4567  0.0369 -0.0831
  444MOL0     C59819   8.756   9.914   4.006  0.6324  0.2836 -0.2034
  444MOL0     C59820   8.686   9.777   4.013 -0.7293  0.4878  0.1090
  444MOL0     C59821   8.796   9.674   3.957  0.5370  0.8000 -0.6190
  444MOL0     N59822   8.747   9.532   3.951 -0.0819 -0.1518  0.0376
  444MOL0     C59823   8.794   9.430   4.035 -0.8449 -1.0742  0.0547
  444MOL0     C59824   8.710   9.329   4.003  1.3024 -0.1846  0.1339
  444MOL0     C59825   8.709   9.201   4.078  0.8401  0.0546  0.3850
  444MOL0     C59826   8.689   9.086   3.989  0.9474 -0.3745  0.5114
  444MOL0     C59827   8.684   8.952   4.067 -1.0869  0.0485 -0.3474
  444MOL0     C59828   8.553   8.948   4.149  0.7414  0.0534 -1.0568
  444MOL0     O59829   8.538   8.819   4.205  0.4418 -0.3762 -0.9387
  444MOL0     C59830   8.415   8.785   4.258  0.6349 -0.5295  1.5349
  444MOL0     C59831   8.359   8.859   4.356  0.3674  0.3338 -0.4089
  444MOL0     C59832   8.223   8.827   4.395 -0.1777  0.7386 -1.1826
  444MOL0     C59833   8.152   8.718   4.338 -0.4921  1.1713  0.8052
  444MOL0     C59834   8.011   8.692   4.368  0.1492 -0.3836 -0.4047
  444MOL0     O59835   7.940   8.586   4.311  0.3249  0.2232  0.1795
  444MOL0     C59836   7.809   8.572   4.344 -0.3031 -0.6188 -0.9998
  444MOL0     C59837   7.761   8.504   4.461 -0.0447  0.1490  0.2063
  444MOL0     C59838   7.626   8.501   4.494  0.2520  0.8917  0.1951
  444MOL0     C59839   7.531   8.551   4.406 -0.4130  0.3287  0.1683
  444MOL0     O59840   7.397   8.544   4.423 -0.1199  0.3467 -0.3842
  444MOL0     C59841   7.351   8.452   4.523  0.7440 -1.3925 -1.1343
  444MOL0     C59842   7.195   8.448   4.516 -0.7081  0.0743  0.1782
  444MOL0     C59843   7.144   8.398   4.653  0.1578  0.4306  0.1924
  444MOL0     C59844   7.125   8.518   4.740 -0.4960 -0.2143  0.8645
  444MOL0     C59845   7.043   8.485   4.866 -0.1250  0.1818 -0.1132
  444MOL0     C59846   6.892   8.464   4.847 -0.3369 -0.3461  0.6465
  444MOL0     C59847   6.814   8.441   4.976 -0.9006  0.8441 -0.6918
  444MOL0     C59848   6.671   8.427   4.940  0.4962  0.5464  0.1421
  444MOL0    Cl59849   6.583   8.380   5.083 -0.0548 -0.1673  0.1902
  444MOL0     C59850   7.576   8.613   4.291 -0.1551  0.2541 -1.2435
  444MOL0     C59851   7.716   8.623   4.262  1.0436  0.4416 -0.1066
  444MOL0     O59852   7.966   8.777   4.453  0.1757 -0.9028 -0.3431
  444MOL0     C59853   8.211   8.653   4.231  1.2944 -0.2193 -0.1612
  444MOL0     C59854   8.344   8.682   4.196 -0.3070 -0.5939 -0.5077
  444MOL0     N59855   8.611   9.371   3.908  0.3287 -0.4624  0.3959
  444MOL0     N59856   8.640   9.489   3.877 -0.0678 -1.0471  0.2048
  444MOL0     C59857   9.144  10.487   4.321  0.3813  0.1058  0.1752
  444MOL0     C59858   9.121  10.626   4.326 -0.6067  1.0907  1.6569
  444MOL0     C59859   9.119  11.070   4.330 -0.4786 -0.4282  0.4251
  444MOL0     C59860   9.179  11.121   4.449 -0.0704 -0.3710 -0.6059
  444MOL0     C59861   9.182  11.256   4.479  0.8211  0.5482 -0.1835
  444MOL0     C59862   9.119  11.353   4.398  0.8915 -0.3568 -1.0585
  444MOL0     O59863   9.133  11.492   4.441  0.1497 -0.3104  0.3014
  444MOL0     C59864   9.127  11.599   4.344 -0.4899 -0.1065 -0.1937
  444MOL0     C59865   9.265  11.639   4.282  0.2955  0.6127  0.4007
  444MOL0     C59866   9.383  11.659   4.378  0.5977  0.2903  0.1491
  444MOL0     C59867   9.361  11.766   4.484  0.3576  0.0851  0.3233
  444MOL0     C59868   9.478  11.767   4.567 -0.4257  0.1499 -0.6621
  444MOL0     C59869   9.580  11.754   4.631 -0.5471  0.2744  1.1119
  444MOL0     C59870   9.052  11.307   4.286  0.9889  0.3276  0.6862
  444MOL0     C59871   9.044  11.168   4.253 -0.1514 -0.4645 -0.2765
  444MOL0     C59872   8.962  11.131   4.128 -0.5877  0.3274  0.0502
  444MOL0     H59873   9.431  10.734   4.342  0.2323  0.1860  0.1875
  444MOL0     H59874   9.469  10.502   4.377 -0.6242 -1.4148  0.9487
  444MOL0     H59875   9.218  10.113   4.392  2.8531  0.4396  0.3474
  444MOL0     H59876   9.105  10.243   4.413  1.3665  0.2342  2.0134
  444MOL0     H59877   9.222  10.126   4.140  0.7771  1.9721  0.1809
  444MOL0     H59878   9.088  10.243   4.176 -0.5006 -0.0096  2.6709
  444MOL0     H59879   8.987  10.073   4.314  0.7133  3.3292  0.7509
  444MOL0     H59880   9.091   9.947   4.252 -0.3039  0.7522  2.6384
  444MOL0     H59881   8.930  10.132   4.066 -2.5568  0.1490  1.1268
  444MOL0     H59882   9.017   9.989   4.015  0.1995 -0.7882  0.1858
  444MOL0     H59883   8.863   9.865   4.203 -0.1916 -0.1043 -0.3899
  444MOL0     H59884   8.762   9.995   4.208 -0.5174  0.0459 -0.1466
  444MOL0     H59885   8.680   9.989   3.981 -1.6704 -1.1291  2.0580
  444MOL0     H59886   8.823   9.918   3.920 -0.9499 -0.4453 -1.5382
  444MOL0     H59887   8.595   9.773   3.952  0.4366 -1.7434 -1.6643
  444MOL0     H59888   8.664   9.761   4.119  3.7297  3.1586  1.7109
  444MOL0     H59889   8.836   9.705   3.860  2.1922 -1.4149 -0.7153
  444MOL0     H59890   8.881   9.670   4.025  0.4069 -0.2189 -0.5028
  444MOL0     H59891   8.872   9.435   4.110  0.2181 -3.2007 -0.8302
  444MOL0     H59892   8.793   9.194   4.148  2.9443 -2.0290 -2.1289
  444MOL0     H59893   8.620   9.208   4.140  0.7714 -2.8181  0.7731
  444MOL0     H59894   8.594   9.105   3.940  1.8998 -2.4472 -2.4328
  444MOL0     H59895   8.773   9.093   3.919  1.7151  0.6936  1.5152
  444MOL0     H59896   8.779   8.921   4.111 -1.3890  1.6500  1.5612
  444MOL0     H59897   8.670   8.865   4.002 -0.7988 -2.4013  2.6397
  444MOL0     H59898   8.466   8.978   4.090  0.5746  0.4169 -0.6281
  444MOL0     H59899   8.551   9.021   4.230 -2.4482  1.0978 -1.9147
  444MOL0     H59900   8.415   8.941   4.400  1.7468 -0.2494 -1.0012
  444MOL0     H59901   8.170   8.885   4.469  0.9039 -0.8233  0.9032
  444MOL0     H59902   7.837   8.458   4.523  1.3822  1.4972 -0.4568
  444MOL0     H59903   7.593   8.448   4.582  1.9745 -4.4309 -1.9392
  444MOL0     H59904   7.385   8.350   4.506  0.8921 -1.3280 -1.2318
  444MOL0     H59905   7.387   8.478   4.623  1.9349 -2.1446 -1.3526
  444MOL0     H59906   7.163   8.548   4.486  1.2676  0.0432 -2.4573
  444MOL0     H59907   7.164   8.385   4.433 -3.5188  1.7280 -0.1304
  444MOL0     H59908   7.052   8.344   4.630  0.1228 -0.8383  2.8981
  444MOL0     H59909   7.217   8.326   4.691  0.0421 -0.3468 -0.9988
  444MOL0     H59910   7.072   8.596   4.684  0.3558 -1.3313 -1.6358
  444MOL0     H59911   7.226   8.544   4.774  0.6450 -5.3375  2.2782
  444MOL0     H59912   7.055   8.569   4.935  3.1165 -0.1653 -0.0745
  444MOL0     H59913   7.088   8.398   4.917 -2.9643 -0.3870  1.6410
  444MOL0     H59914   6.853   8.553   4.797  0.3683  0.8566  2.1482
  444MOL0     H59915   6.890   8.381   4.776  1.5028  1.8474 -2.1990
  444MOL0     H59916   6.812   8.530   5.040 -2.2181  2.6817 -3.1322
  444MOL0     H59917   6.855   8.358   5.035 -1.7168  0.4998 -0.5982
  444MOL0     H59918   6.628   8.523   4.910  3.7362  0.7562 -5.0893
  444MOL0     H59919   6.655   8.351   4.864 -1.5844  0.3481  0.7171
  444MOL0     H59920   7.516   8.667   4.219  0.9305  1.3724 -1.3493
  444MOL0     H59921   7.734   8.663   4.162  1.9284 -2.3873 -1.1885
  444MOL0     H59922   8.178   8.566   4.175  1.9865  0.5945 -1.9407
  444MOL0     H59923   8.399   8.629   4.120  0.8973  1.8654 -1.4554
  444MOL0     H59924   9.059  10.424   4.298  0.0018 -0.4084  2.7341
  444MOL0     H59925   9.015  10.648   4.319 -0.9867 -1.0436 -0.8456
  444MOL0     H59926   9.224  11.052   4.520  0.4787  0.0745 -0.5133
  444MOL0     H59927   9.239  11.290   4.565  0.8001 -1.9733  0.9379
  444MOL0     H59928   9.082  11.683   4.399 -2.4140  0.3992 -2.3902
  444MOL0     H59929   9.059  11.579   4.261  1.6336  1.0495 -2.3056
  444MOL0     H59930   9.255  11.729   4.221 -0.1611 -0.0595 -0.5369
  444MOL0     H59931   9.290  11.558   4.213 -0.7753  1.9311 -1.5982
  444MOL0     H59932   9.465  11.696   4.317 -0.8451  2.9411 -0.3250
  444MOL0     H59933   9.410  11.559   4.414 -0.4832 -0.7226 -1.6820
  444MOL0     H59934   9.329  11.859   4.435  0.1423 -0.1064  0.0988
  444MOL0     H59935   9.281  11.744   4.555  0.5619 -1.3249  0.1476
  444MOL0     H59936   9.661  11.710   4.687 -2.3358 -1.6466  2.3332
  444MOL0     H59937   8.999  11.375   4.220  3.0360  0.1997 -1.2170
  444MOL0     H59938   8.879  11.072   4.168  1.0187 -1.1102  1.3944
  444MOL0     H59939   8.918  11.217   4.076 -1.1899  0.3890  0.6493
  444MOL0     H59940   9.012  11.069   4.053  0.4549  1.3366 -0.1021
  445MOL0     O59941   1.152  11.221   2.901  0.8855  0.3052  0.5850
  445MOL0     C59942   1.071  11.312   2.874 -0.2435  0.7667  1.6727
  445MOL0     O59943   0.943  11.282   2.835 -0.0258 -0.2441 -0.4323
  445MOL0     C59944   0.915  11.147   2.830 -0.8014  0.7008 -0.5704
  445MOL0     C59945   0.870  11.074   2.942  0.7506  0.2326 -0.3534
  445MOL0     C59946   0.858  10.932   2.926 -0.5415 -0.0025 -0.6625
  445MOL0     C59947   0.906  10.860   2.814  0.0774 -0.1097  0.4074
  445MOL0     O59948   0.910  10.723   2.796  0.0796 -0.9527  0.3420
  445MOL0     C59949   0.871  10.644   2.914  1.4576 -0.4293 -0.3394
  445MOL0     C59950   0.721  10.617   2.943  0.8307  0.5255 -0.2852
  445MOL0     C59951   0.634  10.619   2.810 -1.2962 -0.1706  0.8364
  445MOL0     C59952   0.494  10.581   2.830 -0.0838  0.2078  0.3833
  445MOL0     C59953   0.409  10.611   2.703  0.3642 -0.1004 -0.5904
  445MOL0     C59954   0.479  10.566   2.569 -0.2058 -0.5393 -0.9772
  445MOL0     C59955   0.383  10.503   2.465 -0.1582 -0.5956 -0.2854
  445MOL0     C59956   0.264  10.594   2.421 -0.8765  1.3511  0.0939
  445MOL0     N59957   0.286  10.731   2.385 -0.1146 -0.3578  0.6597
  445MOL0     C59958   0.276  10.837   2.480 -0.1911  0.6377 -0.0990
  445MOL0     C59959   0.325  10.945   2.420 -0.1522  0.1837 -0.5502
  445MOL0     C59960   0.342  11.087   2.473  0.3900  0.2151  0.0516
  445MOL0     C59961   0.441  11.082   2.601 -0.4561  0.4131 -0.4043
  445MOL0     C59962   0.571  10.988   2.580 -0.6850 -0.0838 -0.1191
  445MOL0     C59963   0.662  11.031   2.466 -0.3821  0.7248 -0.7195
  445MOL0     O59964   0.698  11.168   2.484  0.4245  0.5731 -0.4899
  445MOL0     C59965   0.764  11.232   2.387 -0.2620 -0.2325  0.2701
  445MOL0     C59966   0.832  11.168   2.283  1.1339  0.2247  0.8880
  445MOL0     C59967   0.898  11.240   2.177  0.2846  0.2115  0.8600
  445MOL0     C59968   0.894  11.382   2.175 -0.9882 -0.1121  0.0324
  445MOL0     C59969   0.972  11.466   2.081  0.8205  0.7067  0.3608
  445MOL0     O59970   0.993  11.594   2.117  0.1410  0.0691  0.1981
  445MOL0     C59971   1.081  11.671   2.041 -0.2828 -0.6751  0.2378
  445MOL0     C59972   1.022  11.795   2.000 -0.3863  0.3021  0.1438
  445MOL0     C59973   1.087  11.877   1.913 -0.6194 -0.2261 -0.5088
  445MOL0     C59974   1.214  11.854   1.881  0.5419  0.6642 -0.0180
  445MOL0     O59975   1.274  11.933   1.791  0.6339 -0.4618 -0.0014
  445MOL0     C59976   1.400  11.994   1.834 -0.2581 -0.6749 -0.5324
  445MOL0     C59977   1.517  11.977   1.722  0.5750 -0.7634  0.3661
  445MOL0     C59978   1.460  12.055   1.596  0.4460 -0.6028 -0.0672
  445MOL0     C59979   1.576  12.086   1.503  0.3791  0.1300  0.7742
  445MOL0     C59980   1.566  12.224   1.434 -0.2968 -0.8932  0.9025
  445MOL0     C59981   1.432  12.262   1.378 -0.2778  0.5436  0.2848
  445MOL0     C59982   1.434  12.389   1.287 -0.2648 -0.2243 -0.2542
  445MOL0     C59983   1.434  12.520   1.372 -0.3476  0.1216 -0.2050
  445MOL0    Cl59984   1.597  12.556   1.451 -0.2430 -0.3092  0.1293
  445MOL0     C59985   1.282  11.741   1.936 -0.3696  0.1445  0.5429
  445MOL0     C59986   1.213  11.637   2.010 -0.5556  0.1728 -0.5761
  445MOL0     O59987   0.985  11.413   1.968  0.2847 -0.3582  0.0925
  445MOL0     C59988   0.825  11.443   2.274  0.0828 -0.4622  0.3462
  445MOL0     C59989   0.771  11.377   2.384 -0.3999  0.3435 -0.2607
  445MOL0     N59990   0.370  10.912   2.299  1.3731  0.1453  0.0751
  445MOL0     N59991   0.333  10.789   2.272 -0.6013 -1.0737 -0.2960
  445MOL0     C59992   0.938  10.934   2.704  1.1197 -0.4012 -0.5245
  445MOL0     C59993   0.942  11.082   2.706 -0.3377 -0.6076 -0.6461
  445MOL0     C59994   1.122  11.454   2.885  0.7657 -0.1942  0.4174
  445MOL0     C59995   1.245  11.476   2.942 -1.1091 -0.4812  0.5025
  445MOL0     C59996   1.303  11.609   2.959  0.2008 -0.0401 -1.3326
  445MOL0     C59997   1.229  11.718   2.921  0.1592 -0.2742  0.5386
  445MOL0     O59998   1.279  11.847   2.949 -0.0223 -0.6561 -0.0890
  445MOL0     C59999   1.416  11.879   2.967 -0.2387 -0.1834 -0.2237
  445MOL0     C60000   1.445  12.027   2.928  0.1189 -0.1456 -0.5480
  445MOL0     C60001   1.397  12.047   2.774 -0.3455 -0.6635 -0.0144
  445MOL0     C60002   1.387  12.199   2.741  0.6175 -0.1247 -0.3962
  445MOL0     C60003   1.517  12.259   2.711 -0.1894 -0.4618 -0.1739
  445MOL0     C60004   1.624  12.319   2.703  1.0713 -0.1885 -0.6050
  445MOL0     C60005   1.096  11.698   2.880  0.0436 -0.2250  0.4281
  445MOL0     C60006   1.040  11.572   2.851  0.0178  0.1869 -0.8046
  445MOL0     C60007   0.907  11.577   2.782  0.3732 -0.2666  0.8396
  445MOL0     H60008   0.848  11.132   3.031  2.2802  2.7998 -1.5089
  445MOL0     H60009   0.808  10.884   3.009 -3.3046 -0.0453 -2.2277
  445MOL0     H60010   0.913  10.544   2.904 -0.9332 -1.3091 -2.4719
  445MOL0     H60011   0.910  10.681   3.009 -3.0491  0.2802  1.5081
  445MOL0     H60012   0.677  10.699   3.000 -0.4100 -0.8353  0.7997
  445MOL0     H60013   0.706  10.518   2.987  1.9410  0.8740  0.9459
  445MOL0     H60014   0.700  10.558   2.748 -0.7636  2.3105 -1.1904
  445MOL0     H60015   0.640  10.721   2.771 -0.3709 -1.1826 -1.8879
  445MOL0     H60016   0.496  10.473   2.843 -0.4309 -0.0972 -1.6657
  445MOL0     H60017   0.445  10.640   2.907 -0.8800  1.2680 -0.8813
  445MOL0     H60018   0.310  10.568   2.721  0.7688 -0.7818  0.0403
  445MOL0     H60019   0.390  10.719   2.700  0.4066 -0.0432  0.6871
  445MOL0     H60020   0.515  10.656   2.518 -3.5738  0.4069 -2.0062
  445MOL0     H60021   0.556  10.494   2.596 -2.0982 -2.3790 -0.2402
  445MOL0     H60022   0.331  10.414   2.501 -1.7282 -0.1218 -1.2656
  445MOL0     H60023   0.426  10.487   2.366 -0.5732  0.5751 -0.6767
  445MOL0     H60024   0.216  10.539   2.339 -0.7714 -0.6593  1.3299
  445MOL0     H60025   0.187  10.596   2.499  0.3635  0.7284  1.3625
  445MOL0     H60026   0.252  10.844   2.585  1.6173  2.4242  0.2645
  445MOL0     H60027   0.398  11.141   2.396  0.7261  1.0078  0.8359
  445MOL0     H60028   0.248  11.142   2.489  1.1178  1.7851 -0.8121
  445MOL0     H60029   0.474  11.185   2.614 -0.4650  0.4630 -0.7595
  445MOL0     H60030   0.381  11.062   2.690 -0.3806  0.8378 -0.2559
  445MOL0     H60031   0.549  10.884   2.555  2.6980 -1.0061  0.2857
  445MOL0     H60032   0.637  11.001   2.666  0.4900  3.0684 -1.3212
  445MOL0     H60033   0.614  11.026   2.367  2.5195 -0.9969 -2.1582
  445MOL0     H60034   0.742  10.958   2.459 -1.5178 -0.5173 -1.3509
  445MOL0     H60035   0.843  11.060   2.272  0.9991  0.4996 -4.2310
  445MOL0     H60036   0.955  11.171   2.116 -2.3219 -0.8146 -0.5493
  445MOL0     H60037   0.920  11.825   2.022 -0.3255  1.9411 -1.6052
  445MOL0     H60038   1.035  11.961   1.868 -1.2643 -0.0032  0.6165
  445MOL0     H60039   1.381  12.101   1.848  1.1013 -0.6713  1.9073
  445MOL0     H60040   1.435  11.954   1.930  0.2436 -1.2459 -0.9489
  445MOL0     H60041   1.615  12.021   1.745  1.7065 -2.2598 -1.2511
  445MOL0     H60042   1.537  11.873   1.693 -1.2798 -0.5722 -1.8336
  445MOL0     H60043   1.382  11.991   1.552 -0.4768 -0.5236  1.3533
  445MOL0     H60044   1.416  12.150   1.627  0.4831 -0.7089  0.3218
  445MOL0     H60045   1.585  12.012   1.423  0.5628  0.9131  0.0501
  445MOL0     H60046   1.672  12.092   1.554 -0.5776 -0.7491  2.7936
  445MOL0     H60047   1.637  12.230   1.351 -0.8406  0.8419  0.5159
  445MOL0     H60048   1.598  12.300   1.506  1.5369 -2.3340  1.6906
  445MOL0     H60049   1.396  12.177   1.318  0.7883 -0.6109  1.2385
  445MOL0     H60050   1.365  12.289   1.460  1.1489  0.8073  1.3954
  445MOL0     H60051   1.335  12.380   1.239  0.5953  1.1031 -2.4176
  445MOL0     H60052   1.516  12.398   1.215 -0.7617  0.6631 -0.7279
  445MOL0     H60053   1.401  12.604   1.311 -0.8842  0.6182  0.7587
  445MOL0     H60054   1.354  12.514   1.445 -3.2924  2.9943 -2.8536
  445MOL0     H60055   1.382  11.725   1.898  1.0762  1.6621  3.3439
  445MOL0     H60056   1.260  11.544   2.040  1.4478  0.8700 -1.3618
  445MOL0     H60057   0.812  11.549   2.290 -0.2893 -0.2162 -1.3920
  445MOL0     H60058   0.715  11.442   2.450  1.2328  0.1107  1.4117
  445MOL0     H60059   0.975  10.891   2.612  1.5749  1.2522 -1.1443
  445MOL0     H60060   0.966  11.141   2.619  0.3924 -0.9832 -0.7163
  445MOL0     H60061   1.313  11.398   2.974 -0.7375 -0.7198 -0.7780
  445MOL0     H60062   1.390  11.616   3.023 -1.9312 -0.3937  1.8268
  445MOL0     H60063   1.472  11.812   2.901 -0.9513 -1.2807  0.2535
  445MOL0     H60064   1.455  11.860   3.067  1.3614  0.4290 -0.6942
  445MOL0     H60065   1.547  12.065   2.940 -0.6790  1.4286  1.8795
  445MOL0     H60066   1.375  12.089   2.985 -0.0815 -0.4402 -0.4712
  445MOL0     H60067   1.295  12.008   2.766 -0.6438 -0.4898  2.1503
  445MOL0     H60068   1.457  11.989   2.703  1.3174  0.9507  0.0025
  445MOL0     H60069   1.334  12.216   2.647  1.8631  0.9504 -0.9294
  445MOL0     H60070   1.334  12.254   2.819 -0.8073 -1.3590 -0.4564
  445MOL0     H60071   1.719  12.366   2.690  0.9464  0.5243  0.8432
  445MOL0     H60072   1.029  11.783   2.869  0.5292  0.0027 -0.9191
  445MOL0     H60073   0.895  11.674   2.733  0.5191 -1.8586 -2.6952
  445MOL0     H60074   0.898  11.516   2.692  1.1022 -1.3416  1.4726
  445MOL0     H60075   0.829  11.566   2.858 -0.1639  0.2452  0.3782
  446MOL0     O60076   6.678   1.845  11.362 -0.3467  0.3668 -0.2462
  446MOL0     C60077   6.803   1.833  11.386  0.0560  0.0217  0.9310
  446MOL0     O60078   6.901   1.924  11.343  0.5330  0.1169  0.2691
  446MOL0     C60079   6.863   2.047  11.298 -0.0993 -0.1846  0.4201
  446MOL0     C60080   6.873   2.170  11.371 -0.3453  0.1919  0.0407
  446MOL0     C60081   6.825   2.287  11.319 -0.1658  0.4403  1.1104
  446MOL0     C60082   6.791   2.286  11.173  0.6909 -0.2436  0.0077
  446MOL0     O60083   6.737   2.391  11.109 -0.2703 -0.2361 -0.0572
  446MOL0     C60084   6.670   2.508  11.185 -0.4468  0.0620  0.9254
  446MOL0     C60085   6.730   2.620  11.110 -0.3016 -1.4412  0.1174
  446MOL0     C60086   6.876   2.642  11.154  1.3458  0.5643 -0.3087
  446MOL0     C60087   6.970   2.653  11.036 -0.5486 -0.0715 -0.2531
  446MOL0     C60088   7.057   2.774  11.031  0.1824  0.1573 -0.0297
  446MOL0     C60089   7.139   2.774  10.900 -0.4716 -0.3556  0.3429
  446MOL0     C60090   7.224   2.906  10.901  0.5693 -0.3231  0.0573
  446MOL0     C60091   7.295   2.910  10.764 -1.0019 -1.0684  0.6481
  446MOL0     N60092   7.388   3.024  10.786 -0.3162 -0.9966  0.6424
  446MOL0     C60093   7.520   3.018  10.820  0.2546 -0.7289 -0.0321
  446MOL0     C60094   7.563   3.143  10.827 -0.7502 -0.3014  0.0576
  446MOL0     C60095   7.712   3.187  10.820 -0.4851  0.0969 -1.0075
  446MOL0     C60096   7.738   3.333  10.857 -0.9912  0.4097  1.2794
  446MOL0     C60097   7.878   3.380  10.851 -0.4046 -0.2143 -0.3498
  446MOL0     C60098   7.957   3.337  10.982 -0.6983  0.3104  1.5010
  446MOL0     O60099   8.089   3.390  10.953  0.0939  0.2584 -0.5143
  446MOL0     C60100   8.167   3.414  11.063  0.6718 -1.4093 -0.3171
  446MOL0     C60101   8.150   3.358  11.191  0.1502 -0.2378 -0.3283
  446MOL0     C60102   8.233   3.394  11.292  0.0314  0.4711 -0.7180
  446MOL0     C60103   8.333   3.495  11.279 -0.0318  1.0525 -0.0149
  446MOL0     C60104   8.428   3.539  11.393 -0.3044 -0.1988 -0.4381
  446MOL0     O60105   8.534   3.622  11.366  0.4618  0.1379 -0.0259
  446MOL0     C60106   8.609   3.687  11.464  0.7760 -0.5684  0.7570
  446MOL0     C60107   8.716   3.623  11.511 -0.7926  0.7783  0.1472
  446MOL0     C60108   8.816   3.700  11.583 -0.5280  0.3898  0.6286
  446MOL0     C60109   8.793   3.835  11.609  0.0994  0.0860  1.0471
  446MOL0     O60110   8.895   3.904  11.674  0.0114  0.4985 -0.9210
  446MOL0     C60111   8.905   4.043  11.648 -0.3283 -0.1037 -0.8764
  446MOL0     C60112   9.048   4.079  11.672 -0.6259 -0.8269 -0.2580
  446MOL0     C60113   9.140   4.006  11.560  0.6518  0.0896 -0.7455
  446MOL0     C60114   9.282   4.071  11.565  0.1999 -0.7457  0.6391
  446MOL0     C60115   9.400   3.983  11.524  1.1706 -0.2091  0.1770
  446MOL0     C60116   9.399   3.950  11.365 -0.1004 -0.3850 -0.3524
  446MOL0     C60117   9.502   3.846  11.335  0.1066 -0.2057  0.4401
  446MOL0     C60118   9.517   3.821  11.189 -0.2920  0.2257 -0.1913
  446MOL0    Cl60119   9.526   3.971  11.083  0.1342  0.1016  0.0615
  446MOL0     C60120   8.670   3.891  11.572 -1.3158 -0.5652 -0.0057
  446MOL0     C60121   8.576   3.814  11.495  0.2182 -0.3810  0.4103
  446MOL0     O60122   8.397   3.499  11.505 -0.2464  0.6235 -0.2754
  446MOL0     C60123   8.351   3.551  11.152 -1.2656  0.4530  0.0279
  446MOL0     C60124   8.265   3.512  11.048  0.1659  0.7849  0.1463
  446MOL0     N60125   7.452   3.223  10.821 -0.2801  0.1652 -0.0222
  446MOL0     N60126   7.346   3.151  10.792 -0.7077 -0.1308  0.0840
  446MOL0     C60127   6.783   2.171  11.095 -1.0664 -0.1149  0.0355
  446MOL0     C60128   6.819   2.050  11.160 -0.4381 -0.5312  0.4348
  446MOL0     C60129   6.855   1.718  11.457 -0.2874  1.0183 -0.2255
  446MOL0     C60130   6.758   1.617  11.493  0.1643 -0.6946  0.4434
  446MOL0     C60131   6.788   1.508  11.578 -0.0801 -0.5569 -0.8978
  446MOL0     C60132   6.918   1.479  11.616 -0.0135  0.0302  0.3228
  446MOL0     O60133   6.967   1.368  11.675 -0.5409 -0.4978  0.1838
  446MOL0     C60134   6.873   1.277  11.725 -0.7680 -0.1429 -0.5009
  446MOL0     C60135   6.932   1.205  11.845  0.4678  0.5645 -0.6933
  446MOL0     C60136   7.063   1.129  11.805  0.4609 -0.3545  0.4537
  446MOL0     C60137   7.129   1.057  11.924  0.5155  0.7398 -0.2166
  446MOL0     C60138   7.215   0.954  11.884 -0.1673 -0.0697  0.8590
  446MOL0     C60139   7.288   0.860  11.847  1.6629  0.2807  0.7300
  446MOL0     C60140   7.015   1.566  11.561  0.5382  0.5527  0.3568
  446MOL0     C60141   6.992   1.683  11.489  0.2663  0.3640  1.2029
  446MOL0     C60142   7.100   1.742  11.401  0.8180  0.6313 -0.6646
  446MOL0     H60143   6.903   2.167  11.475 -1.6301  1.8380  0.4876
  446MOL0     H60144   6.825   2.373  11.386 -2.7585  1.9841 -0.6900
  446MOL0     H60145   6.562   2.501  11.168 -0.3770  2.5832 -1.2879
  446MOL0     H60146   6.690   2.521  11.292 -0.1828  0.5114  0.8251
  446MOL0     H60147   6.675   2.714  11.119 -1.2073 -1.8807 -0.6180
  446MOL0     H60148   6.721   2.593  11.004  2.0121  2.0420 -1.1860
  446MOL0     H60149   6.904   2.569  11.231 -3.3188 -0.6264  0.5717
  446MOL0     H60150   6.868   2.732  11.216  3.0425 -0.0890  0.9133
  446MOL0     H60151   7.044   2.573  11.040  2.3380  2.4595  2.2628
  446MOL0     H60152   6.911   2.644  10.945  1.5580  0.9774 -1.7982
  446MOL0     H60153   7.005   2.870  11.032 -0.4070 -0.1270  2.3784
  446MOL0     H60154   7.115   2.761  11.123 -1.3035 -2.3653  0.6515
  446MOL0     H60155   7.215   2.695  10.899 -1.1424 -1.0286  1.3341
  446MOL0     H60156   7.072   2.761  10.814  0.4441  1.2839 -0.6768
  446MOL0     H60157   7.310   2.897  10.967  0.3182  1.1631  0.6209
  446MOL0     H60158   7.170   2.997  10.930 -0.8224 -0.7796 -1.0024
  446MOL0     H60159   7.367   2.828  10.753  2.2185  1.8059 -2.3463
  446MOL0     H60160   7.219   2.906  10.685 -3.1919  0.5122  2.5215
  446MOL0     H60161   7.578   2.926  10.816  2.1012  0.3972 -0.1571
  446MOL0     H60162   7.766   3.121  10.888  0.9544  0.9508 -1.2937
  446MOL0     H60163   7.733   3.165  10.715 -0.9977 -0.4506 -1.0000
  446MOL0     H60164   7.684   3.388  10.780 -0.4228  0.9693  1.2734
  446MOL0     H60165   7.697   3.368  10.953  1.0082  0.7388  2.0694
  446MOL0     H60166   7.883   3.488  10.834 -0.9638 -0.6102 -3.9581
  446MOL0     H60167   7.919   3.339  10.758 -1.5852  0.0402 -1.0071
  446MOL0     H60168   7.957   3.229  10.999 -2.8702  0.2998  1.7476
  446MOL0     H60169   7.906   3.378  11.070 -0.7744 -1.1228  2.1585
  446MOL0     H60170   8.074   3.282  11.205  1.5837 -1.4121  1.5555
  446MOL0     H60171   8.213   3.350  11.389 -1.6594 -3.0794 -2.4878
  446MOL0     H60172   8.728   3.517  11.492 -0.8802  1.0410 -1.5496
  446MOL0     H60173   8.908   3.654  11.618  0.4274 -0.8188 -3.0017
  446MOL0     H60174   8.879   4.061  11.543  2.6290 -0.0803 -1.7008
  446MOL0     H60175   8.831   4.083  11.718 -0.1131 -1.5789  0.2553
  446MOL0     H60176   9.061   4.187  11.660 -1.9743 -0.7379 -1.1628
  446MOL0     H60177   9.075   4.054  11.774 -1.2478 -1.0015 -0.1311
  446MOL0     H60178   9.147   3.900  11.586  0.3988  0.4674  1.0299
  446MOL0     H60179   9.083   4.003  11.467  1.5802 -0.3945 -1.3076
  446MOL0     H60180   9.298   4.114  11.664  1.0432 -0.2020  0.2703
  446MOL0     H60181   9.276   4.160  11.503 -1.4736 -1.6855 -0.6263
  446MOL0     H60182   9.381   3.886  11.571  1.6461 -1.2010 -1.6072
  446MOL0     H60183   9.488   4.033  11.565  0.6657  0.1410  0.8554
  446MOL0     H60184   9.301   3.918  11.327 -1.3979  0.3090  2.1695
  446MOL0     H60185   9.420   4.040  11.306 -3.4356  0.6777 -0.1275
  446MOL0     H60186   9.481   3.750  11.384  0.0842  1.1298  3.2899
  446MOL0     H60187   9.601   3.882  11.364  1.2070 -1.6333 -1.3563
  446MOL0     H60188   9.611   3.769  11.170  1.2442  2.6449  0.3960
  446MOL0     H60189   9.437   3.749  11.167 -0.1079 -0.6165  1.6635
  446MOL0     H60190   8.657   3.994  11.603  1.5109  0.5305 -1.9729
  446MOL0     H60191   8.494   3.865  11.446  0.5191 -1.4178 -1.2263
  446MOL0     H60192   8.425   3.631  11.149  0.5466 -1.1425  0.2528
  446MOL0     H60193   8.271   3.567  10.955 -2.1282 -1.6417 -1.5608
  446MOL0     H60194   6.748   2.175  10.993 -2.8824 -2.9832  0.4409
  446MOL0     H60195   6.823   1.951  11.115  2.1708 -1.7366  3.0377
  446MOL0     H60196   6.656   1.643  11.469 -0.0602 -0.2535  1.8051
  446MOL0     H60197   6.705   1.443  11.603 -0.8926  0.3671 -1.1318
  446MOL0     H60198   6.862   1.203  11.645  1.6548  1.6045 -2.6480
  446MOL0     H60199   6.778   1.315  11.763 -0.7045  0.0073 -0.4945
  446MOL0     H60200   6.859   1.138  11.892 -1.1034  0.5673 -2.9553
  446MOL0     H60201   6.945   1.286  11.918  1.6159  1.2930 -1.6702
  446MOL0     H60202   7.123   1.215  11.775 -0.4816  0.8297  1.8400
  446MOL0     H60203   7.040   1.062  11.721  0.2092 -1.6346  1.5189
  446MOL0     H60204   7.174   1.132  11.990  0.6629 -0.8559  1.6001
  446MOL0     H60205   7.056   1.009  11.990  0.2770 -1.3848 -1.8907
  446MOL0     H60206   7.348   0.773  11.826 -0.1691 -1.5780  2.7268
  446MOL0     H60207   7.114   1.522  11.574  0.5278  1.0148  2.5103
  446MOL0     H60208   7.077   1.718  11.296 -0.3975  0.1992 -0.3161
  446MOL0     H60209   7.112   1.846  11.430  2.5717  0.2354  0.1830
  446MOL0     H60210   7.200   1.700  11.416  1.6220  2.6515 -0.1317
  447MOL0     O60211   8.985  11.468   0.110  0.3823 -0.4739  0.1951
  447MOL0     C60212   8.983  11.533   0.006 -0.1461 -0.6313 -0.5415
  447MOL0     O60213   9.093  11.586  -0.056 -0.3982 -0.4976 -0.1050
  447MOL0     C60214   9.214  11.607   0.026  0.6575 -0.6006 -1.0529
  447MOL0     C60215   9.337  11.549  -0.011 -0.5459 -0.9495  0.8172
  447MOL0     C60216   9.451  11.570   0.081  0.3852  0.4463  0.4257
  447MOL0     C60217   9.442  11.665   0.187  0.1330  0.5379  0.6840
  447MOL0     O60218   9.541  11.694   0.281 -0.5654 -0.3912 -0.5336
  447MOL0     C60219   9.677  11.652   0.269 -0.7186 -0.6836  0.4382
  447MOL0     C60220   9.765  11.701   0.382 -0.0229 -0.0701 -0.7455
  447MOL0     C60221   9.912  11.638   0.370  0.1281  0.6158 -0.2775
  447MOL0     C60222  10.019  11.738   0.419  0.7306  0.4787  0.1085
  447MOL0     C60223  10.039  11.836   0.301 -0.0033  0.6004  0.0064
  447MOL0     C60224  10.165  11.915   0.316 -0.1951 -0.7551 -0.1910
  447MOL0     C60225  10.221  12.004   0.189  0.4599  0.3412 -0.2953
  447MOL0     C60226  10.328  11.937   0.101 -0.3217  0.6374 -1.3208
  447MOL0     N60227  10.290  11.894  -0.028 -0.4284 -0.1978 -0.2780
  447MOL0     C60228  10.216  11.776  -0.050  0.8497  0.3291  0.0453
  447MOL0     C60229  10.190  11.777  -0.185 -0.3182  0.5118 -0.0628
  447MOL0     C60230  10.108  11.668  -0.254 -0.2892 -0.5243 -0.4443
  447MOL0     C60231  10.191  11.547  -0.295  0.4425  0.0175  0.0981
  447MOL0     C60232  10.265  11.486  -0.176  0.4345  0.4227  0.0527
  447MOL0     C60233  10.303  11.331  -0.210  0.0603  0.0164 -0.0989
  447MOL0     O60234  10.182  11.262  -0.183 -0.8753 -0.5750  0.8397
  447MOL0     C60235  10.172  11.135  -0.210 -0.6691  0.5325  0.2367
  447MOL0     C60236  10.277  11.047  -0.180  0.8334  1.1508 -0.6269
  447MOL0     C60237  10.253  10.908  -0.221 -0.3477 -0.3942  0.6646
  447MOL0     C60238  10.138  10.859  -0.268 -0.2610 -0.1487  0.0907
  447MOL0     C60239  10.130  10.719  -0.318 -0.1143 -0.8244 -0.3599
  447MOL0     O60240  10.247  10.646  -0.316  0.1080  0.8654  1.0238
  447MOL0     C60241  10.248  10.513  -0.355 -0.2796 -0.0758  0.5564
  447MOL0     C60242  10.364  10.460  -0.422  0.1290  0.7197  0.6563
  447MOL0     C60243  10.370  10.323  -0.468 -0.0966  0.7640 -0.4454
  447MOL0     C60244  10.270  10.228  -0.432 -0.4749  0.1479 -0.6232
  447MOL0     O60245  10.275  10.099  -0.480 -0.0452 -0.7090 -0.4104
  447MOL0     C60246  10.197   9.998  -0.404 -0.3644 -0.0821  0.9683
  447MOL0     C60247  10.076   9.957  -0.495  0.1143 -0.6990 -0.4388
  447MOL0     C60248   9.989   9.859  -0.420  0.3413 -0.2578 -0.0037
  447MOL0     C60249   9.856   9.850  -0.512 -0.4810 -0.1114 -0.4904
  447MOL0     C60250   9.739   9.788  -0.423  0.0701 -0.1186  0.0366
  447MOL0     C60251   9.630   9.731  -0.505 -0.0462  0.8545 -0.0063
  447MOL0     C60252   9.613   9.763  -0.653 -0.0806 -0.9649  1.4425
  447MOL0     C60253   9.458   9.754  -0.677 -0.0329 -0.4633 -0.2274
  447MOL0    Cl60254   9.434   9.759  -0.850 -0.0982  0.0272  0.2202
  447MOL0     C60255  10.158  10.285  -0.356 -0.0854  0.6153  0.3354
  447MOL0     C60256  10.147  10.423  -0.318 -0.4341  0.3547  0.3568
  447MOL0     O60257  10.028  10.680  -0.361  0.0140  0.2378  0.1135
  447MOL0     C60258  10.036  10.954  -0.279 -0.7698 -0.0870  0.8663
  447MOL0     C60259  10.054  11.089  -0.262  0.4273  0.5241 -0.2381
  447MOL0     N60260  10.237  11.891  -0.229 -0.9556 -0.5745  0.7118
  447MOL0     N60261  10.304  11.957  -0.141  0.3981  0.1451  1.1003
  447MOL0     C60262   9.325  11.723   0.218 -0.6737  0.8193 -0.1426
  447MOL0     C60263   9.214  11.700   0.133 -0.1505 -0.5786  0.1570
  447MOL0     C60264   8.860  11.586  -0.045  0.0649 -0.1073  0.6628
  447MOL0     C60265   8.857  11.718  -0.100 -1.0853  0.1951 -1.3211
  447MOL0     C60266   8.745  11.778  -0.148 -0.0517 -0.0600  1.5274
  447MOL0     C60267   8.620  11.712  -0.144 -0.5980 -0.3951  0.2707
  447MOL0     O60268   8.507  11.780  -0.168  0.8547 -0.0764 -0.0484
  447MOL0     C60269   8.448  11.749  -0.291  0.4731  0.4077  0.3142
  447MOL0     C60270   8.288  11.765  -0.275  0.2531 -0.5170 -0.7762
  447MOL0     C60271   8.228  11.658  -0.184 -0.3650 -0.0679 -0.2552
  447MOL0     C60272   8.076  11.672  -0.151 -0.0219  1.0115 -0.6354
  447MOL0     C60273   8.002  11.676  -0.277  0.2053 -0.7815 -0.2019
  447MOL0     C60274   7.964  11.701  -0.393 -1.0808 -0.0477  0.5676
  447MOL0     C60275   8.615  11.584  -0.082  0.5183 -0.4341  0.3966
  447MOL0     C60276   8.730  11.525  -0.023  0.3006 -0.6193  0.1063
  447MOL0     C60277   8.710  11.402   0.069  0.3864  0.0224  0.3084
  447MOL0     H60278   9.346  11.475  -0.091  0.5269 -1.7198  1.6094
  447MOL0     H60279   9.547  11.520   0.083  0.9852  1.5884  0.4036
  447MOL0     H60280   9.684  11.543   0.269  3.3420 -0.5971  2.1781
  447MOL0     H60281   9.730  11.671   0.174  0.2124  0.4253  1.1575
  447MOL0     H60282   9.736  11.669   0.482 -0.0820 -1.7228 -1.2594
  447MOL0     H60283   9.778  11.810   0.373  1.5649 -0.1497  0.2494
  447MOL0     H60284   9.918  11.607   0.265 -3.2097  0.6999 -0.5969
  447MOL0     H60285   9.923  11.547   0.431  2.4197 -0.7286 -2.4675
  447MOL0     H60286   9.992  11.794   0.509 -0.2440 -0.0281  0.1480
  447MOL0     H60287  10.109  11.683   0.447  0.3830 -0.5165 -0.6925
  447MOL0     H60288  10.032  11.780   0.208 -1.3059 -2.1162  1.6297
  447MOL0     H60289   9.971  11.921   0.294  3.0309  3.4360  1.7046
  447MOL0     H60290  10.153  11.984   0.399 -0.7494 -0.4515 -0.5120
  447MOL0     H60291  10.235  11.842   0.356  2.2946  2.5342  1.9299
  447MOL0     H60292  10.264  12.098   0.227 -0.4535  0.3131  0.8602
  447MOL0     H60293  10.141  12.044   0.127  0.5906  3.9934  1.5739
  447MOL0     H60294  10.405  12.014   0.097 -0.8467  1.2333 -0.2412
  447MOL0     H60295  10.366  11.848   0.151  1.1063  0.3703 -2.7784
  447MOL0     H60296  10.184  11.688   0.005 -3.0748  0.9948 -0.8954
  447MOL0     H60297  10.030  11.641  -0.181 -0.3097 -0.5865 -0.4899
  447MOL0     H60298  10.055  11.707  -0.342 -4.8186  0.2268  2.2528
  447MOL0     H60299  10.130  11.473  -0.347  1.3241  0.6521 -1.9500
  447MOL0     H60300  10.265  11.584  -0.366  1.5769  2.8063  2.4996
  447MOL0     H60301  10.202  11.475  -0.087 -0.4312 -1.0857 -0.7185
  447MOL0     H60302  10.362  11.534  -0.157  1.4456 -0.5176 -2.3870
  447MOL0     H60303  10.386  11.289  -0.153 -1.2129  2.8298  4.3276
  447MOL0     H60304  10.334  11.331  -0.315  1.6026 -0.7506  0.3252
  447MOL0     H60305  10.365  11.073  -0.123 -0.6460  2.2812  1.2539
  447MOL0     H60306  10.337  10.839  -0.213  0.6614  0.5537 -1.0976
  447MOL0     H60307  10.456  10.514  -0.437  0.9267 -0.3111  1.7036
  447MOL0     H60308  10.448  10.285  -0.533 -0.2814 -1.3714  0.4796
  447MOL0     H60309  10.243   9.901  -0.383 -1.1259 -1.6043 -3.2110
  447MOL0     H60310  10.163  10.028  -0.305 -0.2089 -6.4034  3.3782
  447MOL0     H60311  10.028  10.051  -0.524  2.2672  0.9836  1.1134
  447MOL0     H60312  10.109   9.911  -0.589  0.7172  1.1443 -1.1716
  447MOL0     H60313  10.042   9.764  -0.412  2.0660  0.8548  4.3101
  447MOL0     H60314   9.972   9.886  -0.316  2.4455  0.7130  0.1307
  447MOL0     H60315   9.879   9.794  -0.603 -1.0862  0.3881 -0.9636
  447MOL0     H60316   9.815   9.949  -0.535 -2.3908 -0.7540 -0.0501
  447MOL0     H60317   9.700   9.868  -0.360 -1.1150 -0.6078 -0.0442
  447MOL0     H60318   9.781   9.712  -0.357  0.2280  2.4515  3.0979
  447MOL0     H60319   9.642   9.623  -0.501 -1.1558  0.6077 -2.0716
  447MOL0     H60320   9.538   9.762  -0.455 -1.5539  1.4882 -2.9326
  447MOL0     H60321   9.650   9.692  -0.728  0.1823  0.4407  0.1885
  447MOL0     H60322   9.647   9.866  -0.668 -2.1258 -0.6031 -1.7187
  447MOL0     H60323   9.418   9.659  -0.642 -2.0404  0.8443  1.2537
  447MOL0     H60324   9.406   9.836  -0.626  1.5610  1.6156 -1.7600
  447MOL0     H60325  10.085  10.224  -0.304  0.3812 -0.0538  0.2095
  447MOL0     H60326  10.063  10.450  -0.254  0.6508 -0.0578  2.0324
  447MOL0     H60327   9.939  10.930  -0.320 -2.1311  4.6771  0.7217
  447MOL0     H60328   9.972  11.159  -0.278 -0.5383 -0.6031 -0.3924
  447MOL0     H60329   9.321  11.784   0.307  1.2937 -0.1801  0.6917
  447MOL0     H60330   9.120  11.751   0.155  0.1726  0.2948 -0.4515
  447MOL0     H60331   8.947  11.776  -0.115 -1.2111  0.0389 -2.8081
  447MOL0     H60332   8.747  11.874  -0.199  1.6828 -0.4086  0.8576
  447MOL0     H60333   8.471  11.648  -0.327 -2.8179 -0.0797 -0.7979
  447MOL0     H60334   8.477  11.823  -0.366  0.7662 -2.2330 -2.4048
  447MOL0     H60335   8.252  11.748  -0.377 -1.8571  2.4522 -0.6297
  447MOL0     H60336   8.262  11.866  -0.242  4.3408  0.6730 -0.5967
  447MOL0     H60337   8.275  11.654  -0.086 -1.1574  0.5584  0.1621
  447MOL0     H60338   8.245  11.558  -0.223  0.7504  1.0108 -2.8047
  447MOL0     H60339   8.035  11.595  -0.085  1.6805  1.5966  1.1887
  447MOL0     H60340   8.069  11.760  -0.087 -0.7041 -0.0716  0.8395
  447MOL0     H60341   7.932  11.728  -0.492 -1.5131 -0.6185  0.5469
  447MOL0     H60342   8.512  11.556  -0.063  0.9550 -1.4423  1.3169
  447MOL0     H60343   8.736  11.426   0.172  0.9444 -0.5105  0.2986
  447MOL0     H60344   8.605  11.374   0.061  0.7474 -0.9545 -3.9200
  447MOL0     H60345   8.762  11.312   0.033 -0.1451 -0.3311  0.4244
  448MOL0     O60346   7.073   9.093   6.785  0.2491 -0.3759 -0.0129
  448MOL0     C60347   7.148   9.067   6.688  0.2212  0.3036  0.2645
  448MOL0     O60348   7.285   9.072   6.691  0.3990 -0.2549 -0.4615
  448MOL0     C60349   7.351   9.104   6.805  0.3558 -0.3251 -0.0037
  448MOL0     C60350   7.388   9.002   6.903  0.9215 -0.2370  0.0290
  448MOL0     C60351   7.455   9.037   7.025  0.9352  0.5722  0.6711
  448MOL0     C60352   7.484   9.171   7.043  0.6212  0.5703  0.4642
  448MOL0     O60353   7.535   9.218   7.162 -0.0514  0.3382  0.2055
  448MOL0     C60354   7.654   9.147   7.193 -0.0114 -0.6013  0.1830
  448MOL0     C60355   7.766   9.238   7.248 -0.0309  0.6618  0.2881
  448MOL0     C60356   7.798   9.358   7.148  0.1698  1.3041 -1.0631
  448MOL0     C60357   7.875   9.459   7.233  0.7801  0.4751  0.1814
  448MOL0     C60358   8.018   9.474   7.179 -0.5503 -0.3539  0.2354
  448MOL0     C60359   8.082   9.342   7.167  0.4677 -0.3478  0.1753
  448MOL0     C60360   8.156   9.304   7.290 -0.0310  0.0301  0.1101
  448MOL0     C60361   8.230   9.177   7.285 -0.3280 -0.6192  0.2094
  448MOL0     N60362   8.141   9.069   7.261  0.1263 -0.1972 -0.1821
  448MOL0     C60363   8.124   9.008   7.136 -0.2988 -0.5371 -1.2193
  448MOL0     C60364   8.023   8.923   7.157  0.4510  0.3188  0.0765
  448MOL0     C60365   7.965   8.835   7.052  0.0004  0.2958  0.3555
  448MOL0     C60366   8.024   8.691   7.054 -0.3457  0.6401  0.4401
  448MOL0     C60367   8.178   8.689   7.024  0.9265  0.3498 -0.7488
  448MOL0     C60368   8.218   8.545   6.969 -0.3514  0.3818 -0.0599
  448MOL0     O60369   8.355   8.554   6.948 -0.4084 -0.2246 -0.4952
  448MOL0     C60370   8.430   8.445   6.992  0.5145  0.0096  0.1870
  448MOL0     C60371   8.518   8.386   6.897  0.5877  0.4926 -0.4892
  448MOL0     C60372   8.591   8.277   6.935  0.3834  0.0251  0.4618
  448MOL0     C60373   8.564   8.207   7.049  0.3482 -0.0755  0.1201
  448MOL0     C60374   8.641   8.083   7.090 -0.4678  0.3713 -0.3881
  448MOL0     O60375   8.763   8.086   7.043 -0.0156 -0.2066  0.3628
  448MOL0     C60376   8.857   8.018   7.105 -0.1390 -0.5068 -0.5976
  448MOL0     C60377   8.978   8.086   7.133  0.1872  0.6156 -0.5518
  448MOL0     C60378   9.082   8.013   7.181 -1.1315 -0.0652  0.4657
  448MOL0     C60379   9.073   7.871   7.196 -0.3147  0.6867  0.0132
  448MOL0     O60380   9.186   7.800   7.228  0.0012  0.8136  0.1150
  448MOL0     C60381   9.198   7.656   7.228 -0.1248  0.9786  0.4192
  448MOL0     C60382   9.342   7.624   7.235 -0.0590  0.3445  1.3080
  448MOL0     C60383   9.368   7.472   7.212  0.5767 -0.1825 -0.2398
  448MOL0     C60384   9.514   7.452   7.152  0.6134 -0.0907 -0.2257
  448MOL0     C60385   9.525   7.493   7.002 -0.3065  1.1215 -0.1336
  448MOL0     C60386   9.676   7.476   6.956  0.0080  0.2125  0.1163
  448MOL0     C60387   9.686   7.479   6.805  1.1118 -0.1440  0.1792
  448MOL0     C60388   9.784   7.577   6.753 -0.6550 -0.7590  0.5429
  448MOL0    Cl60389   9.954   7.512   6.767  0.2604  0.5278 -0.2800
  448MOL0     C60390   8.949   7.800   7.174 -0.1427  0.0240 -0.0700
  448MOL0     C60391   8.846   7.878   7.116 -0.0558 -0.4205 -0.5103
  448MOL0     O60392   8.593   8.014   7.177 -0.3900  0.7727  0.1759
  448MOL0     C60393   8.463   8.257   7.138 -0.7121  0.2800 -0.5515
  448MOL0     C60394   8.399   8.366   7.102 -0.2070  0.0733 -0.3996
  448MOL0     N60395   7.968   8.946   7.277  0.2972  0.7779 -1.1484
  448MOL0     N60396   8.046   9.029   7.346  0.8289  0.6549  0.7177
  448MOL0     C60397   7.448   9.262   6.948 -0.1950 -0.8606  0.1928
  448MOL0     C60398   7.377   9.231   6.831 -0.3889 -0.3528  0.4570
  448MOL0     C60399   7.083   9.032   6.561  0.9966 -0.0743  0.4966
  448MOL0     C60400   6.945   9.046   6.545  0.3218  0.8062  0.1011
  448MOL0     C60401   6.879   9.039   6.426 -0.0809 -0.3299 -0.8947
  448MOL0     C60402   6.949   8.999   6.310  0.8193  0.6308  0.4646
  448MOL0     O60403   6.887   8.964   6.187  0.5576  0.9108 -0.7081
  448MOL0     C60404   6.736   8.961   6.184 -0.1257 -0.2489 -0.3292
  448MOL0     C60405   6.690   8.926   6.040 -0.6226  0.3591 -0.9775
  448MOL0     C60406   6.751   8.798   5.978  0.3645 -0.1244  0.3088
  448MOL0     C60407   6.682   8.675   6.034 -0.3852 -0.4860  0.8809
  448MOL0     C60408   6.678   8.572   5.935  0.0338  1.4704  0.1393
  448MOL0     C60409   6.694   8.479   5.859  0.3865  0.5569 -0.2952
  448MOL0     C60410   7.082   8.971   6.324  0.4273  0.5866  0.5364
  448MOL0     C60411   7.151   8.996   6.444  0.8940  0.1075  0.7712
  448MOL0     C60412   7.295   8.938   6.443  0.1802 -0.0559  0.1274
  448MOL0     H60413   7.351   8.900   6.898 -0.6576  0.2746  0.5346
  448MOL0     H60414   7.474   8.963   7.101  0.9810  0.6272  0.7129
  448MOL0     H60415   7.631   9.055   7.248  4.3456 -1.8839  0.2013
  448MOL0     H60416   7.696   9.111   7.099  1.6847 -0.2107  0.7481
  448MOL0     H60417   7.850   9.173   7.276  1.1179  3.1549  3.1794
  448MOL0     H60418   7.731   9.278   7.344 -1.6734  1.6496 -0.6964
  448MOL0     H60419   7.701   9.392   7.112 -2.2663 -2.9174  0.8232
  448MOL0     H60420   7.849   9.329   7.055  3.1565 -0.2622  0.8969
  448MOL0     H60421   7.818   9.551   7.217 -1.6006 -0.7535  1.1210
  448MOL0     H60422   7.879   9.425   7.336 -1.0315 -0.4986 -0.0404
  448MOL0     H60423   8.023   9.511   7.076  0.8765  0.3393  0.5291
  448MOL0     H60424   8.078   9.549   7.231  0.7193 -0.0238 -1.6110
  448MOL0     H60425   8.013   9.266   7.130 -1.9002  3.2199 -3.6376
  448MOL0     H60426   8.159   9.349   7.089  0.4488  1.3256  0.2704
  448MOL0     H60427   8.082   9.294   7.370  0.4489 -3.8128  0.2462
  448MOL0     H60428   8.231   9.381   7.311 -0.9555  0.6711  1.2561
  448MOL0     H60429   8.310   9.190   7.212 -2.6925  0.1964 -2.3999
  448MOL0     H60430   8.274   9.157   7.384  0.0507 -1.5341 -0.1309
  448MOL0     H60431   8.190   9.018   7.050 -0.8789  0.0747 -1.6044
  448MOL0     H60432   7.857   8.821   7.062 -0.2216 -1.5705 -3.0762
  448MOL0     H60433   7.978   8.876   6.951 -1.8914 -1.3027 -0.5991
  448MOL0     H60434   8.005   8.633   7.145  1.4809  0.6024  0.8484
  448MOL0     H60435   7.964   8.639   6.979 -1.5146  1.0722  1.0572
  448MOL0     H60436   8.235   8.718   7.112 -0.1289 -0.7198  0.3326
  448MOL0     H60437   8.191   8.761   6.942  2.1780 -0.0757 -0.9353
  448MOL0     H60438   8.158   8.512   6.883 -4.1423 -3.0294  3.4328
  448MOL0     H60439   8.186   8.471   7.043 -0.4661  0.7158  0.2250
  448MOL0     H60440   8.552   8.413   6.798  1.1961 -4.1655 -1.7830
  448MOL0     H60441   8.662   8.249   6.858  1.4051  2.6072  0.3677
  448MOL0     H60442   8.981   8.194   7.122  0.7116  0.6519 -0.0913
  448MOL0     H60443   9.178   8.057   7.203  0.0025 -2.6149  0.9863
  448MOL0     H60444   9.153   7.612   7.318  0.7579  1.4378  1.0943
  448MOL0     H60445   9.159   7.614   7.134  0.0604  2.3398 -0.2888
  448MOL0     H60446   9.397   7.675   7.156 -0.8621 -4.2992 -2.6844
  448MOL0     H60447   9.378   7.664   7.331 -1.5248  2.0172  1.2001
  448MOL0     H60448   9.361   7.417   7.306 -2.6537  1.1893  0.4482
  448MOL0     H60449   9.293   7.430   7.145 -1.0114 -0.1110  1.4337
  448MOL0     H60450   9.546   7.348   7.159 -1.4980 -0.7225  1.0424
  448MOL0     H60451   9.586   7.519   7.199 -1.4942  1.7458  0.5988
  448MOL0     H60452   9.488   7.595   6.989 -0.5252  0.9858 -0.6109
  448MOL0     H60453   9.454   7.428   6.949  1.7883 -1.2119 -0.2227
  448MOL0     H60454   9.729   7.562   7.000  1.8975 -1.2195  0.7900
  448MOL0     H60455   9.731   7.389   6.991 -2.1029 -0.6698  1.4597
  448MOL0     H60456   9.600   7.534   6.766  1.6469  1.1164  0.7134
  448MOL0     H60457   9.700   7.383   6.755  1.1879  1.1653 -2.5245
  448MOL0     H60458   9.770   7.588   6.645 -0.1172 -0.2207  0.5232
  448MOL0     H60459   9.777   7.675   6.802 -1.1877 -1.0426  1.0516
  448MOL0     H60460   8.941   7.692   7.175 -1.4568  0.0594 -1.9790
  448MOL0     H60461   8.752   7.826   7.096  1.0066 -2.2506 -0.9447
  448MOL0     H60462   8.431   8.217   7.234  2.0562  1.0538  0.7948
  448MOL0     H60463   8.327   8.397   7.177 -0.9496 -0.2567 -0.9726
  448MOL0     H60464   7.464   9.368   6.966  2.7444 -1.3450  0.8430
  448MOL0     H60465   7.345   9.306   6.760 -0.5998  0.0962  1.0172
  448MOL0     H60466   6.883   9.082   6.626 -1.5502  0.5963 -1.1703
  448MOL0     H60467   6.771   9.037   6.443 -0.2665 -4.4291 -1.5277
  448MOL0     H60468   6.693   9.058   6.208 -0.0104 -0.6160  1.5190
  448MOL0     H60469   6.696   8.890   6.257 -2.6402  1.7222  0.3437
  448MOL0     H60470   6.692   9.006   5.965  0.7783 -1.0425 -2.4976
  448MOL0     H60471   6.583   8.909   6.054  0.2064 -4.0846  2.0272
  448MOL0     H60472   6.861   8.797   5.982  0.4289  2.3429  1.2374
  448MOL0     H60473   6.724   8.804   5.872 -1.4065 -1.6514  0.6302
  448MOL0     H60474   6.732   8.650   6.128 -0.2238 -2.5472  0.3049
  448MOL0     H60475   6.575   8.692   6.050 -0.4588 -1.2831  1.2951
  448MOL0     H60476   6.712   8.394   5.797 -2.0585 -0.6769  0.5352
  448MOL0     H60477   7.146   8.929   6.247  2.6021  3.2927  0.6568
  448MOL0     H60478   7.367   9.018   6.459  2.1317 -2.2478  3.8601
  448MOL0     H60479   7.294   8.873   6.532 -0.7836 -0.6607 -0.3010
  448MOL0     H60480   7.329   8.881   6.356  2.7569 -0.6855  1.4613
  449MOL0     O60481   9.299  11.281   5.248  0.2053  0.1319 -0.1195
  449MOL0     C60482   9.274  11.326   5.133 -0.4440  0.2905 -0.4697
  449MOL0     O60483   9.179  11.277   5.057  0.9653  0.8719  0.6204
  449MOL0     C60484   9.078  11.194   5.100  0.2372  0.4331  0.2052
  449MOL0     C60485   9.041  11.072   5.042 -0.5423  0.5692 -0.0987
  449MOL0     C60486   8.923  11.005   5.084  0.3125 -0.0562  0.5066
  449MOL0     C60487   8.847  11.070   5.189  0.6615 -0.7784  1.4730
  449MOL0     O60488   8.725  11.009   5.212 -0.2102 -0.3554 -0.4436
  449MOL0     C60489   8.622  11.066   5.289 -0.7268  0.0267 -0.4239
  449MOL0     C60490   8.506  10.969   5.295  0.1837 -0.2569 -0.0752
  449MOL0     C60491   8.377  11.036   5.357 -0.0495  1.1228  0.2174
  449MOL0     C60492   8.350  10.984   5.499  0.0428 -0.5811  0.0528
  449MOL0     C60493   8.211  11.039   5.557  0.0395  0.5479  0.8297
  449MOL0     C60494   8.227  11.194   5.580  0.7126  1.4012  0.3801
  449MOL0     C60495   8.117  11.238   5.668 -1.0635 -0.4252 -0.4335
  449MOL0     C60496   8.093  11.389   5.682 -1.3732  0.3056  0.3464
  449MOL0     N60497   8.209  11.452   5.759  0.0080 -0.5705  0.4087
  449MOL0     C60498   8.237  11.431   5.895 -0.1101  0.5212 -0.6573
  449MOL0     C60499   8.347  11.501   5.918  0.5610  0.1863 -0.0867
  449MOL0     C60500   8.391  11.514   6.059 -1.3121 -0.2912 -0.0544
  449MOL0     C60501   8.506  11.422   6.098  0.1977 -0.2618 -0.4631
  449MOL0     C60502   8.636  11.465   6.036  0.3696 -0.4987 -0.0833
  449MOL0     C60503   8.753  11.426   6.116 -1.0185 -0.3299  0.1120
  449MOL0     O60504   8.886  11.451   6.048 -0.4639  0.4061  1.2575
  449MOL0     C60505   8.996  11.417   6.124  0.3231 -0.8982  0.0904
  449MOL0     C60506   9.023  11.483   6.247  0.5134  0.4754  0.9066
  449MOL0     C60507   9.120  11.442   6.327  0.9406 -0.1053  0.3117
  449MOL0     C60508   9.199  11.327   6.302 -0.3408 -0.5119  0.9726
  449MOL0     C60509   9.315  11.293   6.387 -0.3664  0.9239  0.2856
  449MOL0     O60510   9.327  11.368   6.497 -0.7273 -0.2611  0.0788
  449MOL0     C60511   9.432  11.337   6.582 -0.4110  0.7058 -0.0414
  449MOL0     C60512   9.548  11.413   6.562  0.2090 -0.0477  0.0546
  449MOL0     C60513   9.670  11.368   6.613  0.1469  0.0815 -0.1192
  449MOL0     C60514   9.680  11.248   6.683  0.4054 -0.1858 -0.4926
  449MOL0     O60515   9.794  11.211   6.750 -0.0112 -0.4709 -0.3690
  449MOL0     C60516   9.796  11.227   6.903 -0.4944 -0.1669  0.7277
  449MOL0     C60517   9.936  11.227   6.960  0.0937  0.4306  0.4706
  449MOL0     C60518  10.042  11.137   6.901  0.1036  0.3284  0.4347
  449MOL0     C60519  10.054  11.003   6.975  0.3133  0.4750  0.7572
  449MOL0     C60520  10.189  10.932   6.942  0.3688  0.8571 -0.3311
  449MOL0     C60521  10.192  10.804   7.028 -0.0719 -0.6027 -0.6090
  449MOL0     C60522  10.274  10.833   7.160  0.2383  0.5972 -1.0738
  449MOL0     C60523  10.262  10.716   7.259 -0.1898  0.3498  0.0201
  449MOL0    Cl60524  10.365  10.739   7.408  0.1342  0.4938  0.1889
  449MOL0     C60525   9.567  11.179   6.705 -0.2990 -0.2921  0.3385
  449MOL0     C60526   9.445  11.226   6.660 -0.0588 -0.5315 -0.6742
  449MOL0     O60527   9.382  11.187   6.365 -0.4313 -0.7098 -0.2304
  449MOL0     C60528   9.177  11.272   6.173 -0.7034  0.3637 -0.1314
  449MOL0     C60529   9.083  11.319   6.087 -0.3201  0.3697 -0.2893
  449MOL0     N60530   8.394  11.563   5.807 -0.0109  0.6949 -1.2005
  449MOL0     N60531   8.309  11.536   5.711 -0.0486  0.2459 -0.2752
  449MOL0     C60532   8.888  11.189   5.252  0.0799  0.4543 -0.1973
  449MOL0     C60533   9.006  11.241   5.212  0.3916 -0.6654 -0.4408
  449MOL0     C60534   9.354  11.432   5.089  1.1729 -0.2441 -0.0792
  449MOL0     C60535   9.440  11.501   5.176  2.1714  0.6640 -0.7560
  449MOL0     C60536   9.522  11.603   5.138 -0.4146  0.6646 -1.3635
  449MOL0     C60537   9.550  11.635   5.010  0.3878  0.5651  0.1879
  449MOL0     O60538   9.659  11.714   4.976 -0.2119 -0.4249 -0.4315
  449MOL0     C60539   9.737  11.800   5.065 -0.4003 -0.1033 -1.3748
  449MOL0     C60540   9.811  11.897   4.970 -0.3429  0.0684 -0.0092
  449MOL0     C60541   9.747  12.032   4.946  0.1603 -1.1291  0.1084
  449MOL0     C60542   9.603  12.042   4.895  0.5381 -0.1232 -0.3702
  449MOL0     C60543   9.541  12.176   4.928 -0.4427  0.8189  1.0033
  449MOL0     C60544   9.507  12.293   4.948  0.8601 -1.3599  0.8327
  449MOL0     C60545   9.464  11.569   4.920  0.9139  0.3218  0.2779
  449MOL0     C60546   9.358  11.474   4.955 -0.1346  0.2276  0.5086
  449MOL0     C60547   9.269  11.427   4.838 -0.8405  0.1748 -0.8036
  449MOL0     H60548   9.107  11.039   4.962  1.5297 -1.7462  2.3786
  449MOL0     H60549   8.892  10.913   5.037  0.2536  1.1725 -2.0481
  449MOL0     H60550   8.650  11.093   5.391 -3.4240  1.5525  0.0108
  449MOL0     H60551   8.585  11.158   5.243 -2.7698  0.3291  1.6438
  449MOL0     H60552   8.528  10.870   5.338 -1.3923  0.0330  1.5366
  449MOL0     H60553   8.488  10.939   5.192 -1.6764  1.8253 -0.4292
  449MOL0     H60554   8.292  10.998   5.299 -0.0618  0.6331  0.5469
  449MOL0     H60555   8.380  11.145   5.352  1.6918  1.1557  1.2595
  449MOL0     H60556   8.361  10.875   5.504 -0.3515 -0.5905  3.3566
  449MOL0     H60557   8.431  11.022   5.563  0.1416  0.4907 -0.6858
  449MOL0     H60558   8.129  11.026   5.486  0.2135  2.3132  0.2505
  449MOL0     H60559   8.167  10.986   5.642  1.5313 -1.6984  0.2689
  449MOL0     H60560   8.324  11.216   5.626 -0.6045  2.2582  2.9387
  449MOL0     H60561   8.218  11.247   5.485  1.7011 -0.2196 -0.6722
  449MOL0     H60562   8.137  11.207   5.771 -0.3203  2.7639  0.5230
  449MOL0     H60563   8.029  11.197   5.619  0.1984 -3.0507 -0.6730
  449MOL0     H60564   8.097  11.426   5.579 -1.1122 -0.9880 -0.1328
  449MOL0     H60565   7.994  11.401   5.726 -2.4407 -0.6745 -1.6567
  449MOL0     H60566   8.168  11.384   5.965  0.7115  1.5781  0.9122
  449MOL0     H60567   8.416  11.618   6.078 -1.5091 -0.3926  0.8342
  449MOL0     H60568   8.310  11.495   6.131 -0.1486  0.4387  1.4992
  449MOL0     H60569   8.515  11.430   6.207 -3.0808 -0.2004 -0.1084
  449MOL0     H60570   8.487  11.316   6.076 -0.0306 -0.3107 -0.0471
  449MOL0     H60571   8.647  11.572   6.015  1.1971 -0.2616  1.4678
  449MOL0     H60572   8.635  11.411   5.941  2.5211  2.3343 -1.8996
  449MOL0     H60573   8.750  11.320   6.143  0.5682 -0.3046  0.4898
  449MOL0     H60574   8.749  11.490   6.205  1.5422  0.7203 -0.4279
  449MOL0     H60575   8.966  11.571   6.274 -2.7415 -1.5071  1.0879
  449MOL0     H60576   9.140  11.507   6.412  3.5978  0.3880 -0.5891
  449MOL0     H60577   9.536  11.505   6.507 -0.9710 -0.2402 -0.0383
  449MOL0     H60578   9.752  11.438   6.599 -1.8216  2.0641 -2.7563
  449MOL0     H60579   9.752  11.323   6.932 -0.2343 -0.0621  0.7786
  449MOL0     H60580   9.734  11.153   6.954 -1.2618 -0.0541 -0.0187
  449MOL0     H60581   9.968  11.329   6.937  1.3794 -0.0293  0.1155
  449MOL0     H60582   9.935  11.214   7.069 -0.8811 -0.0555  0.4150
  449MOL0     H60583  10.034  11.128   6.792 -0.0644  3.5884  0.0818
  449MOL0     H60584  10.133  11.196   6.912 -0.0531  1.1520 -2.0000
  449MOL0     H60585   9.977  10.933   6.942 -1.3362  2.7845 -0.5732
  449MOL0     H60586  10.052  11.033   7.081  1.6151  1.2395  0.5919
  449MOL0     H60587  10.281  10.988   6.958  1.0477 -0.7191  1.7040
  449MOL0     H60588  10.185  10.899   6.838 -1.4253 -1.0424  0.2555
  449MOL0     H60589  10.097  10.758   7.055  0.1977  0.1422  1.8517
  449MOL0     H60590  10.256  10.731   6.978 -0.2612 -2.0040  1.1136
  449MOL0     H60591  10.237  10.920   7.215  4.0253  2.4731 -1.1817
  449MOL0     H60592  10.377  10.867   7.146  0.4657  1.0899  1.4734
  449MOL0     H60593  10.160  10.713   7.299 -0.3237  0.2244 -0.3233
  449MOL0     H60594  10.285  10.618   7.216  0.6263  0.0424  1.1218
  449MOL0     H60595   9.568  11.075   6.736 -0.8874  0.0709  1.6334
  449MOL0     H60596   9.356  11.169   6.687  0.6953 -1.7879 -0.7673
  449MOL0     H60597   9.250  11.202   6.133 -0.6821 -1.6017  3.0562
  449MOL0     H60598   9.069  11.276   5.988 -3.3895  1.0667 -0.2430
  449MOL0     H60599   8.823  11.227   5.330  0.1678  0.0671  0.0719
  449MOL0     H60600   9.041  11.325   5.271 -3.6820 -0.7089  2.4935
  449MOL0     H60601   9.445  11.474   5.281  2.4935 -3.1140 -1.6043
  449MOL0     H60602   9.577  11.652   5.217  2.1009 -1.9140 -1.3351
  449MOL0     H60603   9.809  11.735   5.116 -1.8380 -0.5603  0.1906
  449MOL0     H60604   9.683  11.862   5.138  0.7625  2.1522 -2.3411
  449MOL0     H60605   9.855  11.845   4.885  2.5349 -0.8064  1.8517
  449MOL0     H60606   9.897  11.935   5.026  1.3612  0.3769 -2.6696
  449MOL0     H60607   9.823  12.080   4.883  1.4849 -1.9831  1.0010
  449MOL0     H60608   9.748  12.086   5.042 -0.7542 -2.0077  0.6179
  449MOL0     H60609   9.599  12.027   4.787 -4.5349 -2.0350 -0.2195
  449MOL0     H60610   9.545  11.964   4.946 -1.9676  2.5456  1.1996
  449MOL0     H60611   9.459  12.389   4.959 -0.8331 -2.1467  0.5874
  449MOL0     H60612   9.464  11.593   4.814 -0.0454  1.5512  0.5391
  449MOL0     H60613   9.301  11.327   4.810  0.3217  0.0978  0.6667
  449MOL0     H60614   9.167  11.432   4.878  0.1573 -0.9625  2.1545
  449MOL0     H60615   9.287  11.490   4.750  0.3010  1.9789  0.6454
  450MOL0     O60616   7.675   1.260   7.162 -0.2469  0.3012  0.6102
  450MOL0     C60617   7.633   1.231   7.273 -0.0216  0.0214  0.8972
  450MOL0     O60618   7.711   1.210   7.387 -0.2935 -0.1942  0.3136
  450MOL0     C60619   7.851   1.214   7.376  0.0891  0.1355  1.1878
  450MOL0     C60620   7.922   1.128   7.292  1.1225  0.4517  0.2806
  450MOL0     C60621   8.060   1.122   7.282  0.1147  0.1698 -0.2237
  450MOL0     C60622   8.135   1.206   7.378  0.0432  0.4138  0.9652
  450MOL0     O60623   8.272   1.236   7.388 -0.1188  1.1587  0.2394
  450MOL0     C60624   8.365   1.142   7.339  0.4628  0.0632  0.0580
  450MOL0     C60625   8.420   1.061   7.461 -0.1747 -0.3289 -0.2494
  450MOL0     C60626   8.549   0.979   7.428  0.2073 -0.5747 -0.4976
  450MOL0     C60627   8.603   0.897   7.546 -0.4164 -0.0557 -0.5127
  450MOL0     C60628   8.746   0.843   7.526  0.6659  0.1101 -0.3310
  450MOL0     C60629   8.860   0.944   7.528 -0.3141 -0.7229  0.7404
  450MOL0     C60630   8.871   1.051   7.638 -0.9490 -0.3893 -1.0101
  450MOL0     C60631   8.847   0.984   7.774  0.1834 -1.0537  1.0719
  450MOL0     N60632   8.902   1.059   7.881 -0.3520 -0.4406  0.7033
  450MOL0     C60633   8.903   1.198   7.889 -0.1332  0.3576 -0.0208
  450MOL0     C60634   8.974   1.229   8.001  0.8824  0.7788  0.2257
  450MOL0     C60635   8.976   1.358   8.080  0.3463 -0.7974  0.6056
  450MOL0     C60636   9.030   1.473   7.993  0.1604 -0.3091 -0.2438
  450MOL0     C60637   8.994   1.613   8.055  0.0365 -0.1674 -0.8772
  450MOL0     C60638   9.043   1.633   8.202  0.8011  0.7153  0.6187
  450MOL0     O60639   9.039   1.762   8.248  0.1600 -0.3828 -0.3828
  450MOL0     C60640   9.116   1.780   8.361  1.2333 -0.1944 -0.7820
  450MOL0     C60641   9.113   1.683   8.462  0.5004 -0.4753 -0.1979
  450MOL0     C60642   9.195   1.690   8.569 -0.1659  0.3124 -0.5402
  450MOL0     C60643   9.276   1.806   8.592 -0.6286 -0.1577  0.3695
  450MOL0     C60644   9.365   1.825   8.703 -0.1776 -0.4440  0.6442
  450MOL0     O60645   9.467   1.924   8.689  0.0005 -0.0361  0.1285
  450MOL0     C60646   9.547   1.960   8.796 -0.0794 -0.1786 -0.8230
  450MOL0     C60647   9.622   1.879   8.873  0.8072 -0.3835  0.0147
  450MOL0     C60648   9.698   1.937   8.972  0.1559  0.5215  0.3967
  450MOL0     C60649   9.704   2.071   8.987 -0.8855 -1.1644 -0.1895
  450MOL0     O60650   9.790   2.122   9.081  0.1718  0.0454  0.2124
  450MOL0     C60651   9.720   2.163   9.200 -1.0416 -0.3013 -0.0898
  450MOL0     C60652   9.803   2.150   9.326 -1.1707 -0.1800 -0.0680
  450MOL0     C60653   9.839   2.002   9.341  0.1386  0.6721 -0.4114
  450MOL0     C60654   9.895   1.962   9.478  0.9367 -0.6497  0.5935
  450MOL0     C60655  10.037   1.905   9.464  0.6507 -0.0030 -1.1169
  450MOL0     C60656  10.113   1.883   9.598 -0.0879 -0.5017  0.6788
  450MOL0     C60657  10.057   1.758   9.670 -0.3106 -0.5043 -0.9352
  450MOL0     C60658  10.076   1.638   9.585 -0.2553  0.0909  0.4779
  450MOL0    Cl60659  10.146   1.499   9.689  0.1055  0.1330 -0.0454
  450MOL0     C60660   9.626   2.158   8.910 -0.3170  0.3212  0.3083
  450MOL0     C60661   9.540   2.100   8.818 -0.1849  0.0873 -0.3815
  450MOL0     O60662   9.333   1.770   8.811  0.2627 -0.5589 -0.0166
  450MOL0     C60663   9.260   1.910   8.491 -0.2337  0.3545 -0.1877
  450MOL0     C60664   9.175   1.899   8.381  0.2496  0.1191 -0.3507
  450MOL0     N60665   9.035   1.113   8.038  0.4528  0.5917  0.0819
  450MOL0     N60666   8.991   1.010   7.970 -0.1540  0.1688 -0.5190
  450MOL0     C60667   8.063   1.282   7.468  0.6920 -0.0963 -0.4273
  450MOL0     C60668   7.919   1.295   7.469 -0.7800 -0.7270 -0.0321
  450MOL0     C60669   7.487   1.227   7.294 -0.6178  0.0019 -0.0134
  450MOL0     C60670   7.447   1.177   7.419  0.2384 -0.8376 -0.1051
  450MOL0     C60671   7.315   1.161   7.447 -0.1242 -0.0051  0.6731
  450MOL0     C60672   7.219   1.177   7.342  0.1888  0.1027  0.2769
  450MOL0     O60673   7.085   1.149   7.374  0.1139 -0.2890 -0.3051
  450MOL0     C60674   7.050   1.010   7.386 -1.2181 -0.4805  0.9684
  450MOL0     C60675   6.947   0.982   7.493 -0.2595 -0.2129 -0.4863
  450MOL0     C60676   6.887   0.842   7.475 -0.4876 -0.9151 -0.3720
  450MOL0     C60677   6.797   0.816   7.595 -0.6309  0.3530  1.1785
  450MOL0     C60678   6.749   0.679   7.610  0.1976 -0.2566  0.1346
  450MOL0     C60679   6.731   0.561   7.619  0.0153  0.3726 -0.8503
  450MOL0     C60680   7.257   1.232   7.219  1.4038  0.1727  0.6723
  450MOL0     C60681   7.393   1.259   7.193 -0.0936 -0.8364 -0.2871
  450MOL0     C60682   7.416   1.323   7.054 -0.5567  0.5986  0.4000
  450MOL0     H60683   7.867   1.058   7.229  2.2183 -0.7863  0.6578
  450MOL0     H60684   8.111   1.065   7.205 -1.4347  0.3418 -1.4180
  450MOL0     H60685   8.325   1.087   7.254  0.3807 -0.1055  0.2067
  450MOL0     H60686   8.458   1.187   7.301  2.9768 -1.7072  3.4813
  450MOL0     H60687   8.351   0.988   7.506  1.2496 -0.1028  2.4984
  450MOL0     H60688   8.440   1.134   7.539  0.5663  0.2067 -0.9351
  450MOL0     H60689   8.622   1.047   7.383  0.4007  0.8269  1.8160
  450MOL0     H60690   8.508   0.915   7.349 -2.2838  1.0821 -0.6732
  450MOL0     H60691   8.593   0.948   7.642 -1.4171  1.2413 -1.2795
  450MOL0     H60692   8.540   0.810   7.563  1.1466 -1.6623 -2.4058
  450MOL0     H60693   8.759   0.771   7.608 -0.0457  1.0826  0.6658
  450MOL0     H60694   8.734   0.787   7.433 -2.1648  1.2569 -0.7526
  450MOL0     H60695   8.960   0.899   7.529 -0.0057 -0.0604  1.7630
  450MOL0     H60696   8.862   0.992   7.430  2.3312 -3.9437 -0.9809
  450MOL0     H60697   8.782   1.114   7.628 -4.5624 -4.2774  2.5892
  450MOL0     H60698   8.969   1.098   7.625 -0.9238 -1.0158 -3.5511
  450MOL0     H60699   8.742   0.960   7.792  0.0129 -1.5609 -0.4727
  450MOL0     H60700   8.894   0.885   7.775 -1.2514 -1.7713  0.8250
  450MOL0     H60701   8.842   1.267   7.830 -0.3452  1.3100  1.2699
  450MOL0     H60702   8.870   1.377   8.102 -0.3106 -1.0552 -2.0579
  450MOL0     H60703   9.031   1.353   8.175  1.5315 -1.6517 -0.1067
  450MOL0     H60704   9.139   1.461   7.983  0.1321  0.1518 -1.2238
  450MOL0     H60705   8.993   1.471   7.890 -3.0056  1.4511  0.7303
  450MOL0     H60706   8.887   1.635   8.054 -0.0920 -0.5822  0.8883
  450MOL0     H60707   9.046   1.686   7.992  0.8488 -0.1466 -0.1944
  450MOL0     H60708   9.148   1.605   8.209  1.2212  2.6059  3.5581
  450MOL0     H60709   8.977   1.568   8.261 -1.3201  2.1809 -0.0174
  450MOL0     H60710   9.057   1.591   8.459 -1.2416  0.5535 -2.8844
  450MOL0     H60711   9.212   1.616   8.647  2.7211  2.0946  0.6741
  450MOL0     H60712   9.623   1.771   8.857  1.8512 -0.2216 -1.1573
  450MOL0     H60713   9.757   1.873   9.037 -1.3815 -0.4693  0.8682
  450MOL0     H60714   9.685   2.265   9.181  1.4082  0.5604 -0.2649
  450MOL0     H60715   9.629   2.102   9.208 -1.7929  0.5131 -1.7236
  450MOL0     H60716   9.888   2.218   9.318 -0.9858 -0.5360 -1.2505
  450MOL0     H60717   9.736   2.187   9.404 -0.4925  1.1125 -0.0788
  450MOL0     H60718   9.750   1.940   9.329  1.8740 -2.1049  0.0313
  450MOL0     H60719   9.911   1.989   9.259 -1.0305 -0.3551 -1.3089
  450MOL0     H60720   9.823   1.890   9.516  0.7993 -1.0018 -0.2950
  450MOL0     H60721   9.893   2.051   9.542  2.4194 -1.2450  1.4978
  450MOL0     H60722  10.105   1.977   9.418  2.4358  1.1994  2.9483
  450MOL0     H60723  10.037   1.811   9.407  0.4836 -2.7295  2.9309
  450MOL0     H60724  10.220   1.870   9.580  0.6064  2.1283  2.3415
  450MOL0     H60725  10.094   1.975   9.654  3.9956  1.4199 -0.6711
  450MOL0     H60726   9.951   1.772   9.692 -0.0675  3.0711 -1.5119
  450MOL0     H60727  10.117   1.733   9.759 -1.0637  0.2558 -0.1961
  450MOL0     H60728   9.987   1.616   9.526  2.0148  2.4560 -4.3850
  450MOL0     H60729  10.151   1.668   9.512 -0.2032  2.3741  1.3657
  450MOL0     H60730   9.644   2.263   8.932 -0.5485 -0.2531  3.7370
  450MOL0     H60731   9.491   2.177   8.759 -2.6583  0.1180  1.5540
  450MOL0     H60732   9.331   1.992   8.504  2.9424 -2.0890 -0.7162
  450MOL0     H60733   9.175   1.966   8.296 -2.0045 -0.5938 -0.9907
  450MOL0     H60734   8.122   1.343   7.536  2.4649 -0.3393 -1.6789
  450MOL0     H60735   7.866   1.351   7.545  1.8277  1.9187  0.0053
  450MOL0     H60736   7.519   1.168   7.500  0.2847  1.0755  0.1011
  450MOL0     H60737   7.290   1.123   7.545 -1.1621  0.5482  0.6417
  450MOL0     H60738   7.139   0.948   7.400 -1.6687 -1.3782 -0.0369
  450MOL0     H60739   6.994   0.981   7.297  0.1892  2.0272 -0.8809
  450MOL0     H60740   6.873   1.063   7.492  1.0371  1.0348 -2.2413
  450MOL0     H60741   7.004   0.987   7.587  0.8892  0.5800 -1.1904
  450MOL0     H60742   6.965   0.766   7.482  0.2412 -0.1751 -0.3287
  450MOL0     H60743   6.827   0.831   7.384 -2.1076 -0.7919  0.6316
  450MOL0     H60744   6.844   0.849   7.688  1.7570  2.6886 -0.7005
  450MOL0     H60745   6.698   0.864   7.592 -0.2451  1.1240 -0.6589
  450MOL0     H60746   6.699   0.460   7.633  0.0677  0.5122  0.4998
  450MOL0     H60747   7.183   1.241   7.141  0.4009  0.4020  1.6267
  450MOL0     H60748   7.322   1.364   7.015  0.2574  1.4575 -0.7256
  450MOL0     H60749   7.489   1.402   7.071 -0.2944  0.3858  0.2622
  450MOL0     H60750   7.466   1.264   6.977  1.5066  3.6142 -0.7477
  451MOL0     O60751   0.709   8.275   8.970  0.0387  0.1848 -0.2459
  451MOL0     C60752   0.770   8.235   8.873  0.0829 -0.2036  0.9480
  451MOL0     O60753   0.711   8.224   8.747 -0.0568  0.0967  0.5821
  451MOL0     C60754   0.592   8.276   8.713  0.5597  0.3924  0.5776
  451MOL0     C60755   0.487   8.239   8.796  0.2098 -0.1751 -0.3286
  451MOL0     C60756   0.364   8.288   8.783  0.5075  0.6956  0.3130
  451MOL0     C60757   0.331   8.372   8.675 -1.2951 -1.2087 -0.6727
  451MOL0     O60758   0.202   8.419   8.671 -0.0735  0.4597 -0.0223
  451MOL0     C60759   0.142   8.410   8.540  0.6863 -0.0875  0.2002
  451MOL0     C60760   0.010   8.481   8.544 -0.1701  0.7010 -0.3063
  451MOL0     C60761  -0.098   8.426   8.447 -0.0665 -0.3426 -0.4551
  451MOL0     C60762  -0.243   8.478   8.482 -1.1940  0.6778  0.1515
  451MOL0     C60763  -0.340   8.445   8.370  0.1020 -0.0773  0.0992
  451MOL0     C60764  -0.491   8.463   8.396  0.0824  0.0922 -0.4770
  451MOL0     C60765  -0.593   8.411   8.296 -0.5726  0.1894 -0.6400
  451MOL0     C60766  -0.585   8.487   8.164 -0.2517 -0.1488 -0.4569
  451MOL0     N60767  -0.619   8.394   8.056 -0.9572  0.2182  0.6056
  451MOL0     C60768  -0.745   8.356   8.007 -0.4801 -0.0384 -0.3819
  451MOL0     C60769  -0.721   8.250   7.925  0.4263 -0.3842  1.0278
  451MOL0     C60770  -0.833   8.175   7.847 -0.2546  0.2367  0.3490
  451MOL0     C60771  -0.788   8.089   7.724 -0.3850  0.2396 -1.4416
  451MOL0     C60772  -0.733   8.178   7.610 -0.3034 -0.5916  0.7670
  451MOL0     C60773  -0.649   8.111   7.496  0.0235  0.3344  0.1578
  451MOL0     O60774  -0.579   8.196   7.408 -0.3094  0.9071  0.2916
  451MOL0     C60775  -0.451   8.231   7.434 -0.5121  0.6186 -0.0880
  451MOL0     C60776  -0.386   8.266   7.324  0.2163  0.6156 -0.5204
  451MOL0     C60777  -0.258   8.328   7.325 -0.3840 -0.0251 -0.3334
  451MOL0     C60778  -0.209   8.362   7.450  0.9829 -0.7565 -0.2839
  451MOL0     C60779  -0.097   8.462   7.451 -0.1989  0.4896  0.4153
  451MOL0     O60780  -0.049   8.505   7.564  0.1096  0.1699 -0.7767
  451MOL0     C60781   0.079   8.575   7.558  0.8242 -0.2898  0.7236
  451MOL0     C60782   0.195   8.513   7.511 -0.0585  0.2269 -0.3266
  451MOL0     C60783   0.308   8.594   7.508 -0.9291  0.3671  0.2559
  451MOL0     C60784   0.309   8.733   7.548 -0.2775  0.9378  0.8804
  451MOL0     O60785   0.424   8.796   7.531  0.0516  0.4567  0.0534
  451MOL0     C60786   0.460   8.891   7.629 -1.0190  0.2264 -0.1527
  451MOL0     C60787   0.608   8.868   7.637  0.5728  0.8836  0.6691
  451MOL0     C60788   0.688   8.967   7.719  0.6405 -0.4759 -0.1790
  451MOL0     C60789   0.836   8.963   7.684  0.4477  0.0869  0.5268
  451MOL0     C60790   0.895   8.826   7.715 -0.0534  0.7373 -0.9912
  451MOL0     C60791   0.942   8.795   7.871  0.5061 -0.1863 -0.2906
  451MOL0     C60792   1.042   8.681   7.893 -1.0202  0.7520  1.2395
  451MOL0     C60793   1.084   8.690   8.042  0.7454 -0.2850  0.7495
  451MOL0    Cl60794   1.198   8.562   8.085  0.0983 -0.0451 -0.7145
  451MOL0     C60795   0.192   8.789   7.595 -0.9388 -0.0189  1.0333
  451MOL0     C60796   0.081   8.709   7.606 -0.7021  0.7847 -0.2163
  451MOL0     O60797  -0.053   8.484   7.341 -0.2806 -0.5062 -0.2300
  451MOL0     C60798  -0.264   8.306   7.564 -0.6740 -0.7636  0.5555
  451MOL0     C60799  -0.375   8.230   7.555  0.0946  0.4074  0.1197
  451MOL0     N60800  -0.584   8.224   7.915 -0.2227 -0.0874  0.0755
  451MOL0     N60801  -0.526   8.315   7.994 -0.0035 -0.2632  0.2068
  451MOL0     C60802   0.438   8.414   8.590  0.7615 -0.3495 -0.2457
  451MOL0     C60803   0.571   8.364   8.610  0.4055 -0.3343  0.5052
  451MOL0     C60804   0.914   8.203   8.873 -0.7919  0.3756 -0.4617
  451MOL0     C60805   0.992   8.248   8.765 -0.0071 -0.3912 -0.3100
  451MOL0     C60806   1.127   8.230   8.761  0.0262  1.2482 -0.1925
  451MOL0     C60807   1.195   8.145   8.856  0.5354  1.2461 -0.4749
  451MOL0     O60808   1.327   8.120   8.834 -0.0514  0.8819 -0.4331
  451MOL0     C60809   1.420   8.229   8.788  0.2018  1.0099  0.7810
  451MOL0     C60810   1.446   8.204   8.638  0.0246 -0.1927 -0.0410
  451MOL0     C60811   1.596   8.169   8.601  0.4842 -0.0116 -0.5488
  451MOL0     C60812   1.603   8.008   8.619  0.3144  0.2589 -0.7248
  451MOL0     C60813   1.607   7.950   8.758  0.2917  0.2798 -0.3870
  451MOL0     C60814   1.616   7.895   8.862 -0.6820  0.6617  0.4841
  451MOL0     C60815   1.112   8.088   8.959  0.4835  1.3503 -0.6839
  451MOL0     C60816   0.972   8.113   8.966  0.3765  0.1956 -0.5747
  451MOL0     C60817   0.891   8.042   9.075  0.3633  0.0497  0.1027
  451MOL0     H60818   0.488   8.170   8.880 -0.2132 -2.2084 -1.9172
  451MOL0     H60819   0.285   8.271   8.855 -1.6903  0.8125 -1.9447
  451MOL0     H60820   0.197   8.455   8.456  2.3706 -2.4930 -0.0825
  451MOL0     H60821   0.126   8.307   8.507  2.1968  0.2067 -1.6942
  451MOL0     H60822   0.014   8.590   8.542 -2.8728  1.0052  2.5766
  451MOL0     H60823  -0.030   8.460   8.644 -1.6810 -1.2637 -1.2493
  451MOL0     H60824  -0.086   8.317   8.439 -0.1211 -0.4694  0.9615
  451MOL0     H60825  -0.075   8.473   8.352  0.1826 -1.4737 -0.9759
  451MOL0     H60826  -0.279   8.422   8.569  0.8051 -1.9957 -0.6262
  451MOL0     H60827  -0.238   8.584   8.507  0.9590  0.4923  0.7178
  451MOL0     H60828  -0.318   8.517   8.290 -0.7078  1.9376  1.6085
  451MOL0     H60829  -0.341   8.345   8.325 -2.2365 -0.1119  0.0922
  451MOL0     H60830  -0.509   8.428   8.498 -0.3646  0.5564 -0.3952
  451MOL0     H60831  -0.517   8.569   8.405 -1.0268 -0.2089 -0.0597
  451MOL0     H60832  -0.693   8.413   8.342 -0.1935  2.5527  0.2098
  451MOL0     H60833  -0.561   8.308   8.276  0.6252  0.4599 -0.1828
  451MOL0     H60834  -0.652   8.572   8.175  1.0220  0.5474  2.9245
  451MOL0     H60835  -0.485   8.525   8.139 -0.3058 -0.2392 -0.8314
  451MOL0     H60836  -0.843   8.386   8.042 -0.6728 -1.3886  0.3018
  451MOL0     H60837  -0.890   8.104   7.908 -2.1890  2.0705  0.8153
  451MOL0     H60838  -0.900   8.249   7.802  0.5907  1.7235  1.4405
  451MOL0     H60839  -0.701   8.032   7.760  0.8743  2.9607  0.1269
  451MOL0     H60840  -0.859   8.020   7.678  0.0206 -0.8818 -0.4363
  451MOL0     H60841  -0.667   8.252   7.655 -0.3674 -0.7939  1.2023
  451MOL0     H60842  -0.814   8.225   7.554  2.9267  3.6325 -0.8440
  451MOL0     H60843  -0.724   8.049   7.446  0.6494 -1.6361  1.4932
  451MOL0     H60844  -0.575   8.040   7.535  3.3450  2.0318 -2.5727
  451MOL0     H60845  -0.435   8.245   7.229  0.9351  0.7103 -0.9262
  451MOL0     H60846  -0.194   8.344   7.238  5.0192 -0.0609  3.1375
  451MOL0     H60847   0.188   8.411   7.475  1.8058  1.1885 -3.8502
  451MOL0     H60848   0.392   8.557   7.449 -0.9278  0.0251  0.4658
  451MOL0     H60849   0.438   8.994   7.601 -3.2168  1.5179  5.0865
  451MOL0     H60850   0.415   8.869   7.726 -1.5159  0.0054 -0.4226
  451MOL0     H60851   0.613   8.768   7.680 -2.9031  0.3045  0.0699
  451MOL0     H60852   0.641   8.856   7.533 -1.0739 -0.1071  0.2139
  451MOL0     H60853   0.657   9.070   7.700  2.4995  0.3001  0.6314
  451MOL0     H60854   0.674   8.948   7.826  3.5272 -0.5942  0.2721
  451MOL0     H60855   0.893   9.040   7.737  0.1718  1.0150 -0.4767
  451MOL0     H60856   0.843   8.972   7.575 -3.7001 -3.2031 -0.2786
  451MOL0     H60857   0.982   8.829   7.649 -0.1452 -0.2492 -1.1569
  451MOL0     H60858   0.834   8.746   7.674  1.6550 -0.1748 -1.8573
  451MOL0     H60859   0.983   8.889   7.909  0.3974 -0.1520 -0.2574
  451MOL0     H60860   0.862   8.771   7.941  1.6767  2.1959  2.0497
  451MOL0     H60861   1.131   8.694   7.831 -0.0553 -2.1239  1.8892
  451MOL0     H60862   0.991   8.587   7.870 -1.4115  1.7386 -2.6160
  451MOL0     H60863   1.136   8.786   8.045  0.5368  0.0316 -2.2567
  451MOL0     H60864   0.995   8.694   8.105 -1.2473 -0.4380 -1.8582
  451MOL0     H60865   0.182   8.894   7.619 -2.1134  0.1469 -0.1063
  451MOL0     H60866  -0.009   8.754   7.647 -0.7231 -0.7729  1.5835
  451MOL0     H60867  -0.213   8.328   7.657 -0.6681  0.1193  0.3545
  451MOL0     H60868  -0.424   8.197   7.646 -2.6385  3.4713 -0.0217
  451MOL0     H60869   0.412   8.502   8.532  1.9271  0.6151  0.6237
  451MOL0     H60870   0.657   8.398   8.553  1.2328 -2.1588  0.6005
  451MOL0     H60871   0.935   8.292   8.684 -0.7907 -1.7121 -0.4989
  451MOL0     H60872   1.180   8.269   8.674  0.2086  0.4290 -0.4590
  451MOL0     H60873   1.512   8.243   8.846  0.4497  0.4420  0.5346
  451MOL0     H60874   1.369   8.325   8.798 -0.0452  1.2215 -1.9600
  451MOL0     H60875   1.431   8.302   8.592  0.0578 -0.3239 -0.3319
  451MOL0     H60876   1.382   8.126   8.596  0.5712 -0.7975  0.2234
  451MOL0     H60877   1.655   8.225   8.675  4.9457  0.3222 -3.9116
  451MOL0     H60878   1.629   8.200   8.502 -2.0387 -1.2966 -1.8594
  451MOL0     H60879   1.517   7.968   8.565 -2.2593  2.8733  1.0700
  451MOL0     H60880   1.692   7.971   8.569  0.0010  1.9814 -2.7251
  451MOL0     H60881   1.626   7.821   8.939 -1.0782  0.3683  0.2564
  451MOL0     H60882   1.147   8.019   9.035 -2.5174 -1.9914 -2.0613
  451MOL0     H60883   0.855   7.947   9.034  1.6544  0.2329 -1.5515
  451MOL0     H60884   0.949   8.007   9.161 -1.3205 -3.9087 -0.1491
  451MOL0     H60885   0.810   8.100   9.121  1.0800 -0.3682  1.9963
  452MOL0     O60886   8.136   9.479   9.554 -0.8748  0.7118 -0.4958
  452MOL0     C60887   8.216   9.546   9.485  0.4475 -1.8988 -0.0683
  452MOL0     O60888   8.233   9.547   9.349 -0.0387 -0.7163  0.0132
  452MOL0     C60889   8.206   9.426   9.287  0.4727  0.2038  0.4812
  452MOL0     C60890   8.109   9.414   9.178 -0.0187 -0.4743  0.4946
  452MOL0     C60891   8.074   9.286   9.137  0.2114  1.1582  0.0328
  452MOL0     C60892   8.116   9.167   9.196  0.1849  0.1509 -0.3937
  452MOL0     O60893   8.074   9.050   9.145 -0.3673  0.4079  0.0819
  452MOL0     C60894   8.138   9.025   9.019  0.8681 -1.0845 -0.2306
  452MOL0     C60895   8.146   8.872   9.014 -0.2057  0.2997  0.5584
  452MOL0     C60896   8.210   8.821   8.875 -0.2806  0.7000 -0.5814
  452MOL0     C60897   8.365   8.844   8.867 -0.0842 -0.8278  0.0111
  452MOL0     C60898   8.438   8.782   8.740  0.6349 -0.3371 -0.0893
  452MOL0     C60899   8.393   8.831   8.608  0.1559 -0.4938 -0.2987
  452MOL0     C60900   8.381   8.980   8.584  0.1459 -0.3862 -0.6910
  452MOL0     C60901   8.514   9.054   8.613  0.5701  0.8506  0.4394
  452MOL0     N60902   8.629   9.014   8.527 -0.1998 -0.2104  0.6367
  452MOL0     C60903   8.610   9.001   8.396 -0.0455  0.5229 -1.1223
  452MOL0     C60904   8.721   8.948   8.341 -0.5968  0.8801 -0.4633
  452MOL0     C60905   8.736   8.892   8.186  0.4282  0.4544  0.0479
  452MOL0     C60906   8.860   8.916   8.107  0.1527 -0.4340 -0.1879
  452MOL0     C60907   8.986   8.855   8.153 -0.0936  0.6234 -0.8321
  452MOL0     C60908   9.097   8.848   8.053 -0.2670 -1.3538  0.4286
  452MOL0     O60909   9.146   8.972   7.996  0.4462 -0.0138  0.2124
  452MOL0     C60910   9.248   9.051   8.046 -0.6758 -0.9107 -0.2853
  452MOL0     C60911   9.313   9.044   8.176  0.0635  0.7366 -0.7435
  452MOL0     C60912   9.419   9.123   8.204 -0.7595  0.7882 -0.0403
  452MOL0     C60913   9.480   9.215   8.114  1.2072 -0.3161  0.0109
  452MOL0     C60914   9.598   9.293   8.143 -0.7232  0.4130 -0.0814
  452MOL0     O60915   9.660   9.345   8.031 -0.0149  0.3634 -0.4607
  452MOL0     C60916   9.784   9.410   8.025 -0.1301  0.1596 -0.7404
  452MOL0     C60917   9.885   9.386   8.127  1.1060 -0.5364  0.5836
  452MOL0     C60918  10.007   9.454   8.126  0.0024 -0.1149  0.0563
  452MOL0     C60919  10.024   9.563   8.042  0.3721 -0.4948  0.7927
  452MOL0     O60920  10.131   9.645   8.028  0.3839  0.3815 -0.2193
  452MOL0     C60921  10.230   9.630   8.128  0.3281 -0.2033 -0.0741
  452MOL0     C60922  10.336   9.735   8.124 -0.2777  0.3884  0.5847
  452MOL0     C60923  10.383   9.773   7.985  0.5146  0.2364 -0.6046
  452MOL0     C60924  10.445   9.918   7.967  0.3153  0.7126 -0.3394
  452MOL0     C60925  10.512   9.924   7.828  0.1930 -0.3521  0.0143
  452MOL0     C60926  10.603  10.049   7.824 -0.6966  0.1998  0.2980
  452MOL0     C60927  10.672  10.069   7.680  0.4991  0.1690 -0.4611
  452MOL0     C60928  10.786  10.169   7.698  0.3331  0.1771 -0.2519
  452MOL0    Cl60929  10.875  10.197   7.543  0.1569  0.2456  0.2685
  452MOL0     C60930   9.926   9.594   7.946  0.5279  0.5304 -0.2352
  452MOL0     C60931   9.805   9.521   7.941  0.6099 -0.7586  0.0047
  452MOL0     O60932   9.628   9.309   8.263 -0.6494  0.6116  0.9236
  452MOL0     C60933   9.417   9.224   7.984  0.4897 -0.0831 -0.5899
  452MOL0     C60934   9.296   9.142   7.953 -0.7526 -0.6965  0.4144
  452MOL0     N60935   8.811   8.942   8.452 -0.3158 -0.5215  0.2937
  452MOL0     N60936   8.752   8.976   8.560 -0.1169  0.5413  0.9555
  452MOL0     C60937   8.218   9.179   9.287  0.1354  0.5591 -0.4311
  452MOL0     C60938   8.248   9.309   9.348  0.0980  0.3730 -0.0827
  452MOL0     C60939   8.286   9.653   9.568  0.0760 -0.1546  0.5285
  452MOL0     C60940   8.224   9.708   9.676 -0.4291 -0.6867  0.2818
  452MOL0     C60941   8.292   9.803   9.763 -0.2805  0.6858  0.8634
  452MOL0     C60942   8.412   9.861   9.720 -0.1947 -0.1966  0.1598
  452MOL0     O60943   8.476   9.958   9.794  0.5268  0.0250 -0.5819
  452MOL0     C60944   8.530  10.067   9.727  0.3070 -0.2429 -0.0340
  452MOL0     C60945   8.580  10.163   9.833 -0.6145 -1.0181  0.0324
  452MOL0     C60946   8.642  10.286   9.768  0.5046  0.1365 -0.3580
  452MOL0     C60947   8.781  10.258   9.739  0.0705 -0.1953 -0.2429
  452MOL0     C60948   8.808  10.330   9.616 -0.1556 -0.0043 -0.0890
  452MOL0     C60949   8.817  10.399   9.523 -0.0352 -0.9228  0.2365
  452MOL0     C60950   8.475   9.812   9.605 -0.0552 -0.6711  0.2218
  452MOL0     C60951   8.418   9.697   9.539  0.3093  0.2390  1.1305
  452MOL0     C60952   8.497   9.646   9.420  0.5115 -0.0523  0.8318
  452MOL0     H60953   8.063   9.506   9.141 -0.4707 -0.6950  0.4974
  452MOL0     H60954   8.019   9.282   9.044 -0.7419  0.5632  0.6117
  452MOL0     H60955   8.079   9.062   8.935  1.3240  0.8365  0.2408
  452MOL0     H60956   8.228   9.085   9.004 -0.9420  1.5781 -1.3724
  452MOL0     H60957   8.048   8.826   9.030  0.1521 -0.8160 -0.2973
  452MOL0     H60958   8.210   8.839   9.096  0.4027 -1.5076 -0.5639
  452MOL0     H60959   8.161   8.876   8.794  1.9843  2.6011 -0.7749
  452MOL0     H60960   8.193   8.713   8.872  0.1669  0.5835  0.6331
  452MOL0     H60961   8.398   8.949   8.872  2.4395 -1.5221 -0.6491
  452MOL0     H60962   8.415   8.806   8.956  1.9244  1.1593 -0.1657
  452MOL0     H60963   8.544   8.808   8.753  0.4170  2.7239 -3.1754
  452MOL0     H60964   8.425   8.674   8.746 -0.3637 -0.4564 -3.1228
  452MOL0     H60965   8.473   8.795   8.542 -0.2191 -0.5487 -0.7250
  452MOL0     H60966   8.304   8.771   8.587  0.9635 -2.4742  1.4412
  452MOL0     H60967   8.307   9.021   8.654 -1.8302 -0.0280 -2.8616
  452MOL0     H60968   8.338   9.002   8.486  0.8044 -0.0177 -0.9026
  452MOL0     H60969   8.488   9.160   8.618 -0.7141  0.5965 -0.2037
  452MOL0     H60970   8.538   9.035   8.718 -0.8741 -0.6525  0.5533
  452MOL0     H60971   8.507   8.998   8.362 -1.0021 -2.1093  1.6525
  452MOL0     H60972   8.707   8.787   8.174  2.8799 -0.3458  0.4302
  452MOL0     H60973   8.665   8.950   8.127  1.3379  0.2448 -1.2924
  452MOL0     H60974   8.840   8.881   8.005 -2.4954 -2.8452  1.0528
  452MOL0     H60975   8.873   9.025   8.108 -0.4357 -0.3009  3.2899
  452MOL0     H60976   8.958   8.755   8.187 -4.2999  1.8737 -0.0565
  452MOL0     H60977   9.030   8.909   8.238  1.8010  3.1577 -3.2393
  452MOL0     H60978   9.065   8.781   7.973 -0.5815 -1.3642  0.5619
  452MOL0     H60979   9.183   8.796   8.097  1.8000  0.3116 -1.4402
  452MOL0     H60980   9.264   8.979   8.247 -1.6696  1.5881 -1.1192
  452MOL0     H60981   9.456   9.104   8.305 -0.1990  1.0283 -0.1968
  452MOL0     H60982   9.880   9.305   8.199 -2.0589 -3.0694 -2.1063
  452MOL0     H60983  10.096   9.420   8.178  0.0607  0.7212  0.5130
  452MOL0     H60984  10.191   9.630   8.230  0.7537 -1.9947  0.1114
  452MOL0     H60985  10.283   9.537   8.106  2.2711  0.3743  1.9062
  452MOL0     H60986  10.298   9.832   8.157 -0.4761  0.9803 -1.2537
  452MOL0     H60987  10.416   9.701   8.190 -2.5125 -1.9031  2.3359
  452MOL0     H60988  10.459   9.709   7.938  0.9858  1.7786 -2.0432
  452MOL0     H60989  10.298   9.760   7.918  0.2644  2.4177 -0.7557
  452MOL0     H60990  10.524   9.935   8.040  0.9977 -1.6387 -0.4608
  452MOL0     H60991  10.367   9.994   7.981 -0.4965 -0.3606  1.3414
  452MOL0     H60992  10.435   9.927   7.751  0.0791  0.1017  0.1405
  452MOL0     H60993  10.575   9.837   7.811  1.4350  0.7035 -0.8928
  452MOL0     H60994  10.540  10.138   7.833 -1.1431  0.3693 -3.2528
  452MOL0     H60995  10.666  10.056   7.914  0.6409 -1.6418 -0.4320
  452MOL0     H60996  10.600  10.108   7.607  0.3239 -0.8354 -0.8329
  452MOL0     H60997  10.712   9.979   7.633  1.4905  2.0823 -3.5538
  452MOL0     H60998  10.737  10.262   7.728 -0.6659 -0.0670 -1.0739
  452MOL0     H60999  10.847  10.136   7.783 -1.1043  0.3883  0.9149
  452MOL0     H61000   9.950   9.679   7.883  1.0130 -0.5300 -1.5498
  452MOL0     H61001   9.731   9.544   7.864  0.0893 -0.8039  0.4821
  452MOL0     H61002   9.460   9.290   7.908  0.3438 -0.0952 -0.6828
  452MOL0     H61003   9.243   9.155   7.860  0.8282  0.4996 -0.3723
  452MOL0     H61004   8.271   9.093   9.327 -1.8767  0.5674  2.6447
  452MOL0     H61005   8.321   9.314   9.429 -1.0571 -2.5866  1.3163
  452MOL0     H61006   8.125   9.670   9.700 -1.5612  1.0725 -1.3278
  452MOL0     H61007   8.235   9.836   9.849 -2.4450  1.0611 -0.6311
  452MOL0     H61008   8.453  10.123   9.674  1.4813  1.8561  0.3822
  452MOL0     H61009   8.607  10.047   9.652  0.2659 -0.0047 -0.1392
  452MOL0     H61010   8.655  10.129   9.905 -1.6057 -2.2500  0.5333
  452MOL0     H61011   8.490  10.181   9.893  0.3009  0.2142  1.0862
  452MOL0     H61012   8.644  10.366   9.842  0.0385 -0.1698 -0.0065
  452MOL0     H61013   8.587  10.318   9.679 -0.4715  0.7422  0.4398
  452MOL0     H61014   8.843  10.300   9.820  0.3228  1.8049 -1.4087
  452MOL0     H61015   8.804  10.154   9.716  2.2845  0.4988 -1.4045
  452MOL0     H61016   8.829  10.458   9.435 -2.1350  0.5585  0.8870
  452MOL0     H61017   8.580   9.831   9.585 -0.2419 -0.1502 -0.3167
  452MOL0     H61018   8.481   9.701   9.327  0.7427  0.8393  1.3157
  452MOL0     H61019   8.604   9.668   9.430  0.8105  1.0454 -3.0068
  452MOL0     H61020   8.482   9.537   9.415  0.5381 -0.0456  0.5776
  453MOL0     O61021   4.593   1.632   8.174  0.1491 -1.7949 -0.1856
  453MOL0     C61022   4.577   1.711   8.268 -0.1223  0.5359 -0.0291
  453MOL0     O61023   4.494   1.683   8.377  0.4191  0.7714  0.5722
  453MOL0     C61024   4.448   1.556   8.400  0.4705 -0.0921 -1.2818
  453MOL0     C61025   4.529   1.456   8.457 -0.1687  0.0139 -0.6485
  453MOL0     C61026   4.485   1.320   8.470 -0.3158 -0.2672 -0.1394
  453MOL0     C61027   4.356   1.293   8.428 -0.5564 -0.9114 -1.3309
  453MOL0     O61028   4.329   1.161   8.445  0.0897  0.0980 -0.6509
  453MOL0     C61029   4.232   1.131   8.537  0.6305 -0.2543  0.0561
  453MOL0     C61030   4.135   1.036   8.476  0.1604 -0.5659  1.2650
  453MOL0     C61031   4.020   0.987   8.559  0.3412  0.3584  1.0262
  453MOL0     C61032   3.882   0.968   8.483  0.2303 -0.3058  0.2305
  453MOL0     C61033   3.810   1.103   8.486 -0.8263  0.6157 -0.3715
  453MOL0     C61034   3.691   1.122   8.379 -0.9970  0.4301  0.2052
  453MOL0     C61035   3.733   1.148   8.232 -0.9714  0.5196  0.0326
  453MOL0     C61036   3.849   1.240   8.214 -0.7585  0.5361  0.1163
  453MOL0     N61037   3.841   1.384   8.245 -0.0367  0.1137 -0.3207
  453MOL0     C61038   3.753   1.471   8.192  0.0710 -1.5505 -0.9996
  453MOL0     C61039   3.772   1.588   8.265  0.0513  0.5356  0.8773
  453MOL0     C61040   3.705   1.724   8.226  0.1041  0.4569  0.0179
  453MOL0     C61041   3.757   1.789   8.096  0.0416 -0.1142 -0.3866
  453MOL0     C61042   3.906   1.811   8.090  0.5817  0.5903 -1.6325
  453MOL0     C61043   3.969   1.925   8.175  0.7558 -0.0179 -0.1828
  453MOL0     O61044   4.106   1.900   8.194  0.1649 -0.7662  0.2633
  453MOL0     C61045   4.173   1.990   8.276  0.2539 -0.2068 -0.6561
  453MOL0     C61046   4.131   2.117   8.313 -0.7996  0.4035 -0.6405
  453MOL0     C61047   4.209   2.181   8.408  0.4485 -0.6981 -0.4834
  453MOL0     C61048   4.331   2.122   8.460 -0.2086  0.0532  0.2013
  453MOL0     C61049   4.412   2.192   8.562 -0.6677  0.3253  0.2043
  453MOL0     O61050   4.368   2.316   8.595 -0.4455  0.6883 -0.9369
  453MOL0     C61051   4.447   2.395   8.671  0.4673 -0.6831 -0.4927
  453MOL0     C61052   4.563   2.456   8.629  0.1699  0.9282 -0.0335
  453MOL0     C61053   4.634   2.555   8.712  0.3370  0.2512  0.5566
  453MOL0     C61054   4.576   2.589   8.832  0.5920 -0.9665 -1.0187
  453MOL0     O61055   4.648   2.683   8.907  0.4559 -0.1162 -0.1836
  453MOL0     C61056   4.613   2.721   9.042 -0.0156 -0.1161  0.1276
  453MOL0     C61057   4.711   2.814   9.110 -0.5587  0.2623  0.4253
  453MOL0     C61058   4.668   2.851   9.254  0.2494 -0.2335  0.5720
  453MOL0     C61059   4.526   2.921   9.245 -0.2719 -0.7520 -0.7449
  453MOL0     C61060   4.492   2.983   9.386  0.4111  0.6779 -0.1695
  453MOL0     C61061   4.337   3.012   9.390 -0.9983  0.5412  0.2889
  453MOL0     C61062   4.296   3.065   9.527  0.1201  0.3844  1.1112
  453MOL0     C61063   4.145   3.086   9.532 -0.0512  0.4898 -0.3388
  453MOL0    Cl61064   4.078   3.222   9.426  0.3670  0.3285  0.3004
  453MOL0     C61065   4.464   2.531   8.877  0.2265  0.9103  0.3926
  453MOL0     C61066   4.396   2.430   8.800 -0.1819  0.1441  0.1230
  453MOL0     O61067   4.525   2.140   8.595 -0.0176 -0.8588  0.4281
  453MOL0     C61068   4.367   1.990   8.429 -0.8135  0.2109 -0.0698
  453MOL0     C61069   4.284   1.927   8.336  0.5049 -0.6663 -0.2374
  453MOL0     N61070   3.869   1.562   8.357 -0.8672  0.0134  0.0368
  453MOL0     N61071   3.912   1.441   8.348  0.7315 -0.5449 -0.9307
  453MOL0     C61072   4.267   1.382   8.389  0.2285  0.3275 -0.4707
  453MOL0     C61073   4.316   1.510   8.369 -0.1756 -0.9467 -0.3754
  453MOL0     C61074   4.654   1.832   8.272  0.0861 -0.1281 -0.4905
  453MOL0     C61075   4.711   1.862   8.399 -0.3688 -0.0941  0.6591
  453MOL0     C61076   4.774   1.986   8.415  0.7993  1.0001  0.0513
  453MOL0     C61077   4.789   2.083   8.315 -1.0688 -0.3382  0.8748
  453MOL0     O61078   4.843   2.200   8.350 -0.7352 -0.1985  0.2682
  453MOL0     C61079   4.882   2.301   8.255 -0.0504 -0.5259  0.0873
  453MOL0     C61080   4.966   2.409   8.333 -0.1650 -0.4349  0.1327
  453MOL0     C61081   5.028   2.515   8.246 -0.3670  0.2538 -0.4686
  453MOL0     C61082   5.079   2.649   8.312  0.1315  0.7057  0.3310
  453MOL0     C61083   5.184   2.617   8.400  0.2899 -0.9082  0.8237
  453MOL0     C61084   5.265   2.581   8.475 -0.2206 -0.9190  0.3448
  453MOL0     C61085   4.714   2.064   8.200  0.1116 -0.0377  0.0126
  453MOL0     C61086   4.643   1.938   8.174 -0.2106  0.1366  0.7468
  453MOL0     C61087   4.573   1.912   8.044  0.2807  0.4389  0.9775
  453MOL0     H61088   4.631   1.479   8.487 -0.0510 -1.3747  0.0945
  453MOL0     H61089   4.530   1.227   8.504 -0.5747  0.3836  2.1453
  453MOL0     H61090   4.290   1.087   8.618  1.1027 -1.2703 -0.8129
  453MOL0     H61091   4.177   1.217   8.577 -1.0128 -0.6839 -1.1478
  453MOL0     H61092   4.195   0.951   8.441 -0.4949  0.3106 -2.3842
  453MOL0     H61093   4.098   1.096   8.393  2.2052 -1.2079 -0.1882
  453MOL0     H61094   3.995   1.037   8.654  0.2286 -1.5544  2.0521
  453MOL0     H61095   4.058   0.891   8.595 -2.4578 -1.3763 -0.3359
  453MOL0     H61096   3.897   0.919   8.386 -1.4068  0.5013 -0.4636
  453MOL0     H61097   3.829   0.892   8.541 -2.6593 -0.1651 -1.9937
  453MOL0     H61098   3.779   1.115   8.590 -1.6823  1.9846 -0.7640
  453MOL0     H61099   3.894   1.172   8.478 -0.0664  0.0340  1.9595
  453MOL0     H61100   3.625   1.035   8.378 -1.4841  0.7844  0.7118
  453MOL0     H61101   3.626   1.208   8.398 -0.0893  2.2016 -3.6198
  453MOL0     H61102   3.637   1.171   8.185 -0.5029 -1.0379 -1.8237
  453MOL0     H61103   3.757   1.052   8.184 -1.1340 -0.6915  2.2345
  453MOL0     H61104   3.933   1.195   8.269  0.9914 -2.6639 -4.5373
  453MOL0     H61105   3.883   1.227   8.111 -0.8146 -2.3865  0.3790
  453MOL0     H61106   3.671   1.458   8.122 -5.5224  0.5555  4.2899
  453MOL0     H61107   3.596   1.719   8.226  0.0737  1.0785 -0.8840
  453MOL0     H61108   3.722   1.795   8.307 -2.2692  1.5302 -0.3471
  453MOL0     H61109   3.741   1.722   8.010  0.4787  0.0829 -0.6258
  453MOL0     H61110   3.703   1.883   8.085 -0.2900 -0.2333  0.1716
  453MOL0     H61111   3.905   1.833   7.983  0.9087 -2.0776 -2.2540
  453MOL0     H61112   3.975   1.728   8.107  3.8191  3.2438 -0.7317
  453MOL0     H61113   3.922   1.916   8.273  0.8634 -5.8020 -0.3020
  453MOL0     H61114   3.943   2.024   8.138  1.8065  0.6151  0.7237
  453MOL0     H61115   4.050   2.171   8.265 -2.3428 -0.8844  0.4390
  453MOL0     H61116   4.188   2.282   8.442  1.1141 -0.2423 -1.3649
  453MOL0     H61117   4.596   2.430   8.529 -2.1284  0.8881 -0.8274
  453MOL0     H61118   4.714   2.611   8.666 -1.1580  2.2626  0.2547
  453MOL0     H61119   4.511   2.759   9.036  0.6038  1.6667  0.2877
  453MOL0     H61120   4.620   2.632   9.105 -0.5016  0.8614  1.6161
  453MOL0     H61121   4.810   2.767   9.112 -0.7765 -0.1912  0.7664
  453MOL0     H61122   4.713   2.908   9.055 -0.1694  0.1218  0.1922
  453MOL0     H61123   4.670   2.762   9.318  1.1489  0.9820  2.3113
  453MOL0     H61124   4.738   2.919   9.303 -1.1337  0.2733  1.9287
  453MOL0     H61125   4.447   2.847   9.226  0.0649 -1.7771  1.5877
  453MOL0     H61126   4.527   3.002   9.172 -0.4151  0.7011  0.8062
  453MOL0     H61127   4.550   3.076   9.392  0.2211  0.8937 -1.3642
  453MOL0     H61128   4.519   2.909   9.462  1.1199 -0.3082 -1.3508
  453MOL0     H61129   4.325   3.091   9.315  0.5822 -1.0712 -1.7696
  453MOL0     H61130   4.278   2.921   9.375  0.0660  0.1065 -1.4983
  453MOL0     H61131   4.360   3.152   9.546  0.7466  0.7155 -1.9513
  453MOL0     H61132   4.323   2.984   9.595  1.2475  2.1405  2.8519
  453MOL0     H61133   4.109   2.990   9.494 -1.3215 -0.3957  2.7746
  453MOL0     H61134   4.123   3.081   9.639  2.0743 -0.7817  0.0995
  453MOL0     H61135   4.427   2.562   8.974 -0.9063  1.0870 -0.0797
  453MOL0     H61136   4.317   2.365   8.837  1.5897 -0.8055  2.4840
  453MOL0     H61137   4.459   1.945   8.465  0.9380  4.2048  1.0039
  453MOL0     H61138   4.313   1.830   8.296  1.8151 -0.2286 -0.4078
  453MOL0     H61139   4.165   1.353   8.365  0.6998 -2.8503  0.8777
  453MOL0     H61140   4.250   1.588   8.334  1.9384  0.9211 -0.4514
  453MOL0     H61141   4.712   1.794   8.484  0.2998 -1.6892 -0.5545
  453MOL0     H61142   4.810   2.009   8.515 -1.8121  1.2603  0.9912
  453MOL0     H61143   4.795   2.355   8.217 -1.0603 -1.1356  1.4395
  453MOL0     H61144   4.944   2.261   8.174 -1.1676 -0.9477 -0.5674
  453MOL0     H61145   5.051   2.372   8.391  2.8754  2.2863 -2.2196
  453MOL0     H61146   4.906   2.455   8.412  1.2253  1.7115  0.0386
  453MOL0     H61147   4.962   2.535   8.162 -0.6790 -2.3367 -0.8992
  453MOL0     H61148   5.126   2.480   8.214 -0.3761  0.2414 -0.4809
  453MOL0     H61149   5.101   2.714   8.226 -0.2494 -2.3415 -2.2337
  453MOL0     H61150   5.005   2.706   8.369  1.1186  1.4913  0.8762
  453MOL0     H61151   5.317   2.545   8.562 -1.7086 -0.6377  1.4023
  453MOL0     H61152   4.705   2.149   8.133  1.4212 -0.8021 -1.1830
  453MOL0     H61153   4.468   1.936   8.059 -1.1752 -3.9441 -0.6317
  453MOL0     H61154   4.610   1.987   7.973 -0.4390 -2.6473 -3.0616
  453MOL0     H61155   4.590   1.813   8.000 -0.0319 -0.4724  2.8145
  454MOL0     O61156   1.086   0.834   2.871 -0.1923  0.2182  0.0176
  454MOL0     C61157   1.148   0.886   2.966  0.4476 -1.2126  0.9795
  454MOL0     O61158   1.139   0.856   3.103  0.5590 -0.3950 -0.6515
  454MOL0     C61159   1.123   0.728   3.145 -0.4367 -0.5618 -0.6784
  454MOL0     C61160   1.213   0.686   3.245 -0.4488  0.3293 -0.1090
  454MOL0     C61161   1.217   0.554   3.290 -0.0601  0.6094 -0.3169
  454MOL0     C61162   1.118   0.462   3.245  0.0075 -0.7005 -0.1812
  454MOL0     O61163   1.106   0.333   3.283  0.3391  0.0223 -0.3713
  454MOL0     C61164   1.190   0.283   3.382  1.0074  0.5314 -0.5603
  454MOL0     C61165   1.122   0.149   3.437 -0.8953  0.0056 -0.6333
  454MOL0     C61166   1.126   0.033   3.344 -0.0870  0.9835 -0.1372
  454MOL0     C61167   1.071  -0.093   3.409 -0.9095 -0.1311  0.0320
  454MOL0     C61168   1.068  -0.219   3.309 -0.4225  0.6102 -0.7930
  454MOL0     C61169   1.103  -0.336   3.400  0.3630  0.1804  0.1559
  454MOL0     C61170   1.121  -0.468   3.319  0.3976 -0.3757 -0.9110
  454MOL0     C61171   1.218  -0.468   3.204  1.0469  0.2088 -0.4079
  454MOL0     N61172   1.222  -0.587   3.125 -0.6874 -0.0446 -0.4250
  454MOL0     C61173   1.184  -0.590   2.996  0.6049  0.0067 -0.6172
  454MOL0     C61174   1.231  -0.710   2.958 -0.3821  0.8498  0.8334
  454MOL0     C61175   1.233  -0.764   2.808  1.0161  0.0068 -0.3891
  454MOL0     C61176   1.368  -0.807   2.761 -0.0544  0.0292 -0.2150
  454MOL0     C61177   1.425  -0.938   2.824 -0.7380  0.8270 -0.1206
  454MOL0     C61178   1.549  -0.996   2.765  0.6040 -0.0916  0.1102
  454MOL0     O61179   1.663  -0.919   2.817 -0.2115  0.2152  0.6836
  454MOL0     C61180   1.702  -0.797   2.757 -0.0609  0.1142  0.4536
  454MOL0     C61181   1.666  -0.758   2.625 -0.1982 -0.7655 -0.3588
  454MOL0     C61182   1.702  -0.641   2.575  0.0742 -0.7757  0.3183
  454MOL0     C61183   1.793  -0.559   2.645  0.2063  0.6318 -0.9587
  454MOL0     C61184   1.839  -0.427   2.595 -0.3478 -0.2346 -0.6100
  454MOL0     O61185   1.855  -0.406   2.467  0.7070 -0.0323  0.9696
  454MOL0     C61186   1.834  -0.273   2.421  0.2623  0.0573 -0.1112
  454MOL0     C61187   1.936  -0.182   2.380 -0.5100  0.2546 -0.1538
  454MOL0     C61188   1.897  -0.052   2.351 -0.4291 -0.2530  0.1805
  454MOL0     C61189   1.768  -0.003   2.337  0.1573  0.5821  0.2008
  454MOL0     O61190   1.728   0.117   2.283  0.8419  0.5706  0.5686
  454MOL0     C61191   1.818   0.200   2.210 -0.1293 -0.0554 -0.2507
  454MOL0     C61192   1.745   0.323   2.152 -0.0606 -0.4407 -0.7480
  454MOL0     C61193   1.692   0.414   2.267 -0.2551 -0.4753 -0.6637
  454MOL0     C61194   1.640   0.555   2.225 -0.9163 -0.5359 -0.9793
  454MOL0     C61195   1.627   0.646   2.349 -0.0791  0.8691  0.2455
  454MOL0     C61196   1.597   0.796   2.323 -0.2180  0.5538  0.0013
  454MOL0     C61197   1.452   0.851   2.297  0.8072  0.2877  0.3944
  454MOL0     C61198   1.391   0.789   2.174 -1.1459  0.2326  0.1150
  454MOL0    Cl61199   1.497   0.820   2.025 -0.0600  0.1124 -0.0778
  454MOL0     C61200   1.671  -0.102   2.358  0.5396  0.8255 -0.0819
  454MOL0     C61201   1.696  -0.230   2.405 -0.4626  0.3023  0.1798
  454MOL0     O61202   1.865  -0.346   2.679  0.8728 -0.4831  0.6829
  454MOL0     C61203   1.841  -0.594   2.775  0.0552 -0.0148  0.2743
  454MOL0     C61204   1.799  -0.719   2.826 -0.0203  0.0135 -0.3953
  454MOL0     N61205   1.296  -0.773   3.065  0.2799 -0.2925 -0.0030
  454MOL0     N61206   1.288  -0.697   3.172 -0.2474  0.1262 -0.6273
  454MOL0     C61207   1.035   0.498   3.138 -0.0545 -0.4813 -0.5808
  454MOL0     C61208   1.034   0.632   3.087 -0.2551 -0.4966  0.4099
  454MOL0     C61209   1.219   1.011   2.933 -0.2274 -0.3961  0.4396
  454MOL0     C61210   1.282   1.078   3.042  0.3451  0.0326 -0.1365
  454MOL0     C61211   1.336   1.206   3.032  0.3188  0.0755  0.3326
  454MOL0     C61212   1.340   1.269   2.913  0.7060 -0.7336 -0.9476
  454MOL0     O61213   1.388   1.398   2.895  0.5668  0.1150  0.7180
  454MOL0     C61214   1.489   1.433   2.982 -0.0692 -0.6988 -0.3828
  454MOL0     C61215   1.549   1.566   2.936  0.2150 -0.2546  0.0162
  454MOL0     C61216   1.650   1.557   2.823 -0.4011  0.3939 -0.0875
  454MOL0     C61217   1.713   1.678   2.755 -0.0873 -1.2029 -0.3445
  454MOL0     C61218   1.615   1.777   2.710  1.0525 -1.1954 -0.8247
  454MOL0     C61219   1.536   1.858   2.664 -0.1525  1.0834 -0.6345
  454MOL0     C61220   1.291   1.207   2.803  0.9151  0.5776 -0.4887
  454MOL0     C61221   1.222   1.085   2.813  1.0745 -0.5471 -0.1135
  454MOL0     C61222   1.164   1.043   2.682  0.0599  0.9960  0.1186
  454MOL0     H61223   1.290   0.753   3.280  1.3082 -0.9032 -1.4718
  454MOL0     H61224   1.297   0.533   3.360  0.2788  3.3874  0.2532
  454MOL0     H61225   1.282   0.252   3.330  1.7975 -0.2515  1.2260
  454MOL0     H61226   1.214   0.351   3.464 -1.0959  1.7747 -0.9135
  454MOL0     H61227   1.018   0.179   3.447 -0.4332  1.7026 -0.6502
  454MOL0     H61228   1.173   0.124   3.531  0.6019 -1.9850 -1.8883
  454MOL0     H61229   1.231   0.032   3.311 -0.3753  2.7338 -1.2168
  454MOL0     H61230   1.064   0.046   3.255  1.2436 -0.7762 -1.4105
  454MOL0     H61231   1.138  -0.103   3.495 -0.3202 -1.2152 -0.5297
  454MOL0     H61232   0.966  -0.080   3.439 -0.1878  1.6405  2.0696
  454MOL0     H61233   0.969  -0.234   3.264 -1.1710  0.8541  0.6884
  454MOL0     H61234   1.144  -0.205   3.231 -0.3186  1.3128 -0.5695
  454MOL0     H61235   1.192  -0.302   3.454 -1.5948  1.6268  2.7257
  454MOL0     H61236   1.026  -0.347   3.477  1.6925 -1.7082  1.3173
  454MOL0     H61237   1.026  -0.478   3.266 -0.5065  1.9215  0.1286
  454MOL0     H61238   1.144  -0.554   3.383  0.5134  1.0273  1.0426
  454MOL0     H61239   1.170  -0.395   3.137 -2.9296 -3.2085 -1.7127
  454MOL0     H61240   1.315  -0.437   3.245  1.2499 -0.1167 -0.6330
  454MOL0     H61241   1.142  -0.509   2.939 -1.3011 -0.4817  0.0239
  454MOL0     H61242   1.165  -0.849   2.810  2.4812 -1.1999  0.3273
  454MOL0     H61243   1.196  -0.681   2.747  0.0369 -0.5921 -0.6254
  454MOL0     H61244   1.358  -0.829   2.654 -1.8758 -1.1940  0.1623
  454MOL0     H61245   1.434  -0.721   2.775  0.1352 -0.0063 -0.8450
  454MOL0     H61246   1.340  -1.007   2.822  0.5333 -0.7856 -0.6238
  454MOL0     H61247   1.438  -0.927   2.932  1.1052 -0.8573 -0.1253
  454MOL0     H61248   1.531  -1.010   2.658  3.2102 -2.8028 -0.1089
  454MOL0     H61249   1.557  -1.095   2.810 -3.0699 -0.8695 -0.6543
  454MOL0     H61250   1.605  -0.825   2.564 -1.3377 -1.4720  1.4799
  454MOL0     H61251   1.666  -0.614   2.477 -1.0191  2.4066  1.4839
  454MOL0     H61252   2.040  -0.212   2.394 -0.0546  2.2890  1.3941
  454MOL0     H61253   1.970   0.021   2.319 -1.9621  0.1962 -2.5693
  454MOL0     H61254   1.892   0.241   2.279  0.0844  0.1846 -0.6174
  454MOL0     H61255   1.874   0.150   2.130  1.1229  1.2308 -0.2110
  454MOL0     H61256   1.823   0.375   2.096  1.6038 -1.9968  0.0250
  454MOL0     H61257   1.663   0.315   2.080 -2.2605  1.1044  1.4165
  454MOL0     H61258   1.622   0.358   2.330  0.1841 -0.6059 -0.2846
  454MOL0     H61259   1.782   0.424   2.328 -1.5457 -2.2194  1.6892
  454MOL0     H61260   1.537   0.557   2.187 -1.2171  1.1449 -0.1800
  454MOL0     H61261   1.706   0.597   2.148 -0.7340  2.4367  0.6527
  454MOL0     H61262   1.722   0.642   2.404  0.2747  3.6617 -0.0074
  454MOL0     H61263   1.550   0.606   2.415 -0.0320 -2.7732 -1.6611
  454MOL0     H61264   1.643   0.854   2.405  3.3255 -1.6556 -0.2023
  454MOL0     H61265   1.655   0.831   2.237 -1.8226  0.3675 -1.1987
  454MOL0     H61266   1.461   0.960   2.296  1.0655  0.2717  0.7926
  454MOL0     H61267   1.390   0.832   2.385  2.3578  1.8954  1.9374
  454MOL0     H61268   1.378   0.681   2.186  0.8641 -0.3025 -1.8932
  454MOL0     H61269   1.296   0.831   2.143 -0.5271  0.2956 -1.7824
  454MOL0     H61270   1.571  -0.062   2.344  0.0471 -0.4908 -0.5142
  454MOL0     H61271   1.621  -0.306   2.420 -1.1322  0.3854 -2.3046
  454MOL0     H61272   1.914  -0.529   2.823  0.2489 -1.4341  2.0056
  454MOL0     H61273   1.839  -0.736   2.926  1.5315 -0.9245 -1.1526
  454MOL0     H61274   0.970   0.424   3.093  0.1104 -1.8311  1.3068
  454MOL0     H61275   0.967   0.653   3.004 -1.3358 -2.1773  0.7814
  454MOL0     H61276   1.295   1.039   3.142 -0.0304 -1.7287 -0.7328
  454MOL0     H61277   1.393   1.246   3.115 -0.4725  0.8156  0.5351
  454MOL0     H61278   1.567   1.357   2.985 -1.0903 -1.7959 -0.8828
  454MOL0     H61279   1.456   1.451   3.084  0.3572 -0.5067 -0.2778
  454MOL0     H61280   1.598   1.611   3.022  0.9190  2.0166 -1.4828
  454MOL0     H61281   1.464   1.628   2.906  1.4128  1.7761  0.6170
  454MOL0     H61282   1.606   1.494   2.744  2.6031  1.3631 -2.7492
  454MOL0     H61283   1.743   1.507   2.853 -0.1358 -0.6264 -2.3319
  454MOL0     H61284   1.775   1.736   2.824 -2.4694 -1.5860  2.2858
  454MOL0     H61285   1.776   1.649   2.669 -3.0797  1.6254 -3.8373
  454MOL0     H61286   1.465   1.935   2.644 -1.4357  0.5381  1.5125
  454MOL0     H61287   1.307   1.247   2.704 -0.3259  2.2412 -0.0546
  454MOL0     H61288   1.055   1.034   2.676  0.1787 -1.4099  0.3998
  454MOL0     H61289   1.191   1.102   2.594 -1.0185 -2.0516 -2.4741
  454MOL0     H61290   1.208   0.947   2.653 -1.4681  0.3134 -0.0409
  455MOL0     O61291   8.528   9.542   6.083 -0.6795  0.0637 -0.4794
  455MOL0     C61292   8.613   9.577   6.009 -0.6315  0.3413  1.0836
  455MOL0     O61293   8.718   9.667   6.041  0.5708 -0.7311  0.0193
  455MOL0     C61294   8.754   9.707   6.166 -0.6572  0.3305 -0.2457
  455MOL0     C61295   8.727   9.632   6.284  0.7949  0.3895  0.8262
  455MOL0     C61296   8.775   9.670   6.405 -0.2677 -0.4535 -0.3261
  455MOL0     C61297   8.851   9.784   6.416 -0.0626  0.7076 -0.3846
  455MOL0     O61298   8.901   9.810   6.548 -0.2853  0.3549  0.2389
  455MOL0     C61299   8.914   9.943   6.588  0.2751 -0.0927  0.5897
  455MOL0     C61300   8.931   9.983   6.733  0.9954  0.1900  0.0991
  455MOL0     C61301   9.038   9.884   6.782  0.0798  0.2200  0.5949
  455MOL0     C61302   9.084   9.904   6.923  0.4952 -0.1015 -0.3880
  455MOL0     C61303   9.225   9.846   6.941  0.2475 -0.4344  0.6529
  455MOL0     C61304   9.259   9.833   7.086  0.2032 -0.4035  0.4841
  455MOL0     C61305   9.407   9.781   7.096 -0.4675 -0.5062 -0.3692
  455MOL0     C61306   9.458   9.799   7.246 -0.1868  0.0434  1.0932
  455MOL0     N61307   9.398   9.716   7.338 -0.0575  0.0367 -0.2747
  455MOL0     C61308   9.306   9.742   7.439  1.0753 -0.5234  0.5766
  455MOL0     C61309   9.267   9.627   7.491  0.9723 -0.6636  0.1894
  455MOL0     C61310   9.182   9.597   7.610  0.5189 -0.0202  0.4664
  455MOL0     C61311   9.033   9.617   7.584 -0.1333 -0.3536  0.1353
  455MOL0     C61312   8.944   9.527   7.678  0.2296 -0.3333 -0.5801
  455MOL0     C61313   8.840   9.463   7.608  0.1137 -0.9573 -0.3190
  455MOL0     O61314   8.732   9.569   7.598  0.0845 -0.3625 -0.0617
  455MOL0     C61315   8.595   9.535   7.596 -0.8977  0.1735 -0.4747
  455MOL0     C61316   8.538   9.407   7.623  0.5469 -0.5263 -0.1261
  455MOL0     C61317   8.401   9.391   7.638 -0.7435 -0.5116  0.3576
  455MOL0     C61318   8.321   9.500   7.631  0.6604 -0.2438 -0.7371
  455MOL0     C61319   8.177   9.487   7.656  0.4244 -0.6177  0.2190
  455MOL0     O61320   8.132   9.375   7.715  0.5797 -0.4058  0.2758
  455MOL0     C61321   8.004   9.339   7.690  0.7879 -0.5279  0.0505
  455MOL0     C61322   7.893   9.403   7.742  0.3615  0.1269  0.2925
  455MOL0     C61323   7.768   9.356   7.711 -0.1726 -0.0492 -1.1282
  455MOL0     C61324   7.752   9.250   7.628 -0.4419 -0.0565  0.5952
  455MOL0     O61325   7.628   9.212   7.587 -0.0004 -0.0219 -0.1550
  455MOL0     C61326   7.526   9.204   7.687  0.2241 -0.2379  0.3469
  455MOL0     C61327   7.562   9.096   7.791  1.0413  0.3869  0.2135
  455MOL0     C61328   7.606   8.951   7.748 -0.3375 -0.2077  0.6519
  455MOL0     C61329   7.532   8.914   7.616 -0.2202 -0.0457  0.4762
  455MOL0     C61330   7.566   8.765   7.563 -0.2184 -0.1993  0.3795
  455MOL0     C61331   7.466   8.713   7.458  0.2191 -0.1428  0.1528
  455MOL0     C61332   7.349   8.627   7.517  0.5569 -1.5572 -0.2086
  455MOL0     C61333   7.228   8.643   7.430 -0.5259  0.6010 -0.2181
  455MOL0    Cl61334   7.081   8.644   7.524 -0.2209 -0.4979  0.1740
  455MOL0     C61335   7.856   9.169   7.596  0.6401 -0.4271 -0.5557
  455MOL0     C61336   7.986   9.214   7.629 -1.2465  0.0373  0.5033
  455MOL0     O61337   8.109   9.590   7.635 -0.0620 -0.2999 -0.1419
  455MOL0     C61338   8.374   9.632   7.604  1.2195 -0.2978 -0.0877
  455MOL0     C61339   8.508   9.646   7.583 -0.1179 -0.6825 -0.0867
  455MOL0     N61340   9.331   9.529   7.423  0.1508 -0.2281  0.4687
  455MOL0     N61341   9.404   9.583   7.329  0.8307 -0.1134 -1.0322
  455MOL0     C61342   8.883   9.861   6.305  0.8500  0.2762  0.0681
  455MOL0     C61343   8.834   9.826   6.175  0.7989  0.2098  0.0864
  455MOL0     C61344   8.593   9.531   5.860  0.2165  0.1744 -0.1684
  455MOL0     C61345   8.493   9.444   5.824 -0.0067  0.2990 -0.5810
  455MOL0     C61346   8.462   9.409   5.687  0.9433  0.2175 -0.1106
  455MOL0     C61347   8.533   9.467   5.585  0.4412  1.1984 -0.0359
  455MOL0     O61348   8.513   9.452   5.452  0.7290  0.7504  0.3392
  455MOL0     C61349   8.458   9.333   5.402  0.1551 -0.2819 -1.1180
  455MOL0     C61350   8.304   9.330   5.378  0.5490 -0.5147  0.4620
  455MOL0     C61351   8.240   9.444   5.295  0.2412  1.0087  0.6059
  455MOL0     C61352   8.285   9.431   5.143  0.3742  0.3626 -0.6461
  455MOL0     C61353   8.253   9.567   5.090  0.1276  0.5514 -0.0739
  455MOL0     C61354   8.223   9.679   5.055  0.2159 -0.8188  0.6906
  455MOL0     C61355   8.642   9.544   5.617  0.4367 -0.7936 -0.3563
  455MOL0     C61356   8.677   9.572   5.752 -0.0266  0.8688 -0.0362
  455MOL0     C61357   8.800   9.662   5.776 -0.4175  1.0059  0.4762
  455MOL0     H61358   8.666   9.545   6.261  0.2482  1.4803 -2.4297
  455MOL0     H61359   8.764   9.620   6.501  1.1132  1.1796  0.7487
  455MOL0     H61360   9.000   9.974   6.528  2.7143 -0.7838  3.4689
  455MOL0     H61361   8.823   9.996   6.558  1.7539  2.4254  0.3391
  455MOL0     H61362   8.840   9.984   6.794  0.1817  1.7864 -1.0455
  455MOL0     H61363   8.973  10.084   6.725  0.5190  0.3205 -0.9883
  455MOL0     H61364   9.122   9.881   6.712 -2.8554 -2.4799 -3.3149
  455MOL0     H61365   8.992   9.784   6.788  1.9886 -0.9053 -1.9248
  455MOL0     H61366   9.081  10.012   6.940 -2.7371 -0.0693 -0.5117
  455MOL0     H61367   9.013   9.855   6.991 -2.7840  0.7397 -2.9797
  455MOL0     H61368   9.233   9.748   6.894 -1.1939 -0.8057  1.1146
  455MOL0     H61369   9.287   9.920   6.890  1.5050 -0.5747  1.9232
  455MOL0     H61370   9.249   9.938   7.117 -1.5867  1.1762 -4.4372
  455MOL0     H61371   9.185   9.771   7.138  0.5715 -2.6332 -1.5083
  455MOL0     H61372   9.473   9.840   7.032 -1.5957  1.6099  0.3379
  455MOL0     H61373   9.416   9.673   7.079  1.7982  0.0844 -4.0986
  455MOL0     H61374   9.564   9.777   7.237  1.1166  2.9858  5.6006
  455MOL0     H61375   9.456   9.905   7.276 -0.1103  1.0054 -1.9623
  455MOL0     H61376   9.287   9.844   7.471  1.1989  0.6680 -2.7434
  455MOL0     H61377   9.210   9.502   7.657  0.2239 -0.3410 -0.0081
  455MOL0     H61378   9.195   9.672   7.689  0.8733  2.0046 -1.4411
  455MOL0     H61379   9.003   9.720   7.603  0.8065 -0.0275 -0.1167
  455MOL0     H61380   9.015   9.592   7.480  0.2384  2.2235 -0.6199
  455MOL0     H61381   8.909   9.589   7.762  0.4092 -3.2376  1.8212
  455MOL0     H61382   9.001   9.444   7.721 -2.4625 -1.8620  0.3127
  455MOL0     H61383   8.795   9.382   7.667  0.6895 -2.1902 -1.5074
  455MOL0     H61384   8.876   9.428   7.511  2.5486  1.0529 -0.2364
  455MOL0     H61385   8.588   9.310   7.622 -1.0778 -1.4845 -3.3426
  455MOL0     H61386   8.363   9.290   7.646 -0.1139 -0.6414  2.1451
  455MOL0     H61387   7.897   9.497   7.796  2.6213  0.7423 -0.8350
  455MOL0     H61388   7.684   9.405   7.761 -0.7063 -0.7466 -1.3252
  455MOL0     H61389   7.494   9.302   7.724  0.5664 -0.2225  0.6033
  455MOL0     H61390   7.432   9.177   7.636  1.1622 -0.4270 -1.3676
  455MOL0     H61391   7.642   9.138   7.853  2.2324  1.1761 -1.7578
  455MOL0     H61392   7.471   9.076   7.849  0.5608 -1.0281 -0.9834
  455MOL0     H61393   7.714   8.954   7.737 -0.3571 -0.3696  0.4141
  455MOL0     H61394   7.574   8.875   7.820 -1.8738 -0.6200 -0.4084
  455MOL0     H61395   7.557   8.989   7.539 -4.4900  1.7511  0.5357
  455MOL0     H61396   7.425   8.935   7.625  0.3272  4.2240 -0.4573
  455MOL0     H61397   7.562   8.705   7.654 -1.6760  0.0201  0.4843
  455MOL0     H61398   7.663   8.752   7.513 -0.9497  0.8393 -1.4005
  455MOL0     H61399   7.421   8.802   7.412  2.1864 -0.2318 -2.1524
  455MOL0     H61400   7.526   8.657   7.386 -0.7666 -2.2990  0.9244
  455MOL0     H61401   7.338   8.657   7.622  1.2349 -0.4179 -0.4391
  455MOL0     H61402   7.383   8.523   7.514  2.4389 -0.9567 -0.8410
  455MOL0     H61403   7.228   8.740   7.379  0.6017  0.0070 -1.4022
  455MOL0     H61404   7.212   8.565   7.355 -2.6992 -0.8860  1.6363
  455MOL0     H61405   7.840   9.087   7.526 -0.6786 -1.1499  0.5474
  455MOL0     H61406   8.067   9.142   7.627 -2.5583 -1.9050  5.0583
  455MOL0     H61407   8.315   9.722   7.585  0.2558  0.2020  4.2714
  455MOL0     H61408   8.547   9.745   7.560 -1.9357 -0.2595 -1.6484
  455MOL0     H61409   8.942   9.951   6.320  2.1720 -0.4051 -0.8921
  455MOL0     H61410   8.843   9.887   6.085 -2.8004  1.6242  0.5075
  455MOL0     H61411   8.434   9.401   5.904 -0.5862  0.2463 -1.0328
  455MOL0     H61412   8.380   9.345   5.657  0.1759  1.8564 -1.6652
  455MOL0     H61413   8.469   9.247   5.468 -0.2248 -0.5560 -1.4000
  455MOL0     H61414   8.501   9.310   5.304  1.3534 -0.1486 -0.6302
  455MOL0     H61415   8.252   9.324   5.474 -0.6394  1.9376  0.0685
  455MOL0     H61416   8.284   9.239   5.320  0.1232  0.6188 -1.2576
  455MOL0     H61417   8.272   9.536   5.344  1.7032  0.7592  0.1859
  455MOL0     H61418   8.131   9.441   5.307  0.1341  1.6052 -0.1849
  455MOL0     H61419   8.389   9.401   5.130  0.0382 -3.5074  3.1806
  455MOL0     H61420   8.220   9.368   5.082  1.0619  1.5153 -2.6588
  455MOL0     H61421   8.167   9.765   5.023  0.8043 -0.7978 -0.3143
  455MOL0     H61422   8.713   9.582   5.544 -0.9177 -0.7473 -1.7210
  455MOL0     H61423   8.760   9.752   5.823  1.0785  1.0930  1.6296
  455MOL0     H61424   8.877   9.624   5.843  1.0620  3.6776  0.4402
  455MOL0     H61425   8.857   9.686   5.686 -1.7436 -0.3968 -0.7931
  456MOL0     O61426   0.880   8.920   8.638  0.0278  0.2246  0.4176
  456MOL0     C61427   0.850   8.860   8.744 -0.2024  0.0122  0.2872
  456MOL0     O61428   0.734   8.807   8.772 -0.1967 -0.8840  0.5340
  456MOL0     C61429   0.614   8.823   8.703  0.1593 -0.7706 -0.5311
  456MOL0     C61430   0.509   8.732   8.728 -0.0448 -0.3859 -0.7090
  456MOL0     C61431   0.383   8.738   8.663 -0.1680  0.0764 -0.4908
  456MOL0     C61432   0.360   8.846   8.581  0.4447  0.4458  0.1001
  456MOL0     O61433   0.238   8.839   8.515 -0.7265  0.2078  0.2252
  456MOL0     C61434   0.204   8.934   8.409  0.6985 -0.1302 -0.9041
  456MOL0     C61435   0.049   8.917   8.381  0.0191 -0.3899  0.0474
  456MOL0     C61436  -0.010   9.050   8.322  0.4455 -0.4864  0.1588
  456MOL0     C61437  -0.161   9.065   8.340  0.6149  0.8849 -0.5860
  456MOL0     C61438  -0.206   9.181   8.261 -0.0761  0.0418  0.6446
  456MOL0     C61439  -0.354   9.223   8.274 -0.6550 -0.2141 -0.3395
  456MOL0     C61440  -0.393   9.285   8.400 -0.2391  0.0191  0.1325
  456MOL0     C61441  -0.547   9.292   8.393 -0.5025 -0.0592 -0.2078
  456MOL0     N61442  -0.607   9.390   8.308 -0.0202 -0.1771 -0.0688
  456MOL0     C61443  -0.616   9.530   8.348  0.3899  1.1705  0.4596
  456MOL0     C61444  -0.703   9.576   8.255  0.3743  0.2669 -0.1928
  456MOL0     C61445  -0.753   9.715   8.239 -0.4152 -0.2418 -0.4332
  456MOL0     C61446  -0.655   9.817   8.191 -0.2797 -0.4544 -0.4749
  456MOL0     C61447  -0.549   9.859   8.292  0.5973 -0.4994 -0.0346
  456MOL0     C61448  -0.429   9.920   8.226  0.4779 -0.6476  0.8219
  456MOL0     O61449  -0.316   9.935   8.313 -0.3572  0.7965  0.1499
  456MOL0     C61450  -0.299  10.046   8.391  0.2834  0.0109  0.3072
  456MOL0     C61451  -0.377  10.165   8.390 -0.2803 -0.3442  0.4004
  456MOL0     C61452  -0.367  10.269   8.485 -0.7675  0.8553  0.0426
  456MOL0     C61453  -0.274  10.245   8.589  0.3783  0.9256 -0.3138
  456MOL0     C61454  -0.254  10.345   8.692 -0.3867  0.5234  0.2709
  456MOL0     O61455  -0.354  10.439   8.713 -0.7872  0.1761  1.0648
  456MOL0     C61456  -0.311  10.563   8.739 -0.6146  0.2022 -0.1505
  456MOL0     C61457  -0.201  10.629   8.678 -0.0599 -1.0252  0.5461
  456MOL0     C61458  -0.157  10.755   8.718  0.2493 -0.3815  0.5401
  456MOL0     C61459  -0.223  10.822   8.825  0.1170 -0.0431  0.2198
  456MOL0     O61460  -0.193  10.947   8.875  0.0367  0.3006  0.1092
  456MOL0     C61461  -0.072  11.009   8.832  0.0314  0.2357  0.9944
  456MOL0     C61462  -0.039  11.139   8.910 -0.1855  0.8850  0.8204
  456MOL0     C61463  -0.054  11.120   9.064  0.3494  0.3957 -0.6475
  456MOL0     C61464   0.057  11.015   9.109 -0.4475 -0.2896 -0.2805
  456MOL0     C61465   0.108  11.052   9.249  0.1930  0.4207  0.3111
  456MOL0     C61466   0.222  10.959   9.291 -0.1138  0.0201  0.7904
  456MOL0     C61467   0.296  10.991   9.421  0.7765 -0.2600 -0.5241
  456MOL0     C61468   0.427  10.910   9.429  0.7846  0.6727 -0.4012
  456MOL0    Cl61469   0.386  10.738   9.411  0.2899  0.6201  0.2218
  456MOL0     C61470  -0.339  10.763   8.874 -0.1981  0.7402  0.4157
  456MOL0     C61471  -0.379  10.639   8.836 -0.1779  0.3375  0.6806
  456MOL0     O61472  -0.152  10.336   8.763 -0.7211  0.1972  0.3128
  456MOL0     C61473  -0.188  10.128   8.586  0.0425 -0.3911  1.2220
  456MOL0     C61474  -0.207  10.037   8.493 -0.7957 -0.2924  0.1249
  456MOL0     N61475  -0.755   9.473   8.172  0.8121  0.3160 -0.1092
  456MOL0     N61476  -0.693   9.357   8.207 -0.5424  0.4199 -0.5626
  456MOL0     C61477   0.464   8.928   8.544  0.6039  0.5720 -0.4446
  456MOL0     C61478   0.585   8.923   8.615  1.0459 -0.3946  1.2759
  456MOL0     C61479   0.971   8.826   8.821  1.4040 -0.1044 -1.2547
  456MOL0     C61480   1.053   8.934   8.856 -0.1840 -0.3821 -0.5012
  456MOL0     C61481   1.163   8.907   8.932 -1.3963 -0.6234  0.2618
  456MOL0     C61482   1.190   8.779   8.993  0.8650 -0.6788 -0.8062
  456MOL0     O61483   1.297   8.767   9.074 -0.8654  0.6293 -0.2915
  456MOL0     C61484   1.431   8.770   9.022  0.6651  0.2369 -0.8205
  456MOL0     C61485   1.514   8.653   9.093 -0.1998  0.1232 -0.5336
  456MOL0     C61486   1.660   8.654   9.039  0.4447 -0.5937 -0.0711
  456MOL0     C61487   1.708   8.518   8.988 -0.4506 -0.2736  0.5955
  456MOL0     C61488   1.683   8.410   9.087 -0.4008 -0.2662  0.5113
  456MOL0     C61489   1.663   8.314   9.158 -0.6234 -0.0990 -0.0240
  456MOL0     C61490   1.101   8.672   8.965  0.1958 -0.0839 -0.4362
  456MOL0     C61491   0.991   8.700   8.883  0.5735  1.3018 -0.6400
  456MOL0     C61492   0.886   8.591   8.887 -0.7946 -0.0355  0.0709
  456MOL0     H61493   0.533   8.652   8.797  3.3716  0.9547 -0.1290
  456MOL0     H61494   0.305   8.667   8.689  0.5097 -1.6288 -2.7612
  456MOL0     H61495   0.215   9.034   8.452 -0.9045 -0.4361  0.3045
  456MOL0     H61496   0.255   8.930   8.313 -1.0126  1.5712 -1.9725
  456MOL0     H61497   0.004   8.889   8.477  2.9101 -3.0399  0.8139
  456MOL0     H61498   0.033   8.837   8.308 -1.1657  3.1165 -3.9345
  456MOL0     H61499   0.015   9.049   8.215  0.4773 -0.8868  0.1697
  456MOL0     H61500   0.040   9.134   8.372  3.1401 -1.1988 -1.1464
  456MOL0     H61501  -0.205   8.972   8.304  1.2357 -0.2547  1.4230
  456MOL0     H61502  -0.184   9.074   8.447 -0.3915  0.8399 -0.7950
  456MOL0     H61503  -0.146   9.267   8.289  0.4700  0.8273 -2.5009
  456MOL0     H61504  -0.183   9.155   8.157  0.4467  1.8442  0.2816
  456MOL0     H61505  -0.382   9.289   8.192 -0.4918 -0.7252 -0.8132
  456MOL0     H61506  -0.423   9.140   8.257 -1.7845  0.4733  0.6902
  456MOL0     H61507  -0.347   9.383   8.417 -0.2932 -0.2948  2.4093
  456MOL0     H61508  -0.369   9.233   8.493 -1.2919  0.0648  0.4385
  456MOL0     H61509  -0.593   9.194   8.378  0.9418 -0.8822  0.4848
  456MOL0     H61510  -0.575   9.331   8.491  3.3586  3.5433 -0.2439
  456MOL0     H61511  -0.564   9.576   8.432 -2.1666  4.0332  0.6436
  456MOL0     H61512  -0.837   9.713   8.169 -1.3818  0.4981  0.6627
  456MOL0     H61513  -0.796   9.752   8.332 -2.7109 -1.7531 -0.8034
  456MOL0     H61514  -0.608   9.771   8.103  0.4721  3.1174 -2.1824
  456MOL0     H61515  -0.710   9.909   8.169  1.4259  0.9194  0.7179
  456MOL0     H61516  -0.499   9.778   8.345  4.0664  3.1028  2.8205
  456MOL0     H61517  -0.590   9.923   8.372  2.7603 -0.3454  1.0277
  456MOL0     H61518  -0.451  10.015   8.176  2.7870 -0.4232  0.0723
  456MOL0     H61519  -0.399   9.850   8.147 -2.1280 -1.7755  0.7428
  456MOL0     H61520  -0.444  10.160   8.305  0.4550  0.9600 -0.2880
  456MOL0     H61521  -0.426  10.360   8.482 -0.1132  1.2696 -0.6870
  456MOL0     H61522  -0.130  10.585   8.608  2.0634 -0.3535  2.1466
  456MOL0     H61523  -0.061  10.786   8.678  2.1888  1.4509  5.7356
  456MOL0     H61524   0.011  10.937   8.829 -0.4270 -0.2727 -0.0384
  456MOL0     H61525  -0.081  11.039   8.727 -0.2760 -0.1553  0.9079
  456MOL0     H61526   0.057  11.184   8.882  0.7371 -0.7679  1.1969
  456MOL0     H61527  -0.119  11.206   8.879  0.1970  0.4415 -1.3099
  456MOL0     H61528  -0.028  11.219   9.101 -2.1026  0.7652  0.3117
  456MOL0     H61529  -0.155  11.089   9.092  0.7583 -1.6490 -1.2420
  456MOL0     H61530   0.133  11.005   9.031  0.0155 -4.4025  0.4790
  456MOL0     H61531   0.009  10.917   9.106 -2.0926  0.4075 -4.5327
  456MOL0     H61532   0.025  11.048   9.320  0.7617 -0.9011  0.9250
  456MOL0     H61533   0.157  11.149   9.255  2.4994 -0.5032 -1.9375
  456MOL0     H61534   0.177  10.859   9.286 -1.1054  0.5048 -0.4727
  456MOL0     H61535   0.289  10.971   9.206 -0.7002  1.0597  0.4553
  456MOL0     H61536   0.235  10.955   9.505  1.7756 -3.7598 -1.1670
  456MOL0     H61537   0.320  11.098   9.426 -0.8857  0.1667 -0.8174
  456MOL0     H61538   0.499  10.937   9.351  0.8381  3.9832  0.6526
  456MOL0     H61539   0.473  10.924   9.527 -3.8607 -0.3432  2.2095
  456MOL0     H61540  -0.401  10.818   8.944 -0.7502  1.5766 -0.7087
  456MOL0     H61541  -0.469  10.593   8.874  1.5067 -1.5458  2.6313
  456MOL0     H61542  -0.106  10.111   8.656  1.1035 -0.1500  0.0724
  456MOL0     H61543  -0.145   9.948   8.495 -1.2213 -0.5883  1.8341
  456MOL0     H61544   0.449   9.003   8.466 -0.5374 -2.3598 -3.2932
  456MOL0     H61545   0.658   9.001   8.600  1.7038 -1.0779  0.8418
  456MOL0     H61546   1.052   9.035   8.818 -1.3324  0.3523  1.3509
  456MOL0     H61547   1.242   8.977   8.957  1.9742 -4.4522  1.4077
  456MOL0     H61548   1.479   8.868   9.033 -1.6752  1.8559 -3.4116
  456MOL0     H61549   1.425   8.747   8.915 -1.6557 -0.7645 -0.5446
  456MOL0     H61550   1.465   8.558   9.071  1.0170 -0.0277 -2.9307
  456MOL0     H61551   1.516   8.677   9.200  1.8586 -0.7043 -0.3505
  456MOL0     H61552   1.718   8.687   9.126 -0.2083 -1.0017  0.5348
  456MOL0     H61553   1.674   8.727   8.958  2.1778 -1.6437 -0.7730
  456MOL0     H61554   1.659   8.484   8.896 -0.3968  0.3685  0.3228
  456MOL0     H61555   1.814   8.524   8.959 -0.9654 -0.9544 -1.6456
  456MOL0     H61556   1.642   8.227   9.218 -0.0482 -0.3870 -0.2212
  456MOL0     H61557   1.117   8.570   8.999  3.9092  0.0906 -1.1836
  456MOL0     H61558   0.923   8.489   8.902 -0.5490  0.2265  1.3444
  456MOL0     H61559   0.818   8.626   8.964 -1.6148  1.9885 -1.4629
  456MOL0     H61560   0.836   8.584   8.790 -0.0127 -2.7200 -0.2184
  457MOL0     O61561   8.566   5.394   0.099  0.4511  0.4871 -0.6422
  457MOL0     C61562   8.599   5.440  -0.015  0.5914 -0.6482 -0.2340
  457MOL0     O61563   8.520   5.530  -0.090 -0.4919  0.8343  0.0456
  457MOL0     C61564   8.382   5.539  -0.079  0.4279  0.3783 -0.2274
  457MOL0     C61565   8.314   5.596  -0.187 -0.3019  0.1345  0.1976
  457MOL0     C61566   8.174   5.595  -0.200 -0.1866  0.2565  0.4435
  457MOL0     C61567   8.097   5.549  -0.097 -0.3498  0.2620 -0.7064
  457MOL0     O61568   7.954   5.555  -0.107 -0.5965  0.1361 -1.2923
  457MOL0     C61569   7.872   5.509   0.008  0.5713  0.0395 -1.0599
  457MOL0     C61570   7.722   5.524  -0.031  0.0346 -0.4143 -0.5138
  457MOL0     C61571   7.693   5.678  -0.033 -0.6492  0.3661  0.5388
  457MOL0     C61572   7.560   5.722  -0.111 -0.3516  0.4901 -0.3529
  457MOL0     C61573   7.537   5.871  -0.125  0.2165  0.4087  0.0060
  457MOL0     C61574   7.405   5.908  -0.163 -0.2166  0.3938 -0.2811
  457MOL0     C61575   7.373   6.059  -0.136 -0.0352  0.5158  0.3237
  457MOL0     C61576   7.430   6.139  -0.253  0.8632  0.4312  0.3024
  457MOL0     N61577   7.384   6.280  -0.240  0.5253 -0.5812  0.7613
  457MOL0     C61578   7.405   6.364  -0.138  0.8291 -0.5731  0.0966
  457MOL0     C61579   7.349   6.483  -0.175  0.0046  0.5213  0.5376
  457MOL0     C61580   7.335   6.610  -0.107 -0.3768  0.1672 -0.7572
  457MOL0     C61581   7.262   6.580   0.025 -0.3742 -0.3290  0.3950
  457MOL0     C61582   7.236   6.711   0.117  0.1054  0.2652 -0.0695
  457MOL0     C61583   7.197   6.652   0.252 -0.1448  0.3170 -0.0924
  457MOL0     O61584   7.086   6.560   0.239  0.0841 -0.2430  0.3601
  457MOL0     C61585   6.976   6.574   0.321  0.0710 -0.0880 -1.1378
  457MOL0     C61586   6.853   6.569   0.263  0.4895 -0.4379  0.1221
  457MOL0     C61587   6.728   6.588   0.327 -0.4185 -0.4112 -0.2562
  457MOL0     C61588   6.733   6.623   0.466  0.5061 -0.0922  0.1474
  457MOL0     C61589   6.619   6.674   0.534  0.4230 -1.5023  0.6682
  457MOL0     O61590   6.506   6.698   0.451 -0.1448  0.1835  0.1226
  457MOL0     C61591   6.374   6.703   0.498  0.2561 -0.7348  0.5738
  457MOL0     C61592   6.270   6.738   0.409  0.4858  0.7870 -0.3471
  457MOL0     C61593   6.134   6.743   0.451 -0.3564  0.4866 -0.2966
  457MOL0     C61594   6.103   6.722   0.579  0.3067 -0.5535 -0.0013
  457MOL0     O61595   5.976   6.743   0.617 -0.3529 -0.1110  1.2565
  457MOL0     C61596   5.877   6.650   0.566 -0.2451 -0.3710  0.7143
  457MOL0     C61597   5.743   6.673   0.641  1.0013 -0.1197  0.2361
  457MOL0     C61598   5.648   6.561   0.609 -0.3601 -0.0406 -0.0813
  457MOL0     C61599   5.503   6.573   0.665  0.0590 -0.4877  0.3299
  457MOL0     C61600   5.424   6.442   0.638 -0.7234 -0.0593  0.3290
  457MOL0     C61601   5.294   6.460   0.719 -0.1848  0.2863  0.2024
  457MOL0     C61602   5.173   6.403   0.656  0.3477  0.3690  0.0848
  457MOL0     C61603   5.044   6.423   0.737  0.0915 -0.2370 -0.7656
  457MOL0    Cl61604   5.050   6.363   0.902  0.1148 -0.2507  0.0404
  457MOL0     C61605   6.202   6.677   0.664  0.8610  0.2153 -0.1730
  457MOL0     C61606   6.333   6.671   0.628 -1.0290  0.7389  0.8881
  457MOL0     O61607   6.624   6.686   0.655 -0.0450  0.3288 -1.5757
  457MOL0     C61608   6.857   6.619   0.535 -0.3869 -0.3146  0.9193
  457MOL0     C61609   6.974   6.604   0.459  0.4520 -0.6895 -0.3978
  457MOL0     N61610   7.283   6.460  -0.294 -0.0262  0.1718  1.0399
  457MOL0     N61611   7.305   6.332  -0.330  0.6420  0.6991  0.2199
  457MOL0     C61612   8.161   5.506   0.013  0.6910  0.6888  0.3186
  457MOL0     C61613   8.303   5.492   0.028 -1.0622  0.4671 -0.1295
  457MOL0     C61614   8.724   5.397  -0.086 -0.0307 -0.5147  0.0770
  457MOL0     C61615   8.771   5.482  -0.183  0.4356  0.5322  0.0119
  457MOL0     C61616   8.898   5.462  -0.234 -0.5172  0.1966 -0.7519
  457MOL0     C61617   8.973   5.354  -0.196 -0.3042 -0.4208 -0.4468
  457MOL0     O61618   9.104   5.323  -0.231  0.2354  0.0991 -0.1605
  457MOL0     C61619   9.169   5.415  -0.323 -0.3833  0.0879 -0.7114
  457MOL0     C61620   9.282   5.339  -0.386  0.2826 -0.1271 -0.8400
  457MOL0     C61621   9.389   5.431  -0.432 -0.1483 -0.2383  0.3299
  457MOL0     C61622   9.501   5.378  -0.523  0.4614  0.5462  0.1863
  457MOL0     C61623   9.594   5.285  -0.450  0.3045  0.5762  0.3984
  457MOL0     C61624   9.671   5.220  -0.382  0.0505 -0.3522  0.3650
  457MOL0     C61625   8.915   5.264  -0.113  1.5511  0.3652  0.1221
  457MOL0     C61626   8.797   5.288  -0.044  0.7646  0.4293 -0.3181
  457MOL0     C61627   8.743   5.174   0.049 -0.0147  0.6212  0.3780
  457MOL0     H61628   8.370   5.631  -0.272 -1.0866 -2.6866 -1.6118
  457MOL0     H61629   8.125   5.640  -0.285  1.5366 -0.2069 -0.8674
  457MOL0     H61630   7.883   5.401   0.023  1.9647  0.2498 -0.3894
  457MOL0     H61631   7.908   5.549   0.103  5.1871 -3.2981 -1.0283
  457MOL0     H61632   7.665   5.490   0.056  0.8146 -1.9444 -0.5737
  457MOL0     H61633   7.700   5.467  -0.121 -2.6744  0.3927 -0.4313
  457MOL0     H61634   7.772   5.734  -0.084 -1.4708  0.2790 -0.8667
  457MOL0     H61635   7.694   5.708   0.073 -0.3580 -3.4189  1.7430
  457MOL0     H61636   7.557   5.678  -0.211 -2.1182 -0.6321  0.1538
  457MOL0     H61637   7.473   5.688  -0.054 -0.8275  0.7219 -0.9247
  457MOL0     H61638   7.567   5.923  -0.033 -1.9703  0.3359  0.8335
  457MOL0     H61639   7.611   5.916  -0.191  1.0589 -0.5345  0.2759
  457MOL0     H61640   7.392   5.878  -0.268  0.4181  1.4279 -0.6709
  457MOL0     H61641   7.338   5.849  -0.100  2.1867 -0.6899  1.4195
  457MOL0     H61642   7.408   6.080  -0.034 -1.2329 -2.0907  1.3691
  457MOL0     H61643   7.264   6.073  -0.138  0.1441  2.2868  0.8510
  457MOL0     H61644   7.539   6.142  -0.251  0.9826  4.4329 -1.3782
  457MOL0     H61645   7.392   6.090  -0.343 -2.4474  2.4045  0.4730
  457MOL0     H61646   7.467   6.357  -0.050  0.8907 -0.1600  0.0913
  457MOL0     H61647   7.437   6.649  -0.094 -0.3622 -0.4189  1.2964
  457MOL0     H61648   7.272   6.675  -0.168 -2.6158 -0.1221  1.1148
  457MOL0     H61649   7.166   6.534  -0.001  0.1923 -2.3548  1.6527
  457MOL0     H61650   7.329   6.516   0.083  0.8525  0.8462  0.3246
  457MOL0     H61651   7.152   6.770   0.078 -0.7922 -1.3549 -0.6679
  457MOL0     H61652   7.326   6.772   0.126  0.7495 -0.8390  1.5817
  457MOL0     H61653   7.174   6.732   0.322  1.3585 -0.0662  0.8844
  457MOL0     H61654   7.280   6.595   0.296 -2.4214 -2.8343  0.4592
  457MOL0     H61655   6.855   6.547   0.157  3.1700  2.8486 -0.6840
  457MOL0     H61656   6.637   6.584   0.268 -0.8244  1.1915  0.2002
  457MOL0     H61657   6.302   6.762   0.307  0.8879 -2.0593 -0.9662
  457MOL0     H61658   6.067   6.769   0.369 -0.7021  1.2050  0.2039
  457MOL0     H61659   5.861   6.669   0.460  0.5879 -1.5566  0.3555
  457MOL0     H61660   5.909   6.546   0.579  0.0162 -0.3900 -0.0387
  457MOL0     H61661   5.747   6.686   0.750 -2.6581  2.3809  0.2675
  457MOL0     H61662   5.690   6.766   0.617 -0.7172  0.3786  4.8262
  457MOL0     H61663   5.635   6.554   0.501  3.8329 -3.2502 -0.6470
  457MOL0     H61664   5.690   6.468   0.650  1.5530 -0.7397 -3.3012
  457MOL0     H61665   5.455   6.667   0.638  0.8408  0.3278  1.6595
  457MOL0     H61666   5.523   6.585   0.772 -2.1352  1.4619  0.5902
  457MOL0     H61667   5.476   6.349   0.662 -0.3552  0.3772  1.2914
  457MOL0     H61668   5.400   6.449   0.532  0.4784  2.9737  0.1580
  457MOL0     H61669   5.312   6.407   0.812  0.4804 -0.6516 -0.4443
  457MOL0     H61670   5.257   6.560   0.744 -2.1007 -0.8786  2.4013
  457MOL0     H61671   5.199   6.298   0.636  2.3797  0.9893 -0.7540
  457MOL0     H61672   5.158   6.450   0.559 -0.0617 -3.4423 -1.8821
  457MOL0     H61673   5.013   6.527   0.754 -1.6286 -1.2275  3.4364
  457MOL0     H61674   4.964   6.373   0.683 -0.4470  1.4044 -1.5631
  457MOL0     H61675   6.176   6.661   0.768  1.0263 -3.9933 -0.6154
  457MOL0     H61676   6.411   6.651   0.700  1.1311  2.4713 -0.8122
  457MOL0     H61677   6.876   6.622   0.642 -2.3977 -1.8638  1.3871
  457MOL0     H61678   7.064   6.601   0.519 -0.2436 -2.5287  0.6258
  457MOL0     H61679   8.101   5.490   0.102 -0.2967  4.4474  0.5243
  457MOL0     H61680   8.354   5.458   0.117  2.8804  0.9607 -1.9595
  457MOL0     H61681   8.718   5.573  -0.210  1.7474  0.3402 -3.9370
  457MOL0     H61682   8.938   5.540  -0.299  2.2409 -0.5858 -0.1115
  457MOL0     H61683   9.207   5.507  -0.277 -2.6973  0.5770  0.3754
  457MOL0     H61684   9.103   5.442  -0.405  0.5275  0.7635 -1.2468
  457MOL0     H61685   9.244   5.284  -0.472 -1.2305 -0.6675  0.1323
  457MOL0     H61686   9.325   5.268  -0.314  0.7518 -1.8536 -2.7183
  457MOL0     H61687   9.434   5.469  -0.340 -2.5785 -0.4206  1.6583
  457MOL0     H61688   9.349   5.512  -0.495  0.2626 -1.1046 -1.1039
  457MOL0     H61689   9.458   5.317  -0.603 -1.0020  0.5068  0.9670
  457MOL0     H61690   9.551   5.464  -0.568 -0.7661 -0.0649 -2.5597
  457MOL0     H61691   9.731   5.155  -0.322 -0.5802 -1.4446 -0.1451
  457MOL0     H61692   8.979   5.183  -0.080  2.4981  1.5309  1.2379
  457MOL0     H61693   8.693   5.202   0.142  0.9722 -1.0451  1.4725
  457MOL0     H61694   8.666   5.107   0.009 -1.5200  0.6316  3.0481
  457MOL0     H61695   8.826   5.107   0.073 -1.2622 -0.8158  0.8520
  458MOL0     O61696  10.418  10.219   1.634 -0.6031  0.3769 -0.1966
  458MOL0     C61697  10.518  10.219   1.569 -0.8768 -0.2887  0.0516
  458MOL0     O61698  10.519  10.267   1.444 -0.3854  0.1241  0.3280
  458MOL0     C61699  10.411  10.296   1.368 -0.2962 -0.9597 -0.2669
  458MOL0     C61700  10.410  10.413   1.290  0.4622 -0.5584 -0.6116
  458MOL0     C61701  10.293  10.464   1.241  0.1273  0.7436  1.6942
  458MOL0     C61702  10.174  10.383   1.234  0.6438 -0.0963  0.7350
  458MOL0     O61703  10.065  10.441   1.172 -0.1404 -0.2758  0.2054
  458MOL0     C61704   9.947  10.362   1.159  0.2270 -0.2624  0.0147
  458MOL0     C61705   9.828  10.449   1.097 -1.0445  0.9500  0.1449
  458MOL0     C61706   9.687  10.397   1.132  1.2466  0.5283 -0.3526
  458MOL0     C61707   9.645  10.441   1.273 -0.5885 -0.2559  0.2423
  458MOL0     C61708   9.497  10.449   1.304 -0.4420 -0.1284 -0.0807
  458MOL0     C61709   9.417  10.532   1.218 -0.6144  0.9198  0.3375
  458MOL0     C61710   9.270  10.540   1.264 -0.4731  0.3503 -0.1766
  458MOL0     C61711   9.189  10.643   1.181 -0.3804 -0.5922  0.2033
  458MOL0     N61712   9.096  10.586   1.090  0.5035 -0.7180  0.2359
  458MOL0     C61713   8.956  10.612   1.084  0.1626 -0.6488  0.0358
  458MOL0     C61714   8.907  10.501   1.025  0.5733  0.2890  1.0199
  458MOL0     C61715   8.763  10.454   1.010  0.3110  0.1645  0.4218
  458MOL0     C61716   8.737  10.319   1.062  0.1605  0.1621  0.4934
  458MOL0     C61717   8.756  10.301   1.212 -1.0623  0.1574  0.3800
  458MOL0     C61718   8.663  10.399   1.296  0.3447 -0.5669 -0.0028
  458MOL0     O61719   8.529  10.398   1.256 -0.0885 -0.0391  0.3481
  458MOL0     C61720   8.450  10.284   1.281  0.6820 -0.1385  0.5077
  458MOL0     C61721   8.462  10.212   1.394 -0.0969  0.0115  0.3373
  458MOL0     C61722   8.386  10.098   1.402  0.8211 -0.9584  0.1551
  458MOL0     C61723   8.288  10.054   1.313  1.1767  0.3817  0.0650
  458MOL0     C61724   8.210   9.941   1.334  0.2732  0.4947 -0.4066
  458MOL0     O61725   8.257   9.839   1.425  0.1976 -0.4689  0.2580
  458MOL0     C61726   8.179   9.728   1.424 -0.8412 -0.0294  1.1115
  458MOL0     C61727   8.093   9.694   1.519  0.3959  1.5042  0.0674
  458MOL0     C61728   8.014   9.574   1.503 -0.0258  1.0877 -0.6249
  458MOL0     C61729   8.030   9.481   1.403 -0.3286  0.0561 -0.1989
  458MOL0     O61730   7.943   9.373   1.389  0.0457 -0.5160 -0.2656
  458MOL0     C61731   7.905   9.298   1.268 -0.0476 -0.9008 -0.8394
  458MOL0     C61732   7.853   9.159   1.294 -0.0717 -0.8863  0.1606
  458MOL0     C61733   7.750   9.171   1.411 -0.3163  0.6506  0.3068
  458MOL0     C61734   7.632   9.256   1.351  0.4071 -0.9541 -0.3819
  458MOL0     C61735   7.520   9.265   1.457  0.0389 -0.4285  0.0901
  458MOL0     C61736   7.393   9.315   1.380  0.7950 -0.5850 -0.1454
  458MOL0     C61737   7.281   9.322   1.481  0.3356 -0.7769 -0.5554
  458MOL0     C61738   7.142   9.359   1.420  1.0565 -0.3615  0.1136
  458MOL0    Cl61739   7.129   9.539   1.370 -0.3386  0.0589 -0.2681
  458MOL0     C61740   8.125   9.517   1.313  0.1964  0.6165 -0.1314
  458MOL0     C61741   8.194   9.633   1.318  0.0684 -0.6843  0.4849
  458MOL0     O61742   8.111   9.928   1.260  0.1372  0.3722 -0.1072
  458MOL0     C61743   8.275  10.137   1.203  0.2013  0.1656  0.0881
  458MOL0     C61744   8.344  10.260   1.192  0.2318 -0.1026  0.1614
  458MOL0     N61745   9.014  10.424   0.981  0.6298  0.3176 -0.4329
  458MOL0     N61746   9.121  10.470   1.026 -0.4335  0.3233  0.3812
  458MOL0     C61747  10.182  10.251   1.296  0.6723  0.6616  0.2985
  458MOL0     C61748  10.300  10.215   1.369  0.8417  0.5795 -0.2418
  458MOL0     C61749  10.641  10.133   1.592  0.5727  0.2182 -0.2051
  458MOL0     C61750  10.738  10.118   1.487 -0.3972 -0.0601  0.1245
  458MOL0     C61751  10.859  10.054   1.510 -0.6497 -0.3143 -0.1127
  458MOL0     C61752  10.884   9.984   1.631 -0.6990 -0.3398  0.6530
  458MOL0     O61753  10.999   9.911   1.634  0.3661  0.2104  0.2046
  458MOL0     C61754  10.978   9.799   1.719 -0.0408  0.4737 -0.4702
  458MOL0     C61755  11.083   9.688   1.666  0.5973  0.0269  0.0163
  458MOL0     C61756  11.058   9.564   1.750 -0.1428  0.1786  0.6153
  458MOL0     C61757  11.175   9.474   1.743 -0.3020  0.1547  0.0371
  458MOL0     C61758  11.158   9.346   1.797  0.3869  0.9139 -1.1958
  458MOL0     C61759  11.126   9.245   1.855  0.1972  1.1537 -0.6979
  458MOL0     C61760  10.780   9.985   1.730  0.3259 -0.4707 -0.0614
  458MOL0     C61761  10.668  10.058   1.712  0.1065 -0.0925  0.3081
  458MOL0     C61762  10.566  10.059   1.817  0.2371  0.6838 -0.9313
  458MOL0     H61763  10.497  10.477   1.278 -1.6008  2.0350 -3.3230
  458MOL0     H61764  10.296  10.563   1.195  3.2854  0.1889  0.4555
  458MOL0     H61765   9.974  10.290   1.081 -0.8595  2.3903 -3.0419
  458MOL0     H61766   9.927  10.327   1.261  0.9831  0.0019  0.2630
  458MOL0     H61767   9.837  10.462   0.988 -1.4316  1.7980  0.2075
  458MOL0     H61768   9.833  10.550   1.137  2.4936  0.4128  1.4369
  458MOL0     H61769   9.676  10.290   1.117 -0.1120  0.0476  3.1690
  458MOL0     H61770   9.619  10.443   1.060  0.1208 -1.8662 -0.8918
  458MOL0     H61771   9.681  10.366   1.343  0.6923  0.8791  0.8640
  458MOL0     H61772   9.696  10.537   1.286 -2.3815  0.8832 -0.7089
  458MOL0     H61773   9.450  10.350   1.303 -1.3155  0.2412  1.3234
  458MOL0     H61774   9.484  10.494   1.403  2.2555 -0.8471  0.6826
  458MOL0     H61775   9.470  10.627   1.209  0.4682  0.2151 -1.1364
  458MOL0     H61776   9.412  10.471   1.127 -0.1538 -1.5591  1.8701
  458MOL0     H61777   9.266  10.568   1.370 -1.8101  0.2744 -0.1959
  458MOL0     H61778   9.233  10.437   1.260 -0.5501  0.3757 -0.1131
  458MOL0     H61779   9.139  10.698   1.262 -2.7083 -1.5207 -0.5118
  458MOL0     H61780   9.253  10.702   1.115 -3.0592  0.3230 -1.7398
  458MOL0     H61781   8.898  10.694   1.124  0.3134  0.5857 -2.0951
  458MOL0     H61782   8.700  10.520   1.070 -1.1675 -2.1808  1.5534
  458MOL0     H61783   8.741  10.458   0.902  1.4020  0.5992  0.2019
  458MOL0     H61784   8.634  10.308   1.028  0.1184 -4.7840  1.4165
  458MOL0     H61785   8.795  10.247   1.004 -1.7186 -1.4868  0.5629
  458MOL0     H61786   8.864  10.303   1.227  0.0824 -1.3901 -5.2671
  458MOL0     H61787   8.723  10.201   1.241 -4.7113  1.2370  0.5609
  458MOL0     H61788   8.700  10.501   1.291 -3.6945  1.2635  2.1828
  458MOL0     H61789   8.683  10.367   1.399  0.8337  0.4913  0.2385
  458MOL0     H61790   8.526  10.215   1.482  1.5877 -2.9247 -0.6582
  458MOL0     H61791   8.413  10.050   1.496 -0.8439 -1.7666  0.2476
  458MOL0     H61792   8.062   9.767   1.594  2.7988  1.2006  1.4774
  458MOL0     H61793   7.932   9.562   1.574  0.8071  2.2912  0.6067
  458MOL0     H61794   7.828   9.355   1.213 -1.3322 -1.2733  0.5170
  458MOL0     H61795   7.988   9.288   1.198  2.3078  1.7994  1.3221
  458MOL0     H61796   7.807   9.121   1.202  1.2441 -1.0423 -0.4554
  458MOL0     H61797   7.939   9.101   1.328  2.7589  2.3903 -0.8317
  458MOL0     H61798   7.725   9.067   1.434  1.4337 -0.6819 -3.2134
  458MOL0     H61799   7.800   9.222   1.494  1.6655 -0.2112 -0.3087
  458MOL0     H61800   7.607   9.209   1.256  2.4672 -0.9852 -0.9555
  458MOL0     H61801   7.662   9.359   1.329  0.6001 -0.4914  1.7926
  458MOL0     H61802   7.547   9.332   1.539 -2.1783 -2.5306  2.7594
  458MOL0     H61803   7.501   9.166   1.498 -2.2675 -0.3431 -0.6001
  458MOL0     H61804   7.403   9.409   1.325 -0.4003 -1.9869 -2.9679
  458MOL0     H61805   7.356   9.254   1.297 -2.1005  0.3172  0.3888
  458MOL0     H61806   7.308   9.392   1.561 -0.7689 -2.1084  1.0565
  458MOL0     H61807   7.278   9.227   1.536 -1.7022 -0.4555 -0.0370
  458MOL0     H61808   7.121   9.296   1.333 -0.6522 -2.1635  1.7145
  458MOL0     H61809   7.067   9.322   1.492 -1.1446  0.8535 -1.4307
  458MOL0     H61810   8.158   9.451   1.233  2.4086  2.5791 -0.9207
  458MOL0     H61811   8.265   9.639   1.236  1.8037  2.1080  2.0370
  458MOL0     H61812   8.215  10.102   1.119  1.0147  0.3331 -0.5664
  458MOL0     H61813   8.333  10.324   1.106  0.4256  0.7543  0.7550
  458MOL0     H61814  10.100  10.181   1.290 -0.2288  1.7438 -0.3257
  458MOL0     H61815  10.305  10.127   1.432  0.2798  0.0682 -0.8807
  458MOL0     H61816  10.721  10.148   1.384  1.0185 -2.1676 -0.7843
  458MOL0     H61817  10.925  10.037   1.426 -1.1030  1.2615 -0.8246
  458MOL0     H61818  10.878   9.756   1.713  0.2330 -0.3252  0.4816
  458MOL0     H61819  10.995   9.821   1.824  0.6745  1.6555 -0.8168
  458MOL0     H61820  11.182   9.730   1.686  0.5244  0.6709 -0.8949
  458MOL0     H61821  11.066   9.682   1.558  0.0534  0.9867  0.0368
  458MOL0     H61822  10.969   9.507   1.720  0.8204 -0.8319 -0.4049
  458MOL0     H61823  11.053   9.605   1.851 -2.2456  1.2459  0.1432
  458MOL0     H61824  11.193   9.451   1.638  2.0096 -1.6079  0.7275
  458MOL0     H61825  11.264   9.510   1.796  0.2543  0.3067 -0.9847
  458MOL0     H61826  11.084   9.164   1.912 -1.0724  2.4533  0.2701
  458MOL0     H61827  10.794   9.939   1.827  2.4922  1.1024  0.4285
  458MOL0     H61828  10.561  10.146   1.883 -0.3149 -0.3624  0.4516
  458MOL0     H61829  10.469  10.037   1.771 -0.0199  3.0326 -1.6257
  458MOL0     H61830  10.595   9.979   1.886  0.1954  2.0555  0.7367
  459MOL0     O61831  11.296   3.650   9.425 -0.5054  0.4834 -0.1049
  459MOL0     C61832  11.278   3.533   9.456 -0.4945  0.2784  0.1149
  459MOL0     O61833  11.316   3.420   9.386 -0.5537  0.3006  0.0203
  459MOL0     C61834  11.399   3.451   9.278 -1.2469 -0.9598 -0.1911
  459MOL0     C61835  11.360   3.540   9.173 -0.5131  0.6525  0.4957
  459MOL0     C61836  11.450   3.572   9.070  0.6189 -0.1148  0.2168
  459MOL0     C61837  11.567   3.506   9.057  0.6642 -0.2124 -0.0738
  459MOL0     O61838  11.639   3.540   8.947  0.1245  0.3220 -0.4980
  459MOL0     C61839  11.780   3.572   8.970  0.2577 -0.8344  0.1062
  459MOL0     C61840  11.856   3.504   8.868  0.2564 -0.1904 -0.1320
  459MOL0     C61841  11.997   3.571   8.849 -0.3826  0.5213 -0.2290
  459MOL0     C61842  12.068   3.520   8.716 -0.2411  0.0423 -0.3777
  459MOL0     C61843  12.146   3.382   8.741  0.5583 -0.3517  0.8293
  459MOL0     C61844  12.296   3.400   8.777 -1.1718 -0.1120 -0.4221
  459MOL0     C61845  12.337   3.483   8.908 -0.7260  0.0820  0.0804
  459MOL0     C61846  12.301   3.407   9.041 -0.4896  0.5468 -0.4836
  459MOL0     N61847  12.391   3.291   9.075 -0.4751  0.2682  0.2611
  459MOL0     C61848  12.527   3.300   9.118  0.0446  1.0627  0.6887
  459MOL0     C61849  12.564   3.174   9.138  0.3834 -0.4902 -0.1826
  459MOL0     C61850  12.707   3.150   9.155  0.2894 -0.7596  0.1773
  459MOL0     C61851  12.786   3.107   9.025  1.1539  0.5976 -0.0202
  459MOL0     C61852  12.786   3.222   8.922 -0.4067 -0.0032  0.5006
  459MOL0     C61853  12.712   3.184   8.800 -0.0374 -0.9007 -0.1804
  459MOL0     O61854  12.788   3.076   8.744 -0.0049 -0.1918  0.1144
  459MOL0     C61855  12.730   3.014   8.633  0.8241 -0.1506 -0.4543
  459MOL0     C61856  12.639   3.077   8.548  0.2016 -0.3161 -0.1535
  459MOL0     C61857  12.574   3.010   8.441 -0.3378 -0.1232 -0.2017
  459MOL0     C61858  12.636   2.896   8.391 -0.3643  0.2688 -0.7466
  459MOL0     C61859  12.582   2.819   8.276 -0.9162  0.3025  0.5531
  459MOL0     O61860  12.480   2.867   8.204  0.1192 -0.3274  0.3339
  459MOL0     C61861  12.465   2.815   8.083 -0.3254 -0.0443  0.7808
  459MOL0     C61862  12.424   2.683   8.080  0.0590  0.2800  0.1207
  459MOL0     C61863  12.400   2.624   7.960  0.2669  0.8319  0.1885
  459MOL0     C61864  12.417   2.694   7.844 -0.2531  0.1018 -0.1079
  459MOL0     O61865  12.390   2.639   7.720  0.2799 -0.6271 -0.0724
  459MOL0     C61866  12.329   2.516   7.713 -0.1566  0.5438 -0.1596
  459MOL0     C61867  12.330   2.484   7.559 -0.1298 -0.0551  0.5570
  459MOL0     C61868  12.266   2.340   7.543  0.3243 -0.1530  0.4213
  459MOL0     C61869  12.348   2.231   7.477  0.5934  0.7829  0.5416
  459MOL0     C61870  12.266   2.097   7.451 -0.7068  0.2203  0.2118
  459MOL0     C61871  12.366   1.978   7.447  0.2114  0.1832 -0.2728
  459MOL0     C61872  12.318   1.842   7.511  0.0735 -0.5900  0.5015
  459MOL0     C61873  12.384   1.723   7.426  0.2590  0.3632 -0.1329
  459MOL0    Cl61874  12.339   1.559   7.484 -0.3436  0.4734 -0.1153
  459MOL0     C61875  12.453   2.829   7.847  0.0256  0.0929  0.3020
  459MOL0     C61876  12.478   2.895   7.966 -0.1134 -0.3460 -0.1278
  459MOL0     O61877  12.636   2.708   8.248  0.1630  0.0644  0.7929
  459MOL0     C61878  12.737   2.832   8.468 -0.9484 -1.0079 -0.0174
  459MOL0     C61879  12.771   2.888   8.593 -1.1655 -0.5949  0.6385
  459MOL0     N61880  12.457   3.085   9.132  0.2241 -0.3128 -0.5375
  459MOL0     N61881  12.363   3.160   9.086  0.1948  0.6728 -0.5982
  459MOL0     C61882  11.607   3.404   9.141  1.1813  0.0058  0.3008
  459MOL0     C61883  11.513   3.374   9.249  0.1107 -0.4652 -1.2913
  459MOL0     C61884  11.217   3.501   9.580  0.0364  0.2523 -0.2381
  459MOL0     C61885  11.240   3.582   9.692 -0.4570  0.0750 -0.3486
  459MOL0     C61886  11.201   3.542   9.827  0.1412  1.0244  0.3677
  459MOL0     C61887  11.138   3.423   9.853  0.1953  0.2173 -0.0184
  459MOL0     O61888  11.114   3.369   9.972 -1.0493  0.0485 -0.3247
  459MOL0     C61889  11.212   3.389  10.085  0.3077 -0.5698  0.0345
  459MOL0     C61890  11.360   3.381  10.053 -0.9136 -0.1261  0.3309
  459MOL0     C61891  11.395   3.251   9.982 -0.1242  0.5585  0.1495
  459MOL0     C61892  11.530   3.247   9.928 -0.4916  0.4823 -0.0192
  459MOL0     C61893  11.542   3.320   9.797 -0.1396 -0.9287 -0.0484
  459MOL0     C61894  11.544   3.354   9.676  0.4338  0.6974 -0.1044
  459MOL0     C61895  11.107   3.349   9.742 -0.5800 -0.1319 -0.1220
  459MOL0     C61896  11.140   3.385   9.604 -0.6879  0.2654 -0.4454
  459MOL0     C61897  11.075   3.296   9.499 -0.4817  0.1315  0.4310
  459MOL0     H61898  11.261   3.585   9.171 -1.6686 -1.6570 -2.1402
  459MOL0     H61899  11.428   3.642   8.990  1.2661 -1.1219 -0.8625
  459MOL0     H61900  11.798   3.679   8.954  2.1865 -0.9522  1.1663
  459MOL0     H61901  11.825   3.555   9.068  2.6594  2.0417 -0.3561
  459MOL0     H61902  11.805   3.512   8.771 -0.8747 -1.1992  0.3539
  459MOL0     H61903  11.882   3.403   8.902  1.3817 -0.0909 -0.6306
  459MOL0     H61904  12.055   3.542   8.937 -0.6166  1.2975  0.1881
  459MOL0     H61905  11.979   3.679   8.844 -1.1016  0.3522 -2.4286
  459MOL0     H61906  12.000   3.503   8.633 -0.3180  0.2858 -0.3660
  459MOL0     H61907  12.154   3.584   8.692  0.7053 -0.7949  0.6263
  459MOL0     H61908  12.099   3.330   8.825  2.9210 -1.3600  1.6016
  459MOL0     H61909  12.158   3.328   8.646 -0.3714  0.1551  0.4027
  459MOL0     H61910  12.340   3.301   8.794 -0.3752  0.2587 -0.2579
  459MOL0     H61911  12.340   3.447   8.688 -1.7429  0.0921 -0.5962
  459MOL0     H61912  12.294   3.583   8.918 -0.1955  0.2523  0.7574
  459MOL0     H61913  12.446   3.496   8.907 -1.0604  3.5978 -0.4263
  459MOL0     H61914  12.308   3.482   9.120  1.6254 -1.8165  1.7179
  459MOL0     H61915  12.201   3.363   9.035 -0.8996  1.3859  0.0525
  459MOL0     H61916  12.591   3.387   9.109 -0.8200  1.6316 -0.2602
  459MOL0     H61917  12.755   3.238   9.200 -0.8805 -0.9000  1.7674
  459MOL0     H61918  12.717   3.071   9.229 -0.0202  0.7406  1.9102
  459MOL0     H61919  12.886   3.094   9.067  0.4244  0.0715  1.6212
  459MOL0     H61920  12.754   3.011   8.982  2.0983  0.0408  0.4921
  459MOL0     H61921  12.886   3.251   8.887 -0.8112 -0.3411 -1.0259
  459MOL0     H61922  12.734   3.307   8.967 -0.2178  1.0848 -1.2057
  459MOL0     H61923  12.698   3.256   8.718 -1.7493 -1.2835 -0.2596
  459MOL0     H61924  12.613   3.147   8.825  0.7241 -2.9819 -0.0506
  459MOL0     H61925  12.609   3.179   8.571  3.6669  0.3503  2.2318
  459MOL0     H61926  12.498   3.060   8.381 -1.7520 -2.2612 -0.3251
  459MOL0     H61927  12.401   2.636   8.175 -1.3085  2.2951  0.8622
  459MOL0     H61928  12.369   2.520   7.954  0.4640  0.7280  0.8411
  459MOL0     H61929  12.389   2.440   7.764 -2.1978 -2.0597 -1.3623
  459MOL0     H61930  12.229   2.524   7.756  0.1649  0.0510  0.6979
  459MOL0     H61931  12.261   2.560   7.521 -0.2447  0.9597  2.6561
  459MOL0     H61932  12.429   2.509   7.519 -0.2075  1.5638  1.3221
  459MOL0     H61933  12.223   2.297   7.634 -0.4081  2.4793  1.4105
  459MOL0     H61934  12.189   2.363   7.469 -0.5967  1.2384  1.7723
  459MOL0     H61935  12.430   2.210   7.546  0.9576  1.9785  0.4870
  459MOL0     H61936  12.390   2.262   7.381 -2.5618  0.3136 -1.1102
  459MOL0     H61937  12.225   2.110   7.351  0.5767  1.1852 -0.2108
  459MOL0     H61938  12.188   2.091   7.528 -0.0365  2.4861  1.1727
  459MOL0     H61939  12.407   1.964   7.346 -1.0461  1.4677 -1.0058
  459MOL0     H61940  12.453   2.018   7.499 -0.5968 -0.2544  1.4694
  459MOL0     H61941  12.208   1.843   7.505  0.1701  0.0660 -1.7154
  459MOL0     H61942  12.348   1.824   7.615 -1.7067 -2.9931  0.6951
  459MOL0     H61943  12.358   1.734   7.321  1.4164 -0.1747 -0.4875
  459MOL0     H61944  12.489   1.746   7.441 -0.3668  2.4572  1.5570
  459MOL0     H61945  12.455   2.887   7.755  0.5454 -0.6415 -0.1568
  459MOL0     H61946  12.492   3.002   7.975 -0.5355 -0.2981 -0.0051
  459MOL0     H61947  12.792   2.744   8.436  3.2212 -0.5135  4.5205
  459MOL0     H61948  12.855   2.843   8.644  0.8253  3.2373  1.0602
  459MOL0     H61949  11.690   3.349   9.097  1.3423  0.7898 -0.4117
  459MOL0     H61950  11.521   3.290   9.317 -0.7670  0.1423 -0.4109
  459MOL0     H61951  11.290   3.674   9.663 -3.2088  1.4162 -1.1830
  459MOL0     H61952  11.238   3.609   9.905  2.4324  0.4015 -0.1246
  459MOL0     H61953  11.178   3.314  10.157 -1.0771  1.1547  1.2431
  459MOL0     H61954  11.216   3.485  10.136  1.9134  0.3477 -1.6953
  459MOL0     H61955  11.417   3.386  10.146  0.9006  2.1686 -0.7857
  459MOL0     H61956  11.399   3.455   9.982 -0.2398  0.3476  1.1751
  459MOL0     H61957  11.324   3.234   9.901  1.7431  0.2407 -1.5272
  459MOL0     H61958  11.385   3.162  10.044  2.6152 -0.0243 -0.0976
  459MOL0     H61959  11.610   3.283   9.992  0.1837  0.8144 -1.0262
  459MOL0     H61960  11.554   3.142   9.908  2.5307  1.5736 -3.0753
  459MOL0     H61961  11.545   3.386   9.573  0.4295  3.8671  0.7588
  459MOL0     H61962  11.056   3.254   9.758 -0.0714 -0.9904 -2.9585
  459MOL0     H61963  11.149   3.265   9.424 -0.6410 -0.5805  0.5654
  459MOL0     H61964  11.043   3.203   9.547  1.8328 -0.3472  1.1750
  459MOL0     H61965  10.987   3.344   9.457 -0.3059 -0.8014 -1.0726
  460MOL0     O61966   6.489   5.600   7.189 -0.7230  0.5446  0.2134
  460MOL0     C61967   6.577   5.577   7.108  0.4513 -0.2138 -0.0104
  460MOL0     O61968   6.553   5.505   6.992  0.0436 -0.0043  0.3128
  460MOL0     C61969   6.437   5.523   6.917 -0.2287 -0.4347 -0.3222
  460MOL0     C61970   6.370   5.647   6.909 -0.8232  0.6682  0.4938
  460MOL0     C61971   6.241   5.655   6.855 -0.1562  0.1096 -0.0014
  460MOL0     C61972   6.180   5.552   6.800 -0.6986  1.1185 -0.0568
  460MOL0     O61973   6.053   5.557   6.756  0.3549 -0.1034 -0.6446
  460MOL0     C61974   5.980   5.430   6.749 -0.3706  0.2401  0.4233
  460MOL0     C61975   5.836   5.471   6.712  0.0912 -0.3398 -0.0344
  460MOL0     C61976   5.738   5.352   6.715  0.8303 -0.4113  0.1523
  460MOL0     C61977   5.599   5.402   6.678  0.4625 -0.6394  0.0891
  460MOL0     C61978   5.506   5.278   6.666 -0.5830 -0.2023 -0.0655
  460MOL0     C61979   5.371   5.310   6.611  0.4192 -0.2510  0.9255
  460MOL0     C61980   5.291   5.177   6.605  0.3969 -0.5891 -0.8638
  460MOL0     C61981   5.181   5.176   6.502 -0.4702  0.3646 -0.9031
  460MOL0     N61982   5.085   5.282   6.527 -0.0544 -0.3887 -0.2126
  460MOL0     C61983   5.044   5.372   6.425  0.1389 -0.1708 -0.1503
  460MOL0     C61984   4.977   5.461   6.502  0.4192 -0.6167  0.7561
  460MOL0     C61985   4.894   5.578   6.440 -1.0029 -0.0324 -0.1135
  460MOL0     C61986   4.740   5.564   6.431  0.5483 -0.3096 -0.2878
  460MOL0     C61987   4.695   5.438   6.353  1.2012  0.0958  0.2879
  460MOL0     C61988   4.708   5.304   6.427  0.3998 -0.7678  0.3940
  460MOL0     O61989   4.605   5.221   6.389  0.5216 -0.2104 -0.3142
  460MOL0     C61990   4.484   5.230   6.455 -0.8548 -0.4231  0.0204
  460MOL0     C61991   4.409   5.121   6.426  0.4524  0.2722 -0.6867
  460MOL0     C61992   4.281   5.108   6.481 -0.2474  0.3754 -0.7845
  460MOL0     C61993   4.219   5.219   6.532  0.1620  0.1756  0.3755
  460MOL0     C61994   4.075   5.211   6.566  0.7495 -0.1000 -0.1520
  460MOL0     O61995   4.016   5.093   6.567  0.2246 -0.2997 -0.2733
  460MOL0     C61996   3.888   5.074   6.611 -0.4636 -0.3880 -0.3438
  460MOL0     C61997   3.855   4.939   6.594  0.6400  0.4124 -0.2936
  460MOL0     C61998   3.733   4.887   6.645 -0.8504  1.0209  0.3208
  460MOL0     C61999   3.647   4.961   6.716  0.1879 -0.0829 -0.5261
  460MOL0     O62000   3.537   4.901   6.774 -0.8498 -0.5092  0.3107
  460MOL0     C62001   3.434   4.864   6.685 -0.8560 -0.2021 -0.0924
  460MOL0     C62002   3.425   4.707   6.666  1.0911 -0.5078 -0.4278
  460MOL0     C62003   3.362   4.674   6.535 -0.7094 -0.6511 -0.3333
  460MOL0     C62004   3.215   4.689   6.533 -0.3343 -0.6380 -0.3325
  460MOL0     C62005   3.145   4.644   6.402  0.3083 -0.3394  0.7477
  460MOL0     C62006   2.997   4.679   6.401  0.0006  0.5406 -0.9764
  460MOL0     C62007   2.943   4.660   6.257  0.0518 -0.1371 -0.3659
  460MOL0     C62008   2.802   4.673   6.249 -0.9757 -1.1374  0.1070
  460MOL0    Cl62009   2.764   4.823   6.316  0.2104 -0.1847  0.1979
  460MOL0     C62010   3.678   5.105   6.734  0.0530 -0.8269  0.1201
  460MOL0     C62011   3.792   5.162   6.681 -0.2978  0.3508 -0.4897
  460MOL0     O62012   4.022   5.321   6.600 -0.2703  0.1297 -0.7111
  460MOL0     C62013   4.292   5.337   6.553  0.4090 -0.6256 -0.7511
  460MOL0     C62014   4.426   5.334   6.528  0.1202  0.2378 -0.5452
  460MOL0     N62015   4.982   5.448   6.634  0.4089  0.9259 -0.0625
  460MOL0     N62016   5.043   5.334   6.648 -0.2723 -0.8206  0.3543
  460MOL0     C62017   6.257   5.431   6.794  0.2908 -0.3371  0.1244
  460MOL0     C62018   6.381   5.417   6.853  0.4503  0.1563  0.0327
  460MOL0     C62019   6.715   5.602   7.155 -0.4223 -0.1593  0.4598
  460MOL0     C62020   6.822   5.538   7.082 -0.1362 -0.5388  0.1562
  460MOL0     C62021   6.956   5.553   7.117  0.4307  0.6218 -0.4371
  460MOL0     C62022   6.997   5.618   7.230 -0.5416 -0.3856 -0.3439
  460MOL0     O62023   7.132   5.609   7.267  0.5352 -0.1429  0.2781
  460MOL0     C62024   7.184   5.700   7.367 -0.3010 -0.0345  0.0568
  460MOL0     C62025   7.339   5.673   7.380  0.0281 -0.1915 -0.6862
  460MOL0     C62026   7.396   5.762   7.489 -0.0012  0.2469 -0.2574
  460MOL0     C62027   7.553   5.759   7.503 -0.3787  0.4177  0.0526
  460MOL0     C62028   7.608   5.625   7.473 -0.0833 -0.1847 -0.9923
  460MOL0     C62029   7.654   5.520   7.450 -0.1478  0.0404  0.2922
  460MOL0     C62030   6.897   5.693   7.301 -0.2336  0.0988  0.4270
  460MOL0     C62031   6.767   5.686   7.263  0.8401 -0.6464  0.0456
  460MOL0     C62032   6.684   5.783   7.329 -0.2966  0.3982  0.9573
  460MOL0     H62033   6.423   5.737   6.936 -0.2227 -0.1028  1.9956
  460MOL0     H62034   6.204   5.757   6.848  2.9171  1.2570 -1.1862
  460MOL0     H62035   6.023   5.355   6.682  1.6183 -0.9257  2.8347
  460MOL0     H62036   5.974   5.385   6.849  1.7558 -0.5545  0.2364
  460MOL0     H62037   5.829   5.506   6.609  2.1848 -1.1983 -0.5268
  460MOL0     H62038   5.798   5.560   6.764 -1.7462 -0.7354 -0.6452
  460MOL0     H62039   5.744   5.304   6.813  0.8262 -0.2866  0.2141
  460MOL0     H62040   5.761   5.275   6.641 -1.6047 -1.2065  0.1320
  460MOL0     H62041   5.566   5.465   6.762 -0.5127  1.4504 -1.7543
  460MOL0     H62042   5.588   5.464   6.588  1.8646  1.1049  1.0600
  460MOL0     H62043   5.552   5.201   6.604 -0.5840  0.3888 -0.8084
  460MOL0     H62044   5.507   5.240   6.769  3.7074 -3.3234 -1.0043
  460MOL0     H62045   5.325   5.387   6.674  2.9365  1.0656  1.3073
  460MOL0     H62046   5.388   5.349   6.510  0.4710  0.5828  1.2445
  460MOL0     H62047   5.251   5.158   6.705  2.4721  0.4836  0.2497
  460MOL0     H62048   5.358   5.095   6.581 -2.2520 -2.3597 -2.8245
  460MOL0     H62049   5.228   5.199   6.405 -0.1507  1.4000 -0.5122
  460MOL0     H62050   5.133   5.078   6.498 -0.9597  0.6327 -2.3691
  460MOL0     H62051   5.053   5.368   6.317 -2.2139 -0.1062 -0.4209
  460MOL0     H62052   4.917   5.667   6.499 -5.0887 -0.1065  1.9357
  460MOL0     H62053   4.925   5.613   6.341 -1.0742  0.9169  0.1831
  460MOL0     H62054   4.700   5.554   6.532  1.6919 -4.0929 -0.0622
  460MOL0     H62055   4.702   5.659   6.392  2.4260  0.2381 -0.8562
  460MOL0     H62056   4.749   5.440   6.258  1.7583 -0.2337  0.5947
  460MOL0     H62057   4.590   5.459   6.331  1.4090 -0.8304 -1.8112
  460MOL0     H62058   4.711   5.316   6.536 -0.8297  0.3199  0.3323
  460MOL0     H62059   4.795   5.254   6.385  0.3470  0.1616 -0.8806
  460MOL0     H62060   4.444   5.033   6.374 -0.4442 -0.5164  0.0083
  460MOL0     H62061   4.218   5.021   6.465 -0.2891  0.8662 -3.8479
  460MOL0     H62062   3.914   4.867   6.537 -1.2028 -1.7942  0.4571
  460MOL0     H62063   3.701   4.786   6.622 -2.1125  1.6710 -0.9169
  460MOL0     H62064   3.338   4.904   6.720  0.2558  1.4800  1.2219
  460MOL0     H62065   3.454   4.924   6.595  0.8581  0.6582  0.8124
  460MOL0     H62066   3.531   4.682   6.673  1.1205 -0.6484 -1.2802
  460MOL0     H62067   3.365   4.665   6.748  0.8801 -0.5968 -0.6278
  460MOL0     H62068   3.405   4.731   6.453  1.6295 -1.7860  0.0354
  460MOL0     H62069   3.380   4.570   6.505 -3.9847 -1.0304 -1.4705
  460MOL0     H62070   3.206   4.798   6.545 -2.4410 -0.9119  1.0140
  460MOL0     H62071   3.166   4.637   6.615 -2.9453 -0.9188 -1.9524
  460MOL0     H62072   3.152   4.535   6.398 -4.3490 -0.9841  3.0391
  460MOL0     H62073   3.201   4.683   6.317  1.2098 -0.0634  1.4486
  460MOL0     H62074   2.952   4.601   6.463  1.6510  1.8116  2.0382
  460MOL0     H62075   2.989   4.780   6.443 -0.8448 -0.1651  0.6294
  460MOL0     H62076   2.960   4.554   6.234  0.8781 -0.5171  1.7637
  460MOL0     H62077   2.992   4.730   6.188  1.7031 -1.3027 -0.4567
  460MOL0     H62078   2.762   4.665   6.148 -1.3841 -2.2942  0.3427
  460MOL0     H62079   2.761   4.591   6.309 -0.2635 -1.9586 -0.5044
  460MOL0     H62080   3.594   5.150   6.786  0.3110  0.1909 -0.3247
  460MOL0     H62081   3.815   5.266   6.699  2.3885  0.1263 -2.1562
  460MOL0     H62082   4.248   5.426   6.598 -1.7839 -1.9243 -0.1556
  460MOL0     H62083   4.468   5.432   6.547 -0.0546 -0.1284  2.1306
  460MOL0     H62084   6.215   5.346   6.740 -0.6040 -1.3214  2.2345
  460MOL0     H62085   6.432   5.321   6.852  0.4654  0.1510 -1.6114
  460MOL0     H62086   6.814   5.472   6.996  5.2712 -0.5632 -0.6563
  460MOL0     H62087   7.035   5.498   7.066 -1.6651 -1.5091 -1.6226
  460MOL0     H62088   7.126   5.691   7.459 -0.5731  2.2117  0.1502
  460MOL0     H62089   7.164   5.804   7.341 -1.1345 -0.0342  0.6549
  460MOL0     H62090   7.392   5.696   7.287 -0.0327 -2.1839 -1.2682
  460MOL0     H62091   7.351   5.566   7.400  1.3115  0.1146  0.3022
  460MOL0     H62092   7.342   5.729   7.577 -2.1336  2.0887 -0.7946
  460MOL0     H62093   7.369   5.867   7.471  0.8161  0.5524  0.2198
  460MOL0     H62094   7.594   5.829   7.430  1.2207 -0.7674 -0.2591
  460MOL0     H62095   7.591   5.783   7.602 -2.5237 -1.4703  1.4338
  460MOL0     H62096   7.695   5.421   7.455 -0.6141 -0.1041  3.9439
  460MOL0     H62097   6.934   5.759   7.380  2.4371 -2.7870  1.8070
  460MOL0     H62098   6.620   5.835   7.258 -1.7892 -0.1086  1.8826
  460MOL0     H62099   6.613   5.726   7.389 -1.4171  0.1341 -0.5881
  460MOL0     H62100   6.735   5.863   7.384 -1.7212  2.0306  0.0078
  461MOL0     O62101   7.749   0.234   5.182 -0.2926 -0.0890  0.2861
  461MOL0     C62102   7.785   0.313   5.096  0.3566 -0.4696  0.3451
  461MOL0     O62103   7.919   0.332   5.054  0.0198  0.0047  0.1909
  461MOL0     C62104   8.019   0.259   5.124  1.1199  0.1963  1.2127
  461MOL0     C62105   8.035   0.122   5.119  0.6586 -0.1468  0.7159
  461MOL0     C62106   8.141   0.056   5.172 -0.0408  0.1275 -0.4792
  461MOL0     C62107   8.253   0.121   5.237  0.4614  0.2692 -0.9111
  461MOL0     O62108   8.347   0.043   5.307  0.2475 -0.5814  0.1921
  461MOL0     C62109   8.463   0.105   5.361 -0.4225  0.0622 -0.5182
  461MOL0     C62110   8.532  -0.011   5.437 -0.4400  0.2010 -0.9222
  461MOL0     C62111   8.683   0.010   5.453 -0.4191  0.7427  0.0935
  461MOL0     C62112   8.708   0.112   5.569  0.4571 -0.8479  0.3695
  461MOL0     C62113   8.850   0.122   5.607 -0.5496 -1.4906 -1.2810
  461MOL0     C62114   8.894   0.003   5.681 -0.8065  0.3927  0.4496
  461MOL0     C62115   9.043   0.011   5.714  0.2044  0.8332  0.3210
  461MOL0     C62116   9.159  -0.041   5.632  0.4853 -0.6074  0.3184
  461MOL0     N62117   9.280  -0.082   5.704  0.1233 -1.1398 -0.2863
  461MOL0     C62118   9.404  -0.106   5.651  0.4410 -0.2013  0.2507
  461MOL0     C62119   9.479  -0.141   5.760 -0.0933 -1.0199  0.8826
  461MOL0     C62120   9.634  -0.158   5.778  1.1999 -1.1757 -0.1284
  461MOL0     C62121   9.718  -0.186   5.652  1.0004 -0.3025 -0.5607
  461MOL0     C62122   9.852  -0.246   5.698  0.1807  0.5524  0.5421
  461MOL0     C62123   9.952  -0.281   5.577 -0.0074 -0.2337  0.3496
  461MOL0     O62124   9.965  -0.149   5.513 -0.2377 -0.3086  0.1652
  461MOL0     C62125   9.970  -0.143   5.380 -0.1873 -0.4920  0.0324
  461MOL0     C62126  10.064  -0.208   5.305  0.8673 -0.0680 -0.0271
  461MOL0     C62127  10.050  -0.208   5.166 -1.3174 -0.3890 -0.1226
  461MOL0     C62128   9.957  -0.128   5.103  0.7007  0.8679  0.1888
  461MOL0     C62129   9.937  -0.124   4.958 -0.3657 -0.8963  0.7906
  461MOL0     O62130   9.887  -0.008   4.910 -0.9386  0.4626 -0.1904
  461MOL0     C62131   9.840  -0.015   4.778  0.2327 -0.3518 -0.1781
  461MOL0     C62132   9.707  -0.050   4.745 -0.3391  0.2380  0.8221
  461MOL0     C62133   9.669  -0.062   4.606  0.2078  0.0379 -0.2071
  461MOL0     C62134   9.761  -0.035   4.505  0.5052  0.0715 -0.2946
  461MOL0     O62135   9.741  -0.067   4.373  0.0094 -0.1913  1.0481
  461MOL0     C62136   9.650  -0.172   4.344  0.7291  0.4306 -0.1216
  461MOL0     C62137   9.679  -0.220   4.192  0.0982  1.2057  0.5014
  461MOL0     C62138   9.552  -0.287   4.135 -0.4926  0.5372 -0.3903
  461MOL0     C62139   9.567  -0.313   3.986  0.1048 -0.4059  0.3030
  461MOL0     C62140   9.457  -0.388   3.907 -1.2100  0.1120  0.0188
  461MOL0     C62141   9.321  -0.315   3.894 -0.2177  0.6065 -0.3925
  461MOL0     C62142   9.324  -0.197   3.798  0.2883  0.8307 -0.1798
  461MOL0     C62143   9.218  -0.084   3.822 -0.4587 -0.6499  0.7050
  461MOL0    Cl62144   9.243  -0.006   3.970 -0.0036 -0.5161 -0.0753
  461MOL0     C62145   9.884   0.011   4.542 -1.4959 -0.1912  0.1272
  461MOL0     C62146   9.921   0.032   4.679 -0.4996 -0.4957  0.5692
  461MOL0     O62147   9.986  -0.221   4.892  0.9457  0.2862  0.4518
  461MOL0     C62148   9.871  -0.048   5.180  0.4293  0.9790  0.1988
  461MOL0     C62149   9.875  -0.066   5.321  0.4967 -0.0692 -0.3437
  461MOL0     N62150   9.406  -0.123   5.872 -0.2496 -0.3155  0.4658
  461MOL0     N62151   9.294  -0.095   5.842  0.0794 -0.6503  0.3037
  461MOL0     C62152   8.237   0.261   5.245 -0.6879 -0.2997 -0.2814
  461MOL0     C62153   8.130   0.327   5.184  0.4048  0.0186  0.1101
  461MOL0     C62154   7.690   0.387   5.014 -0.5027  0.8110  0.4687
  461MOL0     C62155   7.567   0.328   4.980 -0.2203 -0.6374  1.2235
  461MOL0     C62156   7.474   0.379   4.888 -1.2099 -0.2122  0.2966
  461MOL0     C62157   7.494   0.505   4.828 -0.0115  0.1298  0.8287
  461MOL0     O62158   7.383   0.548   4.750  0.1465  0.6324 -0.2934
  461MOL0     C62159   7.388   0.666   4.668 -0.9787 -0.2827  0.8232
  461MOL0     C62160   7.345   0.788   4.746  0.2551  1.2344 -0.1595
  461MOL0     C62161   7.391   0.921   4.698  0.3403  0.7374  0.5034
  461MOL0     C62162   7.320   0.955   4.565  0.3351 -0.3366  0.3275
  461MOL0     C62163   7.185   1.006   4.573  0.0401 -0.5958 -0.2223
  461MOL0     C62164   7.070   1.036   4.581 -0.4848 -0.5662 -0.5485
  461MOL0     C62165   7.610   0.573   4.874 -0.0742 -0.1561  0.6781
  461MOL0     C62166   7.708   0.518   4.961 -0.0087 -0.2068 -0.3441
  461MOL0     C62167   7.828   0.605   5.014 -0.3069  0.2812 -0.1300
  461MOL0     H62168   7.949   0.076   5.071 -0.3273  1.7900  0.5445
  461MOL0     H62169   8.139  -0.052   5.185 -1.4771  0.2888  1.0117
  461MOL0     H62170   8.526   0.146   5.281 -1.4628 -1.4826 -2.2004
  461MOL0     H62171   8.431   0.185   5.429 -1.0669  0.8617 -1.7264
  461MOL0     H62172   8.525  -0.105   5.382  0.3868 -0.7719  0.5773
  461MOL0     H62173   8.488  -0.011   5.537 -0.7144  2.5010 -0.9851
  461MOL0     H62174   8.728   0.050   5.362 -0.4943  0.5609 -0.0251
  461MOL0     H62175   8.728  -0.089   5.468 -1.1698 -0.1028 -2.5006
  461MOL0     H62176   8.668   0.205   5.530 -1.3917 -2.8172 -2.9381
  461MOL0     H62177   8.655   0.084   5.661  1.3419  0.8322  1.4258
  461MOL0     H62178   8.916   0.123   5.520 -0.7472 -1.6170 -1.4327
  461MOL0     H62179   8.873   0.209   5.669 -1.0709 -3.2544  1.5775
  461MOL0     H62180   8.831  -0.006   5.770  0.6139 -0.5521  1.4101
  461MOL0     H62181   8.877  -0.089   5.625 -0.0370 -2.4252  4.3772
  461MOL0     H62182   9.052  -0.041   5.810 -0.6528  2.4194  1.2990
  461MOL0     H62183   9.067   0.116   5.729  1.5675  0.3376  1.8990
  461MOL0     H62184   9.129  -0.115   5.557  0.2023 -1.5699  1.3490
  461MOL0     H62185   9.191   0.049   5.580 -1.3157  1.7172  2.9428
  461MOL0     H62186   9.447  -0.112   5.551  1.2593 -3.4561  0.6777
  461MOL0     H62187   9.681  -0.068   5.817 -0.7551  0.1746 -0.7435
  461MOL0     H62188   9.639  -0.235   5.856  0.9512  2.6876  4.1231
  461MOL0     H62189   9.672  -0.254   5.580 -2.7895  1.5559 -0.1488
  461MOL0     H62190   9.732  -0.090   5.602  1.5202  0.3193  0.7320
  461MOL0     H62191   9.836  -0.329   5.768  0.9560  1.2349  1.5653
  461MOL0     H62192   9.896  -0.161   5.751  1.8392 -0.1427  0.3537
  461MOL0     H62193   9.907  -0.348   5.503 -1.6554  1.8766 -0.6826
  461MOL0     H62194  10.051  -0.312   5.610 -0.0981 -0.2349  0.6242
  461MOL0     H62195  10.147  -0.253   5.358  3.3997  2.6315 -1.3906
  461MOL0     H62196  10.114  -0.276   5.109  1.3179  0.0927  2.0223
  461MOL0     H62197   9.643  -0.075   4.829  1.4614 -1.4580  1.7613
  461MOL0     H62198   9.571  -0.102   4.583  0.6439 -0.5211 -1.1354
  461MOL0     H62199   9.641  -0.243   4.427 -3.3938  0.5903 -0.2285
  461MOL0     H62200   9.549  -0.131   4.337  0.3447 -0.3864  0.4626
  461MOL0     H62201   9.705  -0.129   4.137  2.4585 -0.0647 -0.6486
  461MOL0     H62202   9.761  -0.293   4.190  0.1533  1.2461 -1.9365
  461MOL0     H62203   9.547  -0.384   4.185  1.2923  1.0751  0.9368
  461MOL0     H62204   9.461  -0.230   4.155 -2.5802 -2.8103  0.4617
  461MOL0     H62205   9.660  -0.369   3.975  0.1314 -0.3154  0.0538
  461MOL0     H62206   9.590  -0.219   3.936  2.1843 -1.3711 -0.6633
  461MOL0     H62207   9.446  -0.486   3.954 -1.1433  1.1437  2.3380
  461MOL0     H62208   9.490  -0.402   3.804 -2.0588  1.8878 -0.5415
  461MOL0     H62209   9.248  -0.390   3.861 -2.4754  2.4566  0.1992
  461MOL0     H62210   9.274  -0.292   3.990 -1.3133 -2.2703 -0.1205
  461MOL0     H62211   9.303  -0.237   3.698  2.8592 -1.0163 -0.0910
  461MOL0     H62212   9.424  -0.154   3.796 -0.3055  2.2912  0.1210
  461MOL0     H62213   9.227  -0.006   3.746 -2.4299  0.7922  1.8358
  461MOL0     H62214   9.121  -0.135   3.809 -0.6037 -0.1867 -0.1086
  461MOL0     H62215   9.958   0.051   4.474  0.3638  0.3313  2.3151
  461MOL0     H62216  10.014   0.082   4.704 -1.8594  2.6416 -0.0973
  461MOL0     H62217   9.800   0.022   5.137 -0.4608 -0.3641 -0.5949
  461MOL0     H62218   9.817  -0.001   5.386  0.9870  1.2898 -1.2262
  461MOL0     H62219   8.315   0.318   5.294 -1.3518 -1.2819  2.0708
  461MOL0     H62220   8.119   0.434   5.167 -1.1248  0.1949  1.8710
  461MOL0     H62221   7.540   0.241   5.039 -2.5405 -2.1332 -1.7673
  461MOL0     H62222   7.383   0.322   4.868  1.0504 -3.3077 -2.2316
  461MOL0     H62223   7.324   0.657   4.580 -1.4770  0.6225  1.0788
  461MOL0     H62224   7.488   0.684   4.629 -0.4859  1.5463  2.7847
  461MOL0     H62225   7.374   0.784   4.851  0.3798  0.5132 -0.2168
  461MOL0     H62226   7.236   0.794   4.751 -0.0780 -0.8184 -2.7844
  461MOL0     H62227   7.499   0.907   4.687  0.1191 -0.3502 -0.5228
  461MOL0     H62228   7.368   1.002   4.767 -2.5111  1.4493 -1.1462
  461MOL0     H62229   7.364   1.037   4.506 -3.4259 -0.3951 -2.9845
  461MOL0     H62230   7.313   0.874   4.492 -3.3219 -1.6863  1.9410
  461MOL0     H62231   6.966   1.061   4.579 -0.6835 -1.3491 -0.6397
  461MOL0     H62232   7.611   0.680   4.854 -4.2897  0.2314  1.6984
  461MOL0     H62233   7.923   0.581   4.967  0.8085 -0.2140  2.2205
  461MOL0     H62234   7.798   0.708   4.993  1.2680  0.2297 -3.2405
  461MOL0     H62235   7.846   0.596   5.122  1.6044  0.7986 -0.3641
  462MOL0     O62236   5.028   0.947   9.400 -0.0986  0.1929 -0.7757
  462MOL0     C62237   5.056   0.948   9.522  0.6194 -1.0803  0.4262
  462MOL0     O62238   5.166   0.895   9.574  0.1880  0.4622  0.2256
  462MOL0     C62239   5.258   0.841   9.487  0.2977  0.0056  0.3908
  462MOL0     C62240   5.240   0.707   9.432 -0.1268  1.1057 -0.3183
  462MOL0     C62241   5.340   0.651   9.354 -1.0607 -0.6051 -0.2220
  462MOL0     C62242   5.449   0.725   9.315 -0.1039  0.9492 -0.1426
  462MOL0     O62243   5.543   0.665   9.241  0.0299  0.2019 -0.3784
  462MOL0     C62244   5.633   0.741   9.165 -0.6823  1.1325  0.0785
  462MOL0     C62245   5.703   0.657   9.063 -0.9197 -0.7992 -0.0891
  462MOL0     C62246   5.606   0.601   8.958 -0.2824  1.2579 -0.0151
  462MOL0     C62247   5.674   0.518   8.849 -0.3309 -0.5551  0.3498
  462MOL0     C62248   5.569   0.461   8.768  0.3268  0.8575  0.3078
  462MOL0     C62249   5.520   0.562   8.670  1.2105  0.6671 -0.2042
  462MOL0     C62250   5.433   0.500   8.557  0.2098  0.4225 -0.1670
  462MOL0     C62251   5.354   0.603   8.465  0.0132 -0.0568  0.0188
  462MOL0     N62252   5.450   0.693   8.398 -0.6726 -0.4654 -0.3006
  462MOL0     C62253   5.501   0.811   8.460 -0.2105  1.1756 -0.5729
  462MOL0     C62254   5.565   0.875   8.357  0.5831  0.1209 -0.4603
  462MOL0     C62255   5.649   1.003   8.373  0.5997  0.9640  0.5544
  462MOL0     C62256   5.789   0.985   8.311  0.0791  0.0269  0.2476
  462MOL0     C62257   5.854   1.114   8.252  0.5940 -0.0515  0.2169
  462MOL0     C62258   5.863   1.235   8.351 -0.8837 -0.1734 -0.6707
  462MOL0     O62259   5.973   1.217   8.441 -0.7552  0.1097 -0.3391
  462MOL0     C62260   6.093   1.258   8.388 -0.0581  0.1549  0.0465
  462MOL0     C62261   6.202   1.236   8.473  0.4128  0.0796 -0.3903
  462MOL0     C62262   6.330   1.287   8.439  0.5093  0.0161 -0.1462
  462MOL0     C62263   6.359   1.326   8.305 -0.1086 -0.1869 -0.6527
  462MOL0     C62264   6.494   1.361   8.267 -1.0444  0.0237 -0.4765
  462MOL0     O62265   6.589   1.355   8.367  0.4221  0.7663 -0.5745
  462MOL0     C62266   6.722   1.364   8.341  0.1820 -0.2866  0.5793
  462MOL0     C62267   6.799   1.299   8.240 -0.4386 -0.3657 -0.1966
  462MOL0     C62268   6.934   1.329   8.227 -0.2482  0.5171 -1.1168
  462MOL0     C62269   6.995   1.412   8.326  0.4588  0.7326  0.3361
  462MOL0     O62270   7.125   1.443   8.335  0.6015 -0.4654 -0.0224
  462MOL0     C62271   7.210   1.449   8.226  0.3160 -0.4222  0.2373
  462MOL0     C62272   7.301   1.573   8.237  0.2910 -0.2157  0.6653
  462MOL0     C62273   7.433   1.565   8.158  1.2850  0.0064 -0.4238
  462MOL0     C62274   7.513   1.693   8.175  0.0326 -0.7279 -0.6495
  462MOL0     C62275   7.642   1.664   8.080 -0.1660  0.1937 -0.0432
  462MOL0     C62276   7.723   1.785   8.036  0.9991 -0.2557 -1.3924
  462MOL0     C62277   7.777   1.867   8.161  0.1764  0.6091  0.8730
  462MOL0     C62278   7.862   1.972   8.115 -0.0327  0.0507 -0.7304
  462MOL0    Cl62279   7.871   2.098   8.236  0.0471  0.2569 -0.2260
  462MOL0     C62280   6.925   1.465   8.427  0.1505 -0.0080 -0.0714
  462MOL0     C62281   6.788   1.444   8.437 -0.3276  0.1713  0.4015
  462MOL0     O62282   6.516   1.387   8.146  0.1200  0.2437 -0.3090
  462MOL0     C62283   6.250   1.327   8.215 -0.2741 -0.6677 -0.4410
  462MOL0     C62284   6.123   1.295   8.257  0.8181  0.6591 -0.3861
  462MOL0     N62285   5.542   0.801   8.242 -0.2586  0.5350  0.3898
  462MOL0     N62286   5.474   0.688   8.262 -0.2458  0.1529 -0.2438
  462MOL0     C62287   5.466   0.854   9.361 -0.4043 -0.1167 -0.4253
  462MOL0     C62288   5.376   0.910   9.450 -0.3913 -0.0935  0.2522
  462MOL0     C62289   4.957   1.015   9.615  0.4433  0.2896  0.5130
  462MOL0     C62290   4.998   1.082   9.728  0.0085 -0.1394 -0.0479
  462MOL0     C62291   4.916   1.148   9.812 -0.2290  1.0061 -0.0648
  462MOL0     C62292   4.777   1.152   9.789 -0.0407 -0.4207 -0.1730
  462MOL0     O62293   4.692   1.226   9.882 -0.5896  0.3271 -0.0435
  462MOL0     C62294   4.594   1.316   9.818  0.9452 -0.5652 -1.1366
  462MOL0     C62295   4.596   1.455   9.871  0.0322 -0.1038 -0.5620
  462MOL0     C62296   4.505   1.549   9.787  0.3172 -1.0662 -0.3138
  462MOL0     C62297   4.441   1.656   9.878  0.0049 -0.6543  0.9432
  462MOL0     C62298   4.395   1.764   9.796 -0.5730 -1.3202  0.8724
  462MOL0     C62299   4.335   1.852   9.737  1.2418  1.1924 -0.2657
  462MOL0     C62300   4.724   1.071   9.685  0.5540 -0.7437  1.2560
  462MOL0     C62301   4.816   1.003   9.601  0.9547 -0.0634  0.1865
  462MOL0     C62302   4.751   0.901   9.497 -0.2913 -0.4224  0.0160
  462MOL0     H62303   5.152   0.656   9.470  0.2099  0.4562 -0.3982
  462MOL0     H62304   5.325   0.545   9.334 -0.4274 -0.9900  1.2064
  462MOL0     H62305   5.579   0.823   9.115  1.0512  0.1720 -3.7304
  462MOL0     H62306   5.709   0.781   9.232  0.2056 -1.3289  0.6593
  462MOL0     H62307   5.754   0.572   9.109 -0.9526 -0.1297  1.2429
  462MOL0     H62308   5.782   0.721   9.024  2.0486 -3.8428  0.4426
  462MOL0     H62309   5.548   0.682   8.913  0.0942  2.1754  1.1020
  462MOL0     H62310   5.537   0.539   9.016  1.1330  0.8917  1.3428
  462MOL0     H62311   5.745   0.578   8.792  0.4279  1.3942  3.0816
  462MOL0     H62312   5.739   0.440   8.890  4.6405  2.0480 -1.7015
  462MOL0     H62313   5.621   0.377   8.721 -0.3809  0.3581  0.4035
  462MOL0     H62314   5.493   0.415   8.832  2.3935 -2.0538  0.9050
  462MOL0     H62315   5.459   0.639   8.717 -0.7993 -0.7693 -0.3299
  462MOL0     H62316   5.606   0.608   8.620  2.5021 -2.5489 -1.2139
  462MOL0     H62317   5.365   0.421   8.590  3.2287 -2.5520 -0.5281
  462MOL0     H62318   5.505   0.453   8.489 -0.6810  1.5982 -2.0329
  462MOL0     H62319   5.308   0.539   8.389 -1.1464  0.8174 -0.0386
  462MOL0     H62320   5.273   0.656   8.516 -1.6365 -1.6878 -0.7819
  462MOL0     H62321   5.502   0.835   8.566 -3.0580  2.2034 -0.7055
  462MOL0     H62322   5.583   1.071   8.318  0.1457  2.1196  2.4335
  462MOL0     H62323   5.652   1.033   8.478  1.9454 -0.2642  0.9029
  462MOL0     H62324   5.852   0.939   8.387 -1.5467 -1.3530  0.8178
  462MOL0     H62325   5.790   0.913   8.228  3.7070  0.7656 -0.5403
  462MOL0     H62326   5.786   1.147   8.173  0.9853  1.3976  0.4609
  462MOL0     H62327   5.945   1.078   8.203 -1.0858 -1.5388 -2.0399
  462MOL0     H62328   5.776   1.246   8.417 -2.1130  3.9120 -2.6715
  462MOL0     H62329   5.881   1.323   8.290 -0.3593  1.2149  1.3768
  462MOL0     H62330   6.191   1.192   8.571 -3.0216  0.5394 -0.4714
  462MOL0     H62331   6.404   1.275   8.517 -1.1343  0.0730  1.5165
  462MOL0     H62332   6.751   1.230   8.171 -0.4097 -0.8807  0.2808
  462MOL0     H62333   6.986   1.295   8.138  2.1565  1.3861 -0.1211
  462MOL0     H62334   7.272   1.360   8.232  0.9668 -0.4166 -3.6937
  462MOL0     H62335   7.161   1.449   8.128  0.8900 -0.1779 -0.0535
  462MOL0     H62336   7.245   1.662   8.208  1.1765  0.8214  1.9920
  462MOL0     H62337   7.317   1.588   8.344 -1.2789  0.0483  0.8793
  462MOL0     H62338   7.496   1.477   8.173  1.8641 -0.1964 -3.4670
  462MOL0     H62339   7.399   1.547   8.056  1.2240 -1.3159 -0.1959
  462MOL0     H62340   7.536   1.706   8.281 -3.3596 -1.7319  0.3434
  462MOL0     H62341   7.445   1.768   8.133 -0.3750 -1.2390 -0.9157
  462MOL0     H62342   7.603   1.612   7.992 -2.2879 -0.3418  1.1638
  462MOL0     H62343   7.710   1.590   8.124  1.4268  0.2938 -2.1631
  462MOL0     H62344   7.808   1.748   7.978  1.5603 -0.0425 -0.7297
  462MOL0     H62345   7.655   1.840   7.970 -2.4120  1.1773  2.8358
  462MOL0     H62346   7.837   1.799   8.222 -1.9144 -2.3487 -0.0741
  462MOL0     H62347   7.697   1.899   8.229  0.8788  1.3905  1.3425
  462MOL0     H62348   7.960   1.930   8.089 -0.8310 -5.3713  3.2276
  462MOL0     H62349   7.830   2.024   8.024 -0.3680  2.5072  0.7114
  462MOL0     H62350   6.984   1.531   8.489  0.8937 -2.3345  1.8232
  462MOL0     H62351   6.737   1.503   8.513 -0.6959 -1.2451  1.2966
  462MOL0     H62352   6.270   1.357   8.113 -0.6418 -0.1791 -0.3718
  462MOL0     H62353   6.045   1.300   8.182  2.0068 -2.4981 -2.0276
  462MOL0     H62354   5.547   0.921   9.337 -1.7495  1.1499 -1.6305
  462MOL0     H62355   5.394   1.003   9.502  0.1802 -1.2071  2.1504
  462MOL0     H62356   5.104   1.090   9.750 -0.1538  0.6309  0.4927
  462MOL0     H62357   4.938   1.198   9.905 -3.0904  1.2979  0.5381
  462MOL0     H62358   4.496   1.282   9.851  0.8515  1.7695  1.3631
  462MOL0     H62359   4.601   1.336   9.711  1.3296  0.3155 -0.9619
  462MOL0     H62360   4.700   1.489   9.866  0.5988 -1.4382  1.1947
  462MOL0     H62361   4.570   1.450   9.978 -0.0478  0.8937 -0.5252
  462MOL0     H62362   4.427   1.494   9.735 -1.7963 -1.3423  2.8602
  462MOL0     H62363   4.570   1.598   9.715  0.5776  1.7047  1.6328
  462MOL0     H62364   4.354   1.624   9.936 -2.3634  1.6604 -1.0411
  462MOL0     H62365   4.509   1.711   9.945 -2.2621  4.6244 -0.5548
  462MOL0     H62366   4.281   1.924   9.679  0.7743  2.1671  1.3219
  462MOL0     H62367   4.617   1.054   9.687  0.3453  0.0596 -0.8114
  462MOL0     H62368   4.728   0.945   9.400  2.4601 -0.7461 -0.8742
  462MOL0     H62369   4.818   0.818   9.474  1.8307  1.7810 -2.5743
  462MOL0     H62370   4.660   0.855   9.534 -0.1287 -0.2193  0.6861
  463MOL0     O62371   4.640   0.395   3.531 -0.1903  0.6880 -0.4862
  463MOL0     C62372   4.579   0.476   3.460  0.2770 -0.5522 -0.6346
  463MOL0     O62373   4.633   0.558   3.370  0.1939 -0.0229  0.1658
  463MOL0     C62374   4.765   0.578   3.390 -0.0192 -0.3226  0.2416
  463MOL0     C62375   4.858   0.509   3.312  0.1686 -0.5362 -0.7053
  463MOL0     C62376   4.995   0.543   3.325  0.1961  0.0071  0.1451
  463MOL0     C62377   5.042   0.659   3.391 -0.1489 -0.5453 -1.1930
  463MOL0     O62378   5.179   0.692   3.405 -0.5394  0.4623  0.0766
  463MOL0     C62379   5.223   0.741   3.529 -0.4160 -0.7421 -0.4550
  463MOL0     C62380   5.250   0.900   3.524  1.4292  0.2771  0.1490
  463MOL0     C62381   5.364   0.946   3.622  0.1495  0.2871  0.4869
  463MOL0     C62382   5.408   1.097   3.615  0.1585 -1.2454 -0.4793
  463MOL0     C62383   5.562   1.116   3.633  0.4299 -0.0174 -0.0329
  463MOL0     C62384   5.628   1.016   3.734  0.4071 -0.7527  0.2780
  463MOL0     C62385   5.726   1.103   3.810 -0.0023 -0.7001 -0.4326
  463MOL0     C62386   5.842   1.031   3.877  0.9111 -0.2583  0.3947
  463MOL0     N62387   5.923   0.954   3.788  0.5029  0.0493  0.4170
  463MOL0     C62388   6.028   1.004   3.719  0.9443 -0.2583 -0.0824
  463MOL0     C62389   6.063   0.914   3.631 -0.2883 -0.0764  0.4168
  463MOL0     C62390   6.183   0.926   3.535  0.2611  0.4466 -0.2887
  463MOL0     C62391   6.242   0.784   3.531 -0.1772 -0.5035 -0.1083
  463MOL0     C62392   6.388   0.789   3.470 -0.1192  0.2298  0.5132
  463MOL0     C62393   6.469   0.655   3.486 -0.1785 -0.8163  0.2360
  463MOL0     O62394   6.576   0.645   3.393  0.8173 -0.6760 -0.1901
  463MOL0     C62395   6.558   0.557   3.288  0.1917  0.6120  0.1772
  463MOL0     C62396   6.676   0.488   3.244  0.7760 -0.6325 -0.0257
  463MOL0     C62397   6.668   0.401   3.133 -0.2688 -0.1852 -0.3790
  463MOL0     C62398   6.551   0.395   3.054  0.5800 -0.9936 -0.1350
  463MOL0     C62399   6.536   0.325   2.918  0.2710 -0.9833 -0.5275
  463MOL0     O62400   6.651   0.259   2.879  0.1795  0.3095 -0.6571
  463MOL0     C62401   6.657   0.199   2.759  0.8542  0.4358  0.3253
  463MOL0     C62402   6.747   0.243   2.674 -0.5843  0.6435  0.2177
  463MOL0     C62403   6.775   0.177   2.551  0.8159 -0.1820 -0.8218
  463MOL0     C62404   6.721   0.056   2.527  0.4499  0.7881  1.6654
  463MOL0     O62405   6.747  -0.005   2.401  0.1683  0.2964  0.0241
  463MOL0     C62406   6.802   0.053   2.290 -0.0034 -0.2050 -0.1402
  463MOL0     C62407   6.732   0.006   2.165  0.2517 -0.2184 -0.5639
  463MOL0     C62408   6.847  -0.032   2.072  0.0027  0.1802 -0.4324
  463MOL0     C62409   6.784  -0.088   1.944  0.1103 -0.4773  0.6272
  463MOL0     C62410   6.776   0.022   1.844 -0.0928  0.2483 -0.0140
  463MOL0     C62411   6.733  -0.036   1.707  0.5689 -0.1615  1.2337
  463MOL0     C62412   6.703   0.082   1.608  0.6220 -0.6436  0.2538
  463MOL0     C62413   6.602   0.055   1.493 -0.2451  0.4744 -0.1889
  463MOL0    Cl62414   6.441   0.042   1.564 -0.0707  0.2269 -0.0101
  463MOL0     C62415   6.618   0.006   2.607 -1.1944 -0.0991  0.6420
  463MOL0     C62416   6.588   0.079   2.725 -0.2016  0.2964 -0.6458
  463MOL0     O62417   6.427   0.330   2.861  0.0707  1.2295 -0.1496
  463MOL0     C62418   6.436   0.475   3.099  0.1142 -0.3173  0.4012
  463MOL0     C62419   6.437   0.551   3.220 -0.5574 -0.4137  0.6410
  463MOL0     N62420   5.986   0.801   3.645 -0.5052  0.3677  1.3291
  463MOL0     N62421   5.899   0.823   3.739 -0.6319 -0.9061  0.7984
  463MOL0     C62422   4.941   0.731   3.457 -0.3347 -0.4201 -0.4005
  463MOL0     C62423   4.815   0.686   3.467 -0.2073  0.6558 -0.0435
  463MOL0     C62424   4.432   0.489   3.479 -0.0088  0.1130  1.2880
  463MOL0     C62425   4.352   0.575   3.394 -1.1000 -0.3362 -0.2567
  463MOL0     C62426   4.212   0.576   3.402  0.2824 -0.0064  1.4188
  463MOL0     C62427   4.150   0.521   3.513 -0.1986  0.2206  0.5301
  463MOL0     O62428   4.020   0.511   3.518 -0.1719 -1.1341  0.0971
  463MOL0     C62429   3.954   0.600   3.598  0.1243  0.7606  0.0628
  463MOL0     C62430   3.809   0.564   3.569  0.6280  0.5357 -1.0195
  463MOL0     C62431   3.731   0.685   3.515  0.7568 -0.5605 -0.2107
  463MOL0     C62432   3.578   0.676   3.548 -0.2502 -0.0260  0.1661
  463MOL0     C62433   3.556   0.705   3.693 -0.3223  0.6645 -0.8534
  463MOL0     C62434   3.537   0.698   3.812  1.0220  1.1412  0.2708
  463MOL0     C62435   4.219   0.448   3.602  0.2091 -0.0391  0.4238
  463MOL0     C62436   4.362   0.425   3.583  0.1239 -0.3010 -0.4523
  463MOL0     C62437   4.421   0.346   3.693  1.5184  0.2725  0.2445
  463MOL0     H62438   4.805   0.433   3.255 -2.5435  0.3863  0.3874
  463MOL0     H62439   5.069   0.485   3.270 -0.3687  0.5951 -1.3053
  463MOL0     H62440   5.163   0.717   3.617 -2.7439 -2.1154 -2.2545
  463MOL0     H62441   5.319   0.689   3.529 -1.4849 -2.8274  0.3125
  463MOL0     H62442   5.155   0.952   3.540  0.9046  0.4191 -2.7813
  463MOL0     H62443   5.275   0.924   3.420  1.5572  0.3726  0.2016
  463MOL0     H62444   5.440   0.884   3.574 -1.4914  0.8363 -3.1968
  463MOL0     H62445   5.338   0.912   3.722  0.5374 -1.5664 -0.0111
  463MOL0     H62446   5.373   1.140   3.521 -2.0103 -1.4092  0.1991
  463MOL0     H62447   5.352   1.144   3.696 -0.1668 -0.5802 -1.0911
  463MOL0     H62448   5.597   1.084   3.535 -2.1428  0.6412 -1.2341
  463MOL0     H62449   5.589   1.221   3.653 -0.1654 -0.1180  1.5152
  463MOL0     H62450   5.564   0.963   3.805 -3.6205 -1.8287 -3.7022
  463MOL0     H62451   5.677   0.940   3.673  0.4423  0.6386 -1.5363
  463MOL0     H62452   5.672   1.171   3.877  0.6122  2.8313 -3.2217
  463MOL0     H62453   5.776   1.172   3.742 -1.1634  1.5350  0.8578
  463MOL0     H62454   5.916   1.102   3.914  2.9242 -1.9857 -0.1545
  463MOL0     H62455   5.809   0.960   3.953  3.3040 -1.8441  0.0578
  463MOL0     H62456   6.071   1.102   3.732  2.6221 -1.0631  0.8174
  463MOL0     H62457   6.159   0.953   3.432  0.2520  0.0502 -0.3922
  463MOL0     H62458   6.257   0.995   3.577  4.5626 -3.3664 -0.7608
  463MOL0     H62459   6.234   0.739   3.631 -1.3571 -1.6833 -0.7010
  463MOL0     H62460   6.190   0.713   3.466  3.8330 -1.7410 -2.2771
  463MOL0     H62461   6.435   0.864   3.534 -0.8404  0.3087  0.9536
  463MOL0     H62462   6.367   0.827   3.369 -1.7821  2.6476  1.6801
  463MOL0     H62463   6.400   0.571   3.474 -1.2015  0.0631 -0.2319
  463MOL0     H62464   6.511   0.645   3.587  1.6578  0.9585 -0.3007
  463MOL0     H62465   6.758   0.487   3.315  1.0899  2.8266 -0.1609
  463MOL0     H62466   6.762   0.351   3.108  0.5145  1.4911 -0.9623
  463MOL0     H62467   6.810   0.329   2.696 -0.8645  1.1328 -0.8544
  463MOL0     H62468   6.844   0.225   2.483  0.1368  2.4300  0.2075
  463MOL0     H62469   6.786   0.161   2.294 -0.6164 -0.3255  1.5683
  463MOL0     H62470   6.908   0.024   2.287  0.1486 -0.0362  1.9689
  463MOL0     H62471   6.658  -0.074   2.175  2.3284 -2.0492  1.6410
  463MOL0     H62472   6.674   0.087   2.121 -1.4291 -2.7205 -3.3264
  463MOL0     H62473   6.910   0.053   2.047  1.3814 -0.5526  0.4281
  463MOL0     H62474   6.914  -0.111   2.107 -0.1395  1.0143  1.8948
  463MOL0     H62475   6.683  -0.129   1.957  0.4443 -1.0755  1.3676
  463MOL0     H62476   6.838  -0.174   1.902 -1.4350  0.0686 -2.8335
  463MOL0     H62477   6.876   0.067   1.838  0.3690 -0.9024 -1.6080
  463MOL0     H62478   6.704   0.096   1.880  1.6851  0.6123  3.1524
  463MOL0     H62479   6.816  -0.088   1.660  1.5543  2.1636  0.2364
  463MOL0     H62480   6.642  -0.095   1.725 -0.6206  0.9324 -0.8107
  463MOL0     H62481   6.793   0.122   1.561  0.0284 -0.1032 -0.4493
  463MOL0     H62482   6.662   0.168   1.661 -0.0736 -0.2698 -0.8472
  463MOL0     H62483   6.619   0.148   1.439  2.2442  0.0427 -0.2782
  463MOL0     H62484   6.624  -0.025   1.422 -1.9866  2.0841 -2.6970
  463MOL0     H62485   6.584  -0.094   2.583 -0.3347  0.0247 -1.2649
  463MOL0     H62486   6.526   0.039   2.805  1.3338 -1.0162 -0.0633
  463MOL0     H62487   6.338   0.471   3.052  0.7958  1.5107 -1.3465
  463MOL0     H62488   6.357   0.623   3.233 -1.4099 -1.3951  0.9647
  463MOL0     H62489   4.957   0.819   3.518  1.2583 -2.3705  2.2539
  463MOL0     H62490   4.751   0.745   3.533 -0.4288 -0.2114  0.5321
  463MOL0     H62491   4.392   0.643   3.319 -1.8036  2.4218  1.7078
  463MOL0     H62492   4.162   0.611   3.313 -0.3781  0.0473  1.8029
  463MOL0     H62493   3.977   0.707   3.592  0.9346  0.7280  2.0038
  463MOL0     H62494   3.971   0.569   3.701  0.9229  1.0233  0.0229
  463MOL0     H62495   3.767   0.532   3.664 -0.5078  3.4298 -0.4400
  463MOL0     H62496   3.796   0.482   3.498 -2.1126  0.5343 -0.6319
  463MOL0     H62497   3.738   0.683   3.406 -0.3236 -0.3978 -0.2888
  463MOL0     H62498   3.768   0.781   3.554 -2.3613  0.1514  1.2853
  463MOL0     H62499   3.524   0.729   3.468  5.8488  2.1113 -3.2364
  463MOL0     H62500   3.531   0.579   3.530 -4.7760  2.1288 -1.2751
  463MOL0     H62501   3.517   0.687   3.917 -3.7445 -2.1340 -0.6737
  463MOL0     H62502   4.165   0.411   3.689  1.0438  0.1427  1.0389
  463MOL0     H62503   4.349   0.299   3.761 -0.2230  2.2863 -0.1006
  463MOL0     H62504   4.474   0.257   3.658 -0.1102 -0.1063 -1.3828
  463MOL0     H62505   4.488   0.404   3.757  0.6782  0.8678  0.6118
  464MOL0     O62506   0.805  11.241   6.822  0.0294 -0.0656  0.5178
  464MOL0     C62507   0.780  11.149   6.741  0.0720 -0.3736  0.3925
  464MOL0     O62508   0.742  11.176   6.611 -0.2291 -0.3207 -0.5902
  464MOL0     C62509   0.691  11.301   6.573 -0.3929  0.0490 -0.1905
  464MOL0     C62510   0.559  11.325   6.529 -0.0917 -0.0052  0.1204
  464MOL0     C62511   0.519  11.454   6.489  0.2589 -0.1059 -0.4384
  464MOL0     C62512   0.618  11.561   6.481 -0.6906  0.1437  0.2876
  464MOL0     O62513   0.578  11.677   6.411  0.2179 -0.2319 -0.2546
  464MOL0     C62514   0.642  11.800   6.443  0.4251  0.3349  0.1812
  464MOL0     C62515   0.563  11.925   6.406  0.2906 -0.4600 -0.6828
  464MOL0     C62516   0.661  12.043   6.424  0.0810 -0.4547  0.8734
  464MOL0     C62517   0.612  12.162   6.330  0.3085  0.9361 -0.4745
  464MOL0     C62518   0.660  12.301   6.378  0.2747  0.3268  0.1915
  464MOL0     C62519   0.797  12.338   6.347 -0.4613  0.4536  0.1200
  464MOL0     C62520   0.814  12.428   6.220 -0.6732 -0.2940 -0.6247
  464MOL0     C62521   0.767  12.572   6.242 -0.2472 -0.6859 -0.5034
  464MOL0     N62522   0.816  12.628   6.369  0.0538 -0.0459 -0.7716
  464MOL0     C62523   0.948  12.629   6.391 -0.0295  0.1288 -0.2255
  464MOL0     C62524   0.959  12.695   6.516 -0.3381  0.3260  0.2836
  464MOL0     C62525   1.078  12.730   6.589  0.2271  0.5500  0.5107
  464MOL0     C62526   1.133  12.610   6.662  0.0511 -0.4212 -0.3837
  464MOL0     C62527   1.037  12.570   6.777 -0.8961  0.1192  0.7710
  464MOL0     C62528   1.090  12.448   6.844  0.6208 -0.6514 -1.3713
  464MOL0     O62529   1.202  12.493   6.924  0.4383 -0.4037  0.2167
  464MOL0     C62530   1.316  12.421   6.902 -0.3282  0.7276  0.2445
  464MOL0     C62531   1.325  12.284   6.934 -0.4486 -0.1052  0.4381
  464MOL0     C62532   1.449  12.213   6.922  0.0907  0.5248  0.9690
  464MOL0     C62533   1.557  12.273   6.855  0.2088 -0.3149  0.5480
  464MOL0     C62534   1.679  12.190   6.834 -0.5007  0.0023 -0.1827
  464MOL0     O62535   1.668  12.056   6.852  0.5305 -0.5180 -0.0841
  464MOL0     C62536   1.756  11.960   6.826 -0.4983 -0.5194  0.2383
  464MOL0     C62537   1.874  11.970   6.750 -1.1204  0.2779  0.1662
  464MOL0     C62538   1.955  11.863   6.717  0.3074  0.3054  0.0003
  464MOL0     C62539   1.922  11.730   6.755 -0.4154  0.1660 -0.3656
  464MOL0     O62540   2.007  11.628   6.739 -0.4162 -0.0588 -0.1162
  464MOL0     C62541   2.138  11.638   6.689  0.3153  0.1502  0.0433
  464MOL0     C62542   2.129  11.635   6.539  0.3875  0.8365 -0.2951
  464MOL0     C62543   2.078  11.505   6.497  0.3271  1.0553  0.9887
  464MOL0     C62544   2.064  11.480   6.350  1.0499 -0.6576  0.2653
  464MOL0     C62545   1.984  11.348   6.309 -0.3581 -0.4458  0.0398
  464MOL0     C62546   2.055  11.220   6.303 -0.6828  0.1522  0.8688
  464MOL0     C62547   1.965  11.103   6.272  0.1046 -0.1275 -0.1191
  464MOL0     C62548   2.053  10.984   6.236 -0.6157  0.7910  0.3532
  464MOL0    Cl62549   1.968  10.822   6.227 -0.0131  0.0309 -0.4904
  464MOL0     C62550   1.808  11.718   6.837 -0.6536  0.4837  0.5081
  464MOL0     C62551   1.723  11.828   6.874 -0.2912 -0.4310 -0.7166
  464MOL0     O62552   1.775  12.245   6.789 -0.3686  0.7901  0.3750
  464MOL0     C62553   1.542  12.410   6.806 -0.3628  0.4198 -0.1681
  464MOL0     C62554   1.425  12.475   6.833  0.0811 -0.9444  0.5705
  464MOL0     N62555   0.832  12.727   6.558 -0.4904  0.9623  0.5044
  464MOL0     N62556   0.745  12.695   6.464  0.3195  0.2631 -0.2514
  464MOL0     C62557   0.748  11.538   6.526 -0.2612 -0.2680 -0.1440
  464MOL0     C62558   0.787  11.410   6.572  0.2204 -0.0944 -0.4498
  464MOL0     C62559   0.806  11.011   6.797 -0.5252 -0.5517  0.5404
  464MOL0     C62560   0.851  10.921   6.702 -0.7326  0.4811 -0.3373
  464MOL0     C62561   0.897  10.795   6.745 -0.2327  0.1395  0.7454
  464MOL0     C62562   0.898  10.761   6.881  0.0882  0.2018  0.0840
  464MOL0     O62563   0.949  10.637   6.922 -0.0214  0.4471 -0.1931
  464MOL0     C62564   1.093  10.631   6.957  0.5050 -0.2384  0.5043
  464MOL0     C62565   1.109  10.598   7.102  0.3042 -0.1918  0.3521
  464MOL0     C62566   1.254  10.585   7.154  0.5686 -0.4340  0.2643
  464MOL0     C62567   1.341  10.711   7.147  0.0066  0.1999 -0.3508
  464MOL0     C62568   1.286  10.839   7.195 -0.3495  0.3064  0.0350
  464MOL0     C62569   1.241  10.944   7.230  0.4340  0.2418 -0.6676
  464MOL0     C62570   0.841  10.854   6.977 -0.6516 -0.1649 -0.2136
  464MOL0     C62571   0.791  10.982   6.933 -0.6141  0.5848  0.4632
  464MOL0     C62572   0.715  11.068   7.031  0.1797 -0.5922  0.6238
  464MOL0     H62573   0.482  11.249   6.536 -1.0552  0.9105 -0.2108
  464MOL0     H62574   0.423  11.480   6.448  0.3563  0.0442 -0.5728
  464MOL0     H62575   0.654  11.806   6.551  6.3448  2.6774 -0.2429
  464MOL0     H62576   0.747  11.805   6.413  0.4202  0.7908  0.2323
  464MOL0     H62577   0.471  11.937   6.464  1.1377  1.7931  0.3104
  464MOL0     H62578   0.546  11.925   6.298 -0.1483  0.3849 -0.6151
  464MOL0     H62579   0.767  12.027   6.401  0.5963  2.3434  0.9159
  464MOL0     H62580   0.659  12.084   6.526  2.2578  0.4797  0.6071
  464MOL0     H62581   0.644  12.143   6.227  1.3602 -0.0650  0.0168
  464MOL0     H62582   0.503  12.164   6.339  0.2276 -1.4233 -0.2416
  464MOL0     H62583   0.596  12.382   6.341  1.3122  1.1981  0.2609
  464MOL0     H62584   0.649  12.298   6.487 -1.9812 -1.0504 -0.0023
  464MOL0     H62585   0.839  12.383   6.437 -1.5607  0.4890  0.6206
  464MOL0     H62586   0.854  12.245   6.333 -2.5632 -1.1248  1.5186
  464MOL0     H62587   0.760  12.388   6.133 -1.5018 -1.1342  0.2485
  464MOL0     H62588   0.918  12.438   6.187  0.4546 -0.3295  2.5375
  464MOL0     H62589   0.803  12.633   6.159 -0.6438  0.4193  0.1155
  464MOL0     H62590   0.659  12.570   6.228 -0.2068 -1.5743 -0.7633
  464MOL0     H62591   1.022  12.577   6.329  2.2887  0.2260  2.2635
  464MOL0     H62592   1.154  12.755   6.514  0.4124  0.0875  0.5437
  464MOL0     H62593   1.053  12.813   6.655 -2.0228 -0.7400  1.3687
  464MOL0     H62594   1.140  12.523   6.595 -3.6470  0.4298 -2.1075
  464MOL0     H62595   1.228  12.645   6.703 -0.0559  1.5632 -1.7462
  464MOL0     H62596   0.939  12.558   6.729  0.0614  0.5465 -1.4013
  464MOL0     H62597   1.030  12.657   6.843  0.3186  1.9463 -1.3818
  464MOL0     H62598   1.118  12.369   6.774  0.6773 -4.4904  2.5524
  464MOL0     H62599   1.021  12.397   6.911 -2.0611  2.5128 -1.4538
  464MOL0     H62600   1.237  12.227   6.964 -1.7038  0.5075 -1.8292
  464MOL0     H62601   1.447  12.107   6.947  0.8876  0.1110 -0.5361
  464MOL0     H62602   1.900  12.068   6.710  1.8164 -0.7331 -0.6779
  464MOL0     H62603   2.042  11.893   6.660 -0.0782 -0.2723 -0.9154
  464MOL0     H62604   2.192  11.723   6.732 -2.6238  0.6288  3.2952
  464MOL0     H62605   2.170  11.542   6.731  0.1897  0.3545  0.6234
  464MOL0     H62606   2.054  11.710   6.510 -0.4857  0.4757  0.9230
  464MOL0     H62607   2.230  11.652   6.501  0.3202  0.6600 -0.5602
  464MOL0     H62608   2.150  11.431   6.534  2.2804  2.0791 -0.5942
  464MOL0     H62609   1.985  11.484   6.549  0.5270 -1.1561  0.5420
  464MOL0     H62610   2.163  11.467   6.305  0.4400  1.4305 -1.8884
  464MOL0     H62611   2.013  11.559   6.293 -0.2213 -1.0026  0.8841
  464MOL0     H62612   1.933  11.369   6.214 -2.8742 -1.2661  1.1295
  464MOL0     H62613   1.893  11.337   6.369 -1.6571 -1.5438 -1.9892
  464MOL0     H62614   2.129  11.235   6.224 -0.6580 -3.9689 -0.1289
  464MOL0     H62615   2.098  11.201   6.402 -1.1324  0.1063  1.0541
  464MOL0     H62616   1.895  11.122   6.190  0.1469 -0.5148 -0.2490
  464MOL0     H62617   1.917  11.072   6.364  1.2398 -1.3077  0.1087
  464MOL0     H62618   2.101  11.000   6.139  2.6241  0.7994  1.8327
  464MOL0     H62619   2.130  10.977   6.313  1.8290 -1.2832 -2.0465
  464MOL0     H62620   1.791  11.613   6.858 -0.0601  0.6125  1.7299
  464MOL0     H62621   1.630  11.819   6.929  0.1662 -1.7452 -0.1159
  464MOL0     H62622   1.629  12.450   6.756 -0.0781 -0.2600 -0.2332
  464MOL0     H62623   1.410  12.574   6.793 -1.6015 -1.4637 -0.1979
  464MOL0     H62624   0.810  11.627   6.532 -0.9836  0.3548 -1.5807
  464MOL0     H62625   0.887  11.396   6.613 -0.2868  0.2037  0.9476
  464MOL0     H62626   0.879  10.961   6.605 -1.9421  2.8416  0.2288
  464MOL0     H62627   0.929  10.725   6.669 -0.7970  1.4859 -0.8004
  464MOL0     H62628   1.121  10.737   6.952 -3.2833  1.0943  3.0388
  464MOL0     H62629   1.161  10.571   6.896 -0.5584  0.5273 -1.5034
  464MOL0     H62630   1.055  10.504   7.113 -1.3365  0.5817 -0.7460
  464MOL0     H62631   1.042  10.667   7.155 -0.8244 -1.0148  0.0322
  464MOL0     H62632   1.304  10.504   7.099  0.6013  0.2602 -0.7699
  464MOL0     H62633   1.239  10.553   7.257 -0.7451  0.4742  0.3783
  464MOL0     H62634   1.433  10.689   7.203  0.1446  1.0639 -0.2307
  464MOL0     H62635   1.366  10.722   7.041  0.1266 -1.8112 -0.5708
  464MOL0     H62636   1.191  11.031   7.267  2.3518 -0.1018  3.1844
  464MOL0     H62637   0.829  10.820   7.080 -1.3718 -1.5761 -0.7345
  464MOL0     H62638   0.615  11.089   6.993  1.3779  3.1921 -0.9265
  464MOL0     H62639   0.709  11.023   7.131  2.4858  0.8788  1.5266
  464MOL0     H62640   0.754  11.165   7.065  1.3681 -1.0202  0.5458
  465MOL0     O62641   1.182   8.631   2.485  0.6030 -0.5643  0.1076
  465MOL0     C62642   1.229   8.626   2.598  0.3997  0.3225  0.5006
  465MOL0     O62643   1.223   8.731   2.692  0.0531 -0.5951  0.4969
  465MOL0     C62644   1.177   8.857   2.660 -0.2921 -0.3097 -0.8116
  465MOL0     C62645   1.102   8.897   2.547 -0.2036 -0.1988  0.0587
  465MOL0     C62646   1.065   9.033   2.531 -0.5389  1.2531  0.1114
  465MOL0     C62647   1.097   9.132   2.631 -0.3497  0.4773  0.3249
  465MOL0     O62648   1.072   9.265   2.628 -0.7747 -0.2939  0.0533
  465MOL0     C62649   0.982   9.316   2.526  0.9542 -0.4293  0.0351
  465MOL0     C62650   0.834   9.267   2.542 -0.1367 -1.2367  0.1845
  465MOL0     C62651   0.751   9.365   2.456  0.0410  0.0827  0.0219
  465MOL0     C62652   0.598   9.324   2.472 -0.0839 -0.4365 -0.5036
  465MOL0     C62653   0.483   9.398   2.389 -0.2778 -0.0892 -0.5534
  465MOL0     C62654   0.484   9.544   2.427  1.1102  0.0899 -0.7842
  465MOL0     C62655   0.348   9.626   2.400  0.7490 -0.9096 -0.7358
  465MOL0     C62656   0.293   9.631   2.258 -0.3523  0.7240  0.7930
  465MOL0     N62657   0.379   9.704   2.166 -0.8174  0.7536  0.3396
  465MOL0     C62658   0.494   9.654   2.099 -0.8792  0.1389  0.2967
  465MOL0     C62659   0.536   9.757   2.019  0.3352 -0.3928 -0.6915
  465MOL0     C62660   0.665   9.761   1.951  1.5701  0.5360 -0.5107
  465MOL0     C62661   0.764   9.861   2.006  0.5865 -0.5271 -0.3905
  465MOL0     C62662   0.901   9.864   1.938  0.2089 -0.6628  0.5201
  465MOL0     C62663   0.973   9.734   1.904 -1.2626  0.4633 -0.6757
  465MOL0     O62664   1.106   9.768   1.844  0.1631  0.1015  0.4411
  465MOL0     C62665   1.184   9.677   1.772  0.2712 -0.7595 -0.2705
  465MOL0     C62666   1.127   9.568   1.703 -0.4543  0.3688 -0.3962
  465MOL0     C62667   1.206   9.487   1.620 -0.1847  0.6398 -0.5160
  465MOL0     C62668   1.345   9.521   1.601 -0.6821 -0.3386 -0.7118
  465MOL0     C62669   1.429   9.464   1.489  0.5374  0.0900 -0.3329
  465MOL0     O62670   1.560   9.496   1.484  0.6611  0.5941  0.0412
  465MOL0     C62671   1.652   9.438   1.389  0.1264 -0.3383  0.0524
  465MOL0     C62672   1.735   9.512   1.314 -0.2877  0.5052  0.3590
  465MOL0     C62673   1.826   9.452   1.221 -0.2992 -0.0696 -0.4315
  465MOL0     C62674   1.851   9.312   1.222 -0.2844 -0.8938 -1.0832
  465MOL0     O62675   1.944   9.257   1.141 -0.8309  0.8737  0.1809
  465MOL0     C62676   1.991   9.122   1.185  0.4965 -0.4256  0.5356
  465MOL0     C62677   2.121   9.105   1.096  1.1497  0.4565 -0.0634
  465MOL0     C62678   2.180   8.964   1.115 -1.4357 -0.4711 -0.2848
  465MOL0     C62679   2.253   8.949   1.240  0.9546  1.1938 -0.0295
  465MOL0     C62680   2.309   8.807   1.258  0.1207 -1.0705  1.1697
  465MOL0     C62681   2.207   8.691   1.284 -0.2872  0.4518  0.1923
  465MOL0     C62682   2.292   8.555   1.279 -0.4443  0.5798  0.1568
  465MOL0     C62683   2.202   8.442   1.316 -0.6468  0.2734 -0.8620
  465MOL0    Cl62684   2.301   8.292   1.304  0.0858  0.3343  0.4273
  465MOL0     C62685   1.765   9.231   1.292  0.9178 -0.2615  0.8692
  465MOL0     C62686   1.667   9.295   1.386  0.8023 -0.1782  0.4364
  465MOL0     O62687   1.375   9.392   1.402  0.3321  0.0024  0.3318
  465MOL0     C62688   1.402   9.629   1.676  1.0638 -0.0357 -0.2907
  465MOL0     C62689   1.319   9.706   1.760 -0.3893 -0.4469  0.8330
  465MOL0     N62690   0.452   9.866   2.030  0.0007  0.7046  0.3371
  465MOL0     N62691   0.352   9.829   2.108 -0.6450  0.6372  0.4789
  465MOL0     C62692   1.152   9.081   2.747  0.3270 -0.3176 -0.4565
  465MOL0     C62693   1.191   8.946   2.765 -0.6357 -0.7922 -0.1120
  465MOL0     C62694   1.272   8.489   2.645  0.1145  0.3473 -0.5355
  465MOL0     C62695   1.306   8.399   2.539  0.1981  0.3920 -0.4109
  465MOL0     C62696   1.326   8.263   2.560  0.2869  0.3013 -0.1525
  465MOL0     C62697   1.316   8.209   2.689  0.1040 -0.2562  0.5465
  465MOL0     O62698   1.356   8.077   2.726  0.4447 -0.5276 -0.4842
  465MOL0     C62699   1.495   8.063   2.766  0.3191 -0.2914  0.5243
  465MOL0     C62700   1.554   7.923   2.770  0.0883  0.6381  0.6571
  465MOL0     C62701   1.477   7.821   2.846 -0.0542  0.3624  0.7798
  465MOL0     C62702   1.342   7.771   2.795 -0.0638 -0.8197  0.7904
  465MOL0     C62703   1.337   7.736   2.649 -0.0684  1.1030 -0.2472
  465MOL0     C62704   1.344   7.708   2.534 -0.6557  0.4604  0.1723
  465MOL0     C62705   1.281   8.303   2.794  0.5567 -0.8277  0.6523
  465MOL0     C62706   1.262   8.439   2.775 -0.0758  0.1352 -0.3103
  465MOL0     C62707   1.243   8.522   2.900 -0.1132  0.1817  0.7663
  465MOL0     H62708   1.065   8.838   2.464 -1.6511  1.1619 -0.3090
  465MOL0     H62709   1.022   9.063   2.436 -1.4644  0.1553  0.1655
  465MOL0     H62710   0.974   9.425   2.522  0.5012 -0.3650  1.8380
  465MOL0     H62711   1.009   9.289   2.424 -4.9427  0.1850 -2.0715
  465MOL0     H62712   0.799   9.281   2.645 -1.8666  0.7990 -0.6039
  465MOL0     H62713   0.838   9.165   2.502 -0.2353 -0.8126 -0.9156
  465MOL0     H62714   0.774   9.347   2.351 -1.8119 -1.4662 -0.1727
  465MOL0     H62715   0.762   9.471   2.482 -0.6619 -0.3975  2.6194
  465MOL0     H62716   0.577   9.221   2.441  0.0624  0.7732 -5.4887
  465MOL0     H62717   0.562   9.325   2.575 -0.6807 -3.4223 -0.5842
  465MOL0     H62718   0.509   9.394   2.283 -0.9984 -3.5211 -0.7026
  465MOL0     H62719   0.384   9.355   2.407  0.7161 -1.6539  1.5027
  465MOL0     H62720   0.485   9.557   2.536 -1.5107  2.2143 -0.8964
  465MOL0     H62721   0.566   9.607   2.392 -0.5773  3.7608  1.2134
  465MOL0     H62722   0.380   9.725   2.433  1.5075 -1.3485 -0.1302
  465MOL0     H62723   0.266   9.573   2.449  1.9265 -2.6604 -0.5523
  465MOL0     H62724   0.284   9.530   2.217 -1.1250  1.3926 -0.7184
  465MOL0     H62725   0.203   9.693   2.255  0.4456  1.9879 -3.3793
  465MOL0     H62726   0.539   9.555   2.110 -5.2344 -2.2568 -0.9951
  465MOL0     H62727   0.712   9.663   1.948  1.1168  0.2855  0.4077
  465MOL0     H62728   0.641   9.783   1.846  0.3657  3.5156  0.2668
  465MOL0     H62729   0.716   9.960   2.005  0.4340 -0.4474  3.1342
  465MOL0     H62730   0.761   9.852   2.115 -2.8571 -1.6478 -0.4282
  465MOL0     H62731   0.961   9.923   2.008 -0.0009  0.6222 -0.3417
  465MOL0     H62732   0.892   9.919   1.844 -0.9139 -0.5062  0.7074
  465MOL0     H62733   0.918   9.661   1.844  2.3857 -2.0360 -1.3395
  465MOL0     H62734   1.008   9.683   1.995  1.3410  0.2147 -1.7220
  465MOL0     H62735   1.021   9.549   1.718 -0.8365  2.9466  0.8176
  465MOL0     H62736   1.153   9.406   1.570  0.8284 -1.1638  1.1957
  465MOL0     H62737   1.729   9.620   1.308 -0.8729  0.4314 -0.8950
  465MOL0     H62738   1.899   9.506   1.162  0.7608 -1.3407 -0.3169
  465MOL0     H62739   2.018   9.131   1.291 -0.9733  0.8408  0.8424
  465MOL0     H62740   1.914   9.045   1.170  1.6686 -1.3503 -0.9381
  465MOL0     H62741   2.093   9.120   0.991  0.5163  1.0784  0.1886
  465MOL0     H62742   2.188   9.188   1.120 -0.4225  2.2292 -1.5334
  465MOL0     H62743   2.098   8.894   1.098  0.4455 -2.6255 -0.9412
  465MOL0     H62744   2.249   8.937   1.035 -0.4095 -0.5208  0.5887
  465MOL0     H62745   2.194   8.969   1.331  0.4093  1.1240 -0.3651
  465MOL0     H62746   2.338   9.018   1.245  1.2434  0.8416 -0.0750
  465MOL0     H62747   2.383   8.808   1.338 -0.6116 -1.7959  1.8682
  465MOL0     H62748   2.364   8.785   1.165  2.7112  0.3569  2.2775
  465MOL0     H62749   2.162   8.706   1.383  1.0596  4.1675  0.4054
  465MOL0     H62750   2.117   8.683   1.222 -0.2760  1.1538  0.0876
  465MOL0     H62751   2.382   8.566   1.340  0.0951  0.7319 -0.6608
  465MOL0     H62752   2.324   8.539   1.176 -0.6325  0.5484  0.1026
  465MOL0     H62753   2.160   8.455   1.416  1.8641  1.0634  0.1465
  465MOL0     H62754   2.110   8.439   1.256 -1.5567 -1.5745  0.5258
  465MOL0     H62755   1.783   9.125   1.296  2.5666 -0.0709 -0.7261
  465MOL0     H62756   1.604   9.245   1.459 -0.2688 -0.5660 -0.7075
  465MOL0     H62757   1.509   9.645   1.666  1.0551 -0.4640 -1.1568
  465MOL0     H62758   1.353   9.798   1.806  2.6746 -2.0684  2.0645
  465MOL0     H62759   1.172   9.154   2.825 -2.1816 -0.7058  0.6456
  465MOL0     H62760   1.222   8.933   2.868  0.2269  0.3431 -0.2073
  465MOL0     H62761   1.307   8.428   2.434  1.8589  4.4145  0.5109
  465MOL0     H62762   1.361   8.224   2.465  1.2108  1.1936 -0.1911
  465MOL0     H62763   1.501   8.085   2.873 -1.2835 -2.6705  1.1851
  465MOL0     H62764   1.560   8.123   2.701  0.7704 -1.9938 -0.7033
  465MOL0     H62765   1.650   7.935   2.821 -0.1362  3.9154  0.5044
  465MOL0     H62766   1.572   7.892   2.666 -2.6920  1.1766 -0.0570
  465MOL0     H62767   1.458   7.860   2.946 -0.1241  1.6848  0.2786
  465MOL0     H62768   1.544   7.735   2.854 -1.0645 -0.5716 -0.4379
  465MOL0     H62769   1.306   7.685   2.852  0.2288 -2.3511 -1.2252
  465MOL0     H62770   1.263   7.845   2.808 -0.8121  0.1196 -5.7383
  465MOL0     H62771   1.349   7.682   2.430  1.4257 -2.3435  0.8384
  465MOL0     H62772   1.269   8.264   2.894  2.0884  2.8577  2.4688
  465MOL0     H62773   1.137   8.547   2.902 -0.4244 -1.1107  2.0513
  465MOL0     H62774   1.273   8.472   2.992  0.1905 -0.9099  0.1043
  465MOL0     H62775   1.312   8.606   2.888 -1.3159  1.1465  0.5176
  466MOL0     O62776   8.696   7.363   2.149  0.5930  0.1110 -0.3472
  466MOL0     C62777   8.643   7.336   2.254 -1.0566 -0.3398  0.0477
  466MOL0     O62778   8.513   7.352   2.274 -0.1790 -0.4288  1.1223
  466MOL0     C62779   8.430   7.391   2.169  0.6105  0.0045 -0.0961
  466MOL0     C62780   8.321   7.478   2.190  0.1160  0.0795 -0.1933
  466MOL0     C62781   8.228   7.518   2.092  0.1038 -0.2843  0.9789
  466MOL0     C62782   8.250   7.469   1.965  0.2143  0.2835  0.7251
  466MOL0     O62783   8.163   7.517   1.872 -0.4475 -0.4149  0.0713
  466MOL0     C62784   8.146   7.481   1.734 -0.1772  0.7545 -0.1760
  466MOL0     C62785   7.995   7.457   1.701 -0.4699 -0.6398 -0.3219
  466MOL0     C62786   8.004   7.415   1.559  0.8042  0.2603 -0.0633
  466MOL0     C62787   8.001   7.264   1.563 -0.1138  0.0899  0.7770
  466MOL0     C62788   8.036   7.206   1.426  0.4329 -0.2708 -0.7527
  466MOL0     C62789   7.911   7.192   1.344 -0.2745 -0.4195 -0.4537
  466MOL0     C62790   7.905   7.084   1.239 -0.3749  0.1211  0.1372
  466MOL0     C62791   7.807   7.102   1.127  0.4074 -0.3557  0.3814
  466MOL0     N62792   7.682   7.047   1.181 -0.2737  0.1996  0.7060
  466MOL0     C62793   7.585   7.116   1.251 -1.0993 -0.2611  0.1760
  466MOL0     C62794   7.492   7.030   1.280  0.1193 -0.2092  0.7318
  466MOL0     C62795   7.362   7.067   1.348 -0.5429  0.9514  0.4932
  466MOL0     C62796   7.386   7.104   1.496 -0.5015  1.3511 -0.4586
  466MOL0     C62797   7.461   6.987   1.568 -0.8005  0.0166 -0.0075
  466MOL0     C62798   7.480   7.006   1.719  0.4885 -0.2656  0.8174
  466MOL0     O62799   7.591   7.096   1.748  0.3165  0.4822  0.2272
  466MOL0     C62800   7.620   7.135   1.877  0.0408  0.4887 -0.2609
  466MOL0     C62801   7.541   7.084   1.982 -0.2252  0.0923 -0.4583
  466MOL0     C62802   7.551   7.137   2.105  0.1527 -1.0078 -0.7095
  466MOL0     C62803   7.654   7.232   2.136  0.1865 -1.1422 -0.7507
  466MOL0     C62804   7.652   7.306   2.269  0.1322  0.3371  0.1918
  466MOL0     O62805   7.538   7.302   2.342 -0.2572 -0.2573  0.0454
  466MOL0     C62806   7.531   7.380   2.463  0.1290 -0.4501  0.5680
  466MOL0     C62807   7.500   7.309   2.579  0.3240 -0.0305  0.5028
  466MOL0     C62808   7.499   7.373   2.702  0.3305 -1.0443 -0.6297
  466MOL0     C62809   7.542   7.503   2.715  0.3479  0.7448 -0.4225
  466MOL0     O62810   7.554   7.562   2.840 -0.6222 -0.3729 -0.4355
  466MOL0     C62811   7.604   7.490   2.959 -0.4135  0.3683 -0.2726
  466MOL0     C62812   7.488   7.467   3.066  0.0060  0.0377  0.2625
  466MOL0     C62813   7.423   7.601   3.099 -0.1239  0.9104 -0.1885
  466MOL0     C62814   7.520   7.684   3.176 -0.1527  1.0569 -0.6453
  466MOL0     C62815   7.449   7.797   3.250  0.2425  0.0197 -0.1641
  466MOL0     C62816   7.419   7.930   3.166 -0.0725 -0.7194 -0.5291
  466MOL0     C62817   7.381   8.052   3.255  0.5421 -0.0705 -1.0003
  466MOL0     C62818   7.403   8.182   3.178  0.4797  0.7614 -0.2530
  466MOL0    Cl62819   7.566   8.215   3.150  0.4240  0.0520  0.3964
  466MOL0     C62820   7.570   7.574   2.603  0.7243 -0.7623  0.9850
  466MOL0     C62821   7.571   7.515   2.475 -0.2491 -0.0148  0.3199
  466MOL0     O62822   7.755   7.368   2.295 -0.2846  0.2237 -0.9817
  466MOL0     C62823   7.744   7.271   2.034 -0.0705  0.5265 -0.2177
  466MOL0     C62824   7.729   7.227   1.904 -0.8090 -0.8682  0.9539
  466MOL0     N62825   7.530   6.908   1.217  0.1029 -0.1651 -0.0727
  466MOL0     N62826   7.651   6.916   1.168 -0.4687  1.1211  0.3653
  466MOL0     C62827   8.347   7.372   1.936 -0.8319  1.3826 -0.3961
  466MOL0     C62828   8.437   7.338   2.035  0.6585 -0.5185 -0.0397
  466MOL0     C62829   8.719   7.278   2.371  0.6520 -0.9110  0.6811
  466MOL0     C62830   8.638   7.238   2.480 -0.6120  0.5822  0.3305
  466MOL0     C62831   8.694   7.167   2.590  0.4468  0.5542  1.1996
  466MOL0     C62832   8.830   7.138   2.593 -0.0375 -0.1902  0.3679
  466MOL0     O62833   8.866   7.064   2.696 -0.1835  1.0601 -0.1111
  466MOL0     C62834   9.004   7.058   2.724  0.1678  0.1242  0.3435
  466MOL0     C62835   9.014   7.107   2.871 -1.4447  0.0358 -0.2150
  466MOL0     C62836   9.163   7.102   2.913 -0.4107 -0.6118 -1.0147
  466MOL0     C62837   9.171   7.134   3.061 -0.2172 -0.4919 -0.5247
  466MOL0     C62838   9.308   7.091   3.102  0.0081  0.8962 -0.0679
  466MOL0     C62839   9.415   7.041   3.134 -0.1735 -0.3183  0.6232
  466MOL0     C62840   8.909   7.196   2.491  0.1091 -0.0619 -0.5117
  466MOL0     C62841   8.858   7.266   2.386  1.3938 -0.4024  0.4563
  466MOL0     C62842   8.962   7.316   2.277  0.9352 -0.0812  0.2593
  466MOL0     H62843   8.313   7.508   2.294 -0.4122 -2.4179  0.5540
  466MOL0     H62844   8.152   7.593   2.113 -2.5540 -1.3032 -3.5066
  466MOL0     H62845   8.194   7.553   1.667  2.8547 -1.7200 -0.9093
  466MOL0     H62846   8.203   7.389   1.718 -1.1526 -0.3365  2.2417
  466MOL0     H62847   7.931   7.544   1.717 -0.2201 -0.4469 -0.3574
  466MOL0     H62848   7.961   7.383   1.775 -3.6528  0.5135 -0.4938
  466MOL0     H62849   8.092   7.449   1.503  0.1398 -0.2553 -1.4708
  466MOL0     H62850   7.925   7.461   1.499  0.9225  0.4448 -0.0796
  466MOL0     H62851   8.077   7.225   1.632  0.6494  0.2629  0.0506
  466MOL0     H62852   7.902   7.235   1.600 -0.2185  2.1728  2.2949
  466MOL0     H62853   8.105   7.271   1.371  1.5580 -0.9952 -0.2323
  466MOL0     H62854   8.073   7.103   1.435  2.4898  0.5614  1.6978
  466MOL0     H62855   7.827   7.183   1.414 -0.7997 -0.5317 -1.0876
  466MOL0     H62856   7.901   7.283   1.284  0.4905 -1.3204 -2.0089
  466MOL0     H62857   7.889   6.980   1.268 -0.8917 -0.5441 -2.2604
  466MOL0     H62858   8.001   7.095   1.187 -0.9258  3.2829 -0.3781
  466MOL0     H62859   7.783   7.208   1.113 -4.2832 -0.8742  2.4816
  466MOL0     H62860   7.830   7.044   1.037 -1.5045 -1.7955  0.7646
  466MOL0     H62861   7.603   7.219   1.278  0.6668 -0.1827 -1.1079
  466MOL0     H62862   7.320   7.156   1.300 -0.1123  0.0279 -1.7071
  466MOL0     H62863   7.302   6.978   1.329 -0.7857  1.7319 -2.8703
  466MOL0     H62864   7.453   7.191   1.496  1.3302  0.0280  1.0186
  466MOL0     H62865   7.294   7.127   1.552 -0.5268  3.8209 -1.3917
  466MOL0     H62866   7.560   6.972   1.524 -0.5017 -1.5469  1.1392
  466MOL0     H62867   7.406   6.893   1.565  0.5722 -0.8425  0.8213
  466MOL0     H62868   7.505   6.909   1.762  0.8025 -0.7807 -0.4684
  466MOL0     H62869   7.384   7.048   1.752  0.9420  1.1557  0.3899
  466MOL0     H62870   7.471   7.001   1.973 -4.1980  2.3942  4.2916
  466MOL0     H62871   7.480   7.106   2.181 -1.8610  3.7195 -0.2711
  466MOL0     H62872   7.470   7.205   2.575  1.1519 -0.5245  4.0528
  466MOL0     H62873   7.485   7.312   2.791  0.4011 -2.9794 -1.9056
  466MOL0     H62874   7.636   7.388   2.934 -0.4197  0.3818 -0.3349
  466MOL0     H62875   7.697   7.537   2.990  0.9095 -1.7710 -0.7923
  466MOL0     H62876   7.409   7.400   3.031 -0.7317 -0.3796  2.5622
  466MOL0     H62877   7.534   7.419   3.153  0.8367 -1.6104 -1.0307
  466MOL0     H62878   7.404   7.640   2.998  0.5985  2.9894  0.4417
  466MOL0     H62879   7.330   7.601   3.157  1.4686  0.4069  2.4906
  466MOL0     H62880   7.611   7.710   3.121  0.2221 -2.4365 -1.9469
  466MOL0     H62881   7.542   7.627   3.267 -1.8489  2.2149  0.5527
  466MOL0     H62882   7.503   7.820   3.342 -0.4252  0.9366  0.0150
  466MOL0     H62883   7.349   7.771   3.284  1.5120 -1.2665  2.9189
  466MOL0     H62884   7.508   7.957   3.109 -0.3712  1.0087 -0.2165
  466MOL0     H62885   7.343   7.913   3.089 -1.7654  0.4473  0.8175
  466MOL0     H62886   7.449   8.050   3.341 -0.0460  1.2494 -0.4669
  466MOL0     H62887   7.287   8.027   3.305 -0.2852  2.8596 -0.8873
  466MOL0     H62888   7.344   8.180   3.086 -2.3182 -1.0677  1.4416
  466MOL0     H62889   7.364   8.266   3.235 -0.9965  2.0914 -3.0447
  466MOL0     H62890   7.588   7.681   2.605 -0.9545 -0.4329 -0.1272
  466MOL0     H62891   7.599   7.582   2.395 -0.3680 -1.2278 -0.7622
  466MOL0     H62892   7.819   7.344   2.063 -0.4722  0.9563 -0.2509
  466MOL0     H62893   7.791   7.277   1.831 -2.0725  1.6572  1.4728
  466MOL0     H62894   8.353   7.316   1.844  2.2747  1.6274 -0.4287
  466MOL0     H62895   8.513   7.266   2.010  1.4743 -0.3235  1.7267
  466MOL0     H62896   8.532   7.260   2.488 -1.3603 -1.9001 -1.3683
  466MOL0     H62897   8.632   7.131   2.671  0.2294  0.2925  0.9170
  466MOL0     H62898   9.068   7.122   2.662 -0.1950  0.5010  0.3520
  466MOL0     H62899   9.045   6.957   2.729  2.7863  1.1767  3.0652
  466MOL0     H62900   8.957   7.044   2.941  0.4686 -2.0327 -0.3974
  466MOL0     H62901   8.972   7.208   2.868 -0.4934  0.5269  1.5481
  466MOL0     H62902   9.215   7.176   2.852 -1.6571 -1.4586 -3.2007
  466MOL0     H62903   9.205   7.004   2.891 -1.8653 -1.6801  0.6598
  466MOL0     H62904   9.171   7.239   3.092  3.5968 -0.5656  0.2726
  466MOL0     H62905   9.104   7.076   3.125 -0.6825  0.1979 -0.3775
  466MOL0     H62906   9.513   7.005   3.160 -1.2214 -2.9728  1.2061
  466MOL0     H62907   9.015   7.176   2.484 -0.3989 -3.8009  0.0139
  466MOL0     H62908   8.918   7.395   2.217  0.3676  0.3579  1.2296
  466MOL0     H62909   9.050   7.358   2.326  1.4610 -2.8570  1.9213
  466MOL0     H62910   8.980   7.234   2.207 -1.0503 -0.2002 -0.1795
  467MOL0     O62911   7.450   7.649  11.222  0.3299 -0.2691 -0.2465
  467MOL0     C62912   7.395   7.752  11.180  0.4174 -0.6210 -1.5746
  467MOL0     O62913   7.331   7.753  11.067 -0.2650 -0.4865 -0.2178
  467MOL0     C62914   7.304   7.645  10.988  0.7676  0.1975  0.1430
  467MOL0     C62915   7.227   7.678  10.881  0.1476  0.3259 -0.4109
  467MOL0     C62916   7.203   7.586  10.776 -0.3962 -0.5213 -0.6352
  467MOL0     C62917   7.236   7.451  10.796 -0.0273  0.3643  0.0905
  467MOL0     O62918   7.190   7.359  10.702  0.0850 -1.2151 -0.1114
  467MOL0     C62919   7.286   7.264  10.665 -0.1800  1.2474 -0.7042
  467MOL0     C62920   7.424   7.318  10.604 -0.2846 -0.1133  0.0326
  467MOL0     C62921   7.395   7.397  10.479  0.2167  0.4369 -0.4635
  467MOL0     C62922   7.521   7.431  10.399 -0.2475 -0.0425  0.1380
  467MOL0     C62923   7.458   7.505  10.275  0.0384  0.3201 -1.1548
  467MOL0     C62924   7.562   7.586  10.197  0.0192 -0.9352  0.0115
  467MOL0     C62925   7.495   7.657  10.087 -0.8529  0.1923 -0.6888
  467MOL0     C62926   7.583   7.774  10.046 -0.6809  0.6423 -0.7188
  467MOL0     N62927   7.539   7.852   9.938  0.5510  0.4672 -0.2210
  467MOL0     C62928   7.567   7.984   9.926  0.3415  0.0597  0.1676
  467MOL0     C62929   7.506   8.027   9.816  0.3526 -0.8283 -0.2067
  467MOL0     C62930   7.536   8.153   9.746 -0.7112 -0.2215  1.3336
  467MOL0     C62931   7.654   8.148   9.647 -0.0267  0.6885  0.0237
  467MOL0     C62932   7.616   8.059   9.525 -0.0630  0.3074 -0.8539
  467MOL0     C62933   7.736   7.987   9.449  0.1131  0.4695 -1.6017
  467MOL0     O62934   7.805   8.080   9.360  0.4981 -0.4152 -0.0650
  467MOL0     C62935   7.926   8.035   9.313  0.3223  0.6578 -0.1103
  467MOL0     C62936   7.941   7.916   9.243  0.1137 -0.5601 -1.3134
  467MOL0     C62937   8.072   7.872   9.212 -0.2475 -0.3370 -0.0428
  467MOL0     C62938   8.183   7.943   9.232 -1.0377  0.7321  0.7094
  467MOL0     C62939   8.316   7.890   9.186  0.0324 -0.0652 -0.1086
  467MOL0     O62940   8.324   7.762   9.145 -0.0608  0.3373  0.1256
  467MOL0     C62941   8.444   7.716   9.087  0.1224 -0.6520 -0.0308
  467MOL0     C62942   8.536   7.640   9.152  0.1513  1.5234 -0.1747
  467MOL0     C62943   8.649   7.587   9.087 -0.1056 -0.5603  0.2806
  467MOL0     C62944   8.672   7.619   8.949  0.1205  0.4328 -0.2515
  467MOL0     O62945   8.762   7.539   8.876 -0.5491 -0.0450  0.3491
  467MOL0     C62946   8.810   7.600   8.759  0.2118  0.1545  0.0453
  467MOL0     C62947   8.955   7.564   8.740  0.1259 -0.1982 -0.5211
  467MOL0     C62948   8.965   7.415   8.694 -0.1659 -0.1490 -0.6718
  467MOL0     C62949   9.071   7.333   8.768 -0.8208  0.4390  0.0462
  467MOL0     C62950   9.217   7.393   8.759 -0.7802  0.4308  0.2640
  467MOL0     C62951   9.308   7.334   8.867 -0.6088 -0.3527 -1.0075
  467MOL0     C62952   9.451   7.384   8.863 -0.2855  0.8701 -0.6666
  467MOL0     C62953   9.536   7.324   8.978 -0.0404  0.0007  0.2313
  467MOL0    Cl62954   9.482   7.380   9.132  0.0423 -0.5447  0.1971
  467MOL0     C62955   8.574   7.688   8.884 -0.1612  0.2308  0.1359
  467MOL0     C62956   8.459   7.738   8.948  0.1167  0.6240  0.4198
  467MOL0     O62957   8.410   7.960   9.194 -0.0105 -0.7228  0.5327
  467MOL0     C62958   8.169   8.057   9.303  0.0750 -0.0598 -0.3420
  467MOL0     C62959   8.043   8.101   9.345  0.4049  0.3926  0.6136
  467MOL0     N62960   7.415   7.930   9.782  0.1037  0.9565 -0.0186
  467MOL0     N62961   7.421   7.831   9.866  0.6768  0.2731  0.0904
  467MOL0     C62962   7.299   7.408  10.915  0.4784 -1.1252 -0.2755
  467MOL0     C62963   7.336   7.509  11.012  1.9634 -0.4201  0.6586
  467MOL0     C62964   7.404   7.868  11.275 -1.0797 -0.1639  0.3602
  467MOL0     C62965   7.480   7.859  11.396  0.0516  0.1996  0.6004
  467MOL0     C62966   7.487   7.968  11.486 -0.3260  0.6530  0.8775
  467MOL0     C62967   7.445   8.092  11.451 -0.0024 -0.0035  0.6267
  467MOL0     O62968   7.465   8.204  11.527  0.0206  0.4395  0.7458
  467MOL0     C62969   7.542   8.199  11.642 -0.5663 -0.3287  0.0364
  467MOL0     C62970   7.461   8.156  11.754  0.2790  0.3842 -0.7560
  467MOL0     C62971   7.491   8.204  11.894 -0.2557  0.3062  0.5771
  467MOL0     C62972   7.638   8.183  11.945  0.5264 -0.2127 -0.6816
  467MOL0     C62973   7.735   8.288  11.905  0.0934 -1.1543 -0.5819
  467MOL0     C62974   7.790   8.382  11.849  0.1684  0.2338 -0.4284
  467MOL0     C62975   7.377   8.111  11.333  0.7289  0.2162  0.5280
  467MOL0     C62976   7.357   8.002  11.241 -0.8446 -0.0789  0.1331
  467MOL0     C62977   7.294   8.037  11.102 -0.1902  0.3150 -0.0952
  467MOL0     H62978   7.207   7.784  10.865 -3.2773  0.0489  1.1797
  467MOL0     H62979   7.162   7.619  10.681 -1.1215  0.3164 -0.0485
  467MOL0     H62980   7.318   7.208  10.753 -2.0917  1.1835  0.0022
  467MOL0     H62981   7.251   7.185  10.597 -0.1402 -0.9669  1.6744
  467MOL0     H62982   7.480   7.226  10.585  0.4285 -0.2037  2.2872
  467MOL0     H62983   7.477   7.387  10.670  1.2033 -0.4896 -0.7295
  467MOL0     H62984   7.343   7.489  10.508  0.7484 -0.0446  2.2875
  467MOL0     H62985   7.333   7.339  10.410  0.2723 -0.5273  0.2703
  467MOL0     H62986   7.591   7.493  10.455 -0.9414  0.5347  0.3719
  467MOL0     H62987   7.578   7.342  10.371  2.0287  0.4713  2.6933
  467MOL0     H62988   7.414   7.428  10.212 -0.3624  0.4338 -1.0168
  467MOL0     H62989   7.383   7.575  10.314 -1.2327 -2.2634  1.4385
  467MOL0     H62990   7.600   7.661  10.268 -3.0583 -0.2494  1.0646
  467MOL0     H62991   7.638   7.517  10.158  1.0307  0.3265 -0.3353
  467MOL0     H62992   7.396   7.692  10.116  0.1634  1.4097  1.5886
  467MOL0     H62993   7.485   7.581  10.009 -0.2801 -2.5892  1.7458
  467MOL0     H62994   7.598   7.841  10.132 -1.5358  0.9556 -0.8031
  467MOL0     H62995   7.685   7.736  10.033 -0.1300  1.9707 -0.5440
  467MOL0     H62996   7.645   8.035   9.981  0.5236 -0.5104  0.4404
  467MOL0     H62997   7.450   8.190   9.689  0.6897 -0.8559 -1.3774
  467MOL0     H62998   7.551   8.233   9.819 -3.8097  3.9462 -2.1169
  467MOL0     H62999   7.675   8.250   9.614 -0.6940  0.7825 -0.1246
  467MOL0     H63000   7.743   8.105   9.693 -1.0018  0.3246  1.6683
  467MOL0     H63001   7.553   8.115   9.455 -4.2501  1.8407  3.5821
  467MOL0     H63002   7.553   7.974   9.555 -0.3903  0.2224 -1.7349
  467MOL0     H63003   7.691   7.909   9.387 -0.0312  0.1442 -1.0948
  467MOL0     H63004   7.807   7.942   9.520 -0.8695  0.1278 -0.8068
  467MOL0     H63005   7.858   7.853   9.214  0.7746 -3.3947  2.2721
  467MOL0     H63006   8.079   7.775   9.163  1.5438 -0.3585  0.1791
  467MOL0     H63007   8.539   7.624   9.260 -1.1969  2.5675  0.0480
  467MOL0     H63008   8.727   7.520   9.121  0.7095 -0.2213 -0.8515
  467MOL0     H63009   8.752   7.551   8.680 -0.4582 -0.6933  1.0268
  467MOL0     H63010   8.798   7.708   8.766  0.9347  0.4338 -2.2976
  467MOL0     H63011   9.005   7.624   8.663  1.4889 -1.2905 -0.5196
  467MOL0     H63012   9.017   7.578   8.828 -1.3626 -0.6851  0.6514
  467MOL0     H63013   8.865   7.373   8.712 -0.5657  1.7498  2.3179
  467MOL0     H63014   8.985   7.414   8.587  1.8247  4.6287 -0.5615
  467MOL0     H63015   9.074   7.232   8.725 -0.8922 -0.5393  2.2284
  467MOL0     H63016   9.053   7.317   8.874 -1.1145  2.7615  0.3931
  467MOL0     H63017   9.207   7.501   8.771 -0.4054  0.3073  1.9045
  467MOL0     H63018   9.263   7.390   8.660  0.1127  1.7973  0.5993
  467MOL0     H63019   9.266   7.359   8.964  1.8315 -0.1950  0.0792
  467MOL0     H63020   9.311   7.227   8.848  0.3609 -0.2875 -1.2747
  467MOL0     H63021   9.454   7.491   8.883  2.4199  0.0818  5.1278
  467MOL0     H63022   9.503   7.366   8.768  2.4106  1.1269  0.6745
  467MOL0     H63023   9.545   7.215   8.973  1.0478 -0.1189  3.0510
  467MOL0     H63024   9.640   7.357   8.979  0.2814 -0.9851  0.9691
  467MOL0     H63025   8.566   7.682   8.775 -2.6151 -0.6815  0.2916
  467MOL0     H63026   8.387   7.794   8.889 -0.0977 -0.4592 -0.3880
  467MOL0     H63027   8.260   8.112   9.327 -2.1460  4.3026 -0.7807
  467MOL0     H63028   8.028   8.190   9.405  2.3191  2.1243 -1.3014
  467MOL0     H63029   7.298   7.302  10.940 -0.8527 -0.9501  0.4819
  467MOL0     H63030   7.369   7.469  11.108  0.9187 -2.0621  0.3890
  467MOL0     H63031   7.528   7.766  11.423  0.2511 -0.0793 -0.6368
  467MOL0     H63032   7.548   7.959  11.575  0.0603  0.8344  0.6355
  467MOL0     H63033   7.589   8.297  11.661  0.6263 -1.0456  0.9380
  467MOL0     H63034   7.628   8.133  11.629 -0.4864 -0.0889 -0.6737
  467MOL0     H63035   7.468   8.047  11.756 -0.0970  0.3598  1.1131
  467MOL0     H63036   7.362   8.202  11.749  0.4390  0.8447  0.1224
  467MOL0     H63037   7.428   8.160  11.972  0.8414  1.7614  2.3814
  467MOL0     H63038   7.484   8.313  11.890  0.5551  0.3213 -1.1292
  467MOL0     H63039   7.627   8.175  12.053 -4.0185  1.5419 -0.7990
  467MOL0     H63040   7.678   8.091  11.900  1.6815  0.2306 -0.5954
  467MOL0     H63041   7.829   8.454  11.780 -0.1492  0.1591 -0.6865
  467MOL0     H63042   7.336   8.210  11.313 -1.5094 -1.0725 -1.8006
  467MOL0     H63043   7.248   8.136  11.099 -1.5623 -0.3176 -1.6459
  467MOL0     H63044   7.374   8.029  11.028  0.9027 -3.0675  1.2668
  467MOL0     H63045   7.212   7.969  11.075 -0.8970  0.9790  0.3398
  468MOL0     O63046   9.265   2.892   2.639  0.5108  0.9822 -0.0576
  468MOL0     C63047   9.246   2.863   2.522 -0.2938  0.2335  0.1667
  468MOL0     O63048   9.306   2.919   2.414  0.4964  0.3834 -0.1547
  468MOL0     C63049   9.403   3.014   2.447 -0.2192  0.3216  0.0235
  468MOL0     C63050   9.368   3.149   2.446 -0.1175  0.5196  0.0760
  468MOL0     C63051   9.464   3.247   2.458  1.4191 -0.0840  0.1889
  468MOL0     C63052   9.603   3.213   2.468 -0.0095  0.1285  0.6729
  468MOL0     O63053   9.694   3.314   2.465  0.0661  0.3727  0.6626
  468MOL0     C63054   9.741   3.342   2.598 -0.4640 -0.3394  0.6077
  468MOL0     C63055   9.857   3.245   2.634 -0.2767 -0.3046 -0.5472
  468MOL0     C63056   9.930   3.299   2.752 -0.4956  0.0664 -0.5281
  468MOL0     C63057   9.975   3.188   2.857 -0.2152  0.3332  0.2955
  468MOL0     C63058  10.030   3.260   2.976 -0.3323 -0.0111  0.0694
  468MOL0     C63059  10.063   3.171   3.093  0.2246 -0.1415 -0.1096
  468MOL0     C63060  10.178   3.074   3.073  0.3644  0.7250  0.0437
  468MOL0     C63061  10.244   3.017   3.218  0.3732 -0.5181 -0.0026
  468MOL0     N63062  10.190   2.881   3.257 -0.4539  0.9611  0.1125
  468MOL0     C63063  10.060   2.852   3.274 -0.4166 -0.3680 -0.1020
  468MOL0     C63064  10.052   2.731   3.322  0.6943  0.2511  1.0223
  468MOL0     C63065   9.922   2.670   3.370 -0.1276 -0.0316  0.4982
  468MOL0     C63066   9.955   2.638   3.521 -0.0631 -0.3612  0.3492
  468MOL0     C63067   9.843   2.550   3.574 -0.2361 -0.3104 -0.6437
  468MOL0     C63068   9.835   2.547   3.725 -0.2243 -0.5796 -0.9946
  468MOL0     O63069   9.804   2.676   3.784 -1.0607  0.1144 -0.0413
  468MOL0     C63070   9.671   2.688   3.815  0.5672  0.5809  0.6416
  468MOL0     C63071   9.605   2.785   3.737  0.2446  0.5205  0.2638
  468MOL0     C63072   9.481   2.834   3.780  0.8224  0.4558  0.0061
  468MOL0     C63073   9.428   2.810   3.915 -0.7018 -0.9046  0.1110
  468MOL0     C63074   9.305   2.873   3.958 -0.2552  0.4421  0.0347
  468MOL0     O63075   9.219   2.950   3.868  0.2734  0.1785 -0.4023
  468MOL0     C63076   9.093   3.004   3.901  0.3873  0.2739  1.2726
  468MOL0     C63077   9.030   3.043   3.782  0.1438  0.7229  0.5545
  468MOL0     C63078   8.931   3.146   3.795  0.5575 -0.2067  0.0429
  468MOL0     C63079   8.891   3.188   3.926 -0.2918 -0.1601 -0.3297
  468MOL0     O63080   8.791   3.274   3.955  0.0651  0.1835  0.2757
  468MOL0     C63081   8.665   3.246   3.890  0.6979 -0.6441  0.8186
  468MOL0     C63082   8.617   3.369   3.825 -0.1876  0.8319  0.1287
  468MOL0     C63083   8.482   3.358   3.762  0.2130 -0.0284  0.4092
  468MOL0     C63084   8.433   3.480   3.698 -0.4115 -0.3003  0.0951
  468MOL0     C63085   8.514   3.499   3.572 -0.2673  0.1297 -0.0776
  468MOL0     C63086   8.479   3.628   3.504 -0.6868  0.2000  0.1476
  468MOL0     C63087   8.573   3.659   3.393 -0.2092 -0.0007 -0.0671
  468MOL0     C63088   8.724   3.686   3.433 -0.4172 -1.1770 -0.0473
  468MOL0    Cl63089   8.742   3.847   3.507 -0.2868 -0.2897  0.1127
  468MOL0     C63090   8.948   3.134   4.039 -0.4995  0.0013  0.0813
  468MOL0     C63091   9.049   3.044   4.025 -0.6217 -0.3257 -0.5027
  468MOL0     O63092   9.272   2.855   4.078 -0.3863 -0.0528  0.4749
  468MOL0     C63093   9.498   2.704   3.991 -0.4769 -0.3327 -0.3134
  468MOL0     C63094   9.611   2.637   3.932  0.2733  0.4935  0.0328
  468MOL0     N63095  10.190   2.681   3.328  0.7624  0.7644 -0.2401
  468MOL0     N63096  10.267   2.768   3.283 -0.0457  0.3963 -0.3487
  468MOL0     C63097   9.637   3.083   2.471 -0.6500  1.2103  0.0643
  468MOL0     C63098   9.542   2.981   2.459  0.3441  0.9104 -0.5847
  468MOL0     C63099   9.167   2.737   2.499  0.0808  0.3013 -0.0504
  468MOL0     C63100   9.083   2.696   2.604 -1.6205  0.2419 -0.0734
  468MOL0     C63101   9.007   2.576   2.589 -0.2343  0.0295 -0.6676
  468MOL0     C63102   9.000   2.512   2.469 -0.3440 -0.7628 -0.0520
  468MOL0     O63103   8.909   2.408   2.446  0.6065  0.9804  0.2027
  468MOL0     C63104   8.780   2.413   2.508  0.4183  0.7657 -0.2211
  468MOL0     C63105   8.683   2.515   2.446  0.6231 -0.5289  0.4389
  468MOL0     C63106   8.648   2.461   2.303 -0.4022  0.3382  0.1659
  468MOL0     C63107   8.570   2.552   2.210  0.7520 -0.1140 -0.6065
  468MOL0     C63108   8.432   2.525   2.252 -0.1741  0.5362 -0.2006
  468MOL0     C63109   8.316   2.490   2.263  0.4056 -1.0512 -0.4370
  468MOL0     C63110   9.070   2.558   2.362  0.1513  0.4773 -0.6838
  468MOL0     C63111   9.164   2.660   2.373  0.5520 -1.1506 -1.2858
  468MOL0     C63112   9.253   2.701   2.262 -0.5262  0.9999  0.6074
  468MOL0     H63113   9.261   3.167   2.440 -0.4633 -1.2885  0.4773
  468MOL0     H63114   9.447   3.353   2.468  0.5020 -0.1607 -0.4844
  468MOL0     H63115   9.773   3.446   2.598 -0.9459 -0.1861 -0.0318
  468MOL0     H63116   9.660   3.328   2.670  1.0276 -2.3751  2.0213
  468MOL0     H63117   9.933   3.244   2.556  0.1333 -1.6866 -0.1451
  468MOL0     H63118   9.826   3.146   2.668  1.1649  0.2074  2.5810
  468MOL0     H63119   9.871   3.375   2.804 -0.8782  0.4158 -1.4535
  468MOL0     H63120  10.023   3.346   2.717 -0.0052  0.1023  0.7824
  468MOL0     H63121   9.892   3.122   2.884  2.1239 -2.5154  0.9693
  468MOL0     H63122  10.050   3.131   2.803 -1.3149 -0.2430 -0.6822
  468MOL0     H63123  10.123   3.310   2.944  1.1107 -0.4431  3.2613
  468MOL0     H63124   9.962   3.341   3.002  0.2539  0.7074 -0.5675
  468MOL0     H63125  10.096   3.244   3.167  0.0178  0.0355 -0.1891
  468MOL0     H63126   9.975   3.116   3.130  0.5291 -0.6545 -0.1323
  468MOL0     H63127  10.243   3.135   3.010 -0.1181 -0.1160 -1.3087
  468MOL0     H63128  10.153   2.986   3.013  0.9036  0.5608  0.0534
  468MOL0     H63129  10.352   3.023   3.201  0.8697  2.4225  3.0670
  468MOL0     H63130  10.230   3.088   3.301 -1.5439 -0.0268 -0.6870
  468MOL0     H63131   9.979   2.918   3.245 -2.3291 -2.8160 -0.6226
  468MOL0     H63132   9.841   2.739   3.344 -0.6632 -0.7540  0.2258
  468MOL0     H63133   9.903   2.578   3.315 -0.4373  0.3814 -0.0946
  468MOL0     H63134  10.053   2.591   3.536  1.3687  1.7549 -1.5776
  468MOL0     H63135   9.955   2.737   3.569  3.4052 -0.7699  1.4704
  468MOL0     H63136   9.856   2.445   3.548 -1.8103 -0.5035 -0.7879
  468MOL0     H63137   9.746   2.584   3.535 -0.7658  0.7514  1.4329
  468MOL0     H63138   9.933   2.522   3.765  0.4726  2.3204 -0.6592
  468MOL0     H63139   9.759   2.475   3.760 -2.8620  2.3847 -0.1446
  468MOL0     H63140   9.657   2.836   3.656  1.9842 -2.7368 -0.8689
  468MOL0     H63141   9.434   2.904   3.712 -0.1791 -2.2281 -2.2657
  468MOL0     H63142   9.071   3.015   3.685 -1.2151  1.2147 -0.1772
  468MOL0     H63143   8.886   3.197   3.710 -0.2169 -1.2802 -0.2148
  468MOL0     H63144   8.668   3.161   3.821 -2.0296 -0.2209  0.0588
  468MOL0     H63145   8.600   3.212   3.971 -2.2586  1.4613 -0.5010
  468MOL0     H63146   8.613   3.446   3.902  3.1297  1.6929 -0.3906
  468MOL0     H63147   8.697   3.391   3.754 -0.0128 -1.0128 -0.2940
  468MOL0     H63148   8.489   3.279   3.687  1.7635  0.1506  0.3286
  468MOL0     H63149   8.403   3.326   3.831 -0.2728 -1.6136 -0.8380
  468MOL0     H63150   8.452   3.567   3.762  0.3184 -0.0290 -0.4755
  468MOL0     H63151   8.326   3.462   3.689 -1.2459  2.5488  2.7524
  468MOL0     H63152   8.495   3.416   3.503  0.6221  0.9145 -1.3127
  468MOL0     H63153   8.619   3.508   3.602  0.2084 -2.8471 -0.5303
  468MOL0     H63154   8.376   3.625   3.468  0.0150 -1.4682 -1.8793
  468MOL0     H63155   8.484   3.714   3.572  0.8471  2.0590 -2.1686
  468MOL0     H63156   8.538   3.741   3.328  1.4032 -0.7931 -2.0287
  468MOL0     H63157   8.583   3.577   3.322  1.1143  0.2607 -0.2045
  468MOL0     H63158   8.763   3.608   3.499 -0.4073 -3.6522 -2.7586
  468MOL0     H63159   8.777   3.677   3.338 -0.0243 -3.4345  0.3320
  468MOL0     H63160   8.919   3.152   4.142 -2.8002 -2.0779 -0.1187
  468MOL0     H63161   9.110   3.024   4.113  1.0189  0.8263 -1.3403
  468MOL0     H63162   9.458   2.701   4.092 -1.0995  1.3295 -0.4698
  468MOL0     H63163   9.677   2.571   3.986  1.1972  0.6785 -0.8317
  468MOL0     H63164   9.743   3.064   2.480 -0.6699 -1.1671 -2.9829
  468MOL0     H63165   9.570   2.877   2.451  1.2514  0.7709  2.9116
  468MOL0     H63166   9.086   2.729   2.708 -1.2196 -2.3041  0.7957
  468MOL0     H63167   8.960   2.518   2.668 -1.4749  1.1360 -0.5650
  468MOL0     H63168   8.781   2.443   2.613 -1.3968 -0.6986  0.2675
  468MOL0     H63169   8.726   2.318   2.505 -0.0676  1.0038  0.6417
  468MOL0     H63170   8.737   2.609   2.432 -0.2114 -0.0163  0.6799
  468MOL0     H63171   8.599   2.540   2.510  0.0430  0.1476 -0.5669
  468MOL0     H63172   8.602   2.365   2.325  2.7433 -1.4345 -0.3816
  468MOL0     H63173   8.744   2.443   2.254  0.6166 -3.1876  3.0227
  468MOL0     H63174   8.607   2.654   2.223  2.1990 -0.7873  0.9507
  468MOL0     H63175   8.578   2.519   2.106  0.6238 -0.1694 -0.5985
  468MOL0     H63176   8.210   2.475   2.257 -0.0973  1.9682 -1.0270
  468MOL0     H63177   9.053   2.504   2.270  4.6774  1.0687 -2.0922
  468MOL0     H63178   9.356   2.688   2.297 -0.3009 -3.5294 -1.1417
  468MOL0     H63179   9.246   2.637   2.174 -0.2495  1.7143  0.0486
  468MOL0     H63180   9.247   2.803   2.223  1.0399  0.5323 -0.9833
  469MOL0     O63181   5.206   7.228   3.578  0.0744 -0.3309  1.1162
  469MOL0     C63182   5.302   7.306   3.578  0.1473 -0.3627 -0.1058
  469MOL0     O63183   5.303   7.426   3.656 -0.3825 -0.6094  0.6228
  469MOL0     C63184   5.182   7.484   3.682  0.3341 -0.0030 -0.4222
  469MOL0     C63185   5.081   7.501   3.594  0.6456 -0.1270 -0.1528
  469MOL0     C63186   4.952   7.536   3.630 -0.9431 -0.0335  0.0954
  469MOL0     C63187   4.937   7.584   3.762 -0.3156  0.0940  1.0260
  469MOL0     O63188   4.812   7.624   3.795  0.8711  0.4307 -0.0415
  469MOL0     C63189   4.728   7.520   3.851  0.1494  0.5038 -0.5284
  469MOL0     C63190   4.631   7.583   3.949  0.8239  0.2895 -0.3499
  469MOL0     C63191   4.549   7.702   3.899 -0.0067  0.9685 -0.3674
  469MOL0     C63192   4.555   7.819   3.991 -0.8791  0.7443 -0.9154
  469MOL0     C63193   4.485   7.947   3.937 -0.4791 -0.6114 -0.7773
  469MOL0     C63194   4.522   8.061   4.027  0.5770 -0.6906  0.7456
  469MOL0     C63195   4.450   8.185   3.971  0.8327 -0.6582 -0.1423
  469MOL0     C63196   4.293   8.190   3.960  0.4547  0.1074 -0.3744
  469MOL0     N63197   4.257   8.333   3.939 -0.4967  0.7011  0.4113
  469MOL0     C63198   4.253   8.429   4.036 -0.0935  0.1752  0.0989
  469MOL0     C63199   4.243   8.551   3.970 -0.3514  0.3010 -0.5158
  469MOL0     C63200   4.229   8.677   4.047  0.0162  0.0458  0.1930
  469MOL0     C63201   4.361   8.745   4.071 -0.0017 -0.0123 -0.2483
  469MOL0     C63202   4.347   8.880   4.147  0.3237  0.7564 -0.4627
  469MOL0     C63203   4.279   8.887   4.298  0.6590  1.2212 -0.6898
  469MOL0     O63204   4.366   8.799   4.385  0.3428 -0.0077 -0.3164
  469MOL0     C63205   4.338   8.668   4.393  0.8634 -0.1725  0.2585
  469MOL0     C63206   4.449   8.579   4.378 -0.7727 -0.6470  0.6955
  469MOL0     C63207   4.412   8.447   4.374 -0.1576  0.5759 -0.0521
  469MOL0     C63208   4.287   8.398   4.390  0.2795 -0.6704 -0.0054
  469MOL0     C63209   4.255   8.264   4.351  0.3484 -0.6071 -0.9154
  469MOL0     O63210   4.334   8.161   4.405 -0.8011 -0.0208 -0.0780
  469MOL0     C63211   4.321   8.026   4.399 -0.9892  0.5079  0.1165
  469MOL0     C63212   4.200   7.968   4.429  0.3298  0.7741  0.3272
  469MOL0     C63213   4.198   7.824   4.414 -0.2244 -0.4803  0.9564
  469MOL0     C63214   4.318   7.751   4.390 -0.9626 -0.4022  0.3618
  469MOL0     O63215   4.314   7.611   4.388  0.6172 -0.6809 -0.0805
  469MOL0     C63216   4.423   7.535   4.357 -0.8097  0.5742 -0.4101
  469MOL0     C63217   4.402   7.385   4.338 -0.3503 -0.3044 -0.4118
  469MOL0     C63218   4.378   7.317   4.464 -0.2950 -0.0063  1.1860
  469MOL0     C63219   4.421   7.166   4.444  0.5109  0.3510  0.7022
  469MOL0     C63220   4.567   7.135   4.481 -0.1344 -0.1575 -0.7193
  469MOL0     C63221   4.638   7.085   4.356 -0.0787 -0.7106 -0.2948
  469MOL0     C63222   4.765   7.021   4.393 -0.0566 -1.0116  0.3082
  469MOL0     C63223   4.804   6.966   4.261  0.0753  0.4449 -0.0193
  469MOL0    Cl63224   4.952   6.867   4.253 -0.1630  0.0058  0.3550
  469MOL0     C63225   4.436   7.821   4.377  0.0705 -0.2601 -0.7672
  469MOL0     C63226   4.436   7.960   4.371 -0.1470 -0.2563 -1.2368
  469MOL0     O63227   4.142   8.246   4.297 -0.7247 -0.2164 -1.2481
  469MOL0     C63228   4.183   8.491   4.430  0.7187 -0.7201  0.9363
  469MOL0     C63229   4.210   8.624   4.413  0.8275 -0.3987 -0.6259
  469MOL0     N63230   4.247   8.523   3.831 -0.6323 -0.1286 -0.2635
  469MOL0     N63231   4.259   8.400   3.814 -0.2736  0.4870 -0.3057
  469MOL0     C63232   5.031   7.558   3.857 -0.5856  0.7102  0.0971
  469MOL0     C63233   5.158   7.507   3.815  1.4456  0.7702 -0.9547
  469MOL0     C63234   5.411   7.266   3.478  0.2281  0.5190  0.4828
  469MOL0     C63235   5.453   7.364   3.386 -0.8560  0.0910 -0.8548
  469MOL0     C63236   5.543   7.328   3.291  1.1227  1.1230 -0.3656
  469MOL0     C63237   5.577   7.191   3.271 -0.1482  0.0886 -0.3864
  469MOL0     O63238   5.670   7.167   3.173  0.1245  0.5578  0.4542
  469MOL0     C63239   5.616   7.132   3.046  0.0519  0.3489  0.4042
  469MOL0     C63240   5.573   7.254   2.956 -0.2425 -0.1344 -0.4572
  469MOL0     C63241   5.685   7.353   2.934  0.0920  0.4282  0.3096
  469MOL0     C63242   5.636   7.471   2.856  0.1168 -0.4353 -0.4880
  469MOL0     C63243   5.541   7.550   2.933 -0.5094  0.3965 -1.0495
  469MOL0     C63244   5.442   7.608   2.978  1.1809 -0.2140 -0.4736
  469MOL0     C63245   5.536   7.093   3.356 -0.2003  0.3791 -0.3543
  469MOL0     C63246   5.455   7.127   3.462 -0.3008 -0.5932 -0.3468
  469MOL0     C63247   5.404   7.018   3.550  0.2891  0.4509  0.4385
  469MOL0     H63248   5.096   7.486   3.488 -1.4559 -0.0883 -0.4957
  469MOL0     H63249   4.880   7.537   3.548 -0.8257  0.4193 -0.0078
  469MOL0     H63250   4.669   7.464   3.778  0.4388  0.7600 -0.9627
  469MOL0     H63251   4.785   7.447   3.908  1.6302  1.9213 -0.1154
  469MOL0     H63252   4.689   7.609   4.038 -1.1390  1.6036  0.6203
  469MOL0     H63253   4.567   7.500   3.980  2.6547 -1.3504 -0.7477
  469MOL0     H63254   4.442   7.677   3.893  0.4939 -0.9195 -2.5930
  469MOL0     H63255   4.575   7.721   3.795  2.5999  0.8242  0.1828
  469MOL0     H63256   4.522   7.797   4.093 -0.8204  2.6576 -0.4536
  469MOL0     H63257   4.661   7.847   3.991 -0.4719 -0.6804 -0.9271
  469MOL0     H63258   4.532   7.952   3.838  1.0249 -2.6825 -0.2362
  469MOL0     H63259   4.377   7.931   3.922 -0.6400  0.3598 -0.7160
  469MOL0     H63260   4.484   8.033   4.126  0.1452  2.1047  1.4522
  469MOL0     H63261   4.630   8.067   4.041  0.1734  1.1708  3.8721
  469MOL0     H63262   4.488   8.187   3.869  0.3144  0.0283 -0.3236
  469MOL0     H63263   4.487   8.269   4.030 -1.5796  1.4059 -1.3861
  469MOL0     H63264   4.261   8.131   3.874 -0.1944 -1.3579  0.8038
  469MOL0     H63265   4.257   8.131   4.046 -0.2910 -2.3677 -2.2616
  469MOL0     H63266   4.258   8.419   4.144  2.6921  0.4229  0.0742
  469MOL0     H63267   4.168   8.744   3.986  1.4748  0.6746 -0.6181
  469MOL0     H63268   4.170   8.668   4.138 -0.6957  1.3443 -0.1237
  469MOL0     H63269   4.436   8.685   4.123 -0.4284 -0.1681  0.1966
  469MOL0     H63270   4.415   8.760   3.978  1.2696  0.6209  0.5551
  469MOL0     H63271   4.268   8.935   4.096 -1.6201  0.4404  2.0054
  469MOL0     H63272   4.441   8.937   4.146  1.3332 -0.8287 -1.8821
  469MOL0     H63273   4.172   8.866   4.308  0.7364  1.6968  1.5279
  469MOL0     H63274   4.281   8.990   4.333  0.6213  0.9828  0.0256
  469MOL0     H63275   4.549   8.623   4.373 -0.5644 -0.9983  1.5786
  469MOL0     H63276   4.483   8.366   4.362 -0.2245  0.5687 -0.3935
  469MOL0     H63277   4.115   8.021   4.469  0.3479  1.5569 -0.6258
  469MOL0     H63278   4.119   7.753   4.435 -0.0545 -1.3519 -1.0826
  469MOL0     H63279   4.474   7.573   4.268 -2.2448 -0.7837 -1.8559
  469MOL0     H63280   4.486   7.547   4.446 -2.2536  2.8985  0.4115
  469MOL0     H63281   4.323   7.367   4.265 -0.7275  1.7182 -0.5552
  469MOL0     H63282   4.498   7.354   4.296 -1.0703 -1.1182 -1.4933
  469MOL0     H63283   4.431   7.367   4.546 -1.8131  1.1630  1.5191
  469MOL0     H63284   4.270   7.325   4.485 -0.9952  1.4264 -2.2921
  469MOL0     H63285   4.384   7.140   4.345  0.5976 -1.3972  1.1048
  469MOL0     H63286   4.354   7.121   4.518 -0.5550  0.8542  0.0720
  469MOL0     H63287   4.567   7.062   4.563 -3.2989  0.1271 -0.3208
  469MOL0     H63288   4.609   7.228   4.520 -0.4702 -0.1942 -0.2502
  469MOL0     H63289   4.575   7.011   4.306  1.0344 -0.3003 -2.3835
  469MOL0     H63290   4.664   7.168   4.289  3.7014 -0.1531  1.5549
  469MOL0     H63291   4.759   6.941   4.467 -0.2322  0.0615  1.4906
  469MOL0     H63292   4.844   7.094   4.414 -1.1296  0.7155 -1.3225
  469MOL0     H63293   4.721   6.906   4.223  0.5379  0.6185 -1.3527
  469MOL0     H63294   4.816   7.048   4.189  0.8018 -0.8536 -1.4330
  469MOL0     H63295   4.529   7.768   4.358 -0.6884 -1.1208 -2.2441
  469MOL0     H63296   4.531   8.007   4.351  0.0095 -0.2994 -0.6381
  469MOL0     H63297   4.083   8.458   4.454 -0.5328  1.9944 -0.2164
  469MOL0     H63298   4.128   8.691   4.438  0.6610 -0.3671 -1.2553
  469MOL0     H63299   5.018   7.567   3.964 -3.1357 -0.6561 -0.0117
  469MOL0     H63300   5.233   7.482   3.890  0.9014 -0.4845 -0.8146
  469MOL0     H63301   5.434   7.471   3.392 -0.2290  0.1507  0.2994
  469MOL0     H63302   5.580   7.416   3.241  2.8382  0.2605 -0.7097
  469MOL0     H63303   5.526   7.071   3.055 -0.6631  1.2821 -0.2318
  469MOL0     H63304   5.692   7.070   2.998  0.9563 -1.1153  3.4379
  469MOL0     H63305   5.479   7.298   2.991 -0.1742  0.5985 -1.1646
  469MOL0     H63306   5.543   7.209   2.860 -4.3532  0.1235  0.4861
  469MOL0     H63307   5.776   7.307   2.894  0.6194 -0.0306  1.9634
  469MOL0     H63308   5.711   7.395   3.031  1.4766  0.9830 -0.2880
  469MOL0     H63309   5.714   7.541   2.824 -1.7134  1.1362 -1.8141
  469MOL0     H63310   5.590   7.434   2.763 -0.4172  0.1337 -0.4573
  469MOL0     H63311   5.350   7.647   3.017  1.5252 -2.0167  2.4121
  469MOL0     H63312   5.576   6.994   3.335  0.7227  0.7092 -0.1924
  469MOL0     H63313   5.422   7.036   3.656  0.5322  1.4602  0.2312
  469MOL0     H63314   5.300   6.987   3.537  0.3818  1.0713 -2.2801
  469MOL0     H63315   5.454   6.922   3.531 -1.1897 -0.6366  1.7941
  470MOL0     O63316   3.843   6.939   5.993  0.2106  0.1886  0.7668
  470MOL0     C63317   3.870   6.862   6.078  0.1447 -0.1227 -0.2898
  470MOL0     O63318   4.003   6.831   6.108 -0.4810 -0.0506  0.6163
  470MOL0     C63319   4.107   6.913   6.063  0.3079  0.7275 -0.0081
  470MOL0     C63320   4.187   6.856   5.967  0.0140  0.4295 -1.1081
  470MOL0     C63321   4.292   6.932   5.911  0.1292  0.1225  0.3273
  470MOL0     C63322   4.326   7.058   5.952  0.9384 -1.1373 -0.1156
  470MOL0     O63323   4.446   7.116   5.907 -0.8460  0.2177 -0.4099
  470MOL0     C63324   4.492   7.241   5.958  0.2422 -0.6697  0.4701
  470MOL0     C63325   4.592   7.306   5.871 -0.1545 -0.3488 -0.1217
  470MOL0     C63326   4.539   7.382   5.756  0.6368 -0.1092 -0.1413
  470MOL0     C63327   4.476   7.519   5.788  0.6039  1.3878 -0.0571
  470MOL0     C63328   4.409   7.579   5.666  0.4590 -0.1651  0.1279
  470MOL0     C63329   4.513   7.649   5.569 -0.5189 -0.4827  0.0446
  470MOL0     C63330   4.449   7.732   5.457  0.0915 -0.1309 -0.3877
  470MOL0     C63331   4.468   7.888   5.486 -0.4161  1.3270 -0.9566
  470MOL0     N63332   4.413   7.972   5.380 -0.3335 -0.5125  1.0535
  470MOL0     C63333   4.278   7.993   5.371 -0.2202  0.5170 -0.3544
  470MOL0     C63334   4.265   8.034   5.241 -0.7034 -0.1665  0.6299
  470MOL0     C63335   4.132   8.065   5.177 -0.1498  1.3587  0.8072
  470MOL0     C63336   4.094   8.212   5.146 -0.0330 -0.5320  0.7163
  470MOL0     C63337   3.978   8.270   5.229  0.5331 -0.4662 -0.3127
  470MOL0     C63338   3.968   8.420   5.221  0.4679 -0.2227 -0.0836
  470MOL0     O63339   3.859   8.457   5.310 -0.0627 -1.1675  0.3721
  470MOL0     C63340   3.872   8.571   5.386  0.4966  0.1437  0.3055
  470MOL0     C63341   3.756   8.611   5.455 -0.5040  0.0541  0.5071
  470MOL0     C63342   3.746   8.734   5.520 -0.2311 -1.4263 -0.1309
  470MOL0     C63343   3.849   8.826   5.511  0.0774 -0.7230  0.1267
  470MOL0     C63344   3.839   8.953   5.590  1.2531 -0.5867  0.2144
  470MOL0     O63345   3.920   9.050   5.558 -0.1271 -0.4865 -0.3672
  470MOL0     C63346   3.903   9.189   5.587  0.7139  1.3639  0.1605
  470MOL0     C63347   3.902   9.276   5.481  0.7527  0.6376 -0.2531
  470MOL0     C63348   3.867   9.411   5.490  0.0028  0.5582 -0.3881
  470MOL0     C63349   3.838   9.468   5.616 -0.5331  0.2121  0.0055
  470MOL0     O63350   3.802   9.597   5.615 -0.0571  0.5030  0.2876
  470MOL0     C63351   3.792   9.670   5.745  0.1337  0.6528  0.0931
  470MOL0     C63352   3.720   9.800   5.714  0.0085  0.9887 -0.2111
  470MOL0     C63353   3.721   9.881   5.839 -0.2552 -0.3729  0.4372
  470MOL0     C63354   3.614   9.987   5.852  0.0509 -0.5321  0.6207
  470MOL0     C63355   3.589  10.065   5.718  0.5564 -0.3402 -0.9777
  470MOL0     C63356   3.504  10.191   5.749  0.0015 -0.8055 -0.5332
  470MOL0     C63357   3.576  10.297   5.839 -0.0238 -0.0215  1.3667
  470MOL0     C63358   3.488  10.425   5.834  0.5636  0.3301  0.1772
  470MOL0    Cl63359   3.519  10.496   5.663 -0.0584 -0.2603 -0.3212
  470MOL0     C63360   3.858   9.379   5.731 -0.1221 -0.5559  0.5011
  470MOL0     C63361   3.887   9.235   5.716 -0.1860  0.2298  0.2485
  470MOL0     O63362   3.737   8.969   5.661  0.5745 -0.0828 -0.0052
  470MOL0     C63363   3.973   8.786   5.449  1.1727  0.9199  0.3908
  470MOL0     C63364   3.985   8.652   5.397  0.4291  0.0817  0.1303
  470MOL0     N63365   4.394   8.058   5.194  0.9324 -0.0812  0.4442
  470MOL0     N63366   4.476   8.007   5.271 -0.7350  0.8642  0.4019
  470MOL0     C63367   4.236   7.112   6.050 -0.2305 -0.3500  0.7930
  470MOL0     C63368   4.126   7.045   6.102  0.5210  0.3587 -0.9226
  470MOL0     C63369   3.772   6.783   6.152  0.0185  0.1273  0.6684
  470MOL0     C63370   3.816   6.673   6.225 -0.9544 -0.7234  0.1356
  470MOL0     C63371   3.736   6.587   6.306 -0.4132  0.1246  0.0915
  470MOL0     C63372   3.599   6.617   6.324 -0.0353 -0.3570  0.3876
  470MOL0     O63373   3.520   6.533   6.401  0.6213 -0.2337  0.3212
  470MOL0     C63374   3.371   6.545   6.410 -0.5901 -0.1942 -0.0392
  470MOL0     C63375   3.318   6.634   6.527  0.2684  0.1929  0.4126
  470MOL0     C63376   3.381   6.603   6.663 -0.3074  0.2558  1.5222
  470MOL0     C63377   3.292   6.638   6.781 -0.4554  1.1652 -0.9715
  470MOL0     C63378   3.274   6.784   6.791 -0.7520  1.0681  0.6044
  470MOL0     C63379   3.229   6.896   6.767 -0.0980 -0.7309  0.3805
  470MOL0     C63380   3.558   6.738   6.265  0.2875  0.3099 -0.2268
  470MOL0     C63381   3.638   6.812   6.170  0.3149  0.8992 -0.2243
  470MOL0     C63382   3.562   6.916   6.098  0.1066 -0.7655 -0.0827
  470MOL0     H63383   4.164   6.754   5.936 -0.0489  0.2782 -0.5674
  470MOL0     H63384   4.351   6.888   5.831 -0.6518 -2.3533  1.0266
  470MOL0     H63385   4.403   7.303   5.960 -1.0618 -2.4458  0.2984
  470MOL0     H63386   4.528   7.230   6.060 -1.3091 -1.4666  0.9632
  470MOL0     H63387   4.654   7.226   5.830  0.7641 -0.4234  1.3733
  470MOL0     H63388   4.659   7.366   5.932  0.7498  1.5766 -2.8324
  470MOL0     H63389   4.456   7.318   5.722  0.0913  0.2591  0.4634
  470MOL0     H63390   4.612   7.398   5.677  0.7225  2.6859  0.4210
  470MOL0     H63391   4.413   7.497   5.875  2.2032 -0.2345  0.7548
  470MOL0     H63392   4.560   7.581   5.821  0.6791  1.9709 -1.2936
  470MOL0     H63393   4.368   7.499   5.603 -2.4312  0.8437  0.6023
  470MOL0     H63394   4.330   7.645   5.701  0.0486 -2.1943  3.4092
  470MOL0     H63395   4.586   7.706   5.627  1.1052  0.3447 -2.6013
  470MOL0     H63396   4.577   7.570   5.529  0.6757 -0.5739  2.0003
  470MOL0     H63397   4.340   7.719   5.454 -0.1597  1.7867 -1.0201
  470MOL0     H63398   4.498   7.718   5.360  0.7151  0.3598 -0.1527
  470MOL0     H63399   4.425   7.930   5.578 -0.3360  4.3747 -2.1870
  470MOL0     H63400   4.576   7.904   5.498 -0.4038 -0.0522  1.3379
  470MOL0     H63401   4.194   7.969   5.436 -0.3148  3.1777  0.6394
  470MOL0     H63402   4.134   8.013   5.080 -1.6779  1.7441  0.5377
  470MOL0     H63403   4.044   8.015   5.218  0.6269  1.0006  2.0583
  470MOL0     H63404   4.184   8.267   5.174  0.7512 -2.1169  1.4147
  470MOL0     H63405   4.077   8.233   5.040  1.6010 -0.2434  0.4865
  470MOL0     H63406   3.996   8.240   5.333  0.5158 -2.2820 -0.8099
  470MOL0     H63407   3.875   8.243   5.201  0.8746 -0.1693 -1.9369
  470MOL0     H63408   3.950   8.453   5.118 -0.4075 -2.7695 -0.8429
  470MOL0     H63409   4.065   8.457   5.254 -0.1277  1.6431 -0.3283
  470MOL0     H63410   3.679   8.535   5.450  1.1982 -1.7697  0.7031
  470MOL0     H63411   3.650   8.765   5.560 -0.0852  0.4718 -1.1390
  470MOL0     H63412   3.934   9.250   5.380  2.6194  2.1511 -0.1045
  470MOL0     H63413   3.862   9.470   5.399 -0.8745 -0.3569 -0.9512
  470MOL0     H63414   3.728   9.605   5.806  1.5289 -1.4944 -0.6299
  470MOL0     H63415   3.889   9.677   5.794 -0.8560  2.3976  1.9502
  470MOL0     H63416   3.770   9.857   5.636 -0.0472 -0.3444 -1.2426
  470MOL0     H63417   3.615   9.780   5.691 -0.0221 -1.2571  1.4940
  470MOL0     H63418   3.722   9.823   5.932 -4.8301 -0.2666  0.7755
  470MOL0     H63419   3.820   9.929   5.843 -0.6785  0.4436  2.4581
  470MOL0     H63420   3.622  10.056   5.937 -1.1266 -1.3855  1.4482
  470MOL0     H63421   3.523   9.928   5.866 -0.3398 -0.3061 -0.7798
  470MOL0     H63422   3.533  10.005   5.646  1.9328 -1.7031 -0.9677
  470MOL0     H63423   3.690  10.076   5.677  0.7889 -1.6521 -0.7876
  470MOL0     H63424   3.467  10.237   5.657  1.7298  1.9303  0.0353
  470MOL0     H63425   3.423  10.154   5.813 -1.8822  2.3544 -0.8870
  470MOL0     H63426   3.677  10.316   5.802 -0.2271  1.4095  1.4834
  470MOL0     H63427   3.579  10.269   5.945  3.0603  1.8182  1.8984
  470MOL0     H63428   3.383  10.411   5.859  0.4713  1.3935  0.4551
  470MOL0     H63429   3.519  10.506   5.901 -1.0950  0.4192  0.8807
  470MOL0     H63430   3.836   9.417   5.831  1.4247  0.3376  0.5234
  470MOL0     H63431   3.900   9.165   5.797  2.2164  1.6475  1.1932
  470MOL0     H63432   4.052   8.860   5.450  2.6729 -0.5575 -1.1503
  470MOL0     H63433   4.078   8.635   5.343  0.1239  1.8472 -1.0563
  470MOL0     H63434   4.248   7.213   6.088 -0.5869  1.6842 -3.8615
  470MOL0     H63435   4.058   7.101   6.165 -1.5623 -0.7268 -2.0869
  470MOL0     H63436   3.920   6.645   6.213 -1.8954 -3.1649 -4.7557
  470MOL0     H63437   3.777   6.503   6.360  1.5601  0.1362 -1.3134
  470MOL0     H63438   3.345   6.439   6.411  3.3782 -1.3546  1.0580
  470MOL0     H63439   3.330   6.595   6.322  1.4268  1.2290 -0.2441
  470MOL0     H63440   3.210   6.628   6.541  0.1471 -1.6145 -0.9717
  470MOL0     H63441   3.331   6.737   6.493  0.9976  0.4457  1.3798
  470MOL0     H63442   3.481   6.647   6.668 -0.2306  0.5029 -0.8432
  470MOL0     H63443   3.396   6.495   6.671  1.1350  0.3022  0.0023
  470MOL0     H63444   3.200   6.579   6.783  1.6328 -2.4789  1.8627
  470MOL0     H63445   3.347   6.609   6.871 -3.8719  2.0336  1.5894
  470MOL0     H63446   3.171   6.986   6.759 -3.0531 -2.5017  0.4783
  470MOL0     H63447   3.452   6.759   6.277  0.1048 -0.5709 -0.2484
  470MOL0     H63448   3.598   7.017   6.122  1.8893 -2.0920  3.7195
  470MOL0     H63449   3.565   6.900   5.990  0.7378  0.9368 -0.3612
  470MOL0     H63450   3.458   6.910   6.130  0.5794 -0.7803  1.5711
  471MOL0     O63451   4.103   9.784   8.825 -0.6800 -0.1955 -0.4097
  471MOL0     C63452   4.000   9.723   8.800 -1.0459 -0.2597  0.2026
  471MOL0     O63453   3.942   9.648   8.891  0.0415  0.0834 -0.1090
  471MOL0     C63454   4.005   9.579   9.001  0.2564  1.0146  1.4201
  471MOL0     C63455   3.938   9.532   9.116 -0.4439 -0.0566 -0.7752
  471MOL0     C63456   3.998   9.459   9.223 -0.3438  0.2107 -0.6260
  471MOL0     C63457   4.134   9.444   9.224 -0.8869 -0.5136  0.0860
  471MOL0     O63458   4.189   9.379   9.329  0.4286 -0.8415 -0.2590
  471MOL0     C63459   4.319   9.318   9.314  0.4371 -0.2523  0.1873
  471MOL0     C63460   4.331   9.216   9.431 -0.2018  0.6183 -0.1869
  471MOL0     C63461   4.306   9.278   9.571  0.1843  0.6144  0.2007
  471MOL0     C63462   4.368   9.185   9.684  0.4942  0.5367 -0.2609
  471MOL0     C63463   4.289   9.058   9.707 -0.1776 -0.6166 -0.6404
  471MOL0     C63464   4.326   8.984   9.831  0.5911 -0.1273 -1.0339
  471MOL0     C63465   4.260   9.028   9.964 -0.4873 -0.5537  0.0052
  471MOL0     C63466   4.206   8.904  10.040  0.1444 -0.4007 -0.3235
  471MOL0     N63467   4.145   8.939  10.171  0.0826 -0.0140  0.9108
  471MOL0     C63468   4.030   9.011  10.190 -0.2086  0.6453 -0.9563
  471MOL0     C63469   4.013   9.014  10.327 -0.0657  0.0495  0.1353
  471MOL0     C63470   3.876   9.053  10.377  0.2240 -0.0488  0.5520
  471MOL0     C63471   3.885   9.056  10.522  0.1621  0.1213 -0.6625
  471MOL0     C63472   3.870   8.904  10.560 -0.8565 -0.5623  0.0237
  471MOL0     C63473   3.853   8.875  10.706 -0.5866 -0.1327 -0.9496
  471MOL0     O63474   3.733   8.941  10.767 -0.3788 -0.4416  0.9486
  471MOL0     C63475   3.729   8.921  10.903  0.0229  0.6780 -0.2776
  471MOL0     C63476   3.621   8.850  10.957 -0.0121  0.1178 -0.0639
  471MOL0     C63477   3.616   8.831  11.096  0.8288 -0.6017 -0.3180
  471MOL0     C63478   3.724   8.870  11.179 -0.5203 -0.2599 -0.1460
  471MOL0     C63479   3.711   8.823  11.321 -1.0077 -1.1364 -1.2161
  471MOL0     O63480   3.591   8.781  11.371 -0.2854 -0.5145  0.1169
  471MOL0     C63481   3.561   8.729  11.493  0.3785 -0.0059 -0.4014
  471MOL0     C63482   3.640   8.715  11.607 -0.0624 -0.0452  0.3210
  471MOL0     C63483   3.593   8.634  11.717 -0.4036 -0.4394  0.1986
  471MOL0     C63484   3.467   8.587  11.719 -0.8690 -0.5521 -0.6874
  471MOL0     O63485   3.424   8.530  11.841  0.3176  0.8991  0.0736
  471MOL0     C63486   3.477   8.409  11.881  0.7735  0.3796  0.5429
  471MOL0     C63487   3.463   8.293  11.777 -0.1209  0.2960 -0.0286
  471MOL0     C63488   3.572   8.187  11.805 -0.5884  0.5277  0.4860
  471MOL0     C63489   3.531   8.048  11.744  0.5442  0.0350 -0.1888
  471MOL0     C63490   3.625   7.935  11.792  0.6397 -0.1762 -0.7743
  471MOL0     C63491   3.567   7.800  11.766  0.0575  0.0364  0.0318
  471MOL0     C63492   3.683   7.692  11.778  1.0966 -0.1757 -1.6547
  471MOL0     C63493   3.631   7.550  11.771 -0.1028 -0.2421  0.2290
  471MOL0    Cl63494   3.525   7.513  11.903 -0.3675  0.1262  0.3737
  471MOL0     C63495   3.389   8.595  11.609 -0.1250 -0.0321 -0.5252
  471MOL0     C63496   3.440   8.661  11.499 -0.4350 -0.1852  0.6494
  471MOL0     O63497   3.820   8.814  11.384  0.8743  0.0454  0.9731
  471MOL0     C63498   3.836   8.924  11.119  0.1776 -0.1361 -0.4575
  471MOL0     C63499   3.827   8.968  10.987  0.6605 -0.1601 -0.1482
  471MOL0     N63500   4.119   8.949  10.378 -0.1370 -0.0439 -0.1644
  471MOL0     N63501   4.201   8.915  10.290 -0.6103 -0.3426  0.2808
  471MOL0     C63502   4.204   9.504   9.123  0.4837 -0.7721  0.6257
  471MOL0     C63503   4.142   9.559   9.003 -0.0753  0.1433  0.1579
  471MOL0     C63504   3.927   9.749   8.681 -1.0584 -0.6347  0.5793
  471MOL0     C63505   3.923   9.877   8.622  0.3121 -0.7952 -0.2589
  471MOL0     C63506   3.850   9.896   8.514  0.7870 -0.1385  0.0363
  471MOL0     C63507   3.785   9.808   8.439 -0.1548  0.5456 -0.1449
  471MOL0     O63508   3.722   9.829   8.312 -0.3180  0.0963  0.1484
  471MOL0     C63509   3.764   9.943   8.234  0.1180 -0.0808  0.1799
  471MOL0     C63510   3.682  10.073   8.261 -0.4979  0.7110 -0.2240
  471MOL0     C63511   3.724  10.182   8.162  0.0957 -0.6726 -0.2417
  471MOL0     C63512   3.865  10.230   8.162 -0.0917  0.2091 -0.5286
  471MOL0     C63513   3.924  10.242   8.297 -0.0722 -0.6391 -0.4441
  471MOL0     C63514   3.976  10.247   8.410  1.1230  0.9500 -0.2333
  471MOL0     C63515   3.801   9.675   8.487  0.6066 -0.2208 -0.2548
  471MOL0     C63516   3.863   9.650   8.609 -0.4768  0.4045 -0.5407
  471MOL0     C63517   3.865   9.499   8.653 -0.5609  0.6286  0.0635
  471MOL0     H63518   3.830   9.536   9.119 -0.4850 -0.3655 -1.5909
  471MOL0     H63519   3.936   9.416   9.301  0.6591 -1.8639 -0.9220
  471MOL0     H63520   4.322   9.262   9.220 -0.4570  0.0994 -0.0678
  471MOL0     H63521   4.401   9.389   9.321  1.1526 -1.1430  1.1456
  471MOL0     H63522   4.426   9.162   9.427 -1.0649 -1.5526  3.6899
  471MOL0     H63523   4.251   9.145   9.410  1.0759 -0.9877  0.2157
  471MOL0     H63524   4.198   9.284   9.586  0.1986 -1.2578  1.2517
  471MOL0     H63525   4.345   9.380   9.577 -0.9107  1.1654 -1.3527
  471MOL0     H63526   4.470   9.166   9.650  1.2443  2.6849  0.5965
  471MOL0     H63527   4.370   9.232   9.782 -2.0392  1.1661 -0.4512
  471MOL0     H63528   4.186   9.094   9.705 -0.3173 -0.9828 -0.1697
  471MOL0     H63529   4.295   9.000   9.614  0.0064  0.7994 -1.5477
  471MOL0     H63530   4.296   8.879   9.822 -2.5424  0.5063  0.7816
  471MOL0     H63531   4.434   8.986   9.847  0.3201 -1.3494  1.3062
  471MOL0     H63532   4.182   9.101   9.939  0.1449 -0.5057 -2.0414
  471MOL0     H63533   4.338   9.066  10.030 -1.4227 -0.3998  1.0385
  471MOL0     H63534   4.145   8.843   9.973 -1.2443  0.3018  0.2725
  471MOL0     H63535   4.286   8.834  10.068  1.2619  0.5966 -0.9621
  471MOL0     H63536   3.957   9.050  10.119  1.1701  2.2551 -1.5601
  471MOL0     H63537   3.855   9.154  10.339 -1.5009 -0.4539  0.3956
  471MOL0     H63538   3.800   8.984  10.341  1.2805 -0.5779 -0.7753
  471MOL0     H63539   3.972   9.114  10.554 -2.6628  2.7263  3.1607
  471MOL0     H63540   3.795   9.100  10.566  0.1756 -1.0925  0.6476
  471MOL0     H63541   3.955   8.842  10.531 -0.9815 -0.5443 -0.3921
  471MOL0     H63542   3.775   8.863  10.523 -0.9343 -0.5501  0.2063
  471MOL0     H63543   3.948   8.901  10.753 -2.2455  1.1873  1.9416
  471MOL0     H63544   3.824   8.773  10.734  0.1105 -0.4207 -1.2545
  471MOL0     H63545   3.541   8.815  10.893 -2.1989  2.4390  1.2107
  471MOL0     H63546   3.525   8.784  11.131  0.6406  0.0896  0.1397
  471MOL0     H63547   3.739   8.759  11.619 -0.6289  0.8551  2.0146
  471MOL0     H63548   3.662   8.611  11.797  0.5657 -1.3392 -0.8739
  471MOL0     H63549   3.580   8.436  11.906  0.2896  1.2364  1.6618
  471MOL0     H63550   3.412   8.377  11.962  0.3336 -0.3360 -0.0802
  471MOL0     H63551   3.359   8.262  11.765  0.0546  0.1072 -1.1678
  471MOL0     H63552   3.493   8.332  11.679 -1.3171 -0.7339 -0.8358
  471MOL0     H63553   3.670   8.212  11.764  0.4243 -0.9802  1.8911
  471MOL0     H63554   3.581   8.177  11.913  1.2518 -1.6761  0.1968
  471MOL0     H63555   3.525   8.055  11.635  1.8900 -1.5073 -0.3976
  471MOL0     H63556   3.435   8.024  11.791 -0.2886 -1.9850 -2.6887
  471MOL0     H63557   3.635   7.951  11.900 -1.3754  0.6120 -0.6686
  471MOL0     H63558   3.725   7.939  11.748  1.7496 -2.9663  1.2086
  471MOL0     H63559   3.486   7.762  11.828 -1.9396 -1.2322 -3.1643
  471MOL0     H63560   3.539   7.804  11.661 -0.0671  1.8149  0.0926
  471MOL0     H63561   3.733   7.711  11.874  0.6315 -0.5990 -1.3249
  471MOL0     H63562   3.757   7.703  11.699  2.0406  0.9059 -0.6548
  471MOL0     H63563   3.576   7.536  11.678  1.1709 -0.8542 -0.4615
  471MOL0     H63564   3.722   7.490  11.763  0.6478  1.0557 -1.6382
  471MOL0     H63565   3.293   8.543  11.612 -0.2748  0.2016  2.7338
  471MOL0     H63566   3.381   8.645  11.409 -0.3797  0.7196  0.4386
  471MOL0     H63567   3.921   8.963  11.174 -0.2394  3.5700 -2.1650
  471MOL0     H63568   3.910   9.026  10.948 -0.1091  0.4518 -0.9237
  471MOL0     H63569   4.312   9.501   9.129  0.8237  1.9633 -1.9571
  471MOL0     H63570   4.213   9.578   8.923  0.7112 -0.4540  0.7034
  471MOL0     H63571   3.976   9.960   8.668 -1.3694 -1.4553  3.1707
  471MOL0     H63572   3.840   9.997   8.475 -0.7073  0.3733  1.5651
  471MOL0     H63573   3.755   9.929   8.126 -0.2522  2.2501 -0.1595
  471MOL0     H63574   3.871   9.965   8.231 -0.4510  3.1510 -1.0280
  471MOL0     H63575   3.694  10.104   8.366 -1.2884 -1.1508  0.4595
  471MOL0     H63576   3.574  10.056   8.256 -0.9772  3.5965 -1.5054
  471MOL0     H63577   3.652  10.262   8.181  0.9152 -0.0430  0.2791
  471MOL0     H63578   3.728  10.150   8.058  2.5205  1.0105 -0.7380
  471MOL0     H63579   3.920  10.164   8.094 -1.2044  0.3337 -1.5876
  471MOL0     H63580   3.877  10.326   8.110  0.6421 -0.4849 -1.6898
  471MOL0     H63581   4.018  10.222   8.505  2.1519  0.5749 -0.7748
  471MOL0     H63582   3.758   9.590   8.436  1.2558 -0.3396 -0.6089
  471MOL0     H63583   3.808   9.435   8.585  1.1345  0.0659 -0.8957
  471MOL0     H63584   3.965   9.457   8.667 -1.1535 -0.9458 -0.2119
  471MOL0     H63585   3.829   9.495   8.756  0.5175 -1.5231  0.4218
  472MOL0     O63586   3.868   5.551   9.808  0.1262  0.6389 -0.6065
  472MOL0     C63587   3.905   5.559   9.926  0.6471  0.6530 -0.4841
  472MOL0     O63588   3.923   5.664  10.001  0.4082 -0.3913  0.1169
  472MOL0     C63589   3.869   5.780   9.958  1.0763 -0.1007 -0.2515
  472MOL0     C63590   3.949   5.888   9.932  0.4624 -0.5360  0.7989
  472MOL0     C63591   3.884   6.013   9.914 -0.2763 -0.5009 -0.0414
  472MOL0     C63592   3.739   6.018   9.924  0.8233 -0.9145  0.1125
  472MOL0     O63593   3.679   6.143   9.912 -0.3105  0.0774  0.8909
  472MOL0     C63594   3.536   6.157   9.929  0.0468  0.5708 -0.2733
  472MOL0     C63595   3.503   6.307   9.896 -1.2446 -0.3725  0.6860
  472MOL0     C63596   3.357   6.334   9.897  0.4302  0.3973 -0.5244
  472MOL0     C63597   3.324   6.481   9.878  0.2305  0.7151 -1.1693
  472MOL0     C63598   3.372   6.588   9.986 -0.4491 -0.2328 -0.0732
  472MOL0     C63599   3.291   6.568  10.113  0.0937  0.2178 -0.7615
  472MOL0     C63600   3.313   6.669  10.228  0.0590 -0.3167 -0.1126
  472MOL0     C63601   3.227   6.638  10.347  0.1080 -0.8144 -0.3760
  472MOL0     N63602   3.093   6.658  10.310 -0.9273  0.6592  0.4652
  472MOL0     C63603   3.044   6.777  10.271  0.7571  0.1961 -0.2690
  472MOL0     C63604   2.924   6.747  10.216  0.0383 -0.2951 -0.0949
  472MOL0     C63605   2.818   6.841  10.162 -0.0342 -1.4180  0.8561
  472MOL0     C63606   2.675   6.781  10.165  0.0525 -0.2915  0.8190
  472MOL0     C63607   2.582   6.878  10.089 -0.3246 -0.5178  0.6265
  472MOL0     C63608   2.441   6.892  10.132  0.0061 -0.1556  0.2724
  472MOL0     O63609   2.391   6.758  10.163  1.5197 -0.4886  0.4253
  472MOL0     C63610   2.255   6.731  10.156 -0.8278  0.7203  0.0105
  472MOL0     C63611   2.226   6.596  10.149 -0.6662  1.2110  1.4293
  472MOL0     C63612   2.090   6.560  10.161 -1.1045 -0.4017  0.3102
  472MOL0     C63613   1.985   6.654  10.174  0.8299  0.3799 -0.1866
  472MOL0     C63614   1.842   6.606  10.191  0.9289  0.7933  0.6449
  472MOL0     O63615   1.818   6.469  10.179 -0.0370 -0.9849 -0.7620
  472MOL0     C63616   1.689   6.423  10.200  0.2123 -0.0565 -0.1556
  472MOL0     C63617   1.620   6.349  10.105  0.8233 -0.2471 -0.8393
  472MOL0     C63618   1.495   6.285  10.125 -0.1578 -0.4907 -0.3604
  472MOL0     C63619   1.430   6.316  10.253 -0.5046 -0.0444 -0.2853
  472MOL0     O63620   1.318   6.244  10.296  0.0154 -0.2171 -0.0039
  472MOL0     C63621   1.321   6.107  10.251  1.5832  0.0381 -1.0743
  472MOL0     C63622   1.209   6.030  10.334 -0.3833  0.9503  0.7579
  472MOL0     C63623   1.197   5.875  10.287 -0.3788 -0.5134  0.6345
  472MOL0     C63624   1.128   5.859  10.151  0.4893 -0.0721  1.3319
  472MOL0     C63625   1.006   5.767  10.159  0.6792 -0.5917  0.2166
  472MOL0     C63626   0.883   5.826  10.232  0.4186  0.1309 -0.0817
  472MOL0     C63627   0.746   5.750  10.185 -0.1517 -0.4638  0.5606
  472MOL0     C63628   0.711   5.627  10.276 -0.2299  0.0044 -0.4989
  472MOL0    Cl63629   0.646   5.689  10.429 -0.1454 -0.1305  0.0258
  472MOL0     C63630   1.483   6.403  10.347 -0.2445  0.9138 -0.0766
  472MOL0     C63631   1.620   6.451  10.318  0.4919  0.1287 -0.7235
  472MOL0     O63632   1.756   6.696  10.218  0.2011 -0.1978 -0.1634
  472MOL0     C63633   2.019   6.791  10.179  0.9070 -1.0140 -0.6468
  472MOL0     C63634   2.158   6.823  10.169 -0.0253 -0.6392  0.4894
  472MOL0     N63635   2.913   6.609  10.224 -0.0909  0.9100 -0.0284
  472MOL0     N63636   3.007   6.555  10.288 -0.3698  0.0023  0.9590
  472MOL0     C63637   3.664   5.912   9.965  0.3167  0.5983  0.3248
  472MOL0     C63638   3.731   5.789   9.976  0.1467 -0.9191  0.4641
  472MOL0     C63639   3.955   5.431   9.976  0.2575 -0.4754 -0.3097
  472MOL0     C63640   4.060   5.365   9.904  0.5080  0.9249 -0.9318
  472MOL0     C63641   4.110   5.244   9.954 -0.4317  0.1567 -0.9720
  472MOL0     C63642   4.057   5.185  10.070 -0.1375  1.4257  0.0100
  472MOL0     O63643   4.104   5.058  10.103  0.2153 -0.3520  0.6868
  472MOL0     C63644   4.043   4.990  10.214  0.2798 -0.2549 -0.0219
  472MOL0     C63645   4.101   4.855  10.246 -0.7326 -0.3301  0.2432
  472MOL0     C63646   4.208   4.872  10.357 -0.2611  0.6687 -0.3820
  472MOL0     C63647   4.308   4.748  10.364  0.4915 -0.1225  0.7914
  472MOL0     C63648   4.231   4.637  10.425 -0.1608  0.4115 -0.3304
  472MOL0     C63649   4.193   4.541  10.486 -0.1779 -0.4829 -0.4932
  472MOL0     C63650   3.955   5.256  10.141 -0.6121 -0.0940 -0.7772
  472MOL0     C63651   3.907   5.379  10.099  0.3903 -0.0105  0.6686
  472MOL0     C63652   3.785   5.439  10.177 -0.2632 -0.2306  0.0269
  472MOL0     H63653   4.056   5.887   9.914  0.3549  0.8635 -0.0490
  472MOL0     H63654   3.941   6.097   9.875  2.9097 -1.9043  1.1997
  472MOL0     H63655   3.478   6.090   9.865  1.0541  0.0653 -0.6756
  472MOL0     H63656   3.509   6.119  10.028  2.9017 -0.9944  0.0186
  472MOL0     H63657   3.537   6.335   9.796 -0.6281 -1.0008  0.7153
  472MOL0     H63658   3.552   6.368   9.973  0.3342 -0.2744 -0.3355
  472MOL0     H63659   3.310   6.302   9.990  0.9117  2.3113  0.4226
  472MOL0     H63660   3.309   6.275   9.818 -1.3227 -0.8965  1.4037
  472MOL0     H63661   3.367   6.510   9.782  0.8865  1.4067 -0.6802
  472MOL0     H63662   3.215   6.491   9.877  0.2194  1.5592  1.2958
  472MOL0     H63663   3.481   6.582   9.996 -0.2965  2.0873  0.3174
  472MOL0     H63664   3.346   6.687   9.947 -0.8457 -1.9335 -4.8544
  472MOL0     H63665   3.184   6.579  10.091 -0.7507  2.7035  3.3600
  472MOL0     H63666   3.304   6.465  10.149 -0.9432  0.2652 -0.2165
  472MOL0     H63667   3.285   6.769  10.194  1.4269  0.1675  0.1329
  472MOL0     H63668   3.419   6.680  10.252  0.1677  0.3006 -0.8523
  472MOL0     H63669   3.233   6.534  10.380  2.8238 -0.0929  1.8039
  472MOL0     H63670   3.260   6.698  10.432 -1.4549 -0.2883 -0.1149
  472MOL0     H63671   3.079   6.880  10.276  0.1605  0.4052 -0.4282
  472MOL0     H63672   2.831   6.933  10.220  0.0881 -0.4706 -0.6204
  472MOL0     H63673   2.840   6.852  10.055 -0.1163 -1.2729  0.8541
  472MOL0     H63674   2.677   6.685  10.114  1.0886  0.6178 -0.9466
  472MOL0     H63675   2.643   6.779  10.270  0.9874  1.5608  1.1879
  472MOL0     H63676   2.587   6.856   9.982  0.9370  0.5917  0.4253
  472MOL0     H63677   2.631   6.976  10.093  0.8111 -1.0178 -0.3475
  472MOL0     H63678   2.396   6.932  10.041 -0.6781  0.8334  1.0251
  472MOL0     H63679   2.419   6.970  10.206 -0.4108  0.6177 -0.6418
  472MOL0     H63680   2.301   6.518  10.141 -0.4305  1.5098  0.6201
  472MOL0     H63681   2.064   6.456  10.145 -0.8496 -0.3111 -0.8598
  472MOL0     H63682   1.679   6.347  10.014  1.6776 -0.1027 -0.3009
  472MOL0     H63683   1.446   6.232  10.044  2.6469  0.0974 -2.5932
  472MOL0     H63684   1.302   6.102  10.144 -0.5820 -0.0098 -0.7309
  472MOL0     H63685   1.413   6.052  10.274  2.2780  0.8969 -1.7297
  472MOL0     H63686   1.215   6.035  10.444 -1.4924  0.3042  0.8594
  472MOL0     H63687   1.122   6.091  10.307 -1.3819 -0.3431  0.9320
  472MOL0     H63688   1.295   5.826  10.289  0.0453  0.1938 -0.8156
  472MOL0     H63689   1.139   5.834  10.370 -1.5912 -1.9378 -0.8546
  472MOL0     H63690   1.202   5.820  10.081  2.3340 -0.8951  3.5996
  472MOL0     H63691   1.105   5.960  10.115  2.3171  0.8452  2.5806
  472MOL0     H63692   1.037   5.670  10.200  1.2207 -0.9751 -1.0763
  472MOL0     H63693   0.982   5.759  10.053  0.0487 -1.0717  0.3838
  472MOL0     H63694   0.897   5.827  10.341 -1.2416  0.5198  0.1429
  472MOL0     H63695   0.861   5.928  10.202 -0.5174  0.5956  2.0033
  472MOL0     H63696   0.763   5.713  10.084 -0.4161  1.9369 -0.4156
  472MOL0     H63697   0.667   5.825  10.196 -1.6601 -1.9929  0.6509
  472MOL0     H63698   0.628   5.569  10.236  0.4552 -1.6213  0.3168
  472MOL0     H63699   0.803   5.568  10.282  2.0933  2.8204 -4.2770
  472MOL0     H63700   1.431   6.409  10.442 -1.3538 -5.6781  0.1982
  472MOL0     H63701   1.671   6.511  10.393  0.0549 -2.0637  1.4603
  472MOL0     H63702   1.943   6.867  10.176  2.0471  0.1565 -1.0920
  472MOL0     H63703   2.179   6.929  10.173  2.0538 -1.0147  3.3588
  472MOL0     H63704   3.563   5.912  10.003  1.2610  1.4950  3.0041
  472MOL0     H63705   3.667   5.706  10.005  1.0613 -1.3738  1.2169
  472MOL0     H63706   4.088   5.404   9.807  3.7855 -1.2899 -1.0417
  472MOL0     H63707   4.184   5.196   9.892  3.0183  2.1473  1.2820
  472MOL0     H63708   3.937   4.986  10.185  0.5057 -2.2659 -0.7423
  472MOL0     H63709   4.049   5.046  10.307  0.9657 -0.6921  0.2028
  472MOL0     H63710   4.130   4.792  10.161  2.0075 -0.9142  1.5105
  472MOL0     H63711   4.008   4.820  10.293 -0.6406  1.7884  2.1854
  472MOL0     H63712   4.163   4.884  10.456  1.2333  1.0778  0.2654
  472MOL0     H63713   4.262   4.966  10.344 -2.1647  1.9847  0.6438
  472MOL0     H63714   4.354   4.722  10.268  1.3941  0.3899  1.0716
  472MOL0     H63715   4.398   4.761  10.425  0.9813 -0.5913  0.1813
  472MOL0     H63716   4.153   4.463  10.547 -1.6782 -0.3644 -1.2760
  472MOL0     H63717   3.909   5.226  10.234  0.1659  0.5366 -0.1730
  472MOL0     H63718   3.783   5.383  10.271 -3.9394 -1.1233 -0.4247
  472MOL0     H63719   3.794   5.546  10.196 -3.3361 -0.1364  1.6300
  472MOL0     H63720   3.689   5.419  10.128 -0.7567 -2.7502  1.8310
  473MOL0     O63721   9.017   5.379   5.875  0.1660  0.1195 -0.3708
  473MOL0     C63722   9.043   5.392   5.759 -0.7344  1.0977  0.3366
  473MOL0     O63723   9.166   5.414   5.715 -0.5263  0.5598 -0.2615
  473MOL0     C63724   9.277   5.435   5.799 -0.0338  0.3689 -0.0080
  473MOL0     C63725   9.388   5.512   5.754  0.5617  0.1833 -0.5134
  473MOL0     C63726   9.488   5.556   5.837 -0.3194  0.3595 -0.1594
  473MOL0     C63727   9.497   5.512   5.967 -0.1514  0.0940 -0.2139
  473MOL0     O63728   9.605   5.551   6.044  0.0020 -0.6302 -0.2027
  473MOL0     C63729   9.649   5.486   6.160 -0.7960 -0.2420  0.1330
  473MOL0     C63730   9.699   5.345   6.124 -0.5509 -1.1241 -0.8451
  473MOL0     C63731   9.796   5.287   6.231 -0.5813 -0.7360 -0.3579
  473MOL0     C63732   9.844   5.153   6.199 -0.2268 -0.9351  0.4046
  473MOL0     C63733   9.743   5.035   6.168 -0.0641 -0.1269  0.0004
  473MOL0     C63734   9.675   4.984   6.291 -0.6212  0.3128 -0.0511
  473MOL0     C63735   9.535   5.043   6.310 -0.6903  0.6119 -0.7983
  473MOL0     C63736   9.439   4.973   6.417 -0.5321  0.3321 -0.1167
  473MOL0     N63737   9.460   4.995   6.562  0.3985 -0.0926 -0.1888
  473MOL0     C63738   9.365   5.053   6.645 -0.2350  1.0999 -0.7213
  473MOL0     C63739   9.426   5.088   6.761 -0.7446  0.3903 -0.3503
  473MOL0     C63740   9.389   5.153   6.893 -0.5120  0.8837 -0.5818
  473MOL0     C63741   9.244   5.159   6.906  0.2530 -0.7130  0.9250
  473MOL0     C63742   9.205   5.261   7.018  0.2611 -0.0886  0.3106
  473MOL0     C63743   9.222   5.208   7.156 -0.0487  0.6232 -1.1162
  473MOL0     O63744   9.199   5.304   7.269 -0.2023  0.1106 -0.1497
  473MOL0     C63745   9.302   5.324   7.353  0.9197 -0.0155 -0.1791
  473MOL0     C63746   9.255   5.389   7.467  0.1157 -0.2319  0.0487
  473MOL0     C63747   9.339   5.438   7.567 -0.7727  0.5398 -0.0517
  473MOL0     C63748   9.477   5.433   7.549 -0.4171 -0.2621  0.0312
  473MOL0     C63749   9.583   5.486   7.651  0.1864  0.4589  0.0038
  473MOL0     O63750   9.530   5.553   7.753 -0.3589  0.6086  0.5231
  473MOL0     C63751   9.617   5.610   7.842 -0.2892 -0.3789 -0.1123
  473MOL0     C63752   9.673   5.543   7.940 -0.1614  0.9274  0.0649
  473MOL0     C63753   9.748   5.600   8.043 -0.5193  0.5811  0.3541
  473MOL0     C63754   9.765   5.738   8.040 -0.0729 -0.2596  0.5582
  473MOL0     O63755   9.849   5.794   8.140  0.3369  0.6566  0.5792
  473MOL0     C63756   9.941   5.894   8.100  0.0411 -0.2028 -1.1093
  473MOL0     C63757  10.079   5.844   8.129  0.5294 -0.4113 -0.0166
  473MOL0     C63758  10.109   5.705   8.080  0.7628  0.0008  0.3750
  473MOL0     C63759  10.081   5.677   7.939 -0.3126 -0.5814  0.3351
  473MOL0     C63760  10.140   5.775   7.835  0.0229 -0.1744 -0.4271
  473MOL0     C63761  10.133   5.738   7.686  0.3800  0.4147  0.8950
  473MOL0     C63762   9.998   5.721   7.624  0.3131 -0.5072  0.3338
  473MOL0     C63763  10.011   5.627   7.502  0.4071 -0.2722 -0.0169
  473MOL0    Cl63764  10.133   5.703   7.392 -0.4396 -0.0332 -0.1362
  473MOL0     C63765   9.698   5.816   7.946 -0.2362  0.3985 -0.3196
  473MOL0     C63766   9.625   5.753   7.849  0.8491  0.2010 -0.3046
  473MOL0     O63767   9.699   5.476   7.626  0.1776  0.6544  0.6426
  473MOL0     C63768   9.522   5.382   7.428 -0.2415  0.6801 -0.5884
  473MOL0     C63769   9.434   5.342   7.321 -0.4010  0.2606 -0.7871
  473MOL0     N63770   9.559   5.039   6.755 -0.4634 -0.2607 -0.4391
  473MOL0     N63771   9.572   4.998   6.638 -0.8606 -0.4862  0.8330
  473MOL0     C63772   9.402   5.424   6.009 -0.4327 -0.0094  0.3171
  473MOL0     C63773   9.289   5.390   5.930  0.2878 -0.5426  1.0394
  473MOL0     C63774   8.935   5.400   5.660 -0.5576 -0.7383 -0.1121
  473MOL0     C63775   8.958   5.487   5.546 -0.0018 -0.2813 -0.9910
  473MOL0     C63776   8.878   5.486   5.433  0.5299 -0.4073  0.3536
  473MOL0     C63777   8.761   5.419   5.442 -0.4864  0.0142 -0.4020
  473MOL0     O63778   8.662   5.432   5.349 -0.1620 -0.4366  0.1235
  473MOL0     C63779   8.562   5.329   5.337 -0.2532 -0.1838  0.2453
  473MOL0     C63780   8.469   5.355   5.208 -0.4742  0.4253 -0.2785
  473MOL0     C63781   8.525   5.330   5.073  0.2629  0.0924  0.3320
  473MOL0     C63782   8.424   5.310   4.960 -0.7172  0.2859  0.5896
  473MOL0     C63783   8.474   5.215   4.848 -0.7477 -0.1131 -0.0287
  473MOL0     C63784   8.513   5.135   4.763 -0.3389  0.5449 -1.0149
  473MOL0     C63785   8.742   5.328   5.543  0.4425  0.2549 -0.6674
  473MOL0     C63786   8.823   5.321   5.657  0.4496 -0.9924 -0.2487
  473MOL0     C63787   8.805   5.215   5.768  0.3893 -1.1496  0.3002
  473MOL0     H63788   9.393   5.558   5.656  1.6045  0.1363 -0.4964
  473MOL0     H63789   9.566   5.625   5.805 -0.7095  0.8158 -0.1369
  473MOL0     H63790   9.731   5.545   6.201 -1.6753  1.2889 -0.2171
  473MOL0     H63791   9.573   5.478   6.239 -1.5633 -1.2791 -0.6845
  473MOL0     H63792   9.758   5.347   6.033  2.5236  0.2262  1.0329
  473MOL0     H63793   9.614   5.277   6.115 -1.5440  0.2246 -2.2594
  473MOL0     H63794   9.754   5.289   6.331 -0.3179 -2.0174 -0.1983
  473MOL0     H63795   9.882   5.353   6.243 -0.3640 -1.5441  4.9068
  473MOL0     H63796   9.911   5.165   6.113  0.0597 -1.2313  0.5844
  473MOL0     H63797   9.903   5.109   6.280  1.8658  0.7347 -0.1402
  473MOL0     H63798   9.670   5.049   6.087  0.0960 -1.7550 -0.4786
  473MOL0     H63799   9.803   4.949   6.134 -0.8569 -0.3854 -0.8040
  473MOL0     H63800   9.664   4.877   6.276 -0.7706  0.6098 -2.6240
  473MOL0     H63801   9.736   5.005   6.380 -2.9057  2.1354  1.1937
  473MOL0     H63802   9.484   5.025   6.215 -3.3886 -1.0085  0.8540
  473MOL0     H63803   9.566   5.146   6.330  4.9183 -0.4823 -1.9423
  473MOL0     H63804   9.343   5.022   6.398 -2.4250 -2.4948  1.4859
  473MOL0     H63805   9.434   4.865   6.402  1.6209  0.1867 -0.1080
  473MOL0     H63806   9.260   5.065   6.621 -0.4680  3.2361  1.1535
  473MOL0     H63807   9.427   5.085   6.970  1.0073  3.0270  0.6673
  473MOL0     H63808   9.436   5.250   6.912  2.8376 -1.2968  3.9598
  473MOL0     H63809   9.202   5.199   6.813 -0.8736 -0.2603  1.6157
  473MOL0     H63810   9.205   5.058   6.923  2.4337 -1.5438  1.3407
  473MOL0     H63811   9.099   5.284   7.004  0.2886  3.4874  4.2020
  473MOL0     H63812   9.247   5.361   7.010 -2.9518  1.4007  0.4238
  473MOL0     H63813   9.321   5.163   7.167  0.0136  1.2457  1.7849
  473MOL0     H63814   9.144   5.134   7.173 -0.5254  1.1215 -1.0975
  473MOL0     H63815   9.151   5.388   7.499 -0.3406 -0.6451 -1.3711
  473MOL0     H63816   9.302   5.479   7.660  0.2393  0.3317  0.4680
  473MOL0     H63817   9.656   5.436   7.952  1.0796  0.8640  1.6296
  473MOL0     H63818   9.793   5.554   8.130 -3.5015 -1.4235  0.9766
  473MOL0     H63819   9.939   5.920   7.994  0.7770 -2.5363 -1.7515
  473MOL0     H63820   9.916   5.979   8.165  0.2117  0.0175 -1.3300
  473MOL0     H63821  10.146   5.912   8.077 -0.9268  3.0308  2.2424
  473MOL0     H63822  10.097   5.866   8.235  3.3648 -0.8448 -0.3345
  473MOL0     H63823  10.218   5.702   8.090  0.8086  2.3868  1.1006
  473MOL0     H63824  10.064   5.628   8.143 -0.8417  0.4214 -0.2215
  473MOL0     H63825   9.975   5.675   7.914  0.2026 -0.9542 -2.1283
  473MOL0     H63826  10.122   5.579   7.913  0.3682 -0.5758  1.3300
  473MOL0     H63827  10.247   5.780   7.857  0.0419 -0.3730 -0.4595
  473MOL0     H63828  10.096   5.874   7.847  1.6172  0.7755 -2.0371
  473MOL0     H63829  10.167   5.831   7.638 -0.6457  0.4327  0.1766
  473MOL0     H63830  10.192   5.649   7.660  0.8245  0.5966  1.2589
  473MOL0     H63831   9.964   5.816   7.581 -5.0483 -0.8369  2.9890
  473MOL0     H63832   9.916   5.689   7.690  0.3694 -0.0388  0.6408
  473MOL0     H63833  10.030   5.523   7.526  0.4596 -0.9024 -2.5242
  473MOL0     H63834   9.915   5.631   7.449 -0.4467 -0.1348  1.4642
  473MOL0     H63835   9.702   5.924   7.960 -1.0160  0.2725  1.0072
  473MOL0     H63836   9.579   5.813   7.770  3.2772  0.8888 -1.2727
  473MOL0     H63837   9.626   5.381   7.397  0.1215  4.3165  0.0390
  473MOL0     H63838   9.464   5.329   7.218 -0.3207 -1.4465 -0.5771
  473MOL0     H63839   9.401   5.384   6.110 -1.7947  0.6539  0.5979
  473MOL0     H63840   9.217   5.317   5.965 -0.4979  0.4379  1.5427
  473MOL0     H63841   9.050   5.545   5.541 -0.7459  1.3169  1.7132
  473MOL0     H63842   8.898   5.532   5.337  2.3509  1.3369  1.4730
  473MOL0     H63843   8.507   5.327   5.431  0.7393 -0.3005  0.8364
  473MOL0     H63844   8.620   5.237   5.326  2.1190  1.3245 -0.7975
  473MOL0     H63845   8.450   5.463   5.208 -2.2177  0.1703  1.6096
  473MOL0     H63846   8.376   5.297   5.208 -0.0651 -0.2385  0.0228
  473MOL0     H63847   8.573   5.232   5.083 -1.6779 -0.8232  1.2876
  473MOL0     H63848   8.599   5.408   5.052 -0.8395  0.7309 -1.3844
  473MOL0     H63849   8.338   5.261   5.005 -0.2888 -0.0739  1.0390
  473MOL0     H63850   8.402   5.410   4.921  0.9344  0.5698  0.2924
  473MOL0     H63851   8.534   5.059   4.690  2.5304 -1.4126  1.5923
  473MOL0     H63852   8.663   5.255   5.537  0.5308  0.2643 -2.5792
  473MOL0     H63853   8.712   5.158   5.762 -1.1253  1.1350  0.9734
  473MOL0     H63854   8.885   5.141   5.765 -0.1320 -1.6911 -1.0833
  473MOL0     H63855   8.799   5.264   5.866 -3.6516  0.9623 -0.7895
  474MOL0     O63856   6.577  10.405   9.870  0.0904 -0.1452 -0.3803
  474MOL0     C63857   6.680  10.456   9.915  0.1239 -0.5452  0.3360
  474MOL0     O63858   6.690  10.585   9.944  0.1795 -0.5207 -0.0575
  474MOL0     C63859   6.583  10.671   9.974  0.2094 -0.1744 -0.5600
  474MOL0     C63860   6.618  10.808   9.968 -0.3774 -0.6076  0.5619
  474MOL0     C63861   6.537  10.908  10.022 -0.8169  0.4529  0.3762
  474MOL0     C63862   6.415  10.877  10.074 -0.4720  0.1388 -0.1983
  474MOL0     O63863   6.328  10.976  10.126 -0.1881 -0.2862  0.4242
  474MOL0     C63864   6.198  10.939  10.168  0.0077  0.1128  0.5639
  474MOL0     C63865   6.125  11.065  10.220 -0.0153 -1.2100 -0.8578
  474MOL0     C63866   6.056  11.152  10.112 -0.9455 -1.2627  0.1413
  474MOL0     C63867   6.156  11.224  10.018 -0.5292 -0.3957  0.8842
  474MOL0     C63868   6.085  11.314   9.908 -0.1026 -0.8223 -0.9571
  474MOL0     C63869   6.158  11.439   9.855 -0.4149 -0.0359  0.2574
  474MOL0     C63870   6.271  11.499   9.940  0.1336 -0.5857 -1.1868
  474MOL0     C63871   6.330  11.623   9.880 -0.0194 -0.0539  0.6509
  474MOL0     N63872   6.447  11.678   9.947 -0.3854 -0.2944 -0.1457
  474MOL0     C63873   6.453  11.792  10.020 -0.2310 -0.2978  0.2536
  474MOL0     C63874   6.578  11.821  10.032 -0.2768 -0.6448  0.6454
  474MOL0     C63875   6.618  11.955  10.104 -0.0221 -0.5841  0.1530
  474MOL0     C63876   6.714  12.037  10.003 -0.0839 -0.2619 -0.7881
  474MOL0     C63877   6.772  12.158  10.085 -0.1510  0.1726  0.1346
  474MOL0     C63878   6.848  12.252  10.002 -0.0717  0.6273  0.3343
  474MOL0     O63879   6.947  12.178   9.925 -0.4235  0.8385  0.1244
  474MOL0     C63880   7.040  12.239   9.846  0.6455 -0.3351 -0.0338
  474MOL0     C63881   7.043  12.375   9.833  0.6146  0.2426  0.5134
  474MOL0     C63882   7.147  12.435   9.754  0.2039 -0.3246 -0.9748
  474MOL0     C63883   7.228  12.365   9.666 -0.0284  1.1088 -0.2696
  474MOL0     C63884   7.314  12.423   9.575 -0.1661 -1.0372  0.1919
  474MOL0     O63885   7.291  12.563   9.560  0.3693 -0.5468 -0.8185
  474MOL0     C63886   7.373  12.633   9.477 -0.3031  0.2768  0.1338
  474MOL0     C63887   7.512  12.618   9.480 -0.3427 -0.7868 -0.5844
  474MOL0     C63888   7.585  12.665   9.370 -0.0464 -0.1460 -0.6183
  474MOL0     C63889   7.522  12.740   9.270 -0.4896  0.3481  0.1695
  474MOL0     O63890   7.611  12.773   9.169  0.3564 -0.3689  0.7307
  474MOL0     C63891   7.574  12.710   9.051 -0.5632 -0.4099 -0.0869
  474MOL0     C63892   7.695  12.759   8.960 -0.1108 -0.1006 -0.7067
  474MOL0     C63893   7.677  12.908   8.925 -0.0641  0.6464  0.0433
  474MOL0     C63894   7.799  12.982   8.866 -0.5457 -1.0848  0.7043
  474MOL0     C63895   7.776  13.132   8.822  0.9322 -1.1098 -0.4132
  474MOL0     C63896   7.670  13.158   8.705  0.2869 -0.1558 -0.6415
  474MOL0     C63897   7.621  13.305   8.723  0.4178  1.1537 -0.0927
  474MOL0     C63898   7.593  13.359   8.584  0.4667  0.0483 -0.5800
  474MOL0    Cl63899   7.448  13.269   8.518 -0.2452  0.1800  0.2966
  474MOL0     C63900   7.387  12.759   9.267  0.7616  0.5096 -1.3015
  474MOL0     C63901   7.314  12.699   9.371 -0.2140 -0.3083 -0.1596
  474MOL0     O63902   7.414  12.363   9.537  0.3523  0.2579  0.1073
  474MOL0     C63903   7.218  12.224   9.676 -0.8132  0.1923  0.0954
  474MOL0     C63904   7.122  12.163   9.766  0.3741  0.6849  0.1541
  474MOL0     N63905   6.655  11.724   9.976 -0.5222  0.7103 -0.5521
  474MOL0     N63906   6.576  11.642   9.922  0.4877 -0.0543  0.0258
  474MOL0     C63907   6.370  10.741  10.068  0.4303 -0.1786  0.6907
  474MOL0     C63908   6.454  10.639  10.016  0.5538  0.9848 -0.5385
  474MOL0     C63909   6.804  10.373   9.934  0.2864 -0.0727 -0.5496
  474MOL0     C63910   6.920  10.443   9.974 -0.4091 -0.7652 -0.5219
  474MOL0     C63911   7.042  10.372   9.981 -0.2393 -0.5444  0.3643
  474MOL0     C63912   7.045  10.230   9.975 -0.9245 -0.0963 -0.1406
  474MOL0     O63913   7.158  10.158   9.986 -0.1412 -0.5844  0.1924
  474MOL0     C63914   7.201  10.138  10.122 -1.4203  0.4300  0.2281
  474MOL0     C63915   7.264  10.261  10.193 -0.4055 -0.3948 -0.1383
  474MOL0     C63916   7.378  10.333  10.134 -1.1730  0.6206  0.7775
  474MOL0     C63917   7.433  10.446  10.230 -0.1763 -0.0411  0.5594
  474MOL0     C63918   7.483  10.544  10.138  0.0192 -0.2779 -0.2466
  474MOL0     C63919   7.537  10.614  10.050 -1.0005 -0.1388 -0.1601
  474MOL0     C63920   6.926  10.166   9.947  0.2348 -0.2275 -0.0113
  474MOL0     C63921   6.804  10.229   9.924  0.3686  0.4566  0.8936
  474MOL0     C63922   6.684  10.135   9.881 -0.3234  0.5065 -0.9148
  474MOL0     H63923   6.715  10.841   9.932 -0.2219  0.5603  1.9590
  474MOL0     H63924   6.571  11.012  10.020  1.7518 -0.3101 -1.0322
  474MOL0     H63925   6.148  10.877  10.093 -2.3352  0.2906  1.9058
  474MOL0     H63926   6.221  10.871  10.250  2.6803 -2.2946 -1.9226
  474MOL0     H63927   6.200  11.122  10.276 -2.9541  1.6050  0.5118
  474MOL0     H63928   6.053  11.038  10.298 -2.9937  2.2046 -2.1313
  474MOL0     H63929   5.998  11.236  10.152 -0.1900  1.8387 -4.4640
  474MOL0     H63930   5.984  11.086  10.062 -1.5901 -1.1261  0.8615
  474MOL0     H63931   6.204  11.300  10.080 -0.3768  1.2704 -1.1602
  474MOL0     H63932   6.235  11.161   9.977  1.0867  1.3754  1.1617
  474MOL0     H63933   6.046  11.254   9.825 -1.1290 -0.4677 -0.7428
  474MOL0     H63934   6.001  11.359   9.961 -0.6753 -0.6446 -1.9901
  474MOL0     H63935   6.209  11.414   9.762 -2.3437  2.7501 -1.7181
  474MOL0     H63936   6.085  11.515   9.824 -1.2247 -1.4252 -1.4264
  474MOL0     H63937   6.341  11.416   9.949  0.6440 -0.2342 -1.8272
  474MOL0     H63938   6.229  11.528  10.037  1.4935 -2.1646 -0.0857
  474MOL0     H63939   6.364  11.595   9.780 -0.9355 -0.7277  0.5156
  474MOL0     H63940   6.253  11.701   9.875  0.9753  1.0191  1.6937
  474MOL0     H63941   6.369  11.858  10.037  0.7534  1.9034 -2.5427
  474MOL0     H63942   6.537  12.027  10.112  1.6179  1.4831 -0.7829
  474MOL0     H63943   6.656  11.925  10.202  1.4951 -1.9977 -0.7930
  474MOL0     H63944   6.796  11.970   9.973  0.9369  0.9958 -0.8946
  474MOL0     H63945   6.656  12.066   9.915 -1.7554 -2.4026 -0.4746
  474MOL0     H63946   6.836  12.117  10.164 -1.3157 -0.1857  0.9114
  474MOL0     H63947   6.693  12.227  10.116 -1.5059 -0.3023 -2.0473
  474MOL0     H63948   6.896  12.329  10.063 -4.3954  2.4031  1.8794
  474MOL0     H63949   6.777  12.292   9.929 -2.2981  0.9429  2.5439
  474MOL0     H63950   6.988  12.443   9.898 -0.7247 -1.7076  1.5145
  474MOL0     H63951   7.150  12.544   9.752  2.0427 -0.3234  0.1710
  474MOL0     H63952   7.566  12.562   9.555  0.0990  0.0984 -0.2229
  474MOL0     H63953   7.692  12.650   9.356 -0.5024 -0.7246 -4.8362
  474MOL0     H63954   7.580  12.601   9.059  2.0166 -0.5482 -2.3745
  474MOL0     H63955   7.474  12.745   9.022 -1.1496 -1.5130  0.5010
  474MOL0     H63956   7.788  12.746   9.016  1.0655 -0.5991 -2.6565
  474MOL0     H63957   7.703  12.699   8.868  1.5334  0.0047 -0.6644
  474MOL0     H63958   7.592  12.928   8.859 -2.3365  0.7216  2.8010
  474MOL0     H63959   7.675  12.967   9.017  0.3053  1.0639 -0.2160
  474MOL0     H63960   7.833  12.934   8.774  1.6524  0.9676  0.3406
  474MOL0     H63961   7.878  12.977   8.941  1.5328  1.3419 -1.1182
  474MOL0     H63962   7.870  13.177   8.787  0.6020  0.5152  0.6747
  474MOL0     H63963   7.752  13.207   8.898  6.3170  2.0565 -1.2169
  474MOL0     H63964   7.719  13.149   8.607 -0.0369  1.8685 -1.0336
  474MOL0     H63965   7.587  13.087   8.705  3.0113 -3.5828 -0.5931
  474MOL0     H63966   7.677  13.382   8.778 -0.5936  0.1078  2.5860
  474MOL0     H63967   7.529  13.297   8.781  2.0353 -2.1523  2.3242
  474MOL0     H63968   7.566  13.465   8.579  2.1624  0.4550 -3.7199
  474MOL0     H63969   7.680  13.346   8.519  0.3269 -1.3104 -0.5260
  474MOL0     H63970   7.344  12.806   9.179  0.0048 -1.3192 -1.9533
  474MOL0     H63971   7.206  12.696   9.360 -0.5251 -1.3630  2.4397
  474MOL0     H63972   7.271  12.153   9.613  1.8315  2.9955 -1.1008
  474MOL0     H63973   7.111  12.055   9.779 -0.6255  0.8711  0.9513
  474MOL0     H63974   6.280  10.706  10.117 -0.9734  1.5699 -0.5143
  474MOL0     H63975   6.416  10.538  10.012 -2.7697  1.9126  2.4225
  474MOL0     H63976   6.917  10.551   9.983 -1.1098 -0.7530 -0.8532
  474MOL0     H63977   7.131  10.429  10.005 -2.2265  1.7501  2.9618
  474MOL0     H63978   7.275  10.059  10.129 -0.5731  1.0879 -0.9670
  474MOL0     H63979   7.111  10.099  10.172 -0.6186  0.6501  1.9229
  474MOL0     H63980   7.293  10.239  10.296  1.0359 -0.1858 -0.4892
  474MOL0     H63981   7.177  10.326  10.205  1.5085  2.2161  0.3481
  474MOL0     H63982   7.345  10.367  10.036 -1.8278 -0.5601  0.5637
  474MOL0     H63983   7.456  10.259  10.111  0.5756  1.9889  1.9672
  474MOL0     H63984   7.343  10.480  10.282 -3.3655 -3.0984 -2.3739
  474MOL0     H63985   7.501  10.406  10.305 -0.8583  0.1156  1.2761
  474MOL0     H63986   7.595  10.654   9.970  2.1326 -2.7649  0.6110
  474MOL0     H63987   6.926  10.059   9.927 -1.3760 -0.0994 -0.8574
  474MOL0     H63988   6.595  10.173   9.933  0.6920  1.9197 -0.1523
  474MOL0     H63989   6.676  10.117   9.773  0.7770 -0.4424 -0.8591
  474MOL0     H63990   6.695  10.037   9.928  0.7615  1.1313  0.1897
  475MOL0     O63991   7.038   2.132   0.360  0.1343  0.4175 -0.2583
  475MOL0     C63992   6.941   2.054   0.392 -0.3965  0.7195  0.1592
  475MOL0     O63993   6.948   1.919   0.397  0.0993 -0.9625  0.2018
  475MOL0     C63994   7.066   1.846   0.392  0.1227 -0.6710  0.2280
  475MOL0     C63995   7.200   1.874   0.377 -0.6823  0.6022  0.1577
  475MOL0     C63996   7.297   1.768   0.384 -0.5103 -0.4372  0.5084
  475MOL0     C63997   7.263   1.637   0.397 -0.4819 -0.0986 -0.2024
  475MOL0     O63998   7.368   1.552   0.405 -0.1340  0.0417 -0.4691
  475MOL0     C63999   7.352   1.412   0.391  0.2192  0.5452  0.2949
  475MOL0     C64000   7.485   1.336   0.392  0.1905  0.8220 -0.1355
  475MOL0     C64001   7.593   1.423   0.311 -0.5995  0.5842 -0.0974
  475MOL0     C64002   7.730   1.367   0.326 -0.7529 -0.2182  0.0769
  475MOL0     C64003   7.817   1.425   0.220  1.1213  0.0108 -0.7949
  475MOL0     C64004   7.960   1.373   0.230 -0.1075 -0.2580 -0.4295
  475MOL0     C64005   8.045   1.396   0.106  0.2853 -0.3093 -0.6309
  475MOL0     C64006   8.195   1.415   0.135  0.5963 -0.2830 -0.4269
  475MOL0     N64007   8.272   1.305   0.195 -0.3869  0.4729  0.0499
  475MOL0     C64008   8.352   1.203   0.146 -0.3594 -0.5586 -0.6293
  475MOL0     C64009   8.381   1.120   0.256  0.2010 -0.3812  0.1165
  475MOL0     C64010   8.495   1.023   0.236  0.3634  1.1240  0.1220
  475MOL0     C64011   8.628   1.059   0.310  0.4636 -0.2702  0.1273
  475MOL0     C64012   8.694   0.942   0.367 -0.2589  0.7069  0.1712
  475MOL0     C64013   8.786   0.857   0.276 -0.7677 -0.4689  0.3344
  475MOL0     O64014   8.715   0.751   0.216  0.7668 -0.3013  0.1947
  475MOL0     C64015   8.754   0.710   0.088 -0.2142  0.1330  0.6822
  475MOL0     C64016   8.649   0.669  -0.002 -0.0517 -0.2177 -0.1720
  475MOL0     C64017   8.681   0.662  -0.134  0.6402  0.7968  0.1661
  475MOL0     C64018   8.810   0.663  -0.182 -0.2383  1.1974  0.2074
  475MOL0     C64019   8.832   0.621  -0.325  0.1296 -0.1799  0.4547
  475MOL0     O64020   8.960   0.600  -0.360 -0.8407  0.0314  0.1293
  475MOL0     C64021   8.983   0.547  -0.483  0.5542  0.8222 -0.0058
  475MOL0     C64022   8.937   0.422  -0.523  0.0398  0.1786 -0.0743
  475MOL0     C64023   8.949   0.384  -0.661  0.1054  0.4927 -0.3687
  475MOL0     C64024   9.027   0.461  -0.746  0.4369  0.0014  0.8296
  475MOL0     O64025   9.051   0.412  -0.871 -0.0814 -0.4468 -0.2922
  475MOL0     C64026   9.166   0.322  -0.868 -1.0317  0.0536 -0.7149
  475MOL0     C64027   9.304   0.391  -0.851 -0.4825 -0.1753  0.7158
  475MOL0     C64028   9.398   0.271  -0.843  0.0817 -0.3234 -0.6399
  475MOL0     C64029   9.535   0.339  -0.821  0.0808  0.3869 -0.1247
  475MOL0     C64030   9.633   0.233  -0.789 -0.7197  0.1180 -0.5075
  475MOL0     C64031   9.751   0.293  -0.714  0.3165  0.8524 -0.3549
  475MOL0     C64032   9.875   0.195  -0.698  0.5570 -0.1078  0.8560
  475MOL0     C64033  10.005   0.280  -0.677 -0.1565 -0.1352 -0.0978
  475MOL0    Cl64034  10.050   0.389  -0.817 -0.0943  0.0889  0.3405
  475MOL0     C64035   9.074   0.588  -0.702 -0.3946  0.1233 -0.0342
  475MOL0     C64036   9.053   0.632  -0.571 -0.4228 -0.8503  0.0082
  475MOL0     O64037   8.736   0.594  -0.399  0.0844  0.3694 -0.5193
  475MOL0     C64038   8.915   0.679  -0.089  0.9713 -0.5186 -0.5960
  475MOL0     C64039   8.895   0.711   0.044  0.5467 -0.7052  0.2634
  475MOL0     N64040   8.319   1.174   0.368 -0.4250  0.1948 -0.6478
  475MOL0     N64041   8.262   1.279   0.331 -0.4573 -0.6791  0.3157
  475MOL0     C64042   7.129   1.604   0.407 -0.5598  0.1701 -0.2894
  475MOL0     C64043   7.038   1.713   0.408 -0.7911  0.7058  0.5855
  475MOL0     C64044   6.814   2.114   0.424  0.1452  0.7703 -0.1488
  475MOL0     C64045   6.710   2.036   0.482  0.3192 -0.2519  0.2568
  475MOL0     C64046   6.579   2.077   0.482 -0.1458  0.0792 -0.7862
  475MOL0     C64047   6.557   2.207   0.457 -0.8615 -0.6391  0.3787
  475MOL0     O64048   6.433   2.268   0.456  0.0243  0.0335 -0.4040
  475MOL0     C64049   6.309   2.201   0.500 -0.0455 -0.4227 -0.5729
  475MOL0     C64050   6.182   2.285   0.467 -0.0307 -0.8615 -0.3583
  475MOL0     C64051   6.169   2.406   0.568 -0.4640 -0.6505 -0.3718
  475MOL0     C64052   6.065   2.515   0.539  0.3213  0.3270  0.6277
  475MOL0     C64053   6.031   2.610   0.644 -0.2796  0.2189 -0.0612
  475MOL0     C64054   6.009   2.696   0.729  0.7674 -0.3611 -0.3052
  475MOL0     C64055   6.659   2.293   0.414  0.0672  0.1276  0.0517
  475MOL0     C64056   6.791   2.249   0.392 -0.5253  1.2313  0.3862
  475MOL0     C64057   6.874   2.350   0.318 -0.4369 -0.7233  0.9100
  475MOL0     H64058   7.241   1.974   0.365  0.9250 -0.3221 -2.8149
  475MOL0     H64059   7.402   1.796   0.387 -0.1328 -1.6403 -0.7103
  475MOL0     H64060   7.281   1.380   0.468  1.1441  0.1845  1.0194
  475MOL0     H64061   7.299   1.394   0.297  0.5721  1.7441 -0.1495
  475MOL0     H64062   7.476   1.232   0.359 -3.5435  0.4661  1.4898
  475MOL0     H64063   7.504   1.319   0.498  2.4869  1.2730 -0.4267
  475MOL0     H64064   7.597   1.526   0.347 -3.2312  1.5184 -2.1914
  475MOL0     H64065   7.570   1.425   0.204 -0.6022  1.1605 -0.0891
  475MOL0     H64066   7.773   1.380   0.426  3.4087  0.5532 -1.5894
  475MOL0     H64067   7.715   1.259   0.321 -1.4698 -0.1128 -0.1749
  475MOL0     H64068   7.775   1.397   0.123 -0.7935  2.0498 -0.6459
  475MOL0     H64069   7.820   1.535   0.218  0.6650  0.2636  3.4038
  475MOL0     H64070   8.010   1.420   0.315  0.4787 -2.2459  0.3847
  475MOL0     H64071   7.959   1.266   0.249 -0.4472 -0.3915 -1.1586
  475MOL0     H64072   8.013   1.492   0.065 -0.2816  0.8081  2.2262
  475MOL0     H64073   8.029   1.312   0.038  3.2871 -1.3881 -0.1741
  475MOL0     H64074   8.248   1.441   0.043  1.2448  0.8503  0.2419
  475MOL0     H64075   8.208   1.502   0.200 -0.0529 -0.4987  0.0002
  475MOL0     H64076   8.398   1.199   0.048  1.5478  1.0463  0.1346
  475MOL0     H64077   8.443   0.928   0.254 -0.6889  1.7746  0.5434
  475MOL0     H64078   8.517   1.011   0.130  2.5512 -2.3642  0.7890
  475MOL0     H64079   8.692   1.118   0.245 -1.2849  1.2439 -0.3163
  475MOL0     H64080   8.610   1.133   0.389  2.1629 -0.8670  1.1369
  475MOL0     H64081   8.615   0.873   0.398 -0.1910  0.1013 -0.9754
  475MOL0     H64082   8.748   0.967   0.460  0.6574 -2.2399  0.5411
  475MOL0     H64083   8.866   0.816   0.337 -0.0298  1.1836  0.5446
  475MOL0     H64084   8.832   0.913   0.194 -0.4096 -2.2665 -0.7388
  475MOL0     H64085   8.552   0.646   0.040  0.3684 -1.3197  0.2306
  475MOL0     H64086   8.595   0.639  -0.196  0.5377  3.7134 -0.9221
  475MOL0     H64087   8.892   0.356  -0.449 -0.0221  2.9091  2.5041
  475MOL0     H64088   8.911   0.289  -0.698 -0.7044  1.3725 -1.9017
  475MOL0     H64089   9.145   0.252  -0.786  1.0527  2.1715  1.8240
  475MOL0     H64090   9.163   0.268  -0.963 -0.1657  1.1738 -1.4080
  475MOL0     H64091   9.330   0.446  -0.942  1.2764  2.5273  2.6842
  475MOL0     H64092   9.313   0.450  -0.759  2.5852  3.3185 -1.5555
  475MOL0     H64093   9.371   0.210  -0.756 -1.7970 -2.2833 -2.5162
  475MOL0     H64094   9.394   0.215  -0.936  1.1367  0.0792 -0.9486
  475MOL0     H64095   9.529   0.413  -0.741  1.6712  2.8075 -2.0669
  475MOL0     H64096   9.558   0.394  -0.913  0.6130 -0.6282 -0.6175
  475MOL0     H64097   9.671   0.188  -0.882 -1.4281 -3.7309  0.8770
  475MOL0     H64098   9.592   0.158  -0.721 -1.8538  2.4120  1.4697
  475MOL0     H64099   9.788   0.375  -0.777  0.6391  0.0447 -1.2376
  475MOL0     H64100   9.733   0.346  -0.620  0.8295 -1.2486  0.9901
  475MOL0     H64101   9.890   0.131  -0.785  2.0724  2.6371 -1.0277
  475MOL0     H64102   9.863   0.118  -0.621  2.2822 -3.2940 -1.7988
  475MOL0     H64103   9.977   0.354  -0.601 -2.3033  1.0812 -1.9385
  475MOL0     H64104  10.088   0.224  -0.632  0.0324  1.0435  1.0975
  475MOL0     H64105   9.140   0.645  -0.767 -2.4842  0.4081 -2.0843
  475MOL0     H64106   9.098   0.729  -0.548 -0.9273  1.4402 -6.4677
  475MOL0     H64107   9.015   0.659  -0.126  0.7770 -1.4128 -0.6538
  475MOL0     H64108   8.980   0.712   0.112  3.0509 -2.6240 -2.5658
  475MOL0     H64109   7.089   1.507   0.437 -0.9116 -0.1360 -1.6768
  475MOL0     H64110   6.934   1.683   0.415 -1.3795  2.4362 -0.2259
  475MOL0     H64111   6.726   1.932   0.506 -0.7588  0.0417  2.4978
  475MOL0     H64112   6.500   2.004   0.499 -0.0258  0.3432  1.1278
  475MOL0     H64113   6.318   2.173   0.605  1.4751 -2.8408 -1.2438
  475MOL0     H64114   6.299   2.110   0.439 -2.9584  0.1842 -1.1529
  475MOL0     H64115   6.096   2.218   0.474  1.5805 -3.2382 -1.8141
  475MOL0     H64116   6.194   2.314   0.362 -0.9304 -1.2614 -0.5858
  475MOL0     H64117   6.262   2.463   0.577  0.0491 -1.7610  2.5906
  475MOL0     H64118   6.152   2.358   0.665  0.5265  0.9336  0.6334
  475MOL0     H64119   6.108   2.583   0.466  0.7596  0.1587  0.7291
  475MOL0     H64120   5.974   2.472   0.494 -0.6960  1.2906  1.6866
  475MOL0     H64121   5.985   2.775   0.797  3.1041  0.0171  0.1875
  475MOL0     H64122   6.635   2.396   0.388  0.9850  0.2539 -0.3333
  475MOL0     H64123   6.913   2.302   0.228  2.3528 -1.1345  2.2285
  475MOL0     H64124   6.835   2.450   0.298  2.2054  0.4687  1.2255
  475MOL0     H64125   6.968   2.367   0.371 -0.8509 -2.8773  2.4664
  476MOL0     O64126   2.754   3.456   5.315 -0.1476 -0.0985  0.2944
  476MOL0     C64127   2.643   3.409   5.330  0.0701  0.9251  0.5101
  476MOL0     O64128   2.625   3.272   5.341  0.2936  0.3610 -0.0776
  476MOL0     C64129   2.741   3.193   5.319  0.1479  0.9149 -0.5268
  476MOL0     C64130   2.845   3.166   5.407 -0.5090  0.0216  0.0452
  476MOL0     C64131   2.970   3.101   5.365  0.2338 -0.1281  0.4155
  476MOL0     C64132   2.978   3.049   5.232  1.5922  0.2673  0.1494
  476MOL0     O64133   3.090   2.989   5.175  0.0619 -0.9629 -0.7648
  476MOL0     C64134   3.210   2.967   5.253  0.6528  0.5723 -0.0686
  476MOL0     C64135   3.321   2.906   5.171 -0.2783  0.2644 -0.0583
  476MOL0     C64136   3.434   2.873   5.271 -0.7430 -0.2498  0.1744
  476MOL0     C64137   3.575   2.846   5.202 -0.5033 -0.0078 -0.2243
  476MOL0     C64138   3.590   2.705   5.123 -0.2687 -0.5466 -0.1025
  476MOL0     C64139   3.593   2.591   5.220 -0.1691  0.4182 -0.2394
  476MOL0     C64140   3.581   2.460   5.149 -0.4411  0.0891  0.0974
  476MOL0     C64141   3.710   2.412   5.071  0.4348  0.4256  0.0385
  476MOL0     N64142   3.728   2.265   5.092 -0.3072  0.0328 -0.4852
  476MOL0     C64143   3.649   2.164   5.047 -0.0580 -0.4722 -0.6957
  476MOL0     C64144   3.686   2.058   5.115  0.2492  0.5244  0.0193
  476MOL0     C64145   3.618   1.930   5.078 -0.5082  0.3596 -0.1599
  476MOL0     C64146   3.729   1.818   5.083  0.3054 -0.2376  0.6353
  476MOL0     C64147   3.687   1.686   5.027 -0.2169 -0.1933 -0.3410
  476MOL0     C64148   3.611   1.611   5.131 -0.0096 -0.6630  0.3861
  476MOL0     O64149   3.690   1.533   5.227  0.1606  0.6138  0.7693
  476MOL0     C64150   3.742   1.421   5.166 -0.6490  0.5045 -0.4846
  476MOL0     C64151   3.673   1.329   5.093  0.4979 -0.2559 -0.0846
  476MOL0     C64152   3.748   1.220   5.036  0.6987 -0.0963 -0.7497
  476MOL0     C64153   3.885   1.200   5.056  0.4698  0.3486  0.1379
  476MOL0     C64154   3.942   1.083   4.992  0.3531 -0.6651  0.1287
  476MOL0     O64155   3.870   1.022   4.887 -0.1089 -0.4158  0.1206
  476MOL0     C64156   3.936   0.911   4.827 -0.3216  0.9394 -0.4994
  476MOL0     C64157   3.850   0.813   4.775 -0.6205 -0.4589 -0.2858
  476MOL0     C64158   3.896   0.708   4.699 -1.2236 -0.0211 -0.7995
  476MOL0     C64159   4.031   0.693   4.668 -0.0349 -0.9761 -0.4103
  476MOL0     O64160   4.087   0.594   4.593  0.1879 -0.7275 -0.9257
  476MOL0     C64161   4.004   0.519   4.500  0.8475  0.1340  1.0487
  476MOL0     C64162   4.102   0.447   4.400  0.6139  0.5764  0.0037
  476MOL0     C64163   4.207   0.372   4.463  0.4219  0.3366 -0.2090
  476MOL0     C64164   4.256   0.275   4.361  0.0188 -0.4389  0.5958
  476MOL0     C64165   4.386   0.206   4.409  0.1141 -0.1431 -0.7552
  476MOL0     C64166   4.515   0.254   4.323  0.9405 -0.1622  0.4580
  476MOL0     C64167   4.640   0.166   4.347  0.2191 -0.0912 -0.0024
  476MOL0     C64168   4.728   0.206   4.470  0.4740 -0.4468 -0.3802
  476MOL0    Cl64169   4.650   0.135   4.622  0.0605  0.2059 -0.0980
  476MOL0     C64170   4.120   0.782   4.732  0.3134  0.4645 -0.4332
  476MOL0     C64171   4.075   0.892   4.809 -0.2616  0.6675 -0.5038
  476MOL0     O64172   4.054   1.052   5.039 -0.5048 -0.7139  0.3068
  476MOL0     C64173   3.949   1.290   5.140  0.0591 -1.2402  0.7349
  476MOL0     C64174   3.878   1.399   5.192  0.5716  0.9770 -0.1184
  476MOL0     N64175   3.790   2.086   5.204  0.2604 -1.4679  0.3326
  476MOL0     N64176   3.810   2.211   5.194 -0.1567  0.2172 -0.2753
  476MOL0     C64177   2.862   3.055   5.153 -0.5187  0.3602 -0.2219
  476MOL0     C64178   2.748   3.134   5.195 -0.1567  1.2756 -0.1317
  476MOL0     C64179   2.524   3.499   5.349  0.2131 -1.3857  0.4841
  476MOL0     C64180   2.557   3.635   5.364 -0.2150  0.3146 -0.3127
  476MOL0     C64181   2.459   3.726   5.377 -0.0602  0.3085 -0.4392
  476MOL0     C64182   2.328   3.690   5.409  0.3015 -0.1861  0.6830
  476MOL0     O64183   2.233   3.784   5.458  0.2765  0.1425  0.2918
  476MOL0     C64184   2.264   3.916   5.491  0.4624 -0.2152  0.4500
  476MOL0     C64185   2.139   4.005   5.511  0.3432 -0.9029 -0.2493
  476MOL0     C64186   2.039   3.951   5.616 -0.5243 -0.1187  0.4433
  476MOL0     C64187   1.904   4.021   5.606 -0.6105 -0.7384  0.6747
  476MOL0     C64188   1.805   3.974   5.703 -0.6756 -0.3594 -0.1855
  476MOL0     C64189   1.727   3.947   5.795  0.3268 -0.0875  0.3126
  476MOL0     C64190   2.289   3.553   5.419  0.4548  0.1476 -0.6188
  476MOL0     C64191   2.391   3.457   5.383  0.1681  0.6776 -0.2979
  476MOL0     C64192   2.347   3.309   5.380 -0.2673  0.4808  0.4506
  476MOL0     H64193   2.850   3.207   5.507  2.4932 -2.6205  1.1744
  476MOL0     H64194   3.051   3.103   5.437  1.1843 -1.1147 -0.5811
  476MOL0     H64195   3.254   3.062   5.286 -1.2822  0.8033  2.1068
  476MOL0     H64196   3.195   2.902   5.340 -2.4384  2.4803  0.9862
  476MOL0     H64197   3.350   2.986   5.102  0.9690  1.0791  1.3451
  476MOL0     H64198   3.312   2.814   5.113 -0.7773  0.1248  0.2404
  476MOL0     H64199   3.421   2.795   5.348 -0.0534  1.1624  1.7927
  476MOL0     H64200   3.447   2.963   5.332  2.4327  0.1374 -0.9026
  476MOL0     H64201   3.591   2.933   5.138  0.1818  2.3313  2.8836
  476MOL0     H64202   3.648   2.872   5.279 -1.5794  1.3180  0.4037
  476MOL0     H64203   3.503   2.710   5.057 -0.9230  1.5581  0.8607
  476MOL0     H64204   3.681   2.697   5.063  1.0225  5.0418  0.6127
  476MOL0     H64205   3.680   2.597   5.287 -2.9297  1.1639  3.6201
  476MOL0     H64206   3.509   2.602   5.289  0.6952  2.3795  0.5584
  476MOL0     H64207   3.493   2.448   5.084 -1.8493  0.8414  1.7567
  476MOL0     H64208   3.561   2.393   5.233 -1.3001 -0.6577 -0.6828
  476MOL0     H64209   3.695   2.439   4.967  0.2138  4.4001  0.9318
  476MOL0     H64210   3.794   2.478   5.093  0.4005  0.9051 -1.2162
  476MOL0     H64211   3.589   2.175   4.958  0.7044 -0.7110 -1.2526
  476MOL0     H64212   3.530   1.921   5.142 -1.7706 -1.1934 -1.9871
  476MOL0     H64213   3.581   1.931   4.975  1.8471  1.4573 -1.0604
  476MOL0     H64214   3.809   1.848   5.015  0.1547  1.2201  1.0645
  476MOL0     H64215   3.777   1.816   5.181  2.4392  0.8994 -0.3195
  476MOL0     H64216   3.771   1.623   4.999  0.5006  0.8144 -0.5185
  476MOL0     H64217   3.631   1.703   4.934 -1.4463 -2.1791 -0.0234
  476MOL0     H64218   3.542   1.540   5.084 -1.9818  0.5514  1.3061
  476MOL0     H64219   3.546   1.676   5.191 -1.0018 -0.4020 -0.9215
  476MOL0     H64220   3.566   1.340   5.097  0.6533  1.5106 -0.1220
  476MOL0     H64221   3.683   1.145   4.992 -1.5142 -0.9058  3.3743
  476MOL0     H64222   3.748   0.832   4.805 -1.3120 -0.7007 -2.3368
  476MOL0     H64223   3.828   0.634   4.660 -1.8148  0.6972 -1.1701
  476MOL0     H64224   3.938   0.449   4.553  0.7556  0.9525  2.0662
  476MOL0     H64225   3.944   0.596   4.451  2.3842  1.5532  1.2896
  476MOL0     H64226   4.043   0.381   4.337  3.0370  1.6067 -3.6986
  476MOL0     H64227   4.141   0.521   4.329  1.2827  1.0085  0.8057
  476MOL0     H64228   4.286   0.436   4.501  0.4062  0.4738 -0.4053
  476MOL0     H64229   4.175   0.305   4.543 -1.8421 -1.3996 -2.3760
  476MOL0     H64230   4.265   0.322   4.263 -3.1127 -0.9548 -0.0351
  476MOL0     H64231   4.171   0.206   4.353 -2.3908  2.5709 -2.5548
  476MOL0     H64232   4.364   0.100   4.393  3.3504 -1.5689  2.7319
  476MOL0     H64233   4.395   0.233   4.514 -1.7881  2.0013 -1.0561
  476MOL0     H64234   4.496   0.258   4.215  1.8921  4.2435  0.2900
  476MOL0     H64235   4.538   0.358   4.344 -0.9278  0.3462  0.1792
  476MOL0     H64236   4.700   0.170   4.256  0.9069 -1.4813  0.3675
  476MOL0     H64237   4.607   0.063   4.358  1.8581 -0.8839 -2.0675
  476MOL0     H64238   4.829   0.165   4.459 -0.1881 -2.4316  0.5753
  476MOL0     H64239   4.736   0.315   4.477  0.8541 -0.3545 -1.9769
  476MOL0     H64240   4.226   0.768   4.718 -0.1435 -1.5885 -2.5928
  476MOL0     H64241   4.151   0.960   4.846  0.8238  0.0125 -1.4804
  476MOL0     H64242   4.046   1.253   5.174  0.2141 -0.5097  1.1012
  476MOL0     H64243   3.916   1.477   5.257 -1.2945  3.7793 -2.1165
  476MOL0     H64244   2.855   3.009   5.055 -0.4772 -0.7817  0.2999
  476MOL0     H64245   2.665   3.134   5.125 -2.0053  0.6983  1.9436
  476MOL0     H64246   2.658   3.675   5.367  0.0317 -0.3514  0.7018
  476MOL0     H64247   2.489   3.830   5.366  1.5338 -0.0611  0.2379
  476MOL0     H64248   2.319   3.961   5.408 -3.6367  1.6282 -1.5429
  476MOL0     H64249   2.330   3.907   5.578 -1.0824 -0.9496  1.5975
  476MOL0     H64250   2.078   4.002   5.420 -2.6517 -0.5957  1.5884
  476MOL0     H64251   2.162   4.110   5.532 -2.6147 -0.3595  0.8747
  476MOL0     H64252   2.085   3.948   5.716  2.0904 -1.7479 -0.6760
  476MOL0     H64253   2.015   3.846   5.598 -0.7715 -0.2268  1.3298
  476MOL0     H64254   1.927   4.128   5.608 -1.1359 -0.5866 -0.4514
  476MOL0     H64255   1.868   4.002   5.504  0.6469 -2.3257  0.4829
  476MOL0     H64256   1.673   3.907   5.879  2.8720 -2.5089  0.9460
  476MOL0     H64257   2.186   3.524   5.441  1.0262  1.3479  5.0874
  476MOL0     H64258   2.351   3.262   5.281 -4.4894 -0.9413  0.7526
  476MOL0     H64259   2.415   3.253   5.445  3.2104  1.5997 -1.9288
  476MOL0     H64260   2.246   3.293   5.419  0.3643 -2.5442  1.0942
  477MOL0     O64261   7.349   7.006   0.033 -0.6083  0.0389 -0.1967
  477MOL0     C64262   7.417   7.098  -0.015  0.4317  0.5462  0.5351
  477MOL0     O64263   7.408   7.143  -0.149  0.5446 -0.0767 -0.6692
  477MOL0     C64264   7.387   7.057  -0.254 -0.6323  0.8345 -0.1201
  477MOL0     C64265   7.306   7.099  -0.362 -0.3539  0.2134 -0.1501
  477MOL0     C64266   7.288   7.020  -0.474  0.3430 -0.3312 -0.2490
  477MOL0     C64267   7.346   6.898  -0.484  0.7632 -0.7509 -0.3221
  477MOL0     O64268   7.333   6.816  -0.597 -0.5907 -0.1320 -0.1969
  477MOL0     C64269   7.206   6.803  -0.659 -0.1860  0.1252 -0.2284
  477MOL0     C64270   7.213   6.687  -0.755 -0.1801  0.5166 -0.0301
  477MOL0     C64271   7.287   6.711  -0.885 -0.7338 -1.0079  1.0281
  477MOL0     C64272   7.290   6.580  -0.953  0.3506 -0.0281  1.0915
  477MOL0     C64273   7.343   6.587  -1.100  0.6421 -0.0158 -0.4549
  477MOL0     C64274   7.236   6.622  -1.196 -0.2432  0.2222  0.0397
  477MOL0     C64275   7.304   6.659  -1.328 -0.8134  0.0659 -0.8236
  477MOL0     C64276   7.193   6.715  -1.421 -0.3298 -0.6945 -0.0526
  477MOL0     N64277   7.250   6.767  -1.555 -0.4226 -0.3876  0.0716
  477MOL0     C64278   7.356   6.860  -1.579  1.4977 -0.6547 -0.2182
  477MOL0     C64279   7.372   6.857  -1.713  0.2674 -0.0752 -0.1518
  477MOL0     C64280   7.475   6.915  -1.803 -0.5943 -0.5239  0.4880
  477MOL0     C64281   7.612   6.883  -1.747  0.9872 -0.6549 -0.1924
  477MOL0     C64282   7.715   6.952  -1.833 -0.2608 -0.3216  0.2087
  477MOL0     C64283   7.817   6.867  -1.928  0.4135 -0.4129  0.5759
  477MOL0     O64284   7.932   6.948  -1.950 -0.5019 -0.1391 -0.3993
  477MOL0     C64285   8.025   6.907  -2.042  0.5380  0.2249 -0.2487
  477MOL0     C64286   8.029   6.777  -2.100  0.5701  0.0402 -0.3397
  477MOL0     C64287   8.134   6.743  -2.190 -0.1413 -0.0441  0.1796
  477MOL0     C64288   8.233   6.836  -2.218 -0.1396 -0.3378 -0.5848
  477MOL0     C64289   8.345   6.806  -2.305 -0.0333 -0.1831 -0.4420
  477MOL0     O64290   8.357   6.672  -2.343 -0.1274  0.0863 -0.4281
  477MOL0     C64291   8.454   6.642  -2.431 -0.1805  0.4152 -0.0826
  477MOL0     C64292   8.417   6.626  -2.571 -0.0777  0.6773  0.3953
  477MOL0     C64293   8.515   6.594  -2.665  0.6915 -0.3115  0.4790
  477MOL0     C64294   8.646   6.565  -2.623 -0.3197  0.2323  0.1663
  477MOL0     O64295   8.728   6.512  -2.717 -0.3492 -0.5812 -0.6787
  477MOL0     C64296   8.756   6.375  -2.698  0.0276 -0.9254 -0.9720
  477MOL0     C64297   8.874   6.325  -2.779  0.3629 -0.1679 -0.6839
  477MOL0     C64298   9.006   6.392  -2.751 -0.1223  0.9420  0.2556
  477MOL0     C64299   9.092   6.306  -2.663 -0.0896 -0.9966  0.5539
  477MOL0     C64300   9.216   6.365  -2.607  0.4566 -0.8198  0.3129
  477MOL0     C64301   9.319   6.384  -2.716 -0.7472  0.2554  0.0006
  477MOL0     C64302   9.438   6.448  -2.645 -0.0844 -0.5399 -0.0456
  477MOL0     C64303   9.560   6.356  -2.612  0.4036 -0.2593 -1.2122
  477MOL0    Cl64304   9.647   6.442  -2.477  0.3648  0.0062  0.1881
  477MOL0     C64305   8.682   6.569  -2.486 -0.1496 -0.6834 -0.1244
  477MOL0     C64306   8.586   6.608  -2.391 -0.4887 -0.5289 -0.4035
  477MOL0     O64307   8.430   6.895  -2.326 -0.8219  0.6341  0.6364
  477MOL0     C64308   8.225   6.970  -2.160  0.0407 -0.1482 -0.0024
  477MOL0     C64309   8.122   6.995  -2.068  0.5871  0.3260  0.0180
  477MOL0     N64310   7.280   6.771  -1.768  0.2654  0.2419 -0.0781
  477MOL0     N64311   7.207   6.721  -1.677  0.6862 -0.3279 -0.0763
  477MOL0     C64312   7.423   6.846  -0.379 -0.2171 -0.5328 -0.3366
  477MOL0     C64313   7.445   6.929  -0.267  0.4487 -0.0881  0.7058
  477MOL0     C64314   7.528   7.154   0.060 -0.5375 -1.2980 -0.3630
  477MOL0     C64315   7.625   7.233  -0.003 -0.7678 -0.2131  0.0149
  477MOL0     C64316   7.735   7.300   0.063 -0.9190  0.7804 -0.1397
  477MOL0     C64317   7.743   7.303   0.205  0.9480 -0.0128  0.2508
  477MOL0     O64318   7.842   7.363   0.275  0.5527  0.4381 -0.1935
  477MOL0     C64319   7.962   7.424   0.219  0.4331  1.7038  0.4700
  477MOL0     C64320   8.001   7.529   0.317 -1.4895 -0.1284  0.7476
  477MOL0     C64321   7.891   7.615   0.389 -0.7506  0.4102  0.3155
  477MOL0     C64322   7.969   7.700   0.497 -0.0105 -0.0771  0.5120
  477MOL0     C64323   7.883   7.785   0.571  0.5328  0.7701 -0.4053
  477MOL0     C64324   7.810   7.865   0.621  0.2964  1.1291  0.5185
  477MOL0     C64325   7.642   7.242   0.267  0.4835 -0.4767  1.3241
  477MOL0     C64326   7.541   7.160   0.204 -0.2061  0.3445 -0.2124
  477MOL0     C64327   7.447   7.083   0.301  0.0131  0.6159 -0.2987
  477MOL0     H64328   7.265   7.199  -0.352  1.1557  1.0100 -1.3731
  477MOL0     H64329   7.228   7.064  -0.553 -0.3214  2.1352  1.5150
  477MOL0     H64330   7.128   6.774  -0.588 -0.3282  1.1178  0.0329
  477MOL0     H64331   7.170   6.897  -0.701 -0.5598 -0.2412 -0.7403
  477MOL0     H64332   7.106   6.673  -0.774 -0.6508  4.3846 -1.2342
  477MOL0     H64333   7.261   6.601  -0.708  0.4986  0.4078 -0.8863
  477MOL0     H64334   7.390   6.745  -0.875 -0.8087 -1.2509  2.9911
  477MOL0     H64335   7.224   6.781  -0.942 -1.3604 -1.3681  1.2627
  477MOL0     H64336   7.347   6.508  -0.893  1.0088  0.4915  1.1040
  477MOL0     H64337   7.186   6.546  -0.950  0.8979 -1.7623  2.9239
  477MOL0     H64338   7.422   6.663  -1.093  2.0702 -1.3016 -1.8228
  477MOL0     H64339   7.387   6.489  -1.121  1.0277 -0.8192  3.4147
  477MOL0     H64340   7.178   6.532  -1.218  1.2427 -0.9301  0.6897
  477MOL0     H64341   7.169   6.698  -1.153  0.3153  1.2101 -0.7972
  477MOL0     H64342   7.356   6.572  -1.370 -0.0036  0.8479 -1.4589
  477MOL0     H64343   7.388   6.728  -1.315 -0.9538 -0.0862  1.2008
  477MOL0     H64344   7.111   6.643  -1.431 -0.0319 -1.1999  1.0085
  477MOL0     H64345   7.149   6.802  -1.371 -2.6789 -1.8908  0.0934
  477MOL0     H64346   7.402   6.922  -1.502 -0.2604 -1.4352  1.5420
  477MOL0     H64347   7.468   6.870  -1.902  3.4182  1.9040 -1.1194
  477MOL0     H64348   7.470   7.024  -1.813  0.8551 -0.5544 -0.7158
  477MOL0     H64349   7.610   6.921  -1.644  0.7221 -0.7500 -0.1630
  477MOL0     H64350   7.632   6.775  -1.744  1.1836 -0.6945 -1.9018
  477MOL0     H64351   7.784   7.009  -1.769  0.1733  0.9333 -1.2975
  477MOL0     H64352   7.675   7.026  -1.904  0.3965 -1.7509 -1.7278
  477MOL0     H64353   7.770   6.844  -2.024  3.3965 -2.6998 -0.4896
  477MOL0     H64354   7.832   6.770  -1.878 -0.9780 -1.6891 -1.3498
  477MOL0     H64355   7.947   6.708  -2.083 -0.5036  1.3248 -0.1239
  477MOL0     H64356   8.149   6.640  -2.219  0.1628 -0.0148  0.2294
  477MOL0     H64357   8.315   6.649  -2.601  0.2386  2.8146  0.8333
  477MOL0     H64358   8.482   6.581  -2.768  1.4754 -2.3160  0.4395
  477MOL0     H64359   8.775   6.352  -2.593  0.2244  0.2538 -0.7360
  477MOL0     H64360   8.664   6.321  -2.724 -2.1907  0.8277  2.4967
  477MOL0     H64361   8.871   6.217  -2.759 -3.7348  0.0165  0.7209
  477MOL0     H64362   8.852   6.351  -2.883 -0.3841  1.6023 -0.1156
  477MOL0     H64363   9.064   6.404  -2.843  2.9250  0.4177  1.9815
  477MOL0     H64364   8.995   6.489  -2.702 -1.6300 -0.6665  3.3786
  477MOL0     H64365   9.128   6.213  -2.707 -1.2719 -1.0965 -0.2563
  477MOL0     H64366   9.039   6.282  -2.571 -0.7105  0.7612  0.6903
  477MOL0     H64367   9.260   6.296  -2.534  2.6982 -0.2596 -0.4377
  477MOL0     H64368   9.191   6.450  -2.543 -6.1603 -4.2164  3.2841
  477MOL0     H64369   9.346   6.280  -2.735 -1.2420  0.0262  0.5436
  477MOL0     H64370   9.287   6.441  -2.804  1.2073 -2.0365 -2.3800
  477MOL0     H64371   9.407   6.512  -2.562  1.7753  2.1903 -1.2894
  477MOL0     H64372   9.472   6.528  -2.712 -0.1795  0.1303  0.6891
  477MOL0     H64373   9.524   6.265  -2.563  1.5240  0.9437  2.1551
  477MOL0     H64374   9.626   6.341  -2.698 -2.3743 -0.0706 -3.5392
  477MOL0     H64375   8.785   6.545  -2.460  1.0869 -1.6569 -4.9386
  477MOL0     H64376   8.605   6.623  -2.285  0.4232 -2.9909 -0.1587
  477MOL0     H64377   8.306   7.040  -2.176  1.8463 -1.6253  2.0356
  477MOL0     H64378   8.120   7.086  -2.010  1.3906  0.0908  0.4283
  477MOL0     H64379   7.461   6.746  -0.399  2.0551  0.4663 -1.3840
  477MOL0     H64380   7.504   6.893  -0.183 -1.7213 -2.0761  1.4914
  477MOL0     H64381   7.628   7.236  -0.112  1.5937 -0.9961  0.0016
  477MOL0     H64382   7.814   7.343   0.003 -0.4569 -0.4904 -0.4863
  477MOL0     H64383   7.947   7.475   0.123  0.7285 -1.4988 -1.4166
  477MOL0     H64384   8.029   7.340   0.199 -1.2042  0.0964  1.4174
  477MOL0     H64385   8.074   7.595   0.269 -0.4510 -1.5626  0.2818
  477MOL0     H64386   8.063   7.479   0.393  1.5845  1.7599 -0.3434
  477MOL0     H64387   7.827   7.541   0.438  1.6723 -1.7166  0.5141
  477MOL0     H64388   7.820   7.677   0.335 -0.8331  1.1112  1.2059
  477MOL0     H64389   8.028   7.633   0.560  1.0213  0.0227 -0.3121
  477MOL0     H64390   8.047   7.761   0.451 -1.6886  1.6446 -0.2301
  477MOL0     H64391   7.753   7.929   0.686  0.6243  0.8889  1.0495
  477MOL0     H64392   7.659   7.248   0.374  0.3862  0.6958  1.2847
  477MOL0     H64393   7.415   6.984   0.267  1.2539  0.0301  0.1548
  477MOL0     H64394   7.493   7.065   0.399 -1.9598  0.7509  0.6871
  477MOL0     H64395   7.355   7.137   0.323  0.3257  0.2702  2.0905
  478MOL0     O64396   2.956   7.607   7.060 -0.8057 -0.3467  1.1195
  478MOL0     C64397   3.000   7.724   7.054  0.0486  0.1491  0.9098
  478MOL0     O64398   3.129   7.749   7.026  0.4954 -0.4362  0.8647
  478MOL0     C64399   3.196   7.666   6.950 -0.0518 -0.1910  0.3223
  478MOL0     C64400   3.298   7.594   7.007 -1.4120  0.4895  0.0225
  478MOL0     C64401   3.387   7.521   6.929 -0.3523 -0.0990  0.4570
  478MOL0     C64402   3.361   7.509   6.800 -0.6055  0.3565  0.2262
  478MOL0     O64403   3.419   7.404   6.725  0.6869  0.0177  0.3286
  478MOL0     C64404   3.560   7.370   6.754  0.4599  0.0369  0.3747
  478MOL0     C64405   3.644   7.502   6.757 -0.3883 -0.5636 -0.0600
  478MOL0     C64406   3.784   7.481   6.817 -0.1114 -0.2947 -0.4464
  478MOL0     C64407   3.780   7.515   6.964  0.1655 -0.9659 -0.8170
  478MOL0     C64408   3.911   7.451   7.025 -0.0685 -0.5731  0.5166
  478MOL0     C64409   3.920   7.296   7.037  0.3327  0.1561  0.5098
  478MOL0     C64410   4.012   7.244   7.140  0.2237 -0.1042 -0.3891
  478MOL0     C64411   4.003   7.091   7.150 -0.9829  0.4908  0.6470
  478MOL0     N64412   3.967   7.040   7.275  0.4322  0.4350 -0.7033
  478MOL0     C64413   3.845   7.049   7.341 -0.1443  0.0929 -0.6922
  478MOL0     C64414   3.847   6.949   7.438  0.3081 -0.1514 -0.2493
  478MOL0     C64415   3.740   6.913   7.532 -0.9863 -0.8312  0.2349
  478MOL0     C64416   3.611   6.850   7.478 -0.2077 -0.2541  0.8060
  478MOL0     C64417   3.630   6.714   7.408 -0.9916  1.0775  0.3852
  478MOL0     C64418   3.499   6.654   7.359 -0.2073  0.4936  0.2212
  478MOL0     O64419   3.415   6.749   7.285 -0.2234 -0.0464 -0.4448
  478MOL0     C64420   3.298   6.704   7.217 -0.5341  0.7799 -0.2651
  478MOL0     C64421   3.270   6.573   7.181 -0.9421  0.3828  0.3671
  478MOL0     C64422   3.163   6.529   7.107  0.5028 -0.7651 -1.0780
  478MOL0     C64423   3.070   6.626   7.060  0.6598  0.0861  0.6034
  478MOL0     C64424   2.961   6.564   6.975  0.2874 -0.4701 -0.4241
  478MOL0     O64425   2.927   6.433   6.980  0.3356  0.3881  0.4684
  478MOL0     C64426   2.826   6.380   6.910  0.2062 -0.3004  0.4898
  478MOL0     C64427   2.695   6.427   6.902  0.3331  0.2066 -0.4690
  478MOL0     C64428   2.604   6.366   6.822  0.9017  0.9754 -0.9840
  478MOL0     C64429   2.629   6.256   6.746  0.4122  0.5436  1.0724
  478MOL0     O64430   2.547   6.191   6.651  0.2855 -0.1067 -0.0095
  478MOL0     C64431   2.431   6.260   6.590 -0.4642  0.0364 -0.8581
  478MOL0     C64432   2.412   6.216   6.451  0.2263  0.1459  1.0927
  478MOL0     C64433   2.291   6.279   6.377  0.1224  0.4562 -0.2053
  478MOL0     C64434   2.270   6.217   6.243 -0.2964  0.1220 -0.4961
  478MOL0     C64435   2.190   6.088   6.254  0.6191  0.4755  0.8667
  478MOL0     C64436   2.174   6.012   6.115 -0.0823  0.2816  0.1617
  478MOL0     C64437   2.076   6.076   6.015  1.1856 -1.1457  0.5850
  478MOL0     C64438   2.096   6.025   5.869 -0.2150  0.6887 -0.7281
  478MOL0    Cl64439   2.090   5.849   5.874  0.0548  0.0008  0.1322
  478MOL0     C64440   2.762   6.213   6.748 -0.0872  0.6266  0.7118
  478MOL0     C64441   2.855   6.265   6.834  0.1862  0.7830  0.8681
  478MOL0     O64442   2.906   6.654   6.907  0.3780  0.3854 -0.1913
  478MOL0     C64443   3.100   6.760   7.075 -0.0512 -0.3118 -0.3804
  478MOL0     C64444   3.215   6.798   7.158  0.0005 -0.5638 -0.2361
  478MOL0     N64445   3.964   6.879   7.436 -0.9037  0.3039  0.4890
  478MOL0     N64446   4.027   6.927   7.336  0.9156 -0.2469  0.1530
  478MOL0     C64447   3.262   7.592   6.741  0.4542  0.8423  0.9856
  478MOL0     C64448   3.173   7.667   6.811 -0.1549 -0.3154  0.6471
  478MOL0     C64449   2.910   7.836   7.063 -0.7712 -1.0787 -0.2345
  478MOL0     C64450   2.770   7.805   7.083  0.2434 -0.1031 -0.3370
  478MOL0     C64451   2.678   7.910   7.085 -0.1158 -0.4557 -0.7687
  478MOL0     C64452   2.714   8.042   7.076  0.8377 -0.0856 -0.8030
  478MOL0     O64453   2.608   8.133   7.077 -0.0350 -0.7459  0.0806
  478MOL0     C64454   2.653   8.263   7.103 -0.4656 -0.0425  0.1617
  478MOL0     C64455   2.522   8.343   7.139 -0.5192 -0.7207  0.0795
  478MOL0     C64456   2.551   8.492   7.097 -0.2473 -0.6921  0.7073
  478MOL0     C64457   2.438   8.602   7.122 -0.3106  0.7874 -0.6414
  478MOL0     C64458   2.361   8.579   7.245  0.7176 -0.1932  0.4570
  478MOL0     C64459   2.273   8.565   7.326  0.5566  0.9655  0.5370
  478MOL0     C64460   2.851   8.061   7.046 -0.2491 -0.1262 -0.2366
  478MOL0     C64461   2.954   7.969   7.042 -0.5702 -0.7188  1.1032
  478MOL0     C64462   3.087   8.038   7.002  0.6910  0.3440 -0.2076
  478MOL0     H64463   3.314   7.589   7.114  0.4064 -1.8319 -0.2797
  478MOL0     H64464   3.471   7.474   6.980  2.0345  0.9856 -2.2014
  478MOL0     H64465   3.553   7.307   6.843  0.7634 -1.0900 -0.3803
  478MOL0     H64466   3.601   7.304   6.677 -4.0322 -1.1036 -1.3623
  478MOL0     H64467   3.595   7.588   6.805  0.0387  0.5487 -1.5441
  478MOL0     H64468   3.649   7.536   6.653 -0.4080  2.0310  0.6973
  478MOL0     H64469   3.868   7.536   6.774  0.6298  0.2516  1.6006
  478MOL0     H64470   3.794   7.374   6.794 -3.1829 -0.8800  0.4820
  478MOL0     H64471   3.775   7.623   6.981 -1.1709 -1.1713  0.2699
  478MOL0     H64472   3.695   7.465   7.012 -0.6357  0.1025 -1.0661
  478MOL0     H64473   3.994   7.487   6.963 -0.4979  2.3897  1.5234
  478MOL0     H64474   3.941   7.495   7.121  1.3733 -0.7947  0.1958
  478MOL0     H64475   3.821   7.256   7.061  0.5980  0.2528  1.8433
  478MOL0     H64476   3.952   7.272   6.936 -2.7262  1.8753 -1.0177
  478MOL0     H64477   3.994   7.290   7.238  3.7580 -0.5499  0.6194
  478MOL0     H64478   4.113   7.274   7.112  0.2431  0.8845  0.6626
  478MOL0     H64479   3.940   7.043   7.075  0.7168  1.2600 -1.3811
  478MOL0     H64480   4.105   7.067   7.119 -0.1822  2.6513  1.4317
  478MOL0     H64481   3.771   7.127   7.328  1.5366  1.4969 -2.5968
  478MOL0     H64482   3.770   6.841   7.609  2.0475 -1.1727 -1.1206
  478MOL0     H64483   3.708   7.004   7.584  1.5592  0.0032  0.4584
  478MOL0     H64484   3.540   6.840   7.561 -0.0675 -0.4018  0.9083
  478MOL0     H64485   3.561   6.916   7.406  2.2343  1.7067  0.7700
  478MOL0     H64486   3.683   6.643   7.471 -0.5617  1.5024  0.5114
  478MOL0     H64487   3.694   6.736   7.322  1.9761 -3.1455  1.1996
  478MOL0     H64488   3.451   6.623   7.452 -0.5551  2.4075  0.7280
  478MOL0     H64489   3.523   6.569   7.294 -0.3349  1.3163 -0.9173
  478MOL0     H64490   3.342   6.495   7.204 -1.5969  0.2046  1.9587
  478MOL0     H64491   3.154   6.421   7.097 -0.9566 -0.7517 -0.1681
  478MOL0     H64492   2.685   6.516   6.963  2.1514 -1.3508  2.3244
  478MOL0     H64493   2.505   6.409   6.823  0.1695 -0.6343 -0.5569
  478MOL0     H64494   2.345   6.234   6.652  0.8517 -0.3717  0.8632
  478MOL0     H64495   2.450   6.367   6.597  0.4074 -0.2434  3.3949
  478MOL0     H64496   2.501   6.236   6.391 -1.6825  2.9583 -1.0558
  478MOL0     H64497   2.399   6.108   6.463  1.7763 -0.1479  0.3383
  478MOL0     H64498   2.209   6.281   6.450  0.6700  3.3930  0.4310
  478MOL0     H64499   2.308   6.386   6.364  2.2969  0.0704 -0.8321
  478MOL0     H64500   2.365   6.205   6.191  1.4367  0.5219  2.3705
  478MOL0     H64501   2.209   6.292   6.192  0.4176  1.5269  0.6417
  478MOL0     H64502   2.092   6.120   6.290  1.2418  1.6993  1.5397
  478MOL0     H64503   2.245   6.022   6.322  0.8650 -1.6974 -1.2824
  478MOL0     H64504   2.274   5.992   6.076  0.4740 -1.2456  2.1765
  478MOL0     H64505   2.134   5.915   6.146  1.5269  0.1038  1.8788
  478MOL0     H64506   2.110   6.178   5.997 -1.6885 -0.4212 -1.5456
  478MOL0     H64507   1.970   6.087   6.041  1.3338  1.8838  0.2265
  478MOL0     H64508   2.031   6.055   5.786  1.4938 -0.9579 -2.7787
  478MOL0     H64509   2.196   6.038   5.826  0.2535  2.1828  0.7510
  478MOL0     H64510   2.787   6.131   6.682  0.6895  1.2420  0.2216
  478MOL0     H64511   2.954   6.219   6.841  0.5815  1.6914  1.4387
  478MOL0     H64512   3.052   6.837   7.016 -2.6627 -2.2289 -0.9615
  478MOL0     H64513   3.230   6.905   7.163 -2.1721 -0.1912 -0.5613
  478MOL0     H64514   3.252   7.571   6.635  3.6128  0.7067  0.6364
  478MOL0     H64515   3.090   7.722   6.767 -0.9869 -2.0066  0.0274
  478MOL0     H64516   2.724   7.709   7.105 -1.3575  0.9824  1.3206
  478MOL0     H64517   2.576   7.883   7.107 -0.6759  1.1183 -1.3273
  478MOL0     H64518   2.711   8.302   7.019  0.6529  0.2438  1.0326
  478MOL0     H64519   2.721   8.265   7.189  0.4458  1.3906 -0.5540
  478MOL0     H64520   2.493   8.336   7.244  3.9045  2.2626  1.7643
  478MOL0     H64521   2.435   8.301   7.087 -1.9662 -0.2460  1.9937
  478MOL0     H64522   2.578   8.480   6.991 -1.0929  0.4246  0.3499
  478MOL0     H64523   2.636   8.527   7.155  0.5119 -0.1691 -0.6689
  478MOL0     H64524   2.486   8.700   7.121 -3.2365  2.3356 -1.1624
  478MOL0     H64525   2.370   8.599   7.036  0.9819 -0.5589 -1.6692
  478MOL0     H64526   2.205   8.561   7.409  0.5485  0.1687  0.5016
  478MOL0     H64527   2.888   8.161   7.028  1.3753 -0.2905  1.7647
  478MOL0     H64528   3.118   8.011   6.901 -2.2326  0.3779 -1.2136
  478MOL0     H64529   3.087   8.147   7.013  1.0528  0.6190 -2.5110
  478MOL0     H64530   3.168   8.002   7.066 -0.5294 -0.9387  0.6719
  479MOL0     O64531   3.783   7.921   0.746 -0.5600  0.4572 -0.3445
  479MOL0     C64532   3.846   7.823   0.752 -0.6640  0.1247  0.5724
  479MOL0     O64533   3.798   7.702   0.809 -0.3457 -0.3160 -1.0623
  479MOL0     C64534   3.659   7.700   0.821 -0.9956 -0.3906 -0.2374
  479MOL0     C64535   3.611   7.684   0.950  0.2597 -0.1224 -0.6821
  479MOL0     C64536   3.479   7.678   0.978 -0.3952  0.2256  0.2677
  479MOL0     C64537   3.381   7.683   0.877 -0.1147  0.7364 -0.2205
  479MOL0     O64538   3.248   7.683   0.910  0.1447 -0.1000  0.6844
  479MOL0     C64539   3.152   7.598   0.848  0.1590 -0.6510  0.7108
  479MOL0     C64540   3.108   7.485   0.935 -0.4316  1.1700  0.5937
  479MOL0     C64541   3.219   7.385   0.961 -1.0533  0.2451 -0.0341
  479MOL0     C64542   3.185   7.300   1.081 -0.6964 -0.1273 -0.3794
  479MOL0     C64543   3.260   7.173   1.099 -0.1131 -0.2429 -0.4290
  479MOL0     C64544   3.413   7.198   1.110  0.5415  0.4053  0.5119
  479MOL0     C64545   3.493   7.061   1.116 -0.1706 -0.1600  0.3888
  479MOL0     C64546   3.640   7.076   1.150  0.9290 -0.0211  0.0409
  479MOL0     N64547   3.692   6.956   1.207 -0.0458 -0.0735 -0.3130
  479MOL0     C64548   3.645   6.893   1.325  0.1323 -0.3450  1.1148
  479MOL0     C64549   3.686   6.768   1.324  0.2604  0.0534 -0.3678
  479MOL0     C64550   3.652   6.668   1.433  0.1928  0.0872 -0.3969
  479MOL0     C64551   3.527   6.599   1.394  0.0094  0.0869  0.4086
  479MOL0     C64552   3.402   6.694   1.422 -0.7267 -0.9031 -0.7599
  479MOL0     C64553   3.272   6.635   1.464  0.2598 -0.3405  0.4921
  479MOL0     O64554   3.199   6.582   1.358 -0.4684 -0.0507 -0.3255
  479MOL0     C64555   3.121   6.668   1.284  0.4101  0.6450 -0.3249
  479MOL0     C64556   3.044   6.598   1.187  0.0179 -0.8852 -0.2272
  479MOL0     C64557   2.953   6.672   1.106  1.1647  0.6319  0.3927
  479MOL0     C64558   2.938   6.815   1.114  0.4623  0.3232 -0.0491
  479MOL0     C64559   2.835   6.878   1.035  0.0393  0.3183 -0.2356
  479MOL0     O64560   2.853   7.012   1.024  0.2423  0.0643  0.0217
  479MOL0     C64561   2.773   7.070   0.928  0.0480  0.8117 -0.3072
  479MOL0     C64562   2.837   7.139   0.820  0.2539 -0.3164 -0.4828
  479MOL0     C64563   2.767   7.218   0.726  0.2655 -0.2200  1.0791
  479MOL0     C64564   2.628   7.222   0.735  0.3656  0.1255  1.0836
  479MOL0     O64565   2.552   7.304   0.644 -0.1821  0.2750  0.0415
  479MOL0     C64566   2.450   7.394   0.686 -0.4050  0.7996 -0.3234
  479MOL0     C64567   2.478   7.532   0.623 -0.3211 -0.6000  0.3504
  479MOL0     C64568   2.610   7.600   0.658 -0.2257  0.4176  0.5345
  479MOL0     C64569   2.624   7.645   0.798  0.0330 -0.1334 -0.0298
  479MOL0     C64570   2.538   7.762   0.828 -0.3351  0.0941  1.0900
  479MOL0     C64571   2.576   7.802   0.965  0.3672 -0.5238  0.1442
  479MOL0     C64572   2.477   7.923   1.007 -0.2044  0.9375 -0.5756
  479MOL0     C64573   2.474   7.941   1.158  0.4295  0.7019  0.2437
  479MOL0    Cl64574   2.363   7.820   1.214  0.3469 -0.3718 -0.2230
  479MOL0     C64575   2.560   7.154   0.841 -0.3917  0.0022  0.0112
  479MOL0     C64576   2.638   7.075   0.925 -0.0645  0.5066 -0.1137
  479MOL0     O64577   2.754   6.811   0.971  1.4089  0.1171  0.8603
  479MOL0     C64578   3.035   6.882   1.188  0.6050 -0.3972 -0.1324
  479MOL0     C64579   3.116   6.805   1.277  0.5161 -0.6502 -0.0358
  479MOL0     N64580   3.755   6.740   1.208 -0.4353 -0.0384  0.1968
  479MOL0     N64581   3.757   6.855   1.138  0.4840 -0.5767  0.0426
  479MOL0     C64582   3.427   7.683   0.740  0.1921 -0.8290 -0.1155
  479MOL0     C64583   3.561   7.696   0.716  0.1565 -0.6143  0.3334
  479MOL0     C64584   3.988   7.842   0.718  0.3107  0.2517 -0.5252
  479MOL0     C64585   4.082   7.770   0.789  0.0833  0.3632  0.1111
  479MOL0     C64586   4.219   7.773   0.771 -1.0226 -0.4073 -1.0289
  479MOL0     C64587   4.276   7.865   0.673 -0.6122  1.2389 -0.8485
  479MOL0     O64588   4.419   7.866   0.679  0.2493 -0.0890  0.6213
  479MOL0     C64589   4.469   7.996   0.721 -1.0941 -0.1638 -0.1151
  479MOL0     C64590   4.611   8.035   0.687 -0.7470  0.1469 -0.1347
  479MOL0     C64591   4.640   8.186   0.714  0.6307  0.0959  0.1485
  479MOL0     C64592   4.787   8.206   0.728  0.0858 -0.2761  0.1106
  479MOL0     C64593   4.869   8.152   0.618  0.7541  0.3262  0.1575
  479MOL0     C64594   4.949   8.121   0.542 -0.1825  0.2851  0.4510
  479MOL0     C64595   4.191   7.933   0.592  0.0470  0.4276  1.0955
  479MOL0     C64596   4.052   7.926   0.617  0.4334  0.0353 -1.0850
  479MOL0     C64597   3.967   8.015   0.536 -0.2982 -0.7007  0.4996
  479MOL0     H64598   3.686   7.677   1.027 -1.4546 -1.4911  0.9676
  479MOL0     H64599   3.440   7.664   1.078 -0.7043 -1.3681 -0.0402
  479MOL0     H64600   3.069   7.661   0.814  2.0217  0.3907 -2.3449
  479MOL0     H64601   3.190   7.563   0.752 -1.8270 -0.7151 -0.1114
  479MOL0     H64602   3.028   7.431   0.885  0.5009  0.2628  0.0296
  479MOL0     H64603   3.068   7.528   1.027 -2.2489  2.2828 -0.6343
  479MOL0     H64604   3.322   7.420   0.969 -0.4843 -1.3274 -0.1150
  479MOL0     H64605   3.220   7.315   0.877  2.6208 -0.7809  0.7134
  479MOL0     H64606   3.194   7.359   1.173 -2.0403 -2.2053  1.1611
  479MOL0     H64607   3.081   7.268   1.071  0.4446 -4.4265 -0.2778
  479MOL0     H64608   3.215   7.122   1.185  0.6552 -2.1939 -1.1462
  479MOL0     H64609   3.245   7.103   1.017  0.8354 -1.6183  0.5297
  479MOL0     H64610   3.451   7.253   1.024  0.2280  2.6643  1.7411
  479MOL0     H64611   3.428   7.257   1.201  0.2885 -0.8189  1.3841
  479MOL0     H64612   3.493   7.018   1.015  1.3920 -0.7103  0.6031
  479MOL0     H64613   3.431   6.992   1.173 -0.0592 -1.8350 -1.4229
  479MOL0     H64614   3.687   7.101   1.054 -0.1061  1.1712 -0.1715
  479MOL0     H64615   3.666   7.166   1.206  3.5739  0.7396 -2.1693
  479MOL0     H64616   3.576   6.936   1.396 -1.0203 -0.7508  0.2757
  479MOL0     H64617   3.731   6.595   1.454 -2.7437 -3.1427  0.4139
  479MOL0     H64618   3.629   6.720   1.527  2.8622  0.4137  0.1594
  479MOL0     H64619   3.538   6.559   1.293  3.2095 -0.2768  0.7710
  479MOL0     H64620   3.521   6.509   1.457  0.4381 -1.5664 -1.7995
  479MOL0     H64621   3.391   6.752   1.330  0.5470 -0.2731 -0.5385
  479MOL0     H64622   3.418   6.769   1.500 -1.9190  1.0998 -2.3377
  479MOL0     H64623   3.208   6.701   1.523  0.6202 -1.2683  1.9678
  479MOL0     H64624   3.306   6.551   1.525  0.8641 -0.4589 -0.0062
  479MOL0     H64625   3.064   6.493   1.169 -0.0414 -0.9982  0.3432
  479MOL0     H64626   2.902   6.600   1.042  0.4546  0.2145  1.4082
  479MOL0     H64627   2.942   7.120   0.806  0.2319  1.0565 -3.0539
  479MOL0     H64628   2.819   7.262   0.642 -1.3236 -1.1803 -0.4600
  479MOL0     H64629   2.361   7.359   0.632 -1.3366  0.3877  1.3892
  479MOL0     H64630   2.425   7.385   0.792 -2.5178  0.4662 -0.7924
  479MOL0     H64631   2.484   7.519   0.514 -1.6257 -1.9734  0.4122
  479MOL0     H64632   2.386   7.591   0.628  0.0466  0.7936 -4.2837
  479MOL0     H64633   2.688   7.526   0.642  0.3701  0.7535  1.7650
  479MOL0     H64634   2.619   7.688   0.594  2.5514 -0.0147  0.2184
  479MOL0     H64635   2.728   7.675   0.812  1.1823 -3.4565 -0.5715
  479MOL0     H64636   2.604   7.564   0.869  0.5226  1.0650  1.5512
  479MOL0     H64637   2.430   7.745   0.819 -0.8441  2.0840  2.6617
  479MOL0     H64638   2.568   7.844   0.761  0.6168  0.1508  1.5751
  479MOL0     H64639   2.569   7.714   1.030  1.0418  1.1455  2.6415
  479MOL0     H64640   2.680   7.832   0.983 -0.4848  2.3811  0.6698
  479MOL0     H64641   2.374   7.899   0.978 -0.9292  1.3127  1.5286
  479MOL0     H64642   2.506   8.020   0.965  0.8020  1.3123  0.9180
  479MOL0     H64643   2.566   7.927   1.215  0.6770 -1.0804 -0.5134
  479MOL0     H64644   2.426   8.037   1.175 -2.0826 -0.2821 -0.7962
  479MOL0     H64645   2.451   7.157   0.840 -0.6157 -0.5811  4.0846
  479MOL0     H64646   2.586   7.006   0.991 -1.6020  0.5743 -1.1981
  479MOL0     H64647   3.034   6.991   1.196 -0.2238 -0.4816  1.4323
  479MOL0     H64648   3.180   6.854   1.350 -0.9513  0.5536  0.5017
  479MOL0     H64649   3.365   7.672   0.651  1.1323 -1.7444 -0.6822
  479MOL0     H64650   3.584   7.694   0.610 -3.2390 -2.1566 -0.5262
  479MOL0     H64651   4.035   7.708   0.865 -1.8271  0.1424 -1.1759
  479MOL0     H64652   4.282   7.742   0.854 -1.0560 -1.1372 -1.2685
  479MOL0     H64653   4.464   8.011   0.829  1.1913  1.4373 -0.1647
  479MOL0     H64654   4.420   8.079   0.671  1.6337  2.5185  1.3022
  479MOL0     H64655   4.625   8.019   0.580 -1.9465  3.6340 -0.9292
  479MOL0     H64656   4.680   7.970   0.743  0.3535  0.7629 -0.7421
  479MOL0     H64657   4.595   8.219   0.809  1.4222 -0.7262  0.8277
  479MOL0     H64658   4.591   8.250   0.640  0.3818  1.6993  1.6335
  479MOL0     H64659   4.811   8.312   0.727 -1.7806  0.1768  0.2797
  479MOL0     H64660   4.824   8.172   0.826 -0.2864  3.6695  1.8165
  479MOL0     H64661   5.015   8.078   0.470 -1.2780  3.0762 -2.4458
  479MOL0     H64662   4.231   8.007   0.523  0.8930 -1.9148 -1.1163
  479MOL0     H64663   3.899   7.953   0.476 -1.6615  0.9705  0.2571
  479MOL0     H64664   3.919   8.095   0.593  0.4158  0.2348 -0.1987
  479MOL0     H64665   4.025   8.068   0.461  1.2779 -1.7039  0.9741
  480MOL0     O64666   5.559   4.880   9.719  0.1530  0.3232  0.0144
  480MOL0     C64667   5.563   4.987   9.780  0.8282  0.4135  1.0270
  480MOL0     O64668   5.523   5.008   9.900 -0.1494  0.3100 -0.5484
  480MOL0     C64669   5.468   4.903   9.978  0.1848 -0.0880 -1.0521
  480MOL0     C64670   5.336   4.905  10.010 -0.3081 -0.2262  0.0595
  480MOL0     C64671   5.287   4.808  10.089  0.3056 -0.8096 -0.2368
  480MOL0     C64672   5.368   4.719  10.162 -0.6856  0.5576 -0.7905
  480MOL0     O64673   5.327   4.628  10.256 -0.2512 -0.0899  0.1755
  480MOL0     C64674   5.206   4.548  10.214 -0.1227 -0.4435 -0.4633
  480MOL0     C64675   5.218   4.404  10.272 -0.1955 -0.4969 -0.2765
  480MOL0     C64676   5.226   4.415  10.432 -0.1381 -0.5842  0.6792
  480MOL0     C64677   5.097   4.440  10.506  1.5205 -0.2974 -0.8846
  480MOL0     C64678   5.122   4.453  10.664 -0.4421  0.8887 -0.2024
  480MOL0     C64679   4.986   4.463  10.738 -0.1331  0.7875 -0.1754
  480MOL0     C64680   5.007   4.480  10.887 -0.2210  0.5664  0.1209
  480MOL0     C64681   4.925   4.380  10.966  0.8157 -0.2992  0.9851
  480MOL0     N64682   4.919   4.415  11.111  0.2834  0.1700 -0.0924
  480MOL0     C64683   4.991   4.359  11.215  0.0040  1.2543 -0.2574
  480MOL0     C64684   4.939   4.407  11.329  0.0555 -0.7464 -0.5585
  480MOL0     C64685   4.970   4.386  11.475  0.2002 -0.0564  0.3280
  480MOL0     C64686   5.109   4.431  11.507 -0.6041  0.5838 -0.5114
  480MOL0     C64687   5.140   4.393  11.656  0.4269 -0.9840  1.3053
  480MOL0     C64688   5.064   4.484  11.748  0.0568  0.2540  0.2766
  480MOL0     O64689   5.077   4.438  11.882 -0.5244 -0.1516  0.1059
  480MOL0     C64690   5.058   4.540  11.968  0.4816 -0.8386 -0.1260
  480MOL0     C64691   4.931   4.591  11.996 -0.1661 -0.0598 -0.5710
  480MOL0     C64692   4.911   4.712  12.063  0.0834  0.1491  0.2725
  480MOL0     C64693   5.025   4.779  12.116 -1.2532  1.5445 -0.7348
  480MOL0     C64694   5.014   4.907  12.175 -0.5147  0.4572 -0.5448
  480MOL0     O64695   4.891   4.957  12.191  0.6177  0.7937 -0.4854
  480MOL0     C64696   4.884   5.007  12.318  0.6307 -0.6620 -0.5935
  480MOL0     C64697   4.831   4.932  12.414  0.0129 -0.3086 -0.4468
  480MOL0     C64698   4.815   4.991  12.539  0.8298 -0.0284 -0.7568
  480MOL0     C64699   4.866   5.113  12.576 -0.2550 -0.3177  0.3795
  480MOL0     O64700   4.861   5.155  12.703  0.3090  0.0753 -1.1332
  480MOL0     C64701   4.933   5.270  12.752  0.7344  0.7805 -0.6218
  480MOL0     C64702   5.077   5.243  12.764 -0.1676  0.2475  0.1116
  480MOL0     C64703   5.116   5.143  12.865  0.5273  0.2541  0.6960
  480MOL0     C64704   5.275   5.150  12.865  0.2584  0.2273 -0.2137
  480MOL0     C64705   5.335   5.035  12.955  0.3514  0.2849  0.7437
  480MOL0     C64706   5.487   5.053  12.969  0.0162  0.5963 -0.3624
  480MOL0     C64707   5.543   4.946  13.060 -0.2375  0.6282  0.9287
  480MOL0     C64708   5.575   4.998  13.199 -0.4148  0.0808 -0.1220
  480MOL0    Cl64709   5.422   5.006  13.302  0.0764  0.8719 -0.0114
  480MOL0     C64710   4.924   5.197  12.469  0.7489  0.0472 -0.7141
  480MOL0     C64711   4.923   5.140  12.344  0.2685 -0.3299 -0.6461
  480MOL0     O64712   5.122   4.964  12.199 -0.1604  0.4271  0.0363
  480MOL0     C64713   5.154   4.708  12.112 -0.0610  0.0366  0.9650
  480MOL0     C64714   5.166   4.594  12.030  0.5964 -0.1897 -0.0210
  480MOL0     N64715   4.841   4.495  11.296  0.2862  0.2086 -0.5289
  480MOL0     N64716   4.833   4.500  11.168 -1.1700 -0.2044 -0.7859
  480MOL0     C64717   5.505   4.726  10.145  0.2043  0.3590  0.2570
  480MOL0     C64718   5.557   4.811  10.045  0.1705  0.4410  0.9389
  480MOL0     C64719   5.605   5.107   9.696  0.4254  0.1317 -0.0098
  480MOL0     C64720   5.575   5.236   9.752  0.4392 -0.5099  0.1302
  480MOL0     C64721   5.607   5.355   9.693 -0.1769 -0.1217  0.5190
  480MOL0     C64722   5.667   5.352   9.566 -0.0900  0.7492 -0.5264
  480MOL0     O64723   5.705   5.471   9.503  0.3361  0.0820  0.9163
  480MOL0     C64724   5.823   5.531   9.549 -0.2758  0.2473  0.1756
  480MOL0     C64725   5.882   5.590   9.423 -0.3829  0.8707  0.3776
  480MOL0     C64726   5.929   5.481   9.326 -0.1311 -0.2451  0.0478
  480MOL0     C64727   6.002   5.552   9.210 -0.1439 -0.4045 -0.8774
  480MOL0     C64728   5.928   5.638   9.111  0.0135  0.3075  0.2634
  480MOL0     C64729   5.856   5.692   9.030 -0.7145  0.2281 -0.1908
  480MOL0     C64730   5.708   5.229   9.512  0.4463 -0.2684  0.1057
  480MOL0     C64731   5.672   5.110   9.575  0.0908  0.2851 -0.2342
  480MOL0     C64732   5.717   4.988   9.503 -0.3774  0.2777 -0.5646
  480MOL0     H64733   5.268   4.982   9.972  0.9319  1.1564  0.5465
  480MOL0     H64734   5.180   4.814  10.106  0.6352  2.9373  1.6238
  480MOL0     H64735   5.118   4.597  10.258  1.0785  0.5180  0.9938
  480MOL0     H64736   5.195   4.552  10.106 -2.2858  0.0549 -0.2645
  480MOL0     H64737   5.313   4.364  10.234 -0.7810 -1.0972 -1.1361
  480MOL0     H64738   5.147   4.324  10.249  0.7088 -0.4926 -3.4976
  480MOL0     H64739   5.299   4.494  10.452 -0.1747 -0.3133 -0.2203
  480MOL0     H64740   5.279   4.331  10.479  1.8765 -0.0947 -0.5786
  480MOL0     H64741   5.049   4.533  10.476 -2.8945 -2.0656 -0.0411
  480MOL0     H64742   5.024   4.361  10.486 -1.4942  2.0723  0.0813
  480MOL0     H64743   5.174   4.363  10.698  0.9333  1.6346 -0.2328
  480MOL0     H64744   5.181   4.542  10.691 -3.7477  3.3430 -0.4021
  480MOL0     H64745   4.926   4.543  10.695  0.1219  0.2992 -1.4996
  480MOL0     H64746   4.926   4.373  10.723 -1.0792  1.0815  1.5157
  480MOL0     H64747   5.002   4.586  10.914  2.1857  0.8216 -0.2232
  480MOL0     H64748   5.109   4.445  10.906  0.7950  3.5388  0.6878
  480MOL0     H64749   4.823   4.375  10.926  1.8671  2.3045 -2.4747
  480MOL0     H64750   4.968   4.279  10.968 -0.4344 -0.9327 -1.0851
  480MOL0     H64751   5.075   4.292  11.205 -1.1683  0.0753 -4.0502
  480MOL0     H64752   4.896   4.438  11.536 -0.3901 -0.6184  0.0938
  480MOL0     H64753   4.954   4.279  11.492  1.3276 -0.1921  0.6118
  480MOL0     H64754   5.177   4.371  11.447  0.0081  2.5310 -1.8876
  480MOL0     H64755   5.116   4.540  11.496  0.6091  0.6307  0.5672
  480MOL0     H64756   5.246   4.403  11.684 -0.0097 -2.7012  3.9841
  480MOL0     H64757   5.113   4.291  11.684 -2.0258 -0.8943 -0.4178
  480MOL0     H64758   4.957   4.464  11.737 -0.4646  1.5919  2.3205
  480MOL0     H64759   5.092   4.589  11.732 -1.1022  0.5933  0.3966
  480MOL0     H64760   4.841   4.546  11.956 -1.3199  1.4864  0.1572
  480MOL0     H64761   4.817   4.767  12.064 -1.1440 -1.7978 -1.4512
  480MOL0     H64762   4.798   4.830  12.397 -2.3752 -0.4584  3.8526
  480MOL0     H64763   4.766   4.934  12.618  0.0415 -1.9196 -2.4927
  480MOL0     H64764   4.921   5.358  12.688 -2.1468 -0.7848 -2.4585
  480MOL0     H64765   4.876   5.284  12.844  0.2250  0.6614 -0.9156
  480MOL0     H64766   5.111   5.199  12.671 -3.2090 -0.7484 -0.6587
  480MOL0     H64767   5.135   5.329  12.798 -0.6293 -0.1180  1.9729
  480MOL0     H64768   5.086   5.171  12.967  0.9250  0.5814  0.7244
  480MOL0     H64769   5.070   5.047  12.840 -0.2396  0.4303  1.3721
  480MOL0     H64770   5.310   5.242  12.912 -1.2829  0.7027  0.0382
  480MOL0     H64771   5.310   5.139  12.762  2.0567 -0.5292  0.4400
  480MOL0     H64772   5.298   4.946  12.902 -6.2488  3.8894 -1.8723
  480MOL0     H64773   5.282   5.039  13.050  0.0471 -2.6938  0.7932
  480MOL0     H64774   5.536   5.050  12.871 -0.9461 -1.2887 -0.8393
  480MOL0     H64775   5.494   5.151  13.017 -0.9063  0.8313 -0.6722
  480MOL0     H64776   5.637   4.917  13.013 -1.4966  1.1806 -2.1501
  480MOL0     H64777   5.484   4.853  13.056  1.9857 -0.9322  2.2973
  480MOL0     H64778   5.651   4.941  13.253 -0.0944  1.5054  0.9885
  480MOL0     H64779   5.618   5.098  13.206  2.1924 -1.0752  2.4953
  480MOL0     H64780   4.957   5.300  12.468  1.4639 -0.1503  0.2722
  480MOL0     H64781   4.962   5.199  12.262  0.9743  0.6681  0.3647
  480MOL0     H64782   5.245   4.753  12.150 -1.3115  2.7430  0.9347
  480MOL0     H64783   5.262   4.557  11.997 -0.4504 -1.6278 -1.5892
  480MOL0     H64784   5.573   4.665  10.205 -0.2518  0.2376  0.6525
  480MOL0     H64785   5.661   4.806  10.014  0.0560  1.8284  0.2687
  480MOL0     H64786   5.507   5.244   9.837  0.8687 -0.0083  0.4383
  480MOL0     H64787   5.566   5.448   9.732 -1.1844 -0.2786 -0.1430
  480MOL0     H64788   5.890   5.452   9.584  1.8212 -0.0484 -3.8361
  480MOL0     H64789   5.806   5.596   9.635 -2.1037 -3.9055  3.3277
  480MOL0     H64790   5.972   5.647   9.448  1.7033 -0.1671 -3.8448
  480MOL0     H64791   5.811   5.650   9.366  1.8100  1.1286 -2.3338
  480MOL0     H64792   5.849   5.411   9.301 -2.1445  1.6131  0.8693
  480MOL0     H64793   6.004   5.430   9.386  1.7058  1.8883 -0.2982
  480MOL0     H64794   6.088   5.601   9.254  0.1087 -0.1364 -1.6486
  480MOL0     H64795   6.058   5.473   9.158  1.6943  0.2493  0.0620
  480MOL0     H64796   5.792   5.749   8.966 -2.2116 -0.8665  0.2861
  480MOL0     H64797   5.766   5.217   9.421  0.2020 -3.2267  0.2462
  480MOL0     H64798   5.760   4.912   9.569 -3.1317 -0.4550  0.5145
  480MOL0     H64799   5.629   4.939   9.460 -1.6301 -0.5386  2.6629
  480MOL0     H64800   5.782   5.019   9.421  1.2169  2.5304  1.4283
  481MOL0     O64801   0.266  11.261  10.024  0.6225  0.1856 -0.4799
  481MOL0     C64802   0.248  11.178  10.110  0.3484  0.4191  0.2686
  481MOL0     O64803   0.333  11.159  10.219 -0.2083 -0.0950 -0.2518
  481MOL0     C64804   0.437  11.245  10.258 -0.3171 -0.1581  0.9369
  481MOL0     C64805   0.492  11.228  10.385 -0.2449  0.0056  0.4382
  481MOL0     C64806   0.584  11.310  10.442 -0.0984 -0.0651  0.6558
  481MOL0     C64807   0.643  11.413  10.360  0.8617 -0.2249  0.4481
  481MOL0     O64808   0.707  11.514  10.434 -0.3158 -0.1529  0.3358
  481MOL0     C64809   0.783  11.610  10.357  0.2043  0.6562 -0.0534
  481MOL0     C64810   0.894  11.626  10.447 -0.7786 -0.2336  0.5695
  481MOL0     C64811   0.965  11.761  10.420  0.7561 -0.8134 -0.1377
  481MOL0     C64812   1.075  11.755  10.317  0.0741 -0.7966  0.7022
  481MOL0     C64813   1.128  11.886  10.271  0.1649  0.4971  0.6766
  481MOL0     C64814   1.204  11.947  10.395  0.8049 -0.1875  0.0844
  481MOL0     C64815   1.282  12.072  10.368  0.7753  1.0473  0.0485
  481MOL0     C64816   1.411  12.054  10.284 -0.2615 -0.0783 -0.7290
  481MOL0     N64817   1.498  12.172  10.282 -0.2377  0.1508  0.0481
  481MOL0     C64818   1.620  12.176  10.352 -0.3139  0.8309  0.0626
  481MOL0     C64819   1.665  12.298  10.329 -0.2019 -0.5923  0.5660
  481MOL0     C64820   1.794  12.358  10.370 -1.1534  0.0164 -0.0015
  481MOL0     C64821   1.884  12.248  10.420 -0.5294 -0.5262 -0.5255
  481MOL0     C64822   2.032  12.293  10.404 -0.7120  0.0268 -0.5402
  481MOL0     C64823   2.124  12.197  10.474  0.1889  0.8421 -0.1631
  481MOL0     O64824   2.164  12.078  10.405 -0.1364 -0.1842  0.1640
  481MOL0     C64825   2.187  11.960  10.466 -0.3840 -0.6170  0.6744
  481MOL0     C64826   2.163  11.841  10.390  0.8332 -0.4083  0.3856
  481MOL0     C64827   2.176  11.711  10.443  0.2981 -0.7983  0.1800
  481MOL0     C64828   2.221  11.704  10.582 -0.0088  0.4108 -0.0964
  481MOL0     C64829   2.218  11.580  10.647 -0.8944  0.1957  1.2223
  481MOL0     O64830   2.209  11.466  10.574  0.3611 -0.1893 -0.0252
  481MOL0     C64831   2.229  11.340  10.625  0.4858  0.7282 -0.6874
  481MOL0     C64832   2.297  11.302  10.750 -0.5407  0.6663  0.3609
  481MOL0     C64833   2.295  11.172  10.792  0.7762  0.1893  0.2489
  481MOL0     C64834   2.203  11.076  10.738 -0.6338 -0.3358 -0.1203
  481MOL0     O64835   2.204  10.948  10.776 -0.6224  0.3263 -0.1053
  481MOL0     C64836   2.268  10.900  10.896  0.0016  0.3570  0.0437
  481MOL0     C64837   2.388  10.820  10.854 -0.1185 -0.4376  0.2383
  481MOL0     C64838   2.518  10.896  10.796  0.6866 -0.5911 -0.9856
  481MOL0     C64839   2.649  10.825  10.816 -0.9698  0.0680 -0.0473
  481MOL0     C64840   2.770  10.915  10.779 -0.1166 -0.7481  0.1765
  481MOL0     C64841   2.886  10.824  10.744 -0.5216 -1.0187  0.3189
  481MOL0     C64842   3.020  10.906  10.730 -0.5332  0.1496 -0.5845
  481MOL0     C64843   3.108  10.862  10.609  1.2201 -0.3608  0.3157
  481MOL0    Cl64844   3.244  10.959  10.573  0.2413  0.4932 -0.1232
  481MOL0     C64845   2.129  11.112  10.620 -0.9550 -0.2085  0.7515
  481MOL0     C64846   2.156  11.237  10.565  0.6252 -0.4389  0.3550
  481MOL0     O64847   2.224  11.588  10.764  0.5684  0.3385 -0.2840
  481MOL0     C64848   2.252  11.825  10.648  0.4283 -0.6362  0.7854
  481MOL0     C64849   2.235  11.950  10.594  0.2009  0.0207  0.6074
  481MOL0     N64850   1.571  12.363  10.254 -0.5351 -0.1330  0.0971
  481MOL0     N64851   1.476  12.292  10.228 -0.0127  0.6580 -0.3267
  481MOL0     C64852   0.597  11.433  10.228 -0.4443  0.6145 -0.0736
  481MOL0     C64853   0.500  11.344  10.172  0.4354 -0.2405  0.1595
  481MOL0     C64854   0.140  11.079  10.087  0.4225  0.5211  0.2623
  481MOL0     C64855   0.098  11.005  10.194  1.4394 -0.2604 -0.9991
  481MOL0     C64856   0.004  10.908  10.183  0.1819 -0.9159  0.1652
  481MOL0     C64857  -0.070  10.895  10.072  0.3462  0.1385  0.3623
  481MOL0     O64858  -0.171  10.800  10.075  0.1490 -0.9319  0.1593
  481MOL0     C64859  -0.277  10.821  10.168 -0.4978 -0.5479 -0.0905
  481MOL0     C64860  -0.410  10.851  10.105  0.7335 -1.0668 -0.0983
  481MOL0     C64861  -0.441  10.722  10.026 -0.5424  0.7083  0.2257
  481MOL0     C64862  -0.588  10.704   9.991  0.1554  0.1630  0.1535
  481MOL0     C64863  -0.666  10.666  10.109  0.3064 -0.4154  0.5027
  481MOL0     C64864  -0.733  10.654  10.210 -0.0470 -0.3626 -0.3982
  481MOL0     C64865  -0.041  10.980   9.969  0.8313 -0.2539  0.4356
  481MOL0     C64866   0.076  11.050   9.964 -0.4510 -0.2572  0.7127
  481MOL0     C64867   0.108  11.124   9.830  0.0118 -0.6705 -0.2877
  481MOL0     H64868   0.449  11.148  10.443  0.0280 -0.4605  0.0017
  481MOL0     H64869   0.618  11.296  10.545 -0.9968  0.2815  1.0131
  481MOL0     H64870   0.803  11.569  10.258 -5.7855 -2.8043 -0.3167
  481MOL0     H64871   0.718  11.698  10.355  0.7716  1.2525  2.9740
  481MOL0     H64872   0.960  11.539  10.441 -0.9952 -0.4289  0.9473
  481MOL0     H64873   0.857  11.637  10.550  0.3771  2.3279  0.7760
  481MOL0     H64874   1.023  11.793  10.507  1.4101  2.8571 -1.7518
  481MOL0     H64875   0.896  11.845  10.407  1.0022 -0.5796  0.0481
  481MOL0     H64876   1.158  11.688  10.343  1.6053 -0.4854 -2.8883
  481MOL0     H64877   1.028  11.715  10.227 -1.4271 -0.5937  1.3627
  481MOL0     H64878   1.200  11.877  10.189  0.3019 -0.1684  0.8659
  481MOL0     H64879   1.041  11.945  10.239  0.3096  0.3621  0.0164
  481MOL0     H64880   1.134  11.959  10.478 -1.2335 -0.9736 -1.4239
  481MOL0     H64881   1.278  11.872  10.426  1.0110 -0.6875 -1.4889
  481MOL0     H64882   1.303  12.122  10.463 -2.5902  1.8777  0.4956
  481MOL0     H64883   1.202  12.134  10.326 -1.4115 -0.2534  1.9935
  481MOL0     H64884   1.457  11.961  10.317 -1.1023 -1.0202 -2.0712
  481MOL0     H64885   1.392  12.033  10.178  0.5450 -3.3844 -0.3236
  481MOL0     H64886   1.653  12.097  10.419 -0.4666  0.5709 -0.1673
  481MOL0     H64887   1.846  12.415  10.292  1.5725  0.4678  1.9865
  481MOL0     H64888   1.779  12.422  10.457  2.8911 -0.4416  1.2802
  481MOL0     H64889   1.858  12.233  10.525  0.6411  2.2446  0.2633
  481MOL0     H64890   1.875  12.150  10.374 -0.0598 -1.2110  0.7886
  481MOL0     H64891   2.044  12.394  10.445  0.9915  0.1644 -1.3081
  481MOL0     H64892   2.055  12.300  10.298 -0.9644  2.9639 -0.4847
  481MOL0     H64893   2.074  12.164  10.566 -0.6646  0.0867 -0.8867
  481MOL0     H64894   2.214  12.257  10.491  1.0108  0.5424 -2.9954
  481MOL0     H64895   2.140  11.857  10.285 -1.0158  0.9785  0.9392
  481MOL0     H64896   2.141  11.622  10.393 -0.5306  0.3557 -1.3757
  481MOL0     H64897   2.345  11.376  10.812 -0.8678  0.1924  1.2040
  481MOL0     H64898   2.367  11.151  10.871  0.8270  1.2374  0.4933
  481MOL0     H64899   2.300  10.982  10.961 -4.5647  2.8736 -0.5162
  481MOL0     H64900   2.203  10.843  10.962 -0.5104  3.2504  2.2879
  481MOL0     H64901   2.417  10.771  10.947  0.9475  1.2100  0.8221
  481MOL0     H64902   2.353  10.741  10.786  1.1512 -1.8022  1.1196
  481MOL0     H64903   2.497  10.927  10.694  0.0779 -1.2967 -1.0785
  481MOL0     H64904   2.515  10.996  10.838 -1.2160 -1.2956  0.7299
  481MOL0     H64905   2.648  10.730  10.761  0.6349  0.1067 -0.2147
  481MOL0     H64906   2.667  10.805  10.922 -1.4673 -5.1299 -0.6976
  481MOL0     H64907   2.780  10.989  10.859  1.7276 -2.7954  1.9671
  481MOL0     H64908   2.752  10.979  10.692 -0.2715 -2.3515 -1.0108
  481MOL0     H64909   2.891  10.759  10.831 -0.3973  0.3303  1.3555
  481MOL0     H64910   2.855  10.782  10.648 -2.9265  0.2082  0.4557
  481MOL0     H64911   3.070  10.879  10.823 -0.9042 -1.3127 -0.7801
  481MOL0     H64912   3.005  11.013  10.744 -3.7072 -0.1827 -0.7150
  481MOL0     H64913   3.142  10.759  10.612 -2.3745 -1.8351 -2.3452
  481MOL0     H64914   3.037  10.850  10.527  0.8796 -2.1035  0.8205
  481MOL0     H64915   2.060  11.040  10.578 -0.2277 -1.2840  1.3753
  481MOL0     H64916   2.100  11.268  10.477  1.4691 -1.2882 -0.4924
  481MOL0     H64917   2.287  11.832  10.750 -1.9819  0.1734  1.6375
  481MOL0     H64918   2.247  12.036  10.659  0.2875  0.7549 -0.3604
  481MOL0     H64919   0.627  11.517  10.166  3.2750  0.0382  0.7132
  481MOL0     H64920   0.469  11.359  10.069 -0.9390  1.3827  0.7544
  481MOL0     H64921   0.146  11.029  10.289  0.7468 -3.9142  0.4160
  481MOL0     H64922  -0.017  10.855  10.276 -1.0727  0.8013  0.9331
  481MOL0     H64923  -0.236  10.903  10.227  1.3228  0.2396 -2.2895
  481MOL0     H64924  -0.281  10.738  10.238  0.5271 -0.3349  0.2347
  481MOL0     H64925  -0.424  10.924  10.025 -1.4688 -2.6522 -1.2692
  481MOL0     H64926  -0.482  10.878  10.183  0.4228  0.5886 -0.9167
  481MOL0     H64927  -0.405  10.629  10.072  1.2969  1.2678 -0.0085
  481MOL0     H64928  -0.400  10.730   9.925 -0.8133  1.3000  0.1613
  481MOL0     H64929  -0.625  10.791   9.936 -4.0469 -1.7116 -0.3522
  481MOL0     H64930  -0.609  10.623   9.920  0.2469 -2.1291  2.5678
  481MOL0     H64931  -0.801  10.670  10.291  0.2324 -1.9933  0.1995
  481MOL0     H64932  -0.110  10.971   9.886  0.5676  1.7785  0.3886
  481MOL0     H64933   0.026  11.104   9.761 -2.2056  1.6547  1.4315
  481MOL0     H64934   0.112  11.233   9.842  2.7473 -0.9175  2.1275
  481MOL0     H64935   0.202  11.083   9.795  0.0087 -2.2367  1.3950
  482MOL0     O64936   4.050   7.720   2.758 -0.0275 -1.0804  0.6095
  482MOL0     C64937   3.931   7.695   2.736 -0.0268 -0.0897  1.4295
  482MOL0     O64938   3.868   7.716   2.615  0.1985 -0.0984 -0.1029
  482MOL0     C64939   3.935   7.804   2.535  0.5282  0.3122 -0.3802
  482MOL0     C64940   3.968   7.936   2.576 -0.6392  0.4485  0.1652
  482MOL0     C64941   4.066   8.010   2.506 -0.1157  0.4367 -0.0618
  482MOL0     C64942   4.124   7.959   2.389  0.2449 -0.4671  0.0917
  482MOL0     O64943   4.223   8.030   2.325  1.1352  0.2037  0.1158
  482MOL0     C64944   4.178   8.112   2.219 -0.4944  0.4991 -0.4845
  482MOL0     C64945   4.141   8.247   2.274 -0.7146 -0.2949 -0.3595
  482MOL0     C64946   4.104   8.355   2.180 -0.1952  0.2830 -0.3017
  482MOL0     C64947   4.172   8.359   2.040  0.0239 -0.7202 -0.7947
  482MOL0     C64948   4.087   8.434   1.939  0.2040  0.2918 -0.1585
  482MOL0     C64949   4.022   8.563   1.983 -0.6237 -0.1680  1.3956
  482MOL0     C64950   3.955   8.644   1.872  0.2873 -0.0820  0.3457
  482MOL0     C64951   4.052   8.738   1.814 -0.4208  0.7057  0.4297
  482MOL0     N64952   3.995   8.814   1.707 -0.1116  0.1624  1.0296
  482MOL0     C64953   3.941   8.941   1.716 -0.1501  0.3258 -0.3753
  482MOL0     C64954   3.912   8.969   1.589  0.4805  0.3801  1.0684
  482MOL0     C64955   3.846   9.085   1.518 -0.4548 -0.3874 -0.1779
  482MOL0     C64956   3.921   9.142   1.399 -0.3740  0.4155  0.1126
  482MOL0     C64957   3.840   9.153   1.268  0.2653  0.1297  0.6573
  482MOL0     C64958   3.875   9.038   1.167 -0.7252  0.5277 -0.3532
  482MOL0     O64959   3.789   9.039   1.046 -0.1810 -0.1968  0.6917
  482MOL0     C64960   3.815   9.121   0.941 -0.6115 -0.4642  0.8691
  482MOL0     C64961   3.936   9.199   0.922  0.2034  0.4094 -0.0998
  482MOL0     C64962   3.946   9.293   0.818  0.8605  0.5414  1.3864
  482MOL0     C64963   3.829   9.307   0.729  0.1187  0.3116  0.5229
  482MOL0     C64964   3.828   9.406   0.611 -0.3288 -0.8597  0.4883
  482MOL0     O64965   3.744   9.377   0.505  0.1794  0.2507  0.2336
  482MOL0     C64966   3.762   9.465   0.403  0.9969 -0.3172  0.1828
  482MOL0     C64967   3.662   9.572   0.392 -0.2795  0.6752 -0.0508
  482MOL0     C64968   3.688   9.667   0.293  0.0620 -0.0034 -0.6776
  482MOL0     C64969   3.780   9.650   0.198 -0.3966  0.6031 -0.2892
  482MOL0     O64970   3.805   9.745   0.100  0.7068 -0.7122  0.3895
  482MOL0     C64971   3.750   9.884   0.110  0.0691 -0.0505  0.5120
  482MOL0     C64972   3.785   9.957  -0.019  0.4042  0.5885 -0.1777
  482MOL0     C64973   3.918  10.018  -0.025 -0.0876 -0.7535  0.1794
  482MOL0     C64974   3.921  10.152   0.063  0.2363  0.4528 -0.6951
  482MOL0     C64975   4.043  10.234   0.036  0.3275  0.1455 -0.1923
  482MOL0     C64976   4.028  10.351  -0.059  0.1467  0.0818  0.5420
  482MOL0     C64977   4.130  10.456  -0.056 -0.7805 -0.0760  0.9067
  482MOL0     C64978   4.136  10.526   0.083 -0.2158  0.5847 -0.4077
  482MOL0    Cl64979   3.983  10.555   0.161 -0.4103  0.4173  0.4678
  482MOL0     C64980   3.872   9.538   0.197  0.5749  0.2750  0.0480
  482MOL0     C64981   3.868   9.456   0.313 -0.7961 -0.3788  0.1249
  482MOL0     O64982   3.905   9.504   0.618  1.0333 -0.4788 -0.0158
  482MOL0     C64983   3.710   9.227   0.743 -1.1559 -0.5485  0.2936
  482MOL0     C64984   3.709   9.134   0.849  1.0880  0.9779  0.3915
  482MOL0     N64985   3.959   8.870   1.504  0.0154  0.3033  0.4152
  482MOL0     N64986   4.007   8.774   1.580 -0.0896 -0.8288  0.2400
  482MOL0     C64987   4.085   7.828   2.346  0.0638 -0.5532  0.0465
  482MOL0     C64988   3.993   7.754   2.419 -0.2080  0.1183  0.4137
  482MOL0     C64989   3.844   7.638   2.835  0.6340  0.1860  1.0502
  482MOL0     C64990   3.712   7.702   2.846 -0.6731  0.8592  0.6167
  482MOL0     C64991   3.609   7.651   2.929 -1.0410 -0.8718 -0.6555
  482MOL0     C64992   3.638   7.536   2.999 -0.1200 -0.5655  0.0230
  482MOL0     O64993   3.532   7.481   3.069 -0.1326  1.0799  0.3547
  482MOL0     C64994   3.567   7.399   3.189  0.6647 -0.2425 -0.0250
  482MOL0     C64995   3.562   7.246   3.164  0.4551 -0.2142  0.1085
  482MOL0     C64996   3.525   7.160   3.287 -0.5855  0.3569  0.3741
  482MOL0     C64997   3.387   7.174   3.368 -0.9937 -0.5426 -0.4925
  482MOL0     C64998   3.291   7.108   3.296  0.0370 -0.7855  0.6641
  482MOL0     C64999   3.189   7.054   3.251  0.3177  0.1975  0.2521
  482MOL0     C65000   3.764   7.474   2.987  0.4948 -0.6986  0.0897
  482MOL0     C65001   3.870   7.520   2.908  0.5728 -1.4430 -0.4631
  482MOL0     C65002   4.012   7.453   2.903  0.3044  0.7675  0.0491
  482MOL0     H65003   3.914   7.964   2.665 -0.1525  1.6958  0.0892
  482MOL0     H65004   4.095   8.103   2.553  2.6141  1.1624 -2.8841
  482MOL0     H65005   4.266   8.129   2.157 -0.6197 -0.1103 -0.8393
  482MOL0     H65006   4.098   8.062   2.163 -1.5966  0.7229  0.8372
  482MOL0     H65007   4.219   8.285   2.341 -0.8941 -0.2925 -0.1514
  482MOL0     H65008   4.063   8.238   2.350  0.5268 -0.6152  0.9367
  482MOL0     H65009   4.128   8.451   2.226  0.6231  0.5732 -1.2816
  482MOL0     H65010   3.995   8.354   2.168 -0.2443  2.8279 -0.5959
  482MOL0     H65011   4.268   8.410   2.052 -1.1707  1.6395 -0.6450
  482MOL0     H65012   4.183   8.259   1.998 -1.2394  0.4434 -4.2495
  482MOL0     H65013   4.141   8.444   1.845  2.0442 -0.6045  0.7353
  482MOL0     H65014   4.001   8.369   1.921 -2.4121  2.2626  3.6140
  482MOL0     H65015   3.942   8.543   2.055  0.0324 -0.0114  2.1828
  482MOL0     H65016   4.093   8.630   2.031 -2.0271  1.4888  1.2500
  482MOL0     H65017   3.870   8.689   1.925 -0.2613 -3.3735  2.5243
  482MOL0     H65018   3.918   8.577   1.793  1.8563  0.9067 -1.3005
  482MOL0     H65019   4.078   8.810   1.893  4.8165  3.4690 -3.1944
  482MOL0     H65020   4.138   8.676   1.789  1.3660  2.0820  2.6908
  482MOL0     H65021   3.927   9.001   1.805 -0.5779  0.3575 -0.4642
  482MOL0     H65022   3.749   9.052   1.481 -0.5075  2.1434 -2.6652
  482MOL0     H65023   3.835   9.166   1.592  1.9793  0.3802 -0.5424
  482MOL0     H65024   3.940   9.248   1.417 -0.6554  0.8690 -2.0344
  482MOL0     H65025   4.018   9.093   1.387 -2.4170 -4.1940  0.1555
  482MOL0     H65026   3.873   9.248   1.226  1.5045 -1.3931 -2.0550
  482MOL0     H65027   3.732   9.169   1.270 -0.1901 -0.9691 -4.1482
  482MOL0     H65028   3.847   8.943   1.213  0.0120 -0.3712 -1.7034
  482MOL0     H65029   3.980   9.046   1.138 -0.3692 -2.6573 -0.2392
  482MOL0     H65030   4.010   9.202   1.002 -0.5077  2.6204  0.5468
  482MOL0     H65031   4.023   9.369   0.807 -0.7309  2.0562  0.0520
  482MOL0     H65032   3.586   9.573   0.469  0.1930 -2.0075  0.5592
  482MOL0     H65033   3.620   9.751   0.287  0.2814  0.2676  0.5167
  482MOL0     H65034   3.641   9.875   0.120 -0.0827  0.8447 -0.2214
  482MOL0     H65035   3.798   9.943   0.189  2.0983  1.4472 -1.7235
  482MOL0     H65036   3.776   9.883  -0.099 -0.0060 -0.9280  1.2373
  482MOL0     H65037   3.712  10.033  -0.049  0.7119 -0.5145 -4.3854
  482MOL0     H65038   3.994   9.950   0.014  0.5317 -0.7416 -0.9575
  482MOL0     H65039   3.953  10.045  -0.125  1.1380 -2.0542  0.2229
  482MOL0     H65040   3.916  10.123   0.169  3.5717 -0.5427 -0.6918
  482MOL0     H65041   3.833  10.213   0.043 -1.8144 -2.6104 -1.7002
  482MOL0     H65042   4.126  10.182  -0.014  1.2864  0.6426  0.8297
  482MOL0     H65043   4.084  10.269   0.132 -2.5956 -1.2252  1.7177
  482MOL0     H65044   4.045  10.306  -0.157  1.2014  1.6985 -0.0562
  482MOL0     H65045   3.930  10.400  -0.057 -0.5437 -1.2467  0.3103
  482MOL0     H65046   4.118  10.536  -0.130 -0.4559  0.0624  0.9992
  482MOL0     H65047   4.224  10.405  -0.078 -0.3424  0.8522  0.5579
  482MOL0     H65048   4.196  10.461   0.147  0.8445  2.4272  0.5617
  482MOL0     H65049   4.198  10.616   0.089 -1.2275  1.2501  0.3544
  482MOL0     H65050   3.944   9.521   0.117  1.5467  1.5308  0.6162
  482MOL0     H65051   3.946   9.380   0.313  1.5769  1.7513  3.5578
  482MOL0     H65052   3.622   9.229   0.680 -1.2839 -3.0389  0.3039
  482MOL0     H65053   3.627   9.063   0.856  4.9043 -4.0229 -0.1394
  482MOL0     H65054   4.120   7.791   2.251 -0.9474  4.0572 -2.4219
  482MOL0     H65055   3.970   7.653   2.384  3.1734 -2.2036  4.0478
  482MOL0     H65056   3.687   7.789   2.786 -0.5187  0.5238  0.0599
  482MOL0     H65057   3.513   7.699   2.938 -1.2816 -1.5316  0.5539
  482MOL0     H65058   3.496   7.418   3.270  1.3416 -2.3246  1.1324
  482MOL0     H65059   3.666   7.426   3.226  0.7264  3.0389 -2.1769
  482MOL0     H65060   3.654   7.207   3.119 -1.7988 -0.5284 -4.9599
  482MOL0     H65061   3.482   7.233   3.090 -0.0684  4.4825 -0.4445
  482MOL0     H65062   3.603   7.177   3.361  0.3443 -0.1352 -0.4776
  482MOL0     H65063   3.544   7.056   3.263  1.1725  0.6029  0.6171
  482MOL0     H65064   3.402   7.126   3.465  2.4615  2.0399  0.4519
  482MOL0     H65065   3.367   7.282   3.368  2.7343  0.3584 -3.2374
  482MOL0     H65066   3.112   7.012   3.189 -0.1426  1.6115 -0.1676
  482MOL0     H65067   3.788   7.385   3.043  1.5175 -2.6039 -3.1092
  482MOL0     H65068   4.004   7.346   2.923 -0.1931  1.0902  1.8284
  482MOL0     H65069   4.070   7.467   2.812  0.4517 -1.2129 -0.1956
  482MOL0     H65070   4.070   7.492   2.987  0.7078 -1.1300  0.6927
  483MOL0     O65071   8.313   7.158   5.041  0.4768  0.2763 -0.3005
  483MOL0     C65072   8.229   7.193   5.130 -0.6446 -0.2529  0.9251
  483MOL0     O65073   8.149   7.303   5.121 -0.0581 -0.4676 -0.7019
  483MOL0     C65074   8.150   7.391   5.010  1.4649 -0.3576  0.1443
  483MOL0     C65075   8.026   7.427   4.962  0.3419  0.4471  0.4624
  483MOL0     C65076   8.004   7.525   4.848 -1.0356 -0.7332 -0.1950
  483MOL0     C65077   8.121   7.579   4.801 -0.9836 -0.9524 -0.8956
  483MOL0     O65078   8.113   7.663   4.694  0.2159  0.3424  0.5661
  483MOL0     C65079   8.133   7.588   4.574  0.3279  0.2376  0.2958
  483MOL0     C65080   8.153   7.695   4.468  0.7199  0.0754 -0.6324
  483MOL0     C65081   8.020   7.717   4.386 -0.0865  0.1898 -0.2881
  483MOL0     C65082   8.039   7.829   4.280  0.4973  0.8293  0.1540
  483MOL0     C65083   7.931   7.819   4.171  0.2856  0.0720 -0.4426
  483MOL0     C65084   7.791   7.876   4.218 -0.6761 -0.4119 -0.0360
  483MOL0     C65085   7.672   7.811   4.151  0.1839  0.1331  0.3079
  483MOL0     C65086   7.657   7.826   3.999  0.7735 -0.0897 -0.3760
  483MOL0     N65087   7.529   7.789   3.950 -0.2478 -1.2629  0.4054
  483MOL0     C65088   7.478   7.678   3.910 -0.3104  0.1924  1.1620
  483MOL0     C65089   7.355   7.697   3.863 -0.3396 -0.3660 -1.0618
  483MOL0     C65090   7.282   7.596   3.789  0.4833  0.1609 -1.0100
  483MOL0     C65091   7.152   7.574   3.867  0.4719  0.0069 -0.0206
  483MOL0     C65092   7.049   7.479   3.792 -0.4506  0.3427  0.0744
  483MOL0     C65093   6.920   7.443   3.875  0.0696 -0.7633 -0.5225
  483MOL0     O65094   6.834   7.363   3.799  0.0238 -0.3355 -0.1729
  483MOL0     C65095   6.705   7.350   3.850  0.8100 -0.5874  0.9465
  483MOL0     C65096   6.680   7.349   3.983  0.1803  0.2941  0.0662
  483MOL0     C65097   6.554   7.309   4.040 -0.4953  0.1749  0.8101
  483MOL0     C65098   6.451   7.291   3.949 -0.4410  0.1167  0.3121
  483MOL0     C65099   6.315   7.241   3.987 -0.0217  0.0485  0.1128
  483MOL0     O65100   6.274   7.122   3.923 -0.7025  0.1616  0.1198
  483MOL0     C65101   6.162   7.063   3.967 -0.3825 -0.0366  0.0620
  483MOL0     C65102   6.172   6.923   3.978  0.5606  0.2757 -0.0495
  483MOL0     C65103   6.054   6.848   4.007 -0.3050  0.0725  0.7231
  483MOL0     C65104   5.936   6.917   4.026 -0.7952 -0.4055 -0.4024
  483MOL0     O65105   5.826   6.845   4.067  0.0434  0.4155  0.2233
  483MOL0     C65106   5.702   6.903   4.108  0.2090 -0.4904 -0.4614
  483MOL0     C65107   5.589   6.793   4.147 -0.6498  0.3413  0.0849
  483MOL0     C65108   5.442   6.844   4.162  0.1495  0.4350 -0.5280
  483MOL0     C65109   5.401   6.916   4.041  0.1190 -0.1199  0.2721
  483MOL0     C65110   5.270   7.002   4.068 -0.5386  0.1155 -0.7304
  483MOL0     C65111   5.228   7.080   3.944  0.3005  0.2911 -0.4139
  483MOL0     C65112   5.087   7.136   3.957  0.2379 -0.2603 -0.4171
  483MOL0     C65113   5.062   7.235   4.077 -0.4643  0.3707 -0.0609
  483MOL0    Cl65114   4.889   7.277   4.098 -0.3650  0.0579 -0.0023
  483MOL0     C65115   5.937   7.060   4.012  0.4843  0.6320 -0.1978
  483MOL0     C65116   6.045   7.130   3.982 -0.1611  0.4704 -0.1811
  483MOL0     O65117   6.271   7.292   4.092 -0.2506 -0.2106 -0.4216
  483MOL0     C65118   6.479   7.283   3.813  0.1818  0.9133  0.2490
  483MOL0     C65119   6.604   7.317   3.762  0.2665 -0.7727  0.1943
  483MOL0     N65120   7.323   7.827   3.888  0.0577 -0.0053  0.4405
  483MOL0     N65121   7.431   7.882   3.932  0.4711  0.1183 -1.0409
  483MOL0     C65122   8.248   7.538   4.851  0.3083 -0.4820  0.0832
  483MOL0     C65123   8.259   7.430   4.938 -0.5545 -0.2224 -0.3101
  483MOL0     C65124   8.203   7.120   5.252 -0.1030  0.3946 -0.8020
  483MOL0     C65125   8.072   7.124   5.296  0.3288  0.4126 -0.0034
  483MOL0     C65126   8.027   7.059   5.407  0.3191 -0.4574 -0.9907
  483MOL0     C65127   8.113   6.973   5.482 -0.0317 -0.5690 -0.1217
  483MOL0     O65128   8.052   6.900   5.581 -0.3271 -0.4410 -0.2502
  483MOL0     C65129   8.023   6.981   5.699 -0.4696  0.6643 -0.2778
  483MOL0     C65130   8.140   7.003   5.797 -0.6826  0.1936 -0.2633
  483MOL0     C65131   8.093   7.062   5.930 -1.1697  0.3743  0.1452
  483MOL0     C65132   8.203   7.099   6.038  0.3410 -0.7238 -0.4130
  483MOL0     C65133   8.148   7.162   6.163 -0.3818  0.0752 -0.4655
  483MOL0     C65134   8.116   7.199   6.273 -0.4788 -0.5518  1.0932
  483MOL0     C65135   8.249   6.964   5.436  0.1759 -0.0674 -0.3520
  483MOL0     C65136   8.295   7.033   5.317 -0.7545 -0.6346 -0.6801
  483MOL0     C65137   8.438   7.013   5.268  0.0462  0.5880  0.7526
  483MOL0     H65138   7.944   7.375   5.010 -0.2966 -0.7866 -1.8097
  483MOL0     H65139   7.906   7.553   4.813 -0.5741  0.0519 -0.8876
  483MOL0     H65140   8.220   7.521   4.571  0.0520 -0.1421 -3.1589
  483MOL0     H65141   8.041   7.531   4.557  0.4721  0.3042 -0.7663
  483MOL0     H65142   8.240   7.679   4.404 -0.0904  0.2574 -1.8104
  483MOL0     H65143   8.176   7.794   4.509  1.5573  0.1626 -1.3023
  483MOL0     H65144   7.941   7.740   4.459 -1.0963 -1.7106 -0.7338
  483MOL0     H65145   7.992   7.628   4.330 -1.0761  0.1099  0.3011
  483MOL0     H65146   8.041   7.925   4.333 -2.2192  0.6101  0.7929
  483MOL0     H65147   8.139   7.803   4.244  1.0166  0.2636  1.9008
  483MOL0     H65148   7.961   7.867   4.077  0.0203 -1.4357 -1.3155
  483MOL0     H65149   7.905   7.716   4.146  3.3133 -1.8291  3.2051
  483MOL0     H65150   7.783   7.848   4.324 -0.6143  2.2027  0.7369
  483MOL0     H65151   7.792   7.985   4.219  0.6446 -0.4060 -0.4963
  483MOL0     H65152   7.576   7.851   4.186  0.5464  1.4289 -0.1233
  483MOL0     H65153   7.675   7.706   4.179 -0.5193  0.2670  0.9073
  483MOL0     H65154   7.672   7.926   3.957 -1.0045  1.7345  2.9422
  483MOL0     H65155   7.733   7.762   3.953 -0.7310 -1.4100 -1.1398
  483MOL0     H65156   7.526   7.581   3.900  0.1884  0.5346  0.0934
  483MOL0     H65157   7.258   7.637   3.690 -0.3521  2.4251  0.0595
  483MOL0     H65158   7.346   7.508   3.774  0.6119  0.4930 -2.5338
  483MOL0     H65159   7.161   7.549   3.973 -0.1597 -0.7500 -0.1341
  483MOL0     H65160   7.098   7.669   3.864  0.3514 -0.0680 -1.8689
  483MOL0     H65161   7.102   7.384   3.775  1.0507  0.9694  1.0386
  483MOL0     H65162   7.019   7.523   3.697  0.1249 -2.3146 -1.4419
  483MOL0     H65163   6.867   7.531   3.913 -0.5005 -1.7818  1.1259
  483MOL0     H65164   6.953   7.391   3.966  0.7574  1.1840  0.4014
  483MOL0     H65165   6.753   7.372   4.060 -1.1611  4.9515  0.1936
  483MOL0     H65166   6.536   7.307   4.147  0.5012 -0.6390  0.9724
  483MOL0     H65167   6.268   6.874   3.969  0.3211 -0.0394 -1.0325
  483MOL0     H65168   6.073   6.742   4.011  0.9068  0.0342 -2.8694
  483MOL0     H65169   5.704   6.967   4.197 -1.0615 -0.5430 -0.3734
  483MOL0     H65170   5.674   6.962   4.021  4.2906  1.2309 -0.8192
  483MOL0     H65171   5.596   6.722   4.065  5.9338  0.4955  0.0447
  483MOL0     H65172   5.616   6.742   4.240  2.0196  0.9036 -0.3045
  483MOL0     H65173   5.380   6.756   4.181 -1.1842  0.6878 -3.1962
  483MOL0     H65174   5.428   6.916   4.243 -1.3488  1.1497 -1.3784
  483MOL0     H65175   5.374   6.835   3.972  2.9483 -1.7768  0.9514
  483MOL0     H65176   5.468   6.992   4.000 -1.9506  1.5078 -0.2430
  483MOL0     H65177   5.288   7.079   4.144 -2.1438  0.8117 -1.0248
  483MOL0     H65178   5.200   6.934   4.118  0.8568  0.5919  2.0739
  483MOL0     H65179   5.296   7.162   3.918  2.7859 -1.5186 -0.0827
  483MOL0     H65180   5.224   7.008   3.862  0.6080 -1.4863  1.0727
  483MOL0     H65181   5.021   7.051   3.979  0.2592 -0.1409  0.1340
  483MOL0     H65182   5.054   7.184   3.864 -0.4166  0.1747  0.0300
  483MOL0     H65183   5.080   7.175   4.167  0.3389  0.1342 -0.3675
  483MOL0     H65184   5.132   7.319   4.076 -0.1562  0.1116 -0.8737
  483MOL0     H65185   5.843   7.108   4.037  0.2783  0.0932  0.0699
  483MOL0     H65186   6.037   7.238   3.975  2.0449  0.5946 -1.6036
  483MOL0     H65187   6.405   7.243   3.745 -0.4718  2.7102 -0.1477
  483MOL0     H65188   6.632   7.314   3.658 -0.0078 -0.0297  0.0951
  483MOL0     H65189   8.336   7.566   4.794  1.5705 -1.9252  1.2259
  483MOL0     H65190   8.356   7.390   4.964  0.1170  0.6295 -1.4209
  483MOL0     H65191   7.997   7.194   5.260 -1.5135 -0.5682  1.7479
  483MOL0     H65192   7.925   7.071   5.442 -0.2077  2.3078 -3.0953
  483MOL0     H65193   7.952   6.927   5.762 -0.3198  1.4451  0.5691
  483MOL0     H65194   7.982   7.078   5.670 -0.4850  1.7112  2.9588
  483MOL0     H65195   8.220   7.059   5.747 -1.8888  0.4544 -1.9832
  483MOL0     H65196   8.170   6.900   5.819 -0.4854  0.2095 -0.4456
  483MOL0     H65197   8.047   6.979   5.984  3.5148 -2.3600  0.5302
  483MOL0     H65198   8.038   7.150   5.896  1.8762  2.1532 -0.5105
  483MOL0     H65199   8.263   7.010   6.058  0.9552 -0.4950 -1.1714
  483MOL0     H65200   8.282   7.164   5.999  0.0009 -0.3147 -0.4343
  483MOL0     H65201   8.097   7.212   6.378  0.5618 -1.1094  1.3665
  483MOL0     H65202   8.318   6.900   5.490 -0.7407 -0.5664  0.2624
  483MOL0     H65203   8.491   6.965   5.352 -0.9372  0.2249  1.1831
  483MOL0     H65204   8.445   6.946   5.182 -0.2786  0.2069  1.0178
  483MOL0     H65205   8.477   7.113   5.248  0.0497  0.4359 -0.0215
  484MOL0     O65206  11.118   4.048   1.962 -0.6325 -0.9730 -0.2898
  484MOL0     C65207  11.160   4.001   2.064 -0.4349  1.0247 -0.6435
  484MOL0     O65208  11.255   3.901   2.071 -0.3945  0.1761  0.0376
  484MOL0     C65209  11.322   3.855   1.962  0.4716 -0.3500  0.0259
  484MOL0     C65210  11.459   3.843   1.963 -0.4573  0.0506  0.3280
  484MOL0     C65211  11.535   3.796   1.850 -0.5898 -0.2369  0.7532
  484MOL0     C65212  11.468   3.749   1.731  0.2519  0.6851  0.8433
  484MOL0     O65213  11.529   3.684   1.630 -0.3919 -0.4036  0.7344
  484MOL0     C65214  11.618   3.776   1.562 -0.1710 -0.0390 -0.7711
  484MOL0     C65215  11.690   3.698   1.459  0.5539 -0.0607  0.3071
  484MOL0     C65216  11.592   3.633   1.344  0.9077  0.3199 -0.9447
  484MOL0     C65217  11.672   3.557   1.237 -0.1033 -0.3837 -0.2656
  484MOL0     C65218  11.599   3.543   1.102  0.2496  0.7079  0.1657
  484MOL0     C65219  11.675   3.502   0.975 -0.2885 -0.0078 -0.3635
  484MOL0     C65220  11.801   3.587   0.937  0.2193 -0.0478  1.0449
  484MOL0     C65221  11.871   3.557   0.805 -0.1419 -0.4040 -0.3252
  484MOL0     N65222  11.932   3.418   0.823 -0.3560 -0.2904  0.0842
  484MOL0     C65223  12.057   3.381   0.869 -0.8309  0.1621  0.9481
  484MOL0     C65224  12.057   3.241   0.866  0.1767  0.3996 -0.6119
  484MOL0     C65225  12.175   3.159   0.895  0.1103 -0.5272 -0.1717
  484MOL0     C65226  12.125   3.058   1.001 -0.3828 -0.2749 -0.4176
  484MOL0     C65227  12.224   2.936   1.032 -0.1906 -0.0381 -0.9601
  484MOL0     C65228  12.358   2.976   1.095 -0.4228  0.1583 -0.4990
  484MOL0     O65229  12.444   2.865   1.144  0.2697 -0.4594 -0.6709
  484MOL0     C65230  12.542   2.901   1.234  0.6251 -0.3743 -0.4314
  484MOL0     C65231  12.607   3.027   1.243 -0.3671  0.2752  0.4654
  484MOL0     C65232  12.711   3.056   1.329  0.3884  0.1271  0.0886
  484MOL0     C65233  12.761   2.960   1.413 -0.0341 -0.1082  0.2914
  484MOL0     C65234  12.874   2.985   1.495 -0.4353 -0.1700  0.2070
  484MOL0     O65235  12.925   3.104   1.486 -0.6977 -0.4179  0.4293
  484MOL0     C65236  13.056   3.117   1.528 -0.6638 -0.2113 -0.2861
  484MOL0     C65237  13.085   3.208   1.633  1.0346 -0.0032  0.4744
  484MOL0     C65238  13.215   3.223   1.690  0.7182  0.0559 -0.1297
  484MOL0     C65239  13.326   3.151   1.635 -1.0552  0.4470 -1.0189
  484MOL0     O65240  13.441   3.162   1.703 -0.0217 -0.3239 -0.4284
  484MOL0     C65241  13.557   3.107   1.635 -0.1265  0.2617  0.3766
  484MOL0     C65242  13.684   3.148   1.703 -0.2732 -0.5189 -0.0906
  484MOL0     C65243  13.741   3.047   1.802  0.0855  0.2163 -0.5029
  484MOL0     C65244  13.865   3.105   1.873 -0.6300 -0.5308  0.1806
  484MOL0     C65245  13.944   2.983   1.930  0.8443 -0.1761  0.7415
  484MOL0     C65246  14.081   3.012   1.972 -0.1231 -0.1013  0.1037
  484MOL0     C65247  14.086   3.121   2.072 -0.5294 -0.7115 -0.3631
  484MOL0     C65248  14.239   3.126   2.110 -0.0917 -0.3272  0.3363
  484MOL0    Cl65249  14.331   3.227   1.990  0.0506 -0.0844 -0.0965
  484MOL0     C65250  13.301   3.059   1.528 -0.0602  0.3297 -0.1699
  484MOL0     C65251  13.169   3.049   1.477 -0.5997  0.8234 -0.7415
  484MOL0     O65252  12.923   2.889   1.556  0.6910  1.0191  0.3655
  484MOL0     C65253  12.701   2.836   1.408  0.7805 -0.0375 -0.1687
  484MOL0     C65254  12.593   2.804   1.330  0.2559 -0.2218  0.5897
  484MOL0     N65255  11.940   3.200   0.812 -0.0603  0.1122 -0.9210
  484MOL0     N65256  11.869   3.307   0.781  0.4616  0.2773 -0.3117
  484MOL0     C65257  11.332   3.758   1.732  0.1958  0.2488 -1.0928
  484MOL0     C65258  11.262   3.812   1.841 -0.2908  0.2714  0.2014
  484MOL0     C65259  11.106   4.053   2.191  0.3649 -0.1215  0.4382
  484MOL0     C65260  11.031   4.175   2.176  0.2881 -0.0789  0.0124
  484MOL0     C65261  10.968   4.236   2.288  0.4643  0.1567  1.1800
  484MOL0     C65262  10.981   4.181   2.416  0.2446 -0.3134 -0.8930
  484MOL0     O65263  10.910   4.256   2.509  0.1339 -0.1191  0.7179
  484MOL0     C65264  10.915   4.215   2.647  0.1082  0.6366 -0.3480
  484MOL0     C65265  10.804   4.292   2.724 -0.1751 -0.0484 -0.1797
  484MOL0     C65266  10.785   4.244   2.877 -0.4492 -0.1639  0.7194
  484MOL0     C65267  10.763   4.357   2.977 -0.9303 -0.0515  0.6252
  484MOL0     C65268  10.754   4.303   3.113 -0.1629 -0.0755  0.3200
  484MOL0     C65269  10.728   4.262   3.227  0.2634 -0.4265  0.3379
  484MOL0     C65270  11.065   4.076   2.433  1.2491 -0.1245 -0.3258
  484MOL0     C65271  11.129   4.010   2.324 -0.6781  0.0867  0.1444
  484MOL0     C65272  11.205   3.895   2.367  0.0068  1.2545 -0.4072
  484MOL0     H65273  11.500   3.893   2.050 -0.5566 -1.8022  1.5065
  484MOL0     H65274  11.641   3.815   1.866  0.1171 -0.8854 -2.3494
  484MOL0     H65275  11.571   3.863   1.516  2.7457  1.6581 -0.7679
  484MOL0     H65276  11.695   3.810   1.632 -1.9061  0.8601  0.7915
  484MOL0     H65277  11.745   3.617   1.508  0.6062 -0.0330  0.2934
  484MOL0     H65278  11.757   3.754   1.394 -1.4047 -2.2345 -4.0397
  484MOL0     H65279  11.545   3.720   1.297  4.4252  2.0441 -1.6445
  484MOL0     H65280  11.512   3.573   1.387  1.0652  1.1708  0.6200
  484MOL0     H65281  11.755   3.621   1.208 -2.2660  2.4974 -0.5658
  484MOL0     H65282  11.703   3.467   1.291 -3.6302 -0.7484  1.4934
  484MOL0     H65283  11.517   3.473   1.117  0.8551  0.2029  1.2068
  484MOL0     H65284  11.552   3.641   1.085 -2.6190 -0.7629 -1.0218
  484MOL0     H65285  11.693   3.394   0.980 -1.0074 -0.1335 -0.4603
  484MOL0     H65286  11.602   3.507   0.894  0.2344  1.8993 -0.7604
  484MOL0     H65287  11.868   3.575   1.022 -0.1722 -0.9927  1.2398
  484MOL0     H65288  11.758   3.687   0.937 -3.4163 -1.3878 -1.1809
  484MOL0     H65289  11.803   3.567   0.720 -1.8910 -1.6723  0.8554
  484MOL0     H65290  11.947   3.634   0.790 -2.5021  2.4530  1.3442
  484MOL0     H65291  12.141   3.443   0.899  0.3669  0.1641 -2.0981
  484MOL0     H65292  12.216   3.104   0.810 -1.1708 -0.0674 -1.1266
  484MOL0     H65293  12.247   3.234   0.929 -2.0572  2.4056 -1.5678
  484MOL0     H65294  12.084   3.108   1.089  1.1056  1.4181 -0.6165
  484MOL0     H65295  12.037   3.001   0.970 -1.0615 -0.5927  1.9217
  484MOL0     H65296  12.248   2.877   0.943  0.5443 -0.9564 -0.1739
  484MOL0     H65297  12.172   2.876   1.107 -0.8279 -0.8295 -1.9922
  484MOL0     H65298  12.332   3.039   1.180  1.9959 -2.1507  2.1907
  484MOL0     H65299  12.404   3.043   1.022 -0.7220 -0.5967 -1.4013
  484MOL0     H65300  12.575   3.113   1.185  1.8958  1.0220  0.2075
  484MOL0     H65301  12.762   3.152   1.329 -1.3903  1.2610  3.9639
  484MOL0     H65302  13.002   3.256   1.684 -0.2063 -0.5864 -0.9391
  484MOL0     H65303  13.221   3.299   1.767  0.0607 -0.7675  0.7604
  484MOL0     H65304  13.549   2.998   1.633 -0.9429  0.3088 -1.2981
  484MOL0     H65305  13.542   3.136   1.530 -0.5211 -0.0116  0.3546
  484MOL0     H65306  13.763   3.161   1.628  3.5340 -1.5238  3.3989
  484MOL0     H65307  13.666   3.247   1.746  1.6627 -0.6627  1.1410
  484MOL0     H65308  13.664   3.002   1.865 -1.6472  2.9166 -0.5254
  484MOL0     H65309  13.781   2.964   1.744  0.4021  1.2651 -1.8355
  484MOL0     H65310  13.843   3.183   1.946 -0.5537 -1.2761  1.0202
  484MOL0     H65311  13.936   3.162   1.812 -1.0823  1.7977  1.7419
  484MOL0     H65312  13.960   2.912   1.849  1.2132  0.3545  0.3371
  484MOL0     H65313  13.889   2.937   2.012 -2.0817 -0.7306 -1.3766
  484MOL0     H65314  14.133   2.922   2.006 -0.0433 -1.1751 -2.6156
  484MOL0     H65315  14.135   3.043   1.883  1.7028 -0.3032  1.0867
  484MOL0     H65316  14.037   3.100   2.168  2.8835  1.5859  2.1246
  484MOL0     H65317  14.042   3.213   2.031 -1.1806 -1.7777 -2.1875
  484MOL0     H65318  14.251   3.180   2.204  1.2655  2.1901 -1.1787
  484MOL0     H65319  14.279   3.027   2.135 -1.7728 -1.2806 -0.5379
  484MOL0     H65320  13.379   3.013   1.468  0.1494  0.8802 -0.3287
  484MOL0     H65321  13.166   2.993   1.384  1.6753 -2.3492  0.8868
  484MOL0     H65322  12.726   2.756   1.477 -0.5925 -0.5683 -0.2486
  484MOL0     H65323  12.546   2.708   1.343 -2.1314  0.6738 -0.7934
  484MOL0     H65324  11.284   3.730   1.638 -3.2749  0.5712  0.4357
  484MOL0     H65325  11.154   3.816   1.847 -0.1852  2.0892  3.2104
  484MOL0     H65326  11.011   4.211   2.076  1.5098 -0.7714 -0.4979
  484MOL0     H65327  10.909   4.326   2.274 -1.9734 -1.1396  2.5651
  484MOL0     H65328  11.013   4.229   2.691 -0.7881  2.0934  1.3027
  484MOL0     H65329  10.885   4.111   2.658 -0.8316  1.1591  3.3081
  484MOL0     H65330  10.709   4.284   2.672 -1.1693 -0.4343  1.5913
  484MOL0     H65331  10.817   4.400   2.719 -0.0264  0.2612  3.6673
  484MOL0     H65332  10.860   4.173   2.914 -0.3152  0.5617  1.9025
  484MOL0     H65333  10.696   4.180   2.879  0.2895 -1.3183 -1.0116
  484MOL0     H65334  10.840   4.434   2.972 -0.1839 -0.5473  3.0430
  484MOL0     H65335  10.664   4.390   2.942 -2.0340 -2.9445  0.7197
  484MOL0     H65336  10.699   4.244   3.328  0.0809  4.3902  1.3607
  484MOL0     H65337  11.075   4.037   2.534  1.0748 -0.1131 -0.3038
  484MOL0     H65338  11.183   3.803   2.312  2.4050  1.1548 -1.3335
  484MOL0     H65339  11.309   3.916   2.341 -0.0381  0.7136 -1.0462
  484MOL0     H65340  11.183   3.873   2.472 -0.9948  0.9503 -0.6748
  485MOL0     O65341  10.652   6.882   3.609  0.4570  0.4512 -0.3324
  485MOL0     C65342  10.687   6.819   3.710  0.3983 -0.2707 -0.2606
  485MOL0     O65343  10.795   6.740   3.716  0.5785  1.3995  0.4490
  485MOL0     C65344  10.850   6.706   3.591  0.3110 -0.2774 -0.0334
  485MOL0     C65345  10.832   6.586   3.520  1.1462 -1.0424  0.2440
  485MOL0     C65346  10.897   6.562   3.399  0.6869 -0.0196 -0.0127
  485MOL0     C65347  10.980   6.655   3.331  0.7331  0.4894  0.3881
  485MOL0     O65348  11.052   6.626   3.220 -0.4435  0.1325  0.2057
  485MOL0     C65349  11.020   6.515   3.124 -1.1542 -0.7822  1.0048
  485MOL0     C65350  11.081   6.538   2.981 -0.3760 -0.2626  1.8943
  485MOL0     C65351  11.232   6.517   2.958 -1.0487 -0.0796  0.1843
  485MOL0     C65352  11.267   6.500   2.808 -0.0312 -0.4807 -0.5309
  485MOL0     C65353  11.413   6.534   2.797 -0.3844 -0.0595  0.4979
  485MOL0     C65354  11.454   6.532   2.648 -0.0813 -0.3375 -0.2345
  485MOL0     C65355  11.406   6.665   2.579 -0.1079  0.6527 -0.7236
  485MOL0     C65356  11.495   6.786   2.619 -0.6523  0.5072  0.4614
  485MOL0     N65357  11.424   6.909   2.618  0.3017  0.6517 -0.6747
  485MOL0     C65358  11.492   7.025   2.593  0.2796  0.4677  0.3692
  485MOL0     C65359  11.410   7.118   2.647 -0.5915 -0.0143  0.2512
  485MOL0     C65360  11.460   7.263   2.654 -0.6325 -0.2816 -0.0884
  485MOL0     C65361  11.528   7.298   2.790 -0.5539 -0.4386  0.1660
  485MOL0     C65362  11.437   7.342   2.911  0.7279 -0.4461 -0.0383
  485MOL0     C65363  11.524   7.377   3.028 -1.2733 -0.0205  0.3412
  485MOL0     O65364  11.447   7.405   3.153  0.0442 -0.4931 -0.2025
  485MOL0     C65365  11.518   7.464   3.257  0.8481 -1.0224  0.2442
  485MOL0     C65366  11.429   7.509   3.361  0.1644 -0.4128 -0.2761
  485MOL0     C65367  11.485   7.581   3.463 -0.2397  0.1762 -1.1488
  485MOL0     C65368  11.624   7.608   3.477  1.0893  0.2577 -0.6126
  485MOL0     C65369  11.672   7.688   3.583  0.1741 -0.2123  0.3423
  485MOL0     O65370  11.589   7.779   3.644  0.0035  0.2425 -0.0020
  485MOL0     C65371  11.637   7.862   3.744 -1.1319  0.5516 -0.0212
  485MOL0     C65372  11.623   7.827   3.877  1.4542  0.1458  0.0381
  485MOL0     C65373  11.656   7.912   3.980 -0.2886  0.1796 -0.1501
  485MOL0     C65374  11.676   8.050   3.950  1.1742  0.7461  0.1947
  485MOL0     O65375  11.699   8.148   4.041  1.0174 -0.0677 -0.3220
  485MOL0     C65376  11.701   8.124   4.183  0.0960  0.5351  0.5915
  485MOL0     C65377  11.811   8.034   4.250  0.0956 -0.1591 -0.2729
  485MOL0     C65378  11.954   8.089   4.229  0.2482  1.3873  0.1547
  485MOL0     C65379  12.001   8.125   4.082 -0.3036  0.4250 -0.2799
  485MOL0     C65380  12.157   8.109   4.059  0.8160 -0.1763 -0.3117
  485MOL0     C65381  12.233   8.191   4.169 -0.1330 -0.2810 -0.2185
  485MOL0     C65382  12.385   8.179   4.145 -0.3625  0.3141 -0.8465
  485MOL0     C65383  12.478   8.260   4.235  1.0153 -0.0043  0.0944
  485MOL0    Cl65384  12.637   8.258   4.144 -0.4493 -0.1219 -0.2560
  485MOL0     C65385  11.690   8.079   3.811  0.6860 -0.0872  0.1344
  485MOL0     C65386  11.668   7.990   3.707 -0.2215 -0.6328  0.6859
  485MOL0     O65387  11.786   7.664   3.617 -0.2105  0.5246  0.1173
  485MOL0     C65388  11.703   7.550   3.379 -1.0929  0.4037 -0.3544
  485MOL0     C65389  11.650   7.476   3.276 -0.2043 -0.1191  0.2682
  485MOL0     N65390  11.298   7.056   2.711 -0.4868  0.0944 -0.1312
  485MOL0     N65391  11.304   6.933   2.683  0.4563 -0.4553 -0.4336
  485MOL0     C65392  10.993   6.780   3.400  0.3312 -0.9010 -0.5881
  485MOL0     C65393  10.924   6.806   3.528  0.2834 -0.6831  0.3107
  485MOL0     C65394  10.609   6.836   3.831 -0.7366 -0.9550  0.0351
  485MOL0     C65395  10.463   6.837   3.824 -0.4208  0.0993 -1.0075
  485MOL0     C65396  10.392   6.840   3.939  0.5735  0.4497 -0.4682
  485MOL0     C65397  10.449   6.862   4.065 -0.1346  0.0261  0.3261
  485MOL0     O65398  10.368   6.875   4.175 -0.3105 -0.1294 -0.8249
  485MOL0     C65399  10.379   7.009   4.231  0.2568 -0.3936 -0.8278
  485MOL0     C65400  10.268   7.008   4.335 -0.6128  0.5552 -0.5885
  485MOL0     C65401  10.291   6.911   4.451 -0.4853  0.1212 -0.4693
  485MOL0     C65402  10.175   6.923   4.545 -0.6601 -0.0907  0.6625
  485MOL0     C65403  10.169   7.057   4.609 -0.2201  1.7027  0.1557
  485MOL0     C65404  10.194   7.166   4.660 -0.5390 -0.2490 -0.3215
  485MOL0     C65405  10.586   6.875   4.074  0.3083  0.2272  0.8618
  485MOL0     C65406  10.665   6.863   3.956 -0.3457 -0.4790  0.0964
  485MOL0     C65407  10.815   6.880   3.980  0.4792  0.4495 -0.2936
  485MOL0     H65408  10.776   6.505   3.567  2.3203 -1.3351  1.1949
  485MOL0     H65409  10.901   6.462   3.359  3.8382  0.4926 -1.2866
  485MOL0     H65410  11.046   6.412   3.151  3.2425 -0.3629 -0.7903
  485MOL0     H65411  10.912   6.528   3.113 -1.2718 -2.4116 -0.2055
  485MOL0     H65412  11.067   6.644   2.957 -0.9918 -0.8849 -0.8743
  485MOL0     H65413  11.028   6.480   2.905 -2.0698  0.8017  2.2293
  485MOL0     H65414  11.256   6.423   3.010 -0.7103  0.8709  1.8251
  485MOL0     H65415  11.288   6.598   3.005  0.4414 -1.7290  1.4196
  485MOL0     H65416  11.250   6.399   2.770  0.5823 -1.0056  0.5537
  485MOL0     H65417  11.210   6.581   2.762  0.2296  1.6320  2.5044
  485MOL0     H65418  11.439   6.626   2.850 -0.7839 -0.3000  1.1182
  485MOL0     H65419  11.452   6.454   2.860  0.6354  0.7207  0.8923
  485MOL0     H65420  11.563   6.530   2.646 -0.0303  0.0957  1.0129
  485MOL0     H65421  11.416   6.445   2.595 -0.8154 -1.1083  1.4641
  485MOL0     H65422  11.300   6.668   2.604 -0.3660 -3.7040 -0.5241
  485MOL0     H65423  11.417   6.653   2.471  2.8237 -1.2266 -0.3368
  485MOL0     H65424  11.552   6.761   2.709  1.6253 -2.1299 -1.5088
  485MOL0     H65425  11.575   6.794   2.546 -0.0160  1.3761  1.2258
  485MOL0     H65426  11.588   7.032   2.542  0.5286  2.3705  1.0079
  485MOL0     H65427  11.530   7.292   2.575  0.5647 -2.0974  0.2490
  485MOL0     H65428  11.368   7.320   2.639 -3.3638 -4.2076  0.0631
  485MOL0     H65429  11.595   7.217   2.821 -0.1642 -1.1161 -2.2189
  485MOL0     H65430  11.584   7.387   2.759 -0.9422 -0.1748  0.2223
  485MOL0     H65431  11.361   7.269   2.943 -1.2063  1.9325  1.1258
  485MOL0     H65432  11.381   7.429   2.875  0.5764 -0.6310 -0.2506
  485MOL0     H65433  11.581   7.467   3.001 -1.4496  0.2134  0.7304
  485MOL0     H65434  11.599   7.299   3.042  1.4541  2.1173 -1.2199
  485MOL0     H65435  11.321   7.503   3.353  0.1226  1.7994 -2.1366
  485MOL0     H65436  11.419   7.611   3.544 -1.0941  0.8462 -2.0693
  485MOL0     H65437  11.597   7.723   3.897 -1.6261  1.0995  1.5024
  485MOL0     H65438  11.652   7.866   4.078  2.6762  1.4472  0.6624
  485MOL0     H65439  11.715   8.224   4.226  0.3481 -0.6207  3.4153
  485MOL0     H65440  11.600   8.085   4.203  0.0004  0.4425 -0.0719
  485MOL0     H65441  11.788   8.035   4.357 -0.5656  2.8898 -0.3511
  485MOL0     H65442  11.816   7.928   4.222  3.1466 -0.0554 -0.3870
  485MOL0     H65443  11.951   8.188   4.274 -1.8097  0.5239  2.0976
  485MOL0     H65444  12.031   8.038   4.289 -1.4838 -0.3265  1.0190
  485MOL0     H65445  11.968   8.227   4.059 -2.4867 -0.4480 -1.3045
  485MOL0     H65446  11.958   8.055   4.009  2.9025 -1.2092 -0.7879
  485MOL0     H65447  12.184   8.137   3.957  1.3724  0.6193  0.0470
  485MOL0     H65448  12.197   8.007   4.061 -1.2223 -1.0880 -1.8543
  485MOL0     H65449  12.216   8.298   4.154  1.8916  0.1401  0.2686
  485MOL0     H65450  12.196   8.174   4.271 -2.3172  0.9494 -0.7453
  485MOL0     H65451  12.416   8.201   4.042 -1.0243 -2.7218 -1.7968
  485MOL0     H65452  12.402   8.074   4.171  2.0827  0.9875  0.5410
  485MOL0     H65453  12.457   8.367   4.244  1.6018  0.1082  0.1974
  485MOL0     H65454  12.470   8.210   4.332  0.7004  0.0497  0.0972
  485MOL0     H65455  11.730   8.178   3.790 -1.6435  0.7828 -0.5610
  485MOL0     H65456  11.684   8.025   3.605 -3.2753  1.4634  0.7913
  485MOL0     H65457  11.808   7.578   3.380 -0.7239 -0.8907 -0.7933
  485MOL0     H65458  11.715   7.424   3.207  0.1930 -0.1595  0.6646
  485MOL0     H65459  11.061   6.855   3.359 -2.4107  2.8482  1.1671
  485MOL0     H65460  10.925   6.900   3.581  0.4344  0.1311 -1.0896
  485MOL0     H65461  10.429   6.831   3.721 -1.9761  0.2078 -0.5237
  485MOL0     H65462  10.285   6.833   3.922  0.7400  2.0071 -2.5512
  485MOL0     H65463  10.351   7.077   4.150  1.9056  0.8202 -0.4166
  485MOL0     H65464  10.473   7.035   4.280  0.2519 -1.0617 -0.4572
  485MOL0     H65465  10.181   6.989   4.272  0.8613  1.0363 -2.8858
  485MOL0     H65466  10.253   7.108   4.376 -0.6802 -0.4937  2.2108
  485MOL0     H65467  10.380   6.914   4.513 -0.1404 -3.3354 -0.6112
  485MOL0     H65468  10.286   6.808   4.415 -0.6311 -0.3094  0.7516
  485MOL0     H65469  10.089   6.916   4.478  1.1958  0.8897 -2.0152
  485MOL0     H65470  10.177   6.849   4.626 -1.9917 -0.4096  0.4210
  485MOL0     H65471  10.205   7.262   4.705  1.2233  0.0689 -1.3182
  485MOL0     H65472  10.633   6.895   4.169  3.4826 -0.3736 -0.4419
  485MOL0     H65473  10.853   6.791   4.033  0.6732 -0.2719 -1.5898
  485MOL0     H65474  10.865   6.883   3.882 -0.1626 -2.2495 -0.7998
  485MOL0     H65475  10.845   6.975   4.026  2.7482 -0.5419  0.4621
  486MOL0     O65476   5.260   9.993  11.452 -0.1257  0.6797 -0.2135
  486MOL0     C65477   5.136   9.995  11.463  0.1611  1.3269  0.2071
  486MOL0     O65478   5.054   9.884  11.426  0.1901  0.4701 -1.3750
  486MOL0     C65479   5.099   9.770  11.384  0.0317 -0.5637  0.5363
  486MOL0     C65480   5.214   9.703  11.433 -0.0375  0.1200 -0.7855
  486MOL0     C65481   5.242   9.575  11.403  0.0187  0.7816 -0.0771
  486MOL0     C65482   5.156   9.498  11.319 -1.7326 -1.1876  0.3673
  486MOL0     O65483   5.178   9.368  11.276 -0.0067 -0.3775  0.3010
  486MOL0     C65484   5.306   9.351  11.206  0.0844  0.4890 -0.0427
  486MOL0     C65485   5.315   9.212  11.150  0.0486 -0.3290 -0.0714
  486MOL0     C65486   5.259   9.114  11.251 -1.1725  0.2657  0.2512
  486MOL0     C65487   5.273   8.973  11.202  0.3520  0.9892  0.8108
  486MOL0     C65488   5.203   8.876  11.294  0.5294  0.2473  0.5127
  486MOL0     C65489   5.217   8.733  11.231  0.1864 -0.4567 -0.0331
  486MOL0     C65490   5.159   8.627  11.329 -0.0753 -0.5366  0.2131
  486MOL0     C65491   5.118   8.500  11.253 -0.7549 -0.3096 -0.5489
  486MOL0     N65492   5.247   8.463  11.188 -0.4072 -0.2934 -0.0822
  486MOL0     C65493   5.359   8.412  11.266  0.8816 -0.1307  0.2776
  486MOL0     C65494   5.451   8.388  11.170 -0.4872 -1.0376 -0.1371
  486MOL0     C65495   5.578   8.319  11.205  0.3552  0.2359 -0.2725
  486MOL0     C65496   5.641   8.255  11.085  0.3612 -0.1032 -1.0758
  486MOL0     C65497   5.747   8.146  11.121 -0.1945 -0.1760 -0.6470
  486MOL0     C65498   5.778   8.039  11.013  0.6256  0.3214  0.0683
  486MOL0     O65499   5.688   7.925  11.017 -0.2543 -0.0929 -0.2391
  486MOL0     C65500   5.709   7.821  10.929 -0.3695  0.7989  0.0621
  486MOL0     C65501   5.814   7.815  10.831  0.3147 -0.2161  0.1694
  486MOL0     C65502   5.825   7.710  10.743 -1.3486  1.2339  0.0125
  486MOL0     C65503   5.744   7.594  10.758 -0.2422  0.4518  0.5021
  486MOL0     C65504   5.737   7.487  10.649 -1.0518 -0.0751 -0.4648
  486MOL0     O65505   5.671   7.367  10.685 -0.3309 -0.4781 -1.3955
  486MOL0     C65506   5.635   7.266  10.601 -0.6039 -0.4914  0.1361
  486MOL0     C65507   5.724   7.220  10.502 -0.5822 -1.4566 -0.3125
  486MOL0     C65508   5.701   7.099  10.446  0.4457 -0.2604 -0.2200
  486MOL0     C65509   5.583   7.029  10.460  0.6835 -0.7170  0.7683
  486MOL0     O65510   5.561   6.921  10.388 -0.1295  0.7421  1.1104
  486MOL0     C65511   5.501   6.956  10.256 -0.0105 -0.2582 -1.0841
  486MOL0     C65512   5.397   6.847  10.208 -0.1118  0.6836  0.2945
  486MOL0     C65513   5.482   6.715  10.152  0.3655 -0.9148 -0.1665
  486MOL0     C65514   5.403   6.585  10.155 -0.3972  0.2302  0.2689
  486MOL0     C65515   5.437   6.498  10.041 -0.0702  0.3854 -0.7900
  486MOL0     C65516   5.359   6.365  10.052  0.7356 -1.1786 -0.8748
  486MOL0     C65517   5.202   6.384  10.078 -0.3898 -0.4834  0.2639
  486MOL0     C65518   5.148   6.243  10.097 -0.1953  0.0293 -0.2984
  486MOL0    Cl65519   5.149   6.165   9.942 -0.5025  0.3710 -0.3954
  486MOL0     C65520   5.486   7.077  10.555  0.1965  0.6400  0.2281
  486MOL0     C65521   5.511   7.197  10.622 -0.6547 -0.4202 -1.0584
  486MOL0     O65522   5.781   7.512  10.534  0.3352  0.7057  0.1564
  486MOL0     C65523   5.645   7.596  10.852  0.3962 -0.8055 -0.1160
  486MOL0     C65524   5.627   7.708  10.936 -0.1601 -0.2439 -0.2515
  486MOL0     N65525   5.410   8.443  11.047 -0.2845  0.1611 -0.9089
  486MOL0     N65526   5.285   8.480  11.056  1.0312 -0.0551 -0.6395
  486MOL0     C65527   5.034   9.557  11.283 -0.7039  0.2144  0.3971
  486MOL0     C65528   5.016   9.695  11.301 -1.1083 -0.1172 -0.0550
  486MOL0     C65529   5.064  10.103  11.529 -0.2535 -0.4986  0.7802
  486MOL0     C65530   4.929  10.110  11.515 -0.5273 -0.2278 -0.8591
  486MOL0     C65531   4.853  10.209  11.579  0.1714 -1.0579  0.3610
  486MOL0     C65532   4.913  10.313  11.653  0.3912 -0.3313 -0.0714
  486MOL0     O65533   4.847  10.418  11.707  0.2746 -0.0581 -0.0282
  486MOL0     C65534   4.705  10.430  11.673 -0.0574 -0.5471  0.6480
  486MOL0     C65535   4.637  10.562  11.726  0.5889  0.0287 -0.4274
  486MOL0     C65536   4.631  10.588  11.878 -0.6561  0.4474  1.2843
  486MOL0     C65537   4.576  10.726  11.920  0.6273  0.4215 -0.0917
  486MOL0     C65538   4.437  10.740  11.877 -0.2458  0.3626  0.0276
  486MOL0     C65539   4.319  10.740  11.846  0.2792 -0.9102 -0.6261
  486MOL0     C65540   5.052  10.301  11.663  0.4048  0.4720  0.4610
  486MOL0     C65541   5.127  10.200  11.606  0.8056 -0.1697  0.3841
  486MOL0     C65542   5.273  10.193  11.646 -0.0647 -0.0224  0.1425
  486MOL0     H65543   5.289   9.760  11.486 -1.2525  0.7513  0.3178
  486MOL0     H65544   5.335   9.528  11.434  0.1405  2.4588  2.2748
  486MOL0     H65545   5.321   9.419  11.122  1.9318  2.4276  1.7278
  486MOL0     H65546   5.390   9.364  11.276  0.3095 -2.2274  0.3051
  486MOL0     H65547   5.416   9.185  11.116  0.8959  0.4706  1.6979
  486MOL0     H65548   5.245   9.200  11.067 -0.4082 -0.2661  0.3006
  486MOL0     H65549   5.152   9.130  11.266 -1.5704 -1.1567 -0.8053
  486MOL0     H65550   5.311   9.121  11.347 -1.4917  1.9130  0.3283
  486MOL0     H65551   5.243   8.965  11.097  0.7122  2.8042  0.5387
  486MOL0     H65552   5.375   8.938  11.218  0.6931  2.5794  2.4333
  486MOL0     H65553   5.249   8.878  11.393  1.1635  0.7150  0.2206
  486MOL0     H65554   5.099   8.907  11.304 -0.0388 -2.2140  3.8259
  486MOL0     H65555   5.169   8.738  11.132 -1.9881  1.1500  1.0180
  486MOL0     H65556   5.323   8.711  11.223  0.3990  0.0387  1.2346
  486MOL0     H65557   5.070   8.654  11.385  1.4084 -0.0876  2.4979
  486MOL0     H65558   5.234   8.603  11.406 -1.2134  0.5646  1.7214
  486MOL0     H65559   5.087   8.419  11.320  1.7307 -1.4816 -0.6773
  486MOL0     H65560   5.035   8.517  11.184 -0.5581 -2.6356 -1.4485
  486MOL0     H65561   5.368   8.406  11.374 -1.0644 -0.9720  0.4366
  486MOL0     H65562   5.656   8.387  11.241  1.4412 -1.7648  1.3837
  486MOL0     H65563   5.557   8.255  11.291  3.2946 -0.5181 -0.0208
  486MOL0     H65564   5.560   8.199  11.038  1.6056 -4.9015  1.7027
  486MOL0     H65565   5.690   8.321  11.013  0.7728 -1.3494 -1.9790
  486MOL0     H65566   5.728   8.091  11.214  0.5528  0.7168  0.0557
  486MOL0     H65567   5.835   8.205  11.149 -0.3565 -0.5351  0.7097
  486MOL0     H65568   5.880   8.004  11.027  0.8348  0.5905 -0.6881
  486MOL0     H65569   5.769   8.093  10.917 -3.2736  1.0950  0.6839
  486MOL0     H65570   5.875   7.903  10.816 -0.0907 -0.1550 -1.2679
  486MOL0     H65571   5.912   7.701  10.678  0.4186  0.0469  2.4002
  486MOL0     H65572   5.819   7.265  10.473 -1.1319  1.2496  1.7309
  486MOL0     H65573   5.768   7.069  10.367 -0.4289 -0.6125 -0.8355
  486MOL0     H65574   5.455   7.055  10.267  2.2704  0.7351  0.3574
  486MOL0     H65575   5.580   6.972  10.181  2.4434 -0.8085  1.2173
  486MOL0     H65576   5.334   6.830  10.295 -4.4490  0.8493 -2.4913
  486MOL0     H65577   5.332   6.896  10.135 -0.9834  0.0373  0.6289
  486MOL0     H65578   5.515   6.739  10.050  0.0734 -1.1609 -0.3200
  486MOL0     H65579   5.573   6.701  10.212  0.5370  1.3898  0.2070
  486MOL0     H65580   5.299   6.613  10.139 -0.4866 -1.6757 -3.4847
  486MOL0     H65581   5.423   6.545  10.255  1.6229  0.2520 -0.0709
  486MOL0     H65582   5.546   6.488  10.034  0.0413  0.4894  0.5195
  486MOL0     H65583   5.400   6.555   9.956 -1.1297  1.0893  0.1175
  486MOL0     H65584   5.366   6.314   9.955 -0.3009 -1.3836 -0.8523
  486MOL0     H65585   5.410   6.314  10.134  3.8900  4.1537  1.0730
  486MOL0     H65586   5.159   6.439   9.994 -1.1848  4.6355  3.5855
  486MOL0     H65587   5.182   6.436  10.172  2.6256 -0.9638  1.2804
  486MOL0     H65588   5.203   6.195  10.178  0.7966  2.3534  0.4944
  486MOL0     H65589   5.046   6.247  10.138  1.0761  0.4041  3.1921
  486MOL0     H65590   5.392   7.032  10.583  2.5203 -3.0714  3.0201
  486MOL0     H65591   5.452   7.236  10.705 -0.5015 -1.3868 -0.4898
  486MOL0     H65592   5.577   7.512  10.861 -1.3562  0.5020 -0.5822
  486MOL0     H65593   5.535   7.707  10.994 -1.7849  3.0298 -2.4453
  486MOL0     H65594   4.966   9.504  11.218 -1.3352 -0.3972  1.5135
  486MOL0     H65595   4.926   9.737  11.257  0.7244  1.6895 -2.3887
  486MOL0     H65596   4.869  10.032  11.470  1.4879 -2.6944  0.4862
  486MOL0     H65597   4.745  10.212  11.576  0.1144 -0.2913  1.8289
  486MOL0     H65598   4.664  10.338  11.716  1.3424 -2.2934 -1.4960
  486MOL0     H65599   4.691  10.427  11.565 -1.6521 -0.0693  0.8227
  486MOL0     H65600   4.533  10.560  11.693  1.0736  3.0204 -2.5610
  486MOL0     H65601   4.693  10.638  11.670 -0.8588  0.5875 -1.1645
  486MOL0     H65602   4.731  10.584  11.922 -1.0268  2.5758  2.4515
  486MOL0     H65603   4.569  10.506  11.918 -0.4856 -0.6560 -0.5966
  486MOL0     H65604   4.582  10.734  12.029  3.4481  0.7644 -0.1904
  486MOL0     H65605   4.628  10.811  11.875 -2.0531  1.0692 -2.1782
  486MOL0     H65606   4.218  10.716  11.820  0.1460 -2.7838  1.3388
  486MOL0     H65607   5.105  10.382  11.713  0.0957  0.6221  0.5510
  486MOL0     H65608   5.344  10.210  11.565  0.7124  1.5814  1.1161
  486MOL0     H65609   5.291  10.273  11.719 -0.0876 -0.5950  0.7810
  486MOL0     H65610   5.299  10.109  11.711  2.5877  0.5948 -0.0030
  487MOL0     O65611   5.700  10.087   0.241  0.3627 -0.2070  0.0753
  487MOL0     C65612   5.717  10.143   0.135 -0.4459  0.4849 -0.4542
  487MOL0     O65613   5.786  10.093   0.031  0.5960 -0.1026  0.0233
  487MOL0     C65614   5.882   9.995   0.049 -0.4306  0.2259 -0.0090
  487MOL0     C65615   5.957   9.987   0.166  0.4666  1.0129 -1.1127
  487MOL0     C65616   6.059   9.891   0.194  0.6674 -0.3442 -0.0924
  487MOL0     C65617   6.088   9.798   0.100 -0.5902  0.5455  0.2312
  487MOL0     O65618   6.191   9.710   0.092  0.0181 -0.2266  0.3398
  487MOL0     C65619   6.299   9.764   0.175 -1.1405  1.1946 -0.3969
  487MOL0     C65620   6.435   9.703   0.147 -0.5956 -0.1799 -0.1573
  487MOL0     C65621   6.441   9.556   0.167  0.7055 -0.5047  0.5175
  487MOL0     C65622   6.540   9.491   0.070 -0.3417  0.0939  0.5189
  487MOL0     C65623   6.552   9.342   0.080  1.5093 -0.8975 -0.6982
  487MOL0     C65624   6.610   9.271  -0.041 -0.9109  0.6391  0.4990
  487MOL0     C65625   6.756   9.303  -0.072 -0.3152  0.0492  0.5620
  487MOL0     C65626   6.840   9.239   0.047 -0.3400  0.1527 -0.6840
  487MOL0     N65627   6.982   9.256   0.014  0.1665  0.3266 -0.4313
  487MOL0     C65628   7.086   9.198   0.085 -0.4058 -0.5355  0.0957
  487MOL0     C65629   7.202   9.235   0.032  1.1373 -0.1460  0.2743
  487MOL0     C65630   7.335   9.188   0.076 -0.6352 -0.2965  0.6932
  487MOL0     C65631   7.336   9.104   0.202  0.0681  0.5307  0.0828
  487MOL0     C65632   7.476   9.031   0.210  0.5698  0.4119  0.4771
  487MOL0     C65633   7.547   9.044   0.346  0.7599 -0.5554  0.3426
  487MOL0     O65634   7.681   8.990   0.340  0.6306  0.0937  0.0113
  487MOL0     C65635   7.763   9.017   0.452 -0.0951 -0.1739  0.1688
  487MOL0     C65636   7.733   8.966   0.576 -0.7270 -1.2098  0.0720
  487MOL0     C65637   7.813   9.003   0.686  0.9291  0.2885  0.8259
  487MOL0     C65638   7.916   9.100   0.679 -0.1867  0.4868 -0.6502
  487MOL0     C65639   7.990   9.143   0.798  0.1101 -0.3125  0.7724
  487MOL0     O65640   8.106   9.213   0.777 -0.5218 -0.4587 -0.1288
  487MOL0     C65641   8.191   9.239   0.881  0.2534  0.6876  0.6945
  487MOL0     C65642   8.226   9.369   0.903 -0.0728 -1.1235  0.5078
  487MOL0     C65643   8.308   9.408   1.015 -1.6413 -0.3682 -0.1145
  487MOL0     C65644   8.369   9.296   1.083 -0.8347  0.3836 -0.3782
  487MOL0     O65645   8.451   9.344   1.179  0.6218  0.0732  0.2254
  487MOL0     C65646   8.518   9.244   1.260  0.3987  0.0698 -0.5230
  487MOL0     C65647   8.631   9.307   1.340  0.3510 -0.2808  0.2047
  487MOL0     C65648   8.701   9.214   1.441  0.9977  1.0009  0.3800
  487MOL0     C65649   8.783   9.288   1.555  1.1842 -0.2052 -0.4778
  487MOL0     C65650   8.827   9.198   1.675 -0.1062 -0.1847 -0.5450
  487MOL0     C65651   8.893   9.281   1.783  0.2457 -0.9379  0.0430
  487MOL0     C65652   9.038   9.327   1.733  0.4094 -0.1125  0.3399
  487MOL0     C65653   9.120   9.408   1.843  0.1943  0.0756  0.4460
  487MOL0    Cl65654   9.028   9.549   1.894 -0.1555  0.0162  0.0755
  487MOL0     C65655   8.333   9.163   1.053  0.0916 -0.8327  0.3734
  487MOL0     C65656   8.245   9.136   0.950 -0.1577 -0.3727 -0.2970
  487MOL0     O65657   7.941   9.113   0.903 -0.4099 -0.4521 -0.1324
  487MOL0     C65658   7.945   9.141   0.554  0.0854 -0.7590  0.4372
  487MOL0     C65659   7.875   9.100   0.443  0.3960 -0.7153  0.3668
  487MOL0     N65660   7.166   9.321  -0.077 -0.4212  0.1617  0.5674
  487MOL0     N65661   7.036   9.333  -0.088 -0.0343  0.6829 -0.0807
  487MOL0     C65662   6.006   9.798  -0.017  0.0668 -0.2821 -0.3492
  487MOL0     C65663   5.905   9.892  -0.037 -0.3595  0.0656  0.1083
  487MOL0     C65664   5.659  10.283   0.116 -1.6142 -0.5383  0.8231
  487MOL0     C65665   5.669  10.342  -0.014  0.6492 -0.6381 -0.3630
  487MOL0     C65666   5.625  10.473  -0.041 -0.5517 -0.6320 -0.2320
  487MOL0     C65667   5.597  10.563   0.066  0.5220  0.1965  0.2743
  487MOL0     O65668   5.576  10.693   0.028 -0.0252  0.6580 -0.2848
  487MOL0     C65669   5.528  10.803   0.113  0.1709  1.2264  0.5191
  487MOL0     C65670   5.456  10.917   0.038 -0.4460 -0.1149 -0.3186
  487MOL0     C65671   5.444  11.043   0.135 -0.3062 -1.1306  0.2178
  487MOL0     C65672   5.430  11.173   0.053 -0.8474  0.1266  0.0564
  487MOL0     C65673   5.302  11.177  -0.012 -0.7962 -0.7585  0.1527
  487MOL0     C65674   5.192  11.191  -0.064 -0.9621  0.5418 -0.8618
  487MOL0     C65675   5.587  10.512   0.198  0.6144 -0.3369  0.3665
  487MOL0     C65676   5.618  10.373   0.220  1.5307 -0.1552 -0.8186
  487MOL0     C65677   5.582  10.322   0.353  0.1589  0.4590 -0.6182
  487MOL0     H65678   5.945  10.063   0.243 -0.2107  2.2412 -2.4006
  487MOL0     H65679   6.113   9.892   0.289  0.4141  2.3520  0.1135
  487MOL0     H65680   6.315   9.873   0.168 -0.1373  1.3545  2.7225
  487MOL0     H65681   6.280   9.744   0.280  2.5140  0.1083  0.2054
  487MOL0     H65682   6.513   9.743   0.212 -0.2571 -1.9926  0.6155
  487MOL0     H65683   6.460   9.729   0.044 -2.7673 -1.1091 -0.9743
  487MOL0     H65684   6.339   9.523   0.146 -0.1691  3.9009 -4.1144
  487MOL0     H65685   6.463   9.537   0.273 -0.9018 -1.5536  0.6934
  487MOL0     H65686   6.503   9.521  -0.028  0.3164  4.6530  1.4392
  487MOL0     H65687   6.641   9.528   0.088 -0.3153 -0.5085  1.7520
  487MOL0     H65688   6.591   9.294   0.171 -0.5671 -0.5389  0.4620
  487MOL0     H65689   6.446   9.315   0.085  0.8151  0.8230 -3.9955
  487MOL0     H65690   6.605   9.167  -0.008 -0.3197  1.4597  3.4725
  487MOL0     H65691   6.549   9.274  -0.132 -1.3080  2.3617  0.7813
  487MOL0     H65692   6.776   9.411  -0.069 -0.5451  0.0770  1.2908
  487MOL0     H65693   6.776   9.275  -0.176 -1.1675 -0.3301  0.4954
  487MOL0     H65694   6.813   9.282   0.144  1.5413  0.7689 -0.4043
  487MOL0     H65695   6.815   9.133   0.061 -2.0011  0.3982 -1.5001
  487MOL0     H65696   7.069   9.136   0.172  1.2410  2.8158  3.0886
  487MOL0     H65697   7.385   9.133  -0.004 -1.5117 -2.2874  1.4453
  487MOL0     H65698   7.383   9.284   0.097  1.7288 -0.9527 -1.2772
  487MOL0     H65699   7.310   9.167   0.288 -0.0672  0.3170  0.2007
  487MOL0     H65700   7.258   9.028   0.207  1.3238 -1.1237 -3.1807
  487MOL0     H65701   7.553   9.066   0.140 -0.8179  2.3448 -0.1631
  487MOL0     H65702   7.453   8.926   0.189  0.4513  0.0114  2.4747
  487MOL0     H65703   7.490   9.007   0.432 -1.2038  2.3025  0.4440
  487MOL0     H65704   7.559   9.153   0.347  0.2955 -0.3396 -3.4720
  487MOL0     H65705   7.643   8.907   0.594 -0.0211 -1.8524  1.7487
  487MOL0     H65706   7.798   8.954   0.782  1.2786  2.4831  2.0606
  487MOL0     H65707   8.177   9.446   0.844  2.9413  0.9712  0.4852
  487MOL0     H65708   8.332   9.513   1.029 -1.1711 -0.7790  2.7228
  487MOL0     H65709   8.451   9.199   1.334  1.5368 -0.1288  0.4127
  487MOL0     H65710   8.569   9.172   1.196  2.7814  2.6648 -1.7738
  487MOL0     H65711   8.703   9.340   1.264 -0.4489  1.0003 -0.0254
  487MOL0     H65712   8.584   9.392   1.390  0.3089 -1.0341  1.4928
  487MOL0     H65713   8.632   9.142   1.484  0.8232 -0.8849 -2.7532
  487MOL0     H65714   8.768   9.152   1.381 -1.2078 -2.5523  1.2895
  487MOL0     H65715   8.704   9.349   1.599  2.5540 -0.1741  2.0923
  487MOL0     H65716   8.851   9.358   1.507  0.1308 -0.8878 -3.1566
  487MOL0     H65717   8.901   9.127   1.637  0.6876  0.8895 -1.0178
  487MOL0     H65718   8.735   9.145   1.704 -0.1211 -0.7775 -1.6214
  487MOL0     H65719   8.827   9.367   1.800  0.6921 -0.3961 -0.8906
  487MOL0     H65720   8.898   9.230   1.880 -1.8726 -1.6878 -0.1779
  487MOL0     H65721   9.030   9.391   1.645  2.2244  1.1088  1.0223
  487MOL0     H65722   9.097   9.239   1.705  0.8779  0.1020  0.6606
  487MOL0     H65723   9.127   9.340   1.928 -3.5129  2.3053  2.8594
  487MOL0     H65724   9.219   9.428   1.801 -0.6597 -1.0619 -2.3733
  487MOL0     H65725   8.373   9.074   1.101  0.8039 -0.4078  0.5923
  487MOL0     H65726   8.212   9.032   0.943 -2.8744  0.5423 -2.8534
  487MOL0     H65727   8.011   9.226   0.541 -0.3156 -0.0537  2.6414
  487MOL0     H65728   7.910   9.157   0.357  1.6928  0.0102  1.3240
  487MOL0     H65729   6.028   9.737  -0.105 -2.2368 -0.4207 -0.9085
  487MOL0     H65730   5.857   9.883  -0.134 -1.4972 -1.3834  0.7601
  487MOL0     H65731   5.705  10.282  -0.097  0.8515  1.2577 -1.6910
  487MOL0     H65732   5.650  10.510  -0.140  5.2808 -2.4236  0.1524
  487MOL0     H65733   5.604  10.839   0.182 -0.1095  1.3081  0.7830
  487MOL0     H65734   5.445  10.759   0.168 -0.4843  0.0006 -1.3292
  487MOL0     H65735   5.355  10.885   0.010 -0.3239 -2.0564  1.2145
  487MOL0     H65736   5.522  10.934  -0.047  0.5065 -0.8106  0.2571
  487MOL0     H65737   5.535  11.047   0.195  1.9039 -0.0975 -2.9185
  487MOL0     H65738   5.377  11.023   0.219  0.5307  0.0932  1.2131
  487MOL0     H65739   5.446  11.254   0.124 -0.7987  0.6136 -0.5032
  487MOL0     H65740   5.512  11.177  -0.019 -1.3941 -1.0440 -0.6765
  487MOL0     H65741   5.099  11.190  -0.118  0.1880 -0.8028 -2.9308
  487MOL0     H65742   5.563  10.582   0.278  0.1826  0.9850 -0.8827
  487MOL0     H65743   5.670  10.276   0.400  0.8994  1.9901 -0.4292
  487MOL0     H65744   5.547  10.400   0.422  2.7136  0.0741  1.2670
  487MOL0     H65745   5.511  10.240   0.339  2.1206 -1.3911 -0.1882
  488MOL0     O65746   5.130   7.873   4.955 -0.3535  0.1936  0.3154
  488MOL0     C65747   5.049   7.934   4.887  0.8744  0.4339 -0.0165
  488MOL0     O65748   4.908   7.915   4.881 -0.1550  0.1092 -0.7713
  488MOL0     C65749   4.838   7.814   4.954 -0.6311 -0.2475 -0.8576
  488MOL0     C65750   4.711   7.844   5.012 -0.0972  0.4032  0.1663
  488MOL0     C65751   4.647   7.742   5.089 -0.6366  0.5535  0.4628
  488MOL0     C65752   4.705   7.616   5.098 -0.5725 -0.9677  0.6777
  488MOL0     O65753   4.628   7.524   5.167 -0.6250 -0.2272  0.8077
  488MOL0     C65754   4.671   7.391   5.167  0.2168  0.4426  1.2367
  488MOL0     C65755   4.620   7.325   5.291  0.1813  0.1486  0.1406
  488MOL0     C65756   4.672   7.177   5.318 -0.3898 -0.4614 -0.1581
  488MOL0     C65757   4.668   7.136   5.468 -0.5260  0.3089 -0.0203
  488MOL0     C65758   4.699   6.989   5.472  0.3836  0.1343 -0.0174
  488MOL0     C65759   4.682   6.927   5.610  0.3295 -0.0091  0.2115
  488MOL0     C65760   4.745   6.791   5.607 -0.9951 -0.5015 -1.4647
  488MOL0     C65761   4.901   6.794   5.616 -0.0700  0.4709  0.3586
  488MOL0     N65762   4.960   6.660   5.621  0.0921  0.2882 -0.2394
  488MOL0     C65763   4.949   6.568   5.725  0.2179  0.0571 -0.2755
  488MOL0     C65764   4.956   6.451   5.665 -0.2803 -0.4833  0.6735
  488MOL0     C65765   4.920   6.330   5.733  0.0121 -0.3290  0.5022
  488MOL0     C65766   4.776   6.316   5.780 -0.0111 -0.2825  0.1230
  488MOL0     C65767   4.737   6.172   5.834 -0.1964 -0.7746  0.3490
  488MOL0     C65768   4.620   6.178   5.935 -0.8019 -0.6183 -0.1205
  488MOL0     O65769   4.613   6.048   6.001  0.1494  0.7345 -0.4300
  488MOL0     C65770   4.590   5.924   5.931 -0.1654 -0.1948 -0.3995
  488MOL0     C65771   4.619   5.807   5.993  0.5175 -0.2162  0.8933
  488MOL0     C65772   4.576   5.688   5.944  0.4314 -0.2747 -1.0371
  488MOL0     C65773   4.509   5.668   5.818 -0.6014 -0.2006 -0.3332
  488MOL0     C65774   4.467   5.536   5.787  0.3932 -0.6313  0.1973
  488MOL0     O65775   4.400   5.525   5.670 -0.0642 -0.4102 -0.3327
  488MOL0     C65776   4.341   5.416   5.626  0.5036 -0.4708  1.2319
  488MOL0     C65777   4.266   5.333   5.712 -0.3432 -0.0154  0.5814
  488MOL0     C65778   4.209   5.213   5.654 -0.5060  0.1392 -0.8643
  488MOL0     C65779   4.224   5.193   5.517  0.0094  0.1697 -0.3883
  488MOL0     O65780   4.174   5.083   5.452 -0.1853 -0.2428 -0.6143
  488MOL0     C65781   4.096   4.997   5.536 -0.5174 -0.6574  0.5044
  488MOL0     C65782   4.007   4.908   5.449 -0.9672 -0.6193 -0.6935
  488MOL0     C65783   3.919   4.979   5.339 -0.5499  0.5886 -0.0758
  488MOL0     C65784   3.816   4.873   5.281 -0.0146 -0.7161  0.3690
  488MOL0     C65785   3.757   4.905   5.142 -0.5101  0.3460  1.3171
  488MOL0     C65786   3.665   4.792   5.109  0.6245  0.7306  0.0396
  488MOL0     C65787   3.724   4.684   5.009 -0.3226 -0.1620 -0.1997
  488MOL0     C65788   3.610   4.593   4.949 -0.1269 -0.2822 -0.7944
  488MOL0    Cl65789   3.552   4.484   5.082  0.2245 -0.3675  0.2291
  488MOL0     C65790   4.303   5.278   5.438  0.0346  0.0423 -0.1806
  488MOL0     C65791   4.360   5.383   5.492 -1.0257  0.0417 -0.5557
  488MOL0     O65792   4.501   5.437   5.855 -0.2988 -0.5576 -0.1375
  488MOL0     C65793   4.489   5.786   5.747  0.0151  1.6212 -0.2812
  488MOL0     C65794   4.523   5.910   5.802  0.2247 -0.6524  0.1394
  488MOL0     N65795   4.997   6.465   5.534 -0.4547  0.0979  0.1307
  488MOL0     N65796   5.002   6.596   5.512 -0.6903  1.3618  0.5713
  488MOL0     C65797   4.826   7.593   5.044  0.0569 -0.4114 -0.3421
  488MOL0     C65798   4.898   7.696   4.980 -0.4127  0.3356 -0.3636
  488MOL0     C65799   5.091   8.036   4.779 -0.3043  0.0885 -0.1313
  488MOL0     C65800   4.995   8.107   4.703  0.3925  1.3061  0.0896
  488MOL0     C65801   5.030   8.213   4.624  0.0500  1.5894  0.0398
  488MOL0     C65802   5.164   8.219   4.583 -0.6218  0.8339  0.2101
  488MOL0     O65803   5.207   8.309   4.487 -0.2393 -0.8039  0.8795
  488MOL0     C65804   5.115   8.359   4.375 -0.9667  1.3909 -0.4218
  488MOL0     C65805   5.209   8.373   4.256  0.4061 -0.4889 -0.4486
  488MOL0     C65806   5.244   8.246   4.180 -0.2664 -0.2316 -0.1614
  488MOL0     C65807   5.279   8.265   4.031  0.9467 -0.0064 -0.1903
  488MOL0     C65808   5.406   8.337   4.021  0.2020  0.5330 -0.3652
  488MOL0     C65809   5.521   8.366   3.986 -0.5996  0.7776  0.1433
  488MOL0     C65810   5.262   8.143   4.652  0.4407  0.5911  0.0755
  488MOL0     C65811   5.231   8.061   4.760  0.2261 -0.0173 -0.7539
  488MOL0     C65812   5.349   8.005   4.847  0.4569 -0.5303  0.8674
  488MOL0     H65813   4.668   7.941   4.989  1.1307  0.8747 -0.2095
  488MOL0     H65814   4.557   7.765   5.145  0.0716  0.9265  1.4860
  488MOL0     H65815   4.631   7.336   5.081 -0.1953 -1.4858  2.5664
  488MOL0     H65816   4.778   7.380   5.152 -0.2051 -1.0090 -1.4461
  488MOL0     H65817   4.512   7.307   5.290 -0.0103  1.2187  0.3064
  488MOL0     H65818   4.659   7.371   5.382  1.5232 -2.6741  1.1308
  488MOL0     H65819   4.773   7.178   5.277 -1.1347 -2.5454 -2.3170
  488MOL0     H65820   4.608   7.099   5.275  0.0501 -2.4851  2.6358
  488MOL0     H65821   4.752   7.199   5.498  0.5411 -0.2061 -1.8023
  488MOL0     H65822   4.581   7.159   5.530 -0.5326 -3.5201  1.6753
  488MOL0     H65823   4.625   6.936   5.411 -0.8013 -1.0998  2.3666
  488MOL0     H65824   4.797   6.965   5.430  0.1728 -0.0826 -0.3874
  488MOL0     H65825   4.722   6.984   5.694 -1.0578  0.4922  0.5577
  488MOL0     H65826   4.576   6.914   5.631  0.0967 -1.6923 -1.6783
  488MOL0     H65827   4.714   6.736   5.518  2.8855 -0.5116 -3.0061
  488MOL0     H65828   4.703   6.728   5.686 -0.9561 -0.8660 -1.7334
  488MOL0     H65829   4.941   6.862   5.541  0.6666 -0.1921  0.1390
  488MOL0     H65830   4.923   6.836   5.715  0.7147  2.3539 -0.5676
  488MOL0     H65831   4.926   6.592   5.828 -0.6434  4.3251 -1.2487
  488MOL0     H65832   4.934   6.246   5.664 -3.7062 -3.1987  2.8200
  488MOL0     H65833   4.993   6.306   5.811  3.1304  0.6224 -1.8977
  488MOL0     H65834   4.757   6.391   5.857  0.0723 -1.0946  0.9484
  488MOL0     H65835   4.707   6.343   5.700 -0.0257 -3.0567 -0.9168
  488MOL0     H65836   4.827   6.129   5.878  0.4259 -1.7805 -1.7720
  488MOL0     H65837   4.711   6.100   5.756 -1.9612  1.1186 -0.9115
  488MOL0     H65838   4.524   6.201   5.889 -1.5946 -2.4951  0.4958
  488MOL0     H65839   4.647   6.245   6.017 -1.0186  0.6295 -1.0379
  488MOL0     H65840   4.661   5.820   6.092 -1.9500  1.0626  1.8662
  488MOL0     H65841   4.590   5.597   6.001 -1.3754  0.7432  1.1477
  488MOL0     H65842   4.259   5.353   5.819  0.1502 -0.4769  0.7057
  488MOL0     H65843   4.160   5.150   5.727  0.3302  1.9252  1.3666
  488MOL0     H65844   4.168   4.937   5.591  2.8321  2.1319 -0.5036
  488MOL0     H65845   4.026   5.033   5.611 -0.6904 -3.3859  1.7579
  488MOL0     H65846   4.073   4.832   5.407 -3.0572 -2.3311 -1.0411
  488MOL0     H65847   3.939   4.858   5.520 -2.1026  1.6981 -0.0337
  488MOL0     H65848   3.862   5.052   5.397  0.9864 -0.1161  2.4555
  488MOL0     H65849   3.985   5.024   5.265  1.4962  2.2199  2.5797
  488MOL0     H65850   3.732   4.858   5.350  1.1968  0.1388  2.1304
  488MOL0     H65851   3.867   4.777   5.270  0.8529 -0.3240  0.8711
  488MOL0     H65852   3.831   4.925   5.064 -0.1838  0.8890  1.7577
  488MOL0     H65853   3.699   4.998   5.143 -1.5818 -0.2746  0.2174
  488MOL0     H65854   3.623   4.742   5.197  0.6908 -1.5436 -1.1269
  488MOL0     H65855   3.576   4.830   5.057 -0.4952  0.8493  1.9527
  488MOL0     H65856   3.803   4.620   5.051 -2.1860 -2.2397  0.3340
  488MOL0     H65857   3.765   4.747   4.929  1.0760  0.6964  1.1353
  488MOL0     H65858   3.538   4.661   4.903 -0.5003  0.2851  0.5561
  488MOL0     H65859   3.652   4.531   4.869 -1.0009  0.1228 -1.5834
  488MOL0     H65860   4.307   5.263   5.330 -4.4062  2.0316 -0.8622
  488MOL0     H65861   4.438   5.440   5.442 -2.0303  0.6726 -1.4418
  488MOL0     H65862   4.437   5.794   5.652  0.1968  0.6341 -0.4755
  488MOL0     H65863   4.502   6.006   5.755  1.5361 -0.8244 -0.8699
  488MOL0     H65864   4.878   7.498   5.053 -1.0299 -0.8477  3.8974
  488MOL0     H65865   4.999   7.668   4.951 -0.2631 -1.7055  1.8238
  488MOL0     H65866   4.889   8.084   4.711  0.2572  1.6611 -0.5946
  488MOL0     H65867   4.957   8.277   4.575 -0.2310  0.3734 -1.1743
  488MOL0     H65868   5.077   8.458   4.401  0.2116  2.0452 -1.0896
  488MOL0     H65869   5.035   8.292   4.342  1.8658 -1.2232 -2.5517
  488MOL0     H65870   5.305   8.418   4.281  2.7826 -3.3081 -3.5777
  488MOL0     H65871   5.162   8.448   4.192  0.5836  2.4813  2.6064
  488MOL0     H65872   5.158   8.179   4.185 -1.5638  1.3468 -0.5461
  488MOL0     H65873   5.323   8.188   4.229  0.4016 -2.0425 -3.1305
  488MOL0     H65874   5.298   8.167   3.986 -1.4580 -0.1415 -1.0243
  488MOL0     H65875   5.200   8.311   3.972 -0.7203  0.6309  2.3692
  488MOL0     H65876   5.620   8.400   3.964 -0.6220  2.6964  2.5141
  488MOL0     H65877   5.367   8.157   4.626  0.5422  0.2331  0.2876
  488MOL0     H65878   5.336   7.898   4.829 -2.6802 -0.0644 -0.3714
  488MOL0     H65879   5.444   8.038   4.805 -0.5447  1.3506 -0.0643
  488MOL0     H65880   5.337   8.032   4.953  0.4006  0.4733  0.6201
  489MOL0     O65881   1.965   4.237   4.178 -0.1763  0.4052 -0.0335
  489MOL0     C65882   2.056   4.161   4.216 -0.0844  0.6289 -0.5414
  489MOL0     O65883   2.119   4.163   4.342 -0.8364  0.7492 -0.0672
  489MOL0     C65884   2.064   4.239   4.438 -0.8312  0.0257 -0.2597
  489MOL0     C65885   1.956   4.188   4.508 -0.4582  0.1736 -0.6859
  489MOL0     C65886   1.892   4.253   4.613 -0.0660  0.5403 -0.1062
  489MOL0     C65887   1.945   4.372   4.661 -0.4149 -0.5996 -1.0689
  489MOL0     O65888   1.891   4.409   4.784 -0.3437 -0.2067  0.4669
  489MOL0     C65889   1.938   4.516   4.869  0.5191  0.1178 -0.6840
  489MOL0     C65890   1.862   4.523   5.001 -0.0206 -0.7789 -0.2979
  489MOL0     C65891   1.902   4.633   5.102 -0.2048  0.7252  0.9996
  489MOL0     C65892   1.793   4.676   5.195  0.1200  0.0388 -0.7092
  489MOL0     C65893   1.840   4.780   5.299 -0.2240  0.6857  0.4663
  489MOL0     C65894   1.719   4.823   5.382  0.1021 -0.6948 -0.2415
  489MOL0     C65895   1.731   4.951   5.466  0.5557 -0.7586  0.1267
  489MOL0     C65896   1.708   5.086   5.394 -0.0938 -0.0652  0.7781
  489MOL0     N65897   1.703   5.197   5.497 -0.1487 -0.3263 -0.2199
  489MOL0     C65898   1.816   5.226   5.584 -0.0438 -0.1049  0.1389
  489MOL0     C65899   1.766   5.330   5.656 -0.0311  0.4675 -0.4065
  489MOL0     C65900   1.844   5.405   5.760  0.7423 -0.1438  0.5260
  489MOL0     C65901   1.952   5.504   5.701 -0.0152  0.3304 -0.2643
  489MOL0     C65902   1.883   5.608   5.614 -0.0719  0.0953  0.2592
  489MOL0     C65903   1.783   5.701   5.683  0.3024 -0.3375  0.4803
  489MOL0     O65904   1.763   5.810   5.594 -0.3871  0.3962  0.1561
  489MOL0     C65905   1.669   5.810   5.494 -0.2962  0.4825  0.6623
  489MOL0     C65906   1.660   5.926   5.417  0.8549 -0.1258  0.5868
  489MOL0     C65907   1.568   5.916   5.306  0.2539 -0.2223  0.3284
  489MOL0     C65908   1.474   5.817   5.279  0.9859  0.2368 -0.1519
  489MOL0     C65909   1.367   5.829   5.173 -0.2183 -0.4685  0.4221
  489MOL0     O65910   1.264   5.750   5.209  0.5784 -0.0544  0.2498
  489MOL0     C65911   1.155   5.737   5.122 -0.2573 -0.5600 -0.1532
  489MOL0     C65912   1.166   5.719   4.984 -0.0933 -0.6652 -0.1923
  489MOL0     C65913   1.046   5.678   4.919  0.0786 -0.4625  0.8161
  489MOL0     C65914   0.911   5.665   4.972  0.3462 -0.2670  0.3250
  489MOL0     O65915   0.793   5.646   4.905 -0.1000  0.0791  0.5445
  489MOL0     C65916   0.801   5.582   4.776 -1.5794  0.3832 -0.2731
  489MOL0     C65917   0.666   5.600   4.704  0.0972 -0.4485 -0.4153
  489MOL0     C65918   0.561   5.502   4.776  1.2914 -0.6425 -0.3836
  489MOL0     C65919   0.418   5.526   4.707 -0.4290  0.1695 -0.0273
  489MOL0     C65920   0.310   5.482   4.803 -0.2596  0.0207 -0.1744
  489MOL0     C65921   0.179   5.449   4.734  0.4639  0.0133  0.5305
  489MOL0     C65922   0.065   5.459   4.839  0.6223  0.9549  0.0932
  489MOL0     C65923  -0.064   5.430   4.769  0.3878 -0.0243 -0.4129
  489MOL0    Cl65924  -0.123   5.572   4.677 -0.4406 -0.3575  0.2334
  489MOL0     C65925   0.911   5.687   5.109 -0.1614 -0.3941  0.2845
  489MOL0     C65926   1.025   5.714   5.181 -0.3867  0.7075  0.6236
  489MOL0     O65927   1.379   5.910   5.084 -0.2355  0.5757  1.1371
  489MOL0     C65928   1.483   5.710   5.369  0.7187 -0.1076 -0.6372
  489MOL0     C65929   1.582   5.704   5.467 -0.1864  0.2521 -0.1371
  489MOL0     N65930   1.643   5.379   5.609  0.3805  0.3672 -0.5101
  489MOL0     N65931   1.609   5.295   5.523  0.3220  0.3389  0.1407
  489MOL0     C65932   2.059   4.426   4.596 -0.4019 -0.1724 -0.0591
  489MOL0     C65933   2.123   4.358   4.490 -0.1231 -0.5248  0.2096
  489MOL0     C65934   2.115   4.057   4.125 -0.0809  0.3434  0.2006
  489MOL0     C65935   2.259   4.052   4.135  0.3137  0.0313  0.7207
  489MOL0     C65936   2.329   3.954   4.060  0.4051 -0.3796 -0.5510
  489MOL0     C65937   2.266   3.858   3.991  0.4241  0.4050  0.2662
  489MOL0     O65938   2.334   3.769   3.922 -0.7863 -0.2883 -0.5548
  489MOL0     C65939   2.364   3.821   3.795 -0.1398 -1.1623 -0.1561
  489MOL0     C65940   2.456   3.721   3.710  0.0545  0.0572 -0.3232
  489MOL0     C65941   2.377   3.594   3.670  0.3548  0.0681  0.9619
  489MOL0     C65942   2.246   3.611   3.598  0.3748  0.5741  0.4413
  489MOL0     C65943   2.256   3.671   3.468  0.1696  0.1848  0.4613
  489MOL0     C65944   2.304   3.696   3.363  0.5649  0.4251 -0.2934
  489MOL0     C65945   2.127   3.863   3.981 -0.5727  0.1714  0.3525
  489MOL0     C65946   2.052   3.956   4.049  0.3901 -0.8846 -0.2433
  489MOL0     C65947   1.901   3.956   4.029 -0.7705 -0.3979  0.0020
  489MOL0     H65948   1.910   4.102   4.461 -1.8954  1.4157 -1.6426
  489MOL0     H65949   1.814   4.211   4.676 -1.7360  1.6619 -1.3645
  489MOL0     H65950   2.045   4.501   4.882  0.1991 -3.4279 -1.1956
  489MOL0     H65951   1.930   4.616   4.824 -2.0900 -0.8699 -2.7098
  489MOL0     H65952   1.875   4.427   5.051  3.9079 -0.5419 -0.5585
  489MOL0     H65953   1.753   4.525   4.986 -0.5613 -4.6061  1.9203
  489MOL0     H65954   1.938   4.717   5.043  0.9708 -1.3753 -1.4949
  489MOL0     H65955   1.986   4.587   5.156  0.5981 -0.0317 -0.8185
  489MOL0     H65956   1.719   4.726   5.131 -1.4535 -0.2828  0.7984
  489MOL0     H65957   1.748   4.586   5.238  0.2272 -0.4291 -1.5395
  489MOL0     H65958   1.922   4.740   5.360  0.5981  0.5549 -0.6922
  489MOL0     H65959   1.880   4.870   5.252  1.4980  0.5854  1.6352
  489MOL0     H65960   1.641   4.842   5.307  0.6723  0.3468 -0.5926
  489MOL0     H65961   1.688   4.748   5.455 -1.5660 -0.5533 -0.7406
  489MOL0     H65962   1.821   4.958   5.528 -0.1275  1.7100  0.9780
  489MOL0     H65963   1.648   4.945   5.536  1.1586 -0.6673  0.8625
  489MOL0     H65964   1.782   5.108   5.316 -0.4458  0.3550  0.5546
  489MOL0     H65965   1.607   5.074   5.353 -0.3927  0.1274  1.4450
  489MOL0     H65966   1.913   5.178   5.595 -0.0220 -0.2614 -0.6337
  489MOL0     H65967   1.767   5.459   5.816  3.0447  1.6674  2.1454
  489MOL0     H65968   1.897   5.337   5.828  0.7631  0.1315  0.7879
  489MOL0     H65969   1.999   5.555   5.786 -1.5847  0.3713  0.6084
  489MOL0     H65970   2.026   5.447   5.643  2.3928  1.4939  1.4595
  489MOL0     H65971   1.839   5.553   5.531 -0.7319 -1.5600  1.6331
  489MOL0     H65972   1.962   5.667   5.566 -0.2720  1.8463  1.9852
  489MOL0     H65973   1.840   5.734   5.770  4.8180  0.0339 -2.2654
  489MOL0     H65974   1.689   5.653   5.712 -0.8293 -0.8241 -3.3869
  489MOL0     H65975   1.715   6.019   5.430  0.4161  0.2043  0.1121
  489MOL0     H65976   1.554   6.004   5.243  2.2933 -0.7633 -0.9569
  489MOL0     H65977   1.270   5.725   4.952  0.4346 -0.4328  1.4636
  489MOL0     H65978   1.068   5.668   4.813 -0.4960  1.7195  0.4262
  489MOL0     H65979   0.881   5.629   4.718 -2.0143  1.6316  0.0983
  489MOL0     H65980   0.826   5.476   4.786 -2.8874 -0.1514 -2.1719
  489MOL0     H65981   0.634   5.703   4.718  0.7736 -0.3444  0.4566
  489MOL0     H65982   0.686   5.578   4.599 -0.1595 -0.0994 -0.5369
  489MOL0     H65983   0.583   5.397   4.754 -1.3044 -0.4864 -5.2700
  489MOL0     H65984   0.556   5.515   4.884  1.4176  0.0158 -0.4563
  489MOL0     H65985   0.395   5.462   4.621 -0.6641 -0.6200  0.6011
  489MOL0     H65986   0.408   5.632   4.684  1.2119  0.5873  1.0066
  489MOL0     H65987   0.290   5.541   4.893 -1.4240 -4.1018  2.6117
  489MOL0     H65988   0.344   5.383   4.835 -0.4055 -0.3105 -1.0084
  489MOL0     H65989   0.165   5.520   4.652 -0.1401 -1.4890 -0.7078
  489MOL0     H65990   0.196   5.357   4.678  3.3795  1.4086 -1.1348
  489MOL0     H65991   0.048   5.565   4.859  2.6358  1.7789 -2.1530
  489MOL0     H65992   0.090   5.408   4.932  0.9514  2.7998  1.0724
  489MOL0     H65993  -0.059   5.347   4.699  1.6236  0.2899 -0.7190
  489MOL0     H65994  -0.136   5.400   4.847  0.5743  0.6124  0.0122
  489MOL0     H65995   0.820   5.677   5.166  0.9863 -2.7197  1.8782
  489MOL0     H65996   1.024   5.716   5.290  3.5584 -4.3745  1.1192
  489MOL0     H65997   1.429   5.617   5.354 -0.6095  0.6566 -0.7621
  489MOL0     H65998   1.576   5.614   5.527  1.4298  0.5054  0.4588
  489MOL0     H65999   2.101   4.513   4.644  0.8894 -1.2203  0.8048
  489MOL0     H66000   2.209   4.402   4.440  0.3162 -0.4815  0.9903
  489MOL0     H66001   2.321   4.121   4.192  3.0275 -0.1024 -1.7822
  489MOL0     H66002   2.437   3.945   4.055  0.4239  0.3802 -2.4823
  489MOL0     H66003   2.412   3.919   3.808 -0.8248 -0.5179 -2.0813
  489MOL0     H66004   2.275   3.857   3.742  0.5777  4.2446  1.6574
  489MOL0     H66005   2.546   3.698   3.767 -0.8284  0.1925  1.1612
  489MOL0     H66006   2.490   3.767   3.616 -1.3981  1.0289 -0.4106
  489MOL0     H66007   2.361   3.533   3.759  2.2469 -0.7115  0.8242
  489MOL0     H66008   2.449   3.547   3.602  0.7586  3.0782 -0.8888
  489MOL0     H66009   2.214   3.511   3.569 -3.5847  2.0434 -0.8571
  489MOL0     H66010   2.167   3.653   3.662 -0.7688 -1.6219  0.5894
  489MOL0     H66011   2.350   3.737   3.275  1.2128  0.0011 -0.1535
  489MOL0     H66012   2.066   3.789   3.929 -1.7087  2.6545 -2.1652
  489MOL0     H66013   1.847   3.964   4.123  0.8724  0.9480  0.8938
  489MOL0     H66014   1.891   4.050   3.975  1.0497 -0.3536 -0.3285
  489MOL0     H66015   1.863   3.872   3.970  2.4085 -3.2320  1.6497
  490MOL0     O66016   6.008   3.161   7.419 -0.2918  1.1358 -0.5599
  490MOL0     C66017   6.040   3.066   7.340 -0.4385 -0.3031 -1.0618
  490MOL0     O66018   5.951   3.009   7.254 -0.7132  0.3035  0.1814
  490MOL0     C66019   5.816   3.030   7.274  0.0427  1.0447  0.4398
  490MOL0     C66020   5.736   2.994   7.165 -0.3680  0.0544 -0.1712
  490MOL0     C66021   5.596   3.011   7.170 -0.1934  0.3323  0.8900
  490MOL0     C66022   5.528   3.046   7.289  0.1580 -0.8339  0.1198
  490MOL0     O66023   5.394   3.045   7.293  0.5518  0.2364  0.3024
  490MOL0     C66024   5.314   3.116   7.392 -0.6086  0.7084  0.4586
  490MOL0     C66025   5.186   3.053   7.403 -0.2233 -0.0903 -0.7647
  490MOL0     C66026   5.097   3.066   7.276  0.3776 -0.0806  0.0575
  490MOL0     C66027   5.007   2.942   7.258 -0.2141  0.8315 -0.3241
  490MOL0     C66028   4.894   2.955   7.152 -1.0217  0.4673  0.2749
  490MOL0     C66029   4.773   2.860   7.157  0.3694 -0.3475 -0.9154
  490MOL0     C66030   4.805   2.717   7.158 -0.2863  0.8696  0.2650
  490MOL0     C66031   4.691   2.625   7.205 -0.7847  0.5301 -0.0036
  490MOL0     N66032   4.601   2.590   7.096 -0.4711 -0.7058 -0.5013
  490MOL0     C66033   4.503   2.678   7.042 -0.2605  0.2331  0.3644
  490MOL0     C66034   4.455   2.616   6.932  0.3731 -1.4215  0.6574
  490MOL0     C66035   4.345   2.676   6.847  0.2889  0.3633  1.0006
  490MOL0     C66036   4.395   2.690   6.700  0.5191  0.0054 -0.4113
  490MOL0     C66037   4.299   2.632   6.590  0.8002 -0.3029  0.5513
  490MOL0     C66038   4.159   2.686   6.607  0.0188  0.2408  0.6761
  490MOL0     O66039   4.066   2.648   6.501 -0.1516 -0.3383  0.3140
  490MOL0     C66040   4.073   2.727   6.387 -1.0791 -1.0973  1.5628
  490MOL0     C66041   4.132   2.856   6.380 -0.1732 -0.1319  0.0622
  490MOL0     C66042   4.120   2.929   6.266 -0.7148 -0.7952  0.4517
  490MOL0     C66043   4.053   2.887   6.153  0.0303  0.0714 -0.9243
  490MOL0     C66044   4.040   2.963   6.030  0.0953  0.1183  0.0970
  490MOL0     O66045   4.098   3.086   6.031 -0.1779  0.2947 -0.5868
  490MOL0     C66046   4.104   3.150   5.907  0.2780 -0.1090  0.1684
  490MOL0     C66047   4.226   3.156   5.843  0.3101  0.1514  0.2095
  490MOL0     C66048   4.238   3.228   5.722 -0.0272  0.5541 -0.1174
  490MOL0     C66049   4.122   3.272   5.663  0.6615 -0.9065 -0.3054
  490MOL0     O66050   4.140   3.349   5.558 -0.7924 -0.3129  0.8883
  490MOL0     C66051   4.037   3.352   5.461  0.3952  0.6841  0.3185
  490MOL0     C66052   4.092   3.357   5.316  0.1067  0.4102 -0.1477
  490MOL0     C66053   4.142   3.479   5.254 -0.6249  0.1967  0.4191
  490MOL0     C66054   4.234   3.558   5.352  0.4272  0.4635 -0.8867
  490MOL0     C66055   4.308   3.681   5.300  0.7742 -0.0540 -0.0836
  490MOL0     C66056   4.207   3.783   5.256  0.0340  0.7341  0.3943
  490MOL0     C66057   4.278   3.907   5.208  0.4604 -0.6111 -0.1283
  490MOL0     C66058   4.314   3.997   5.334  0.2359  0.2423 -0.5547
  490MOL0    Cl66059   4.421   4.139   5.305 -0.1222 -0.3515  0.1156
  490MOL0     C66060   3.996   3.264   5.724 -0.5062  1.1220  0.3885
  490MOL0     C66061   3.988   3.206   5.856  0.0135 -0.3563  0.6326
  490MOL0     O66062   3.982   2.913   5.933  0.2826  0.1690  0.4070
  490MOL0     C66063   4.002   2.760   6.158 -0.6000 -0.2989 -0.5312
  490MOL0     C66064   4.007   2.676   6.278  0.9621  0.1341  0.0789
  490MOL0     N66065   4.522   2.498   6.919 -0.6262 -0.0258  0.3719
  490MOL0     N66066   4.616   2.486   7.007  0.5394 -0.9710 -0.5485
  490MOL0     C66067   5.611   3.071   7.398  0.6062 -0.1588 -1.6418
  490MOL0     C66068   5.753   3.066   7.396  0.1102 -0.3097  0.2949
  490MOL0     C66069   6.190   3.054   7.319 -0.8332  0.0722 -0.1848
  490MOL0     C66070   6.242   2.989   7.203  0.4968  0.0061  0.6115
  490MOL0     C66071   6.374   2.981   7.174 -0.2298  0.0994 -0.0683
  490MOL0     C66072   6.474   3.025   7.262 -0.0913  0.2764 -0.5354
  490MOL0     O66073   6.611   3.015   7.247  0.4049  0.1033 -0.1193
  490MOL0     C66074   6.712   3.035   7.346  1.2373  0.9363 -0.2200
  490MOL0     C66075   6.757   3.179   7.340  0.0278  0.4036  0.6512
  490MOL0     C66076   6.868   3.212   7.238 -1.3135 -0.4722  0.2217
  490MOL0     C66077   6.838   3.158   7.096  0.6690  0.4376  0.0595
  490MOL0     C66078   6.922   3.245   7.005  0.0469 -0.6406  0.5851
  490MOL0     C66079   7.001   3.314   6.944 -0.3459  0.4900  0.6860
  490MOL0     C66080   6.423   3.091   7.371  0.0550 -0.0228 -0.6237
  490MOL0     C66081   6.292   3.111   7.407  0.2977  1.3805 -0.1227
  490MOL0     C66082   6.259   3.175   7.539 -0.4281  0.0270 -0.0858
  490MOL0     H66083   5.775   2.972   7.066 -0.0772 -1.2394  0.2199
  490MOL0     H66084   5.554   2.992   7.072 -1.2253 -0.2143  1.4256
  490MOL0     H66085   5.371   3.102   7.484 -2.8435 -5.0355  1.3778
  490MOL0     H66086   5.298   3.220   7.362 -2.3107  0.4290  0.2993
  490MOL0     H66087   5.130   3.084   7.492 -2.2720 -2.3673 -1.1324
  490MOL0     H66088   5.201   2.946   7.420 -5.7110 -1.2932 -1.4532
  490MOL0     H66089   5.162   3.087   7.191  0.5132 -3.0264 -0.6824
  490MOL0     H66090   5.033   3.154   7.282 -0.6108 -0.8325  1.1028
  490MOL0     H66091   5.074   2.858   7.241  0.5508  1.1300  1.0934
  490MOL0     H66092   4.952   2.925   7.350  1.2010  2.1515  0.8281
  490MOL0     H66093   4.847   3.054   7.147  0.0022  0.9241 -1.1429
  490MOL0     H66094   4.948   2.937   7.059  2.3909  1.7651  1.8579
  490MOL0     H66095   4.708   2.874   7.245 -1.1982 -3.6670 -1.3866
  490MOL0     H66096   4.716   2.884   7.067 -3.4532  2.1864  1.8084
  490MOL0     H66097   4.898   2.691   7.209  1.8036  0.4472 -3.4063
  490MOL0     H66098   4.831   2.676   7.060  2.3285 -0.7902  1.5383
  490MOL0     H66099   4.731   2.534   7.249  0.2190  1.5147  1.1771
  490MOL0     H66100   4.639   2.671   7.289 -1.3006  0.7037 -0.4068
  490MOL0     H66101   4.461   2.769   7.084  0.4315  0.2370  1.0801
  490MOL0     H66102   4.255   2.614   6.860 -0.1721  0.0795 -2.6171
  490MOL0     H66103   4.303   2.769   6.885 -4.0294 -0.8657 -0.1938
  490MOL0     H66104   4.403   2.797   6.676  0.2132  0.0054 -0.5156
  490MOL0     H66105   4.494   2.648   6.686  0.2086 -0.0256 -2.8727
  490MOL0     H66106   4.292   2.524   6.606 -1.4288 -0.9684 -3.5430
  490MOL0     H66107   4.350   2.656   6.496  2.2466 -1.4701  0.9983
  490MOL0     H66108   4.161   2.795   6.621 -1.1805  0.4779 -0.7275
  490MOL0     H66109   4.110   2.640   6.693  0.0503  3.9970  2.9321
  490MOL0     H66110   4.203   2.891   6.455 -0.5819 -0.4659  0.6180
  490MOL0     H66111   4.149   3.034   6.263  1.7522 -1.4355 -1.0621
  490MOL0     H66112   4.314   3.133   5.902  0.5989 -0.9223 -0.6012
  490MOL0     H66113   4.337   3.261   5.691  0.7654  0.1445  1.8121
  490MOL0     H66114   3.983   3.257   5.465  1.0077  0.3663  1.5482
  490MOL0     H66115   3.967   3.434   5.481  2.1049  1.7755  2.2494
  490MOL0     H66116   4.171   3.282   5.315  1.1229  1.4622 -0.9602
  490MOL0     H66117   4.012   3.316   5.254  1.6227 -1.3689 -1.0171
  490MOL0     H66118   4.190   3.462   5.157  0.6514  0.6617  0.9473
  490MOL0     H66119   4.052   3.537   5.231 -0.1027  0.2175 -1.9020
  490MOL0     H66120   4.303   3.483   5.391 -0.2651  0.4336  0.3499
  490MOL0     H66121   4.172   3.584   5.438 -1.2849  1.8415 -2.4610
  490MOL0     H66122   4.360   3.643   5.211  0.6379 -0.5834  0.0625
  490MOL0     H66123   4.379   3.723   5.372 -0.2545 -0.4720  1.2121
  490MOL0     H66124   4.164   3.749   5.161  1.8627  2.5436 -1.1893
  490MOL0     H66125   4.129   3.805   5.329 -2.6549  1.7433 -2.5333
  490MOL0     H66126   4.208   3.965   5.147 -1.2994 -1.3844  1.0753
  490MOL0     H66127   4.365   3.898   5.142 -0.4014  3.4593 -2.1148
  490MOL0     H66128   4.222   4.035   5.379  0.3537 -1.7536  1.6198
  490MOL0     H66129   4.363   3.934   5.409 -2.0308 -1.3456 -0.3157
  490MOL0     H66130   3.905   3.303   5.679 -1.0876 -1.6857 -1.1023
  490MOL0     H66131   3.892   3.219   5.906  1.8845 -0.3225  4.5427
  490MOL0     H66132   3.948   2.727   6.069 -1.4670 -0.9239  0.2079
  490MOL0     H66133   3.962   2.577   6.278 -0.6439  0.8368 -0.9708
  490MOL0     H66134   5.572   3.096   7.496  0.8116 -2.0462 -1.0337
  490MOL0     H66135   5.802   3.062   7.492  0.2710  0.3428  0.2494
  490MOL0     H66136   6.171   2.944   7.135  0.4948  2.6234 -1.2401
  490MOL0     H66137   6.396   2.940   7.075 -0.7992  0.8973 -0.5415
  490MOL0     H66138   6.792   2.962   7.339 -1.0742 -1.5883 -3.3624
  490MOL0     H66139   6.673   3.022   7.447  1.3391  1.7247 -0.0685
  490MOL0     H66140   6.791   3.205   7.441 -2.0060  1.8097  1.0259
  490MOL0     H66141   6.670   3.240   7.317  0.6560  1.4397  0.9637
  490MOL0     H66142   6.953   3.168   7.290 -0.2653  0.6571 -0.4952
  490MOL0     H66143   6.900   3.316   7.239  0.9853 -1.1268  0.6301
  490MOL0     H66144   6.875   3.055   7.089 -0.1636  0.0669  0.9172
  490MOL0     H66145   6.733   3.144   7.070  0.2747  1.0800  1.2321
  490MOL0     H66146   7.046   3.392   6.887 -1.0863  0.7522  0.4463
  490MOL0     H66147   6.489   3.140   7.442  0.7372 -1.6613 -0.0623
  490MOL0     H66148   6.176   3.130   7.594 -0.3765 -1.7783 -1.3979
  490MOL0     H66149   6.349   3.164   7.600  0.8265  1.8118 -1.5018
  490MOL0     H66150   6.243   3.278   7.506 -1.5200  0.4438  1.6274
  491MOL0     O66151   3.546   5.611   5.365 -0.9466  0.6955  0.2212
  491MOL0     C66152   3.597   5.618   5.250  0.7594 -0.7891  0.4177
  491MOL0     O66153   3.582   5.725   5.162  0.3059 -0.5074  0.6217
  491MOL0     C66154   3.489   5.812   5.205 -0.3741 -0.1588  0.0049
  491MOL0     C66155   3.370   5.844   5.135 -0.7719 -0.3644 -0.3451
  491MOL0     C66156   3.283   5.940   5.181 -0.4081  0.3368  0.5660
  491MOL0     C66157   3.307   6.022   5.292  0.0600  0.2549  0.3780
  491MOL0     O66158   3.221   6.124   5.324 -0.3415  0.3580  0.0423
  491MOL0     C66159   3.180   6.120   5.460  0.8287  0.2495  0.7084
  491MOL0     C66160   3.036   6.181   5.477 -0.6065  0.0067  1.1406
  491MOL0     C66161   2.927   6.095   5.425  0.1689 -0.0479  1.1762
  491MOL0     C66162   2.911   5.971   5.511 -0.4674  0.1819  0.2579
  491MOL0     C66163   2.806   5.888   5.438  0.0506  0.1069 -0.3097
  491MOL0     C66164   2.777   5.758   5.524  0.5122  1.0999  1.0433
  491MOL0     C66165   2.675   5.672   5.441 -0.1507 -0.0440  0.6317
  491MOL0     C66166   2.724   5.592   5.323 -0.3060 -0.4913 -0.4562
  491MOL0     N66167   2.847   5.517   5.352 -0.3779 -1.3348  0.1279
  491MOL0     C66168   2.972   5.570   5.314  0.7091  0.0336 -0.7384
  491MOL0     C66169   3.057   5.476   5.353  0.2966  0.0016 -0.9817
  491MOL0     C66170   3.205   5.494   5.322 -0.7982 -0.8368  0.1838
  491MOL0     C66171   3.276   5.369   5.261 -0.0665 -0.0305  0.2632
  491MOL0     C66172   3.275   5.353   5.109 -0.7913 -0.2955  0.4876
  491MOL0     C66173   3.358   5.241   5.064 -0.1638 -0.0401  0.3333
  491MOL0     O66174   3.347   5.252   4.926 -1.3246  1.1406 -0.0065
  491MOL0     C66175   3.386   5.143   4.851  0.0277 -0.8238 -0.5210
  491MOL0     C66176   3.478   5.040   4.890  0.6949  0.6618 -0.2314
  491MOL0     C66177   3.524   4.947   4.798 -0.5952  0.0535 -0.0748
  491MOL0     C66178   3.478   4.947   4.662 -0.1976  0.5297 -0.4392
  491MOL0     C66179   3.525   4.826   4.579  0.8670  0.2079  0.5767
  491MOL0     O66180   3.533   4.833   4.443  0.2198  0.3142  0.1384
  491MOL0     C66181   3.546   4.723   4.357 -0.6447 -0.7575  0.0371
  491MOL0     C66182   3.537   4.752   4.219  0.2324  0.3165  0.6424
  491MOL0     C66183   3.558   4.655   4.125  0.5552  0.3761 -0.5764
  491MOL0     C66184   3.550   4.524   4.163  0.6301  0.2000  0.1536
  491MOL0     O66185   3.565   4.437   4.055  0.3822 -0.2646  0.0084
  491MOL0     C66186   3.444   4.428   3.976 -0.0743 -0.5137 -0.3860
  491MOL0     C66187   3.501   4.432   3.828 -0.3625 -0.1928 -0.2056
  491MOL0     C66188   3.395   4.415   3.723  0.6813  0.0007 -0.5754
  491MOL0     C66189   3.286   4.300   3.768 -0.5075 -0.1826  0.8973
  491MOL0     C66190   3.197   4.249   3.659 -0.7001  0.3437 -0.6059
  491MOL0     C66191   3.260   4.180   3.536  0.4156 -0.0761 -0.3164
  491MOL0     C66192   3.150   4.131   3.434  0.3641  0.8702  0.5132
  491MOL0     C66193   3.201   4.019   3.341  0.2288  0.8136  0.2355
  491MOL0    Cl66194   3.303   4.112   3.208  0.0948 -0.2540  0.6517
  491MOL0     C66195   3.554   4.486   4.299 -0.0387  0.3635  0.9171
  491MOL0     C66196   3.544   4.589   4.396  0.2360  0.5308  0.3793
  491MOL0     O66197   3.555   4.727   4.645 -0.1425  0.0853  0.5814
  491MOL0     C66198   3.389   5.042   4.617 -0.8979  0.6817 -0.4064
  491MOL0     C66199   3.345   5.143   4.715  0.0673 -0.4295  0.3833
  491MOL0     N66200   2.985   5.368   5.401 -0.5694  0.0475 -0.3359
  491MOL0     N66201   2.859   5.391   5.401  0.3361  0.3326 -0.3353
  491MOL0     C66202   3.426   5.998   5.358 -1.1065 -0.1163  0.2444
  491MOL0     C66203   3.520   5.903   5.315 -0.8777  0.4401 -0.2616
  491MOL0     C66204   3.675   5.503   5.200  0.2919 -0.1848  0.2223
  491MOL0     C66205   3.642   5.449   5.073  0.0413 -0.6850 -0.0120
  491MOL0     C66206   3.715   5.339   5.023  0.5116 -0.8042 -0.0027
  491MOL0     C66207   3.825   5.284   5.093  0.5051 -0.2323  0.0192
  491MOL0     O66208   3.907   5.188   5.042  0.3349  0.1600  0.1798
  491MOL0     C66209   3.954   5.194   4.909  0.6547  0.5431  0.3976
  491MOL0     C66210   4.042   5.311   4.893 -0.2762 -0.3066  0.1658
  491MOL0     C66211   4.108   5.316   4.758 -0.4253  0.0889  0.0625
  491MOL0     C66212   4.183   5.447   4.740 -0.5717 -0.5770 -0.8819
  491MOL0     C66213   4.275   5.424   4.632  0.3656 -0.7272  0.5359
  491MOL0     C66214   4.350   5.416   4.537 -0.5290  0.1981  0.3043
  491MOL0     C66215   3.851   5.330   5.221  0.2952 -0.3710  0.0657
  491MOL0     C66216   3.780   5.435   5.275  0.6201  0.8094 -0.0470
  491MOL0     C66217   3.820   5.489   5.403 -0.4762 -0.1843 -1.0478
  491MOL0     H66218   3.339   5.772   5.060 -1.5207 -3.4330  2.6598
  491MOL0     H66219   3.197   5.967   5.120  1.5876  0.4136 -2.4406
  491MOL0     H66220   3.180   6.016   5.496 -0.5389 -1.0525 -2.5913
  491MOL0     H66221   3.246   6.180   5.522  3.0948 -2.4203  1.0609
  491MOL0     H66222   3.035   6.274   5.419 -0.1732 -1.3688 -1.1843
  491MOL0     H66223   3.018   6.191   5.585  0.7398  1.9388  1.2360
  491MOL0     H66224   2.946   6.067   5.321  1.0046  0.6156  1.1385
  491MOL0     H66225   2.831   6.146   5.439 -1.1406 -1.9773 -0.1160
  491MOL0     H66226   3.004   5.914   5.518 -0.5483  0.0165 -0.0249
  491MOL0     H66227   2.877   5.992   5.613 -1.5444  0.3379 -0.1168
  491MOL0     H66228   2.707   5.935   5.441  0.3122  0.6764  2.2660
  491MOL0     H66229   2.830   5.865   5.334 -1.1664 -2.3809 -0.1087
  491MOL0     H66230   2.874   5.709   5.540  0.8723  1.3521 -0.2162
  491MOL0     H66231   2.734   5.791   5.618  0.4426 -2.2769  2.3506
  491MOL0     H66232   2.587   5.730   5.411  0.1206 -0.3466 -0.8300
  491MOL0     H66233   2.640   5.598   5.513 -3.5869  0.3411 -0.4320
  491MOL0     H66234   2.648   5.517   5.296 -0.2686 -0.9304  0.5773
  491MOL0     H66235   2.743   5.661   5.241  1.9857 -1.4663 -0.8092
  491MOL0     H66236   2.978   5.669   5.270 -0.8432  2.1170  3.2069
  491MOL0     H66237   3.231   5.576   5.256  2.8411 -2.8946 -1.2754
  491MOL0     H66238   3.252   5.512   5.419  0.6859  0.8341 -0.7970
  491MOL0     H66239   3.380   5.388   5.288  0.4548 -0.6836 -1.1925
  491MOL0     H66240   3.229   5.282   5.307 -0.4588 -0.0784 -0.2133
  491MOL0     H66241   3.316   5.448   5.073  1.1647  0.3519  3.9317
  491MOL0     H66242   3.172   5.341   5.075 -1.2757  3.0136  0.4236
  491MOL0     H66243   3.334   5.144   5.109  0.8505 -1.7573 -2.5424
  491MOL0     H66244   3.458   5.269   5.099  0.4488  0.7645 -1.9219
  491MOL0     H66245   3.505   5.037   4.995 -1.1513  1.0285  0.2849
  491MOL0     H66246   3.602   4.875   4.815 -1.3985 -1.2009 -1.4872
  491MOL0     H66247   3.538   4.851   4.173  3.4586  0.2446  0.2885
  491MOL0     H66248   3.565   4.678   4.019  0.1206 -1.5948 -1.0742
  491MOL0     H66249   3.391   4.336   4.003 -2.3912 -0.2108 -3.3141
  491MOL0     H66250   3.383   4.518   3.992  0.6574  0.3573 -2.1839
  491MOL0     H66251   3.558   4.524   3.820  1.7453 -1.5393 -1.5365
  491MOL0     H66252   3.579   4.356   3.829  1.2699  1.2971  2.9332
  491MOL0     H66253   3.343   4.508   3.699  1.9720  0.0705 -3.4412
  491MOL0     H66254   3.439   4.375   3.631 -2.0961 -5.4643  0.0925
  491MOL0     H66255   3.217   4.340   3.843  0.2493 -3.1222  3.3824
  491MOL0     H66256   3.341   4.219   3.816  2.5980  0.8180 -0.6945
  491MOL0     H66257   3.145   4.334   3.614 -3.3686 -0.8047  0.0825
  491MOL0     H66258   3.123   4.186   3.711 -0.5416 -0.1250 -0.9376
  491MOL0     H66259   3.339   4.244   3.496  0.4619  1.0637  1.4865
  491MOL0     H66260   3.311   4.090   3.572  3.7265  1.8022  0.0305
  491MOL0     H66261   3.120   4.217   3.374  3.3129  1.3625 -0.4293
  491MOL0     H66262   3.070   4.084   3.491  0.8083 -2.5847 -1.3756
  491MOL0     H66263   3.273   3.949   3.384  1.0297  0.8957 -0.9184
  491MOL0     H66264   3.115   3.964   3.303  1.5061 -1.6812  0.7487
  491MOL0     H66265   3.566   4.379   4.314  1.2298  0.0661 -1.6197
  491MOL0     H66266   3.559   4.557   4.499 -0.5084 -1.8174 -0.1890
  491MOL0     H66267   3.350   5.031   4.516  2.6404 -1.5107 -1.7087
  491MOL0     H66268   3.275   5.217   4.679  1.4971  0.6245 -0.3670
  491MOL0     H66269   3.450   6.057   5.446 -0.1011  1.8578 -1.2755
  491MOL0     H66270   3.614   5.880   5.364 -0.4896  0.3184 -1.0533
  491MOL0     H66271   3.571   5.505   5.014  2.3744  0.4402 -1.9574
  491MOL0     H66272   3.689   5.290   4.930  1.0041 -1.1028  0.0122
  491MOL0     H66273   3.871   5.204   4.838  1.6615  2.6081 -0.5682
  491MOL0     H66274   4.002   5.098   4.886 -1.2020 -0.5429  0.8792
  491MOL0     H66275   4.123   5.293   4.964  0.4759 -0.5669 -0.7394
  491MOL0     H66276   3.988   5.403   4.918 -0.1893  0.3191 -1.8040
  491MOL0     H66277   4.041   5.317   4.672  0.3117  3.1703 -0.5969
  491MOL0     H66278   4.181   5.235   4.749 -0.2636  0.4685 -3.0219
  491MOL0     H66279   4.110   5.527   4.731 -2.8269 -2.3178  0.7774
  491MOL0     H66280   4.243   5.469   4.829 -0.9777  0.5867 -0.8782
  491MOL0     H66281   4.406   5.395   4.448  1.1623 -1.6362  1.7176
  491MOL0     H66282   3.924   5.291   5.291 -1.6252 -0.6783  2.0205
  491MOL0     H66283   3.907   5.439   5.448  0.4187  0.2589 -2.2166
  491MOL0     H66284   3.847   5.595   5.408  0.3333 -0.4407  1.7604
  491MOL0     H66285   3.738   5.479   5.474  1.8723 -2.6512  1.6288
  492MOL0     O66286   8.538  11.156   1.493 -0.8380 -0.1538 -0.2137
  492MOL0     C66287   8.489  11.067   1.548 -0.2900 -0.3537  0.8677
  492MOL0     O66288   8.555  10.998   1.645 -0.5027 -1.0663 -0.1767
  492MOL0     C66289   8.660  11.051   1.711  0.2984 -0.6841  0.0616
  492MOL0     C66290   8.662  11.011   1.842  0.5872 -0.3884 -0.7160
  492MOL0     C66291   8.755  11.068   1.938  0.1835  1.2228 -0.0235
  492MOL0     C66292   8.866  11.148   1.883  0.2868  0.8761 -0.5234
  492MOL0     O66293   8.977  11.169   1.966  0.2759  0.0682 -0.0354
  492MOL0     C66294   9.012  11.301   1.986 -0.7357  0.9117  0.1516
  492MOL0     C66295   9.161  11.338   1.973  0.2946 -0.3772  0.0419
  492MOL0     C66296   9.178  11.480   1.901 -0.8663 -0.1324 -0.1729
  492MOL0     C66297   9.152  11.463   1.755 -1.2193 -0.7899 -1.0977
  492MOL0     C66298   9.254  11.369   1.689 -0.2248  0.9615  0.0276
  492MOL0     C66299   9.218  11.357   1.535  0.1427  1.0404  0.3721
  492MOL0     C66300   9.307  11.244   1.475  0.2894  0.0726 -0.1316
  492MOL0     C66301   9.450  11.290   1.439  0.2321  0.4073 -0.7214
  492MOL0     N66302   9.461  11.397   1.342  0.4653 -0.1163  0.1976
  492MOL0     C66303   9.489  11.530   1.377  0.4142 -0.5063  0.0460
  492MOL0     C66304   9.479  11.592   1.255  0.1382  0.0740 -0.5492
  492MOL0     C66305   9.505  11.740   1.227 -0.5912 -0.8909  0.3186
  492MOL0     C66306   9.638  11.769   1.164  0.0731 -0.1448  0.3486
  492MOL0     C66307   9.753  11.759   1.265 -0.4466 -0.6311  0.0529
  492MOL0     C66308   9.882  11.810   1.207 -0.6071  0.2150  1.1324
  492MOL0     O66309   9.902  11.738   1.081 -0.0366 -0.6488  0.4158
  492MOL0     C66310  10.014  11.754   1.011 -0.1339  0.2643  0.5809
  492MOL0     C66311  10.130  11.823   1.042 -0.3836  0.1867  0.4420
  492MOL0     C66312  10.238  11.818   0.958 -0.0596  0.9868  0.7454
  492MOL0     C66313  10.241  11.758   0.841  0.3556  0.1473 -0.0312
  492MOL0     C66314  10.363  11.758   0.751  0.2167  0.0991 -0.4414
  492MOL0     O66315  10.459  11.834   0.801  0.2648  1.0804 -1.0912
  492MOL0     C66316  10.573  11.857   0.734  0.5987  0.8537  0.0079
  492MOL0     C66317  10.581  11.910   0.604  0.3117  0.5028 -0.0592
  492MOL0     C66318  10.703  11.938   0.538  0.8762  0.3260  0.0593
  492MOL0     C66319  10.825  11.899   0.601  0.2604  0.0475  0.3782
  492MOL0     O66320  10.950  11.924   0.544  0.1705  0.4336 -0.4132
  492MOL0     C66321  10.965  12.042   0.459  0.3538  0.7279 -0.4015
  492MOL0     C66322  11.100  12.046   0.390  0.8741  1.0805  0.3364
  492MOL0     C66323  11.130  11.927   0.303  0.1503 -0.6750 -0.3233
  492MOL0     C66324  11.069  11.912   0.161 -0.1325 -0.1805  0.3920
  492MOL0     C66325  11.125  11.802   0.074 -0.0005 -0.2928 -0.2817
  492MOL0     C66326  11.266  11.826   0.050 -0.3468 -0.0747  0.3610
  492MOL0     C66327  11.329  11.768  -0.072  0.1038  0.4033 -0.2062
  492MOL0     C66328  11.478  11.786  -0.086  0.7861 -0.6513 -0.0434
  492MOL0    Cl66329  11.579  11.739   0.055 -0.3331  0.0211 -0.0684
  492MOL0     C66330  10.817  11.838   0.723  0.7881 -0.2618 -0.2172
  492MOL0     C66331  10.694  11.818   0.794  0.1562 -0.0229 -0.9465
  492MOL0     O66332  10.373  11.691   0.652  0.2369  0.0187  0.4783
  492MOL0     C66333  10.120  11.684   0.805 -0.3074  0.5047 -0.6522
  492MOL0     C66334  10.012  11.686   0.884 -0.5929  0.6341 -0.3551
  492MOL0     N66335   9.460  11.502   1.151  1.0540  0.2467 -0.3040
  492MOL0     N66336   9.432  11.388   1.212 -1.1502 -0.3305  0.3808
  492MOL0     C66337   8.877  11.172   1.746  0.3386 -0.2257  0.2112
  492MOL0     C66338   8.773  11.129   1.664 -0.0342 -0.3279 -0.2663
  492MOL0     C66339   8.352  11.023   1.506  1.2984  0.0130 -0.0019
  492MOL0     C66340   8.277  10.947   1.602  0.1496 -0.3385 -0.5168
  492MOL0     C66341   8.141  10.912   1.575 -0.2298 -0.4334  0.0127
  492MOL0     C66342   8.079  10.965   1.452  0.0861 -1.0613  0.7566
  492MOL0     O66343   7.945  10.946   1.432  0.2691 -0.4991 -0.1407
  492MOL0     C66344   7.878  10.836   1.495 -0.5521 -0.2482 -0.2961
  492MOL0     C66345   7.739  10.812   1.428 -0.3512 -0.5184  0.3407
  492MOL0     C66346   7.762  10.742   1.298 -0.4947  0.7061 -0.4821
  492MOL0     C66347   7.631  10.713   1.214 -0.5136 -0.5221 -0.2038
  492MOL0     C66348   7.654  10.623   1.099 -0.3697 -0.5263  0.6027
  492MOL0     C66349   7.652  10.554   0.997 -0.1451 -0.6447  0.6352
  492MOL0     C66350   8.151  11.053   1.365  0.1326  0.4075  0.3198
  492MOL0     C66351   8.287  11.071   1.391 -0.5577 -0.9180  0.4751
  492MOL0     C66352   8.365  11.140   1.278 -0.0244 -0.0834 -0.4312
  492MOL0     H66353   8.592  10.936   1.878  1.2387 -0.6403  0.0617
  492MOL0     H66354   8.750  11.054   2.045 -0.6641  1.6425  0.0023
  492MOL0     H66355   8.960  11.366   1.916 -2.1637 -0.0651  0.2804
  492MOL0     H66356   8.979  11.324   2.087 -2.2335 -1.8266  0.3784
  492MOL0     H66357   9.211  11.251   1.928 -3.3710 -2.4652 -0.3911
  492MOL0     H66358   9.200  11.357   2.073  0.8019  0.0930 -0.2427
  492MOL0     H66359   9.274  11.527   1.921 -1.4473  2.1157 -2.1739
  492MOL0     H66360   9.102  11.552   1.934  0.0562  0.3012  1.0512
  492MOL0     H66361   9.047  11.434   1.740 -1.4981  0.2809 -1.2846
  492MOL0     H66362   9.165  11.558   1.703 -0.9962  1.0171  2.0480
  492MOL0     H66363   9.360  11.397   1.684  0.1909 -0.7036 -4.0388
  492MOL0     H66364   9.246  11.270   1.736 -0.9240  1.2968  0.6346
  492MOL0     H66365   9.112  11.340   1.516  0.3731  2.4016 -2.6516
  492MOL0     H66366   9.232  11.448   1.478  3.8040 -0.2982 -1.1908
  492MOL0     H66367   9.259  11.203   1.385 -0.9674  1.1938 -0.0127
  492MOL0     H66368   9.309  11.156   1.541  1.4974 -1.2763 -1.8984
  492MOL0     H66369   9.503  11.324   1.529 -0.3775  0.1875 -0.2687
  492MOL0     H66370   9.500  11.198   1.407 -2.4158 -2.1656  1.8854
  492MOL0     H66371   9.522  11.570   1.472  0.9144 -0.4364 -0.1507
  492MOL0     H66372   9.434  11.761   1.146 -0.2174  2.0436  0.6493
  492MOL0     H66373   9.504  11.805   1.315  1.1091  1.4583 -1.2714
  492MOL0     H66374   9.649  11.697   1.083 -2.1105 -1.5314  1.2045
  492MOL0     H66375   9.640  11.872   1.128 -0.2130 -1.0428 -2.4849
  492MOL0     H66376   9.754  11.652   1.291 -4.1385 -1.3080 -1.9542
  492MOL0     H66377   9.738  11.829   1.348 -1.0323  3.7601 -3.4262
  492MOL0     H66378   9.967  11.782   1.271 -1.0995 -2.8881  0.5966
  492MOL0     H66379   9.883  11.916   1.179 -1.9519 -0.7241 -3.2286
  492MOL0     H66380  10.151  11.879   1.133  5.5002 -1.6524  0.6265
  492MOL0     H66381  10.327  11.872   0.990 -0.7548  1.7468  1.4325
  492MOL0     H66382  10.499  11.945   0.542  2.0694  1.5832 -1.8984
  492MOL0     H66383  10.697  11.997   0.447  2.2599 -1.3209 -1.1782
  492MOL0     H66384  10.887  12.037   0.381  0.7728 -1.2349 -0.7382
  492MOL0     H66385  10.948  12.130   0.522 -1.0824  1.1260 -1.2777
  492MOL0     H66386  11.106  12.134   0.326  0.8378  0.7414 -0.1369
  492MOL0     H66387  11.177  12.064   0.465  3.6592  2.7134 -2.7081
  492MOL0     H66388  11.236  11.934   0.278 -0.0006 -4.3288 -2.8777
  492MOL0     H66389  11.124  11.833   0.358 -0.2703  0.5449  1.8175
  492MOL0     H66390  11.070  12.012   0.118  1.1379 -0.6266 -0.6751
  492MOL0     H66391  10.962  11.887   0.165  0.0700 -0.9872  1.1286
  492MOL0     H66392  11.074  11.784  -0.020 -2.6126 -1.6254  1.2857
  492MOL0     H66393  11.111  11.702   0.116  2.4915 -0.5374  0.1441
  492MOL0     H66394  11.290  11.933   0.052 -2.0265  0.4086 -2.0266
  492MOL0     H66395  11.314  11.779   0.137 -0.4670 -1.8612 -0.4865
  492MOL0     H66396  11.280  11.812  -0.159 -0.4231  2.5797  1.1130
  492MOL0     H66397  11.317  11.662  -0.051 -5.0507  0.9625  0.8426
  492MOL0     H66398  11.513  11.734  -0.176  3.5166  1.4785 -0.3537
  492MOL0     H66399  11.495  11.890  -0.116 -0.2530 -0.2093  0.8376
  492MOL0     H66400  10.904  11.823   0.785  0.1863 -0.0491  0.7089
  492MOL0     H66401  10.698  11.775   0.894  1.0334 -1.4904 -1.5995
  492MOL0     H66402  10.109  11.631   0.711 -6.0516 -0.3427  0.1311
  492MOL0     H66403   9.924  11.623   0.867  0.5646 -2.3296  3.1335
  492MOL0     H66404   8.962  11.232   1.716  1.5298 -0.9515  1.9313
  492MOL0     H66405   8.782  11.142   1.556  0.2926 -0.1387 -0.2172
  492MOL0     H66406   8.317  10.908   1.695 -2.6717  2.3169  2.0099
  492MOL0     H66407   8.085  10.855   1.648  0.6955 -1.9558 -0.4153
  492MOL0     H66408   7.880  10.842   1.604  0.1359 -1.9543 -0.1766
  492MOL0     H66409   7.939  10.745   1.488  2.0768  1.3496  0.5092
  492MOL0     H66410   7.695  10.911   1.417  1.7065  0.1650 -4.6264
  492MOL0     H66411   7.678  10.742   1.485  1.3848 -1.5341  1.0263
  492MOL0     H66412   7.812  10.645   1.306  0.6072  1.0623 -2.4085
  492MOL0     H66413   7.825  10.791   1.223 -2.3594  0.0249 -2.6356
  492MOL0     H66414   7.545  10.681   1.273  0.9558 -0.0951  2.2998
  492MOL0     H66415   7.601  10.811   1.177  0.6676  0.0000  0.1768
  492MOL0     H66416   7.646  10.488   0.913 -0.6270 -3.3849  2.6628
  492MOL0     H66417   8.112  11.094   1.273 -0.7765 -2.3135 -0.5969
  492MOL0     H66418   8.374  11.248   1.296 -2.8561  0.1395  0.0734
  492MOL0     H66419   8.469  11.105   1.270  0.2287  0.1708  1.2618
  492MOL0     H66420   8.318  11.136   1.180 -3.5169  0.6800  1.0812
  493MOL0     O66421   4.531  10.590   7.478  0.2631 -0.3418 -0.5819
  493MOL0     C66422   4.561  10.672   7.393 -0.6861 -0.8059  0.0350
  493MOL0     O66423   4.662  10.657   7.301  0.3148  0.8048 -0.0848
  493MOL0     C66424   4.711  10.526   7.292 -0.9530  0.7711 -0.0891
  493MOL0     C66425   4.629  10.414   7.259  0.6267 -0.5316  0.4385
  493MOL0     C66426   4.684  10.285   7.261  0.3102 -0.5300  0.2792
  493MOL0     C66427   4.817  10.278   7.292 -0.4762  0.1677  0.0254
  493MOL0     O66428   4.869  10.155   7.291  0.0287 -0.4785  0.6321
  493MOL0     C66429   5.007  10.127   7.281 -0.5360  0.1676 -0.5601
  493MOL0     C66430   5.010   9.978   7.250  0.5077  0.1299 -1.1283
  493MOL0     C66431   5.149   9.921   7.212  0.4948  1.1217  0.8835
  493MOL0     C66432   5.264   9.943   7.308  0.3749 -0.3879  0.3402
  493MOL0     C66433   5.393   9.880   7.254  0.0025  0.0438 -1.0949
  493MOL0     C66434   5.520   9.894   7.341 -0.0679  0.6188  0.5595
  493MOL0     C66435   5.635   9.825   7.271  0.0212 -0.2802  0.5878
  493MOL0     C66436   5.772   9.837   7.327 -1.4464 -0.7116 -1.1297
  493MOL0     N66437   5.848   9.732   7.280 -0.1284 -0.0665 -0.2393
  493MOL0     C66438   5.910   9.646   7.363  0.4866 -0.2436 -0.8700
  493MOL0     C66439   5.952   9.539   7.289 -0.8913 -0.9702 -0.2597
  493MOL0     C66440   6.019   9.416   7.335  0.1879 -0.2179 -0.8479
  493MOL0     C66441   5.923   9.303   7.331 -0.3654  0.4205 -0.6470
  493MOL0     C66442   5.982   9.184   7.418  0.3261  0.4028  0.0607
  493MOL0     C66443   6.137   9.166   7.394 -0.5663  0.1092 -1.0154
  493MOL0     O66444   6.190   9.043   7.440  0.6978  0.5887 -0.1832
  493MOL0     C66445   6.128   8.930   7.402  0.2695  0.3397  0.7301
  493MOL0     C66446   6.038   8.865   7.488 -1.3336 -0.8287  0.4506
  493MOL0     C66447   5.988   8.738   7.460  1.1429 -0.2192  0.1289
  493MOL0     C66448   6.018   8.675   7.335  0.1453  0.4754  0.1785
  493MOL0     C66449   5.964   8.544   7.289 -0.2225  0.2220  0.9130
  493MOL0     O66450   5.989   8.509   7.154 -0.6042 -0.4696 -0.3879
  493MOL0     C66451   5.990   8.381   7.109 -0.3424  0.5120  0.3557
  493MOL0     C66452   5.983   8.367   6.971  0.0440 -0.7061 -0.0172
  493MOL0     C66453   5.983   8.240   6.909  0.4084 -0.1062  0.2918
  493MOL0     C66454   5.973   8.123   6.989 -0.1137 -0.3657  0.3842
  493MOL0     O66455   5.977   7.992   6.939 -0.3777 -0.1500  0.0518
  493MOL0     C66456   6.089   7.960   6.848 -0.2061  0.0247 -0.4135
  493MOL0     C66457   6.088   7.813   6.810  0.2364 -0.8980  0.0933
  493MOL0     C66458   6.118   7.725   6.928 -0.0383  0.7035  0.1899
  493MOL0     C66459   6.158   7.588   6.886  0.0847 -0.4295 -0.0875
  493MOL0     C66460   6.143   7.493   7.009  0.5693  0.2918  0.1495
  493MOL0     C66461   6.110   7.348   6.952  0.1089 -0.1231  0.2227
  493MOL0     C66462   6.114   7.242   7.069 -0.5908  0.2753  0.3738
  493MOL0     C66463   6.046   7.115   7.017  0.0229 -0.4189 -0.3105
  493MOL0    Cl66464   6.145   7.049   6.883 -0.0073  0.2066 -0.3002
  493MOL0     C66465   5.974   8.140   7.121  0.6731 -0.2474  0.5151
  493MOL0     C66466   5.989   8.263   7.182 -0.8546  0.0709  0.4690
  493MOL0     O66467   5.889   8.477   7.363 -0.2229  0.3019  0.2478
  493MOL0     C66468   6.110   8.749   7.251  0.1053 -0.2268  0.3312
  493MOL0     C66469   6.152   8.881   7.285  0.2205 -0.2746  0.5568
  493MOL0     N66470   5.934   9.574   7.159  0.2614 -0.6593 -0.0490
  493MOL0     N66471   5.873   9.690   7.155  0.5048  0.1145  0.1080
  493MOL0     C66472   4.900  10.384   7.324 -0.6250  0.0608  0.1341
  493MOL0     C66473   4.850  10.507   7.323  0.5678 -0.7431  0.0389
  493MOL0     C66474   4.502  10.814   7.414 -0.0398 -0.3174  0.1813
  493MOL0     C66475   4.582  10.922   7.388  1.0451  0.5393  0.6767
  493MOL0     C66476   4.536  11.047   7.414  0.1017  0.5738  0.5594
  493MOL0     C66477   4.409  11.077   7.466  0.0967  0.0177  0.3595
  493MOL0     O66478   4.360  11.199   7.494  0.2178 -0.2124  0.8060
  493MOL0     C66479   4.438  11.308   7.527  0.3882 -0.0682 -0.4932
  493MOL0     C66480   4.451  11.318   7.681  0.3667  0.1293 -0.7131
  493MOL0     C66481   4.331  11.278   7.765 -0.4687  0.8184 -1.1948
  493MOL0     C66482   4.363  11.294   7.919 -0.1367 -0.4457  0.2458
  493MOL0     C66483   4.250  11.279   8.018  0.4556  0.7610  0.0373
  493MOL0     C66484   4.168  11.276   8.105 -0.2468 -0.4468 -0.3889
  493MOL0     C66485   4.325  10.968   7.491 -1.3316  0.1220  0.2199
  493MOL0     C66486   4.375  10.836   7.469  0.2647 -0.3599  0.1401
  493MOL0     C66487   4.275  10.719   7.497 -0.4800 -0.7698  0.1223
  493MOL0     H66488   4.535  10.446   7.216  0.6125 -4.0499 -2.6010
  493MOL0     H66489   4.618  10.200   7.246  2.5599 -2.5055  1.0080
  493MOL0     H66490   5.054  10.192   7.206 -1.5862  1.4915 -0.1099
  493MOL0     H66491   5.056  10.138   7.378 -1.3982  0.7544 -0.1831
  493MOL0     H66492   4.945   9.970   7.163 -0.5629 -0.7056 -0.2640
  493MOL0     H66493   4.972   9.928   7.339  1.3287  3.1139  1.0640
  493MOL0     H66494   5.167   9.960   7.112 -1.3904 -0.9327 -0.3457
  493MOL0     H66495   5.133   9.813   7.203  1.2729  1.2104 -2.9582
  493MOL0     H66496   5.278  10.050   7.325 -1.3732  0.0699 -0.8658
  493MOL0     H66497   5.231   9.895   7.400 -1.5752  1.4593  0.6971
  493MOL0     H66498   5.375   9.773   7.242 -1.7119 -0.1429  1.8978
  493MOL0     H66499   5.402   9.930   7.158 -0.4753  0.4730 -0.9218
  493MOL0     H66500   5.533  10.003   7.351  1.3912  0.5840 -0.6297
  493MOL0     H66501   5.517   9.855   7.443  0.4938  1.6317  0.9744
  493MOL0     H66502   5.635   9.859   7.167  0.8174 -3.0010 -0.3979
  493MOL0     H66503   5.593   9.725   7.264  0.2910 -0.6638  3.3549
  493MOL0     H66504   5.815   9.933   7.299 -2.2677  0.5103  1.5569
  493MOL0     H66505   5.773   9.836   7.436  0.3807  0.7999 -1.0827
  493MOL0     H66506   5.917   9.652   7.471 -1.5761 -2.8693 -0.4973
  493MOL0     H66507   6.107   9.393   7.274 -0.6243 -2.8449 -1.1424
  493MOL0     H66508   6.045   9.432   7.440 -0.1444  0.7895 -0.9087
  493MOL0     H66509   5.825   9.337   7.366  0.0718  1.6427 -0.5623
  493MOL0     H66510   5.922   9.282   7.224 -0.0422  2.0499 -1.0047
  493MOL0     H66511   5.930   9.093   7.388 -2.6099  1.4914  1.5060
  493MOL0     H66512   5.955   9.190   7.524 -1.8626 -0.2808 -0.4236
  493MOL0     H66513   6.200   9.244   7.436 -0.4591 -0.8200  0.6079
  493MOL0     H66514   6.171   9.166   7.290  0.0722  1.4744 -0.8283
  493MOL0     H66515   6.000   8.906   7.581  1.2621 -1.4203  1.8606
  493MOL0     H66516   5.933   8.673   7.527  0.9625 -3.1789 -2.6562
  493MOL0     H66517   5.984   8.462   6.918 -2.9065 -0.7018 -0.2041
  493MOL0     H66518   5.988   8.237   6.800  2.4391  1.8923  0.2388
  493MOL0     H66519   6.084   8.020   6.756  0.7818 -1.4787 -1.4941
  493MOL0     H66520   6.187   7.986   6.890  0.7209 -1.6282 -1.4644
  493MOL0     H66521   5.992   7.786   6.766  1.0014 -0.8629 -1.6780
  493MOL0     H66522   6.166   7.808   6.734 -1.2169 -2.0533 -1.3768
  493MOL0     H66523   6.198   7.768   6.990  0.6371  0.7556 -0.7066
  493MOL0     H66524   6.028   7.720   6.990  0.3950 -0.8636  0.7671
  493MOL0     H66525   6.257   7.584   6.840 -1.2713 -0.8210 -3.1676
  493MOL0     H66526   6.091   7.558   6.805 -1.3321  0.8966  0.5329
  493MOL0     H66527   6.057   7.527   7.069  1.0822  1.1442  0.4206
  493MOL0     H66528   6.229   7.494   7.077  0.4087 -2.0184  0.4757
  493MOL0     H66529   6.008   7.350   6.912 -0.0779 -0.2951  0.6937
  493MOL0     H66530   6.181   7.331   6.870  1.2099  2.1160  0.6371
  493MOL0     H66531   6.062   7.286   7.154  1.0392  2.9164  0.1341
  493MOL0     H66532   6.215   7.220   7.106  0.2604  2.4539 -0.4839
  493MOL0     H66533   6.043   7.048   7.103 -1.1200 -0.9212 -0.7284
  493MOL0     H66534   5.954   7.148   6.968 -0.0242 -1.0792 -0.6706
  493MOL0     H66535   5.975   8.061   7.196  3.5770  0.6927  1.6014
  493MOL0     H66536   5.986   8.256   7.290 -2.6269 -0.1042  0.4423
  493MOL0     H66537   6.142   8.708   7.156 -0.1449 -0.1900  0.2301
  493MOL0     H66538   6.216   8.933   7.216 -3.2502  1.5768 -1.5423
  493MOL0     H66539   5.004  10.373   7.353 -0.4301 -3.1561 -1.4128
  493MOL0     H66540   4.905  10.598   7.346  0.9360 -0.9602  0.0164
  493MOL0     H66541   4.683  10.905   7.350 -0.1345 -2.1905 -1.6079
  493MOL0     H66542   4.603  11.125   7.380  0.6784  0.5101  1.5430
  493MOL0     H66543   4.391  11.401   7.494  0.8989  1.5210  2.8154
  493MOL0     H66544   4.539  11.303   7.485  1.8802  1.3820  2.6215
  493MOL0     H66545   4.459  11.427   7.692  0.3794  0.4117 -3.0265
  493MOL0     H66546   4.543  11.268   7.713 -0.5035 -0.5178  0.9442
  493MOL0     H66547   4.302  11.174   7.746 -2.1267  0.9481  0.3927
  493MOL0     H66548   4.235  11.325   7.745 -1.2347 -0.2754 -0.2251
  493MOL0     H66549   4.441  11.220   7.941 -0.7391 -0.5571  2.1936
  493MOL0     H66550   4.414  11.391   7.923 -2.0445  1.0824 -4.6080
  493MOL0     H66551   4.082  11.282   8.168 -0.6186  2.4514 -1.0638
  493MOL0     H66552   4.234  10.965   7.550 -2.2244 -0.7291 -1.1297
  493MOL0     H66553   4.289  10.678   7.598 -1.5195  0.5105  0.8249
  493MOL0     H66554   4.168  10.740   7.493 -0.6669 -1.7801 -3.4590
  493MOL0     H66555   4.283  10.643   7.419 -0.8582  0.5618 -1.2601
  494MOL0     O66556   4.144   2.253   1.116 -0.4024 -0.1630 -0.2520
  494MOL0     C66557   4.034   2.307   1.093  0.7714  0.0352  0.2925
  494MOL0     O66558   4.000   2.363   0.973  0.4606  0.2005 -0.2466
  494MOL0     C66559   4.087   2.339   0.875  0.2919 -0.2613 -0.7684
  494MOL0     C66560   4.207   2.405   0.876 -0.1040 -0.0549  0.5370
  494MOL0     C66561   4.296   2.378   0.773 -0.1240 -0.9614 -1.0393
  494MOL0     C66562   4.249   2.298   0.668 -0.1544  0.4703  0.0960
  494MOL0     O66563   4.325   2.252   0.566  0.5457  0.2722  0.1597
  494MOL0     C66564   4.465   2.239   0.588 -0.6796 -0.2780  0.0578
  494MOL0     C66565   4.527   2.134   0.492  0.3485  0.3769  1.2113
  494MOL0     C66566   4.563   2.192   0.359 -0.4416 -0.1685 -0.0649
  494MOL0     C66567   4.571   2.084   0.250  0.1130  0.2259 -0.1800
  494MOL0     C66568   4.565   2.161   0.113 -0.4588 -0.1237 -0.4604
  494MOL0     C66569   4.497   2.082  -0.003 -0.1076  0.3573 -0.0039
  494MOL0     C66570   4.476   2.156  -0.132 -0.6041  0.4870 -0.2878
  494MOL0     C66571   4.602   2.228  -0.181  0.0042 -0.4644  0.5278
  494MOL0     N66572   4.715   2.137  -0.204 -0.5437 -0.2859 -0.3556
  494MOL0     C66573   4.739   2.045  -0.304 -0.4768  0.3718  0.0066
  494MOL0     C66574   4.850   1.966  -0.264  0.0323  0.6406 -0.1311
  494MOL0     C66575   4.899   1.849  -0.346 -0.5327  0.0878  0.2282
  494MOL0     C66576   4.884   1.706  -0.275 -0.1594 -0.1769  0.0383
  494MOL0     C66577   4.742   1.675  -0.238 -0.9777  0.3129 -0.4586
  494MOL0     C66578   4.644   1.664  -0.347 -1.0190  0.0496  0.1910
  494MOL0     O66579   4.582   1.791  -0.373  0.1800 -0.2905 -0.2103
  494MOL0     C66580   4.552   1.826  -0.498 -0.0949 -0.2289  0.4978
  494MOL0     C66581   4.602   1.767  -0.617  0.3363 -0.0067  0.1129
  494MOL0     C66582   4.565   1.826  -0.743 -0.7780  0.7541  0.3481
  494MOL0     C66583   4.491   1.942  -0.763 -0.1046  0.6356 -0.0047
  494MOL0     C66584   4.462   2.005  -0.893  0.1743  1.0457 -0.8396
  494MOL0     O66585   4.551   1.970  -0.992  0.2088  0.8859  0.3008
  494MOL0     C66586   4.547   2.031  -1.110  0.4158 -0.3157  0.4102
  494MOL0     C66587   4.508   2.168  -1.136  0.3627  0.3054 -0.3137
  494MOL0     C66588   4.519   2.232  -1.261  0.3875 -0.2758 -0.4515
  494MOL0     C66589   4.552   2.154  -1.375 -0.1310  0.2281  0.1111
  494MOL0     O66590   4.573   2.195  -1.512  0.3093  0.6349 -0.7736
  494MOL0     C66591   4.555   2.332  -1.544  1.1135 -0.4056 -0.7498
  494MOL0     C66592   4.552   2.328  -1.699 -0.5598 -0.1161 -1.6678
  494MOL0     C66593   4.422   2.268  -1.770  0.5843 -0.2433 -0.0932
  494MOL0     C66594   4.434   2.286  -1.926  0.0201  0.3267 -1.2731
  494MOL0     C66595   4.324   2.199  -1.990 -0.6820  0.2447 -0.9643
  494MOL0     C66596   4.181   2.228  -1.929  0.9158  0.4197  0.1037
  494MOL0     C66597   4.079   2.162  -2.021 -1.4043 -0.2815 -0.3560
  494MOL0     C66598   3.946   2.218  -1.962 -0.5135 -0.4769 -0.3222
  494MOL0    Cl66599   3.919   2.385  -2.016 -0.1576 -0.1968 -0.1526
  494MOL0     C66600   4.577   2.017  -1.349 -0.5045  0.7296  0.7876
  494MOL0     C66601   4.586   1.960  -1.224  0.4818  0.0277  0.1242
  494MOL0     O66602   4.354   2.058  -0.909  0.5031  0.7707 -0.5916
  494MOL0     C66603   4.452   2.005  -0.646 -1.0486  1.1045  0.1101
  494MOL0     C66604   4.477   1.944  -0.519  0.9936 -0.3708 -0.1906
  494MOL0     N66605   4.895   2.016  -0.147 -0.2000  0.4589  0.3954
  494MOL0     N66606   4.814   2.113  -0.113 -0.0672 -0.6686 -0.4292
  494MOL0     C66607   4.127   2.241   0.665 -0.4176  0.2280  0.5862
  494MOL0     C66608   4.047   2.253   0.775 -0.1025  0.7308 -0.8044
  494MOL0     C66609   3.926   2.298   1.197 -0.3742  0.2180  0.6086
  494MOL0     C66610   3.953   2.229   1.309 -0.1154 -0.0998 -0.4078
  494MOL0     C66611   3.872   2.228   1.420  0.9668 -0.7946  0.8172
  494MOL0     C66612   3.739   2.278   1.403  0.3228 -0.7936 -0.4160
  494MOL0     O66613   3.646   2.274   1.505 -0.1139 -1.3459 -0.6895
  494MOL0     C66614   3.565   2.158   1.520 -0.6103 -0.4466  0.2250
  494MOL0     C66615   3.545   2.130   1.675  0.2100 -0.6794  0.1273
  494MOL0     C66616   3.677   2.120   1.752 -0.2770  0.7722  0.0335
  494MOL0     C66617   3.764   2.001   1.697 -0.1411  0.1445 -0.7130
  494MOL0     C66618   3.873   1.991   1.796  0.0397  0.1308  0.0943
  494MOL0     C66619   3.971   1.998   1.869  0.0127  0.2874  0.5115
  494MOL0     C66620   3.705   2.339   1.283  0.1458 -0.7946 -1.1439
  494MOL0     C66621   3.798   2.351   1.180 -0.8114  0.1590  0.3590
  494MOL0     C66622   3.748   2.424   1.060 -0.7434  0.7382 -0.4256
  494MOL0     H66623   4.214   2.468   0.963  1.3749 -1.3628  1.4037
  494MOL0     H66624   4.400   2.409   0.780 -1.0584  2.2260  0.7264
  494MOL0     H66625   4.514   2.337   0.579 -1.0500 -0.0252  0.7123
  494MOL0     H66626   4.471   2.201   0.690 -1.1663 -1.9050 -0.4989
  494MOL0     H66627   4.455   2.055   0.468  0.0939  0.9174  0.1369
  494MOL0     H66628   4.620   2.106   0.542  1.6086  3.1649  0.6282
  494MOL0     H66629   4.657   2.247   0.367 -1.0518  1.0014 -0.6849
  494MOL0     H66630   4.486   2.263   0.328  0.1657  0.9198  0.8582
  494MOL0     H66631   4.658   2.020   0.267 -2.4270 -2.8803  2.6764
  494MOL0     H66632   4.487   2.014   0.253  0.9145 -0.7316  0.9494
  494MOL0     H66633   4.515   2.258   0.122  0.8477  0.4683  0.6547
  494MOL0     H66634   4.670   2.180   0.091 -0.4997 -0.6269 -1.1339
  494MOL0     H66635   4.559   1.992  -0.017  0.7041  0.8848  0.1347
  494MOL0     H66636   4.400   2.049   0.033 -0.7487  0.7851 -1.2713
  494MOL0     H66637   4.399   2.234  -0.123  0.9911  2.6664 -3.3978
  494MOL0     H66638   4.441   2.084  -0.207 -2.7167  1.4630 -0.3271
  494MOL0     H66639   4.584   2.286  -0.272  1.0840 -0.8219  0.0713
  494MOL0     H66640   4.635   2.295  -0.101  0.8785 -1.7158  1.2445
  494MOL0     H66641   4.687   2.032  -0.398 -0.9913 -1.5465  0.5149
  494MOL0     H66642   4.843   1.857  -0.440 -0.1141  4.8064  0.1569
  494MOL0     H66643   5.004   1.863  -0.373 -0.3304  0.3338  1.0939
  494MOL0     H66644   4.931   1.629  -0.337 -3.6835 -0.7184 -2.2213
  494MOL0     H66645   4.940   1.707  -0.181  1.8004  2.6102 -1.0157
  494MOL0     H66646   4.713   1.749  -0.163 -0.9644 -0.5688  0.4348
  494MOL0     H66647   4.746   1.576  -0.193  1.4957  0.6333  0.1974
  494MOL0     H66648   4.563   1.592  -0.332 -0.3412 -0.9422 -0.7434
  494MOL0     H66649   4.697   1.623  -0.433 -1.7558  3.5878 -2.1677
  494MOL0     H66650   4.661   1.676  -0.606 -4.1392 -3.2846 -0.4153
  494MOL0     H66651   4.607   1.783  -0.834  1.1375 -1.6449  2.2130
  494MOL0     H66652   4.467   2.220  -1.050  2.2034  0.4881  0.4888
  494MOL0     H66653   4.499   2.338  -1.267  2.1267  0.0289 -2.0656
  494MOL0     H66654   4.457   2.369  -1.512  0.4516 -1.4978 -1.4530
  494MOL0     H66655   4.630   2.399  -1.500 -1.3977  2.5174 -0.5607
  494MOL0     H66656   4.580   2.429  -1.730  0.9146  0.6552  1.7410
  494MOL0     H66657   4.645   2.278  -1.726  0.7050  1.4120 -0.3229
  494MOL0     H66658   4.430   2.163  -1.740  2.1778 -0.0362  0.2735
  494MOL0     H66659   4.327   2.303  -1.731  0.5819 -0.3333 -0.0170
  494MOL0     H66660   4.530   2.240  -1.950  0.4204  0.0731  0.6768
  494MOL0     H66661   4.422   2.389  -1.962 -0.7189 -0.1971 -2.6100
  494MOL0     H66662   4.348   2.096  -1.963  2.4832  0.7770 -1.3414
  494MOL0     H66663   4.323   2.206  -2.099  0.4436 -2.7632 -1.2585
  494MOL0     H66664   4.176   2.179  -1.831 -0.5348  0.3134  0.0001
  494MOL0     H66665   4.172   2.337  -1.928  3.3413  0.7121 -1.1041
  494MOL0     H66666   4.087   2.053  -2.022  0.4996 -0.2112  0.8212
  494MOL0     H66667   4.100   2.208  -2.118  0.4688  0.1568  0.2163
  494MOL0     H66668   3.865   2.156  -2.001  0.9087 -1.1561 -2.4085
  494MOL0     H66669   3.945   2.215  -1.853  1.0038 -0.7707 -0.2898
  494MOL0     H66670   4.595   1.964  -1.442 -2.0947  2.4664 -0.5729
  494MOL0     H66671   4.627   1.861  -1.211  1.1753  0.0526 -1.5384
  494MOL0     H66672   4.397   2.097  -0.662 -2.7773 -0.2059 -2.2663
  494MOL0     H66673   4.450   1.995  -0.427 -1.7774  0.5169 -1.3840
  494MOL0     H66674   4.104   2.184   0.576  2.4588 -0.4596  0.1641
  494MOL0     H66675   3.952   2.200   0.779  2.0439 -3.4753  2.9579
  494MOL0     H66676   4.051   2.193   1.337 -0.2551 -0.1016  0.0866
  494MOL0     H66677   3.897   2.182   1.515  1.0069 -2.6783 -0.0573
  494MOL0     H66678   3.618   2.071   1.480  1.1541  0.9516 -0.6104
  494MOL0     H66679   3.470   2.168   1.468 -1.2174  2.2808  1.7169
  494MOL0     H66680   3.484   2.040   1.686 -1.2425  0.5046  2.8289
  494MOL0     H66681   3.487   2.213   1.719 -2.2340 -1.9399 -0.5379
  494MOL0     H66682   3.652   2.098   1.856 -1.0591 -0.9453 -0.4841
  494MOL0     H66683   3.740   2.209   1.742 -0.6734  0.9828 -0.6123
  494MOL0     H66684   3.708   1.909   1.716 -1.3109  0.8791 -0.4791
  494MOL0     H66685   3.796   2.004   1.593 -1.5552 -2.3543 -1.3040
  494MOL0     H66686   4.059   2.005   1.930 -0.6104  0.6170  1.3842
  494MOL0     H66687   3.605   2.370   1.253  0.0691 -0.4189 -0.5201
  494MOL0     H66688   3.743   2.347   0.982  0.2394  1.7384 -1.5084
  494MOL0     H66689   3.650   2.471   1.075 -1.9461 -1.9688  0.8243
  494MOL0     H66690   3.814   2.503   1.024 -0.0074  1.3129  1.9822
  495MOL0     O66691   0.522   3.003   0.545 -0.3036 -0.3383 -0.2630
  495MOL0     C66692   0.479   3.007   0.431 -0.1106 -0.1933  0.1868
  495MOL0     O66693   0.486   2.907   0.339 -0.4575 -0.0463 -0.7646
  495MOL0     C66694   0.556   2.792   0.363 -0.3896  0.1634  0.4297
  495MOL0     C66695   0.689   2.782   0.388  0.2602  0.6081 -0.7522
  495MOL0     C66696   0.751   2.663   0.414 -0.3540  0.9478  0.7638
  495MOL0     C66697   0.675   2.546   0.432 -0.8052 -0.1152  0.2492
  495MOL0     O66698   0.735   2.432   0.485 -0.4172  0.6155  0.8598
  495MOL0     C66699   0.675   2.306   0.454 -0.3963  0.2248  0.1044
  495MOL0     C66700   0.743   2.269   0.317 -0.1582 -0.0938  0.3100
  495MOL0     C66701   0.893   2.255   0.299  0.7198  0.2141 -0.2917
  495MOL0     C66702   0.937   2.123   0.377  0.7460 -0.6187  0.3353
  495MOL0     C66703   1.041   2.162   0.482  0.3211  0.5690  0.5128
  495MOL0     C66704   1.076   2.033   0.555 -0.3988  0.4592 -0.8449
  495MOL0     C66705   1.161   2.084   0.673  0.6759 -0.0049 -0.5330
  495MOL0     C66706   1.079   2.126   0.796  0.3143  0.0709  0.0437
  495MOL0     N66707   1.156   2.112   0.926 -0.1578 -0.1557 -1.0981
  495MOL0     C66708   1.276   2.165   0.950  0.4292  0.1297  0.1962
  495MOL0     C66709   1.333   2.105   1.055  0.9015 -0.1616  0.3106
  495MOL0     C66710   1.468   2.138   1.111  0.1828 -0.5628  0.3339
  495MOL0     C66711   1.465   2.252   1.219 -0.2439  0.2578  0.1341
  495MOL0     C66712   1.606   2.282   1.272 -0.2327  0.2106 -0.7225
  495MOL0     C66713   1.689   2.335   1.151  0.4640 -0.0257  0.1678
  495MOL0     O66714   1.817   2.400   1.181  0.1805 -0.4348  0.0256
  495MOL0     C66715   1.916   2.321   1.233 -0.1749 -0.4451  0.0589
  495MOL0     C66716   1.912   2.310   1.372  0.3049 -1.2468  0.8642
  495MOL0     C66717   2.008   2.228   1.441 -0.0027  0.2030 -0.2654
  495MOL0     C66718   2.104   2.154   1.373 -0.2214  1.4263  0.0468
  495MOL0     C66719   2.226   2.095   1.435 -0.8510  0.6168 -0.4467
  495MOL0     O66720   2.225   2.067   1.568  0.5642  0.3165  0.0802
  495MOL0     C66721   2.318   1.991   1.629  0.5274 -0.3150  0.7074
  495MOL0     C66722   2.391   1.893   1.551  0.0432  0.2309 -1.1864
  495MOL0     C66723   2.511   1.843   1.601  0.4773 -0.7903 -0.1947
  495MOL0     C66724   2.548   1.863   1.732 -0.5153  0.0015  0.8660
  495MOL0     O66725   2.654   1.786   1.771 -0.1920  0.0337  0.2693
  495MOL0     C66726   2.695   1.782   1.913 -0.9337 -0.8563 -0.5195
  495MOL0     C66727   2.823   1.699   1.936  1.2016 -0.4243 -0.2549
  495MOL0     C66728   2.930   1.732   1.840  0.2236  0.4547  0.2349
  495MOL0     C66729   3.053   1.636   1.845 -0.8439 -0.2929 -0.0402
  495MOL0     C66730   3.168   1.681   1.758 -0.3475 -0.2574  0.0569
  495MOL0     C66731   3.276   1.577   1.753 -0.1255  0.2934  0.2403
  495MOL0     C66732   3.341   1.583   1.615 -0.4466 -0.2044 -1.0952
  495MOL0     C66733   3.405   1.726   1.583  0.5751  0.9100  0.2345
  495MOL0    Cl66734   3.550   1.719   1.480  0.3962 -0.1655 -0.5546
  495MOL0     C66735   2.488   1.966   1.805 -0.5351  0.0518  0.1613
  495MOL0     C66736   2.360   2.026   1.756 -0.6352  0.6598 -0.2186
  495MOL0     O66737   2.327   2.079   1.365  0.1088 -0.2577  0.2684
  495MOL0     C66738   2.098   2.150   1.228  0.9647  0.0852 -0.3236
  495MOL0     C66739   2.005   2.238   1.163  0.3704 -0.2246  0.4217
  495MOL0     N66740   1.231   2.018   1.096 -0.5378 -0.7169  1.0478
  495MOL0     N66741   1.122   2.030   1.027 -1.0218  0.4368  0.7514
  495MOL0     C66742   0.542   2.553   0.410  0.1648 -0.5944  0.0198
  495MOL0     C66743   0.477   2.673   0.372 -0.2406 -0.0197  0.5480
  495MOL0     C66744   0.418   3.136   0.391  0.0886 -0.1446  0.6297
  495MOL0     C66745   0.341   3.208   0.488  0.5187 -0.2200  0.0896
  495MOL0     C66746   0.267   3.322   0.459  0.0742 -0.2686  0.3796
  495MOL0     C66747   0.271   3.376   0.330  0.1773 -0.0259  1.4118
  495MOL0     O66748   0.204   3.493   0.320 -0.4645 -0.6237  0.7086
  495MOL0     C66749   0.205   3.560   0.198 -0.2198  0.2794  0.2942
  495MOL0     C66750   0.112   3.692   0.198 -1.5599  0.0329 -0.3995
  495MOL0     C66751   0.093   3.758   0.058  0.2358 -0.5378 -0.2048
  495MOL0     C66752  -0.022   3.861   0.061  0.5970 -0.6378 -0.5576
  495MOL0     C66753   0.009   3.973   0.160  0.0204  0.9653 -1.3523
  495MOL0     C66754   0.026   4.067   0.239 -0.5367  1.3303 -0.8849
  495MOL0     C66755   0.353   3.311   0.241 -0.7898 -0.5908 -0.1956
  495MOL0     C66756   0.419   3.189   0.265 -0.4154 -0.4628 -0.0521
  495MOL0     C66757   0.496   3.130   0.157 -0.2718 -0.4335  0.2128
  495MOL0     H66758   0.744   2.875   0.385  0.6659  0.3848 -4.4278
  495MOL0     H66759   0.858   2.653   0.431 -0.0709  0.4157 -1.1047
  495MOL0     H66760   0.704   2.231   0.528 -0.5005 -1.8516 -1.8302
  495MOL0     H66761   0.566   2.299   0.447 -0.3201  0.3803 -3.7580
  495MOL0     H66762   0.699   2.335   0.241 -1.4242  0.7855  1.7461
  495MOL0     H66763   0.691   2.177   0.291  1.0843 -0.9096  0.6439
  495MOL0     H66764   0.946   2.342   0.337 -1.4844  1.2187  0.6857
  495MOL0     H66765   0.925   2.245   0.195  0.5143  2.7157 -0.6445
  495MOL0     H66766   0.843   2.074   0.402 -0.7209  2.9308  2.6332
  495MOL0     H66767   0.982   2.052   0.306 -0.0580 -0.0333 -0.7861
  495MOL0     H66768   1.130   2.198   0.430 -0.5113  3.9434  1.1782
  495MOL0     H66769   0.996   2.241   0.543 -1.1784  1.8189 -2.0371
  495MOL0     H66770   0.992   1.978   0.597  1.3589 -1.0461  0.8737
  495MOL0     H66771   1.130   1.958   0.496 -1.8402 -0.5509 -0.9252
  495MOL0     H66772   1.231   2.155   0.629  1.7825 -1.0210 -0.4742
  495MOL0     H66773   1.225   2.007   0.718  0.4188  0.9472  1.5762
  495MOL0     H66774   1.035   2.225   0.786 -1.1050 -0.4537  0.8072
  495MOL0     H66775   0.990   2.063   0.812  0.4077  0.0936  0.6548
  495MOL0     H66776   1.330   2.237   0.889  2.5969  0.3845  2.2312
  495MOL0     H66777   1.493   2.050   1.172 -0.9476 -1.0804  0.0854
  495MOL0     H66778   1.542   2.157   1.033 -1.8085  3.0874 -0.8691
  495MOL0     H66779   1.409   2.339   1.184  2.8970  2.4283  0.1105
  495MOL0     H66780   1.407   2.214   1.304 -0.1767  0.1218  0.1190
  495MOL0     H66781   1.653   2.191   1.310 -2.8258 -1.4048 -1.1513
  495MOL0     H66782   1.611   2.364   1.344  0.5859  0.0340 -0.5637
  495MOL0     H66783   1.627   2.397   1.087  1.1637  0.1722 -0.3323
  495MOL0     H66784   1.712   2.249   1.086 -0.8471  0.4652 -0.9819
  495MOL0     H66785   1.851   2.378   1.431  0.7511 -1.6964  1.8882
  495MOL0     H66786   2.018   2.229   1.549 -1.6039 -1.1871 -0.0742
  495MOL0     H66787   2.373   1.851   1.453 -0.4408  0.7825 -1.3351
  495MOL0     H66788   2.561   1.771   1.537 -1.2968  0.1556 -2.8113
  495MOL0     H66789   2.715   1.887   1.935 -0.6382 -0.4206 -2.6111
  495MOL0     H66790   2.610   1.746   1.972 -1.9742 -0.5577 -1.7697
  495MOL0     H66791   2.851   1.694   2.041 -1.6967 -2.9439  0.5781
  495MOL0     H66792   2.791   1.597   1.910 -4.6656  0.9444  0.2084
  495MOL0     H66793   2.888   1.722   1.739 -1.1698  2.0196  0.6253
  495MOL0     H66794   2.970   1.832   1.855 -1.4162  1.5734 -2.1509
  495MOL0     H66795   3.018   1.535   1.826 -0.9873 -0.4480  1.0397
  495MOL0     H66796   3.081   1.631   1.950 -2.2801 -3.1089  0.2865
  495MOL0     H66797   3.211   1.769   1.806  2.1092 -0.9664 -0.7067
  495MOL0     H66798   3.133   1.720   1.662  0.1693  0.8479  0.3089
  495MOL0     H66799   3.356   1.588   1.826  3.3713 -0.1833 -3.2018
  495MOL0     H66800   3.244   1.472   1.755  0.3800  0.0808 -1.2993
  495MOL0     H66801   3.281   1.540   1.535  2.7895  0.9110 -4.4454
  495MOL0     H66802   3.435   1.526   1.616  2.1364  3.6659 -0.7892
  495MOL0     H66803   3.329   1.771   1.519 -1.0180 -3.3282 -1.1949
  495MOL0     H66804   3.418   1.784   1.674 -2.0264 -1.5347  2.3548
  495MOL0     H66805   2.533   2.002   1.897 -0.4355 -0.1921  0.2083
  495MOL0     H66806   2.313   2.118   1.789 -2.0195 -1.2231  3.6167
  495MOL0     H66807   2.161   2.087   1.166 -0.5511 -0.5829 -1.2633
  495MOL0     H66808   1.989   2.228   1.056  2.1110  0.6344  0.0292
  495MOL0     H66809   0.471   2.471   0.418  0.3508 -0.8794 -1.0652
  495MOL0     H66810   0.369   2.672   0.368 -0.3127  3.0404 -1.8409
  495MOL0     H66811   0.331   3.158   0.584  1.6131 -1.1054 -0.2327
  495MOL0     H66812   0.205   3.365   0.537  1.1523 -0.3783  1.3112
  495MOL0     H66813   0.169   3.505   0.111  1.1152 -0.3991  0.1323
  495MOL0     H66814   0.306   3.600   0.182 -1.0646  3.0033  1.3181
  495MOL0     H66815   0.157   3.769   0.262 -4.7702  1.8744 -0.1453
  495MOL0     H66816   0.011   3.671   0.234 -1.8452  1.7114 -0.1143
  495MOL0     H66817   0.091   3.682  -0.021  1.0672  1.1091 -1.9062
  495MOL0     H66818   0.189   3.805   0.034  0.0441 -0.6733 -1.3109
  495MOL0     H66819  -0.037   3.900  -0.040  2.1330 -2.9392 -1.7560
  495MOL0     H66820  -0.108   3.807   0.102  2.7179 -1.4323  3.3652
  495MOL0     H66821   0.041   4.136   0.320 -0.0570 -0.3135  0.4815
  495MOL0     H66822   0.381   3.355   0.146  1.4006 -1.5326 -0.0562
  495MOL0     H66823   0.432   3.097   0.074  1.0032 -0.4975 -0.7848
  495MOL0     H66824   0.559   3.212   0.121 -0.6738  0.2872  1.1247
  495MOL0     H66825   0.567   3.049   0.181 -2.2992 -3.0970 -2.0205
  496MOL0     O66826   9.351   8.173   7.329 -0.0155 -0.7043  0.7693
  496MOL0     C66827   9.397   8.246   7.235  0.4401  0.7037 -0.2011
  496MOL0     O66828   9.523   8.297   7.226  0.2237  0.9801  0.7986
  496MOL0     C66829   9.636   8.253   7.294 -0.0991 -0.0447  0.2138
  496MOL0     C66830   9.648   8.126   7.357 -0.1788 -0.3408 -0.0033
  496MOL0     C66831   9.781   8.087   7.406  0.7924 -0.1250 -0.6483
  496MOL0     C66832   9.893   8.171   7.395 -0.0924 -0.7498  0.0443
  496MOL0     O66833  10.019   8.157   7.443  0.0118 -0.4796 -0.0471
  496MOL0     C66834  10.028   8.119   7.578 -0.7621 -0.6576  1.3069
  496MOL0     C66835  10.170   8.154   7.632  0.2633 -0.6135  0.6410
  496MOL0     C66836  10.178   8.136   7.782 -0.3737 -0.5447  0.2358
  496MOL0     C66837  10.318   8.158   7.836  0.8201  0.6683 -0.8516
  496MOL0     C66838  10.317   8.173   7.991 -0.9508 -0.5038  0.0306
  496MOL0     C66839  10.244   8.296   8.039 -0.2259 -0.5152 -0.0098
  496MOL0     C66840  10.287   8.426   7.954 -0.3621  0.2112 -0.0148
  496MOL0     C66841  10.264   8.546   8.048  0.1174 -0.1803  0.8430
  496MOL0     N66842  10.354   8.565   8.156  0.4425 -0.2163 -0.0218
  496MOL0     C66843  10.330   8.634   8.269  0.5957  0.3068 -0.4552
  496MOL0     C66844  10.448   8.631   8.340  0.2198  0.0159  0.6152
  496MOL0     C66845  10.476   8.714   8.453 -0.2532  0.2074  0.0793
  496MOL0     C66846  10.508   8.636   8.580 -0.9208  1.1434  0.5344
  496MOL0     C66847  10.649   8.566   8.589 -0.6797 -0.4186  0.0865
  496MOL0     C66848  10.669   8.473   8.711 -0.3247  1.1859 -0.7364
  496MOL0     O66849  10.619   8.525   8.837  0.2910  0.5745  0.9309
  496MOL0     C66850  10.512   8.464   8.888 -0.6483 -0.1483 -0.1454
  496MOL0     C66851  10.402   8.544   8.912  0.0992  0.2360 -0.3741
  496MOL0     C66852  10.287   8.514   8.980  0.3362  1.1003 -0.4570
  496MOL0     C66853  10.281   8.381   9.022  0.1003 -0.6025 -0.0179
  496MOL0     C66854  10.163   8.322   9.074  0.1546  0.1427 -0.4360
  496MOL0     O66855  10.139   8.187   9.056 -0.2319 -0.4642 -0.6081
  496MOL0     C66856  10.009   8.146   9.065  0.4479 -0.0300  0.2371
  496MOL0     C66857   9.958   8.086   8.950  0.8696  0.2835  0.2298
  496MOL0     C66858   9.822   8.037   8.939 -0.7678 -0.5176 -0.4343
  496MOL0     C66859   9.744   8.040   9.048  0.8232 -1.7424 -0.9668
  496MOL0     O66860   9.614   8.004   9.047 -0.2657  0.2498 -0.4360
  496MOL0     C66861   9.572   7.916   8.943  0.2796  0.0471 -0.2242
  496MOL0     C66862   9.433   7.862   8.971  0.5808  0.0263 -0.8868
  496MOL0     C66863   9.329   7.971   8.953  0.7023  0.2442  0.0123
  496MOL0     C66864   9.190   7.921   8.950  1.0453 -0.1583  0.1864
  496MOL0     C66865   9.085   8.028   8.971 -0.5007  0.6559  0.1841
  496MOL0     C66866   8.942   7.967   8.950 -0.3908  1.0169  0.2703
  496MOL0     C66867   8.831   8.064   8.989  0.1060  0.2353 -0.3025
  496MOL0     C66868   8.693   8.007   8.984 -0.1647 -0.1241 -0.1088
  496MOL0    Cl66869   8.581   8.145   8.939  0.0683 -0.2801 -0.4112
  496MOL0     C66870   9.793   8.096   9.171 -0.3247  0.5434 -0.2233
  496MOL0     C66871   9.920   8.143   9.179 -0.4070 -0.6090 -0.7363
  496MOL0     O66872  10.095   8.395   9.136  0.3311 -0.0464 -0.7073
  496MOL0     C66873  10.397   8.292   9.015 -0.6353 -0.0155  0.6926
  496MOL0     C66874  10.516   8.346   8.950  0.0156 -0.5839 -0.0676
  496MOL0     N66875  10.543   8.553   8.267 -0.3350  0.8055 -0.3548
  496MOL0     N66876  10.481   8.525   8.156 -0.2410 -0.6658  0.1655
  496MOL0     C66877   9.883   8.288   7.315  0.4263 -1.2139  0.1648
  496MOL0     C66878   9.752   8.329   7.272  0.2115  0.3050  0.9747
  496MOL0     C66879   9.309   8.306   7.145 -0.3629 -0.6807  0.4027
  496MOL0     C66880   9.327   8.306   7.008  0.5850  0.7547 -0.4935
  496MOL0     C66881   9.225   8.370   6.933  0.9480  0.6156  0.0252
  496MOL0     C66882   9.116   8.439   6.984 -0.6377  0.0410  0.1949
  496MOL0     O66883   9.034   8.494   6.900 -0.2892  0.2953  0.6307
  496MOL0     C66884   8.897   8.477   6.929  0.2343  0.4307 -0.9567
  496MOL0     C66885   8.817   8.589   6.842  0.0406  0.9603 -0.3897
  496MOL0     C66886   8.835   8.569   6.688  1.0692 -1.0497 -0.8343
  496MOL0     C66887   8.768   8.686   6.621  1.0027  0.9853 -0.5811
  496MOL0     C66888   8.786   8.670   6.476  0.3164  0.2578 -0.8596
  496MOL0     C66889   8.777   8.633   6.365  0.0295  0.2917  0.5089
  496MOL0     C66890   9.113   8.457   7.118  0.7869  0.8548 -0.7848
  496MOL0     C66891   9.213   8.400   7.202 -0.5671  0.6398  0.5772
  496MOL0     C66892   9.214   8.442   7.344  0.0610  0.0520 -0.2861
  496MOL0     H66893   9.561   8.061   7.359 -0.6374  0.1639 -1.7199
  496MOL0     H66894   9.785   7.990   7.455 -1.5914  0.4847  0.9240
  496MOL0     H66895   9.949   8.172   7.633 -0.8734  1.6805 -0.9194
  496MOL0     H66896  10.024   8.011   7.597  0.2424 -1.1193 -0.8010
  496MOL0     H66897  10.214   8.247   7.595  1.6764 -0.6191  2.1853
  496MOL0     H66898  10.235   8.079   7.586 -0.0578 -1.1898  1.1119
  496MOL0     H66899  10.143   8.037   7.811 -0.1337 -0.1941  1.8244
  496MOL0     H66900  10.100   8.206   7.814 -0.6011 -2.2120  3.8619
  496MOL0     H66901  10.368   8.071   7.794  0.0866  1.1343 -2.7849
  496MOL0     H66902  10.375   8.245   7.801  3.6838 -0.0286  1.6154
  496MOL0     H66903  10.262   8.091   8.039  0.2727 -0.6657  1.2401
  496MOL0     H66904  10.419   8.172   8.032 -0.8312  1.1363 -0.1686
  496MOL0     H66905  10.135   8.289   8.030 -0.3991 -0.9659  2.0413
  496MOL0     H66906  10.273   8.318   8.142  3.7413 -0.0098 -1.0507
  496MOL0     H66907  10.241   8.437   7.855  2.8800  0.8997 -1.5605
  496MOL0     H66908  10.393   8.415   7.932  0.1362 -1.3417  2.7242
  496MOL0     H66909  10.262   8.638   7.988  0.7832 -0.2521  0.7009
  496MOL0     H66910  10.162   8.544   8.088  0.0207 -2.2346  0.5663
  496MOL0     H66911  10.245   8.697   8.295  0.5762 -0.1887  0.7284
  496MOL0     H66912  10.570   8.767   8.435  0.6451 -1.1643  0.5855
  496MOL0     H66913  10.404   8.795   8.466 -0.4187  0.3665 -1.5981
  496MOL0     H66914  10.485   8.686   8.675  0.8325  2.9919  0.0602
  496MOL0     H66915  10.446   8.546   8.580 -0.2283  0.6507  0.8314
  496MOL0     H66916  10.731   8.638   8.585 -0.2198 -0.6713  2.8686
  496MOL0     H66917  10.656   8.495   8.505  2.2764 -2.8458  2.1784
  496MOL0     H66918  10.776   8.456   8.726 -0.3382  0.5382 -1.3183
  496MOL0     H66919  10.616   8.379   8.692 -0.1785  0.9424  0.0431
  496MOL0     H66920  10.405   8.646   8.874 -4.1841  0.1011 -1.6648
  496MOL0     H66921  10.204   8.580   9.002  0.3816 -0.0554  4.5227
  496MOL0     H66922  10.020   8.091   8.861  0.5572 -0.0020 -0.0051
  496MOL0     H66923   9.803   8.024   8.833  0.7082  2.0725 -1.1083
  496MOL0     H66924   9.571   7.960   8.843  0.0663  0.3965 -0.0683
  496MOL0     H66925   9.643   7.833   8.948  1.4846  1.0937  0.8805
  496MOL0     H66926   9.416   7.772   8.911 -0.4317  0.7689 -1.7515
  496MOL0     H66927   9.420   7.822   9.072 -0.8554 -0.6033 -1.3012
  496MOL0     H66928   9.343   8.050   9.028  0.5626  1.2595 -1.0009
  496MOL0     H66929   9.347   8.025   8.859 -2.7012 -0.0987 -0.9755
  496MOL0     H66930   9.182   7.846   9.030  0.9209  1.4253  1.7071
  496MOL0     H66931   9.174   7.877   8.851 -0.5077  1.3218 -0.2533
  496MOL0     H66932   9.104   8.094   8.887  0.6466 -2.1583 -1.9531
  496MOL0     H66933   9.120   8.066   9.067  3.5850  2.5996 -1.8381
  496MOL0     H66934   8.923   7.939   8.846 -0.1077  0.9506  0.2362
  496MOL0     H66935   8.925   7.884   9.019 -3.4747  2.5297  1.5146
  496MOL0     H66936   8.844   8.140   8.911  5.3468 -2.1502 -2.2200
  496MOL0     H66937   8.855   8.098   9.090 -0.9257  1.0096 -0.3036
  496MOL0     H66938   8.689   7.935   8.902  2.8182 -0.4819 -0.0824
  496MOL0     H66939   8.670   7.961   9.081  0.4484  3.6406  2.0019
  496MOL0     H66940   9.741   8.090   9.266  0.7365 -0.9793  0.3103
  496MOL0     H66941   9.960   8.175   9.274 -0.4545 -1.0822 -0.5530
  496MOL0     H66942  10.381   8.190   9.048 -0.2327 -1.3226 -2.7097
  496MOL0     H66943  10.607   8.289   8.932 -0.6634 -1.3861 -1.0865
  496MOL0     H66944   9.959   8.363   7.295 -0.8384 -0.9448 -5.1807
  496MOL0     H66945   9.745   8.425   7.222  0.2837  1.2778  2.7380
  496MOL0     H66946   9.404   8.255   6.951 -0.2880 -0.7693 -0.3613
  496MOL0     H66947   9.236   8.366   6.825 -0.3194 -1.4674 -0.0810
  496MOL0     H66948   8.869   8.494   7.033  0.0621 -1.5638 -0.6402
  496MOL0     H66949   8.866   8.376   6.899  2.7485 -1.1648  1.2707
  496MOL0     H66950   8.860   8.686   6.867  0.6337  0.1035  2.2655
  496MOL0     H66951   8.712   8.589   6.875  0.7947  1.5095  2.2988
  496MOL0     H66952   8.785   8.474   6.666 -1.4011  0.0445 -0.3064
  496MOL0     H66953   8.940   8.556   6.660  0.6639  0.3005 -3.2050
  496MOL0     H66954   8.662   8.671   6.646  1.6566  0.1451  1.9960
  496MOL0     H66955   8.797   8.787   6.652 -2.1152  1.5646  0.8147
  496MOL0     H66956   8.751   8.591   6.269  0.8877  0.0166  0.3863
  496MOL0     H66957   9.048   8.529   7.167  0.9336 -0.4012  1.4183
  496MOL0     H66958   9.219   8.551   7.346 -0.0375  0.0520 -0.0327
  496MOL0     H66959   9.130   8.404   7.402  0.4950 -1.8922 -0.8476
  496MOL0     H66960   9.300   8.410   7.404  1.6274  1.7480 -1.5264
  497MOL0     O66961   2.054   8.876   9.932  0.0279 -0.0360  0.1267
  497MOL0     C66962   2.163   8.843   9.886  0.9361 -0.6034  0.1520
  497MOL0     O66963   2.279   8.885   9.938  0.3862  0.2000  0.1784
  497MOL0     C66964   2.281   8.972  10.051 -0.4821 -0.4343 -0.7958
  497MOL0     C66965   2.398   8.959  10.140  0.0548 -0.9609 -0.7764
  497MOL0     C66966   2.411   9.053  10.247 -0.2939  0.2164  0.0970
  497MOL0     C66967   2.314   9.149  10.265  0.8060 -0.1902  0.2119
  497MOL0     O66968   2.322   9.245  10.362 -0.5001 -0.0760 -0.6414
  497MOL0     C66969   2.390   9.212  10.491  0.1912 -0.9907 -0.5317
  497MOL0     C66970   2.331   9.292  10.616 -0.4972 -0.2559 -0.6536
  497MOL0     C66971   2.375   9.231  10.749 -0.0294 -0.2808 -0.2566
  497MOL0     C66972   2.360   9.321  10.876  0.2890  0.3152  0.0543
  497MOL0     C66973   2.418   9.257  11.006 -0.3919 -0.0787  0.2666
  497MOL0     C66974   2.370   9.319  11.140 -0.3902 -0.0797 -0.0146
  497MOL0     C66975   2.435   9.245  11.259  0.3056  0.7531 -0.0544
  497MOL0     C66976   2.341   9.256  11.379  1.1117 -0.7165  0.4163
  497MOL0     N66977   2.296   9.397  11.394 -0.2691 -0.4750  0.0583
  497MOL0     C66978   2.370   9.508  11.409  0.5569 -0.5474  0.3103
  497MOL0     C66979   2.284   9.610  11.410 -0.4100 -0.0743  0.3123
  497MOL0     C66980   2.325   9.746  11.455  0.7759  0.3434  0.0536
  497MOL0     C66981   2.428   9.813  11.363 -0.8686 -1.3580 -0.2294
  497MOL0     C66982   2.439   9.957  11.418 -0.2243  0.3196 -0.2975
  497MOL0     C66983   2.546  10.019  11.337  0.3318 -0.0461 -0.0912
  497MOL0     O66984   2.676   9.964  11.365  0.5218  0.5500  0.8985
  497MOL0     C66985   2.765   9.929  11.262  0.0232  0.1346 -0.4871
  497MOL0     C66986   2.900   9.891  11.290 -0.9605  0.5312 -0.0416
  497MOL0     C66987   3.002   9.867  11.190 -0.1093  0.3699  0.1073
  497MOL0     C66988   2.959   9.888  11.054  0.3315  0.3347 -0.6818
  497MOL0     C66989   3.061   9.877  10.943  0.2517  1.1768  0.1541
  497MOL0     O66990   3.169   9.805  10.970 -0.1031 -1.4904  0.3073
  497MOL0     C66991   3.281   9.826  10.892 -0.3813 -0.6888 -0.2510
  497MOL0     C66992   3.364   9.713  10.856  1.0526  0.9573  0.0166
  497MOL0     C66993   3.486   9.740  10.790  0.2908  0.0862  1.0314
  497MOL0     C66994   3.519   9.868  10.764 -0.7330 -0.8276  0.2141
  497MOL0     O66995   3.641   9.892  10.702  0.3994 -0.2269 -0.9720
  497MOL0     C66996   3.627   9.917  10.564 -0.9779 -0.5644  0.3652
  497MOL0     C66997   3.758   9.958  10.496  0.1326 -0.3990 -0.4387
  497MOL0     C66998   3.818  10.092  10.546  0.1294  0.0209 -0.0304
  497MOL0     C66999   3.783  10.216  10.474  0.4692 -0.5243 -0.1619
  497MOL0     C67000   3.854  10.341  10.542  0.2612  0.2688  0.0512
  497MOL0     C67001   3.858  10.461  10.457  0.6904 -0.1309  0.0261
  497MOL0     C67002   3.718  10.505  10.403 -0.0640 -0.6717 -0.0928
  497MOL0     C67003   3.711  10.646  10.350  1.0370  0.5174  0.5266
  497MOL0    Cl67004   3.535  10.694  10.325  0.0925  0.2308  0.0406
  497MOL0     C67005   3.439   9.976  10.797  0.0942 -0.9171 -0.7963
  497MOL0     C67006   3.324   9.957  10.866  0.8689  0.2568  0.0429
  497MOL0     O67007   3.030   9.930  10.835 -0.0456 -0.9674  0.1452
  497MOL0     C67008   2.828   9.919  11.025 -0.3533 -0.0407  0.6440
  497MOL0     C67009   2.737   9.945  11.126  0.0282  0.5830  0.3308
  497MOL0     N67010   2.154   9.560  11.417 -0.2175 -0.0248  0.3118
  497MOL0     N67011   2.166   9.432  11.384  0.0126  0.7597  0.5000
  497MOL0     C67012   2.204   9.156  10.182 -0.7324 -0.3323 -0.6904
  497MOL0     C67013   2.187   9.070  10.086 -0.0925  0.8160  0.6883
  497MOL0     C67014   2.156   8.740   9.782  1.0270 -0.4118  0.3029
  497MOL0     C67015   2.029   8.681   9.750 -0.4102 -0.3101 -0.4376
  497MOL0     C67016   2.022   8.583   9.649  0.4190 -0.3841  0.0831
  497MOL0     C67017   2.137   8.554   9.572  0.1388 -0.3319  0.2617
  497MOL0     O67018   2.128   8.461   9.468  0.4093 -0.4214  0.3007
  497MOL0     C67019   1.999   8.430   9.415  1.2589 -0.7414 -0.0964
  497MOL0     C67020   2.004   8.320   9.308  0.6910  0.4681 -0.4361
  497MOL0     C67021   2.005   8.185   9.390  0.0702 -0.3864  0.6070
  497MOL0     C67022   2.030   8.071   9.287 -0.4441  0.3026 -0.0565
  497MOL0     C67023   1.932   8.076   9.180  0.6734  0.2180  0.6944
  497MOL0     C67024   1.836   8.060   9.110 -0.0786  0.3513  0.0293
  497MOL0     C67025   2.262   8.606   9.605  0.8595 -0.1443 -0.0053
  497MOL0     C67026   2.271   8.701   9.708  0.2672  0.7132 -0.5159
  497MOL0     C67027   2.413   8.749   9.727 -0.0974 -0.2342 -0.6792
  497MOL0     H67028   2.478   8.887  10.129  2.2397  0.6015  2.8955
  497MOL0     H67029   2.490   9.039  10.321 -0.1450 -0.1949 -0.1348
  497MOL0     H67030   2.383   9.104  10.500  1.7232 -1.1407 -0.8955
  497MOL0     H67031   2.494   9.247  10.487 -0.2160  0.2540 -0.9456
  497MOL0     H67032   2.222   9.289  10.626 -0.6246  1.0774 -1.3895
  497MOL0     H67033   2.378   9.391  10.614  5.2179 -2.5864 -1.2829
  497MOL0     H67034   2.481   9.205  10.740 -0.0187 -0.2063 -0.3436
  497MOL0     H67035   2.318   9.142  10.776  1.9074 -2.0325 -1.5645
  497MOL0     H67036   2.391   9.425  10.861  0.9931 -0.0231 -0.9141
  497MOL0     H67037   2.251   9.329  10.890  0.0999  0.1583 -1.2067
  497MOL0     H67038   2.391   9.152  10.999  4.8183 -1.5702 -2.7760
  497MOL0     H67039   2.527   9.255  10.997 -0.3361 -1.5045  0.9842
  497MOL0     H67040   2.397   9.425  11.129  2.1898 -0.8094 -1.5268
  497MOL0     H67041   2.261   9.311  11.152 -0.5235  2.7498  1.8991
  497MOL0     H67042   2.524   9.302  11.286 -1.6402  2.7242  2.9955
  497MOL0     H67043   2.449   9.141  11.228 -1.7100 -1.1959  4.5377
  497MOL0     H67044   2.254   9.190  11.375 -2.5786  3.6281  1.1666
  497MOL0     H67045   2.396   9.227  11.469  0.7604  0.6837  1.1095
  497MOL0     H67046   2.477   9.512  11.425  0.3012 -0.3428  2.1363
  497MOL0     H67047   2.233   9.800  11.477  1.0674  0.1488  1.9628
  497MOL0     H67048   2.369   9.731  11.554 -0.9406 -1.5013  0.5884
  497MOL0     H67049   2.528   9.771  11.380 -0.3060  0.2524  0.7714
  497MOL0     H67050   2.411   9.811  11.255  1.7301 -0.5682 -0.7408
  497MOL0     H67051   2.463   9.951  11.525  0.5038  2.1035 -0.3272
  497MOL0     H67052   2.345  10.013  11.416 -0.3479  0.2808  1.8734
  497MOL0     H67053   2.545  10.124  11.368  0.8430 -0.1877  0.4198
  497MOL0     H67054   2.515  10.023  11.232 -0.5575  0.0602  0.1686
  497MOL0     H67055   2.934   9.878  11.392 -1.3278  0.0649  0.0235
  497MOL0     H67056   3.100   9.826  11.210 -1.5595 -4.1135 -0.7642
  497MOL0     H67057   3.351   9.615  10.901 -1.1336  2.1697  2.3099
  497MOL0     H67058   3.547   9.654  10.762 -2.4925 -1.0018 -2.4392
  497MOL0     H67059   3.586   9.840  10.499  1.0962  1.4150 -3.6464
  497MOL0     H67060   3.556  10.001  10.562 -1.8290 -1.2882 -0.9205
  497MOL0     H67061   3.828   9.877  10.516 -0.7068 -0.7735  1.1451
  497MOL0     H67062   3.729   9.978  10.392 -2.2850  0.8284  0.3896
  497MOL0     H67063   3.794  10.105  10.652 -0.2785  0.2820 -0.1493
  497MOL0     H67064   3.925  10.073  10.538 -0.2814 -2.1038 -1.2658
  497MOL0     H67065   3.675  10.226  10.486 -0.0559 -5.7464  2.7848
  497MOL0     H67066   3.820  10.224  10.371  2.1187  1.1183  0.5158
  497MOL0     H67067   3.956  10.312  10.568 -0.0966  0.0723  1.3372
  497MOL0     H67068   3.807  10.353  10.640  1.4899  0.6850  0.5942
  497MOL0     H67069   3.909  10.546  10.501 -1.5468  1.9476 -1.1631
  497MOL0     H67070   3.906  10.432  10.363  0.5252  3.5466 -1.3266
  497MOL0     H67071   3.638  10.485  10.475 -1.6438 -0.6041 -1.7477
  497MOL0     H67072   3.692  10.431  10.326  2.1850 -1.9213  0.2683
  497MOL0     H67073   3.735  10.719  10.428 -2.6695  0.3937  1.9809
  497MOL0     H67074   3.768  10.661  10.258 -1.9488  0.1140 -1.5238
  497MOL0     H67075   3.464  10.080  10.777 -2.2284 -0.5214 -1.9887
  497MOL0     H67076   3.256  10.030  10.908 -0.8506 -1.4257  0.3702
  497MOL0     H67077   2.791   9.929  10.924  2.9527 -1.4453 -0.8661
  497MOL0     H67078   2.639   9.982  11.098 -0.8055 -1.3672  0.5378
  497MOL0     H67079   2.124   9.227  10.200 -1.6644 -1.2953 -0.8855
  497MOL0     H67080   2.104   9.090  10.019  1.4274  2.0730 -0.9311
  497MOL0     H67081   1.939   8.729   9.788 -0.6489 -0.0639 -1.2878
  497MOL0     H67082   1.926   8.540   9.622  1.8181 -2.9289 -1.2732
  497MOL0     H67083   1.957   8.520   9.371  0.5754 -1.0506 -0.0874
  497MOL0     H67084   1.927   8.410   9.495 -1.2735  2.9631 -1.1652
  497MOL0     H67085   2.091   8.316   9.242  0.5699 -0.6165 -0.5465
  497MOL0     H67086   1.910   8.329   9.253 -0.4514  0.2811  1.3934
  497MOL0     H67087   1.916   8.161   9.449  0.1229 -0.5334  0.6281
  497MOL0     H67088   2.077   8.200   9.471 -2.5132  0.3267  2.9500
  497MOL0     H67089   2.126   8.090   9.238 -1.4667 -0.4814 -2.5235
  497MOL0     H67090   2.032   7.978   9.344 -1.2107  0.1542 -0.2591
  497MOL0     H67091   1.748   8.049   9.052  1.3010 -1.6486 -1.8401
  497MOL0     H67092   2.345   8.566   9.547  2.1281 -0.3450  1.8783
  497MOL0     H67093   2.478   8.683   9.668  1.4409  2.2663 -1.9575
  497MOL0     H67094   2.425   8.845   9.675  0.4359 -0.9488 -1.9140
  497MOL0     H67095   2.450   8.738   9.829 -0.2733  1.0366 -0.4633
  498MOL0     O67096   9.915   5.613   7.029  0.5568 -0.1107  0.6659
  498MOL0     C67097   9.794   5.602   7.011  0.0576  0.1885  0.1517
  498MOL0     O67098   9.738   5.555   6.892  0.5090  0.4968 -0.2151
  498MOL0     C67099   9.797   5.471   6.798 -0.7782  0.4596  0.2392
  498MOL0     C67100   9.903   5.521   6.715  0.2457 -0.2108  0.5711
  498MOL0     C67101   9.961   5.445   6.623  0.1250  1.2588  0.7150
  498MOL0     C67102   9.918   5.308   6.611 -0.4641  0.3058  0.1469
  498MOL0     O67103   9.977   5.233   6.515  0.0070  0.0304  0.4641
  498MOL0     C67104  10.082   5.147   6.558 -0.8548  0.0801  0.1386
  498MOL0     C67105  10.049   5.024   6.629  1.2025 -0.5790  0.3142
  498MOL0     C67106  10.173   4.955   6.664 -0.6433 -0.0903 -1.0333
  498MOL0     C67107  10.240   4.895   6.538  0.3074 -1.2901  0.7149
  498MOL0     C67108  10.373   4.957   6.504  0.4550  0.0882 -0.1743
  498MOL0     C67109  10.423   4.912   6.364 -0.6478  1.1217 -0.8867
  498MOL0     C67110  10.561   4.963   6.332 -0.5823 -0.3572  0.1724
  498MOL0     C67111  10.609   4.968   6.184 -0.5971 -1.1851 -0.2518
  498MOL0     N67112  10.742   5.027   6.171  0.7264  0.0826 -0.1534
  498MOL0     C67113  10.855   4.963   6.205 -1.3845  0.7321 -0.1787
  498MOL0     C67114  10.951   5.007   6.121 -1.0362 -0.6284 -0.1961
  498MOL0     C67115  11.098   4.944   6.121  0.1558 -1.2659  0.7224
  498MOL0     C67116  11.211   5.027   6.174  0.0518 -0.2660 -0.3315
  498MOL0     C67117  11.269   5.126   6.076 -0.1862 -0.0109  0.3099
  498MOL0     C67118  11.372   5.075   5.979  1.0966  0.6888 -0.8384
  498MOL0     O67119  11.432   5.193   5.930  0.1183  0.8943  0.3837
  498MOL0     C67120  11.552   5.174   5.852 -0.9226 -0.4509  0.0131
  498MOL0     C67121  11.635   5.276   5.816  0.0502 -0.1185 -0.0454
  498MOL0     C67122  11.750   5.265   5.741  0.7871  0.5113 -0.4611
  498MOL0     C67123  11.801   5.136   5.719 -0.1148 -0.1633  0.6041
  498MOL0     C67124  11.935   5.119   5.647  0.0678 -0.4080  0.4280
  498MOL0     O67125  12.021   5.235   5.630  0.2803 -0.0279 -0.0834
  498MOL0     C67126  12.132   5.233   5.550  0.3845  0.6522 -0.0980
  498MOL0     C67127  12.188   5.132   5.468 -0.5706 -0.3164 -0.0179
  498MOL0     C67128  12.311   5.156   5.400 -0.7181 -0.8186  0.9343
  498MOL0     C67129  12.373   5.286   5.400  0.7007  0.7565 -0.8537
  498MOL0     O67130  12.481   5.289   5.312  0.1879  0.9252  0.1766
  498MOL0     C67131  12.604   5.350   5.343  0.4935 -0.0797 -1.0062
  498MOL0     C67132  12.696   5.279   5.446 -0.1720  0.8983 -0.3913
  498MOL0     C67133  12.780   5.163   5.396 -0.0016 -0.5360 -0.5656
  498MOL0     C67134  12.686   5.042   5.362 -0.1458 -0.2564  0.6360
  498MOL0     C67135  12.775   4.911   5.354  0.3319 -0.0834 -0.7292
  498MOL0     C67136  12.784   4.840   5.493 -0.9219  0.4499  0.9784
  498MOL0     C67137  12.866   4.713   5.492  0.7757 -0.1229 -0.2039
  498MOL0     C67138  12.909   4.678   5.636  0.0728  0.1967  0.4903
  498MOL0    Cl67139  12.920   4.502   5.651 -0.4383  0.3852  0.2291
  498MOL0     C67140  12.317   5.383   5.483  0.8149 -0.2430 -0.7139
  498MOL0     C67141  12.198   5.358   5.562 -0.5838  0.4967 -0.0620
  498MOL0     O67142  11.974   5.002   5.629 -0.1755 -0.1581 -0.1645
  498MOL0     C67143  11.724   5.029   5.755  1.3361 -0.3586 -0.3197
  498MOL0     C67144  11.599   5.044   5.815  0.1453 -0.0964 -0.4607
  498MOL0     N67145  10.897   5.106   6.044 -0.4395 -0.5418 -0.7774
  498MOL0     N67146  10.770   5.122   6.072 -1.1417 -0.1970 -0.9556
  498MOL0     C67147   9.814   5.261   6.685  0.2840 -0.4569  0.7027
  498MOL0     C67148   9.751   5.343   6.776  0.4020  0.0475  0.3755
  498MOL0     C67149   9.711   5.664   7.113 -0.2315  0.4973 -0.0054
  498MOL0     C67150   9.757   5.744   7.216 -0.0105  0.3045 -0.3343
  498MOL0     C67151   9.677   5.809   7.306  0.2499 -1.3827 -0.2729
  498MOL0     C67152   9.538   5.789   7.311 -0.1651 -0.2919 -0.9656
  498MOL0     O67153   9.452   5.851   7.407  0.2863  0.3357 -0.4919
  498MOL0     C67154   9.354   5.952   7.365  0.4468 -0.0599  0.4736
  498MOL0     C67155   9.283   6.020   7.482  0.1358  0.4526  0.2084
  498MOL0     C67156   9.385   6.111   7.544 -0.1435 -0.0553  0.8243
  498MOL0     C67157   9.324   6.228   7.615  0.3726 -0.3728  0.6431
  498MOL0     C67158   9.342   6.348   7.532 -0.1040  0.0431  0.6577
  498MOL0     C67159   9.358   6.443   7.455 -0.9431  0.3752 -0.4753
  498MOL0     C67160   9.487   5.709   7.208 -0.3092  0.0992  0.1606
  498MOL0     C67161   9.566   5.651   7.108 -0.4244 -0.1464 -0.1468
  498MOL0     C67162   9.487   5.572   7.005 -0.3589  0.1862 -0.0266
  498MOL0     H67163   9.938   5.623   6.722 -1.6455  0.4388  1.0476
  498MOL0     H67164  10.047   5.483   6.569 -0.0625 -0.8144 -1.1979
  498MOL0     H67165  10.129   5.128   6.461 -0.8998 -0.3093  0.1893
  498MOL0     H67166  10.152   5.202   6.623  1.5903 -0.7523 -1.6284
  498MOL0     H67167   9.997   4.952   6.565  2.7660 -1.7840  0.3174
  498MOL0     H67168   9.989   5.067   6.710  0.0313 -1.2358 -0.1878
  498MOL0     H67169  10.146   4.864   6.717 -1.5761  1.2778  0.9449
  498MOL0     H67170  10.244   5.008   6.728 -0.5220 -2.0505  0.5350
  498MOL0     H67171  10.253   4.787   6.549  2.0066 -0.9963  1.9636
  498MOL0     H67172  10.172   4.897   6.452  0.3126 -2.4907  0.6597
  498MOL0     H67173  10.357   5.065   6.493 -0.4326 -0.0892 -0.8049
  498MOL0     H67174  10.451   4.939   6.578  0.7457  1.9558  0.0248
  498MOL0     H67175  10.416   4.803   6.353 -2.0775  1.2154 -1.0625
  498MOL0     H67176  10.357   4.952   6.286 -1.1928 -0.8094 -1.4715
  498MOL0     H67177  10.621   4.885   6.380  0.0999  0.2593  0.3299
  498MOL0     H67178  10.571   5.063   6.376  0.4687  0.5889 -2.0474
  498MOL0     H67179  10.607   4.868   6.141  1.8626 -0.8810 -1.2052
  498MOL0     H67180  10.537   5.032   6.132  0.3663  0.2021  0.0560
  498MOL0     H67181  10.861   4.885   6.280 -1.2890  0.7365 -0.1818
  498MOL0     H67182  11.101   4.849   6.177  3.7327 -1.6501  0.1098
  498MOL0     H67183  11.128   4.931   6.017 -2.8303  0.1649 -0.4517
  498MOL0     H67184  11.163   5.080   6.257 -0.5224 -0.6738 -0.3977
  498MOL0     H67185  11.291   4.968   6.221 -0.9663  0.9268  3.2198
  498MOL0     H67186  11.320   5.202   6.135 -0.9204 -1.1024  2.4683
  498MOL0     H67187  11.196   5.177   6.013 -1.4462  1.1674  2.5829
  498MOL0     H67188  11.323   5.015   5.902 -1.4888 -2.0645  2.6091
  498MOL0     H67189  11.435   5.000   6.028  2.6943  2.1307 -0.5798
  498MOL0     H67190  11.603   5.376   5.845  0.5861 -0.4103  1.6851
  498MOL0     H67191  11.805   5.354   5.713  1.5346 -0.2617 -1.5461
  498MOL0     H67192  12.137   5.037   5.457 -1.3350  0.2724 -2.0355
  498MOL0     H67193  12.357   5.074   5.347 -1.6969 -0.2536 -0.8623
  498MOL0     H67194  12.661   5.365   5.251 -0.8544 -2.0055 -2.2243
  498MOL0     H67195  12.581   5.451   5.379 -0.7898 -0.2067 -1.4169
  498MOL0     H67196  12.758   5.361   5.484 -2.3171  2.6096 -0.4043
  498MOL0     H67197  12.643   5.240   5.533 -1.3828  0.2960 -1.3815
  498MOL0     H67198  12.849   5.205   5.322 -0.9313  3.7247  0.7006
  498MOL0     H67199  12.849   5.117   5.467  0.8668 -1.8145 -2.1836
  498MOL0     H67200  12.646   5.059   5.262 -2.0139  1.3282  1.5827
  498MOL0     H67201  12.604   5.031   5.434 -2.0075  2.1268 -0.9751
  498MOL0     H67202  12.871   4.934   5.306 -0.8856  0.5511 -2.9976
  498MOL0     H67203  12.719   4.842   5.290 -1.2459 -0.9703  1.5094
  498MOL0     H67204  12.831   4.921   5.549 -0.3138  2.6250 -2.3490
  498MOL0     H67205  12.684   4.819   5.531 -1.7154  1.8045 -0.2284
  498MOL0     H67206  12.951   4.731   5.425 -0.6233  0.7333 -1.8075
  498MOL0     H67207  12.798   4.632   5.465  1.3298 -0.7234  0.1447
  498MOL0     H67208  12.997   4.738   5.662 -0.7651  2.7496 -2.0595
  498MOL0     H67209  12.840   4.709   5.715  3.3090 -0.8467  4.0614
  498MOL0     H67210  12.373   5.476   5.487  1.9439 -0.9305  0.3708
  498MOL0     H67211  12.157   5.446   5.611 -0.1589  0.8415 -0.3183
  498MOL0     H67212  11.756   4.928   5.730  2.1165  0.2075 -1.7182
  498MOL0     H67213  11.537   4.957   5.834  0.3066 -0.2094 -0.4490
  498MOL0     H67214   9.767   5.165   6.668 -3.1830  0.9890  1.3817
  498MOL0     H67215   9.664   5.330   6.838 -0.5178  3.5079 -0.0242
  498MOL0     H67216   9.865   5.750   7.229  0.0375 -2.1276  0.8815
  498MOL0     H67217   9.712   5.871   7.387  0.4848 -0.9897 -0.6729
  498MOL0     H67218   9.278   5.908   7.300  0.0756 -0.4209  1.1323
  498MOL0     H67219   9.397   6.028   7.300 -3.4734  0.8460 -1.3468
  498MOL0     H67220   9.248   5.954   7.562  1.5154  0.1168  0.5576
  498MOL0     H67221   9.196   6.077   7.447 -0.2858  0.1644  0.7631
  498MOL0     H67222   9.449   6.152   7.465 -1.3964 -0.7253 -0.5927
  498MOL0     H67223   9.444   6.047   7.610 -0.4914 -0.3384  0.8651
  498MOL0     H67224   9.219   6.209   7.640 -0.3157  3.5907  1.4973
  498MOL0     H67225   9.379   6.245   7.708 -1.7459 -1.8008  2.2676
  498MOL0     H67226   9.371   6.525   7.387  0.0629 -1.2856 -2.4199
  498MOL0     H67227   9.379   5.700   7.204 -0.2825  0.1698 -1.4328
  498MOL0     H67228   9.483   5.617   6.905 -2.0267 -0.6187 -0.3625
  498MOL0     H67229   9.530   5.472   7.000 -0.4594  0.1476 -0.1633
  498MOL0     H67230   9.386   5.553   7.043 -1.0932 -1.0039 -2.3645
  499MOL0     O67231   3.354   2.084   6.012  0.4485 -0.3369 -0.4777
  499MOL0     C67232   3.420   2.189   6.022 -0.6801 -0.2230  0.7685
  499MOL0     O67233   3.475   2.256   5.908  0.0759 -0.5389 -0.1538
  499MOL0     C67234   3.412   2.261   5.783  0.8345  0.7522  0.3881
  499MOL0     C67235   3.486   2.278   5.668  0.2554  0.2909 -1.2588
  499MOL0     C67236   3.432   2.277   5.543  0.0595 -0.9129  0.6425
  499MOL0     C67237   3.299   2.228   5.521 -0.6627 -0.7322  0.4203
  499MOL0     O67238   3.225   2.206   5.408 -0.4812 -0.4382 -0.5231
  499MOL0     C67239   3.306   2.207   5.291  1.0567 -0.4377 -0.7275
  499MOL0     C67240   3.201   2.188   5.181 -0.6418  0.4393  1.2362
  499MOL0     C67241   3.282   2.182   5.046 -0.0639  0.5423  0.0947
  499MOL0     C67242   3.210   2.230   4.915 -0.7425 -0.3879 -0.7128
  499MOL0     C67243   3.100   2.135   4.875 -0.3042  0.0714  0.8648
  499MOL0     C67244   3.002   2.197   4.765 -1.2569 -0.4792 -0.5580
  499MOL0     C67245   2.880   2.114   4.733  0.0252  0.3288 -0.5509
  499MOL0     C67246   2.791   2.105   4.864  0.7980 -1.2046 -0.7455
  499MOL0     N67247   2.671   2.028   4.832  0.5689 -0.4103 -0.0628
  499MOL0     C67248   2.652   1.899   4.864  0.3553  0.1446  0.6152
  499MOL0     C67249   2.523   1.888   4.850 -0.4536  0.8756 -1.1781
  499MOL0     C67250   2.435   1.768   4.889  0.5579 -0.0423  0.8968
  499MOL0     C67251   2.288   1.799   4.925  0.0138 -0.2894 -0.6044
  499MOL0     C67252   2.177   1.698   4.889 -0.1912 -0.3071  0.5935
  499MOL0     C67253   2.202   1.545   4.926  0.4763  0.3379 -0.7970
  499MOL0     O67254   2.230   1.544   5.063 -0.0842 -0.3145  0.3093
  499MOL0     C67255   2.132   1.544   5.154  0.4626 -0.0014  1.1650
  499MOL0     C67256   2.052   1.438   5.174  0.1947  0.0619  0.4623
  499MOL0     C67257   1.954   1.448   5.275 -0.6772  0.5513  0.9116
  499MOL0     C67258   1.927   1.569   5.336  0.0527 -0.4541 -0.7651
  499MOL0     C67259   1.812   1.586   5.432 -0.5130 -0.3800  0.1681
  499MOL0     O67260   1.736   1.700   5.424  0.5916 -0.0539 -0.0896
  499MOL0     C67261   1.660   1.746   5.532 -0.1684 -0.7670 -0.8092
  499MOL0     C67262   1.533   1.808   5.504 -0.2075 -0.2302 -0.4823
  499MOL0     C67263   1.461   1.865   5.599 -0.4684  0.2509 -0.3225
  499MOL0     C67264   1.509   1.864   5.726  0.7755 -0.1722  0.1578
  499MOL0     O67265   1.428   1.914   5.825  0.2204  0.5344  0.4658
  499MOL0     C67266   1.346   2.031   5.806 -0.0228  0.1664 -0.6468
  499MOL0     C67267   1.335   2.105   5.934  0.0913 -0.0579 -0.8873
  499MOL0     C67268   1.313   2.015   6.059  0.2150  0.1488 -0.1434
  499MOL0     C67269   1.292   2.103   6.175  0.0141 -0.6805 -0.0611
  499MOL0     C67270   1.243   2.021   6.291  0.3421  0.0176 -1.0875
  499MOL0     C67271   1.207   2.101   6.423 -0.8919 -0.1087  0.4469
  499MOL0     C67272   1.211   2.011   6.538  0.2845  0.5512  0.4007
  499MOL0     C67273   1.114   2.069   6.647 -0.7463 -0.4469 -0.3383
  499MOL0    Cl67274   0.942   2.104   6.594  0.1654  0.2754 -0.0918
  499MOL0     C67275   1.638   1.813   5.762 -0.2114  0.1662 -0.4247
  499MOL0     C67276   1.708   1.749   5.661  0.1937  0.4095  0.0717
  499MOL0     O67277   1.797   1.485   5.503 -0.0779 -1.2501 -0.0891
  499MOL0     C67278   2.018   1.675   5.319  0.2217  1.0254  1.3027
  499MOL0     C67279   2.119   1.657   5.221  0.2531 -0.4012 -0.1241
  499MOL0     N67280   2.462   2.004   4.798  0.2287  0.3541 -0.6411
  499MOL0     N67281   2.555   2.082   4.777  0.0330 -0.5720  0.5176
  499MOL0     C67282   3.225   2.218   5.636  0.5316 -0.1172  1.2881
  499MOL0     C67283   3.272   2.228   5.763  0.4469  0.2364  0.2969
  499MOL0     C67284   3.466   2.230   6.158  0.4521 -0.0845  0.3754
  499MOL0     C67285   3.435   2.153   6.276  0.5039  0.6772  0.0405
  499MOL0     C67286   3.497   2.180   6.403 -0.4007  0.1417 -0.2954
  499MOL0     C67287   3.572   2.290   6.417 -0.4259 -0.4201  1.2004
  499MOL0     O67288   3.625   2.307   6.543  0.4260  0.2904  0.4576
  499MOL0     C67289   3.745   2.237   6.543  0.5244 -0.3409 -1.1081
  499MOL0     C67290   3.819   2.252   6.678  0.0645 -0.4044 -0.1617
  499MOL0     C67291   3.855   2.400   6.696  0.1684  0.5636 -0.2928
  499MOL0     C67292   3.947   2.409   6.827  0.4092  0.1187 -0.2602
  499MOL0     C67293   4.085   2.351   6.805  0.8720  0.1869 -0.3065
  499MOL0     C67294   4.196   2.310   6.782 -0.3614 -0.7064 -0.4752
  499MOL0     C67295   3.609   2.365   6.295 -1.2978  0.4446 -0.5978
  499MOL0     C67296   3.553   2.343   6.173  0.1596  0.0807 -0.4432
  499MOL0     C67297   3.567   2.449   6.064  0.9977  0.7856  0.0425
  499MOL0     H67298   3.593   2.293   5.674  0.3479 -0.7406  2.0802
  499MOL0     H67299   3.489   2.292   5.451 -1.5257 -0.4339 -0.2962
  499MOL0     H67300   3.359   2.299   5.267  2.0025 -0.9334 -0.5835
  499MOL0     H67301   3.369   2.117   5.295 -0.8135 -1.8714 -1.6186
  499MOL0     H67302   3.120   2.262   5.187  0.3754  1.8586 -1.3293
  499MOL0     H67303   3.162   2.088   5.204  1.8237 -0.1800  3.1225
  499MOL0     H67304   3.317   2.080   5.030 -1.0231 -0.0345  1.5089
  499MOL0     H67305   3.370   2.246   5.049  1.1047 -0.9377 -0.9453
  499MOL0     H67306   3.171   2.332   4.916 -0.5418 -0.2897 -1.5321
  499MOL0     H67307   3.274   2.221   4.826  0.8081 -0.7703  0.4014
  499MOL0     H67308   3.141   2.044   4.830  1.0607  1.7485 -1.5256
  499MOL0     H67309   3.044   2.113   4.966  0.8717  0.1855  1.6463
  499MOL0     H67310   2.975   2.298   4.797 -0.6000  0.1614 -1.9553
  499MOL0     H67311   3.053   2.212   4.670  1.3088  0.2262  0.8285
  499MOL0     H67312   2.910   2.014   4.701  1.4982  0.9604 -1.1965
  499MOL0     H67313   2.821   2.156   4.651  1.6929 -2.6469 -3.5437
  499MOL0     H67314   2.842   2.070   4.954 -0.4630 -0.4984  0.2569
  499MOL0     H67315   2.757   2.206   4.886  2.6719 -0.5903 -0.4905
  499MOL0     H67316   2.710   1.820   4.912  0.2271  0.1371  0.7591
  499MOL0     H67317   2.446   1.700   4.804  0.2517 -2.2897  2.5554
  499MOL0     H67318   2.473   1.707   4.972 -0.5993 -1.5615  0.3531
  499MOL0     H67319   2.291   1.814   5.033 -1.8368  2.3926 -0.8230
  499MOL0     H67320   2.253   1.894   4.882  1.8170  1.2022  1.0430
  499MOL0     H67321   2.158   1.699   4.781  2.9044  1.7919 -0.0368
  499MOL0     H67322   2.085   1.729   4.939 -0.1398 -0.5227  0.8210
  499MOL0     H67323   2.292   1.517   4.872  2.7015  2.5320  1.4677
  499MOL0     H67324   2.126   1.471   4.899  1.4192 -0.1907 -2.0755
  499MOL0     H67325   2.068   1.349   5.114 -0.0633  1.6761 -2.1677
  499MOL0     H67326   1.902   1.356   5.297  1.6065 -1.3449 -1.1555
  499MOL0     H67327   1.498   1.816   5.401 -3.6698  2.1705  0.6874
  499MOL0     H67328   1.365   1.906   5.567 -1.1358 -1.1960 -0.2673
  499MOL0     H67329   1.394   2.103   5.739 -1.2222  2.8181  1.2049
  499MOL0     H67330   1.249   2.007   5.762 -0.5374 -0.9682  1.0103
  499MOL0     H67331   1.426   2.162   5.957  1.6650 -3.4777  2.3420
  499MOL0     H67332   1.252   2.176   5.928 -0.5899 -0.5137  1.8501
  499MOL0     H67333   1.220   1.957   6.052 -0.7445  1.6826 -0.6944
  499MOL0     H67334   1.393   1.946   6.087  0.6555  0.9603  0.6236
  499MOL0     H67335   1.207   2.169   6.158 -0.5650 -1.0204  1.3627
  499MOL0     H67336   1.384   2.159   6.195 -0.1910 -0.1984 -0.4392
  499MOL0     H67337   1.311   1.938   6.313  1.5057  1.7646  2.8193
  499MOL0     H67338   1.150   1.972   6.261 -1.5535  3.8793 -2.0599
  499MOL0     H67339   1.288   2.174   6.434  0.5996 -1.1257 -2.6119
  499MOL0     H67340   1.120   2.167   6.425 -1.1492 -0.4487  0.4980
  499MOL0     H67341   1.311   2.011   6.584  0.8900  0.4717 -0.8674
  499MOL0     H67342   1.192   1.906   6.516  2.2074  0.1669  0.3582
  499MOL0     H67343   1.111   2.006   6.736 -1.9517  2.0638  1.5157
  499MOL0     H67344   1.154   2.162   6.688 -1.5112  0.5562 -1.7719
  499MOL0     H67345   1.673   1.823   5.864  5.7107 -0.5901 -1.9585
  499MOL0     H67346   1.809   1.710   5.675  1.0609  0.9082 -3.7885
  499MOL0     H67347   2.014   1.776   5.359  2.5003  0.9904  1.7315
  499MOL0     H67348   2.195   1.733   5.205 -0.8120  1.1464  1.6433
  499MOL0     H67349   3.121   2.187   5.630  0.6230 -0.8826  2.9998
  499MOL0     H67350   3.204   2.224   5.848  1.1849  0.3418  0.9001
  499MOL0     H67351   3.375   2.062   6.274 -0.7627  1.4904 -0.4888
  499MOL0     H67352   3.470   2.121   6.490 -0.6793 -2.6164 -2.1234
  499MOL0     H67353   3.810   2.257   6.457  4.0516 -0.6553  1.2534
  499MOL0     H67354   3.726   2.129   6.543 -0.7711 -0.2000  1.8564
  499MOL0     H67355   3.911   2.191   6.678  1.0626  0.9994  1.4785
  499MOL0     H67356   3.761   2.207   6.759 -1.1216  0.3493 -0.5662
  499MOL0     H67357   3.761   2.453   6.713  0.1067 -0.5301  3.5396
  499MOL0     H67358   3.906   2.430   6.604 -0.4810  0.8546 -0.5678
  499MOL0     H67359   3.961   2.517   6.842 -1.3124  0.0677  2.4206
  499MOL0     H67360   3.901   2.368   6.917 -0.7301 -1.4748 -1.5329
  499MOL0     H67361   4.300   2.289   6.765  0.5229  1.5250  1.6384
  499MOL0     H67362   3.684   2.443   6.292  1.2081 -1.8024 -1.7541
  499MOL0     H67363   3.468   2.462   6.018  1.0276  1.1213  0.0693
  499MOL0     H67364   3.597   2.543   6.112  2.1699  0.3626  0.1599
  499MOL0     H67365   3.646   2.417   5.997  1.4097 -1.2171  1.3890
  500MOL0     O67366   6.213   0.963   0.307 -0.0003 -0.4279  0.1984
  500MOL0     C67367   6.298   0.941   0.390 -0.2947  0.5602  0.8061
  500MOL0     O67368   6.435   0.976   0.370  0.6167  0.3881 -0.4267
  500MOL0     C67369   6.470   1.070   0.270  0.1358 -0.0016  0.8508
  500MOL0     C67370   6.382   1.178   0.227 -0.8840  0.6413  0.4983
  500MOL0     C67371   6.418   1.253   0.112  0.7115  0.2874 -0.8197
  500MOL0     C67372   6.535   1.230   0.040  1.0384 -0.2905 -0.8005
  500MOL0     O67373   6.567   1.288  -0.078 -0.6807 -0.1177  0.2158
  500MOL0     C67374   6.468   1.364  -0.147 -0.4718  0.2837 -0.0464
  500MOL0     C67375   6.520   1.432  -0.271  0.4254  0.5294  0.8542
  500MOL0     C67376   6.545   1.317  -0.382 -0.2944 -0.1494 -0.0933
  500MOL0     C67377   6.631   1.389  -0.498 -0.1882 -0.7440 -0.0525
  500MOL0     C67378   6.641   1.288  -0.622 -0.0069  0.0643 -0.4569
  500MOL0     C67379   6.766   1.190  -0.618  0.1449  0.3697 -0.0810
  500MOL0     C67380   6.772   1.101  -0.740  0.5212  0.0366 -0.0375
  500MOL0     C67381   6.916   1.049  -0.768  0.2304 -0.0571 -1.2628
  500MOL0     N67382   6.994   1.005  -0.649  0.4111  0.4491  0.2754
  500MOL0     C67383   7.092   1.080  -0.587 -0.7750  0.2707 -0.1698
  500MOL0     C67384   7.164   0.988  -0.515  0.0769  0.0438  0.2007
  500MOL0     C67385   7.287   1.019  -0.428  0.2206 -0.3398  0.5950
  500MOL0     C67386   7.391   1.095  -0.512 -0.5825  0.8702  1.2148
  500MOL0     C67387   7.469   1.010  -0.611 -0.2657 -0.5209 -0.0186
  500MOL0     C67388   7.453   1.067  -0.753 -0.8304 -0.8240  0.5537
  500MOL0     O67389   7.476   1.216  -0.737 -0.1507  0.2238 -0.3012
  500MOL0     C67390   7.597   1.279  -0.753 -0.4930  0.0985  0.3815
  500MOL0     C67391   7.723   1.215  -0.765 -0.0537 -0.7592  0.1824
  500MOL0     C67392   7.847   1.284  -0.758  0.0123 -1.0998 -0.5963
  500MOL0     C67393   7.848   1.425  -0.753 -0.2945  0.1196  1.0863
  500MOL0     C67394   7.973   1.498  -0.779  0.6867  0.1332  0.4576
  500MOL0     O67395   7.962   1.631  -0.752 -0.1304  1.0437 -0.4591
  500MOL0     C67396   8.070   1.711  -0.793 -0.1565 -0.1223  0.3833
  500MOL0     C67397   8.147   1.784  -0.696  0.0809  0.8190  0.0500
  500MOL0     C67398   8.257   1.860  -0.731  0.0958 -0.4299  0.6115
  500MOL0     C67399   8.297   1.873  -0.871  0.0584  0.7153 -0.5254
  500MOL0     O67400   8.404   1.939  -0.926 -0.1944 -0.2268  0.5940
  500MOL0     C67401   8.519   1.858  -0.954 -0.7523  0.1594 -0.1776
  500MOL0     C67402   8.615   1.867  -0.827 -1.0559  0.2979  1.0352
  500MOL0     C67403   8.702   1.987  -0.850 -0.1217 -0.0966  0.0052
  500MOL0     C67404   8.778   2.025  -0.725 -0.0181 -0.0718  0.0129
  500MOL0     C67405   8.716   2.150  -0.646  0.5495 -0.0727  0.4057
  500MOL0     C67406   8.579   2.118  -0.580 -0.1433  0.8184 -0.1830
  500MOL0     C67407   8.525   2.241  -0.492  0.1553  0.1360  1.3685
  500MOL0     C67408   8.458   2.192  -0.358  0.3378 -0.4704 -0.7206
  500MOL0    Cl67409   8.592   2.123  -0.258 -0.1124  0.3966  0.7663
  500MOL0     C67410   8.214   1.801  -0.965 -1.0442 -0.7150  0.4276
  500MOL0     C67411   8.108   1.719  -0.925  0.4961  0.2347  0.7169
  500MOL0     O67412   8.070   1.447  -0.828  0.3786  0.3389  0.4095
  500MOL0     C67413   7.724   1.490  -0.744 -0.4779  0.2837 -0.1240
  500MOL0     C67414   7.604   1.423  -0.733 -1.3337  1.2957 -0.1715
  500MOL0     N67415   7.114   0.866  -0.551 -0.8779  0.1648 -0.6016
  500MOL0     N67416   6.999   0.875  -0.611  0.2493 -0.2803 -0.5059
  500MOL0     C67417   6.619   1.129   0.091 -0.7277  0.1691 -0.5424
  500MOL0     C67418   6.587   1.051   0.206 -0.7642  0.1870 -0.4287
  500MOL0     C67419   6.263   0.887   0.519  1.3612  1.2739 -0.0079
  500MOL0     C67420   6.116   0.870   0.538  0.0230 -0.4947 -0.4490
  500MOL0     C67421   6.069   0.807   0.653 -0.5220  0.1571 -0.5810
  500MOL0     C67422   6.155   0.769   0.752 -1.0940  0.2557  0.7204
  500MOL0     O67423   6.115   0.703   0.863 -1.1213 -0.9433  1.0293
  500MOL0     C67424   6.129   0.564   0.849 -0.1066  1.1594 -0.7792
  500MOL0     C67425   6.007   0.500   0.904  0.4471 -0.0336 -0.2124
  500MOL0     C67426   6.028   0.360   0.941 -0.6702 -0.3067 -0.8084
  500MOL0     C67427   5.917   0.302   1.029  0.5823  0.1209 -0.9005
  500MOL0     C67428   5.941   0.170   1.084 -0.7461 -0.2111 -0.0014
  500MOL0     C67429   5.960   0.056   1.109 -1.1208 -0.6067 -0.4291
  500MOL0     C67430   6.292   0.768   0.730  0.5271  0.0025  0.0628
  500MOL0     C67431   6.349   0.829   0.614  0.3218  0.4973 -0.3416
  500MOL0     C67432   6.494   0.831   0.598 -0.1796 -0.7562  0.6897
  500MOL0     H67433   6.290   1.192   0.282 -0.9488  1.3523  0.2158
  500MOL0     H67434   6.341   1.324   0.085 -0.3586 -1.1933 -1.7744
  500MOL0     H67435   6.381   1.300  -0.163  0.2909 -1.1518  1.2220
  500MOL0     H67436   6.440   1.439  -0.072 -0.8593 -1.6210  1.8219
  500MOL0     H67437   6.618   1.479  -0.260  2.2362 -1.6694 -3.5242
  500MOL0     H67438   6.450   1.506  -0.309  0.3661  0.5667  1.0359
  500MOL0     H67439   6.454   1.270  -0.420 -1.0908 -0.5525  2.1912
  500MOL0     H67440   6.599   1.232  -0.341 -2.7314 -0.6051  2.4388
  500MOL0     H67441   6.584   1.483  -0.527  3.0990  0.5127 -1.7731
  500MOL0     H67442   6.726   1.423  -0.457 -1.9893  1.1625  2.9719
  500MOL0     H67443   6.549   1.232  -0.642  1.4258 -2.2210 -0.9339
  500MOL0     H67444   6.663   1.350  -0.709  0.5914  2.0048  1.0074
  500MOL0     H67445   6.861   1.243  -0.613  0.6935 -0.5448 -0.6422
  500MOL0     H67446   6.742   1.123  -0.535  1.1756 -0.5674 -0.5285
  500MOL0     H67447   6.750   1.170  -0.822  1.2524  0.7052  0.3173
  500MOL0     H67448   6.696   1.023  -0.734  0.0234  0.5470  0.4467
  500MOL0     H67449   6.906   0.966  -0.839 -1.0909  1.7628 -3.3347
  500MOL0     H67450   6.957   1.139  -0.814 -0.3515  0.8733 -0.0202
  500MOL0     H67451   7.129   1.180  -0.607  2.7360 -0.8479 -0.0776
  500MOL0     H67452   7.262   1.086  -0.344  1.7904 -1.5700  2.1264
  500MOL0     H67453   7.322   0.930  -0.374 -1.3634  0.7218  3.6548
  500MOL0     H67454   7.339   1.169  -0.573  0.8636 -0.3365 -1.6341
  500MOL0     H67455   7.461   1.151  -0.450 -0.1796  0.2140  1.3623
  500MOL0     H67456   7.449   0.903  -0.597 -0.6473 -0.3712  0.6212
  500MOL0     H67457   7.571   1.024  -0.575  0.3271  1.3315 -2.2366
  500MOL0     H67458   7.353   1.046  -0.792 -0.2445  0.3132 -1.7725
  500MOL0     H67459   7.513   1.024  -0.834 -1.5477  1.6891 -1.4904
  500MOL0     H67460   7.736   1.107  -0.757  1.9923 -0.7562 -1.8612
  500MOL0     H67461   7.945   1.238  -0.769 -0.3674 -1.7355 -1.4583
  500MOL0     H67462   8.103   1.787  -0.597  0.4481  2.4198  0.1909
  500MOL0     H67463   8.304   1.910  -0.646 -0.4189 -0.9923  1.2325
  500MOL0     H67464   8.493   1.755  -0.976 -2.8338 -0.0064  2.4680
  500MOL0     H67465   8.572   1.901  -1.040  1.2119  1.3932  1.5604
  500MOL0     H67466   8.556   1.864  -0.735 -1.6626 -2.2282  0.6565
  500MOL0     H67467   8.672   1.773  -0.832  1.6516  1.7872  1.9910
  500MOL0     H67468   8.757   1.965  -0.942  0.8973 -3.3630  1.2590
  500MOL0     H67469   8.627   2.067  -0.860 -0.0268  0.1339  1.0665
  500MOL0     H67470   8.878   2.061  -0.750 -0.2461  1.4337  1.1240
  500MOL0     H67471   8.789   1.938  -0.659  4.0979  0.1101 -0.1814
  500MOL0     H67472   8.706   2.229  -0.721 -0.9277  0.5128  1.1785
  500MOL0     H67473   8.786   2.190  -0.573 -0.7919 -0.9107  2.2165
  500MOL0     H67474   8.501   2.093  -0.652  1.5863 -3.7384 -0.8175
  500MOL0     H67475   8.591   2.029  -0.517  1.8083 -0.7351 -2.5483
  500MOL0     H67476   8.452   2.290  -0.556  1.1271 -0.7769 -0.5153
  500MOL0     H67477   8.600   2.316  -0.467  1.9023 -0.8000 -0.6928
  500MOL0     H67478   8.414   2.276  -0.304 -0.2065 -1.6378  0.6921
  500MOL0     H67479   8.385   2.115  -0.380  1.1289 -1.1128 -1.1589
  500MOL0     H67480   8.251   1.809  -1.066  3.8762 -0.7267  1.9301
  500MOL0     H67481   8.049   1.658  -0.993  1.0508 -1.3266  1.5633
  500MOL0     H67482   7.723   1.596  -0.721 -0.4379  0.4299 -0.7987
  500MOL0     H67483   7.502   1.460  -0.724 -2.8460 -2.4668  0.2322
  500MOL0     H67484   6.709   1.122   0.029 -1.3049  0.3555 -1.4223
  500MOL0     H67485   6.652   0.975   0.249  1.4519  2.5832  0.7791
  500MOL0     H67486   6.042   0.896   0.463 -0.3616  3.0976  0.9500
  500MOL0     H67487   5.962   0.796   0.664 -1.1481  4.9076  0.5383
  500MOL0     H67488   6.225   0.532   0.891 -0.3419  1.8982  0.3372
  500MOL0     H67489   6.128   0.524   0.747  0.5416 -1.0522  0.0305
  500MOL0     H67490   5.924   0.503   0.832 -0.5487  1.2481  0.9349
  500MOL0     H67491   5.987   0.554   0.997  2.7764  0.7582 -0.1248
  500MOL0     H67492   6.123   0.359   0.994 -1.6671  1.5347  1.1775
  500MOL0     H67493   6.039   0.308   0.845  2.2383 -0.1480 -0.6244
  500MOL0     H67494   5.890   0.357   1.119  1.2171 -1.2461  0.1579
  500MOL0     H67495   5.827   0.300   0.966 -0.2288 -1.2537  0.2268
  500MOL0     H67496   5.977  -0.046   1.139 -0.5857 -0.6358 -0.8221
  500MOL0     H67497   6.349   0.714   0.805  0.8316  0.6566  0.3139
  500MOL0     H67498   6.523   0.933   0.623 -0.8616 -0.5777  0.7825
  500MOL0     H67499   6.541   0.767   0.673 -3.2305 -3.5857  0.4356
  500MOL0     H67500   6.527   0.791   0.501 -2.1341  0.6851 -0.6629
  501MOL0     O67501   0.125   8.806   0.585 -0.3995 -0.3557 -0.4720
  501MOL0     C67502   0.150   8.734   0.488 -0.8997 -0.1572  0.9520
  501MOL0     O67503   0.057   8.673   0.407 -0.7578 -0.1461  0.0247
  501MOL0     C67504  -0.072   8.700   0.428 -0.0204 -0.8325  0.6199
  501MOL0     C67505  -0.162   8.612   0.477 -0.3089 -0.0419 -0.4755
  501MOL0     C67506  -0.296   8.644   0.490  0.0183 -0.2331 -0.4128
  501MOL0     C67507  -0.342   8.771   0.455 -0.1352 -0.3751 -0.6103
  501MOL0     O67508  -0.470   8.800   0.487  0.0147  0.7023 -0.1237
  501MOL0     C67509  -0.500   8.928   0.542  0.4399 -0.1688  0.1816
  501MOL0     C67510  -0.654   8.928   0.559 -0.4199  0.7552 -0.2914
  501MOL0     C67511  -0.721   8.984   0.431  0.0664 -0.8437  0.1365
  501MOL0     C67512  -0.867   8.941   0.406 -1.0145 -0.7809 -0.2155
  501MOL0     C67513  -0.952   9.025   0.503  0.4932 -0.7104 -0.2938
  501MOL0     C67514  -1.095   9.010   0.458 -0.6366 -0.6468 -0.2934
  501MOL0     C67515  -1.205   9.083   0.548 -0.9077  0.4753  0.9604
  501MOL0     C67516  -1.250   9.009   0.676  0.2197 -0.2395 -0.8939
  501MOL0     N67517  -1.328   9.099   0.767 -0.8304 -0.2325 -0.2820
  501MOL0     C67518  -1.263   9.198   0.841 -0.3311  0.1302  0.6640
  501MOL0     C67519  -1.357   9.258   0.903 -0.2872 -0.7295  0.0193
  501MOL0     C67520  -1.359   9.379   1.004  0.0493 -0.0543 -0.1372
  501MOL0     C67521  -1.225   9.464   1.012 -0.1326  0.0498  0.0466
  501MOL0     C67522  -1.167   9.525   0.882  0.2527 -0.1380 -0.6823
  501MOL0     C67523  -1.033   9.590   0.916  0.1939 -0.1272  0.5332
  501MOL0     O67524  -0.967   9.622   0.795  0.1574  0.2304  0.5083
  501MOL0     C67525  -0.835   9.680   0.799  0.6012 -0.0986 -0.7485
  501MOL0     C67526  -0.754   9.686   0.906 -0.5055 -0.4703  0.5487
  501MOL0     C67527  -0.615   9.708   0.884 -0.5596  0.0269 -0.1808
  501MOL0     C67528  -0.569   9.731   0.759  0.0287 -1.2758  0.7702
  501MOL0     C67529  -0.423   9.764   0.745 -0.9996 -0.2063  0.3418
  501MOL0     O67530  -0.372   9.781   0.618 -0.6572 -0.1234 -0.7654
  501MOL0     C67531  -0.243   9.781   0.591 -0.3547 -0.4421  0.6152
  501MOL0     C67532  -0.201   9.893   0.528  0.0450  1.1936 -0.0879
  501MOL0     C67533  -0.073   9.930   0.503 -0.7133  0.4569  0.2230
  501MOL0     C67534   0.030   9.838   0.546  0.6315  0.3103  0.5319
  501MOL0     O67535   0.162   9.853   0.516 -0.3166 -0.1097 -0.3963
  501MOL0     C67536   0.247   9.731   0.521 -0.0990  0.9114  0.2390
  501MOL0     C67537   0.382   9.798   0.480  0.0193 -0.0229  0.2631
  501MOL0     C67538   0.489   9.699   0.421  0.7853  0.5634 -1.0986
  501MOL0     C67539   0.610   9.776   0.370  0.2579 -0.9192 -0.4751
  501MOL0     C67540   0.685   9.687   0.269  0.4902 -0.5428 -0.1778
  501MOL0     C67541   0.799   9.764   0.210  0.0427 -0.0821  0.5066
  501MOL0     C67542   0.921   9.790   0.309  0.0251 -0.1555  0.2771
  501MOL0     C67543   1.035   9.872   0.248 -0.5561 -0.1442  0.6281
  501MOL0    Cl67544   1.123   9.772   0.142  0.0297 -0.2534 -0.2105
  501MOL0     C67545  -0.016   9.716   0.607 -0.1197  0.0241  0.1376
  501MOL0     C67546  -0.149   9.682   0.623  0.7685 -0.4287 -0.8040
  501MOL0     O67547  -0.355   9.759   0.844 -0.1063  0.2948 -0.4417
  501MOL0     C67548  -0.655   9.721   0.658  0.2694 -0.2882  0.4137
  501MOL0     C67549  -0.786   9.686   0.677  1.0253 -0.2346  0.9333
  501MOL0     N67550  -1.470   9.184   0.882 -0.2359  0.2849  0.0101
  501MOL0     N67551  -1.448   9.081   0.805 -0.0326  0.9582  0.3906
  501MOL0     C67552  -0.249   8.865   0.409  0.6385  0.1587 -0.7364
  501MOL0     C67553  -0.113   8.831   0.401 -0.2955 -0.4808 -0.3524
  501MOL0     C67554   0.289   8.680   0.473 -0.1675  0.0086  0.3667
  501MOL0     C67555   0.386   8.772   0.514 -0.5815  0.0097  0.0114
  501MOL0     C67556   0.525   8.747   0.497 -0.2382 -0.3703 -0.0342
  501MOL0     C67557   0.567   8.631   0.433  0.1885 -0.2662 -0.5776
  501MOL0     O67558   0.701   8.616   0.408  0.2527  0.5752  0.7228
  501MOL0     C67559   0.763   8.494   0.447 -0.8452  0.5213  0.5999
  501MOL0     C67560   0.873   8.444   0.351  0.5810  0.5732 -0.1317
  501MOL0     C67561   0.807   8.414   0.224 -0.8400 -0.0401  0.5137
  501MOL0     C67562   0.930   8.367   0.130  0.3942 -0.0574 -0.1462
  501MOL0     C67563   0.869   8.318  -0.001  0.6057  0.3201 -0.3566
  501MOL0     C67564   0.812   8.318  -0.107 -0.1983 -0.3088 -0.1105
  501MOL0     C67565   0.469   8.541   0.377 -0.1287  0.6362  0.1347
  501MOL0     C67566   0.333   8.564   0.402 -0.0656  0.6672 -0.0895
  501MOL0     C67567   0.239   8.451   0.381 -0.2455 -0.0451  0.6646
  501MOL0     H67568  -0.132   8.508   0.486 -1.9839 -0.5375 -0.2934
  501MOL0     H67569  -0.373   8.574   0.522  0.0646  0.7211  2.0345
  501MOL0     H67570  -0.451   8.933   0.640 -0.9634 -2.6819  1.1215
  501MOL0     H67571  -0.479   9.008   0.471  1.2581 -0.3491  0.2164
  501MOL0     H67572  -0.682   8.970   0.656  3.7998 -1.6588  2.2970
  501MOL0     H67573  -0.689   8.824   0.558  0.6735  0.3717  0.0651
  501MOL0     H67574  -0.663   8.943   0.348 -0.8523 -0.7130 -0.5870
  501MOL0     H67575  -0.713   9.092   0.421 -0.9572 -0.8746 -1.3059
  501MOL0     H67576  -0.889   8.960   0.300  0.5697 -0.8404 -0.5788
  501MOL0     H67577  -0.882   8.834   0.426  1.2005 -0.9582  0.8247
  501MOL0     H67578  -0.943   8.986   0.605  0.4916 -1.7987 -0.7006
  501MOL0     H67579  -0.925   9.131   0.511 -0.4839 -0.0713 -3.8377
  501MOL0     H67580  -1.098   9.055   0.358  0.5590 -2.3912 -1.1684
  501MOL0     H67581  -1.128   8.906   0.451 -0.0721 -0.8910  0.5439
  501MOL0     H67582  -1.295   9.106   0.490 -0.0332 -0.4128 -0.7991
  501MOL0     H67583  -1.178   9.187   0.568 -1.3770  0.6299  0.8131
  501MOL0     H67584  -1.313   8.923   0.654 -2.0954  0.5006  2.1982
  501MOL0     H67585  -1.165   8.969   0.731  0.4962  3.1356  1.4298
  501MOL0     H67586  -1.160   9.231   0.844 -0.9626  2.9275 -2.6550
  501MOL0     H67587  -1.448   9.440   0.987 -1.1118 -1.8995 -1.0164
  501MOL0     H67588  -1.379   9.347   1.106  1.0438  1.8259  0.7136
  501MOL0     H67589  -1.255   9.549   1.074 -1.5632 -0.7481  0.5010
  501MOL0     H67590  -1.155   9.400   1.067 -1.2717 -2.5456 -1.3547
  501MOL0     H67591  -1.228   9.600   0.831 -0.4534 -0.9581 -1.0636
  501MOL0     H67592  -1.150   9.446   0.808  1.3184 -1.2730  0.7084
  501MOL0     H67593  -0.966   9.521   0.970  1.8704  0.1381 -1.1150
  501MOL0     H67594  -1.053   9.677   0.978 -0.2623 -0.6896  1.1980
  501MOL0     H67595  -0.783   9.659   1.007 -1.9689  0.3276  0.3701
  501MOL0     H67596  -0.547   9.693   0.967  0.4175 -2.4288 -1.3374
  501MOL0     H67597  -0.279   9.960   0.493 -0.7994 -0.5680 -1.8126
  501MOL0     H67598  -0.052  10.026   0.456  0.6618  0.8304  1.5373
  501MOL0     H67599   0.256   9.687   0.621 -0.3057  3.2274  1.3424
  501MOL0     H67600   0.215   9.652   0.452 -3.4448  1.7380  0.6564
  501MOL0     H67601   0.362   9.864   0.395  1.3100 -0.5366 -0.4769
  501MOL0     H67602   0.430   9.858   0.557 -1.1781 -0.8249  1.6930
  501MOL0     H67603   0.517   9.636   0.507 -2.1895  0.6719  0.0980
  501MOL0     H67604   0.438   9.632   0.350 -2.2634 -1.7997  2.8340
  501MOL0     H67605   0.670   9.789   0.461 -0.8928 -2.4157  0.5502
  501MOL0     H67606   0.579   9.863   0.312 -2.4913 -3.1004 -2.5613
  501MOL0     H67607   0.618   9.652   0.190  0.5353  0.3401 -0.6166
  501MOL0     H67608   0.732   9.606   0.326 -1.3138  0.3062  2.7236
  501MOL0     H67609   0.835   9.706   0.124  0.3319  0.0687  0.5226
  501MOL0     H67610   0.749   9.852   0.168 -3.2695 -1.0113  2.2243
  501MOL0     H67611   0.961   9.693   0.340  1.7211  0.9595  1.7724
  501MOL0     H67612   0.880   9.844   0.395 -0.8786  1.1110 -0.9076
  501MOL0     H67613   1.019   9.960   0.184  1.7406 -1.8968 -2.6164
  501MOL0     H67614   1.100   9.904   0.329 -1.5589 -0.4482  1.5781
  501MOL0     H67615   0.058   9.645   0.643 -0.3555  0.1777  0.9326
  501MOL0     H67616  -0.188   9.601   0.684  2.3037 -1.6620 -1.3867
  501MOL0     H67617  -0.618   9.736   0.557 -1.5578  0.8018 -0.1523
  501MOL0     H67618  -0.849   9.671   0.590  2.3517 -0.2018 -0.0633
  501MOL0     H67619  -0.284   8.966   0.389 -0.2837  0.2334  1.0108
  501MOL0     H67620  -0.039   8.907   0.374  2.2693 -2.6758  0.0877
  501MOL0     H67621   0.374   8.868   0.562  1.3112 -0.8011  2.2969
  501MOL0     H67622   0.600   8.816   0.536 -1.9541  1.9011 -0.5687
  501MOL0     H67623   0.699   8.406   0.460  2.3564 -1.6931  3.0001
  501MOL0     H67624   0.815   8.509   0.542  1.2825  1.5043 -0.6430
  501MOL0     H67625   0.925   8.360   0.398  1.6808  1.9699  1.2577
  501MOL0     H67626   0.939   8.529   0.335  1.3975  0.1869  1.0520
  501MOL0     H67627   0.755   8.497   0.175  2.2412 -0.7188 -4.7317
  501MOL0     H67628   0.735   8.331   0.224 -0.3379 -0.6069 -2.4815
  501MOL0     H67629   0.999   8.447   0.102  1.1648 -0.9240 -0.7858
  501MOL0     H67630   0.993   8.283   0.160  0.5006 -1.0170 -2.7842
  501MOL0     H67631   0.778   8.327  -0.208 -1.4802 -0.2368  0.3090
  501MOL0     H67632   0.496   8.442   0.342 -0.5851 -0.7127  3.2461
  501MOL0     H67633   0.284   8.352   0.363 -1.4077 -0.5300  0.2936
  501MOL0     H67634   0.178   8.448   0.471 -0.6637  4.2842  0.7345
  501MOL0     H67635   0.190   8.476   0.287  0.5663  0.2113  0.2955
  502MOL0     O67636   3.433   4.232   9.969 -0.6159  1.1049 -0.1503
  502MOL0     C67637   3.392   4.112   9.973 -0.4749 -1.0556 -1.2328
  502MOL0     O67638   3.337   4.067  10.091  0.0827  0.5370  0.3739
  502MOL0     C67639   3.367   4.142  10.212  0.5937  0.3160 -0.3151
  502MOL0     C67640   3.289   4.258  10.242 -0.0962  0.3341  0.4823
  502MOL0     C67641   3.298   4.310  10.371  0.3144 -0.2492 -1.1001
  502MOL0     C67642   3.375   4.255  10.468 -0.4601  0.7820 -0.6865
  502MOL0     O67643   3.393   4.309  10.596 -0.6935  0.3350 -0.0124
  502MOL0     C67644   3.357   4.451  10.615  0.4445 -0.4184  0.0863
  502MOL0     C67645   3.412   4.487  10.763  0.7217 -0.3195  0.1928
  502MOL0     C67646   3.334   4.403  10.874  0.1136 -0.3371  0.1772
  502MOL0     C67647   3.348   4.472  11.015  0.3884  0.5767  0.5006
  502MOL0     C67648   3.238   4.426  11.116  0.8598 -0.4065  0.7639
  502MOL0     C67649   3.255   4.516  11.246  0.0197  0.2203 -0.5073
  502MOL0     C67650   3.124   4.499  11.330 -0.3010 -0.1592  1.1371
  502MOL0     C67651   2.994   4.570  11.292  0.1160 -0.1001  0.2924
  502MOL0     N67652   2.878   4.515  11.350  0.6610  0.2339 -1.0424
  502MOL0     C67653   2.809   4.412  11.298  0.5616  0.5062 -0.1288
  502MOL0     C67654   2.687   4.400  11.370 -0.2488 -0.3685  0.0396
  502MOL0     C67655   2.567   4.303  11.352  0.6496 -0.1640 -0.1707
  502MOL0     C67656   2.600   4.179  11.273 -0.1822 -1.0704 -0.2008
  502MOL0     C67657   2.484   4.077  11.276  0.7504 -0.4098  0.2668
  502MOL0     C67658   2.526   3.977  11.172 -0.3998 -0.3475  0.1582
  502MOL0     O67659   2.437   3.866  11.168 -0.2463  0.5926 -0.3305
  502MOL0     C67660   2.438   3.781  11.059  0.3031 -0.0385 -0.8089
  502MOL0     C67661   2.357   3.798  10.946  0.2163  0.6580  0.8372
  502MOL0     C67662   2.362   3.700  10.846 -1.0484 -0.4086  0.2572
  502MOL0     C67663   2.454   3.591  10.857  1.1811 -0.0945  0.3116
  502MOL0     C67664   2.460   3.495  10.742 -0.9240  0.5100 -0.2269
  502MOL0     O67665   2.432   3.546  10.615  0.2202 -0.1737  0.2319
  502MOL0     C67666   2.405   3.453  10.516 -0.1728  0.2136  0.2493
  502MOL0     C67667   2.307   3.357  10.531  0.0123 -1.0560 -0.5182
  502MOL0     C67668   2.294   3.256  10.446 -0.4311  0.0404  0.4186
  502MOL0     C67669   2.371   3.258  10.329  0.2666  0.4063 -0.1447
  502MOL0     O67670   2.378   3.152  10.242 -0.0268  0.3767  0.4720
  502MOL0     C67671   2.257   3.083  10.215  0.5319 -0.9403  1.3752
  502MOL0     C67672   2.302   2.989  10.103  0.1460  0.0948  0.5202
  502MOL0     C67673   2.179   2.928  10.038 -1.5991  0.6013  0.1228
  502MOL0     C67674   2.206   2.870   9.904 -0.4034  0.2991  0.0591
  502MOL0     C67675   2.076   2.797   9.862  0.4145 -0.1157  0.0583
  502MOL0     C67676   2.068   2.645   9.905 -0.0250  0.1480  1.0628
  502MOL0     C67677   2.190   2.572   9.845 -0.1542  0.3185 -0.2770
  502MOL0     C67678   2.169   2.413   9.859 -0.1104 -1.2294  0.1405
  502MOL0    Cl67679   2.235   2.351   9.703 -0.0219  0.0226  0.5526
  502MOL0     C67680   2.473   3.355  10.309  0.1842  0.4694  1.1708
  502MOL0     C67681   2.491   3.450  10.404 -0.5397 -0.8132 -0.2248
  502MOL0     O67682   2.488   3.377  10.765 -0.0596  0.0323  0.3367
  502MOL0     C67683   2.523   3.578  10.972  0.5981 -1.1714  0.3157
  502MOL0     C67684   2.522   3.668  11.076 -0.5028 -0.7637  0.6267
  502MOL0     N67685   2.695   4.501  11.471 -0.2597  0.2678  0.5428
  502MOL0     N67686   2.804   4.568  11.450  0.2841  0.2763 -0.2525
  502MOL0     C67687   3.446   4.139  10.438  0.2040  0.4378  0.7070
  502MOL0     C67688   3.438   4.081  10.313 -0.2935 -0.5802 -0.3886
  502MOL0     C67689   3.399   4.028   9.854  0.9851  0.1824  0.1134
  502MOL0     C67690   3.334   3.900   9.859 -0.3570 -0.5921  0.4552
  502MOL0     C67691   3.326   3.821   9.750 -0.6572  0.7207  0.5202
  502MOL0     C67692   3.393   3.854   9.623  0.3226 -0.5617  0.0630
  502MOL0     O67693   3.393   3.781   9.506 -0.9767 -0.1513 -0.1239
  502MOL0     C67694   3.385   3.634   9.536 -0.4145  0.3556 -0.8435
  502MOL0     C67695   3.479   3.560   9.448 -0.2406 -0.7489 -0.4164
  502MOL0     C67696   3.627   3.591   9.481  0.4705 -0.2725  0.0744
  502MOL0     C67697   3.712   3.515   9.384 -0.3680 -0.0849  0.0363
  502MOL0     C67698   3.843   3.580   9.390 -0.3037  0.2357  0.1282
  502MOL0     C67699   3.940   3.639   9.409 -1.2787 -0.1028  0.7001
  502MOL0     C67700   3.442   3.980   9.618  0.5444  0.4135 -0.2864
  502MOL0     C67701   3.458   4.068   9.728 -0.1418 -0.3581 -0.0039
  502MOL0     C67702   3.533   4.196   9.713  0.6399 -0.9476  0.1113
  502MOL0     H67703   3.227   4.293  10.160  2.1218 -1.2845 -2.0402
  502MOL0     H67704   3.244   4.403  10.390 -0.8556 -0.2428 -3.9061
  502MOL0     H67705   3.396   4.526  10.547 -2.3885  1.1270  0.0037
  502MOL0     H67706   3.248   4.460  10.617  0.6188  2.3061  1.5592
  502MOL0     H67707   3.402   4.596  10.764  0.6248 -0.3218 -0.2810
  502MOL0     H67708   3.521   4.475  10.761  0.8036  0.2250 -2.5339
  502MOL0     H67709   3.362   4.298  10.865 -4.7670 -1.7654 -1.2932
  502MOL0     H67710   3.227   4.408  10.852 -0.1558 -0.4887  1.3766
  502MOL0     H67711   3.452   4.456  11.043  0.4802  0.7844  0.2862
  502MOL0     H67712   3.350   4.578  10.985  2.7443  0.7360  1.0605
  502MOL0     H67713   3.147   4.442  11.058  1.9922  0.1241 -0.9428
  502MOL0     H67714   3.240   4.317  11.128  0.2810 -0.6732 -1.1729
  502MOL0     H67715   3.342   4.475  11.299  0.0630  0.2672 -0.5420
  502MOL0     H67716   3.274   4.620  11.219 -3.9960  1.3524  0.3708
  502MOL0     H67717   3.136   4.526  11.436  1.4863  3.3304  0.1786
  502MOL0     H67718   3.106   4.392  11.343 -0.9905 -0.2904 -0.6639
  502MOL0     H67719   3.015   4.668  11.337  1.0029  0.2020 -0.7482
  502MOL0     H67720   2.984   4.575  11.184 -1.2435 -4.1751  0.0568
  502MOL0     H67721   2.838   4.358  11.208  1.8732  0.6129  0.2212
  502MOL0     H67722   2.547   4.291  11.458  2.1203 -0.2908  0.1120
  502MOL0     H67723   2.485   4.358  11.305 -1.4134 -0.9331  2.3017
  502MOL0     H67724   2.617   4.208  11.169  2.1967  2.2040  0.9732
  502MOL0     H67725   2.692   4.136  11.315  0.3890 -0.1158 -0.4584
  502MOL0     H67726   2.393   4.130  11.247  0.9809  0.2284  0.6917
  502MOL0     H67727   2.468   4.021  11.369  0.6629 -2.7226 -1.0762
  502MOL0     H67728   2.633   3.956  11.186 -0.6688 -1.3392  0.8378
  502MOL0     H67729   2.513   4.016  11.070  0.2364 -1.2303 -0.2752
  502MOL0     H67730   2.300   3.889  10.930  2.3956  1.7722 -1.1343
  502MOL0     H67731   2.305   3.701  10.754 -0.7376  1.0896  0.0437
  502MOL0     H67732   2.250   3.364  10.623  0.2523  0.4880 -0.4711
  502MOL0     H67733   2.240   3.161  10.453  0.1554 -0.2521  1.0671
  502MOL0     H67734   2.225   3.031  10.306 -1.1341  0.4052  1.6261
  502MOL0     H67735   2.181   3.151  10.175  2.5612 -0.5601 -2.1752
  502MOL0     H67736   2.357   3.049  10.029 -0.9467 -1.9818 -2.1163
  502MOL0     H67737   2.362   2.918  10.161  1.3048  0.4975 -0.1475
  502MOL0     H67738   2.163   2.849  10.111  0.3506 -0.6239 -0.7110
  502MOL0     H67739   2.100   3.004  10.037 -2.0479  0.1958 -2.4575
  502MOL0     H67740   2.303   2.820   9.914 -0.1951  1.0948  2.7500
  502MOL0     H67741   2.217   2.958   9.841  1.6015 -1.0079 -1.5197
  502MOL0     H67742   2.050   2.817   9.758 -1.7170 -1.9115  0.1606
  502MOL0     H67743   1.992   2.839   9.917  0.7137 -1.0908  1.2959
  502MOL0     H67744   2.059   2.622  10.012  2.2182  1.3538  1.5700
  502MOL0     H67745   1.979   2.605   9.856  0.2314 -1.9507  2.1683
  502MOL0     H67746   2.289   2.603   9.879  0.7326  2.8562 -4.4385
  502MOL0     H67747   2.198   2.596   9.739 -0.4578  0.7082 -0.2144
  502MOL0     H67748   2.221   2.378   9.949  1.0021 -0.4782 -0.1801
  502MOL0     H67749   2.062   2.393   9.864 -0.0727 -1.2703  0.7773
  502MOL0     H67750   2.533   3.363  10.219 -1.6061 -0.5857 -0.1959
  502MOL0     H67751   2.575   3.516  10.383 -1.5734  0.0291 -1.9973
  502MOL0     H67752   2.572   3.485  10.995  0.5976 -0.7963  1.9675
  502MOL0     H67753   2.578   3.646  11.167 -0.0998 -1.2722  0.2627
  502MOL0     H67754   3.498   4.087  10.518 -2.9119 -1.0010  1.9726
  502MOL0     H67755   3.486   3.986  10.292  0.0677  0.1295 -3.1521
  502MOL0     H67756   3.295   3.870   9.955  0.1204  1.2893  1.2687
  502MOL0     H67757   3.273   3.726   9.761  1.3225 -0.1955  3.2535
  502MOL0     H67758   3.284   3.602   9.511 -0.7595 -1.1783  2.1121
  502MOL0     H67759   3.415   3.600   9.636  2.1491 -1.8162 -2.1960
  502MOL0     H67760   3.478   3.602   9.347  2.8543 -0.8796 -0.5796
  502MOL0     H67761   3.459   3.453   9.437  2.0077 -1.3213  0.5013
  502MOL0     H67762   3.662   3.571   9.583  0.3989  2.3676  0.6793
  502MOL0     H67763   3.642   3.698   9.470  3.7466 -0.5302  1.0160
  502MOL0     H67764   3.730   3.414   9.422 -0.9057 -0.1009  0.2607
  502MOL0     H67765   3.665   3.516   9.285  1.3958 -1.6488 -0.8794
  502MOL0     H67766   4.022   3.705   9.427 -1.5931  0.9039 -1.3271
  502MOL0     H67767   3.477   4.017   9.522  1.5582  1.4605  0.4616
  502MOL0     H67768   3.567   4.198   9.609 -1.4725  1.4591 -0.6363
  502MOL0     H67769   3.465   4.278   9.740 -2.2002 -2.6009 -1.5696
  502MOL0     H67770   3.623   4.189   9.775 -1.1884 -0.6418  2.9916
  503MOL0     O67771  11.170   2.474   8.394 -0.5812  0.3285 -0.8216
  503MOL0     C67772  11.268   2.551   8.392 -0.4400 -0.4376 -0.3750
  503MOL0     O67773  11.334   2.582   8.511  0.0496 -0.4634  0.0569
  503MOL0     C67774  11.340   2.513   8.626 -1.1399  0.3164 -0.3101
  503MOL0     C67775  11.303   2.377   8.638 -0.6128 -0.1702 -0.4830
  503MOL0     C67776  11.323   2.324   8.769  0.5333  0.2517 -0.1414
  503MOL0     C67777  11.388   2.393   8.874 -0.3559 -0.1856  0.2940
  503MOL0     O67778  11.404   2.324   8.987 -0.7638  0.5519 -0.5184
  503MOL0     C67779  11.396   2.389   9.115  0.5662  0.2578 -0.6226
  503MOL0     C67780  11.373   2.293   9.225 -0.8288  0.6311 -0.6980
  503MOL0     C67781  11.418   2.356   9.361  0.1857 -0.3280  0.5939
  503MOL0     C67782  11.428   2.267   9.481  0.0412  0.1585  0.4622
  503MOL0     C67783  11.491   2.331   9.604  0.2770 -0.1404 -0.0249
  503MOL0     C67784  11.492   2.226   9.719  0.2009 -0.8818  0.0328
  503MOL0     C67785  11.569   2.287   9.829 -0.4238  0.7445 -0.2609
  503MOL0     C67786  11.493   2.386   9.917 -0.9310 -0.5527 -0.1654
  503MOL0     N67787  11.386   2.337  10.001  0.2364  0.2801  0.2422
  503MOL0     C67788  11.249   2.337   9.966  0.6108  0.7060  0.5678
  503MOL0     C67789  11.190   2.287  10.078  0.3294  0.8241 -0.0536
  503MOL0     C67790  11.043   2.254  10.073  0.7124 -0.3131 -0.2884
  503MOL0     C67791  11.022   2.100  10.099 -0.5357 -0.7694  0.6928
  503MOL0     C67792  11.075   2.002   9.994 -0.2103 -0.8516 -1.7649
  503MOL0     C67793  11.027   2.027   9.857  0.1987  0.3703 -0.1114
  503MOL0     O67794  11.076   2.142   9.790  0.9275  0.0307  0.1090
  503MOL0     C67795  11.034   2.177   9.667  0.4113 -0.2127 -0.1812
  503MOL0     C67796  10.941   2.104   9.600  0.1926  0.8662  0.7923
  503MOL0     C67797  10.913   2.126   9.461 -0.1978 -0.7116  0.0991
  503MOL0     C67798  10.977   2.234   9.395 -0.4316  0.6688 -0.6170
  503MOL0     C67799  10.945   2.265   9.260 -0.2902  0.8247 -0.8926
  503MOL0     O67800  10.944   2.403   9.239 -0.1275 -0.1115  0.3145
  503MOL0     C67801  10.931   2.451   9.108 -0.1681  0.1438  0.4495
  503MOL0     C67802  10.822   2.534   9.078  0.7639  1.5530  0.5083
  503MOL0     C67803  10.793   2.564   8.944 -0.1050  0.1265  0.7259
  503MOL0     C67804  10.865   2.511   8.838  0.8356 -1.4624  0.0774
  503MOL0     O67805  10.817   2.550   8.719 -0.8401 -0.1998  0.9689
  503MOL0     C67806  10.882   2.507   8.593 -0.0347 -0.3749  0.0874
  503MOL0     C67807  10.797   2.558   8.463 -0.1575  0.2734  0.2795
  503MOL0     C67808  10.778   2.704   8.460 -0.2097  0.1559  0.5731
  503MOL0     C67809  10.663   2.759   8.374  0.0264 -0.0535  0.7329
  503MOL0     C67810  10.661   2.911   8.366  0.1714  0.3412  0.0085
  503MOL0     C67811  10.527   2.961   8.306  0.6526  0.1517 -0.3782
  503MOL0     C67812  10.517   3.116   8.270 -0.3467 -0.4876  0.2711
  503MOL0     C67813  10.375   3.152   8.224 -0.3468 -0.0849  0.9004
  503MOL0    Cl67814  10.354   3.318   8.225  0.5463 -0.0960 -0.5523
  503MOL0     C67815  10.981   2.432   8.863 -0.2825  0.6307 -0.9743
  503MOL0     C67816  11.012   2.403   8.996  0.4166  0.6714 -0.0727
  503MOL0     O67817  10.913   2.185   9.171 -0.5074  0.5698 -0.4005
  503MOL0     C67818  11.063   2.312   9.473  0.4297  0.6889 -0.1479
  503MOL0     C67819  11.085   2.286   9.611  0.4067 -0.5823  0.7942
  503MOL0     N67820  11.287   2.268  10.175 -0.1907  1.1984 -0.6296
  503MOL0     N67821  11.400   2.291  10.127 -0.6502 -0.3094 -0.2189
  503MOL0     C67822  11.432   2.522   8.855  0.0367 -0.1984 -0.0522
  503MOL0     C67823  11.407   2.581   8.733 -0.1958 -0.1668 -0.2324
  503MOL0     C67824  11.308   2.617   8.269 -0.9293  0.5190 -0.1513
  503MOL0     C67825  11.447   2.647   8.258  0.0046  0.9041 -1.0224
  503MOL0     C67826  11.501   2.678   8.134 -0.3904  0.1472 -0.0273
  503MOL0     C67827  11.423   2.696   8.025  0.5295  1.0606  0.0558
  503MOL0     O67828  11.457   2.742   7.900  0.5981  0.0324  0.6367
  503MOL0     C67829  11.597   2.788   7.868  0.8280  0.8668  0.5878
  503MOL0     C67830  11.585   2.883   7.751 -0.7223 -0.3200 -0.3066
  503MOL0     C67831  11.512   2.832   7.622  0.9498  0.7824 -0.0187
  503MOL0     C67832  11.600   2.817   7.488 -1.0110 -0.4781  0.0313
  503MOL0     C67833  11.699   2.717   7.502  0.2198 -0.0270 -0.5249
  503MOL0     C67834  11.771   2.626   7.531  0.4494 -0.1502 -0.3475
  503MOL0     C67835  11.281   2.682   8.043  0.1955 -0.3308 -0.0873
  503MOL0     C67836  11.223   2.629   8.159 -0.4653  0.5205  0.8269
  503MOL0     C67837  11.075   2.618   8.159 -0.3522 -0.5256  0.4150
  503MOL0     H67838  11.268   2.317   8.555  1.7407 -0.2809 -1.4894
  503MOL0     H67839  11.287   2.226   8.799 -0.0858  0.5957  0.2534
  503MOL0     H67840  11.489   2.446   9.122 -0.6860  2.4186 -0.6498
  503MOL0     H67841  11.309   2.456   9.114 -1.6470 -2.4337 -0.8125
  503MOL0     H67842  11.427   2.201   9.197 -0.5393  0.0591  1.5313
  503MOL0     H67843  11.269   2.258   9.228 -0.1148 -1.9428 -2.2660
  503MOL0     H67844  11.358   2.442   9.393 -0.0184 -0.1004 -0.3815
  503MOL0     H67845  11.518   2.394   9.339 -0.5025  0.3324 -1.6075
  503MOL0     H67846  11.329   2.223   9.494  0.0394 -0.1784 -0.5504
  503MOL0     H67847  11.500   2.191   9.447  1.9359  1.3636  1.5520
  503MOL0     H67848  11.592   2.353   9.570 -1.2653  2.9980 -3.2566
  503MOL0     H67849  11.432   2.418   9.635  0.2987 -0.2385  0.2920
  503MOL0     H67850  11.391   2.193   9.745  0.0045 -5.2174 -4.6529
  503MOL0     H67851  11.548   2.138   9.685  0.2376 -1.0939  0.6259
  503MOL0     H67852  11.655   2.334   9.781 -0.8074 -1.1301 -3.0380
  503MOL0     H67853  11.614   2.208   9.892 -0.9285 -0.6111 -1.5427
  503MOL0     H67854  11.557   2.438   9.988 -0.3577 -1.1138 -0.2658
  503MOL0     H67855  11.453   2.465   9.853 -0.4547 -0.8141 -0.8003
  503MOL0     H67856  11.196   2.360   9.874  0.1436 -0.5976  0.4932
  503MOL0     H67857  10.993   2.291  10.163  1.9249  2.1043 -0.5165
  503MOL0     H67858  10.994   2.288   9.981  0.5363 -1.5913 -0.6761
  503MOL0     H67859  11.065   2.077  10.197 -0.7706 -0.8572  0.7741
  503MOL0     H67860  10.916   2.075  10.109 -0.0840 -2.7729  0.9947
  503MOL0     H67861  11.051   1.900  10.026  2.4603 -1.2278 -0.6513
  503MOL0     H67862  11.184   2.010   9.995 -0.1938  1.1394  2.3168
  503MOL0     H67863  10.919   2.044   9.860  0.1079 -0.1751  2.9093
  503MOL0     H67864  11.059   1.945   9.793  1.0922 -0.4115  1.2727
  503MOL0     H67865  10.891   2.019   9.648  2.1802 -0.7913  0.0860
  503MOL0     H67866  10.830   2.075   9.413  0.0933 -3.1843  2.0469
  503MOL0     H67867  10.761   2.571   9.159 -1.3980 -1.8339  0.6484
  503MOL0     H67868  10.710   2.632   8.931 -1.4661 -1.0256  2.9747
  503MOL0     H67869  10.980   2.556   8.586 -0.4539  0.2397 -2.5640
  503MOL0     H67870  10.893   2.398   8.592  0.2581 -0.3584 -1.3478
  503MOL0     H67871  10.842   2.525   8.369 -2.1083 -1.1077 -0.2242
  503MOL0     H67872  10.700   2.510   8.478  1.2310 -3.0309 -0.6085
  503MOL0     H67873  10.767   2.737   8.564  0.8673 -0.0601  0.7705
  503MOL0     H67874  10.866   2.754   8.419 -1.0855 -1.7019 -4.2685
  503MOL0     H67875  10.567   2.726   8.415 -1.5246  0.6267 -2.0526
  503MOL0     H67876  10.679   2.724   8.271  0.1589 -1.9877  1.3557
  503MOL0     H67877  10.736   2.937   8.291 -0.1520  2.3504  0.3278
  503MOL0     H67878  10.681   2.956   8.464 -0.7631 -2.2503  1.4844
  503MOL0     H67879  10.518   2.893   8.220 -1.4795  2.1114 -1.8290
  503MOL0     H67880  10.456   2.925   8.381  0.3506  0.6979 -0.4012
  503MOL0     H67881  10.596   3.139   8.197 -1.1546 -1.5820 -0.9945
  503MOL0     H67882  10.535   3.180   8.357 -2.1275 -2.8734  2.5442
  503MOL0     H67883  10.375   3.119   8.120  3.8692 -1.0627  1.0305
  503MOL0     H67884  10.291   3.119   8.286 -0.6697  0.6917  0.8836
  503MOL0     H67885  11.051   2.394   8.789 -2.7927 -1.0687 -2.6488
  503MOL0     H67886  11.097   2.346   9.031 -0.4165  1.0482  2.8077
  503MOL0     H67887  11.120   2.398   9.440 -2.7786  2.9128 -0.3314
  503MOL0     H67888  11.159   2.343   9.667  0.6306  0.4002 -0.4548
  503MOL0     H67889  11.475   2.580   8.936 -2.7890 -0.6306  1.9145
  503MOL0     H67890  11.462   2.675   8.730 -0.0154 -0.0758  2.8008
  503MOL0     H67891  11.514   2.645   8.343 -0.6321  1.0641 -0.5062
  503MOL0     H67892  11.607   2.700   8.121 -0.3702  0.3588  0.4538
  503MOL0     H67893  11.663   2.702   7.857  2.7793  2.0948  1.8667
  503MOL0     H67894  11.647   2.847   7.946  4.5820  0.5787 -1.3770
  503MOL0     H67895  11.684   2.913   7.715 -0.0993  1.4827  2.6241
  503MOL0     H67896  11.539   2.974   7.789 -0.7775 -1.3614  2.3645
  503MOL0     H67897  11.433   2.907   7.611  1.3224  1.7789  3.0736
  503MOL0     H67898  11.447   2.745   7.640  0.8348  1.3772  3.1494
  503MOL0     H67899  11.550   2.774   7.401 -2.3696 -0.5273  0.7932
  503MOL0     H67900  11.641   2.915   7.465 -2.0294  0.5092  2.1111
  503MOL0     H67901  11.821   2.540   7.569  0.2020  0.4305  1.3432
  503MOL0     H67902  11.227   2.702   7.951 -1.7232  0.1950  1.1052
  503MOL0     H67903  11.032   2.666   8.247 -1.0676 -0.9704  0.3118
  503MOL0     H67904  11.026   2.680   8.084 -0.3958  1.0763  1.7009
  503MOL0     H67905  11.043   2.514   8.153  1.5140 -1.1182  0.1733
  504MOL0     O67906   4.552   4.735   1.499  0.0417  0.7847 -0.6275
  504MOL0     C67907   4.519   4.649   1.571  0.3282 -0.4856 -0.7203
  504MOL0     O67908   4.512   4.523   1.532 -0.1296  0.1622 -0.5863
  504MOL0     C67909   4.602   4.470   1.445  0.7116  0.3923  0.0482
  504MOL0     C67910   4.740   4.479   1.463  0.1769  0.2462  0.7243
  504MOL0     C67911   4.824   4.412   1.375 -0.0174  0.0102 -0.0441
  504MOL0     C67912   4.777   4.331   1.269  0.8595 -0.5655 -0.3587
  504MOL0     O67913   4.865   4.272   1.181 -0.0101  0.0104 -1.1496
  504MOL0     C67914   4.817   4.158   1.121  0.4275  0.7203 -0.0414
  504MOL0     C67915   4.927   4.112   1.020 -0.5130 -0.6694 -0.1917
  504MOL0     C67916   5.035   4.040   1.098 -0.3610  0.1485 -0.6131
  504MOL0     C67917   5.137   3.966   1.010  0.0551 -0.2463 -1.0295
  504MOL0     C67918   5.235   3.876   1.093 -0.6033 -0.6340 -0.9888
  504MOL0     C67919   5.335   3.809   0.990  0.6054 -0.1672  0.1769
  504MOL0     C67920   5.465   3.768   1.062  0.4440  0.2069 -0.0802
  504MOL0     C67921   5.541   3.673   0.966  0.1717 -0.5966 -0.2808
  504MOL0     N67922   5.632   3.741   0.874  0.5797  0.2122  0.0713
  504MOL0     C67923   5.719   3.673   0.799 -0.3242  0.0945 -0.1967
  504MOL0     C67924   5.762   3.761   0.705 -0.0295 -0.7274 -0.7414
  504MOL0     C67925   5.842   3.721   0.583  0.0123 -1.4009  0.1516
  504MOL0     C67926   5.996   3.734   0.609  0.0617 -0.3354  0.5978
  504MOL0     C67927   6.077   3.754   0.477  0.1975 -0.3839  0.5272
  504MOL0     C67928   6.035   3.881   0.391  0.0445  0.3895 -0.3614
  504MOL0     O67929   6.036   3.991   0.475  0.4303  0.0436 -0.0309
  504MOL0     C67930   5.994   4.101   0.408 -0.4142  0.1996  0.5842
  504MOL0     C67931   5.877   4.161   0.455 -0.3745  0.9909  0.1721
  504MOL0     C67932   5.838   4.282   0.389  0.2841  0.7957  0.1489
  504MOL0     C67933   5.905   4.341   0.281 -0.0024 -0.8529 -0.6205
  504MOL0     C67934   5.864   4.458   0.196  0.6315  0.8582 -0.7912
  504MOL0     O67935   5.734   4.498   0.222 -0.0164 -0.6697  0.4015
  504MOL0     C67936   5.674   4.589   0.137 -0.2336 -0.9129  0.4084
  504MOL0     C67937   5.540   4.574   0.100 -0.8864  0.7442 -0.3924
  504MOL0     C67938   5.478   4.679   0.021 -0.0587 -0.1399  0.3310
  504MOL0     C67939   5.553   4.781  -0.033 -0.2391  0.2391  1.0492
  504MOL0     O67940   5.494   4.869  -0.127  0.2751  0.5441  0.0219
  504MOL0     C67941   5.565   4.985  -0.187  0.5763 -0.4530 -0.0229
  504MOL0     C67942   5.457   5.041  -0.286  0.1886  0.3743 -0.4462
  504MOL0     C67943   5.340   5.109  -0.218 -0.2365 -0.1337  0.2389
  504MOL0     C67944   5.275   5.202  -0.317  0.0449  1.1029 -0.9291
  504MOL0     C67945   5.127   5.245  -0.273 -0.0741  0.1949  0.1992
  504MOL0     C67946   5.055   5.349  -0.372 -0.0552 -0.0096  0.3310
  504MOL0     C67947   5.058   5.311  -0.520 -0.7605 -0.1690  0.7451
  504MOL0     C67948   4.952   5.374  -0.614  0.4503  0.0047 -0.4955
  504MOL0    Cl67949   4.787   5.342  -0.536  0.1875 -0.0785  0.1526
  504MOL0     C67950   5.687   4.793  -0.003  0.1057  0.6139  0.0579
  504MOL0     C67951   5.745   4.704   0.080  0.6016 -0.5570  0.5342
  504MOL0     O67952   5.928   4.474   0.095 -0.1175 -0.0268 -0.3287
  504MOL0     C67953   6.026   4.268   0.244  0.5581  0.4423  0.0619
  504MOL0     C67954   6.066   4.152   0.305  0.0394  0.0222  0.1590
  504MOL0     N67955   5.694   3.882   0.728 -0.4365  0.8324 -0.5544
  504MOL0     N67956   5.625   3.869   0.837  0.9943  0.9477 -0.2952
  504MOL0     C67957   4.638   4.331   1.246  0.7457  0.5506 -0.4698
  504MOL0     C67958   4.549   4.393   1.341  0.8703  0.2771  0.0546
  504MOL0     C67959   4.463   4.677   1.706 -0.5908  0.1732  0.1124
  504MOL0     C67960   4.473   4.585   1.811 -0.9090  0.4636  0.9085
  504MOL0     C67961   4.406   4.589   1.927  0.4014 -0.0876  0.4754
  504MOL0     C67962   4.327   4.698   1.963 -0.3740  0.2579 -0.1352
  504MOL0     O67963   4.292   4.710   2.096 -0.5416 -0.0665 -0.5242
  504MOL0     C67964   4.257   4.840   2.136 -0.1507 -0.5743 -0.5260
  504MOL0     C67965   4.369   4.936   2.155 -0.3251 -0.2354  0.4281
  504MOL0     C67966   4.483   4.872   2.245  0.2505 -0.2128 -0.6153
  504MOL0     C67967   4.603   4.968   2.261  0.2897 -0.0472 -0.7451
  504MOL0     C67968   4.683   4.950   2.140 -0.2693  0.3985  0.7595
  504MOL0     C67969   4.757   4.926   2.041 -1.0695 -0.4191  0.3550
  504MOL0     C67970   4.328   4.805   1.872  0.3955  0.0117  0.2518
  504MOL0     C67971   4.391   4.801   1.746 -0.8506 -0.4282 -0.2689
  504MOL0     C67972   4.361   4.907   1.651  0.4559 -0.0535 -0.0304
  504MOL0     H67973   4.774   4.556   1.532  0.0780 -0.9049  2.1023
  504MOL0     H67974   4.929   4.429   1.396  0.4558  0.9214 -2.7061
  504MOL0     H67975   4.801   4.083   1.199  0.4796 -0.6171 -1.2779
  504MOL0     H67976   4.727   4.176   1.061 -1.6793 -2.2675  1.9572
  504MOL0     H67977   4.957   4.205   0.971 -4.1126  0.8697  0.1796
  504MOL0     H67978   4.881   4.054   0.940  0.7825  0.5109 -1.8746
  504MOL0     H67979   4.999   3.951   1.150 -0.1277 -0.7328 -1.9109
  504MOL0     H67980   5.097   4.095   1.169 -1.2553 -0.7670  0.9367
  504MOL0     H67981   5.095   3.910   0.926 -1.2094  0.6676 -1.0401
  504MOL0     H67982   5.190   4.046   0.958 -0.9368  0.7573 -0.5559
  504MOL0     H67983   5.292   3.945   1.156  3.5146 -1.1329 -3.7748
  504MOL0     H67984   5.186   3.796   1.149 -1.9914 -1.6242 -3.4396
  504MOL0     H67985   5.287   3.722   0.945  1.4282  0.5410 -2.2689
  504MOL0     H67986   5.355   3.868   0.900 -4.0279  1.6461  0.0488
  504MOL0     H67987   5.453   3.736   1.166 -1.9661 -0.7322 -0.5952
  504MOL0     H67988   5.532   3.854   1.078  0.5098  0.5404 -1.9451
  504MOL0     H67989   5.601   3.603   1.024 -1.4440 -2.2501 -0.4977
  504MOL0     H67990   5.471   3.606   0.915 -0.6385 -1.6591  2.0862
  504MOL0     H67991   5.754   3.570   0.798 -1.4007 -0.2840  0.3447
  504MOL0     H67992   5.819   3.617   0.557  0.0306 -1.5183  0.5914
  504MOL0     H67993   5.814   3.781   0.496  2.5947 -0.2683  0.0121
  504MOL0     H67994   6.006   3.819   0.677 -0.4841  1.3974 -1.4009
  504MOL0     H67995   6.035   3.640   0.650  0.4399 -0.8674 -0.9313
  504MOL0     H67996   6.062   3.668   0.411 -1.6511 -0.8522  1.4839
  504MOL0     H67997   6.184   3.765   0.496 -0.1036  1.5250  1.3169
  504MOL0     H67998   5.937   3.862   0.346  0.4117  0.8298 -1.3722
  504MOL0     H67999   6.103   3.889   0.307 -0.1150  0.0935 -0.5220
  504MOL0     H68000   5.839   4.119   0.548  1.3308  0.0978  0.5184
  504MOL0     H68001   5.745   4.330   0.418  0.4506  1.1674  0.0641
  504MOL0     H68002   5.483   4.493   0.143  0.5195  0.7372  1.6060
  504MOL0     H68003   5.370   4.686   0.017 -0.0230  0.0230 -3.0601
  504MOL0     H68004   5.585   5.049  -0.101 -2.7364  0.7822  0.0053
  504MOL0     H68005   5.654   4.966  -0.247 -0.6033  1.5630 -2.6254
  504MOL0     H68006   5.510   5.109  -0.353 -0.5942  0.2801 -1.1828
  504MOL0     H68007   5.420   4.968  -0.358 -1.6559  2.7511 -2.0553
  504MOL0     H68008   5.281   5.026  -0.179  1.6841 -1.5816  0.2037
  504MOL0     H68009   5.384   5.164  -0.135 -2.4151 -1.5601  2.4850
  504MOL0     H68010   5.283   5.142  -0.409  0.5658 -1.0547  0.4543
  504MOL0     H68011   5.330   5.294  -0.336 -1.1200  1.7460 -1.2844
  504MOL0     H68012   5.134   5.291  -0.174  1.0651  2.1530 -0.7291
  504MOL0     H68013   5.064   5.157  -0.260  1.1824 -0.9625 -1.2285
  504MOL0     H68014   4.951   5.364  -0.342  0.2430 -0.6519  1.7749
  504MOL0     H68015   5.114   5.440  -0.361  0.8334 -0.2780 -1.8580
  504MOL0     H68016   5.040   5.204  -0.534 -0.0739 -0.1330 -0.5634
  504MOL0     H68017   5.162   5.327  -0.549 -0.5493 -0.7792  1.1526
  504MOL0     H68018   4.970   5.481  -0.624  2.3231 -0.0168  1.7089
  504MOL0     H68019   4.948   5.332  -0.715 -0.2268 -0.7684 -0.1665
  504MOL0     H68020   5.755   4.864  -0.049  0.6944  0.0738  0.0768
  504MOL0     H68021   5.850   4.718   0.103  0.0973  1.6890  1.7652
  504MOL0     H68022   6.092   4.306   0.166 -1.5513  2.7421 -0.7533
  504MOL0     H68023   6.160   4.103   0.279  1.2719  2.0813  0.5650
  504MOL0     H68024   4.592   4.285   1.159  1.0080  2.8048 -1.8862
  504MOL0     H68025   4.442   4.379   1.334  0.5560  0.8640  2.5585
  504MOL0     H68026   4.550   4.508   1.808 -1.4985 -0.2274  2.5823
  504MOL0     H68027   4.426   4.513   2.002 -0.3631  0.9603  1.7946
  504MOL0     H68028   4.210   4.833   2.234  0.0398  0.8296 -0.3236
  504MOL0     H68029   4.173   4.876   2.076  0.6902 -0.7855 -1.8829
  504MOL0     H68030   4.328   5.023   2.206 -0.6155 -0.5912  0.8066
  504MOL0     H68031   4.403   4.971   2.057  1.1364 -1.3080  0.5120
  504MOL0     H68032   4.525   4.778   2.208 -2.6118 -1.2471 -1.4586
  504MOL0     H68033   4.436   4.854   2.343 -1.9402 -2.5498 -1.9821
  504MOL0     H68034   4.563   5.069   2.270  1.5291  0.5098 -1.2926
  504MOL0     H68035   4.669   4.938   2.344 -1.1206  1.3126  0.9622
  504MOL0     H68036   4.828   4.905   1.964 -0.9056 -3.4059  1.2120
  504MOL0     H68037   4.262   4.887   1.900 -0.1578 -1.2665  3.0696
  504MOL0     H68038   4.453   4.968   1.646  0.6066 -0.1229  1.4908
  504MOL0     H68039   4.332   4.862   1.556  0.3537  0.1986 -0.1206
  504MOL0     H68040   4.272   4.959   1.686 -1.8198 -2.3751 -1.9598
  505MOL0     O68041   4.264   3.612   1.605  0.1335 -0.1441  0.4202
  505MOL0     C68042   4.187   3.538   1.660  0.2343 -0.3932 -0.2007
  505MOL0     O68043   4.060   3.570   1.685 -0.0912 -0.2711 -0.3286
  505MOL0     C68044   4.016   3.697   1.685  0.8882 -0.7008  0.2790
  505MOL0     C68045   3.944   3.749   1.790 -0.3626  0.6159 -0.0061
  505MOL0     C68046   3.900   3.880   1.800  0.3893 -0.6841  0.6231
  505MOL0     C68047   3.905   3.956   1.682  0.1155 -0.5632 -0.4263
  505MOL0     O68048   3.867   4.086   1.673  0.3356 -0.8001 -0.4755
  505MOL0     C68049   3.746   4.129   1.743 -0.0362  0.3566 -0.8420
  505MOL0     C68050   3.729   4.276   1.718 -1.1359  0.3439  0.3637
  505MOL0     C68051   3.592   4.319   1.769 -0.1663  0.6128 -0.1706
  505MOL0     C68052   3.595   4.469   1.775 -0.0724 -0.1528 -0.5772
  505MOL0     C68053   3.549   4.519   1.642 -0.3618 -0.1160 -1.0157
  505MOL0     C68054   3.514   4.670   1.658  0.3770 -0.0657  0.3746
  505MOL0     C68055   3.394   4.711   1.740 -0.1060 -0.3136  0.1814
  505MOL0     C68056   3.274   4.743   1.647 -0.2992 -0.0887 -1.0050
  505MOL0     N68057   3.157   4.784   1.729 -0.4778  0.0946  0.6988
  505MOL0     C68058   3.084   4.690   1.794 -0.7837 -0.2075 -0.4385
  505MOL0     C68059   3.019   4.767   1.889  0.9397 -0.4592 -0.9238
  505MOL0     C68060   2.916   4.716   1.993 -0.3039 -0.1135 -0.7876
  505MOL0     C68061   2.779   4.730   1.932 -1.0767 -1.3635 -0.0783
  505MOL0     C68062   2.658   4.702   2.027 -0.0998  0.8237  0.3054
  505MOL0     C68063   2.544   4.778   1.969  0.3210 -0.0931  0.2791
  505MOL0     O68064   2.497   4.728   1.840 -0.3723  0.0076 -0.0543
  505MOL0     C68065   2.381   4.782   1.788  0.2957  0.4599  0.1926
  505MOL0     C68066   2.323   4.715   1.688  0.0826 -0.0592 -1.0506
  505MOL0     C68067   2.216   4.775   1.619 -0.5110 -0.9017 -0.0134
  505MOL0     C68068   2.156   4.891   1.661  0.2033 -0.6692 -0.5860
  505MOL0     C68069   2.056   4.952   1.578  0.9432  0.2807 -0.8167
  505MOL0     O68070   1.972   4.863   1.522  0.4840 -0.2342  0.1000
  505MOL0     C68071   1.871   4.897   1.428 -0.2172  0.7158  0.0778
  505MOL0     C68072   1.788   5.008   1.429  0.2803 -0.4249 -0.4003
  505MOL0     C68073   1.682   5.015   1.344  0.4593  0.3998  0.3973
  505MOL0     C68074   1.670   4.926   1.232 -0.6481  0.2724  0.4747
  505MOL0     O68075   1.574   4.929   1.124 -0.8322 -0.6836  0.3946
  505MOL0     C68076   1.442   4.987   1.159  0.4437 -0.0666 -0.9729
  505MOL0     C68077   1.323   4.929   1.076 -0.0127  0.1896 -0.8676
  505MOL0     C68078   1.357   4.789   1.017 -1.0526 -0.9289  0.5764
  505MOL0     C68079   1.239   4.705   0.976 -0.2286  0.2026  0.3344
  505MOL0     C68080   1.272   4.565   0.945 -0.5956  0.1360  0.2243
  505MOL0     C68081   1.374   4.553   0.817 -0.4388 -0.8693 -0.4912
  505MOL0     C68082   1.309   4.623   0.687  0.2779 -0.4718 -0.3122
  505MOL0     C68083   1.334   4.552   0.556 -0.1835 -0.0469  0.5984
  505MOL0    Cl68084   1.503   4.552   0.507  0.0902  0.2033  0.1346
  505MOL0     C68085   1.772   4.826   1.228 -0.0533  0.0644  0.0414
  505MOL0     C68086   1.863   4.803   1.326  0.0350 -0.5186 -0.4454
  505MOL0     O68087   2.040   5.068   1.585  0.0233 -1.2422  0.6033
  505MOL0     C68088   2.219   4.959   1.760  0.2405 -0.0249 -0.6206
  505MOL0     C68089   2.327   4.899   1.828 -1.0785 -1.0290 -0.4606
  505MOL0     N68090   3.052   4.902   1.882  0.1208 -0.0563 -0.4836
  505MOL0     N68091   3.142   4.907   1.794 -0.1918  0.8886  1.4485
  505MOL0     C68092   3.968   3.901   1.569 -0.0298 -0.3088  1.2130
  505MOL0     C68093   4.021   3.772   1.570  0.1639 -0.3873  0.1489
  505MOL0     C68094   4.229   3.400   1.674  0.4208  0.0331 -0.6943
  505MOL0     C68095   4.171   3.298   1.594 -0.1957  0.0744 -0.1067
  505MOL0     C68096   4.199   3.165   1.611  0.2338 -0.4729 -0.3066
  505MOL0     C68097   4.299   3.130   1.698  0.0653  0.4293  0.8003
  505MOL0     O68098   4.317   3.000   1.715  0.2901  0.3933  0.6459
  505MOL0     C68099   4.430   2.934   1.649 -0.8731  0.0136  0.1748
  505MOL0     C68100   4.383   2.883   1.505 -0.7874 -0.5419  0.0881
  505MOL0     C68101   4.503   2.836   1.420 -0.1329  0.8307  1.1495
  505MOL0     C68102   4.457   2.798   1.275  0.0767  0.7298  0.3224
  505MOL0     C68103   4.564   2.798   1.184  0.2068 -0.3314 -0.2531
  505MOL0     C68104   4.649   2.803   1.100 -0.5926  0.1174  0.2986
  505MOL0     C68105   4.365   3.220   1.779  0.7946 -0.5127 -0.2181
  505MOL0     C68106   4.323   3.361   1.771 -0.7488  0.5609  0.3568
  505MOL0     C68107   4.393   3.455   1.856  0.6548 -0.9497 -1.2129
  505MOL0     H68108   3.933   3.676   1.869  4.0650  1.2673  1.5148
  505MOL0     H68109   3.855   3.929   1.886  0.4663  1.5989 -0.5412
  505MOL0     H68110   3.665   4.075   1.693 -0.2904  2.0639 -2.3940
  505MOL0     H68111   3.747   4.113   1.851 -2.2796 -2.0167 -1.0771
  505MOL0     H68112   3.737   4.310   1.614  0.4427  3.7882  1.4650
  505MOL0     H68113   3.811   4.331   1.765 -2.2411  0.0953  2.7180
  505MOL0     H68114   3.575   4.271   1.865  1.4434 -1.8633 -1.0305
  505MOL0     H68115   3.509   4.280   1.709  1.5174 -3.8811  0.0528
  505MOL0     H68116   3.516   4.488   1.849  1.9295  0.3359  1.5506
  505MOL0     H68117   3.684   4.515   1.818 -1.4787  0.2776  2.1304
  505MOL0     H68118   3.631   4.513   1.570 -0.4541 -2.4061 -0.9857
  505MOL0     H68119   3.467   4.462   1.598 -0.0621 -0.4708 -1.1150
  505MOL0     H68120   3.600   4.715   1.708  0.0554 -2.0639  2.9467
  505MOL0     H68121   3.502   4.715   1.559 -2.2225 -1.3291  0.0319
  505MOL0     H68122   3.417   4.792   1.810  0.9666  0.4690 -1.0432
  505MOL0     H68123   3.363   4.628   1.805 -0.1168 -1.5618 -1.3604
  505MOL0     H68124   3.299   4.816   1.569  1.0543  3.6605  2.5525
  505MOL0     H68125   3.258   4.645   1.602 -1.2255 -0.2802 -0.2922
  505MOL0     H68126   3.092   4.582   1.802  3.2649 -0.0634 -0.3123
  505MOL0     H68127   2.944   4.624   2.045 -1.8402  0.5216  1.2731
  505MOL0     H68128   2.936   4.782   2.078  1.3180 -1.7100  0.1384
  505MOL0     H68129   2.757   4.819   1.874 -3.5255 -2.6576 -1.2621
  505MOL0     H68130   2.773   4.660   1.848  0.3285  0.0531 -1.4411
  505MOL0     H68131   2.686   4.731   2.129 -0.4866 -0.4321  0.7732
  505MOL0     H68132   2.632   4.596   2.031 -2.0094  1.2269 -0.4627
  505MOL0     H68133   2.590   4.876   1.954 -1.0838  0.1330 -3.6272
  505MOL0     H68134   2.467   4.797   2.044 -0.4040 -0.5031 -0.3552
  505MOL0     H68135   2.366   4.620   1.659  0.0550 -1.0340  1.8247
  505MOL0     H68136   2.184   4.747   1.519 -0.8065  1.6174 -0.6913
  505MOL0     H68137   1.793   5.091   1.499  0.3685 -0.7961  0.0432
  505MOL0     H68138   1.613   5.095   1.365  0.5226  0.4983  0.2253
  505MOL0     H68139   1.412   4.969   1.262  1.0950 -0.3196 -0.8192
  505MOL0     H68140   1.441   5.097   1.156  0.3706 -0.0040  0.6246
  505MOL0     H68141   1.228   4.936   1.129  1.1052 -0.8931  1.4117
  505MOL0     H68142   1.322   4.989   0.985 -0.6321  0.4264 -0.7062
  505MOL0     H68143   1.422   4.802   0.930  1.3090 -1.9398  2.0856
  505MOL0     H68144   1.412   4.737   1.096 -1.5822 -1.1401  0.8105
  505MOL0     H68145   1.185   4.761   0.899 -2.8179 -0.8962  1.2253
  505MOL0     H68146   1.169   4.698   1.060 -1.3758  4.1414 -0.1072
  505MOL0     H68147   1.175   4.517   0.926 -0.4081  0.4753 -1.7862
  505MOL0     H68148   1.308   4.512   1.033  0.7367 -0.9939 -0.9396
  505MOL0     H68149   1.473   4.595   0.835  0.7470 -4.6310  3.6631
  505MOL0     H68150   1.387   4.448   0.788  2.2578 -0.3003 -1.6574
  505MOL0     H68151   1.338   4.728   0.694  1.0899 -0.6251 -1.2703
  505MOL0     H68152   1.201   4.615   0.704 -0.2761  1.6883 -2.2883
  505MOL0     H68153   1.312   4.445   0.560  0.3856 -0.2235 -0.5738
  505MOL0     H68154   1.276   4.602   0.478 -0.4684  1.5119  1.7549
  505MOL0     H68155   1.775   4.753   1.147  0.4779 -0.9671  0.9695
  505MOL0     H68156   1.933   4.720   1.324  1.1909  0.4210 -0.6021
  505MOL0     H68157   2.174   5.048   1.802 -2.2815 -1.5366  0.0902
  505MOL0     H68158   2.369   4.941   1.919  1.2675 -1.7676 -1.1262
  505MOL0     H68159   3.972   3.955   1.476 -0.5153 -0.6261  1.0006
  505MOL0     H68160   4.052   3.720   1.481 -0.6553 -1.3788  0.4314
  505MOL0     H68161   4.120   3.338   1.507  1.9567  3.2563 -0.0893
  505MOL0     H68162   4.140   3.099   1.548  1.8748 -3.1913  0.7948
  505MOL0     H68163   4.474   2.851   1.705 -1.6416 -0.7884 -0.3723
  505MOL0     H68164   4.514   3.003   1.635  1.4795 -2.6076  0.5486
  505MOL0     H68165   4.335   2.968   1.455 -1.5341 -1.6184 -1.0613
  505MOL0     H68166   4.313   2.802   1.522 -0.6244 -0.4310  1.3505
  505MOL0     H68167   4.558   2.757   1.473  0.2001  0.0952 -0.2348
  505MOL0     H68168   4.578   2.915   1.404 -0.3093  0.7980  0.1165
  505MOL0     H68169   4.415   2.698   1.291 -0.4361  0.8226 -0.3862
  505MOL0     H68170   4.372   2.860   1.245 -2.3351 -1.7669  1.5472
  505MOL0     H68171   4.712   2.818   1.015 -2.4559  7.0276 -0.4609
  505MOL0     H68172   4.442   3.191   1.850 -0.1596 -0.8132  0.7239
  505MOL0     H68173   4.403   3.416   1.958 -2.3562 -0.1790 -0.5479
  505MOL0     H68174   4.483   3.492   1.806  0.1501  2.0785 -0.1238
  505MOL0     H68175   4.344   3.552   1.871  2.6563  0.2540 -1.9858
  506MOL0     O68176  11.403   5.629   8.827  0.3138  0.4613  0.9961
  506MOL0     C68177  11.496   5.647   8.757 -0.7495  0.5742 -0.6017
  506MOL0     O68178  11.512   5.586   8.637 -0.4182 -0.0368  0.4038
  506MOL0     C68179  11.415   5.506   8.600 -0.5468  0.4351  1.2724
  506MOL0     C68180  11.320   5.552   8.508  0.2795  0.5793 -0.6315
  506MOL0     C68181  11.205   5.473   8.479 -0.0083  0.7050  0.1547
  506MOL0     C68182  11.196   5.344   8.534 -0.7680 -0.3295 -0.4361
  506MOL0     O68183  11.095   5.261   8.498  0.5182 -0.5860 -0.0508
  506MOL0     C68184  11.133   5.134   8.440  0.4306  0.2973 -0.1076
  506MOL0     C68185  11.071   5.031   8.519  0.4189 -0.3574  0.7759
  506MOL0     C68186  11.017   4.911   8.450  0.8104 -0.4846  1.1523
  506MOL0     C68187  11.132   4.839   8.371  0.7305 -0.2249  0.8323
  506MOL0     C68188  11.101   4.700   8.321  0.2530  0.0442 -0.8201
  506MOL0     C68189  11.228   4.620   8.272 -0.2620  0.6572 -0.1656
  506MOL0     C68190  11.204   4.468   8.263 -0.5636 -0.6511 -0.3879
  506MOL0     C68191  11.226   4.399   8.392 -1.1770 -0.1781  0.0618
  506MOL0     N68192  11.354   4.428   8.447  0.2946  0.1862  1.0273
  506MOL0     C68193  11.472   4.407   8.384 -0.3204  0.0017  0.9441
  506MOL0     C68194  11.566   4.477   8.451 -0.4202 -0.0830 -0.1558
  506MOL0     C68195  11.713   4.482   8.429 -0.2173 -0.8617 -0.6434
  506MOL0     C68196  11.805   4.383   8.514 -0.5143  0.0969  0.3702
  506MOL0     C68197  11.813   4.406   8.667  0.3018  0.4245 -0.7390
  506MOL0     C68198  11.864   4.542   8.708 -0.3040 -0.2273  0.5156
  506MOL0     O68199  11.923   4.516   8.840  1.0466  0.1402  0.5301
  506MOL0     C68200  11.984   4.626   8.907  0.6556  0.4362 -0.3970
  506MOL0     C68201  12.075   4.590   9.001 -0.4422  0.3175 -0.5618
  506MOL0     C68202  12.152   4.687   9.071  0.5854  0.2090 -0.3653
  506MOL0     C68203  12.129   4.824   9.051  0.2058  1.2419  1.1021
  506MOL0     C68204  12.207   4.926   9.117  0.2501  0.6051 -0.7662
  506MOL0     O68205  12.267   4.884   9.225 -0.0584  0.5019  0.0529
  506MOL0     C68206  12.318   4.966   9.320  0.2431 -0.5786  0.5848
  506MOL0     C68207  12.333   4.903   9.442 -0.5687 -0.0498 -0.8336
  506MOL0     C68208  12.397   4.964   9.552 -0.3930 -0.2239 -0.8673
  506MOL0     C68209  12.441   5.093   9.538 -1.2078  0.4843 -0.2574
  506MOL0     O68210  12.504   5.154   9.645 -0.2362  0.0336 -0.3557
  506MOL0     C68211  12.604   5.253   9.620  0.2780  0.9406 -0.7518
  506MOL0     C68212  12.640   5.315   9.750 -0.2479  0.1646 -0.5443
  506MOL0     C68213  12.686   5.216   9.861 -0.2948 -0.0966 -0.1049
  506MOL0     C68214  12.778   5.292   9.962  0.0621  0.6234 -0.0221
  506MOL0     C68215  12.817   5.193  10.072 -0.8343  0.2154 -0.4067
  506MOL0     C68216  12.905   5.256  10.179 -0.1318 -0.1417  0.4312
  506MOL0     C68217  12.830   5.355  10.272  0.2993  1.0948  0.7563
  506MOL0     C68218  12.709   5.288  10.344  0.2457  0.0073  0.2845
  506MOL0    Cl68219  12.741   5.123  10.428 -0.0943  0.2031  0.1435
  506MOL0     C68220  12.430   5.156   9.419  0.5301 -1.1480 -0.6686
  506MOL0     C68221  12.380   5.099   9.305  0.5497  0.8758 -0.3184
  506MOL0     O68222  12.211   5.044   9.074  0.3429  0.0314 -0.0123
  506MOL0     C68223  12.041   4.857   8.946 -0.5809 -0.2941 -0.9209
  506MOL0     C68224  11.973   4.762   8.876 -0.2453 -0.4338  0.2035
  506MOL0     N68225  11.496   4.562   8.538  0.6868 -0.1408 -0.2234
  506MOL0     N68226  11.368   4.528   8.544  0.3581 -0.1004  0.6391
  506MOL0     C68227  11.302   5.295   8.618  0.1559  0.7296  0.0829
  506MOL0     C68228  11.411   5.375   8.649 -0.5399  0.5499 -0.3019
  506MOL0     C68229  11.614   5.711   8.819 -0.5124 -0.3836 -0.3570
  506MOL0     C68230  11.606   5.754   8.954  0.1989  0.1716  0.6273
  506MOL0     C68231  11.719   5.792   9.037 -0.2464  1.1179  0.5178
  506MOL0     C68232  11.841   5.808   8.966 -0.5236  0.3086  0.1252
  506MOL0     O68233  11.953   5.870   9.025 -0.0936  0.5375 -0.6303
  506MOL0     C68234  11.949   5.849   9.171 -0.4414  0.5391 -0.2029
  506MOL0     C68235  12.084   5.867   9.227 -0.6187  0.1661 -0.0047
  506MOL0     C68236  12.141   6.014   9.201  0.7931  0.2810  0.9931
  506MOL0     C68237  12.266   6.042   9.286 -0.5232  0.3564  0.2568
  506MOL0     C68238  12.342   6.155   9.232  0.4422  0.6825  0.0735
  506MOL0     C68239  12.430   6.232   9.196 -0.0108 -0.2315 -0.7942
  506MOL0     C68240  11.853   5.780   8.834  0.8636 -0.5440 -0.4225
  506MOL0     C68241  11.741   5.734   8.757 -0.1684  0.9562  0.2431
  506MOL0     C68242  11.773   5.720   8.606  0.4352  0.3574 -0.4514
  506MOL0     H68243  11.324   5.657   8.479 -0.3317  0.9317  0.4697
  506MOL0     H68244  11.117   5.508   8.426  1.2397 -0.9481 -3.2867
  506MOL0     H68245  11.088   5.131   8.340 -2.4458 -1.9286  1.0741
  506MOL0     H68246  11.239   5.114   8.422 -0.0140 -2.7557  0.0627
  506MOL0     H68247  10.984   5.077   8.566 -0.7004  1.3359 -2.6340
  506MOL0     H68248  11.144   4.992   8.591  1.9636 -2.5520 -1.7784
  506MOL0     H68249  10.942   4.951   8.381  2.4658 -0.7120 -0.8678
  506MOL0     H68250  10.974   4.845   8.526 -0.3156 -1.3899 -0.1899
  506MOL0     H68251  11.169   4.906   8.292 -1.2842  0.0840  0.0668
  506MOL0     H68252  11.220   4.833   8.436  1.5613  3.0750  0.2200
  506MOL0     H68253  11.055   4.649   8.407 -2.1672  1.1867 -1.3631
  506MOL0     H68254  11.015   4.703   8.254  0.0694 -3.3225 -0.9024
  506MOL0     H68255  11.255   4.651   8.171  4.1495  1.7216  1.1220
  506MOL0     H68256  11.316   4.639   8.333  2.3437 -5.1850 -1.4871
  506MOL0     H68257  11.288   4.425   8.209 -0.1173 -0.9251  0.4981
  506MOL0     H68258  11.117   4.425   8.213 -2.6660 -1.1741  3.2945
  506MOL0     H68259  11.151   4.435   8.464 -2.6322  0.5915 -1.7618
  506MOL0     H68260  11.208   4.292   8.379  0.4981 -0.1286 -3.8075
  506MOL0     H68261  11.498   4.338   8.305 -1.9026 -0.7094  1.0072
  506MOL0     H68262  11.726   4.468   8.321  2.5803 -0.4675 -0.4275
  506MOL0     H68263  11.753   4.580   8.455  0.3092 -0.4704 -2.7559
  506MOL0     H68264  11.756   4.286   8.500  1.3860 -0.8538 -0.0341
  506MOL0     H68265  11.905   4.377   8.471 -1.1681 -1.5954 -1.0176
  506MOL0     H68266  11.877   4.331   8.714 -2.0802 -0.2131  1.7677
  506MOL0     H68267  11.714   4.381   8.706  1.4201 -3.8637 -0.0984
  506MOL0     H68268  11.774   4.604   8.709 -0.3346 -0.2719  0.5580
  506MOL0     H68269  11.936   4.579   8.634  0.1320 -0.7610  0.6585
  506MOL0     H68270  12.099   4.488   9.026 -2.0163 -0.3056 -1.4159
  506MOL0     H68271  12.232   4.654   9.135 -1.8846 -4.7480  0.6488
  506MOL0     H68272  12.287   4.805   9.451  0.8570 -1.2557 -4.5418
  506MOL0     H68273  12.403   4.906   9.643  1.7873 -0.5112 -1.1441
  506MOL0     H68274  12.698   5.221   9.575  0.2708 -0.2981  0.0543
  506MOL0     H68275  12.556   5.340   9.575 -2.8594 -0.4164 -0.3294
  506MOL0     H68276  12.716   5.394   9.747 -0.3101  0.8420  4.9228
  506MOL0     H68277  12.554   5.368   9.793 -0.4570  0.6904 -1.5914
  506MOL0     H68278  12.592   5.175   9.900 -0.4742 -1.3296 -1.7305
  506MOL0     H68279  12.749   5.132   9.830 -0.1098 -0.4403  1.1330
  506MOL0     H68280  12.735   5.387   9.997 -0.7251  0.1152  0.4072
  506MOL0     H68281  12.859   5.347   9.913 -0.3030  0.3891 -0.9199
  506MOL0     H68282  12.874   5.117  10.018 -0.4377  1.2591 -1.5244
  506MOL0     H68283  12.732   5.140  10.115 -0.1682  1.7476  3.1606
  506MOL0     H68284  12.955   5.185  10.245  2.8249  0.3817 -1.0776
  506MOL0     H68285  12.979   5.321  10.131 -0.8385 -0.7635 -1.5709
  506MOL0     H68286  12.810   5.448  10.217 -2.6271  0.0927 -0.0689
  506MOL0     H68287  12.905   5.372  10.350  0.8335 -0.6062  0.6511
  506MOL0     H68288  12.675   5.355  10.424 -0.5557  2.3526 -1.8964
  506MOL0     H68289  12.630   5.282  10.268  2.6663 -0.9182 -2.3000
  506MOL0     H68290  12.472   5.254   9.402 -1.6319 -0.2042 -1.0114
  506MOL0     H68291  12.387   5.157   9.213  1.5675  1.6861  0.2482
  506MOL0     H68292  12.020   4.958   8.913 -2.8284 -0.5925 -0.5307
  506MOL0     H68293  11.913   4.804   8.796 -1.1549  1.1006  1.6260
  506MOL0     H68294  11.304   5.200   8.669  0.3789  2.3558  3.3420
  506MOL0     H68295  11.488   5.349   8.721 -0.8087  1.9613  0.5356
  506MOL0     H68296  11.512   5.740   9.005  0.4627 -1.1113  0.7948
  506MOL0     H68297  11.711   5.798   9.145  1.3165 -0.4539  0.7749
  506MOL0     H68298  11.926   5.748   9.205  1.4750 -0.1414 -0.7497
  506MOL0     H68299  11.890   5.928   9.218 -2.4692 -2.3502  2.4177
  506MOL0     H68300  12.153   5.797   9.178 -0.0861  0.3720  0.4451
  506MOL0     H68301  12.086   5.864   9.336  0.9022 -0.5268 -0.0167
  506MOL0     H68302  12.067   6.081   9.247 -2.5268 -1.2796 -1.6401
  506MOL0     H68303  12.157   6.036   9.096  0.3459 -1.1559  0.5958
  506MOL0     H68304  12.242   6.061   9.391  1.5730 -0.6417  0.9664
  506MOL0     H68305  12.348   5.971   9.272 -0.3365  0.8592 -1.6397
  506MOL0     H68306  12.522   6.285   9.184  0.5491 -0.6202  1.3477
  506MOL0     H68307  11.955   5.800   8.805  1.7786 -0.1392  2.7284
  506MOL0     H68308  11.762   5.617   8.573 -0.5239  0.8310 -1.6872
  506MOL0     H68309  11.707   5.773   8.537  1.1890  0.0134 -1.4743
  506MOL0     H68310  11.876   5.737   8.575  0.5480 -0.6182 -0.6524
  507MOL0     O68311   6.660   3.154   8.601 -0.2606  0.1619  0.3538
  507MOL0     C68312   6.617   3.267   8.626  0.6663  0.0576 -0.0183
  507MOL0     O68313   6.692   3.379   8.632  0.2170  0.2997 -0.3346
  507MOL0     C68314   6.821   3.368   8.618 -0.5937 -0.3910 -0.3191
  507MOL0     C68315   6.895   3.406   8.725 -0.8161 -0.5170 -0.8302
  507MOL0     C68316   7.033   3.419   8.715 -1.1065  0.1716  0.7550
  507MOL0     C68317   7.108   3.378   8.608  0.3836  0.2762  0.7603
  507MOL0     O68318   7.244   3.391   8.579  0.1989 -0.6343 -0.1301
  507MOL0     C68319   7.338   3.391   8.694  0.3104 -0.6554  0.7978
  507MOL0     C68320   7.479   3.389   8.632 -1.0548  0.8443  0.4092
  507MOL0     C68321   7.526   3.252   8.573 -0.7567  0.7224  0.6528
  507MOL0     C68322   7.630   3.283   8.467 -0.3622 -0.0651 -0.1190
  507MOL0     C68323   7.698   3.147   8.408  0.2647 -0.5108  0.7205
  507MOL0     C68324   7.761   3.059   8.513 -0.9265 -0.1430  0.3073
  507MOL0     C68325   7.860   3.129   8.616  0.1733 -0.6094 -0.3940
  507MOL0     C68326   7.884   3.033   8.731  0.4336 -0.3244 -0.7969
  507MOL0     N68327   7.983   3.095   8.815  0.0379 -0.2502  0.1281
  507MOL0     C68328   8.112   3.046   8.821 -0.4784 -0.3372 -0.3751
  507MOL0     C68329   8.170   3.133   8.902 -0.8556 -0.0783 -1.5437
  507MOL0     C68330   8.308   3.109   8.965 -0.0240  0.4872  0.1432
  507MOL0     C68331   8.306   3.054   9.105 -0.3608 -0.2871 -0.4288
  507MOL0     C68332   8.373   3.142   9.212 -0.2486  0.3328  0.5872
  507MOL0     C68333   8.261   3.213   9.278  0.0847  1.2735 -0.8610
  507MOL0     O68334   8.187   3.143   9.374 -0.0011  0.5554  0.3114
  507MOL0     C68335   8.077   3.215   9.413 -0.9796 -0.0241  0.8045
  507MOL0     C68336   7.982   3.266   9.323 -0.5855 -0.3161  0.8055
  507MOL0     C68337   7.865   3.328   9.370  0.1610 -1.3008 -0.2105
  507MOL0     C68338   7.826   3.341   9.506  0.7978  0.0386 -0.7954
  507MOL0     C68339   7.713   3.421   9.554  0.0032  0.4287  0.0013
  507MOL0     O68340   7.610   3.436   9.469 -0.1221  0.1710  0.1007
  507MOL0     C68341   7.493   3.477   9.522  1.1567 -0.1613  0.6692
  507MOL0     C68342   7.377   3.395   9.535  0.3519 -0.0836 -0.0759
  507MOL0     C68343   7.250   3.433   9.573 -0.2364  0.0263 -0.1899
  507MOL0     C68344   7.236   3.573   9.605 -0.2699  1.0904  0.6293
  507MOL0     O68345   7.116   3.627   9.637  0.3440  0.2822  0.0081
  507MOL0     C68346   6.995   3.548   9.642  0.3946  1.2170  0.6098
  507MOL0     C68347   6.884   3.634   9.703  0.6596  1.0632  0.5672
  507MOL0     C68348   6.750   3.547   9.707 -0.5138  0.2255 -0.1041
  507MOL0     C68349   6.638   3.605   9.796  0.0513 -0.0958  0.3850
  507MOL0     C68350   6.581   3.744   9.756  0.6777 -0.0699 -0.6145
  507MOL0     C68351   6.527   3.753   9.618 -0.7082 -0.2597  0.3588
  507MOL0     C68352   6.434   3.877   9.627 -0.6414  0.5679 -0.3396
  507MOL0     C68353   6.378   3.908   9.491 -0.4248 -0.3422  0.1848
  507MOL0    Cl68354   6.256   3.782   9.432  0.0570 -0.4458  0.5986
  507MOL0     C68355   7.340   3.663   9.596  0.0335  0.8430  0.2046
  507MOL0     C68356   7.465   3.613   9.561 -0.5454  0.2619  0.5198
  507MOL0     O68357   7.712   3.478   9.664 -0.1671 -0.0116 -0.6560
  507MOL0     C68358   7.921   3.289   9.593 -0.1294 -0.1592 -0.2760
  507MOL0     C68359   8.044   3.222   9.551  0.6731 -0.7554 -0.3149
  507MOL0     N68360   8.084   3.231   8.937 -0.3470  0.4564 -0.1155
  507MOL0     N68361   7.971   3.215   8.877 -0.1157  0.9301 -0.7035
  507MOL0     C68362   7.032   3.334   8.492 -0.3704  0.2276 -0.9365
  507MOL0     C68363   6.890   3.328   8.502  0.6965  0.6307 -0.0044
  507MOL0     C68364   6.474   3.286   8.646  0.2879 -1.0427  0.0116
  507MOL0     C68365   6.426   3.423   8.644  0.4959  0.6186 -0.8346
  507MOL0     C68366   6.288   3.457   8.648 -0.9317  0.3973 -0.7061
  507MOL0     C68367   6.190   3.354   8.673  0.6100 -0.8988 -0.2186
  507MOL0     O68368   6.058   3.374   8.688  0.3191 -0.2739 -0.1393
  507MOL0     C68369   5.994   3.501   8.696 -0.3818 -0.9275 -0.6272
  507MOL0     C68370   5.985   3.572   8.553 -0.4291 -0.1372  0.0384
  507MOL0     C68371   5.839   3.629   8.522  0.5744  0.7581  0.6447
  507MOL0     C68372   5.805   3.752   8.603  0.6713 -1.5555  0.5943
  507MOL0     C68373   5.663   3.797   8.590  0.2227 -0.1077 -0.9042
  507MOL0     C68374   5.546   3.816   8.592 -0.9511 -1.0868  0.0049
  507MOL0     C68375   6.240   3.226   8.680  0.5456 -0.6297 -0.7734
  507MOL0     C68376   6.372   3.188   8.671 -0.5111 -0.0944 -0.8812
  507MOL0     C68377   6.396   3.046   8.659  0.6598 -0.2349  0.3135
  507MOL0     H68378   6.841   3.441   8.813  1.5197  1.9254 -0.2371
  507MOL0     H68379   7.089   3.465   8.796  1.6759  0.6714 -1.3209
  507MOL0     H68380   7.329   3.485   8.748  0.0531 -0.0864 -0.2079
  507MOL0     H68381   7.319   3.316   8.771 -1.5172  1.4077  2.4686
  507MOL0     H68382   7.544   3.406   8.719 -1.3153  1.5512  0.4715
  507MOL0     H68383   7.483   3.466   8.555  0.0249 -1.0350 -1.5297
  507MOL0     H68384   7.438   3.194   8.543  1.5306 -3.1531  0.8168
  507MOL0     H68385   7.576   3.189   8.647 -1.2914 -0.4972 -0.0083
  507MOL0     H68386   7.593   3.338   8.380 -0.3327 -0.6565 -0.5114
  507MOL0     H68387   7.712   3.335   8.517  2.4523 -4.0973 -0.0130
  507MOL0     H68388   7.617   3.096   8.355  0.9908 -1.4259  0.4525
  507MOL0     H68389   7.772   3.164   8.329  1.3379 -1.6416  1.4287
  507MOL0     H68390   7.673   3.019   8.564 -1.6732  0.9132 -0.1053
  507MOL0     H68391   7.801   2.974   8.457 -0.8373 -1.2617  2.0113
  507MOL0     H68392   7.806   3.213   8.660  1.4755 -0.4003  0.9141
  507MOL0     H68393   7.957   3.162   8.577  0.3758 -1.8482 -1.0012
  507MOL0     H68394   7.791   3.012   8.786  0.0742  0.4717 -1.0904
  507MOL0     H68395   7.927   2.936   8.703  1.3894 -0.2968  0.4792
  507MOL0     H68396   8.165   2.971   8.762 -0.5853  1.5627 -3.0542
  507MOL0     H68397   8.368   3.049   8.897 -1.6831 -1.6509  0.4810
  507MOL0     H68398   8.354   3.207   8.982  2.2594  0.0433 -2.6593
  507MOL0     H68399   8.208   3.016   9.135  0.7588 -1.7938  1.5517
  507MOL0     H68400   8.371   2.966   9.098  1.1456  0.8399 -1.0463
  507MOL0     H68401   8.448   3.204   9.162  2.4097  0.3924  4.3049
  507MOL0     H68402   8.435   3.087   9.283  3.6196  1.0779 -1.9193
  507MOL0     H68403   8.194   3.251   9.200 -2.1894 -0.7879 -0.0204
  507MOL0     H68404   8.320   3.296   9.320  4.4501 -0.7686 -2.2990
  507MOL0     H68405   7.999   3.250   9.217 -0.2640 -2.0309  1.0766
  507MOL0     H68406   7.794   3.366   9.297 -0.3391 -1.7651  0.0240
  507MOL0     H68407   7.402   3.294   9.502 -2.0990 -1.0355  0.7974
  507MOL0     H68408   7.158   3.375   9.579 -1.2302  1.1893 -2.7835
  507MOL0     H68409   6.959   3.507   9.548 -2.1786 -0.9098  2.3903
  507MOL0     H68410   7.009   3.464   9.711 -5.6943 -2.5505 -1.9370
  507MOL0     H68411   6.918   3.660   9.803  1.5542  0.3248  0.4715
  507MOL0     H68412   6.887   3.725   9.643  1.3196  2.2832  2.3662
  507MOL0     H68413   6.714   3.518   9.608  0.0600  1.7255 -0.7826
  507MOL0     H68414   6.769   3.456   9.764 -0.6341  0.3317  0.1077
  507MOL0     H68415   6.658   3.616   9.903  1.2188 -0.1174  0.1765
  507MOL0     H68416   6.553   3.535   9.793 -1.7898  2.0304 -1.4399
  507MOL0     H68417   6.651   3.824   9.780  1.2472 -0.9616  0.8591
  507MOL0     H68418   6.504   3.758   9.833  2.2701 -1.1792  1.2797
  507MOL0     H68419   6.608   3.787   9.553 -0.4279  1.4080  1.5178
  507MOL0     H68420   6.478   3.658   9.596  0.5458 -0.7122 -0.5870
  507MOL0     H68421   6.485   3.967   9.663  1.1791 -0.5728  0.0544
  507MOL0     H68422   6.348   3.851   9.689  0.0109 -2.9130 -0.6857
  507MOL0     H68423   6.336   4.006   9.518  2.7107  1.3197 -0.3962
  507MOL0     H68424   6.450   3.916   9.409  0.1401 -0.9398  0.6193
  507MOL0     H68425   7.329   3.768   9.621  1.3363  1.8451 -2.9488
  507MOL0     H68426   7.553   3.675   9.566 -0.2527  0.0069 -1.1839
  507MOL0     H68427   7.894   3.304   9.697  1.3306  3.2157 -0.2644
  507MOL0     H68428   8.118   3.181   9.619  1.1598  2.6465  1.3841
  507MOL0     H68429   7.085   3.304   8.402 -0.4681 -2.5708 -0.1478
  507MOL0     H68430   6.832   3.294   8.417  1.8209 -1.5859  0.0583
  507MOL0     H68431   6.497   3.505   8.639  1.4116 -0.1348 -0.4013
  507MOL0     H68432   6.265   3.561   8.628  0.2771  0.5666 -1.3309
  507MOL0     H68433   6.057   3.560   8.763 -0.2430 -1.8304  0.0523
  507MOL0     H68434   5.893   3.481   8.732 -0.5245 -0.1986 -0.6031
  507MOL0     H68435   6.005   3.498   8.475 -0.0222 -0.7448  0.7205
  507MOL0     H68436   6.065   3.645   8.536  2.7099 -3.5817 -1.2819
  507MOL0     H68437   5.763   3.552   8.538  2.2161 -1.5880 -1.7657
  507MOL0     H68438   5.822   3.661   8.418 -1.4907 -0.3680  0.5650
  507MOL0     H68439   5.828   3.738   8.708 -1.8584 -0.2707  1.4129
  507MOL0     H68440   5.874   3.824   8.557 -0.9275 -0.4782 -0.2415
  507MOL0     H68441   5.444   3.848   8.597 -0.6238 -0.1968  2.8231
  507MOL0     H68442   6.154   3.162   8.698 -0.3425  0.9511  1.0468
  507MOL0     H68443   6.498   3.018   8.687  0.1738 -0.1829  2.2286
  507MOL0     H68444   6.325   2.989   8.719  0.2270  2.0349  2.0988
  507MOL0     H68445   6.379   3.032   8.552 -2.5006  5.7070 -0.4423
  508MOL0     O68446   9.844   2.995   5.187  0.3192  0.1075  0.3774
  508MOL0     C68447   9.754   2.983   5.106 -0.8102  0.0405 -0.6011
  508MOL0     O68448   9.748   3.066   4.995 -0.2342  0.2015 -0.3767
  508MOL0     C68449   9.864   3.140   4.973  0.6348 -0.0322  0.1787
  508MOL0     C68450   9.894   3.248   5.052  0.0973  0.2696  0.9232
  508MOL0     C68451   9.980   3.349   5.006 -0.6912  0.1442 -0.0402
  508MOL0     C68452  10.050   3.342   4.886 -0.1638 -0.1347  0.1341
  508MOL0     O68453  10.146   3.433   4.860 -0.6147  0.2644  0.4164
  508MOL0     C68454  10.195   3.445   4.722  0.9183  0.3226 -0.2536
  508MOL0     C68455  10.258   3.583   4.706  0.0017 -0.2811 -0.1555
  508MOL0     C68456  10.290   3.612   4.568 -0.7307 -0.0049  0.3717
  508MOL0     C68457  10.294   3.767   4.538  0.2861 -0.7116 -0.0123
  508MOL0     C68458  10.148   3.819   4.494 -0.0437 -0.0167  0.2572
  508MOL0     C68459  10.147   3.834   4.340  0.4633 -0.4781 -0.5733
  508MOL0     C68460  10.018   3.854   4.272  0.3904 -0.1961  0.3770
  508MOL0     C68461   9.989   3.750   4.167 -0.9324 -0.9835  0.7156
  508MOL0     N68462  10.069   3.769   4.049  0.2180 -0.3780 -0.7428
  508MOL0     C68463  10.107   3.678   3.962  0.3233  0.5225  0.4103
  508MOL0     C68464  10.169   3.741   3.861 -0.3215 -1.1844  0.8434
  508MOL0     C68465  10.244   3.686   3.742  0.1405  0.0422  1.3918
  508MOL0     C68466  10.137   3.653   3.635 -1.2772  0.8940 -0.4566
  508MOL0     C68467  10.213   3.614   3.510  0.4246  0.3029  0.3763
  508MOL0     C68468  10.114   3.576   3.400 -0.2202  0.0117  0.4381
  508MOL0     O68469  10.014   3.487   3.456  0.6336  0.4959  0.6809
  508MOL0     C68470   9.881   3.512   3.429 -0.0904 -0.2950  0.0282
  508MOL0     C68471   9.784   3.469   3.517 -0.1622  0.3837 -0.4478
  508MOL0     C68472   9.650   3.512   3.522  0.5560  0.7190 -0.4073
  508MOL0     C68473   9.604   3.607   3.429 -0.1989  0.3048  1.0448
  508MOL0     C68474   9.469   3.656   3.424 -1.0085  0.4154  0.5027
  508MOL0     O68475   9.429   3.730   3.311  0.0596 -1.2789 -0.0881
  508MOL0     C68476   9.308   3.804   3.305 -0.9430  0.4987 -0.1727
  508MOL0     C68477   9.283   3.872   3.189 -0.5835  0.5806  1.1127
  508MOL0     C68478   9.167   3.941   3.168  0.2906 -1.0713  0.2728
  508MOL0     C68479   9.071   3.948   3.271 -0.8768  0.1094 -0.4327
  508MOL0     O68480   8.948   4.004   3.249 -0.3955  0.1629  0.3786
  508MOL0     C68481   8.940   4.089   3.129  0.6091  0.5013 -0.6262
  508MOL0     C68482   8.808   4.166   3.140 -0.3972  0.4195  0.0343
  508MOL0     C68483   8.792   4.262   3.263 -0.0789 -0.0788 -0.0007
  508MOL0     C68484   8.650   4.326   3.246 -0.5604  0.6313  0.4356
  508MOL0     C68485   8.588   4.389   3.382 -0.6389  0.0537  0.1276
  508MOL0     C68486   8.497   4.294   3.449 -0.8152 -0.5656  0.4744
  508MOL0     C68487   8.570   4.181   3.514 -0.0541 -0.4870 -1.0296
  508MOL0     C68488   8.479   4.124   3.623  0.2755  0.1781  0.3139
  508MOL0    Cl68489   8.451   4.241   3.750 -0.1228 -0.1819 -0.0328
  508MOL0     C68490   9.098   3.895   3.386  0.2211  0.0668  0.3496
  508MOL0     C68491   9.208   3.818   3.402 -0.1536  0.0264 -0.6859
  508MOL0     O68492   9.403   3.639   3.521  0.2066  0.6407 -0.1444
  508MOL0     C68493   9.699   3.634   3.324 -0.5678 -0.2914 -1.0607
  508MOL0     C68494   9.834   3.596   3.326  0.3497  0.3271  0.4037
  508MOL0     N68495  10.156   3.880   3.876 -0.1307  0.2102 -0.2166
  508MOL0     N68496  10.098   3.887   3.991 -0.1488  0.0365 -0.5143
  508MOL0     C68497  10.039   3.226   4.805  0.0422 -0.4437 -0.1325
  508MOL0     C68498   9.944   3.127   4.853  0.6479 -0.4854  0.5435
  508MOL0     C68499   9.652   2.885   5.129  0.0023 -0.3794  0.2133
  508MOL0     C68500   9.541   2.882   5.029  0.7201 -0.2890 -0.9580
  508MOL0     C68501   9.435   2.798   5.044 -1.1236  0.7395  0.7513
  508MOL0     C68502   9.420   2.720   5.164 -0.7125 -0.3785  0.2991
  508MOL0     O68503   9.312   2.639   5.198 -0.0180 -0.7054 -0.0251
  508MOL0     C68504   9.198   2.655   5.116 -0.6133  0.3539 -0.6112
  508MOL0     C68505   9.081   2.581   5.162 -0.1246 -0.2697 -0.6781
  508MOL0     C68506   9.024   2.638   5.292  0.9708 -0.3253  0.1644
  508MOL0     C68507   8.965   2.785   5.274 -0.6156 -0.7478 -0.0534
  508MOL0     C68508   8.881   2.823   5.385 -0.4380 -0.1563  0.3177
  508MOL0     C68509   8.808   2.843   5.473 -0.3068  0.7817 -0.4908
  508MOL0     C68510   9.531   2.705   5.246  0.3168 -0.5276 -1.6394
  508MOL0     C68511   9.645   2.787   5.236 -0.5659  0.1460  0.7694
  508MOL0     C68512   9.758   2.764   5.347 -0.0680 -0.3767  0.6970
  508MOL0     H68513   9.836   3.256   5.143 -0.0325 -0.1569  0.8804
  508MOL0     H68514   9.997   3.435   5.069 -0.6354 -1.5069  2.3223
  508MOL0     H68515  10.269   3.369   4.697  0.1790  0.0699 -1.8228
  508MOL0     H68516  10.109   3.434   4.654  1.2327 -1.3990 -0.4157
  508MOL0     H68517  10.345   3.596   4.771 -1.7378  3.1124  1.7121
  508MOL0     H68518  10.184   3.655   4.739  1.9242  1.4101  0.6810
  508MOL0     H68519  10.224   3.562   4.497  0.1227 -0.4596 -0.1127
  508MOL0     H68520  10.387   3.565   4.552 -0.3700  1.0121 -0.6048
  508MOL0     H68521  10.332   3.811   4.630 -3.0688 -0.3457  1.3369
  508MOL0     H68522  10.367   3.782   4.458  1.2149 -1.4986  0.6574
  508MOL0     H68523  10.063   3.757   4.523 -0.5960 -0.1834 -1.5944
  508MOL0     H68524  10.128   3.917   4.537  2.5461  1.3232 -1.3692
  508MOL0     H68525  10.184   3.935   4.324 -1.5306  0.9944  3.1332
  508MOL0     H68526  10.204   3.758   4.284 -1.7519 -2.7522  0.0623
  508MOL0     H68527  10.018   3.950   4.221  1.4239 -0.1615  0.4145
  508MOL0     H68528   9.930   3.849   4.337 -0.3712  1.7042 -0.4352
  508MOL0     H68529  10.023   3.659   4.217  2.6174  1.3968  3.1067
  508MOL0     H68530   9.884   3.737   4.140 -0.7643  2.6134 -2.5494
  508MOL0     H68531  10.100   3.570   3.956 -1.2653  0.6874 -1.7455
  508MOL0     H68532  10.325   3.752   3.709  0.7501 -1.0811  0.5946
  508MOL0     H68533  10.299   3.595   3.768 -2.4298 -2.0305  0.0583
  508MOL0     H68534  10.080   3.571   3.680  2.1205 -1.4833 -0.0636
  508MOL0     H68535  10.072   3.738   3.614 -0.2603  1.9269  0.4488
  508MOL0     H68536  10.274   3.530   3.545 -0.1197  0.3338  1.4484
  508MOL0     H68537  10.284   3.686   3.467  1.2503 -1.8981 -2.1969
  508MOL0     H68538  10.171   3.527   3.320  1.2067  3.4911 -0.8565
  508MOL0     H68539  10.062   3.660   3.354 -2.7664 -2.0034 -0.5836
  508MOL0     H68540   9.825   3.386   3.574 -3.4649 -3.0216 -2.5316
  508MOL0     H68541   9.582   3.474   3.597  2.3247 -2.2292 -0.1354
  508MOL0     H68542   9.356   3.867   3.108 -1.4353 -0.3969  0.3909
  508MOL0     H68543   9.163   3.977   3.065  3.2024  1.5878  0.9195
  508MOL0     H68544   9.016   4.166   3.113  1.0802 -0.1972 -1.9146
  508MOL0     H68545   8.938   4.034   3.035 -1.7548  2.7747 -2.0494
  508MOL0     H68546   8.798   4.229   3.051  0.5022  2.1581  1.1027
  508MOL0     H68547   8.721   4.100   3.147 -0.5287  0.1001 -3.0518
  508MOL0     H68548   8.809   4.204   3.354  2.2697  0.7421  0.1535
  508MOL0     H68549   8.862   4.346   3.261 -1.9010  1.5193 -1.2750
  508MOL0     H68550   8.574   4.259   3.204 -2.1123  1.2327  2.1422
  508MOL0     H68551   8.664   4.402   3.168 -2.4249  0.1012 -0.4725
  508MOL0     H68552   8.528   4.476   3.354  2.4231  2.9066  1.7240
  508MOL0     H68553   8.665   4.437   3.444 -0.6260 -0.0620  0.2020
  508MOL0     H68554   8.437   4.355   3.518  1.6501  1.0214  1.3562
  508MOL0     H68555   8.435   4.248   3.371 -1.8902 -1.6503  1.9037
  508MOL0     H68556   8.658   4.218   3.568 -0.3917 -0.2342 -0.6469
  508MOL0     H68557   8.615   4.114   3.440  0.7866  0.2322 -1.1866
  508MOL0     H68558   8.386   4.105   3.569  0.9383  1.4265 -1.3588
  508MOL0     H68559   8.515   4.027   3.659  1.8719  0.7810  0.4369
  508MOL0     H68560   9.022   3.892   3.464  1.3114 -2.9452  1.4269
  508MOL0     H68561   9.220   3.772   3.500  3.4916  1.2858 -0.4076
  508MOL0     H68562   9.679   3.696   3.237 -0.9709 -0.4228 -1.0652
  508MOL0     H68563   9.897   3.642   3.251  0.9930  0.3193  0.9321
  508MOL0     H68564  10.105   3.197   4.724 -0.6446 -1.5180 -0.3153
  508MOL0     H68565   9.936   3.034   4.798  2.0249  1.0371 -2.4984
  508MOL0     H68566   9.560   2.946   4.943 -1.7218  0.8389 -0.7314
  508MOL0     H68567   9.355   2.809   4.972 -1.5234  0.8221  1.1966
  508MOL0     H68568   9.214   2.609   5.018 -0.8994 -1.4736  0.1441
  508MOL0     H68569   9.174   2.760   5.096 -0.2610  0.6428  0.3909
  508MOL0     H68570   9.111   2.478   5.182  1.7891  0.5193  0.7725
  508MOL0     H68571   9.002   2.570   5.087  0.2378 -3.3221 -0.7122
  508MOL0     H68572   9.104   2.652   5.365  0.7340  3.7759 -0.1720
  508MOL0     H68573   8.946   2.569   5.325 -3.6980  2.2309 -4.1226
  508MOL0     H68574   9.052   2.850   5.258 -0.3538 -0.6432  1.5493
  508MOL0     H68575   8.902   2.788   5.185 -1.4425 -1.1682  0.5113
  508MOL0     H68576   8.726   2.875   5.533  0.4440  0.3851  0.7965
  508MOL0     H68577   9.523   2.637   5.331 -0.5406  0.5262 -0.8482
  508MOL0     H68578   9.784   2.845   5.416  3.9323  0.6243 -1.6462
  508MOL0     H68579   9.739   2.679   5.412  0.0945 -0.0444  1.1793
  508MOL0     H68580   9.853   2.746   5.295  0.1144  2.3336 -0.0757
  509MOL0     O68581  11.213  10.898   2.246  0.2054  0.1943  0.0123
  509MOL0     C68582  11.173  10.837   2.147  0.4014  0.3959 -0.0048
  509MOL0     O68583  11.042  10.785   2.132 -0.9265 -0.1875  0.7220
  509MOL0     C68584  10.942  10.781   2.226  0.0236  0.0548 -0.3448
  509MOL0     C68585  10.830  10.712   2.184  0.0295 -0.9118  0.7675
  509MOL0     C68586  10.721  10.696   2.266  0.5700  0.5478 -0.2709
  509MOL0     C68587  10.718  10.746   2.394 -0.0901  0.3485 -0.7181
  509MOL0     O68588  10.603  10.728   2.473 -0.2804  0.1924 -0.5844
  509MOL0     C68589  10.551  10.855   2.503  0.0288 -0.2387 -0.1099
  509MOL0     C68590  10.427  10.829   2.587  0.3292  0.2322 -0.6814
  509MOL0     C68591  10.296  10.830   2.504  0.5487  0.0694  0.3154
  509MOL0     C68592  10.197  10.772   2.594  0.5215 -0.3388  0.5855
  509MOL0     C68593  10.059  10.781   2.516 -0.4648  0.3836  1.7907
  509MOL0     C68594   9.939  10.738   2.604  0.8098 -0.4280 -0.4659
  509MOL0     C68595   9.816  10.762   2.514  0.1047 -0.4780  0.3646
  509MOL0     C68596   9.680  10.730   2.579 -0.9065  0.6159 -0.6788
  509MOL0     N68597   9.570  10.802   2.518 -0.8532  0.2216 -0.3438
  509MOL0     C68598   9.486  10.750   2.421  0.7481 -0.4978 -0.3849
  509MOL0     C68599   9.416  10.861   2.384 -0.8727  0.6245  0.7106
  509MOL0     C68600   9.329  10.868   2.269 -1.0058  1.6602  0.0270
  509MOL0     C68601   9.230  10.745   2.264 -0.5005  0.3674  0.3500
  509MOL0     C68602   9.095  10.762   2.194 -0.8186 -0.9442  1.0468
  509MOL0     C68603   8.995  10.642   2.199  0.3734  0.0345 -0.6690
  509MOL0     O68604   8.907  10.644   2.087 -0.2128 -0.1016 -0.0022
  509MOL0     C68605   8.770  10.618   2.086  0.2824  0.1650  0.3248
  509MOL0     C68606   8.700  10.665   1.977  0.5569 -0.7367  0.6195
  509MOL0     C68607   8.558  10.641   1.971 -0.4810  1.0629  0.2067
  509MOL0     C68608   8.483  10.579   2.075 -0.3194 -1.1646 -0.5687
  509MOL0     C68609   8.339  10.552   2.051  0.6775 -1.2137 -0.3814
  509MOL0     O68610   8.282  10.480   2.144 -0.0388  0.7367 -0.3368
  509MOL0     C68611   8.147  10.450   2.137 -0.2787 -1.1005 -0.2607
  509MOL0     C68612   8.104  10.348   2.051  0.0220  0.1649  0.0812
  509MOL0     C68613   7.970  10.301   2.055  0.7578  0.3072 -0.1170
  509MOL0     C68614   7.868  10.375   2.123  0.2050 -0.4052  0.4089
  509MOL0     O68615   7.742  10.318   2.120 -0.2657 -0.1788  0.1841
  509MOL0     C68616   7.627  10.398   2.163 -0.4294 -0.6297 -1.0570
  509MOL0     C68617   7.515  10.291   2.188 -0.1953  0.0665  0.5149
  509MOL0     C68618   7.370  10.355   2.174 -0.4819  0.7204  0.1043
  509MOL0     C68619   7.265  10.257   2.167 -0.5774  0.0682  0.4448
  509MOL0     C68620   7.243  10.147   2.281 -1.1188 -0.0620 -0.7572
  509MOL0     C68621   7.197  10.212   2.414  0.0303 -0.1488  0.0290
  509MOL0     C68622   7.179  10.101   2.509  0.0105  0.3340 -0.0212
  509MOL0     C68623   7.163  10.146   2.657 -0.1561 -0.8066 -0.1448
  509MOL0    Cl68624   7.099  10.026   2.764 -0.1717  0.2865  0.2276
  509MOL0     C68625   7.915  10.500   2.186  0.4526 -0.3252 -0.5000
  509MOL0     C68626   8.055  10.530   2.202  0.8347  0.9148 -0.8479
  509MOL0     O68627   8.287  10.595   1.955  0.9883 -0.2312  0.4041
  509MOL0     C68628   8.557  10.541   2.190 -0.5731 -0.5546 -0.7647
  509MOL0     C68629   8.699  10.559   2.196  0.5263 -0.8559 -0.0863
  509MOL0     N68630   9.451  10.960   2.463  0.3082 -0.1647 -0.3405
  509MOL0     N68631   9.548  10.934   2.541  1.0728  0.5234  0.1062
  509MOL0     C68632  10.842  10.800   2.451 -1.0432 -0.2426 -0.7538
  509MOL0     C68633  10.948  10.825   2.363  0.1815 -0.1638 -0.5669
  509MOL0     C68634  11.268  10.814   2.040  0.3706  0.3460 -0.4102
  509MOL0     C68635  11.216  10.744   1.931  0.0032  1.1570 -0.1952
  509MOL0     C68636  11.283  10.707   1.818  0.3218 -0.0287  0.2661
  509MOL0     C68637  11.418  10.735   1.806  0.6656  0.1745  0.3902
  509MOL0     O68638  11.481  10.732   1.680 -0.4239  0.5447  0.4211
  509MOL0     C68639  11.614  10.680   1.677  0.5089  0.4679  0.7112
  509MOL0     C68640  11.611  10.531   1.629 -0.4453  1.3865 -0.0895
  509MOL0     C68641  11.589  10.511   1.475  0.1530  0.4303 -0.9135
  509MOL0     C68642  11.697  10.418   1.419 -0.5606 -0.2685 -0.3686
  509MOL0     C68643  11.701  10.417   1.272  0.0125  0.4049 -0.2495
  509MOL0     C68644  11.684  10.430   1.153 -0.4523 -0.0095 -0.0872
  509MOL0     C68645  11.480  10.793   1.918 -0.1041 -0.2058 -0.6778
  509MOL0     C68646  11.409  10.842   2.029  0.5215 -0.1901  0.2531
  509MOL0     C68647  11.485  10.922   2.129 -0.8609  0.2853 -1.1729
  509MOL0     H68648  10.812  10.682   2.082 -2.6515  2.8041 -0.0710
  509MOL0     H68649  10.637  10.644   2.221  0.1598 -0.3141  1.3682
  509MOL0     H68650  10.613  10.914   2.571  0.7695 -2.6013  1.4007
  509MOL0     H68651  10.518  10.911   2.415 -0.9378 -1.1081 -0.3246
  509MOL0     H68652  10.418  10.901   2.668  1.3876 -0.4844  0.0886
  509MOL0     H68653  10.441  10.734   2.639 -0.4561 -0.3012 -1.4313
  509MOL0     H68654  10.299  10.762   2.418  0.2563 -2.1183  1.9490
  509MOL0     H68655  10.270  10.930   2.469 -1.7099 -1.2143 -2.0145
  509MOL0     H68656  10.223  10.667   2.613 -1.0548 -0.7651  0.5825
  509MOL0     H68657  10.195  10.830   2.686  0.5464  2.1350 -0.8845
  509MOL0     H68658  10.043  10.881   2.473  1.6450 -0.0646 -0.2343
  509MOL0     H68659  10.057  10.710   2.432  2.0341  1.2624  0.9109
  509MOL0     H68660   9.961  10.632   2.616  0.1074 -0.6249 -0.8776
  509MOL0     H68661   9.937  10.797   2.696 -0.9788  0.8470 -1.2566
  509MOL0     H68662   9.826  10.717   2.415  1.7097 -1.5022  0.9569
  509MOL0     H68663   9.818  10.867   2.483  2.6268 -1.6592 -4.3601
  509MOL0     H68664   9.670  10.622   2.564 -0.4787  0.7108 -1.7767
  509MOL0     H68665   9.689  10.757   2.685  0.7392 -2.3818  0.0684
  509MOL0     H68666   9.492  10.650   2.380  3.2980 -0.4944 -0.2067
  509MOL0     H68667   9.260  10.953   2.270  0.6420  3.0766  2.0475
  509MOL0     H68668   9.384  10.880   2.175 -3.7468  0.8077 -1.7924
  509MOL0     H68669   9.285  10.656   2.230  1.1152  0.8054  1.7024
  509MOL0     H68670   9.202  10.714   2.365  2.3528 -1.7182  0.6682
  509MOL0     H68671   9.107  10.787   2.088 -0.0690  0.9600  1.5445
  509MOL0     H68672   9.045  10.844   2.245 -2.5029  0.2544 -2.2422
  509MOL0     H68673   8.933  10.658   2.287  0.0010  3.3386 -1.3975
  509MOL0     H68674   9.045  10.545   2.199 -0.4249 -0.3963 -1.4108
  509MOL0     H68675   8.757  10.725   1.907 -1.2304  2.2934  1.5467
  509MOL0     H68676   8.503  10.685   1.888 -1.3979 -1.2047 -0.4661
  509MOL0     H68677   8.160  10.294   1.976 -2.8227 -0.0849 -2.0104
  509MOL0     H68678   7.936  10.221   1.991  0.3014  0.5479 -0.1747
  509MOL0     H68679   7.630  10.456   2.256 -0.8585  0.6378 -1.8188
  509MOL0     H68680   7.590  10.461   2.082 -5.6395  0.9321  2.0385
  509MOL0     H68681   7.521  10.200   2.128  2.0739  0.5653 -0.1143
  509MOL0     H68682   7.531  10.246   2.286  2.8070  0.7680  0.4264
  509MOL0     H68683   7.355  10.406   2.270  1.6365  1.5151  0.0787
  509MOL0     H68684   7.364  10.431   2.096 -1.8680 -0.9164 -1.4606
  509MOL0     H68685   7.291  10.207   2.073 -0.6547 -0.3420  0.6392
  509MOL0     H68686   7.176  10.319   2.151 -0.5077  0.1958  0.5485
  509MOL0     H68687   7.336  10.095   2.306  0.4104  3.5665  1.9815
  509MOL0     H68688   7.168  10.079   2.238 -1.7827  1.6023 -2.3643
  509MOL0     H68689   7.273  10.281   2.450 -1.5093 -0.6251  4.7976
  509MOL0     H68690   7.105  10.270   2.401 -1.4684 -2.3427  0.0790
  509MOL0     H68691   7.263  10.032   2.503 -2.8938 -3.4725 -1.9076
  509MOL0     H68692   7.091  10.038   2.488  1.8233 -1.6844 -2.1700
  509MOL0     H68693   7.260  10.165   2.704 -0.2713  0.9077 -0.5224
  509MOL0     H68694   7.114  10.243   2.658  1.9737  0.3869 -1.6695
  509MOL0     H68695   7.839  10.553   2.243 -0.2605 -1.6826 -0.1291
  509MOL0     H68696   8.081  10.627   2.244  0.1941  1.3924 -1.5297
  509MOL0     H68697   8.497  10.507   2.273  0.0716  0.9348  0.3501
  509MOL0     H68698   8.751  10.537   2.289  0.8790 -3.3757 -0.8057
  509MOL0     H68699  10.837  10.819   2.558  1.6626  0.4179 -0.6895
  509MOL0     H68700  11.035  10.873   2.407 -0.4106  0.3361  0.0893
  509MOL0     H68701  11.113  10.717   1.909  0.5058 -0.2039 -1.0045
  509MOL0     H68702  11.237  10.659   1.732 -0.5774  1.7879 -0.3284
  509MOL0     H68703  11.674  10.680   1.768  0.8662 -1.1682  0.5050
  509MOL0     H68704  11.668  10.741   1.604 -1.7863 -0.6719 -2.2001
  509MOL0     H68705  11.529  10.479   1.679  1.6741 -0.0504  2.1036
  509MOL0     H68706  11.706  10.486   1.658 -0.9082 -0.0228 -0.7075
  509MOL0     H68707  11.598  10.606   1.420 -0.0962  1.3113  0.5012
  509MOL0     H68708  11.486  10.478   1.457 -0.3959  0.3468  1.9128
  509MOL0     H68709  11.798  10.455   1.437 -1.4016  2.2842 -0.4398
  509MOL0     H68710  11.694  10.319   1.465  0.6738 -0.0988  0.0975
  509MOL0     H68711  11.667  10.443   1.048  1.9036 -0.2531 -0.5530
  509MOL0     H68712  11.588  10.798   1.912  0.0830 -2.3087  0.0597
  509MOL0     H68713  11.577  10.958   2.083 -1.7530  0.6076 -2.7941
  509MOL0     H68714  11.425  11.013   2.141 -0.7631  0.2077 -0.0230
  509MOL0     H68715  11.495  10.881   2.230  3.7441  0.6554 -1.3004
  510MOL0     O68716   6.078  10.938   7.865  0.5046  0.8509  0.0925
  510MOL0     C68717   6.092  11.052   7.821  0.7419  0.0100 -0.9546
  510MOL0     O68718   6.191  11.131   7.860 -0.4662 -0.6920  0.1895
  510MOL0     C68719   6.293  11.084   7.936  0.2328  0.2998 -0.9931
  510MOL0     C68720   6.329  11.150   8.055  0.5251 -0.2915  0.2170
  510MOL0     C68721   6.426  11.105   8.142  0.0945  0.0919  0.6154
  510MOL0     C68722   6.490  10.980   8.111 -0.4753 -0.4699 -0.6087
  510MOL0     O68723   6.585  10.938   8.204  0.0598 -0.4116  0.1853
  510MOL0     C68724   6.633  10.800   8.187 -0.8436 -0.3857  0.4499
  510MOL0     C68725   6.717  10.766   8.306 -0.4287  0.2773 -0.4818
  510MOL0     C68726   6.736  10.620   8.338  1.2458 -0.7770  0.5771
  510MOL0     C68727   6.610  10.541   8.384 -0.8502  0.1520 -0.3469
  510MOL0     C68728   6.651  10.403   8.437  0.3160  0.3420 -0.3348
  510MOL0     C68729   6.766  10.323   8.370 -0.5585 -0.6396 -0.0316
  510MOL0     C68730   6.791  10.173   8.416  0.3099 -0.7201  0.5721
  510MOL0     C68731   6.824  10.147   8.561  0.6767 -0.0664 -0.0020
  510MOL0     N68732   6.961  10.196   8.594 -0.1752 -0.4686  0.3969
  510MOL0     C68733   7.062  10.109   8.632 -0.9140  0.2547 -0.3916
  510MOL0     C68734   7.170  10.188   8.651 -0.8551 -0.6875  0.0922
  510MOL0     C68735   7.316  10.149   8.696 -0.4398 -0.3021 -0.0936
  510MOL0     C68736   7.348  10.000   8.697  0.2181  0.7258 -0.3788
  510MOL0     C68737   7.362   9.938   8.554  0.8166 -0.4301 -0.2096
  510MOL0     C68738   7.464   9.996   8.463 -0.5430  0.0473  0.0633
  510MOL0     O68739   7.552   9.900   8.399 -1.2700  0.3708 -0.0723
  510MOL0     C68740   7.510   9.804   8.313 -0.4471  0.0046  0.9637
  510MOL0     C68741   7.392   9.805   8.245  0.1546 -0.0676  0.3620
  510MOL0     C68742   7.364   9.702   8.150 -0.2218 -0.7130 -0.3584
  510MOL0     C68743   7.457   9.603   8.118  0.1641 -0.1150  0.9598
  510MOL0     C68744   7.422   9.512   8.010 -0.1344  0.0202  1.0680
  510MOL0     O68745   7.296   9.513   7.968  0.6195  0.5171 -0.2709
  510MOL0     C68746   7.249   9.433   7.860  0.0139  0.0202 -0.3103
  510MOL0     C68747   7.133   9.365   7.849 -0.1526  0.7495 -0.7565
  510MOL0     C68748   7.087   9.308   7.727 -0.0082  0.4525 -0.8688
  510MOL0     C68749   7.169   9.321   7.612 -0.2684  0.5758  0.3748
  510MOL0     O68750   7.149   9.277   7.485 -0.4412 -0.9357  0.7445
  510MOL0     C68751   7.022   9.205   7.462  0.4964 -0.5353  0.2373
  510MOL0     C68752   7.010   9.179   7.319 -0.4676 -0.0490  0.1337
  510MOL0     C68753   7.001   9.308   7.229  0.7135  0.2044  0.6382
  510MOL0     C68754   7.068   9.292   7.094 -0.4023 -0.1434  0.2516
  510MOL0     C68755   7.083   9.417   7.004  0.7588  0.1433 -0.4349
  510MOL0     C68756   6.942   9.489   6.985 -0.6025 -0.2382  0.6020
  510MOL0     C68757   6.926   9.583   6.864  0.9169 -0.7623  0.3488
  510MOL0     C68758   7.051   9.658   6.830  0.7205 -1.2973  0.6190
  510MOL0    Cl68759   7.017   9.791   6.710 -0.4444 -0.5290  0.0523
  510MOL0     C68760   7.275   9.406   7.623  0.6118 -0.5220 -0.4283
  510MOL0     C68761   7.315   9.463   7.743  0.0910  0.2279 -0.5108
  510MOL0     O68762   7.504   9.429   7.971  0.2619 -0.2337  0.2655
  510MOL0     C68763   7.582   9.602   8.191  0.6379  0.1806 -0.7288
  510MOL0     C68764   7.601   9.700   8.286  0.7637 -0.2847 -0.4049
  510MOL0     N68765   7.127  10.311   8.637 -0.1148 -0.1809  0.4532
  510MOL0     N68766   7.000  10.322   8.610 -0.4460  0.0717  0.4403
  510MOL0     C68767   6.474  10.930   7.986 -0.3721 -0.4248  0.8776
  510MOL0     C68768   6.366  10.969   7.907  0.7786  0.6084 -0.3478
  510MOL0     C68769   5.992  11.105   7.727  0.7310 -0.0034 -0.9083
  510MOL0     C68770   5.955  11.016   7.619  0.3098  0.1207  0.6212
  510MOL0     C68771   5.874  11.058   7.514  0.2304  0.3402  0.0757
  510MOL0     C68772   5.825  11.185   7.509  0.3809 -0.8019  0.3919
  510MOL0     O68773   5.742  11.225   7.407 -0.3942  0.6189  0.0111
  510MOL0     C68774   5.725  11.360   7.358 -0.2926 -0.0299 -0.8196
  510MOL0     C68775   5.653  11.357   7.227 -0.5058 -0.1941 -0.5558
  510MOL0     C68776   5.510  11.303   7.254  0.4234  0.0337  0.3988
  510MOL0     C68777   5.412  11.416   7.290 -0.8371 -0.2018  0.5142
  510MOL0     C68778   5.427  11.439   7.435  0.4723 -0.0605  0.3352
  510MOL0     C68779   5.417  11.473   7.550 -0.4223  0.1507 -0.3774
  510MOL0     C68780   5.841  11.272   7.623  0.1549 -0.1276 -0.2076
  510MOL0     C68781   5.921  11.234   7.730  0.2613 -1.1088 -1.1929
  510MOL0     C68782   5.928  11.314   7.859  0.6976  0.1912  0.1500
  510MOL0     H68783   6.272  11.235   8.090 -0.2189  0.6135 -2.8704
  510MOL0     H68784   6.436  11.148   8.241  0.8872 -3.5863  2.2943
  510MOL0     H68785   6.558  10.720   8.188 -0.2631 -0.9850 -1.2153
  510MOL0     H68786   6.693  10.794   8.096 -1.5252 -0.3418 -0.0158
  510MOL0     H68787   6.678  10.807   8.400  1.4312 -0.4493  0.6912
  510MOL0     H68788   6.817  10.804   8.283 -1.1602  1.1057 -2.4924
  510MOL0     H68789   6.817  10.614   8.411  0.2364 -1.3716  1.6826
  510MOL0     H68790   6.767  10.586   8.238 -0.6596  1.5346 -0.8964
  510MOL0     H68791   6.554  10.606   8.451  1.4147  2.4864 -0.5423
  510MOL0     H68792   6.553  10.528   8.292  0.0355  0.3453 -0.9337
  510MOL0     H68793   6.671  10.419   8.543  0.8467  1.9127 -0.6521
  510MOL0     H68794   6.563  10.338   8.432  1.1314 -0.9842  1.3110
  510MOL0     H68795   6.745  10.304   8.264  0.2712  0.8147 -0.4728
  510MOL0     H68796   6.860  10.375   8.387 -0.1276 -0.7565 -1.8431
  510MOL0     H68797   6.869  10.127   8.356  0.6024 -0.2569  0.5943
  510MOL0     H68798   6.698  10.121   8.392 -2.2041  3.0896  1.1431
  510MOL0     H68799   6.741  10.200   8.608  1.9670  1.2385  0.8669
  510MOL0     H68800   6.813  10.041   8.587  2.2938  0.0283  1.2000
  510MOL0     H68801   7.061  10.000   8.634  1.9837  0.1055 -1.9015
  510MOL0     H68802   7.391  10.196   8.632 -0.6677  2.9116  1.7951
  510MOL0     H68803   7.339  10.184   8.797 -3.5204 -0.9582  0.9716
  510MOL0     H68804   7.442   9.975   8.748  1.0077  1.2804 -1.5281
  510MOL0     H68805   7.268   9.946   8.749 -1.2068  1.2939 -1.9069
  510MOL0     H68806   7.265   9.955   8.505  1.4646  0.5026 -1.2209
  510MOL0     H68807   7.382   9.833   8.573 -1.2590 -0.1995  5.0531
  510MOL0     H68808   7.539  10.055   8.516  0.4541 -1.0238 -0.1263
  510MOL0     H68809   7.412  10.061   8.392  1.5192  0.2193 -1.3707
  510MOL0     H68810   7.324   9.888   8.260 -0.0832 -0.3587  0.9169
  510MOL0     H68811   7.272   9.713   8.095 -0.3778 -2.4994 -0.5096
  510MOL0     H68812   7.076   9.366   7.941  1.2061  0.4908  0.1191
  510MOL0     H68813   6.987   9.266   7.717 -0.5758  1.7731 -0.9667
  510MOL0     H68814   7.020   9.109   7.515 -2.7350 -1.6581 -1.6271
  510MOL0     H68815   6.938   9.264   7.501  2.2876  1.1565  1.6808
  510MOL0     H68816   7.101   9.121   7.300 -0.4995 -0.1523  0.3054
  510MOL0     H68817   6.916   9.126   7.303  0.5835 -1.9329 -0.0168
  510MOL0     H68818   6.895   9.320   7.205  1.3374  1.9075 -1.6426
  510MOL0     H68819   7.043   9.396   7.279  0.9515  0.2802  0.3059
  510MOL0     H68820   7.024   9.211   7.034 -3.1224  2.2086 -1.1533
  510MOL0     H68821   7.170   9.270   7.126  0.4801  3.5688  0.3800
  510MOL0     H68822   7.131   9.389   6.909  1.0649  0.2237 -0.3040
  510MOL0     H68823   7.149   9.483   7.061 -0.0990 -1.7498  3.0502
  510MOL0     H68824   6.862   9.415   6.985 -1.0742  0.2079 -1.8308
  510MOL0     H68825   6.922   9.556   7.070 -1.6443 -0.0916  0.2503
  510MOL0     H68826   6.834   9.636   6.889  1.1183 -0.8160  1.2308
  510MOL0     H68827   6.902   9.525   6.775  1.6342  2.6673 -2.2705
  510MOL0     H68828   7.097   9.700   6.920 -2.9337 -0.8125  2.4072
  510MOL0     H68829   7.122   9.583   6.794  0.1059 -2.0475  0.9482
  510MOL0     H68830   7.351   9.427   7.548  0.8723  0.8739  0.1902
  510MOL0     H68831   7.405   9.523   7.753 -1.0612  2.3504 -2.1055
  510MOL0     H68832   7.670   9.543   8.169  0.8127  0.3903 -0.5987
  510MOL0     H68833   7.696   9.696   8.340  0.4009  1.8439  0.4771
  510MOL0     H68834   6.530  10.844   7.952  0.3370  0.6398 -0.7748
  510MOL0     H68835   6.346  10.905   7.822 -2.3335 -0.5010  1.0555
  510MOL0     H68836   5.998  10.917   7.610 -0.7745 -0.2447 -0.8767
  510MOL0     H68837   5.863  10.992   7.428  1.7702 -0.0548  0.1467
  510MOL0     H68838   5.820  11.410   7.337  1.2302 -1.4157  2.0811
  510MOL0     H68839   5.673  11.423   7.431  2.6543 -1.0009  2.4174
  510MOL0     H68840   5.703  11.294   7.153  1.4218  0.8459 -0.1908
  510MOL0     H68841   5.641  11.459   7.191  1.8287  0.1598 -0.4402
  510MOL0     H68842   5.505  11.218   7.321  0.9736 -1.8994 -1.8791
  510MOL0     H68843   5.474  11.270   7.156 -0.1498 -0.4502  0.7688
  510MOL0     H68844   5.436  11.508   7.234  1.6400 -0.5412  0.9139
  510MOL0     H68845   5.307  11.396   7.267  0.1686 -0.1940 -6.1976
  510MOL0     H68846   5.416  11.510   7.651  0.5184 -0.0152 -0.2982
  510MOL0     H68847   5.792  11.368   7.610  0.0125 -0.2189 -0.3374
  510MOL0     H68848   5.909  11.421   7.856 -5.7222 -0.5863 -0.1567
  510MOL0     H68849   5.860  11.265   7.930  0.5066 -1.0296 -0.8407
  510MOL0     H68850   6.029  11.312   7.901  0.2949 -1.4465  1.1523
  511MOL0     O68851   3.087   7.873   4.674  0.1924  0.6276 -0.0023
  511MOL0     C68852   3.092   7.783   4.762 -0.0010 -0.2084 -0.2073
  511MOL0     O68853   3.109   7.654   4.728 -0.2490 -0.2048 -0.1447
  511MOL0     C68854   3.189   7.617   4.621  0.9481  0.4147 -0.3699
  511MOL0     C68855   3.326   7.652   4.616 -0.3691  0.4806  0.6680
  511MOL0     C68856   3.405   7.577   4.527  0.6164 -0.4730  1.2855
  511MOL0     C68857   3.357   7.482   4.438 -0.9181 -0.1090 -0.9311
  511MOL0     O68858   3.431   7.428   4.341 -0.7123 -1.5281 -0.3301
  511MOL0     C68859   3.565   7.383   4.367  0.6648  0.0767 -0.4962
  511MOL0     C68860   3.670   7.385   4.259  0.0756 -0.1106  0.4281
  511MOL0     C68861   3.694   7.519   4.196  1.1440  0.3399 -0.0803
  511MOL0     C68862   3.818   7.510   4.088  0.6554  0.5656 -0.4110
  511MOL0     C68863   3.838   7.648   4.035  0.6870 -0.3457  0.6339
  511MOL0     C68864   3.915   7.737   4.135 -0.0549  0.2062 -0.2763
  511MOL0     C68865   3.997   7.846   4.070  0.0232 -0.0465  0.4589
  511MOL0     C68866   4.136   7.810   4.012 -0.7507 -0.1737 -0.6770
  511MOL0     N68867   4.147   7.672   3.973  0.2834  0.4021  0.1142
  511MOL0     C68868   4.150   7.562   4.058 -0.0031 -0.5188 -0.6618
  511MOL0     C68869   4.152   7.451   3.973 -0.4410  0.7368 -0.0792
  511MOL0     C68870   4.180   7.304   3.996  0.0462  0.1919 -0.2984
  511MOL0     C68871   4.318   7.277   3.959 -0.1563  0.9226 -0.1067
  511MOL0     C68872   4.374   7.135   4.002 -0.3117 -0.1387  0.7095
  511MOL0     C68873   4.497   7.101   3.932 -0.0596  0.6570 -1.0759
  511MOL0     O68874   4.504   6.957   3.962  0.7413 -0.0442  0.1370
  511MOL0     C68875   4.622   6.893   3.925 -0.0651 -0.0262 -0.3774
  511MOL0     C68876   4.728   6.943   3.850  0.2308  0.7317  0.8701
  511MOL0     C68877   4.846   6.870   3.841  0.3277 -0.0958  0.2328
  511MOL0     C68878   4.854   6.744   3.905 -0.7079  0.0201 -0.1032
  511MOL0     C68879   4.980   6.668   3.898 -0.4231 -0.1289  0.0950
  511MOL0     O68880   4.969   6.542   3.941 -0.0189 -0.2487 -0.1264
  511MOL0     C68881   5.079   6.476   3.990 -0.4510  0.9917  0.3463
  511MOL0     C68882   5.189   6.534   4.056  0.7821  0.2270 -0.2013
  511MOL0     C68883   5.297   6.448   4.087 -0.4022 -0.1174 -0.1852
  511MOL0     C68884   5.299   6.310   4.052 -0.1162 -0.7379  0.3986
  511MOL0     O68885   5.422   6.250   4.067  0.6464 -0.2274 -0.4423
  511MOL0     C68886   5.421   6.114   4.112 -0.6333 -1.1388 -0.3421
  511MOL0     C68887   5.505   6.020   4.017  0.0212 -0.8213 -0.5630
  511MOL0     C68888   5.553   5.896   4.091 -0.6963  0.4779 -0.1495
  511MOL0     C68889   5.664   5.822   4.024 -0.6143 -0.5810  1.1200
  511MOL0     C68890   5.700   5.696   4.087 -1.1562  0.9984 -0.0849
  511MOL0     C68891   5.810   5.651   3.992 -1.5702  0.0937  0.3251
  511MOL0     C68892   5.896   5.556   4.066  0.6177 -0.6581 -0.4118
  511MOL0     C68893   6.026   5.527   3.981  0.3891 -0.3298 -0.2513
  511MOL0    Cl68894   6.105   5.392   4.049 -0.3076 -0.1663 -0.1764
  511MOL0     C68895   5.180   6.256   3.999  0.0394  0.2283  1.2030
  511MOL0     C68896   5.073   6.341   3.959  0.3203  0.1218  0.1134
  511MOL0     O68897   5.083   6.721   3.853  0.2040 -0.4423  0.2857
  511MOL0     C68898   4.756   6.699   3.994 -0.6896 -0.8764  0.3093
  511MOL0     C68899   4.640   6.778   4.003  0.0772 -1.3594  0.1283
  511MOL0     N68900   4.158   7.498   3.848  1.5026  0.2745 -0.5848
  511MOL0     N68901   4.152   7.626   3.840 -0.0092 -0.0743 -1.1529
  511MOL0     C68902   3.221   7.451   4.447  0.6208  0.0626  0.0562
  511MOL0     C68903   3.145   7.518   4.545  0.1539  0.3684 -0.6615
  511MOL0     C68904   3.040   7.806   4.892 -0.7603  0.6060  0.0195
  511MOL0     C68905   2.921   7.738   4.919  0.0344  0.3635 -0.4139
  511MOL0     C68906   2.857   7.743   5.049  0.1513 -0.5132  0.5545
  511MOL0     C68907   2.909   7.835   5.140  0.0668  0.1938 -0.0657
  511MOL0     O68908   2.835   7.837   5.257  0.7088 -0.2950 -0.2365
  511MOL0     C68909   2.886   7.908   5.364 -0.5891 -1.0854 -1.0807
  511MOL0     C68910   2.822   7.907   5.501 -0.4784  0.0673  0.4228
  511MOL0     C68911   2.874   7.788   5.582 -0.2691 -0.7320  0.6686
  511MOL0     C68912   2.997   7.840   5.672  0.7818 -0.9952 -0.3248
  511MOL0     C68913   3.093   7.733   5.688 -0.0984 -0.2924  0.1127
  511MOL0     C68914   3.190   7.656   5.702  1.0006  0.6311  0.3409
  511MOL0     C68915   3.024   7.904   5.117 -0.3772  0.6191  0.6231
  511MOL0     C68916   3.093   7.880   4.993  0.2064 -0.3114  0.8851
  511MOL0     C68917   3.238   7.928   4.980 -0.3830 -0.4429  0.2470
  511MOL0     H68918   3.362   7.735   4.676 -0.5359  1.4537 -0.5161
  511MOL0     H68919   3.505   7.615   4.509  0.6147 -1.8108 -2.4911
  511MOL0     H68920   3.601   7.435   4.456  0.2789 -2.4531  1.2534
  511MOL0     H68921   3.550   7.276   4.388  0.5225  0.1281 -0.3286
  511MOL0     H68922   3.622   7.335   4.175 -0.8720  2.1645 -0.4671
  511MOL0     H68923   3.762   7.330   4.279  0.0733 -1.2980 -2.3301
  511MOL0     H68924   3.718   7.589   4.277  0.8948  1.6038 -1.0775
  511MOL0     H68925   3.604   7.556   4.146  1.3181  0.9646  0.0581
  511MOL0     H68926   3.901   7.460   4.138  1.0756  1.7958  0.1486
  511MOL0     H68927   3.788   7.444   4.006 -0.4767  0.1298  0.3230
  511MOL0     H68928   3.897   7.635   3.944 -3.1004 -1.6638 -1.9056
  511MOL0     H68929   3.744   7.693   4.000  3.3884  3.7366 -2.3374
  511MOL0     H68930   3.840   7.784   4.199  1.5541  0.3981  1.5743
  511MOL0     H68931   3.966   7.678   4.212 -1.5760  0.0066  0.6105
  511MOL0     H68932   4.020   7.928   4.140 -3.2377 -0.3525  2.0925
  511MOL0     H68933   3.941   7.899   3.992  3.5103  1.8372 -0.9675
  511MOL0     H68934   4.152   7.876   3.926 -4.1260 -0.8044 -1.9168
  511MOL0     H68935   4.208   7.830   4.093  0.4027  1.8808 -2.1138
  511MOL0     H68936   4.162   7.569   4.166 -1.0347  2.6868 -0.6348
  511MOL0     H68937   4.159   7.278   4.100  2.5630 -2.1559 -0.2860
  511MOL0     H68938   4.124   7.238   3.929  1.1154 -1.1972  0.1301
  511MOL0     H68939   4.320   7.279   3.849  0.1203 -1.6726 -0.2135
  511MOL0     H68940   4.383   7.349   4.008  0.1168 -1.1548  2.8950
  511MOL0     H68941   4.304   7.058   3.970  1.1680 -1.6329  0.9455
  511MOL0     H68942   4.394   7.132   4.110  0.9775 -0.7183  0.4738
  511MOL0     H68943   4.582   7.154   3.975  0.9302  1.4545 -3.7892
  511MOL0     H68944   4.497   7.132   3.827 -3.0555  0.3663 -1.2502
  511MOL0     H68945   4.712   7.037   3.798  1.1755  0.6117  0.3355
  511MOL0     H68946   4.927   6.915   3.784  2.9977  2.7306  5.4660
  511MOL0     H68947   5.213   6.638   4.075 -0.3862  0.0927  2.4196
  511MOL0     H68948   5.384   6.491   4.136 -0.0961 -0.4837 -0.4041
  511MOL0     H68949   5.458   6.110   4.214  3.8376 -4.0328 -1.8154
  511MOL0     H68950   5.317   6.080   4.123 -0.7147 -0.1683  3.0032
  511MOL0     H68951   5.447   6.012   3.925 -1.0158  0.0047 -0.0117
  511MOL0     H68952   5.597   6.072   3.990  1.2032 -1.6894  1.5192
  511MOL0     H68953   5.578   5.918   4.195 -0.7168 -1.5332  0.3154
  511MOL0     H68954   5.468   5.828   4.098 -0.9143  0.7990  0.3662
  511MOL0     H68955   5.748   5.891   4.028 -0.3197 -0.8814  0.3230
  511MOL0     H68956   5.629   5.792   3.924  0.0890  3.1585 -0.3852
  511MOL0     H68957   5.614   5.629   4.082  0.2491 -0.7786 -1.8456
  511MOL0     H68958   5.732   5.711   4.191 -2.6069 -0.1064  0.5620
  511MOL0     H68959   5.771   5.599   3.905 -1.0471 -1.0194  0.7391
  511MOL0     H68960   5.869   5.731   3.945 -0.2898 -1.1796 -0.3078
  511MOL0     H68961   5.843   5.464   4.089 -0.6654 -0.0920 -1.0475
  511MOL0     H68962   5.923   5.597   4.164 -2.4298 -2.1684  1.2039
  511MOL0     H68963   5.997   5.484   3.884 -1.1286  0.4651 -0.1815
  511MOL0     H68964   6.074   5.622   3.958 -5.1766  3.0126  0.1049
  511MOL0     H68965   5.172   6.150   3.977  0.2842 -0.4768  4.1058
  511MOL0     H68966   5.006   6.299   3.885  0.0368 -0.9911  0.9692
  511MOL0     H68967   4.772   6.615   4.060 -0.1320  0.2699  1.7025
  511MOL0     H68968   4.560   6.750   4.071  1.6974 -1.3627  2.0974
  511MOL0     H68969   3.177   7.374   4.384  1.5813  1.1660 -2.0779
  511MOL0     H68970   3.047   7.488   4.581  1.5390 -0.8733  2.4620
  511MOL0     H68971   2.884   7.688   4.831  2.1789  1.3193 -1.9443
  511MOL0     H68972   2.761   7.697   5.072  0.6512 -1.7960  0.1657
  511MOL0     H68973   2.865   8.012   5.337 -3.0643 -0.8614  1.2748
  511MOL0     H68974   2.991   7.895   5.391 -1.1620 -0.8721  1.5165
  511MOL0     H68975   2.713   7.896   5.497 -0.4715 -0.3731  1.2730
  511MOL0     H68976   2.845   8.001   5.553 -0.7432  1.6114 -2.0690
  511MOL0     H68977   2.888   7.702   5.516  1.1145 -1.1064  1.4013
  511MOL0     H68978   2.803   7.767   5.663  0.3550  0.8472  1.6762
  511MOL0     H68979   3.054   7.927   5.638  0.0580 -1.2688 -2.3845
  511MOL0     H68980   2.957   7.865   5.770 -1.3847 -1.5050 -1.0205
  511MOL0     H68981   3.270   7.586   5.714  1.2841  1.1055  1.3247
  511MOL0     H68982   3.080   7.965   5.187 -0.6573  0.6927  0.7822
  511MOL0     H68983   3.274   7.857   4.905 -1.0011  1.7018 -2.1991
  511MOL0     H68984   3.249   8.032   4.949 -2.5928 -0.3285 -0.3241
  511MOL0     H68985   3.298   7.916   5.071 -0.6985 -3.5415  0.1701
  512MOL0     O68986   1.208   1.571   7.306  0.2822  0.6305 -0.0949
  512MOL0     C68987   1.317   1.547   7.356 -0.2527  0.6947  0.2340
  512MOL0     O68988   1.380   1.624   7.442  0.4100 -0.3198  0.3615
  512MOL0     C68989   1.318   1.720   7.508  0.6740  0.8335 -0.2548
  512MOL0     C68990   1.246   1.680   7.617  0.1874  0.0009 -0.1272
  512MOL0     C68991   1.186   1.777   7.696 -0.2668  0.0812 -0.2962
  512MOL0     C68992   1.203   1.914   7.675  0.4467 -0.5588 -0.4427
  512MOL0     O68993   1.149   2.023   7.747  0.4837 -0.9137  0.7662
  512MOL0     C68994   1.035   1.990   7.836 -0.0811  0.1919  0.1484
  512MOL0     C68995   0.971   2.103   7.920 -0.0567  0.5834  0.5376
  512MOL0     C68996   1.044   2.246   7.921 -0.5573  0.3388  0.4962
  512MOL0     C68997   1.188   2.224   7.981  0.1687 -0.0755  1.3201
  512MOL0     C68998   1.230   2.336   8.077  0.7049  0.2640  0.2766
  512MOL0     C68999   1.378   2.326   8.115 -0.0550 -0.8048 -0.1888
  512MOL0     C69000   1.443   2.439   8.189  0.3638 -1.0408 -0.5302
  512MOL0     C69001   1.519   2.392   8.312  0.2362  0.3558 -0.4881
  512MOL0     N69002   1.567   2.499   8.403  0.1085 -0.2276 -0.3834
  512MOL0     C69003   1.684   2.565   8.397  0.2088  0.4967  0.5377
  512MOL0     C69004   1.681   2.648   8.507 -0.8495  0.7374 -0.1440
  512MOL0     C69005   1.789   2.742   8.554  0.3030  1.0627  0.5641
  512MOL0     C69006   1.884   2.689   8.657 -0.2396 -0.0387  0.2942
  512MOL0     C69007   1.935   2.796   8.748 -0.0084  0.0543 -0.0351
  512MOL0     C69008   2.017   2.737   8.862  0.6592  0.2614  0.3290
  512MOL0     O69009   2.116   2.833   8.913  0.5161  0.0918 -0.1237
  512MOL0     C69010   2.169   2.776   9.032 -0.2248 -0.3793  0.9414
  512MOL0     C69011   2.292   2.716   9.017  0.4247 -0.3418 -1.1617
  512MOL0     C69012   2.354   2.666   9.142 -0.2807 -0.4343 -0.0681
  512MOL0     C69013   2.276   2.658   9.265  0.0174  0.3372 -0.0458
  512MOL0     C69014   2.329   2.584   9.389 -0.6923 -0.6291 -1.2697
  512MOL0     O69015   2.458   2.530   9.387  0.1355 -1.0078  0.3951
  512MOL0     C69016   2.539   2.512   9.497  0.0142  0.1669  0.5376
  512MOL0     C69017   2.654   2.420   9.487  0.6623 -0.8562  0.0071
  512MOL0     C69018   2.745   2.407   9.583  0.3603  0.3699 -0.2162
  512MOL0     C69019   2.735   2.477   9.707  0.0426  0.5226  0.0345
  512MOL0     O69020   2.837   2.454   9.792 -0.3959 -0.6095 -0.0624
  512MOL0     C69021   2.868   2.557   9.892 -0.3473 -0.3802 -0.7131
  512MOL0     C69022   2.976   2.642   9.840  0.1719  0.1526 -0.5741
  512MOL0     C69023   3.117   2.588   9.834  0.6749  0.5459  1.0422
  512MOL0     C69024   3.162   2.554   9.978 -0.7986 -0.7006  0.3838
  512MOL0     C69025   3.315   2.537   9.979  0.4058  0.8561  0.5759
  512MOL0     C69026   3.359   2.481  10.121  0.5639 -0.1533 -0.1392
  512MOL0     C69027   3.511   2.476  10.125 -0.4196 -0.5833  0.2492
  512MOL0     C69028   3.576   2.538  10.249  0.6723  0.1202  0.4108
  512MOL0    Cl69029   3.762   2.589  10.213 -0.1573 -0.1057  0.1276
  512MOL0     C69030   2.623   2.566   9.718 -0.8968  0.4141  0.1755
  512MOL0     C69031   2.536   2.586   9.609 -1.2521 -0.2926 -0.4710
  512MOL0     O69032   2.254   2.587   9.484 -0.0478 -0.3933 -0.2449
  512MOL0     C69033   2.151   2.720   9.269 -0.2074 -1.2008 -0.3917
  512MOL0     C69034   2.103   2.778   9.151 -0.5287 -0.0961 -1.3241
  512MOL0     N69035   1.560   2.627   8.573 -0.5243 -0.2958  0.5634
  512MOL0     N69036   1.490   2.542   8.504  0.0059 -0.2913 -0.7277
  512MOL0     C69037   1.300   1.950   7.577  0.2551 -0.2080  0.0311
  512MOL0     C69038   1.364   1.851   7.499 -0.1150 -0.5291 -0.2677
  512MOL0     C69039   1.401   1.434   7.302 -0.1851  0.5377 -0.2073
  512MOL0     C69040   1.510   1.392   7.387  0.1483  0.6129 -0.1686
  512MOL0     C69041   1.595   1.283   7.351  0.1646  0.1376 -0.5271
  512MOL0     C69042   1.568   1.213   7.232 -0.0496  0.3560 -0.2206
  512MOL0     O69043   1.635   1.099   7.190 -0.7410  0.2378  0.0001
  512MOL0     C69044   1.715   1.027   7.286 -0.0481 -0.1815  0.5446
  512MOL0     C69045   1.794   0.919   7.195 -0.7019  0.1085 -0.2415
  512MOL0     C69046   1.917   0.987   7.136 -0.0441 -0.1202  0.2437
  512MOL0     C69047   1.975   0.898   7.032 -0.7097  0.4679 -0.3540
  512MOL0     C69048   2.048   0.778   7.083  0.6406  0.0290 -0.7986
  512MOL0     C69049   2.119   0.687   7.120 -0.6286 -0.1754  0.3702
  512MOL0     C69050   1.470   1.251   7.139 -0.3896 -1.2936 -0.4043
  512MOL0     C69051   1.390   1.365   7.175  0.0415  0.0101  1.2499
  512MOL0     C69052   1.284   1.402   7.082 -0.0971 -0.5793  0.2834
  512MOL0     H69053   1.221   1.576   7.637 -1.4188  0.3725 -0.0375
  512MOL0     H69054   1.126   1.742   7.779 -1.0329  2.5178  0.2595
  512MOL0     H69055   0.954   1.939   7.784 -1.4922  0.0602  2.3533
  512MOL0     H69056   1.074   1.931   7.920 -1.9135  2.8218  3.0547
  512MOL0     H69057   0.958   2.059   8.019  2.1836 -2.0293 -0.1776
  512MOL0     H69058   0.868   2.121   7.890 -0.9000 -3.7808  0.2160
  512MOL0     H69059   0.978   2.310   7.980 -2.8478 -0.2198 -1.3302
  512MOL0     H69060   1.062   2.290   7.823 -2.2752 -2.2300 -1.0876
  512MOL0     H69061   1.186   2.130   8.035 -0.5252  1.2084  3.6571
  512MOL0     H69062   1.255   2.205   7.897 -0.5755  0.1444  0.6593
  512MOL0     H69063   1.223   2.434   8.029  1.7199 -0.0226 -0.4962
  512MOL0     H69064   1.169   2.334   8.167 -1.9005 -0.9776 -1.3790
  512MOL0     H69065   1.396   2.233   8.170 -0.1011 -0.5085  0.3314
  512MOL0     H69066   1.437   2.330   8.023  3.1437 -1.9442  1.6621
  512MOL0     H69067   1.361   2.504   8.221 -0.1767 -0.7966 -2.2990
  512MOL0     H69068   1.506   2.510   8.134 -1.1970  1.3209  0.5636
  512MOL0     H69069   1.451   2.325   8.366 -1.8849  1.8442 -1.1868
  512MOL0     H69070   1.605   2.328   8.292  0.1088 -0.6040  1.7816
  512MOL0     H69071   1.760   2.563   8.320 -0.2418 -1.0281  0.1106
  512MOL0     H69072   1.846   2.772   8.466  0.2805  3.7263  1.3742
  512MOL0     H69073   1.729   2.826   8.592 -0.2452  1.7585 -1.6459
  512MOL0     H69074   1.840   2.612   8.722  2.8544 -0.6062  1.8996
  512MOL0     H69075   1.962   2.629   8.609 -0.2850  0.5124 -0.4925
  512MOL0     H69076   1.854   2.855   8.792  1.2101 -0.8466  3.8190
  512MOL0     H69077   1.995   2.864   8.687 -0.6229  0.3748 -0.2954
  512MOL0     H69078   2.070   2.648   8.829  0.5389  0.2224  0.2426
  512MOL0     H69079   1.951   2.708   8.944  1.5114  0.7289  1.2132
  512MOL0     H69080   2.353   2.722   8.927  0.4771 -2.3965 -1.3149
  512MOL0     H69081   2.451   2.618   9.137  1.0970  1.9118  1.8858
  512MOL0     H69082   2.665   2.382   9.386 -2.4037  3.5171 -2.2847
  512MOL0     H69083   2.830   2.351   9.547 -2.2609 -3.3076 -1.2883
  512MOL0     H69084   2.780   2.621   9.902  0.1119  0.1292  0.2418
  512MOL0     H69085   2.899   2.524   9.992  1.8350  2.7605 -0.1990
  512MOL0     H69086   2.948   2.667   9.737  2.2643 -2.8183 -2.0152
  512MOL0     H69087   2.974   2.733   9.900 -0.8863 -0.7370  0.8260
  512MOL0     H69088   3.120   2.504   9.765  0.8785  1.0529  0.4239
  512MOL0     H69089   3.183   2.665   9.792  0.9858  0.1049  0.7219
  512MOL0     H69090   3.107   2.461   9.996 -2.5050 -0.4932 -3.0424
  512MOL0     H69091   3.134   2.623  10.058 -2.7486  0.2107 -1.0121
  512MOL0     H69092   3.357   2.637   9.966  2.4615 -0.2406 -2.1875
  512MOL0     H69093   3.354   2.487   9.890  0.5794 -0.9862  1.6398
  512MOL0     H69094   3.307   2.538  10.199 -4.0323 -1.7404 -1.7722
  512MOL0     H69095   3.321   2.379  10.127 -0.0252  0.1205  1.1227
  512MOL0     H69096   3.545   2.529  10.036  1.9135 -1.8502  0.3084
  512MOL0     H69097   3.550   2.378  10.097  5.3241  1.6865 -1.1671
  512MOL0     H69098   3.532   2.638  10.261  1.4920  0.8346 -1.9868
  512MOL0     H69099   3.572   2.475  10.338  1.5857  1.2289  1.2626
  512MOL0     H69100   2.608   2.633   9.802  0.3882 -1.9676  2.4403
  512MOL0     H69101   2.468   2.669   9.621 -0.9986 -0.1883  0.3048
  512MOL0     H69102   2.076   2.719   9.348 -0.4456  0.0803 -0.5870
  512MOL0     H69103   2.021   2.849   9.149  0.8970  1.6655 -4.7875
  512MOL0     H69104   1.324   2.054   7.556  0.3657  0.5774  3.5360
  512MOL0     H69105   1.438   1.878   7.425  1.4299 -4.7956 -0.5298
  512MOL0     H69106   1.532   1.446   7.478  1.9572  0.4757 -0.4776
  512MOL0     H69107   1.668   1.251   7.424 -0.4033  3.0753  1.5089
  512MOL0     H69108   1.647   0.966   7.347 -2.2579  1.6554  0.0324
  512MOL0     H69109   1.784   1.076   7.355  3.1266 -0.6042 -2.0877
  512MOL0     H69110   1.724   0.884   7.118 -1.5099  0.0501  0.5153
  512MOL0     H69111   1.818   0.833   7.258  2.5741 -1.0090 -2.6770
  512MOL0     H69112   1.999   1.004   7.206  4.1953 -2.3464 -3.6212
  512MOL0     H69113   1.907   1.068   7.064  2.0871  0.2163  0.2696
  512MOL0     H69114   1.892   0.873   6.966 -0.6335 -1.7031  0.2879
  512MOL0     H69115   2.049   0.944   6.967  1.9811 -2.7298  0.1284
  512MOL0     H69116   2.179   0.609   7.162  0.9025  0.0896 -1.2090
  512MOL0     H69117   1.461   1.206   7.041  1.3616 -0.1644 -1.1191
  512MOL0     H69118   1.291   1.506   7.051 -4.6137  1.1155  3.8295
  512MOL0     H69119   1.277   1.335   6.996 -0.8253  2.2520 -1.9837
  512MOL0     H69120   1.188   1.388   7.133 -0.0699 -1.4484  0.1163
  513MOL0     O69121   7.600   4.970   8.110  0.4945 -0.4961  0.0932
  513MOL0     C69122   7.485   4.949   8.150 -0.7136  0.1340 -0.4550
  513MOL0     O69123   7.442   4.957   8.282 -0.2185 -0.5757 -0.1280
  513MOL0     C69124   7.518   5.009   8.384  0.5389  0.4028  0.2262
  513MOL0     C69125   7.504   4.938   8.505 -0.0737 -0.6947 -0.2998
  513MOL0     C69126   7.567   4.987   8.619 -0.3761  0.0942  0.6852
  513MOL0     C69127   7.638   5.108   8.619 -0.4411  0.8724  0.2741
  513MOL0     O69128   7.683   5.161   8.739 -0.2462 -0.3953  0.1506
  513MOL0     C69129   7.631   5.291   8.780  0.3218 -0.2246 -0.1956
  513MOL0     C69130   7.481   5.287   8.794  0.1335 -0.3912  0.1932
  513MOL0     C69131   7.440   5.413   8.860 -0.6474 -0.3247 -0.2460
  513MOL0     C69132   7.291   5.398   8.887 -0.8799  0.5688 -0.2955
  513MOL0     C69133   7.223   5.520   8.934  0.4000 -1.1916 -0.9325
  513MOL0     C69134   7.075   5.484   8.955  0.8499 -0.0794  0.6542
  513MOL0     C69135   7.010   5.604   9.022 -0.4639  0.3271 -0.0579
  513MOL0     C69136   6.870   5.645   8.967 -0.8538  0.4654  0.0614
  513MOL0     N69137   6.763   5.553   9.012  0.1206 -0.0057 -0.5008
  513MOL0     C69138   6.721   5.534   9.135 -0.2370 -0.0548 -1.0581
  513MOL0     C69139   6.605   5.455   9.132  0.7555  0.2055 -1.0896
  513MOL0     C69140   6.518   5.425   9.256 -1.1794 -0.6487 -0.3651
  513MOL0     C69141   6.454   5.555   9.306  0.1676 -0.5197 -0.8893
  513MOL0     C69142   6.529   5.631   9.409 -0.1309 -0.0455  0.0622
  513MOL0     C69143   6.423   5.728   9.478  0.1580  1.1676 -0.4876
  513MOL0     O69144   6.334   5.635   9.549  0.0919 -0.3634 -0.5176
  513MOL0     C69145   6.254   5.699   9.650  0.1517  1.3472 -0.3465
  513MOL0     C69146   6.233   5.839   9.665  0.3003  0.4828  0.1483
  513MOL0     C69147   6.153   5.885   9.770  0.2403  0.0100 -0.2692
  513MOL0     C69148   6.085   5.798   9.854  0.5974  0.2945  1.0039
  513MOL0     C69149   5.987   5.850   9.955  0.2212 -0.8096 -1.0085
  513MOL0     O69150   5.934   5.977   9.944  0.5074  0.0567  0.4229
  513MOL0     C69151   5.863   6.044  10.043 -0.3069  0.4512  0.2468
  513MOL0     C69152   5.857   6.016  10.180  1.5652  0.6693 -0.3565
  513MOL0     C69153   5.799   6.118  10.262  1.2606 -0.0392  0.7500
  513MOL0     C69154   5.728   6.220  10.200  0.3869 -0.0798 -0.7566
  513MOL0     O69155   5.660   6.289  10.295 -0.0355 -0.3577 -0.6281
  513MOL0     C69156   5.732   6.378  10.382 -1.1659  0.3687 -0.8384
  513MOL0     C69157   5.811   6.476  10.302  0.0686 -0.4410 -0.1615
  513MOL0     C69158   5.840   6.604  10.393 -0.9432 -0.1533 -0.8224
  513MOL0     C69159   5.929   6.691  10.312 -0.2961  0.2733  0.7996
  513MOL0     C69160   6.001   6.794  10.396 -1.0288  0.1363  0.6255
  513MOL0     C69161   6.039   6.924  10.324  1.2156  0.5078  0.1516
  513MOL0     C69162   6.123   6.893  10.202  0.1979  0.0291  0.1977
  513MOL0     C69163   6.268   6.842  10.222  0.0338  0.4108  0.2614
  513MOL0    Cl69164   6.363   6.954  10.333  0.3624 -0.1658 -0.0516
  513MOL0     C69165   5.729   6.246  10.063  0.0347 -0.7494 -0.0359
  513MOL0     C69166   5.801   6.161   9.989 -0.0584  0.7505 -0.2807
  513MOL0     O69167   5.965   5.765  10.041  0.0429  0.3081  0.1472
  513MOL0     C69168   6.098   5.660   9.836  0.0833 -0.8735  0.5988
  513MOL0     C69169   6.190   5.613   9.736 -0.2555  0.2980 -0.3809
  513MOL0     N69170   6.602   5.419   8.997 -0.3895  0.5709  0.5385
  513MOL0     N69171   6.693   5.479   8.932  1.2892  0.7252 -0.5336
  513MOL0     C69172   7.651   5.170   8.492 -1.3209 -0.1235 -0.3932
  513MOL0     C69173   7.597   5.120   8.372  0.6046 -0.7025  0.4613
  513MOL0     C69174   7.391   4.896   8.045 -0.4773 -0.3088 -0.2217
  513MOL0     C69175   7.261   4.862   8.084  0.4700 -0.0483  0.1356
  513MOL0     C69176   7.165   4.810   7.990  0.0101  0.0103 -1.4966
  513MOL0     C69177   7.194   4.803   7.860 -0.4533  0.1985 -0.1752
  513MOL0     O69178   7.090   4.771   7.780 -0.1587 -0.1473  0.6988
  513MOL0     C69179   7.103   4.742   7.639 -0.3824  0.2418 -0.0818
  513MOL0     C69180   6.975   4.678   7.585  0.2148  0.1799 -0.2081
  513MOL0     C69181   6.852   4.763   7.586 -1.2076  0.0992  0.9000
  513MOL0     C69182   6.753   4.709   7.488 -0.5218  0.7159  0.6427
  513MOL0     C69183   6.775   4.728   7.348  0.2256 -0.4115  0.2696
  513MOL0     C69184   6.794   4.733   7.225 -0.1468 -0.9554  0.2841
  513MOL0     C69185   7.322   4.850   7.815 -0.0592  0.2925 -0.6113
  513MOL0     C69186   7.417   4.896   7.906  0.4108  1.3539  0.2466
  513MOL0     C69187   7.543   4.936   7.837 -0.4572 -0.5521  0.3089
  513MOL0     H69188   7.446   4.849   8.525 -1.6276  0.6257  1.5483
  513MOL0     H69189   7.549   4.938   8.714 -3.1857  0.8126  0.6178
  513MOL0     H69190   7.676   5.308   8.878  0.4592 -4.6868  0.7165
  513MOL0     H69191   7.653   5.378   8.717  1.0337  0.9535  1.6198
  513MOL0     H69192   7.445   5.198   8.846 -0.1120 -1.0068 -0.9920
  513MOL0     H69193   7.439   5.273   8.694  0.2571 -0.6350  0.1736
  513MOL0     H69194   7.454   5.498   8.792 -1.4155 -2.1738 -2.8483
  513MOL0     H69195   7.485   5.436   8.957  0.5729  2.0242 -1.2762
  513MOL0     H69196   7.250   5.369   8.790  0.5319  0.4079 -0.8503
  513MOL0     H69197   7.271   5.317   8.958  2.0107  0.1807  0.1612
  513MOL0     H69198   7.277   5.550   9.025 -2.6403 -1.4491  1.1090
  513MOL0     H69199   7.233   5.584   8.846 -1.0228 -0.7299 -0.7909
  513MOL0     H69200   7.022   5.471   8.860 -0.8325 -1.7614  1.7501
  513MOL0     H69201   7.068   5.393   9.016  0.6933  1.1200  2.4878
  513MOL0     H69202   7.074   5.692   9.016 -0.3358  0.3233  1.0185
  513MOL0     H69203   7.003   5.589   9.131 -4.2511 -1.9203 -0.4184
  513MOL0     H69204   6.849   5.748   8.998  0.0127  0.6039  0.2306
  513MOL0     H69205   6.873   5.646   8.858  2.2184  0.4426  0.0647
  513MOL0     H69206   6.763   5.561   9.231 -0.3628 -0.7679 -0.7976
  513MOL0     H69207   6.442   5.352   9.225 -1.1930 -0.7024 -0.2030
  513MOL0     H69208   6.584   5.382   9.332 -0.3345  3.7836  1.7418
  513MOL0     H69209   6.439   5.624   9.222 -1.3817  1.0553  0.5935
  513MOL0     H69210   6.361   5.514   9.347  0.3930  0.1920  0.3929
  513MOL0     H69211   6.616   5.679   9.362  0.4145 -1.7439 -0.7551
  513MOL0     H69212   6.574   5.569   9.487 -2.7309 -4.1256 -1.3403
  513MOL0     H69213   6.365   5.792   9.411 -1.5890  2.2712  1.9076
  513MOL0     H69214   6.485   5.790   9.543 -0.8077  1.9719 -0.3104
  513MOL0     H69215   6.271   5.893   9.579  2.8737 -2.2527 -0.5880
  513MOL0     H69216   6.129   5.989   9.790 -1.2079 -0.4424  0.5255
  513MOL0     H69217   5.912   5.937  10.229  0.9071 -0.3996 -1.2860
  513MOL0     H69218   5.799   6.121  10.371 -1.4252  0.9412  0.8031
  513MOL0     H69219   5.660   6.433  10.444 -1.6521 -1.3258  0.1479
  513MOL0     H69220   5.794   6.323  10.453 -3.3177  1.5959  2.1961
  513MOL0     H69221   5.904   6.426  10.274 -0.7594 -0.6663 -2.7829
  513MOL0     H69222   5.764   6.511  10.210 -4.0267 -0.0281  1.8788
  513MOL0     H69223   5.747   6.656  10.419 -1.5635 -2.7116  2.9572
  513MOL0     H69224   5.898   6.582  10.483 -1.7926  0.9686  0.0389
  513MOL0     H69225   5.872   6.729  10.226  1.0154 -2.2835 -1.3688
  513MOL0     H69226   6.013   6.640  10.263  2.4261  4.0533  1.0711
  513MOL0     H69227   6.090   6.748  10.441 -0.5230 -0.4090 -0.8837
  513MOL0     H69228   5.935   6.829  10.476 -0.0294  0.8877  1.1509
  513MOL0     H69229   5.944   6.967  10.293  1.2280 -1.1090 -2.4155
  513MOL0     H69230   6.101   6.990  10.385  1.7220  0.9841 -0.8518
  513MOL0     H69231   6.133   6.987  10.146 -0.9061 -1.8646 -3.5253
  513MOL0     H69232   6.057   6.845  10.129 -0.0286  1.1102 -0.3420
  513MOL0     H69233   6.256   6.743  10.266  0.5218 -0.0506 -0.6177
  513MOL0     H69234   6.311   6.825  10.123  0.3751  0.3034  0.4257
  513MOL0     H69235   5.674   6.325  10.014  2.3257  0.1572 -1.3234
  513MOL0     H69236   5.793   6.157   9.881 -4.3923 -0.4087 -0.0980
  513MOL0     H69237   6.052   5.591   9.907  1.6739 -0.6792  1.8733
  513MOL0     H69238   6.212   5.507   9.730 -0.3218  0.3480 -2.9520
  513MOL0     H69239   7.703   5.265   8.488  0.0969 -0.8715 -0.2418
  513MOL0     H69240   7.604   5.169   8.276 -1.0927 -1.4346 -0.0707
  513MOL0     H69241   7.223   4.855   8.186 -2.6649 -3.2709 -1.0301
  513MOL0     H69242   7.062   4.783   8.012  1.1453 -2.0134  2.2205
  513MOL0     H69243   7.192   4.679   7.633 -0.9163 -0.4585 -0.7347
  513MOL0     H69244   7.115   4.837   7.585 -2.0777  1.1422  1.0388
  513MOL0     H69245   6.940   4.598   7.651  1.2785  0.6176  0.9260
  513MOL0     H69246   7.006   4.644   7.485  0.0882 -0.1890 -0.1237
  513MOL0     H69247   6.883   4.864   7.556 -0.4200 -0.6696 -0.9811
  513MOL0     H69248   6.793   4.770   7.678 -0.9253  1.4874  1.0052
  513MOL0     H69249   6.729   4.604   7.502  1.9445 -0.4704 -2.7020
  513MOL0     H69250   6.651   4.746   7.507 -1.1403 -0.8966  0.5931
  513MOL0     H69251   6.834   4.750   7.127 -0.0573  1.0928  0.6438
  513MOL0     H69252   7.363   4.844   7.715  1.0967 -2.9075 -0.0457
  513MOL0     H69253   7.582   5.032   7.872 -0.7305 -1.3048  2.8216
  513MOL0     H69254   7.613   4.858   7.869  1.1463  1.2786  1.5142
  513MOL0     H69255   7.542   4.946   7.728  2.3925 -1.1552  0.1483
  514MOL0     O69256  10.273   4.454   2.923 -0.6805 -0.1233 -0.6336
  514MOL0     C69257  10.336   4.554   2.956  0.5644  0.0038 -0.4855
  514MOL0     O69258  10.404   4.629   2.868  0.1840  0.2134 -0.4255
  514MOL0     C69259  10.392   4.613   2.733 -0.8729  0.8097 -0.4220
  514MOL0     C69260  10.398   4.719   2.650 -0.4356 -0.4736  0.2872
  514MOL0     C69261  10.387   4.702   2.503 -0.0060  0.1194 -0.0156
  514MOL0     C69262  10.404   4.572   2.451  1.0089  0.3188 -0.3881
  514MOL0     O69263  10.384   4.566   2.318  0.0010  0.2448  0.0968
  514MOL0     C69264  10.258   4.525   2.278  0.1820  0.3609 -0.0850
  514MOL0     C69265  10.266   4.405   2.181  0.2157  0.2460 -0.4400
  514MOL0     C69266  10.350   4.288   2.222  0.2405  0.2943 -0.3224
  514MOL0     C69267  10.296   4.176   2.132 -0.1066 -0.2347 -1.0194
  514MOL0     C69268  10.396   4.074   2.071 -0.3110  0.3084  0.3892
  514MOL0     C69269  10.521   4.040   2.160  0.4392 -0.7706 -0.2453
  514MOL0     C69270  10.487   3.992   2.304  0.4457 -0.6473 -0.2417
  514MOL0     C69271  10.618   3.983   2.380 -0.5319 -0.1219 -0.1902
  514MOL0     N69272  10.695   3.868   2.335  0.3939  0.1330  0.5309
  514MOL0     C69273  10.779   3.861   2.226  0.5162 -0.1964 -0.0836
  514MOL0     C69274  10.818   3.733   2.226 -0.1677  0.0394  1.0935
  514MOL0     C69275  10.910   3.667   2.132 -0.1932  0.1023 -0.5260
  514MOL0     C69276  10.889   3.688   1.983  0.0549  0.1350 -0.1859
  514MOL0     C69277  10.754   3.621   1.932  0.3404  0.2859  0.2333
  514MOL0     C69278  10.698   3.655   1.792 -0.6117  0.0835  0.0425
  514MOL0     O69279  10.659   3.790   1.774 -0.4383 -1.0956 -1.2306
  514MOL0     C69280  10.713   3.872   1.676 -0.2410  0.1242  0.5781
  514MOL0     C69281  10.807   3.832   1.582  0.8932 -0.1686 -0.5435
  514MOL0     C69282  10.828   3.913   1.472  0.2540  0.1805  0.8467
  514MOL0     C69283  10.772   4.045   1.462 -0.6373 -0.2571 -0.1917
  514MOL0     C69284  10.818   4.133   1.350 -0.1193  1.1949  0.4975
  514MOL0     O69285  10.883   4.079   1.239 -0.1680 -0.3580 -0.2982
  514MOL0     C69286  10.927   4.171   1.145 -0.1004  0.3633 -0.1092
  514MOL0     C69287  10.860   4.186   1.030  0.1849  0.4652  0.7221
  514MOL0     C69288  10.892   4.276   0.926 -0.0196  0.2847 -0.5218
  514MOL0     C69289  10.982   4.373   0.958 -0.2434 -0.2086 -0.4203
  514MOL0     O69290  11.003   4.470   0.867  0.4522 -0.4061 -0.0248
  514MOL0     C69291  10.956   4.596   0.919  0.4798 -0.1300  0.2222
  514MOL0     C69292  10.898   4.695   0.818 -0.0925  0.2765  0.1686
  514MOL0     C69293  10.891   4.838   0.874 -0.7578 -0.3581  0.9266
  514MOL0     C69294  10.861   4.946   0.769 -0.2409 -0.0943 -0.3829
  514MOL0     C69295  10.844   5.086   0.822  0.4786 -1.3746 -0.1544
  514MOL0     C69296  10.840   5.207   0.712 -1.4111  0.6521 -0.0594
  514MOL0     C69297  10.803   5.343   0.766  0.5345  0.8215 -0.0516
  514MOL0     C69298  10.924   5.421   0.828  0.2823 -0.4718  0.4453
  514MOL0    Cl69299  11.024   5.491   0.695 -0.5596 -0.0074 -0.0546
  514MOL0     C69300  11.054   4.369   1.081  0.5281 -0.3818  0.2460
  514MOL0     C69301  11.030   4.259   1.173 -0.7126  0.2876  0.7686
  514MOL0     O69302  10.808   4.249   1.366 -0.2033 -0.1501 -0.2560
  514MOL0     C69303  10.691   4.092   1.566  0.1264 -0.2330  0.1454
  514MOL0     C69304  10.654   4.004   1.672 -0.4104 -0.7565  0.8222
  514MOL0     N69305  10.773   3.677   2.342  0.0020 -0.3058  0.1905
  514MOL0     N69306  10.686   3.751   2.401 -0.5162  0.0481  0.1690
  514MOL0     C69307  10.435   4.468   2.539 -0.1522  0.4096 -0.2769
  514MOL0     C69308  10.424   4.491   2.675 -0.4015  0.9088  0.6306
  514MOL0     C69309  10.364   4.570   3.100  0.3633  0.2636 -0.9687
  514MOL0     C69310  10.425   4.462   3.169  0.2305 -0.2631 -0.1585
  514MOL0     C69311  10.481   4.487   3.303  0.3109  0.4935  0.2916
  514MOL0     C69312  10.484   4.615   3.356  0.8155  0.3892 -0.5225
  514MOL0     O69313  10.537   4.631   3.485 -0.1826 -0.0879  0.0120
  514MOL0     C69314  10.522   4.746   3.567  0.4173 -0.1672  0.2425
  514MOL0     C69315  10.598   4.726   3.701  0.4039 -0.1085 -0.0571
  514MOL0     C69316  10.608   4.851   3.780 -0.3935  0.6458  0.8744
  514MOL0     C69317  10.701   4.836   3.901 -1.0446  0.2172  0.0624
  514MOL0     C69318  10.842   4.819   3.860 -0.1011 -0.3354 -0.0348
  514MOL0     C69319  10.954   4.797   3.808  0.9731 -0.2725 -0.0985
  514MOL0     C69320  10.420   4.724   3.288 -0.6017  0.6952  0.0273
  514MOL0     C69321  10.355   4.698   3.172  0.2597  0.1030  0.6399
  514MOL0     C69322  10.306   4.819   3.093 -0.2424 -0.3475  0.1277
  514MOL0     H69323  10.422   4.815   2.693  0.1343 -1.0558  1.3005
  514MOL0     H69324  10.379   4.787   2.436  0.7135  0.1251 -0.1078
  514MOL0     H69325  10.186   4.487   2.351 -0.8460 -3.5543 -2.8427
  514MOL0     H69326  10.211   4.611   2.228  2.2114  0.9721 -1.0416
  514MOL0     H69327  10.308   4.441   2.086 -0.2803  0.5571 -0.5431
  514MOL0     H69328  10.163   4.374   2.164 -0.0715  0.8981  0.0240
  514MOL0     H69329  10.349   4.254   2.326  0.0168 -1.7559 -0.9449
  514MOL0     H69330  10.453   4.291   2.185  1.6859 -7.7539  1.2704
  514MOL0     H69331  10.243   4.112   2.203  2.9636 -1.6439  0.2027
  514MOL0     H69332  10.225   4.216   2.059 -2.1219 -1.7589  0.0302
  514MOL0     H69333  10.346   3.985   2.030  3.4846 -1.3246 -1.1961
  514MOL0     H69334  10.433   4.122   1.980 -0.5502 -2.1314 -1.0842
  514MOL0     H69335  10.578   3.965   2.106  3.8838  1.2738  0.2268
  514MOL0     H69336  10.575   4.135   2.162 -1.6057  0.4923 -1.3500
  514MOL0     H69337  10.435   3.896   2.300 -1.5378  0.0922  3.3481
  514MOL0     H69338  10.414   4.055   2.358  2.5874  0.8725  1.0359
  514MOL0     H69339  10.674   4.075   2.363  2.7139 -1.9996 -0.5702
  514MOL0     H69340  10.597   3.981   2.487  0.3008  0.2084 -0.0144
  514MOL0     H69341  10.793   3.943   2.157 -0.3974  0.2846  0.2773
  514MOL0     H69342  11.010   3.706   2.155  0.1094 -1.4456  1.0273
  514MOL0     H69343  10.915   3.559   2.152 -2.4830  0.3663  2.1533
  514MOL0     H69344  10.902   3.793   1.954 -2.6836 -0.4935 -4.5686
  514MOL0     H69345  10.968   3.636   1.928 -0.7811 -0.9779 -0.3660
  514MOL0     H69346  10.678   3.633   2.009  0.2725  0.6657  0.1099
  514MOL0     H69347  10.759   3.512   1.935  0.1266  0.2298 -0.8615
  514MOL0     H69348  10.610   3.596   1.767 -0.9757  0.6251  0.0095
  514MOL0     H69349  10.778   3.624   1.724 -0.0300 -3.1749  2.0370
  514MOL0     H69350  10.869   3.745   1.598 -0.0123 -0.6033  0.7677
  514MOL0     H69351  10.910   3.880   1.409  0.6732 -0.4071  1.6797
  514MOL0     H69352  10.785   4.107   1.026  0.5767  0.0015  1.9656
  514MOL0     H69353  10.839   4.276   0.831  0.1379 -3.2760 -0.7572
  514MOL0     H69354  10.878   4.593   0.997 -1.5337  1.1666 -1.6243
  514MOL0     H69355  11.042   4.645   0.966  1.6241 -1.7105 -0.1384
  514MOL0     H69356  10.960   4.699   0.728 -1.4808  4.3556 -0.8034
  514MOL0     H69357  10.809   4.649   0.774 -0.0013 -0.3215  0.5960
  514MOL0     H69358  10.821   4.849   0.957 -1.1494  1.0264  0.4353
  514MOL0     H69359  10.990   4.864   0.914 -0.7216  1.2930 -0.1576
  514MOL0     H69360  10.774   4.914   0.712  1.5013 -2.1761 -2.0417
  514MOL0     H69361  10.943   4.964   0.699 -1.0939  2.0646 -0.9422
  514MOL0     H69362  10.941   5.106   0.868 -0.8359  1.3737  1.6521
  514MOL0     H69363  10.755   5.091   0.885 -1.2681 -3.2888 -2.2774
  514MOL0     H69364  10.937   5.201   0.662 -2.1024 -1.3324 -1.2681
  514MOL0     H69365  10.768   5.170   0.638 -1.4282  0.1335  0.2102
  514MOL0     H69366  10.719   5.343   0.836 -0.0189 -1.7332 -0.6132
  514MOL0     H69367  10.753   5.388   0.680 -1.2814 -2.7908 -1.1086
  514MOL0     H69368  10.891   5.517   0.869 -2.2438  0.9511 -4.2028
  514MOL0     H69369  10.979   5.372   0.909  0.1717 -0.0815  0.7605
  514MOL0     H69370  11.126   4.446   1.105 -1.7724  2.1960 -0.6058
  514MOL0     H69371  11.087   4.254   1.265  1.4003  1.2627 -0.4286
  514MOL0     H69372  10.654   4.194   1.561  0.7328 -0.0643 -1.1522
  514MOL0     H69373  10.587   4.035   1.751 -1.2417  0.3625 -0.2720
  514MOL0     H69374  10.445   4.365   2.506 -0.2541  0.7402 -1.3614
  514MOL0     H69375  10.462   4.417   2.744  0.2380 -0.1503 -0.8154
  514MOL0     H69376  10.443   4.367   3.120  0.0980 -1.2662  1.6636
  514MOL0     H69377  10.527   4.401   3.351 -1.3407 -1.6101 -1.6435
  514MOL0     H69378  10.416   4.765   3.586 -0.4888 -1.4761 -2.8684
  514MOL0     H69379  10.566   4.835   3.522 -0.2382  0.2747  0.4539
  514MOL0     H69380  10.700   4.694   3.677  0.4225 -1.5549  1.7414
  514MOL0     H69381  10.533   4.655   3.752 -0.0847  1.2652  1.2828
  514MOL0     H69382  10.509   4.882   3.815 -0.0492  1.1755  1.3871
  514MOL0     H69383  10.657   4.928   3.719  0.6766 -2.2946 -2.3230
  514MOL0     H69384  10.694   4.916   3.976  0.5338 -1.6437  2.3565
  514MOL0     H69385  10.671   4.741   3.946  0.5429 -0.6724 -0.7088
  514MOL0     H69386  11.049   4.777   3.763  0.3614  3.1363 -3.4669
  514MOL0     H69387  10.421   4.826   3.326 -0.5522  0.6755  0.0785
  514MOL0     H69388  10.253   4.790   3.001 -1.5397 -1.5807  1.2192
  514MOL0     H69389  10.239   4.880   3.154  1.8501  0.0749  2.1510
  514MOL0     H69390  10.398   4.876   3.080 -0.0680 -0.6883 -0.1788
  515MOL0     O69391  10.349  10.404   6.186  0.1671 -0.1208  0.9671
  515MOL0     C69392  10.365  10.391   6.305  0.0495  0.6133  0.4188
  515MOL0     O69393  10.263  10.382   6.404 -0.1984  0.3471  0.2372
  515MOL0     C69394  10.132  10.389   6.357  1.0076  0.1366 -0.2717
  515MOL0     C69395  10.041  10.479   6.422 -0.0354 -0.1911 -0.3480
  515MOL0     C69396   9.906  10.479   6.390  0.4515 -0.3355  0.4718
  515MOL0     C69397   9.849  10.397   6.293 -0.2842  0.0664  0.2725
  515MOL0     O69398   9.719  10.415   6.256 -0.4527 -0.9546  0.3916
  515MOL0     C69399   9.638  10.305   6.286  0.8624  0.5761  0.6241
  515MOL0     C69400   9.498  10.308   6.232  0.1503  0.4009 -0.7350
  515MOL0     C69401   9.404  10.397   6.310  0.1327 -0.3885 -1.1363
  515MOL0     C69402   9.455  10.537   6.318 -0.6619 -0.5984 -0.3949
  515MOL0     C69403   9.356  10.616   6.404  0.7918 -0.2187  0.0995
  515MOL0     C69404   9.412  10.750   6.464 -1.6082 -0.1899  0.5059
  515MOL0     C69405   9.328  10.815   6.579  0.3448  0.3225  0.4913
  515MOL0     C69406   9.189  10.888   6.537 -1.1636  0.5163 -0.3998
  515MOL0     N69407   9.099  10.879   6.645  0.0329  0.0156 -0.4233
  515MOL0     C69408   9.120  10.933   6.773 -0.5969  1.0345  0.2368
  515MOL0     C69409   8.998  10.935   6.830  0.5805 -0.1103  0.3780
  515MOL0     C69410   8.950  11.002   6.953 -0.8382 -0.3810 -0.6750
  515MOL0     C69411   8.820  10.946   7.014 -0.4157 -0.2738  0.5027
  515MOL0     C69412   8.776  11.001   7.149  0.7281  0.2394  0.3238
  515MOL0     C69413   8.798  11.147   7.170  0.3284  0.1716 -0.6704
  515MOL0     O69414   8.741  11.232   7.059 -0.5069  0.3695 -1.1903
  515MOL0     C69415   8.607  11.260   7.051  0.6445 -0.2612 -0.2501
  515MOL0     C69416   8.525  11.244   7.168  0.3059 -0.4216  0.9671
  515MOL0     C69417   8.381  11.244   7.155 -0.0577 -0.1756  0.2826
  515MOL0     C69418   8.314  11.283   7.030  0.3765  0.9222 -0.1507
  515MOL0     C69419   8.171  11.310   7.032  0.4770 -0.4061  0.3530
  515MOL0     O69420   8.119  11.312   6.909  0.2787  0.5671 -0.7462
  515MOL0     C69421   7.982  11.321   6.889  0.2598 -0.7779  0.2768
  515MOL0     C69422   7.934  11.401   6.782 -0.3850  0.2671  0.2504
  515MOL0     C69423   7.797  11.414   6.755 -0.4347 -1.0139  0.0769
  515MOL0     C69424   7.701  11.339   6.823 -0.5151  0.6116 -0.0194
  515MOL0     O69425   7.564  11.350   6.809 -0.1102  0.1426  0.8195
  515MOL0     C69426   7.526  11.445   6.706 -0.1415  0.4409 -0.6285
  515MOL0     C69427   7.376  11.458   6.710  0.0182 -0.2244  0.4011
  515MOL0     C69428   7.334  11.554   6.592  0.6599  0.0730  0.0657
  515MOL0     C69429   7.176  11.573   6.592 -0.5346 -0.2571 -0.3176
  515MOL0     C69430   7.136  11.626   6.457 -0.0253  0.2244  0.6108
  515MOL0     C69431   7.053  11.523   6.373 -0.3095  0.0440  0.6411
  515MOL0     C69432   6.998  11.589   6.251 -0.4874  0.3157  0.6917
  515MOL0     C69433   6.920  11.489   6.162  0.3041  0.5445 -1.2704
  515MOL0    Cl69434   6.796  11.393   6.254 -0.3160 -0.2200  0.2976
  515MOL0     C69435   7.742  11.256   6.920 -0.4380  1.0084 -0.5476
  515MOL0     C69436   7.878  11.241   6.950 -0.0241 -0.6577  0.1053
  515MOL0     O69437   8.114  11.329   7.139  1.1075 -0.1945 -0.1687
  515MOL0     C69438   8.399  11.289   6.918  0.4804 -0.3673 -0.7570
  515MOL0     C69439   8.542  11.278   6.935 -0.4593 -0.0493  0.1699
  515MOL0     N69440   8.905  10.879   6.745  0.7685  0.2778  0.4582
  515MOL0     N69441   8.966  10.844   6.635  0.1370  0.3309 -0.3203
  515MOL0     C69442   9.945  10.320   6.222  0.3402  0.2921  0.3905
  515MOL0     C69443  10.079  10.308   6.249  0.7151  0.1199  0.2213
  515MOL0     C69444  10.508  10.391   6.359  0.8668  0.3396  0.5184
  515MOL0     C69445  10.549  10.482   6.452  0.7266 -0.2331  0.4920
  515MOL0     C69446  10.682  10.488   6.486  0.2209 -0.0325  0.7934
  515MOL0     C69447  10.771  10.392   6.434 -0.4648 -0.1889  0.0000
  515MOL0     O69448  10.902  10.379   6.468 -0.3165  0.2341  0.5247
  515MOL0     C69449  10.961  10.489   6.556  0.0567  0.2444 -0.5008
  515MOL0     C69450  11.102  10.444   6.591  1.3913 -0.0711  0.1941
  515MOL0     C69451  11.203  10.556   6.625 -1.4018  1.0486  0.4996
  515MOL0     C69452  11.252  10.661   6.511 -0.0049 -0.7903  0.4902
  515MOL0     C69453  11.318  10.579   6.397  0.8088 -0.1624 -0.0560
  515MOL0     C69454  11.360  10.527   6.296 -0.6907  0.0185 -1.1391
  515MOL0     C69455  10.724  10.301   6.349  0.2533 -0.3979  0.1097
  515MOL0     C69456  10.597  10.293   6.305 -0.2429  0.4782  0.8614
  515MOL0     C69457  10.562  10.179   6.209 -0.2194 -0.5241 -0.4005
  515MOL0     H69458  10.090  10.542   6.496 -2.4369  2.0236 -0.5016
  515MOL0     H69459   9.834  10.525   6.457  0.0795 -1.4667  0.8645
  515MOL0     H69460   9.690  10.212   6.263  1.8770  0.7064  2.2065
  515MOL0     H69461   9.632  10.308   6.395 -0.5028  0.1407  0.5875
  515MOL0     H69462   9.464  10.204   6.242  1.5781  0.0161  0.5490
  515MOL0     H69463   9.510  10.340   6.128  2.1111  0.8125 -0.4137
  515MOL0     H69464   9.382  10.366   6.412  0.8757  1.0045 -0.5238
  515MOL0     H69465   9.314  10.397   6.248 -1.1182  1.5396  0.5740
  515MOL0     H69466   9.549  10.551   6.372  0.4403 -2.4967 -1.7234
  515MOL0     H69467   9.457  10.590   6.222  1.2895 -1.5926 -0.9621
  515MOL0     H69468   9.267  10.623   6.342  1.3421 -0.9584 -0.8234
  515MOL0     H69469   9.318  10.547   6.480 -1.4459 -1.3437 -1.9062
  515MOL0     H69470   9.514  10.730   6.497 -0.7738  2.0993 -0.5114
  515MOL0     H69471   9.431  10.824   6.386  0.7490 -1.7795 -0.5483
  515MOL0     H69472   9.395  10.893   6.618  1.2586  0.1857 -0.7327
  515MOL0     H69473   9.302  10.740   6.653 -2.5697  0.5101 -0.2298
  515MOL0     H69474   9.208  10.992   6.509  1.2804  0.0787 -0.5625
  515MOL0     H69475   9.143  10.841   6.450 -0.3639 -0.9621 -0.0604
  515MOL0     H69476   9.214  10.969   6.813 -0.1177 -2.3054  2.5253
  515MOL0     H69477   9.028  10.976   7.026 -1.0403 -1.6847 -0.9007
  515MOL0     H69478   8.939  11.108   6.928 -0.7711 -0.3404 -0.5380
  515MOL0     H69479   8.739  10.969   6.943 -1.4052 -2.4435  0.8384
  515MOL0     H69480   8.826  10.837   7.016 -3.1510 -0.5001  0.1106
  515MOL0     H69481   8.840  10.942   7.217  0.6171  0.0240  0.2437
  515MOL0     H69482   8.675  10.973   7.180 -0.0453  1.7163 -0.8217
  515MOL0     H69483   8.900  11.178   7.194  0.6138 -0.3035 -1.2535
  515MOL0     H69484   8.745  11.184   7.258 -0.2477 -0.0963 -0.9025
  515MOL0     H69485   8.564  11.248   7.270  0.5412 -1.8416  0.9549
  515MOL0     H69486   8.323  11.241   7.246 -0.8829 -0.1578 -0.2280
  515MOL0     H69487   7.999  11.461   6.720 -0.5362 -0.2306 -0.3989
  515MOL0     H69488   7.761  11.487   6.684 -1.4278 -1.8655 -0.3249
  515MOL0     H69489   7.566  11.546   6.722  0.4087 -0.0659  1.4813
  515MOL0     H69490   7.562  11.413   6.608  2.8628  0.4856  0.3573
  515MOL0     H69491   7.331  11.359   6.694  0.8507 -0.5966  0.3162
  515MOL0     H69492   7.348  11.495   6.809  2.1144 -0.8795  1.2933
  515MOL0     H69493   7.386  11.648   6.609  2.8098 -0.7713 -1.3482
  515MOL0     H69494   7.369  11.514   6.496  4.5547  2.7044  0.1499
  515MOL0     H69495   7.159  11.648   6.670  2.8724  1.1285 -0.7330
  515MOL0     H69496   7.126  11.479   6.618 -0.5929  0.9797  5.4383
  515MOL0     H69497   7.218  11.657   6.392 -0.4324  1.1138  0.5079
  515MOL0     H69498   7.077  11.715   6.478  0.4590  0.5304  0.6898
  515MOL0     H69499   7.116  11.440   6.338 -0.5789 -0.1321  0.5696
  515MOL0     H69500   6.975  11.485   6.440  1.9214  2.6490  5.1300
  515MOL0     H69501   7.079  11.612   6.182 -2.2825 -1.0145 -2.0208
  515MOL0     H69502   6.926  11.663   6.288 -0.0238  0.0399  2.2480
  515MOL0     H69503   6.866  11.525   6.074 -1.5865 -0.4886 -0.5963
  515MOL0     H69504   6.997  11.422   6.123 -0.9029 -1.9298  0.3404
  515MOL0     H69505   7.667  11.203   6.977 -0.1092  0.2030 -0.8474
  515MOL0     H69506   7.913  11.166   7.020  1.7364  0.8095  0.9002
  515MOL0     H69507   8.365  11.305   6.817  1.4071 -2.0629 -1.3796
  515MOL0     H69508   8.606  11.295   6.849  2.4910 -2.9767  1.6164
  515MOL0     H69509   9.908  10.254   6.145  1.6740  0.0124 -0.0335
  515MOL0     H69510  10.146  10.237   6.201 -0.4235 -0.6132 -0.3382
  515MOL0     H69511  10.476  10.549   6.497 -0.1328 -1.1485  0.4869
  515MOL0     H69512  10.714  10.567   6.553  1.4155 -0.3933  0.6665
  515MOL0     H69513  10.897  10.511   6.642 -0.7569 -2.9919 -0.1217
  515MOL0     H69514  10.987  10.580   6.502  1.8801 -0.5795 -1.1045
  515MOL0     H69515  11.153  10.388   6.513  2.0231 -0.3573  0.8062
  515MOL0     H69516  11.096  10.384   6.683  0.6952 -1.9009 -1.0004
  515MOL0     H69517  11.294  10.512   6.664 -0.9384  2.3992  0.9910
  515MOL0     H69518  11.161  10.612   6.709 -2.4026 -0.4727  1.0642
  515MOL0     H69519  11.164  10.713   6.472  0.0615  1.1401  2.6742
  515MOL0     H69520  11.330  10.733   6.538  3.4948 -4.1856  0.2532
  515MOL0     H69521  11.390  10.468   6.212 -1.5282  0.7414 -1.9587
  515MOL0     H69522  10.807  10.235   6.326  1.2103 -0.2009  2.6833
  515MOL0     H69523  10.552  10.209   6.104  3.0955 -1.0435 -0.9962
  515MOL0     H69524  10.646  10.109   6.205  0.6861  0.5563 -0.9035
  515MOL0     H69525  10.475  10.131   6.254 -0.6349  2.0567  1.7349
  516MOL0     O69526   0.291   8.853   6.449  0.4346 -0.2760  0.0895
  516MOL0     C69527   0.330   8.737   6.466  0.1970 -0.0421  0.0507
  516MOL0     O69528   0.254   8.638   6.519 -0.8483 -0.5518  0.0586
  516MOL0     C69529   0.118   8.641   6.505  0.7678  0.3965  0.0109
  516MOL0     C69530   0.053   8.540   6.579  0.2180 -0.9067 -0.0449
  516MOL0     C69531  -0.084   8.542   6.587 -0.0575  0.2740 -0.1840
  516MOL0     C69532  -0.166   8.629   6.513 -0.6244 -0.1166  0.2599
  516MOL0     O69533  -0.299   8.620   6.531 -0.1576  0.2832 -0.1788
  516MOL0     C69534  -0.390   8.688   6.435  0.0443  0.5436 -0.0123
  516MOL0     C69535  -0.542   8.666   6.479 -0.4755 -0.1780 -0.4411
  516MOL0     C69536  -0.574   8.521   6.476  0.0086 -0.2694 -0.5581
  516MOL0     C69537  -0.729   8.504   6.489 -0.0346 -1.1050  0.0428
  516MOL0     C69538  -0.816   8.565   6.381 -1.4227 -0.3563  0.1060
  516MOL0     C69539  -0.783   8.538   6.235 -0.1616 -0.4207  0.1117
  516MOL0     C69540  -0.792   8.390   6.200  0.2442  0.0483 -1.0323
  516MOL0     C69541  -0.746   8.354   6.052  0.3379  0.1252  0.0930
  516MOL0     N69542  -0.605   8.379   6.024  0.3158 -0.1051 -0.0039
  516MOL0     C69543  -0.499   8.312   6.091  0.5854  0.3246 -0.1741
  516MOL0     C69544  -0.389   8.385   6.059 -0.3487  0.2970 -0.3253
  516MOL0     C69545  -0.249   8.354   6.105  0.9366 -0.9223  0.0804
  516MOL0     C69546  -0.153   8.480   6.104 -0.4359 -0.2690  0.6697
  516MOL0     C69547  -0.104   8.530   5.969 -0.5767 -0.2882  0.2173
  516MOL0     C69548   0.022   8.617   5.993  0.8626  0.6899  0.7161
  516MOL0     O69549   0.130   8.537   6.030 -0.2237 -0.1152 -0.4599
  516MOL0     C69550   0.263   8.588   6.035  0.2043  0.0127  0.4879
  516MOL0     C69551   0.369   8.505   5.994  0.0165 -0.0713  0.1062
  516MOL0     C69552   0.503   8.549   6.001 -0.5073  0.2955  0.0842
  516MOL0     C69553   0.529   8.679   6.057 -0.0191  1.1919  0.2215
  516MOL0     C69554   0.672   8.717   6.085  0.4095  0.5501  0.0367
  516MOL0     O69555   0.763   8.623   6.070 -0.1894  0.1232  0.0250
  516MOL0     C69556   0.892   8.665   6.048 -0.7667  0.2974  0.0634
  516MOL0     C69557   1.000   8.614   6.135  0.4987  0.1241 -0.3058
  516MOL0     C69558   1.141   8.639   6.115  0.3917  0.5731 -0.4824
  516MOL0     C69559   1.169   8.707   5.999 -0.0999  0.3667  0.8450
  516MOL0     O69560   1.292   8.757   5.972  0.3434  0.1395  0.7170
  516MOL0     C69561   1.410   8.713   6.042 -0.2577 -0.1564  1.1759
  516MOL0     C69562   1.523   8.779   5.967 -0.0162  0.3961  0.2771
  516MOL0     C69563   1.661   8.760   6.030 -0.7719 -0.5913  0.3408
  516MOL0     C69564   1.701   8.617   6.084  0.9487  0.2346  0.1873
  516MOL0     C69565   1.848   8.630   6.128  0.0886 -0.4508  0.1036
  516MOL0     C69566   1.908   8.490   6.149 -0.5179 -0.1261  0.3166
  516MOL0     C69567   1.841   8.397   6.251  1.1883  0.3676  0.1119
  516MOL0     C69568   1.925   8.289   6.306  0.1932 -0.2669  0.8368
  516MOL0    Cl69569   1.947   8.174   6.170 -0.0347 -0.1136 -0.2633
  516MOL0     C69570   1.073   8.761   5.911 -0.1799  0.0932 -0.5737
  516MOL0     C69571   0.936   8.739   5.944  0.4604 -0.5664 -0.9960
  516MOL0     O69572   0.695   8.827   6.108  0.3220 -1.0610  0.0358
  516MOL0     C69573   0.426   8.764   6.095  0.2557 -0.3309 -0.5608
  516MOL0     C69574   0.292   8.715   6.083 -0.1484  0.1553  0.0024
  516MOL0     N69575  -0.423   8.486   5.973  0.2701  0.3477  1.2469
  516MOL0     N69576  -0.553   8.485   5.957  0.8379 -0.1975 -0.6375
  516MOL0     C69577  -0.099   8.722   6.433  1.0706 -0.2574 -0.7400
  516MOL0     C69578   0.047   8.725   6.425  0.0546  0.5909  0.0603
  516MOL0     C69579   0.478   8.704   6.446 -0.0638  0.3975 -0.8604
  516MOL0     C69580   0.518   8.569   6.459  0.0251  0.2869  0.0492
  516MOL0     C69581   0.647   8.521   6.437 -0.0196 -0.4359 -0.4155
  516MOL0     C69582   0.753   8.614   6.410  0.3697 -0.3753 -0.5118
  516MOL0     O69583   0.884   8.581   6.414 -1.0770 -0.0417  0.3144
  516MOL0     C69584   0.916   8.517   6.541  0.5666  0.2208 -0.0420
  516MOL0     C69585   1.063   8.532   6.570 -0.9250  0.1420 -0.0205
  516MOL0     C69586   1.103   8.681   6.582 -0.2507 -0.0886 -0.8135
  516MOL0     C69587   1.248   8.708   6.601 -0.3351 -0.4837  0.5913
  516MOL0     C69588   1.330   8.633   6.503  0.0962 -0.2536 -0.3085
  516MOL0     C69589   1.397   8.583   6.415  0.1877 -0.3827  0.4423
  516MOL0     C69590   0.718   8.750   6.393  0.3408  0.5321 -0.0563
  516MOL0     C69591   0.578   8.795   6.409  0.4580  0.0021  0.9525
  516MOL0     C69592   0.557   8.944   6.404  0.0632  0.5066 -0.3721
  516MOL0     H69593   0.108   8.483   6.653  2.6653 -0.2002 -1.2138
  516MOL0     H69594  -0.130   8.483   6.665  1.2155  0.6723  0.9063
  516MOL0     H69595  -0.373   8.795   6.426 -0.0881  0.4882 -1.0441
  516MOL0     H69596  -0.369   8.642   6.338 -1.3372 -0.3862  0.0952
  516MOL0     H69597  -0.609   8.725   6.415 -1.6506  0.2180  1.1000
  516MOL0     H69598  -0.558   8.709   6.578  0.9975 -1.2261  0.2665
  516MOL0     H69599  -0.530   8.470   6.562 -2.1752  0.3378  1.0048
  516MOL0     H69600  -0.537   8.470   6.387 -0.9218 -0.8660 -0.6149
  516MOL0     H69601  -0.745   8.398   6.508 -1.8028 -0.3831  3.2879
  516MOL0     H69602  -0.754   8.554   6.582  1.6517 -1.8740  0.9649
  516MOL0     H69603  -0.917   8.528   6.400 -2.2677  0.7912 -1.8817
  516MOL0     H69604  -0.826   8.673   6.395  1.6412  0.2187 -1.2271
  516MOL0     H69605  -0.846   8.602   6.173  2.8070  2.5292 -0.1636
  516MOL0     H69606  -0.677   8.567   6.236  0.0728 -0.8283  4.2587
  516MOL0     H69607  -0.899   8.368   6.199  0.0775  0.6355  0.7670
  516MOL0     H69608  -0.748   8.331   6.281  0.7128  0.7314 -0.7718
  516MOL0     H69609  -0.761   8.246   6.046  1.3034 -0.1541  1.9331
  516MOL0     H69610  -0.807   8.397   5.972 -0.4587 -0.6218  0.2883
  516MOL0     H69611  -0.499   8.220   6.150  2.1858  0.2249 -0.3073
  516MOL0     H69612  -0.246   8.307   6.203  0.9263  0.4568  0.7663
  516MOL0     H69613  -0.204   8.278   6.041  0.0879  0.2698 -2.0647
  516MOL0     H69614  -0.208   8.551   6.166  0.9768 -0.4895  2.2603
  516MOL0     H69615  -0.062   8.455   6.160 -0.4161  0.9171  1.1944
  516MOL0     H69616  -0.189   8.587   5.929  0.1417  0.7847  0.1842
  516MOL0     H69617  -0.074   8.445   5.906 -0.6411 -1.6593  1.9459
  516MOL0     H69618   0.005   8.678   6.082  0.9086 -1.7395  2.5169
  516MOL0     H69619   0.049   8.673   5.903 -0.9873 -2.0909 -1.7452
  516MOL0     H69620   0.344   8.401   5.971  2.7009 -1.4487  2.7546
  516MOL0     H69621   0.599   8.504   5.978 -1.0047 -0.7234 -0.0386
  516MOL0     H69622   0.979   8.550   6.220 -0.6593 -0.4660 -1.0206
  516MOL0     H69623   1.219   8.604   6.182 -0.7333 -3.0428 -0.8411
  516MOL0     H69624   1.425   8.760   6.140  1.9736 -0.7698  1.1816
  516MOL0     H69625   1.415   8.604   6.040  2.4786 -0.0854 -1.5051
  516MOL0     H69626   1.538   8.729   5.870  4.1973 -2.3415  2.0269
  516MOL0     H69627   1.503   8.886   5.961  2.9906  1.0859  1.1640
  516MOL0     H69628   1.728   8.781   5.945 -3.3505  0.5346 -1.5584
  516MOL0     H69629   1.678   8.842   6.100 -2.3673  1.4665 -1.5423
  516MOL0     H69630   1.687   8.540   6.009 -3.8806 -0.9881  1.9594
  516MOL0     H69631   1.629   8.604   6.166 -1.1379  0.8295 -1.4470
  516MOL0     H69632   1.844   8.685   6.222  0.3059 -1.6486  0.8339
  516MOL0     H69633   1.909   8.683   6.055  0.5906 -0.9775  0.1373
  516MOL0     H69634   1.905   8.436   6.054 -5.0698 -0.7354  0.5496
  516MOL0     H69635   2.010   8.511   6.182  0.3986 -2.1592 -0.9904
  516MOL0     H69636   1.755   8.351   6.201 -1.2513  2.4165  2.1531
  516MOL0     H69637   1.793   8.452   6.333 -1.7315  1.0670 -1.9098
  516MOL0     H69638   2.014   8.336   6.348  0.4052  1.0460 -0.9434
  516MOL0     H69639   1.877   8.237   6.389  1.3885 -0.5997  1.3271
  516MOL0     H69640   1.112   8.828   5.836  2.6719 -0.1102  0.6066
  516MOL0     H69641   0.856   8.782   5.885 -1.2768 -2.4858 -0.1561
  516MOL0     H69642   0.441   8.861   6.143 -1.1919  0.0132 -0.7387
  516MOL0     H69643   0.212   8.772   6.130  0.9895 -0.4396  2.8664
  516MOL0     H69644  -0.151   8.793   6.369  1.2990 -0.3694 -1.0555
  516MOL0     H69645   0.091   8.796   6.355 -1.0685  1.2512  0.0088
  516MOL0     H69646   0.443   8.498   6.491  0.0593  1.1079  2.0587
  516MOL0     H69647   0.674   8.416   6.440  3.4621  0.2818 -1.3242
  516MOL0     H69648   0.891   8.411   6.533 -0.8884  0.6010 -0.7600
  516MOL0     H69649   0.858   8.561   6.623 -3.5184 -2.3509 -1.2936
  516MOL0     H69650   1.116   8.484   6.488  2.4006  1.9960  0.8951
  516MOL0     H69651   1.082   8.485   6.667 -1.8284  0.9434  0.5623
  516MOL0     H69652   1.059   8.732   6.668 -1.4440 -1.2003 -0.7368
  516MOL0     H69653   1.068   8.742   6.498  2.0941  1.7621 -0.5405
  516MOL0     H69654   1.270   8.815   6.597 -0.2350 -0.3969  2.5327
  516MOL0     H69655   1.274   8.674   6.702 -2.0677  1.2735  1.6985
  516MOL0     H69656   1.474   8.544   6.351  1.7148  1.0560  1.3357
  516MOL0     H69657   0.797   8.819   6.365 -1.2593  2.4733  0.0713
  516MOL0     H69658   0.652   8.995   6.425 -0.0873  0.9375 -0.7142
  516MOL0     H69659   0.517   8.979   6.308  1.5984  0.8044 -0.9388
  516MOL0     H69660   0.489   8.981   6.481 -0.5268  0.0898 -0.6909
  517MOL0     O69661   0.540   3.645   9.513 -0.3948  0.6065  0.4804
  517MOL0     C69662   0.429   3.658   9.453 -0.7195 -0.6813 -0.1994
  517MOL0     O69663   0.354   3.548   9.412 -0.2705  0.4797 -0.1891
  517MOL0     C69664   0.410   3.417   9.419 -0.0835  0.0423  0.0520
  517MOL0     C69665   0.389   3.352   9.543 -0.6753 -0.8072  0.0221
  517MOL0     C69666   0.422   3.218   9.566  0.3982  0.9022 -0.0216
  517MOL0     C69667   0.471   3.142   9.457 -0.1370 -0.3197 -0.4211
  517MOL0     O69668   0.507   3.018   9.507  1.1773 -0.3991  0.2079
  517MOL0     C69669   0.564   2.928   9.399 -1.1785 -0.4345 -0.6360
  517MOL0     C69670   0.567   2.795   9.465 -0.8327 -0.0693 -0.3882
  517MOL0     C69671   0.655   2.781   9.590 -0.4882  0.0546 -0.3542
  517MOL0     C69672   0.803   2.758   9.550 -0.7669 -0.4227  0.0003
  517MOL0     C69673   0.886   2.733   9.668  0.3760 -0.0014 -0.2238
  517MOL0     C69674   1.027   2.683   9.644 -0.0813  0.1918 -0.1858
  517MOL0     C69675   1.042   2.558   9.558  0.5253  0.4805 -0.0498
  517MOL0     C69676   1.192   2.513   9.555 -0.6166  0.3905 -0.3222
  517MOL0     N69677   1.229   2.406   9.455 -0.7077 -0.1074 -0.2871
  517MOL0     C69678   1.242   2.445   9.323 -0.2398  1.1641 -0.1821
  517MOL0     C69679   1.310   2.343   9.276  0.2881 -0.0841 -0.4846
  517MOL0     C69680   1.366   2.343   9.135  0.1238  0.4428 -0.0205
  517MOL0     C69681   1.433   2.467   9.098 -0.7734 -0.8228  0.6707
  517MOL0     C69682   1.343   2.567   9.021  0.9883  0.3857 -1.0150
  517MOL0     C69683   1.377   2.711   9.000 -0.5820 -0.4866 -0.6184
  517MOL0     O69684   1.377   2.777   9.127 -0.1966  0.1031 -0.5683
  517MOL0     C69685   1.486   2.858   9.163  0.1418 -0.4877 -0.3347
  517MOL0     C69686   1.596   2.904   9.075 -0.0703  0.1750  0.3085
  517MOL0     C69687   1.699   2.980   9.124  0.1292 -0.3830 -0.2607
  517MOL0     C69688   1.700   3.014   9.269  0.5784  1.0023  1.0997
  517MOL0     C69689   1.822   3.069   9.342  0.4275  0.9608 -0.3109
  517MOL0     O69690   1.817   3.064   9.485  0.7790  0.1537  0.3640
  517MOL0     C69691   1.928   3.111   9.543 -0.7021 -0.2461  0.5253
  517MOL0     C69692   2.049   3.035   9.542 -0.0971  0.2742  0.2440
  517MOL0     C69693   2.166   3.085   9.589 -0.3842 -0.6129  0.7770
  517MOL0     C69694   2.159   3.214   9.649  0.0937 -0.4053 -0.8024
  517MOL0     O69695   2.272   3.254   9.710  1.1370 -0.2034  0.1402
  517MOL0     C69696   2.267   3.330   9.825  0.5316  0.6258 -0.5200
  517MOL0     C69697   2.409   3.368   9.874  0.0431  0.3321  0.0071
  517MOL0     C69698   2.459   3.479   9.781 -0.3818 -0.5963 -0.2957
  517MOL0     C69699   2.517   3.585   9.873  0.1640  0.0899  0.0277
  517MOL0     C69700   2.587   3.689   9.784  0.0366 -0.8580  0.7625
  517MOL0     C69701   2.635   3.804   9.888  0.0952 -0.8249 -0.6285
  517MOL0     C69702   2.690   3.931   9.821  0.2086 -0.1702 -0.0407
  517MOL0     C69703   2.733   4.034   9.932 -0.1958 -0.1085  0.2539
  517MOL0    Cl69704   2.895   3.994   9.988 -0.0422 -0.2594  0.1744
  517MOL0     C69705   2.044   3.286   9.655  0.5472 -0.2605  0.5207
  517MOL0     C69706   1.929   3.235   9.603  1.1971 -0.5575  0.2535
  517MOL0     O69707   1.922   3.090   9.276  0.2881 -0.5870  0.3061
  517MOL0     C69708   1.588   2.978   9.350 -1.4165 -1.2397 -0.9015
  517MOL0     C69709   1.487   2.893   9.301  0.0420  0.2846  0.0184
  517MOL0     N69710   1.330   2.242   9.359  0.9701  1.1993 -0.4488
  517MOL0     N69711   1.290   2.286   9.469 -0.0600  0.3274  0.4007
  517MOL0     C69712   0.484   3.204   9.332 -0.7510  0.0053  0.5323
  517MOL0     C69713   0.455   3.339   9.314  0.9184  0.2032 -0.3652
  517MOL0     C69714   0.371   3.789   9.472  0.4080  0.0893 -0.5075
  517MOL0     C69715   0.440   3.887   9.548  0.2795 -0.5444  0.2411
  517MOL0     C69716   0.381   4.011   9.581  0.2720 -0.2436  0.3647
  517MOL0     C69717   0.252   4.039   9.549 -0.4379  0.1247  0.0044
  517MOL0     O69718   0.190   4.153   9.616  0.3362  0.3616  0.1784
  517MOL0     C69719   0.065   4.191   9.565  0.0002 -0.4800 -0.0490
  517MOL0     C69720   0.013   4.305   9.660 -0.6326  0.3325 -0.6140
  517MOL0     C69721  -0.056   4.262   9.788 -0.2935  0.6326 -0.2162
  517MOL0     C69722  -0.136   4.378   9.852 -0.0551  0.1047  0.4225
  517MOL0     C69723  -0.170   4.336   9.993 -0.1200  0.5374 -0.9856
  517MOL0     C69724  -0.204   4.307  10.101 -0.5804 -0.4785 -0.2908
  517MOL0     C69725   0.186   3.948   9.464  0.1165  0.4664 -0.3389
  517MOL0     C69726   0.241   3.826   9.419  0.2491  0.2582 -0.0521
  517MOL0     C69727   0.158   3.743   9.330  0.1176 -0.7831  0.1570
  517MOL0     H69728   0.348   3.417   9.619 -0.3656  0.6832 -1.0232
  517MOL0     H69729   0.403   3.176   9.664 -0.5049 -2.8394 -1.6563
  517MOL0     H69730   0.483   2.917   9.326 -2.3959 -3.1984  0.9110
  517MOL0     H69731   0.654   2.954   9.344 -1.6156  1.1836 -0.6190
  517MOL0     H69732   0.600   2.718   9.394  2.7029  1.9558 -1.1652
  517MOL0     H69733   0.460   2.786   9.488 -1.1864 -0.2406 -1.9969
  517MOL0     H69734   0.616   2.702   9.654  0.8203 -0.1069  0.2915
  517MOL0     H69735   0.638   2.871   9.650 -0.7067 -0.2576  0.0552
  517MOL0     H69736   0.803   2.673   9.480  0.0351 -1.1591  0.8693
  517MOL0     H69737   0.853   2.839   9.497  1.7746 -0.9312  1.4810
  517MOL0     H69738   0.880   2.827   9.723 -1.1318 -0.0678 -0.2300
  517MOL0     H69739   0.839   2.658   9.732 -2.3006  2.8629  1.4729
  517MOL0     H69740   1.081   2.757   9.585  1.8563 -2.0380 -1.4191
  517MOL0     H69741   1.074   2.651   9.738 -1.8544 -1.5905  0.1705
  517MOL0     H69742   1.016   2.572   9.452  0.6709  1.7937  0.0729
  517MOL0     H69743   0.987   2.475   9.603  1.2834  0.0705  0.1537
  517MOL0     H69744   1.254   2.601   9.537  2.4606 -1.4107  0.6914
  517MOL0     H69745   1.228   2.485   9.654  2.8170  1.7333 -1.0431
  517MOL0     H69746   1.229   2.542   9.276  0.3669  0.5683 -1.6176
  517MOL0     H69747   1.428   2.253   9.124 -1.3140 -0.5378 -0.4953
  517MOL0     H69748   1.286   2.329   9.061  2.4366 -1.6367 -2.3223
  517MOL0     H69749   1.465   2.512   9.193 -0.8809 -0.6251  0.6131
  517MOL0     H69750   1.519   2.446   9.033 -0.2568  0.8727  0.7571
  517MOL0     H69751   1.254   2.591   9.079  1.1772 -0.4140 -0.3782
  517MOL0     H69752   1.319   2.524   8.923  0.6830 -1.1824 -0.2796
  517MOL0     H69753   1.297   2.759   8.945 -1.4693 -1.6232 -0.3578
  517MOL0     H69754   1.471   2.717   8.943  0.7281 -1.2014  1.3499
  517MOL0     H69755   1.601   2.885   8.968  1.9089  1.4317  0.1292
  517MOL0     H69756   1.781   3.010   9.059  3.2052 -1.6826  2.7033
  517MOL0     H69757   2.050   2.938   9.493 -1.3227 -0.1115  0.9300
  517MOL0     H69758   2.253   3.021   9.603 -0.5907 -0.5871  2.4043
  517MOL0     H69759   2.205   3.420   9.822 -2.7624 -1.0043  4.4939
  517MOL0     H69760   2.221   3.271   9.905  0.7091  2.0607  0.6881
  517MOL0     H69761   2.388   3.390   9.979 -1.3852  1.5649 -0.5046
  517MOL0     H69762   2.480   3.285   9.874 -1.8312 -1.3307 -0.4420
  517MOL0     H69763   2.540   3.434   9.724 -1.0337  2.2096 -3.7927
  517MOL0     H69764   2.378   3.516   9.718 -1.1877 -2.0722 -0.1599
  517MOL0     H69765   2.594   3.547   9.940  0.9126 -1.5665 -1.7039
  517MOL0     H69766   2.434   3.642   9.919 -2.1617  0.1344 -3.8086
  517MOL0     H69767   2.506   3.733   9.725  0.6254  0.2186  0.7220
  517MOL0     H69768   2.670   3.648   9.727 -1.0168 -1.2361 -0.5540
  517MOL0     H69769   2.545   3.835   9.942 -1.3253  2.6132 -4.4518
  517MOL0     H69770   2.716   3.765   9.950 -0.9549  1.2484  2.2525
  517MOL0     H69771   2.601   3.970   9.771 -0.4458 -1.7990 -0.1804
  517MOL0     H69772   2.772   3.896   9.757  0.8917  1.2482 -0.0078
  517MOL0     H69773   2.734   4.135   9.889 -0.5059 -0.4053 -0.4830
  517MOL0     H69774   2.663   4.039  10.016  0.3236  0.6533  0.6465
  517MOL0     H69775   2.041   3.385   9.699  0.2564  1.1181 -2.4298
  517MOL0     H69776   1.839   3.295   9.597  2.0843  0.7621 -4.1489
  517MOL0     H69777   1.595   3.004   9.455  0.8489  0.9655 -1.4992
  517MOL0     H69778   1.409   2.871   9.373  1.7063  2.0046  2.5103
  517MOL0     H69779   0.512   3.145   9.245  2.6763  1.0350  0.7895
  517MOL0     H69780   0.464   3.375   9.213  1.8973 -1.5720 -0.9556
  517MOL0     H69781   0.547   3.869   9.551  0.4066  0.0559 -0.4094
  517MOL0     H69782   0.437   4.085   9.637 -0.0419 -0.5248  1.0592
  517MOL0     H69783  -0.015   4.116   9.558 -0.3708 -0.2796  1.6271
  517MOL0     H69784   0.062   4.236   9.465 -3.1752  1.3733  0.7196
  517MOL0     H69785  -0.060   4.358   9.598 -1.7941 -0.8972 -0.3407
  517MOL0     H69786   0.095   4.375   9.679 -0.0272 -0.1359 -1.4344
  517MOL0     H69787   0.016   4.231   9.864 -0.9458 -2.1395 -0.6282
  517MOL0     H69788  -0.119   4.173   9.791 -1.3834  1.3870  2.6848
  517MOL0     H69789  -0.083   4.473   9.865 -1.2393  0.9068 -0.4550
  517MOL0     H69790  -0.230   4.397   9.798 -0.1115 -0.9416  0.1399
  517MOL0     H69791  -0.250   4.282  10.194 -1.8730 -0.4135 -0.8875
  517MOL0     H69792   0.085   3.968   9.430  0.0119 -1.6298 -1.4264
  517MOL0     H69793   0.219   3.672   9.273 -1.0475 -2.4832  0.9609
  517MOL0     H69794   0.080   3.699   9.392 -1.4341  2.4400  0.6828
  517MOL0     H69795   0.096   3.797   9.257  2.2391  1.8755  0.1549
  518MOL0     O69796   3.836   6.162  11.392  0.9377 -0.0146  0.1143
  518MOL0     C69797   3.780   6.098  11.483  0.9632  0.8411 -0.2461
  518MOL0     O69798   3.826   6.082  11.613  0.1487  0.0511 -0.1952
  518MOL0     C69799   3.952   6.136  11.641  0.7675 -0.5826  0.5956
  518MOL0     C69800   4.073   6.088  11.587  0.4622  0.8685 -0.3215
  518MOL0     C69801   4.194   6.145  11.641  0.0302  0.6134  0.1215
  518MOL0     C69802   4.194   6.238  11.744  0.5391  0.9002  0.3962
  518MOL0     O69803   4.319   6.299  11.761  0.6288 -0.0068 -0.3918
  518MOL0     C69804   4.330   6.394  11.870  0.9605  0.2742 -0.1624
  518MOL0     C69805   4.470   6.433  11.914  0.7995 -0.9325  1.3941
  518MOL0     C69806   4.549   6.308  11.960 -0.3789  0.1984  0.2297
  518MOL0     C69807   4.495   6.245  12.090  0.0102  0.3537  0.5538
  518MOL0     C69808   4.591   6.153  12.156 -0.0130  0.9994 -0.5577
  518MOL0     C69809   4.653   6.048  12.059  0.3588 -0.2216 -0.2151
  518MOL0     C69810   4.758   5.966  12.135  0.2136 -0.2007 -0.1486
  518MOL0     C69811   4.778   5.834  12.060 -0.1776  0.4783 -0.3988
  518MOL0     N69812   4.893   5.817  11.978 -0.8600 -1.2192  0.4005
  518MOL0     C69813   4.988   5.913  11.945 -0.4192 -1.0395  0.7541
  518MOL0     C69814   5.079   5.843  11.868  0.4928 -0.4913 -0.2586
  518MOL0     C69815   5.204   5.885  11.800 -0.4129  0.0740  0.5849
  518MOL0     C69816   5.314   5.849  11.901 -0.2075 -0.3171  0.0583
  518MOL0     C69817   5.280   5.905  12.048  0.2249  0.1927 -1.1291
  518MOL0     C69818   5.413   5.943  12.124  0.1925 -0.5612 -0.8112
  518MOL0     O69819   5.502   5.833  12.140 -0.0652  0.2632  0.6589
  518MOL0     C69820   5.624   5.864  12.181 -0.0034  0.3071 -1.1761
  518MOL0     C69821   5.658   5.810  12.310 -0.2974  0.1946  0.3959
  518MOL0     C69822   5.783   5.834  12.357 -0.7668 -0.1062  0.4260
  518MOL0     C69823   5.881   5.895  12.267  1.5457  0.0992 -1.4194
  518MOL0     C69824   6.025   5.924  12.308  1.4857  0.0766  0.1698
  518MOL0     O69825   6.068   5.876  12.433  0.0222  0.1450  0.4617
  518MOL0     C69826   6.197   5.894  12.473 -0.8523  0.4202  0.5405
  518MOL0     C69827   6.304   5.851  12.389 -0.1564 -0.8119  0.2675
  518MOL0     C69828   6.441   5.862  12.426  0.9459  0.7295 -0.4223
  518MOL0     C69829   6.472   5.915  12.552 -0.2283  0.0312 -0.0057
  518MOL0     O69830   6.604   5.929  12.584  0.2226  0.2346 -0.1825
  518MOL0     C69831   6.669   5.800  12.599 -0.5920 -0.6837  0.0200
  518MOL0     C69832   6.780   5.826  12.702 -0.1549 -0.3501 -0.0702
  518MOL0     C69833   6.858   5.689  12.716 -0.6656  0.3127  0.0396
  518MOL0     C69834   7.006   5.720  12.742 -0.5807 -0.0592 -0.3373
  518MOL0     C69835   7.112   5.610  12.760  0.8355  0.1813 -0.0565
  518MOL0     C69836   7.254   5.661  12.790  0.0329  0.0295  0.4015
  518MOL0     C69837   7.283   5.694  12.933  0.7427 -0.6982 -0.2221
  518MOL0     C69838   7.393   5.792  12.953 -0.2668  0.5773  0.1936
  518MOL0    Cl69839   7.535   5.760  12.841 -0.2608 -0.3159 -0.3848
  518MOL0     C69840   6.369   5.940  12.642 -0.5935  0.1739 -0.3800
  518MOL0     C69841   6.230   5.934  12.606 -0.9058 -0.3299  1.0048
  518MOL0     O69842   6.102   5.960  12.222 -0.2728 -0.4770 -0.1230
  518MOL0     C69843   5.838   5.938  12.140 -0.3004  0.4316 -0.3539
  518MOL0     C69844   5.712   5.929  12.104  0.2557  0.4715  0.3457
  518MOL0     N69845   5.039   5.707  11.865  0.4278 -0.3685  0.3831
  518MOL0     N69846   4.936   5.691  11.932  0.5160  0.1433 -0.1678
  518MOL0     C69847   4.074   6.269  11.807 -1.2293 -0.9142 -1.2560
  518MOL0     C69848   3.955   6.224  11.754 -0.1204  0.3664  0.4748
  518MOL0     C69849   3.654   6.029  11.460  0.6815  0.7623  0.2874
  518MOL0     C69850   3.566   6.103  11.376 -1.0893 -0.7734  0.2492
  518MOL0     C69851   3.436   6.057  11.352  0.4803 -0.5153 -0.4534
  518MOL0     C69852   3.389   5.946  11.409  0.0292  0.6870  0.0993
  518MOL0     O69853   3.254   5.913  11.388  0.0508 -0.5009  0.1505
  518MOL0     C69854   3.180   5.864  11.501  0.3304 -0.5778 -0.2983
  518MOL0     C69855   3.027   5.853  11.458 -0.2407 -0.5445 -0.1868
  518MOL0     C69856   2.956   5.991  11.429 -0.0345  0.3233 -0.3813
  518MOL0     C69857   2.805   5.999  11.436 -0.4861 -0.0133  0.3575
  518MOL0     C69858   2.759   6.136  11.420  0.7829 -0.3875 -0.1709
  518MOL0     C69859   2.707   6.238  11.421  0.0471 -1.1614 -0.2463
  518MOL0     C69860   3.476   5.858  11.475 -0.0229  0.1290 -1.1138
  518MOL0     C69861   3.614   5.896  11.492 -0.8412  0.7204 -0.7060
  518MOL0     C69862   3.714   5.808  11.552 -0.6425 -0.4888 -0.1064
  518MOL0     H69863   4.080   6.023  11.501  0.0627  0.6180 -0.1716
  518MOL0     H69864   4.289   6.115  11.597 -0.9754 -1.4743 -0.7544
  518MOL0     H69865   4.268   6.477  11.833 -1.1364 -0.1685  2.1085
  518MOL0     H69866   4.282   6.351  11.958 -1.2130  2.9051  0.0930
  518MOL0     H69867   4.458   6.511  11.989  0.7364  0.8713 -0.4074
  518MOL0     H69868   4.516   6.485  11.829 -2.8002 -1.0184 -0.8124
  518MOL0     H69869   4.654   6.323  11.989 -0.2762 -3.5856  2.5980
  518MOL0     H69870   4.550   6.235  11.878 -2.6865  1.5350 -1.0736
  518MOL0     H69871   4.466   6.316  12.168 -1.7935  1.2163 -0.8259
  518MOL0     H69872   4.405   6.187  12.066 -1.0187  1.6549  1.1815
  518MOL0     H69873   4.671   6.211  12.202 -0.9272 -0.2012  2.8953
  518MOL0     H69874   4.523   6.109  12.230  0.3552 -1.4610 -1.5825
  518MOL0     H69875   4.566   5.998  12.014 -1.6512  3.2375 -0.5791
  518MOL0     H69876   4.711   6.105  11.987 -1.0581  0.3476 -0.9482
  518MOL0     H69877   4.713   5.937  12.230  1.2463  2.2230  1.1908
  518MOL0     H69878   4.852   6.021  12.150  2.2716 -3.2688 -0.9718
  518MOL0     H69879   4.765   5.752  12.131  2.1521 -1.7635 -2.3600
  518MOL0     H69880   4.696   5.821  11.988 -0.8907  1.2203  0.2594
  518MOL0     H69881   4.976   6.015  11.979 -0.8381 -1.2903  1.3802
  518MOL0     H69882   5.215   5.822  11.711 -0.2233 -1.8383  1.9010
  518MOL0     H69883   5.202   5.989  11.766  0.6337  1.7252  4.9013
  518MOL0     H69884   5.317   5.740  11.899 -3.2925 -0.4850 -1.4257
  518MOL0     H69885   5.411   5.889  11.871 -0.7001  1.1896  0.3866
  518MOL0     H69886   5.220   5.834  12.105  1.3116  0.7231  0.7650
  518MOL0     H69887   5.219   5.995  12.036  0.3081  0.8371  2.2711
  518MOL0     H69888   5.392   5.973  12.226  0.3524 -2.0851 -0.2964
  518MOL0     H69889   5.467   6.025  12.077 -1.9351 -0.0592 -2.5308
  518MOL0     H69890   5.571   5.779  12.368 -2.5632  3.6862 -0.7688
  518MOL0     H69891   5.806   5.821  12.462  0.2874  0.8654  0.3349
  518MOL0     H69892   6.282   5.796  12.298 -3.1463  0.6202  0.0136
  518MOL0     H69893   6.517   5.820  12.361  0.8788  0.5798 -0.4051
  518MOL0     H69894   6.606   5.719  12.637 -1.1580 -0.2900 -0.0738
  518MOL0     H69895   6.715   5.770  12.504 -0.9745 -1.9459  0.2121
  518MOL0     H69896   6.845   5.910  12.676 -1.0507 -0.7520 -4.3198
  518MOL0     H69897   6.733   5.850  12.798 -2.4431 -2.7893 -0.4509
  518MOL0     H69898   6.828   5.628  12.801 -1.7927 -0.4278 -0.8551
  518MOL0     H69899   6.840   5.625  12.629  0.7884  2.1316 -1.6987
  518MOL0     H69900   7.000   5.790  12.826  0.7849  3.2112 -2.7506
  518MOL0     H69901   7.031   5.777  12.652 -1.8882 -0.4796 -0.9799
  518MOL0     H69902   7.117   5.554  12.666 -0.7535  0.8608 -0.5910
  518MOL0     H69903   7.086   5.540  12.839  4.5550  0.6746  1.8085
  518MOL0     H69904   7.316   5.575  12.762  0.8090  0.3467  1.1022
  518MOL0     H69905   7.274   5.741  12.718 -0.2955 -0.6430 -0.4557
  518MOL0     H69906   7.325   5.603  12.977  1.7466 -0.5118 -0.7551
  518MOL0     H69907   7.190   5.726  12.980  0.3232 -0.1646 -1.3591
  518MOL0     H69908   7.347   5.890  12.939 -1.1127  0.4201  1.6402
  518MOL0     H69909   7.432   5.782  13.054  0.6535 -1.5298 -0.3113
  518MOL0     H69910   6.400   5.964  12.744 -1.8660 -1.6603  0.4983
  518MOL0     H69911   6.160   5.946  12.687 -1.7015  0.7326  0.1845
  518MOL0     H69912   5.913   5.979  12.073  2.7687 -1.4271  1.6980
  518MOL0     H69913   5.695   5.967  12.003  0.1255  2.2957  1.0083
  518MOL0     H69914   4.070   6.351  11.878  0.2022 -1.8648 -0.0195
  518MOL0     H69915   3.864   6.262  11.799  1.0001  2.0838  1.3923
  518MOL0     H69916   3.595   6.201  11.339  1.3770 -1.7114 -0.5175
  518MOL0     H69917   3.373   6.113  11.284 -1.2275  0.4939  1.8449
  518MOL0     H69918   3.202   5.925  11.589  0.5244 -0.4540 -0.4332
  518MOL0     H69919   3.217   5.767  11.536  1.7435 -0.6050 -1.7479
  518MOL0     H69920   2.968   5.792  11.527 -0.8721 -0.1481 -0.3687
  518MOL0     H69921   3.020   5.788  11.370 -1.2011 -3.0736  1.6579
  518MOL0     H69922   2.956   6.012  11.322 -1.5081 -0.2751 -0.5168
  518MOL0     H69923   3.000   6.068  11.493  4.4648 -2.0822 -0.1538
  518MOL0     H69924   2.758   5.942  11.356  1.9078 -0.4723 -0.8107
  518MOL0     H69925   2.766   5.965  11.533 -2.5673 -0.6705 -0.6588
  518MOL0     H69926   2.666   6.333  11.450  0.1600 -1.1051 -0.2719
  518MOL0     H69927   3.450   5.760  11.515  0.2695  0.5217  0.0793
  518MOL0     H69928   3.713   5.708  11.507  2.3697  0.9987 -4.0773
  518MOL0     H69929   3.815   5.841  11.526 -0.0717 -1.7738  0.3549
  518MOL0     H69930   3.717   5.791  11.660 -0.7232 -0.8446 -0.1590
  519MOL0     O69931   9.403   0.952   7.551  0.4170 -0.3867  0.2642
  519MOL0     C69932   9.520   0.995   7.538 -0.9960  0.6069  0.3938
  519MOL0     O69933   9.600   0.980   7.430 -0.3519  0.1369 -0.1906
  519MOL0     C69934   9.551   0.938   7.316 -0.3881 -0.7188  1.3556
  519MOL0     C69935   9.560   0.799   7.294 -1.0431 -0.7347  0.7490
  519MOL0     C69936   9.529   0.731   7.177  0.0300 -0.6037  0.1659
  519MOL0     C69937   9.467   0.812   7.076 -1.3458  0.0759 -0.5629
  519MOL0     O69938   9.402   0.762   6.967  0.0814 -0.2292  0.0931
  519MOL0     C69939   9.363   0.625   6.980 -1.0467 -1.4570 -0.8590
  519MOL0     C69940   9.317   0.565   6.849  0.3457  0.3543 -0.6720
  519MOL0     C69941   9.299   0.414   6.846  1.2510  0.9053  0.6711
  519MOL0     C69942   9.425   0.341   6.808 -0.5519 -0.4317  0.4087
  519MOL0     C69943   9.413   0.192   6.788 -0.2224  0.0281 -0.3904
  519MOL0     C69944   9.393   0.140   6.931 -0.0289  0.6104 -0.3113
  519MOL0     C69945   9.387  -0.017   6.928  0.2980 -0.9602  0.4237
  519MOL0     C69946   9.336  -0.074   7.060  0.4339 -0.2617  0.3958
  519MOL0     N69947   9.341  -0.221   7.058  0.0821  0.6491  0.3888
  519MOL0     C69948   9.453  -0.296   7.104 -1.0079 -0.7984  0.9222
  519MOL0     C69949   9.425  -0.425   7.070 -0.3385  0.7838 -0.6086
  519MOL0     C69950   9.520  -0.542   7.086 -0.0865  0.1140  0.3637
  519MOL0     C69951   9.555  -0.594   6.950 -0.6743  0.0385 -0.9843
  519MOL0     C69952   9.646  -0.722   6.959  0.3085  0.0017  1.2640
  519MOL0     C69953   9.661  -0.791   6.818  1.2866 -0.5545  0.0608
  519MOL0     O69954   9.679  -0.690   6.712  0.0965  1.1633 -0.3432
  519MOL0     C69955   9.805  -0.646   6.676  0.2515  0.2098 -0.2520
  519MOL0     C69956   9.916  -0.721   6.710 -0.3288 -0.4657  0.3829
  519MOL0     C69957  10.040  -0.689   6.648  0.1581  0.7134 -0.5835
  519MOL0     C69958  10.040  -0.603   6.537 -0.1053  0.8501 -0.4303
  519MOL0     C69959  10.170  -0.587   6.480 -1.1233  0.0136 -0.3006
  519MOL0     O69960  10.277  -0.662   6.512  0.0633 -0.2007  0.5058
  519MOL0     C69961  10.394  -0.642   6.440 -0.0321  0.1383  0.5080
  519MOL0     C69962  10.500  -0.586   6.512 -0.8044 -0.6942  0.0709
  519MOL0     C69963  10.623  -0.584   6.449  0.4014 -0.5631  0.2282
  519MOL0     C69964  10.649  -0.643   6.329  1.4187  0.6023  0.5798
  519MOL0     O69965  10.784  -0.659   6.290 -0.4189 -0.2912  0.5737
  519MOL0     C69966  10.821  -0.683   6.157 -0.3883 -0.3894 -0.7155
  519MOL0     C69967  10.980  -0.683   6.153  0.3415  0.0991 -0.1028
  519MOL0     C69968  11.030  -0.722   6.013  1.4404  0.2645 -0.0559
  519MOL0     C69969  11.158  -0.650   5.987 -0.2784 -0.4189  0.0073
  519MOL0     C69970  11.244  -0.699   5.878 -0.7688 -0.2674 -0.2830
  519MOL0     C69971  11.303  -0.839   5.913 -0.3577  0.6503  0.5343
  519MOL0     C69972  11.426  -0.892   5.827  0.5368 -0.1781  0.0854
  519MOL0     C69973  11.396  -0.949   5.699 -0.2759  0.2794  0.8918
  519MOL0    Cl69974  11.548  -0.954   5.602  0.1516 -0.1105  0.3440
  519MOL0     C69975  10.541  -0.684   6.251 -1.1098  0.0824  0.6333
  519MOL0     C69976  10.408  -0.691   6.306 -0.2442  0.3074 -0.3069
  519MOL0     O69977  10.174  -0.498   6.400 -0.4648 -1.0153  0.8226
  519MOL0     C69978   9.927  -0.518   6.518 -0.6090  0.2542  0.9142
  519MOL0     C69979   9.809  -0.551   6.577  0.8625 -0.6337  0.0998
  519MOL0     N69980   9.284  -0.424   7.037 -0.5363  0.9842  0.5378
  519MOL0     N69981   9.241  -0.302   7.020 -0.1200 -0.0000  0.6704
  519MOL0     C69982   9.454   0.951   7.097  0.3545  0.4321 -0.1606
  519MOL0     C69983   9.496   1.015   7.218 -0.5483 -0.7350  0.6958
  519MOL0     C69984   9.588   1.043   7.661  0.1797  0.0554 -0.9265
  519MOL0     C69985   9.729   1.074   7.657  0.6828 -0.3761  0.4809
  519MOL0     C69986   9.801   1.115   7.770 -0.3421 -0.4695  0.7480
  519MOL0     C69987   9.731   1.141   7.889 -0.3590  0.8096 -0.3295
  519MOL0     O69988   9.803   1.185   7.996  0.3105 -0.2721  0.1542
  519MOL0     C69989   9.745   1.287   8.081 -0.4462 -0.5147 -0.3762
  519MOL0     C69990   9.678   1.232   8.199 -1.0997  0.1970  0.3948
  519MOL0     C69991   9.596   1.338   8.284 -0.5501 -0.4302 -0.7868
  519MOL0     C69992   9.452   1.377   8.229 -0.1447  0.5724  0.6404
  519MOL0     C69993   9.450   1.499   8.140 -0.1551 -0.1589  0.0701
  519MOL0     C69994   9.419   1.581   8.053  0.3847  0.3448  0.4569
  519MOL0     C69995   9.591   1.123   7.888 -0.0115 -0.8318 -0.1343
  519MOL0     C69996   9.518   1.092   7.775 -0.9181  0.8178 -0.3691
  519MOL0     C69997   9.367   1.105   7.776 -1.0934 -0.0283  0.4732
  519MOL0     H69998   9.607   0.741   7.373  1.5616  2.2988  1.6517
  519MOL0     H69999   9.540   0.623   7.181  0.9006 -0.5204  0.2610
  519MOL0     H70000   9.449   0.562   7.007  0.5042  0.7115 -0.4801
  519MOL0     H70001   9.294   0.618   7.064  0.3227 -1.0718  0.3445
  519MOL0     H70002   9.396   0.580   6.775  3.3739  2.6460  2.6735
  519MOL0     H70003   9.223   0.613   6.823  0.9253  0.9022 -1.8171
  519MOL0     H70004   9.230   0.390   6.765  2.4841 -1.3405  0.2093
  519MOL0     H70005   9.251   0.383   6.940  1.0260 -0.7558  0.0432
  519MOL0     H70006   9.453   0.380   6.710 -0.0224 -1.1355  0.2779
  519MOL0     H70007   9.496   0.372   6.885 -3.6108  3.6765  1.9661
  519MOL0     H70008   9.326   0.174   6.724 -1.9474  0.2171  1.7975
  519MOL0     H70009   9.503   0.150   6.742 -0.8119  0.0941 -1.6534
  519MOL0     H70010   9.463   0.165   7.011 -1.9173  0.0870  1.5871
  519MOL0     H70011   9.296   0.177   6.967  0.3485  2.7776 -1.3339
  519MOL0     H70012   9.482  -0.068   6.911  0.3577 -0.4862 -0.7167
  519MOL0     H70013   9.317  -0.052   6.852  0.0721 -0.5999  0.4647
  519MOL0     H70014   9.416  -0.051   7.130  2.3188 -0.8367 -1.4601
  519MOL0     H70015   9.239  -0.035   7.093  0.6953 -0.1701  1.0790
  519MOL0     H70016   9.548  -0.261   7.144  0.2126 -0.5984 -1.9342
  519MOL0     H70017   9.609  -0.516   7.144 -0.7421  1.2477  0.8893
  519MOL0     H70018   9.465  -0.617   7.144 -2.4972  0.7150 -1.0390
  519MOL0     H70019   9.465  -0.611   6.890 -1.9005 -1.2787  1.1211
  519MOL0     H70020   9.608  -0.508   6.906  0.3345  0.5019  1.0077
  519MOL0     H70021   9.588  -0.793   7.019 -1.8616  1.2470  0.7471
  519MOL0     H70022   9.749  -0.713   6.992  1.1602  0.1187 -1.2087
  519MOL0     H70023   9.568  -0.841   6.788  0.6401 -0.6904  2.1465
  519MOL0     H70024   9.741  -0.862   6.838  1.6251 -0.0050  0.7034
  519MOL0     H70025   9.916  -0.803   6.782 -2.0454  0.5919  1.6625
  519MOL0     H70026  10.126  -0.747   6.681 -0.5877  0.7852  1.6426
  519MOL0     H70027  10.486  -0.548   6.613 -1.4109 -0.7077 -0.0030
  519MOL0     H70028  10.700  -0.532   6.505  0.8206 -0.3736 -0.5207
  519MOL0     H70029  10.776  -0.778   6.127  2.4591 -1.9083 -0.5139
  519MOL0     H70030  10.789  -0.600   6.092 -0.3292  0.1781 -0.0292
  519MOL0     H70031  11.012  -0.582   6.179  2.5103  0.1852 -2.7253
  519MOL0     H70032  11.007  -0.760   6.228  2.4871 -1.3019 -2.1606
  519MOL0     H70033  11.038  -0.829   5.996  3.0730  0.6278 -1.9501
  519MOL0     H70034  10.958  -0.688   5.938 -1.0316 -0.4056  1.8711
  519MOL0     H70035  11.220  -0.649   6.078 -0.5275 -1.6494  0.2059
  519MOL0     H70036  11.141  -0.548   5.951  1.6506 -0.5902 -1.5289
  519MOL0     H70037  11.328  -0.630   5.865  0.4737 -1.3846  1.4301
  519MOL0     H70038  11.191  -0.710   5.782 -0.3476  0.2294 -0.5736
  519MOL0     H70039  11.333  -0.836   6.018 -4.5966  4.0659  1.9487
  519MOL0     H70040  11.222  -0.912   5.913 -0.1195  0.3489 -1.0183
  519MOL0     H70041  11.458  -0.975   5.891 -3.5198 -1.0436  1.2373
  519MOL0     H70042  11.499  -0.810   5.821  0.6425  0.0321  2.8801
  519MOL0     H70043  11.360  -1.052   5.701  0.3745 -0.0238 -1.0958
  519MOL0     H70044  11.312  -0.896   5.652 -0.8144  2.8035  4.2798
  519MOL0     H70045  10.555  -0.731   6.154  2.6639 -0.7216  1.4225
  519MOL0     H70046  10.321  -0.749   6.278 -2.5294  3.1902  0.3453
  519MOL0     H70047   9.937  -0.439   6.444 -1.5234 -0.3568  0.1204
  519MOL0     H70048   9.717  -0.498   6.554  2.5866  2.7110  0.2940
  519MOL0     H70049   9.412   1.013   7.018 -0.4973  1.5453  1.1178
  519MOL0     H70050   9.500   1.123   7.234 -2.5169  0.0654 -3.0397
  519MOL0     H70051   9.792   1.055   7.570 -0.2541  3.1621 -1.1738
  519MOL0     H70052   9.909   1.122   7.771 -0.3032  0.0083 -1.1322
  519MOL0     H70053   9.669   1.336   8.021  1.3710 -1.3906 -3.6581
  519MOL0     H70054   9.822   1.361   8.104 -2.0167  1.3950 -0.9563
  519MOL0     H70055   9.757   1.200   8.266 -1.0246  0.4068  0.4080
  519MOL0     H70056   9.626   1.140   8.169  1.3537 -0.6166 -1.7879
  519MOL0     H70057   9.656   1.429   8.296 -1.2749 -0.3580  4.9797
  519MOL0     H70058   9.595   1.313   8.391  1.7731  1.7268 -0.1701
  519MOL0     H70059   9.415   1.291   8.173 -2.0875  1.5376  0.3518
  519MOL0     H70060   9.386   1.399   8.313  2.5647  3.1910  2.2835
  519MOL0     H70061   9.378   1.653   7.984  0.3645  2.1029  2.2204
  519MOL0     H70062   9.541   1.138   7.984 -0.6537  1.6874 -0.8100
  519MOL0     H70063   9.344   1.172   7.860 -1.5132  0.8831 -0.3466
  519MOL0     H70064   9.338   1.154   7.682  1.3950 -2.8708 -1.9781
  519MOL0     H70065   9.307   1.014   7.776  0.2144 -1.1246 -4.0268
  520MOL0     O70066  10.122   6.093   0.515 -0.4820 -0.6278 -0.4079
  520MOL0     C70067  10.040   6.178   0.489  0.5610  0.9795  0.8904
  520MOL0     O70068  10.053   6.275   0.392  1.2918 -0.0584 -1.3115
  520MOL0     C70069  10.115   6.260   0.271 -0.1230  0.2514 -0.7078
  520MOL0     C70070  10.069   6.350   0.171 -0.1392  0.0322  0.9043
  520MOL0     C70071  10.106   6.330   0.039  0.2205  0.1212  0.3719
  520MOL0     C70072  10.196   6.237   0.001 -0.4122  0.2926 -0.0868
  520MOL0     O70073  10.250   6.228  -0.126  0.7973 -0.4621  0.8202
  520MOL0     C70074  10.287   6.353  -0.195  1.4797  0.1802 -0.0673
  520MOL0     C70075  10.391   6.437  -0.112 -0.7532  0.6596  0.5864
  520MOL0     C70076  10.519   6.354  -0.083 -0.2265 -0.6083  0.2007
  520MOL0     C70077  10.597   6.433   0.025  0.6959 -0.0593 -0.5124
  520MOL0     C70078  10.743   6.394   0.027 -0.4693 -0.1786  0.2982
  520MOL0     C70079  10.815   6.448   0.154  0.3464 -0.1171  0.2178
  520MOL0     C70080  10.942   6.384   0.181 -0.0547 -0.8693 -1.2375
  520MOL0     C70081  10.964   6.388   0.337  0.0908 -0.8072  0.5033
  520MOL0     N70082  10.980   6.529   0.392  0.4243  0.2759 -0.1365
  520MOL0     C70083  10.928   6.567   0.514  0.4175 -0.6034 -0.2390
  520MOL0     C70084  10.904   6.703   0.512  0.1434  0.2079  0.3045
  520MOL0     C70085  10.848   6.785   0.624 -1.1500 -0.1165 -0.0553
  520MOL0     C70086  10.696   6.758   0.658  0.8243  0.0963  0.1753
  520MOL0     C70087  10.588   6.774   0.539  0.4196 -0.6733 -0.3551
  520MOL0     C70088  10.574   6.913   0.478  0.2915  1.0063 -0.5263
  520MOL0     O70089  10.472   6.901   0.377 -0.3499  1.5511 -0.7509
  520MOL0     C70090  10.498   6.907   0.244  0.5778 -0.5124 -0.5626
  520MOL0     C70091  10.398   6.940   0.156  0.4263 -0.4337  0.2031
  520MOL0     C70092  10.417   6.930   0.017  0.4071 -0.5575  0.1963
  520MOL0     C70093  10.533   6.882  -0.040  0.1585 -0.6370  0.4666
  520MOL0     C70094  10.543   6.884  -0.187 -0.7243  0.4246 -0.8359
  520MOL0     O70095  10.666   6.837  -0.247 -0.0782 -0.9647 -0.1692
  520MOL0     C70096  10.662   6.826  -0.386  0.8551 -0.0538 -0.6850
  520MOL0     C70097  10.580   6.723  -0.430  0.2191  0.3304 -0.1243
  520MOL0     C70098  10.571   6.691  -0.562 -0.2644  0.1799  0.4346
  520MOL0     C70099  10.631   6.764  -0.663 -0.0681 -0.1303 -0.5363
  520MOL0     O70100  10.605   6.734  -0.796  0.2571  1.0308 -0.4891
  520MOL0     C70101  10.604   6.842  -0.890 -0.0372 -0.5360  0.3034
  520MOL0     C70102  10.504   6.798  -0.993  0.1480  0.8810 -0.3282
  520MOL0     C70103  10.555   6.669  -1.080  0.7396 -0.1902 -0.9631
  520MOL0     C70104  10.451   6.612  -1.178  0.5749  0.2924 -0.1552
  520MOL0     C70105  10.475   6.490  -1.266  0.8273  0.0356 -0.5777
  520MOL0     C70106  10.606   6.482  -1.351 -0.3384  0.3495  1.1107
  520MOL0     C70107  10.634   6.342  -1.403 -1.1601 -0.3569 -0.6645
  520MOL0     C70108  10.533   6.275  -1.486  0.2929 -0.5488 -1.0531
  520MOL0    Cl70109  10.591   6.107  -1.515  0.3889 -0.3840  0.4092
  520MOL0     C70110  10.716   6.874  -0.616 -0.1429  0.4596 -0.8085
  520MOL0     C70111  10.735   6.896  -0.481  0.0695  0.0482 -0.1484
  520MOL0     O70112  10.451   6.931  -0.258 -0.0253 -0.7699 -0.0371
  520MOL0     C70113  10.636   6.832   0.047 -0.5252  0.3335 -0.7465
  520MOL0     C70114  10.612   6.850   0.184 -0.1989 -0.3146  0.1842
  520MOL0     N70115  10.951   6.745   0.385 -0.4061 -0.3628  1.1236
  520MOL0     N70116  10.998   6.644   0.321  0.0820 -0.2104 -1.0130
  520MOL0     C70117  10.242   6.146   0.100  0.0470  0.3482 -0.1268
  520MOL0     C70118  10.200   6.155   0.231 -0.4485 -0.2864 -0.2295
  520MOL0     C70119   9.920   6.168   0.576  0.5086  0.4427 -0.2793
  520MOL0     C70120   9.935   6.123   0.708  0.6523  1.0935  0.5513
  520MOL0     C70121   9.828   6.113   0.796 -0.9434 -0.7211 -0.2320
  520MOL0     C70122   9.705   6.185   0.769 -0.4134 -0.2915 -1.1586
  520MOL0     O70123   9.597   6.198   0.859 -0.4691  0.8152 -0.0793
  520MOL0     C70124   9.619   6.158   0.999  0.4644 -0.3319 -0.5043
  520MOL0     C70125   9.490   6.202   1.079 -0.9339  1.4308 -0.0885
  520MOL0     C70126   9.485   6.135   1.214  0.7028  0.3088 -0.4109
  520MOL0     C70127   9.605   6.154   1.310 -0.2173  0.1072  0.0513
  520MOL0     C70128   9.732   6.094   1.276 -0.1355 -0.6881  0.5835
  520MOL0     C70129   9.835   6.038   1.242 -0.7425 -0.2882  0.2312
  520MOL0     C70130   9.698   6.242   0.650  0.0165  0.2099 -0.3344
  520MOL0     C70131   9.797   6.230   0.549 -0.3298 -0.3428 -0.3699
  520MOL0     C70132   9.775   6.296   0.410  0.3603 -0.2967 -0.2097
  520MOL0     H70133   9.980   6.411   0.181 -1.8535 -2.4316  1.7551
  520MOL0     H70134  10.059   6.401  -0.030 -1.0340 -0.3119  0.7523
  520MOL0     H70135  10.321   6.316  -0.292 -1.3369 -1.2338 -0.6344
  520MOL0     H70136  10.194   6.408  -0.213  0.6886 -1.6394 -2.0198
  520MOL0     H70137  10.353   6.494  -0.027  0.4188  1.0890  0.8495
  520MOL0     H70138  10.427   6.515  -0.179  1.4547 -0.0184  0.9015
  520MOL0     H70139  10.575   6.341  -0.176  0.6911  2.1937  0.2619
  520MOL0     H70140  10.502   6.251  -0.052  1.5796 -1.6867 -2.1013
  520MOL0     H70141  10.584   6.539   0.002 -0.8015  0.2890  1.6144
  520MOL0     H70142  10.557   6.413   0.125  2.3624 -1.2680 -0.0419
  520MOL0     H70143  10.749   6.284   0.027  0.2883 -0.1457  1.2043
  520MOL0     H70144  10.786   6.434  -0.065 -0.7663 -1.4610 -0.4362
  520MOL0     H70145  10.818   6.557   0.142 -1.7312 -0.0256  0.1154
  520MOL0     H70146  10.749   6.418   0.237  2.2662  1.2684  2.3456
  520MOL0     H70147  11.016   6.441   0.124 -3.4658  2.7862 -2.5708
  520MOL0     H70148  10.945   6.282   0.144 -0.7009 -0.2767 -3.0386
  520MOL0     H70149  10.888   6.331   0.392  1.1989 -0.5936  2.3565
  520MOL0     H70150  11.054   6.331   0.360  1.5039  0.3836 -1.7039
  520MOL0     H70151  10.900   6.505   0.599  2.8032 -0.0615  1.0195
  520MOL0     H70152  10.906   6.760   0.713 -1.0848 -0.6567 -0.2466
  520MOL0     H70153  10.864   6.893   0.613 -0.4833 -0.2624 -0.5842
  520MOL0     H70154  10.682   6.657   0.697  0.0507  0.3294  0.5304
  520MOL0     H70155  10.656   6.824   0.736 -1.0010 -0.6861 -0.0475
  520MOL0     H70156  10.495   6.743   0.587  1.0216  2.4317  3.2374
  520MOL0     H70157  10.607   6.710   0.451 -0.7795 -2.5625  0.6950
  520MOL0     H70158  10.674   6.942   0.445  0.9060  0.1527  0.5073
  520MOL0     H70159  10.543   6.989   0.551 -1.1403 -1.5018  1.6738
  520MOL0     H70160  10.313   6.992   0.199  0.2062 -1.1514  0.6647
  520MOL0     H70161  10.340   6.967  -0.050  0.1580 -0.3674  0.5772
  520MOL0     H70162  10.503   6.676  -0.370 -0.5671  1.6069 -0.1114
  520MOL0     H70163  10.495   6.619  -0.591 -0.2568  0.1815  0.4114
  520MOL0     H70164  10.585   6.940  -0.845 -0.9151  0.6247 -2.4195
  520MOL0     H70165  10.696   6.858  -0.946 -0.5988  1.6244 -0.0667
  520MOL0     H70166  10.405   6.770  -0.956 -0.3100  2.0785 -0.5955
  520MOL0     H70167  10.493   6.879  -1.066  0.8554  0.7277 -0.6166
  520MOL0     H70168  10.650   6.694  -1.129  2.0696 -1.8851  0.6245
  520MOL0     H70169  10.573   6.589  -1.009 -1.1706  1.1797  1.2126
  520MOL0     H70170  10.418   6.689  -1.249 -0.7341 -1.0985 -1.1236
  520MOL0     H70171  10.353   6.609  -1.129 -1.6917  2.9231 -3.9226
  520MOL0     H70172  10.400   6.474  -1.344  0.8040 -2.7800 -0.0979
  520MOL0     H70173  10.479   6.411  -1.191 -1.9802  0.6038  0.2744
  520MOL0     H70174  10.592   6.553  -1.433 -1.1851  0.9493  1.7604
  520MOL0     H70175  10.691   6.516  -1.291  1.1901  0.9110 -1.2120
  520MOL0     H70176  10.674   6.275  -1.326  2.9674  0.9330 -1.4477
  520MOL0     H70177  10.722   6.341  -1.469 -1.8991 -2.2627 -1.7085
  520MOL0     H70178  10.433   6.271  -1.441 -0.3141  0.3917 -2.2556
  520MOL0     H70179  10.507   6.321  -1.582 -2.9149 -0.3180 -0.2093
  520MOL0     H70180  10.766   6.935  -0.690  0.7291  2.2829  1.1798
  520MOL0     H70181  10.812   6.964  -0.448  1.3061 -0.1652 -2.3894
  520MOL0     H70182  10.729   6.785   0.015 -0.6018 -1.0225  0.8427
  520MOL0     H70183  10.690   6.813   0.251 -1.9601 -0.6252  2.1719
  520MOL0     H70184  10.302   6.065   0.062 -0.0940 -1.1781  2.6469
  520MOL0     H70185  10.237   6.085   0.305  0.3528  0.7697  0.4089
  520MOL0     H70186  10.022   6.068   0.745 -2.5391 -3.4436  2.2241
  520MOL0     H70187   9.841   6.062   0.891 -2.5862 -0.5563  0.1021
  520MOL0     H70188   9.710   6.204   1.039  0.4932 -0.3721 -0.5229
  520MOL0     H70189   9.633   6.051   1.015 -0.9060 -0.4671 -0.0168
  520MOL0     H70190   9.408   6.159   1.021 -0.0719 -0.0909 -0.2206
  520MOL0     H70191   9.489   6.311   1.087 -0.2226  1.3955  0.5111
  520MOL0     H70192   9.460   6.029   1.200 -0.0673  0.3684  0.3640
  520MOL0     H70193   9.402   6.182   1.267 -0.3999 -0.1935 -1.6205
  520MOL0     H70194   9.633   6.260   1.302  2.2990 -0.5808 -1.1976
  520MOL0     H70195   9.583   6.125   1.413 -0.1881  0.3132  0.1167
  520MOL0     H70196   9.920   5.973   1.238 -1.0861 -1.2351  3.9872
  520MOL0     H70197   9.616   6.306   0.618  0.0623  0.5746  0.2574
  520MOL0     H70198   9.830   6.226   0.346 -0.1170 -2.0524  1.2200
  520MOL0     H70199   9.667   6.301   0.399  0.2622  1.6659  1.2158
  520MOL0     H70200   9.816   6.396   0.393 -1.4389  0.6007  0.4974
  521MOL0     O70201   6.867  10.883   6.664 -0.5964 -0.4616  0.5283
  521MOL0     C70202   6.952  10.971   6.692 -0.4478  0.9047  0.9478
  521MOL0     O70203   6.930  11.103   6.676 -0.0245 -0.4669 -0.4463
  521MOL0     C70204   6.804  11.149   6.690  0.7333  0.1205  0.5213
  521MOL0     C70205   6.739  11.151   6.813 -0.1728  0.6435 -0.5535
  521MOL0     C70206   6.630  11.229   6.851 -0.5963 -0.5493  0.0125
  521MOL0     C70207   6.581  11.321   6.749 -0.4210  0.1971  0.2223
  521MOL0     O70208   6.481  11.410   6.762  0.5002 -0.2805  0.5503
  521MOL0     C70209   6.393  11.393   6.871 -0.3613  0.4138  0.2254
  521MOL0     C70210   6.270  11.465   6.871 -1.0022  0.3299 -0.3283
  521MOL0     C70211   6.190  11.437   6.737  0.2063 -0.9662  0.7909
  521MOL0     C70212   6.067  11.530   6.728  0.1811 -0.1871  0.2164
  521MOL0     C70213   5.970  11.478   6.625  0.6788 -0.0630  0.9099
  521MOL0     C70214   5.849  11.577   6.599 -0.0508  1.1634 -1.0188
  521MOL0     C70215   5.816  11.576   6.453 -0.2067 -0.1794  0.0766
  521MOL0     C70216   5.671  11.630   6.432 -0.0941 -0.2896  0.1046
  521MOL0     N70217   5.555  11.538   6.418  0.0633  0.7406 -0.4209
  521MOL0     C70218   5.557  11.408   6.361  0.1347 -0.6173  0.2051
  521MOL0     C70219   5.425  11.380   6.340 -0.7925 -0.7181  0.9968
  521MOL0     C70220   5.383  11.246   6.282  1.1373 -0.2682  0.7344
  521MOL0     C70221   5.348  11.230   6.133 -0.0736 -0.0076 -0.0686
  521MOL0     C70222   5.223  11.313   6.097  0.1698 -0.2265  0.1828
  521MOL0     C70223   5.103  11.314   6.200 -0.7225  0.2883  0.3945
  521MOL0     O70224   5.050  11.186   6.234 -1.1481  0.5048  0.7418
  521MOL0     C70225   4.947  11.197   6.320 -0.2012 -0.0802 -0.9144
  521MOL0     C70226   4.843  11.105   6.294 -0.4793  0.2388  0.7938
  521MOL0     C70227   4.728  11.102   6.376  0.2225  0.7614  0.1895
  521MOL0     C70228   4.729  11.175   6.492  0.2168 -0.8075 -0.6050
  521MOL0     C70229   4.614  11.159   6.586 -1.0390  0.5474 -0.7339
  521MOL0     O70230   4.623  11.221   6.713 -1.1456  0.1008 -0.2686
  521MOL0     C70231   4.510  11.216   6.792 -1.0934  0.0516  0.3775
  521MOL0     C70232   4.468  11.341   6.836 -0.1727 -0.3231 -0.1394
  521MOL0     C70233   4.372  11.348   6.934  0.2648 -0.5393 -0.8735
  521MOL0     C70234   4.311  11.230   6.978  0.6737  0.1691  0.2896
  521MOL0     O70235   4.203  11.230   7.068  0.3559  0.1018  0.1326
  521MOL0     C70236   4.221  11.310   7.186  1.6946 -0.4584  1.0819
  521MOL0     C70237   4.122  11.270   7.298 -0.5037 -0.0579 -0.5727
  521MOL0     C70238   3.967  11.256   7.272  0.8646  0.2566 -0.0409
  521MOL0     C70239   3.905  11.389   7.283  0.1533 -0.1833  0.5004
  521MOL0     C70240   3.751  11.375   7.250  0.4266  0.3030 -0.8630
  521MOL0     C70241   3.687  11.523   7.246 -1.2208 -0.1241 -0.2590
  521MOL0     C70242   3.535  11.503   7.266 -0.0896  0.3290 -0.1830
  521MOL0     C70243   3.441  11.515   7.144  0.7545  0.0981 -0.4459
  521MOL0    Cl70244   3.439  11.663   7.043 -0.4095 -0.3199  0.2801
  521MOL0     C70245   4.341  11.106   6.923 -0.4288 -0.2764  0.1999
  521MOL0     C70246   4.453  11.101   6.838 -0.2033  0.8071 -0.3610
  521MOL0     O70247   4.515  11.096   6.548  0.3198  0.6357  0.9010
  521MOL0     C70248   4.838  11.257   6.522  0.0531  0.9545  0.0268
  521MOL0     C70249   4.951  11.267   6.442  0.2549  0.1527 -0.0959
  521MOL0     N70250   5.351  11.482   6.399 -0.3807 -0.0187 -0.4223
  521MOL0     N70251   5.430  11.582   6.430  0.4106 -0.8922 -0.3442
  521MOL0     C70252   6.643  11.320   6.618 -0.5644 -0.4367  0.0198
  521MOL0     C70253   6.761  11.242   6.598 -0.7370 -0.7702  0.1835
  521MOL0     C70254   7.087  10.926   6.722 -0.8112  0.5177  0.0554
  521MOL0     C70255   7.128  10.796   6.683 -0.3291 -0.0534 -0.3904
  521MOL0     C70256   7.250  10.743   6.706 -0.3963  0.2848 -0.3498
  521MOL0     C70257   7.343  10.821   6.775 -0.0387 -0.6858 -0.1765
  521MOL0     O70258   7.466  10.771   6.798 -0.1465  0.3562  0.0487
  521MOL0     C70259   7.587  10.848   6.809 -0.3682  0.6526  0.1245
  521MOL0     C70260   7.707  10.780   6.737 -0.1142 -0.3834  0.1499
  521MOL0     C70261   7.828  10.878   6.744 -0.0558  1.0349  0.7313
  521MOL0     C70262   7.953  10.787   6.704  0.7906 -0.6970  0.4921
  521MOL0     C70263   7.955  10.683   6.809  0.6800  0.7820  0.5343
  521MOL0     C70264   7.966  10.606   6.904  0.1591 -0.0574  0.2770
  521MOL0     C70265   7.307  10.951   6.820 -0.4858  0.3219  1.0808
  521MOL0     C70266   7.183  11.002   6.793  0.6828  1.0363 -0.3962
  521MOL0     C70267   7.164  11.146   6.838  0.2660 -0.8981  0.2051
  521MOL0     H70268   6.777  11.093   6.897 -0.5903 -0.6483 -1.2471
  521MOL0     H70269   6.581  11.233   6.948 -1.9424  3.4520 -0.6433
  521MOL0     H70270   6.365  11.290   6.895 -1.1231  0.6961  0.5833
  521MOL0     H70271   6.445  11.423   6.963  0.6429  0.5402 -0.3631
  521MOL0     H70272   6.283  11.573   6.883 -1.8987  0.3592  0.5907
  521MOL0     H70273   6.214  11.435   6.960 -0.7729  1.4493  0.2160
  521MOL0     H70274   6.157  11.333   6.733 -1.1206 -0.5293 -0.3030
  521MOL0     H70275   6.256  11.454   6.651  0.3839  0.5394  1.2058
  521MOL0     H70276   6.014  11.533   6.824 -0.9546  1.4945 -0.3998
  521MOL0     H70277   6.088  11.636   6.711  0.1035  0.1519  1.9529
  521MOL0     H70278   6.028  11.493   6.534  2.3318  4.4643  2.4119
  521MOL0     H70279   5.933  11.377   6.642  1.1405 -0.5493 -0.7686
  521MOL0     H70280   5.760  11.552   6.657 -0.2573  0.4544 -1.6389
  521MOL0     H70281   5.879  11.681   6.620  1.7207  0.4208  0.4069
  521MOL0     H70282   5.826  11.474   6.416  0.0249 -0.1215 -0.0237
  521MOL0     H70283   5.898  11.634   6.409  2.4562 -1.3453  3.0581
  521MOL0     H70284   5.637  11.702   6.507  0.8321 -0.2952  0.5421
  521MOL0     H70285   5.662  11.693   6.344 -2.6098  1.2378  1.3332
  521MOL0     H70286   5.641  11.352   6.323  0.5092  0.4382 -0.5778
  521MOL0     H70287   5.456  11.173   6.319  0.1908 -0.9041  1.4128
  521MOL0     H70288   5.291  11.225   6.338 -0.1112  1.6834 -0.4563
  521MOL0     H70289   5.427  11.273   6.071 -0.1110  3.5472  2.0214
  521MOL0     H70290   5.334  11.127   6.100 -0.2978  0.9596 -3.2909
  521MOL0     H70291   5.180  11.279   6.003  0.5676  1.8995 -0.8123
  521MOL0     H70292   5.257  11.411   6.062 -1.2472 -0.4966 -2.1537
  521MOL0     H70293   5.026  11.361   6.139  0.4948  2.4874  0.4346
  521MOL0     H70294   5.118  11.377   6.288  0.7967 -2.8094  2.5353
  521MOL0     H70295   4.857  11.050   6.202 -1.8745 -2.0412  1.8577
  521MOL0     H70296   4.630  11.074   6.338  1.0138 -1.6173 -0.2716
  521MOL0     H70297   4.521  11.431   6.808 -3.1690  1.9576  0.9310
  521MOL0     H70298   4.341  11.439   6.984 -1.0047 -1.6133  0.3552
  521MOL0     H70299   4.317  11.286   7.232  0.9569 -2.6416  1.5989
  521MOL0     H70300   4.209  11.418   7.173 -0.8382 -0.5606  2.0095
  521MOL0     H70301   4.147  11.172   7.340  0.6490  0.7548  0.6966
  521MOL0     H70302   4.148  11.342   7.376 -1.9541  0.9244 -0.9461
  521MOL0     H70303   3.962  11.208   7.174 -0.1050 -4.2183  1.9806
  521MOL0     H70304   3.927  11.192   7.351  2.5748  0.2209  0.8343
  521MOL0     H70305   3.951  11.455   7.208 -1.7009  0.8094  0.1903
  521MOL0     H70306   3.924  11.432   7.382  0.4752 -1.2253  0.9068
  521MOL0     H70307   3.706  11.315   7.330 -1.5632  1.0416 -1.3718
  521MOL0     H70308   3.724  11.322   7.159  3.1184  0.6199 -1.9388
  521MOL0     H70309   3.729  11.574   7.333 -1.2433  0.9228 -0.8474
  521MOL0     H70310   3.721  11.584   7.161 -0.3904  0.0903  0.2157
  521MOL0     H70311   3.504  11.582   7.334  3.0766  2.1395 -0.6494
  521MOL0     H70312   3.508  11.408   7.313 -0.3587  1.2195  1.5370
  521MOL0     H70313   3.485  11.440   7.078  2.7125  0.4661  0.3824
  521MOL0     H70314   3.340  11.498   7.182  0.7710 -0.6532 -0.7105
  521MOL0     H70315   4.280  11.024   6.959 -0.5867 -0.5878 -0.7428
  521MOL0     H70316   4.489  11.002   6.811 -3.4364 -0.8492  0.9410
  521MOL0     H70317   4.841  11.305   6.619  1.7526 -1.3856  1.1999
  521MOL0     H70318   5.038  11.316   6.484 -1.3703  1.8799  1.4817
  521MOL0     H70319   6.605  11.367   6.528  0.5839  0.2924 -0.1098
  521MOL0     H70320   6.809  11.242   6.501  0.7582 -0.3061  0.8887
  521MOL0     H70321   7.054  10.736   6.630 -2.0217 -0.1632  1.9409
  521MOL0     H70322   7.273  10.637   6.698  0.0635  0.2726  0.9213
  521MOL0     H70323   7.630  10.855   6.909 -0.0510  0.1734  0.0231
  521MOL0     H70324   7.575  10.948   6.766 -0.1388  1.1870  1.2594
  521MOL0     H70325   7.684  10.768   6.631  0.1250  1.8335 -0.1953
  521MOL0     H70326   7.722  10.679   6.777 -0.2248 -0.3582  0.2533
  521MOL0     H70327   7.837  10.919   6.845 -4.6543  1.2627  1.2166
  521MOL0     H70328   7.827  10.958   6.670  0.1283  0.1524 -0.2556
  521MOL0     H70329   7.940  10.753   6.601 -3.4722  2.8767 -0.4442
  521MOL0     H70330   8.040  10.854   6.702 -0.8051  1.4519 -0.6636
  521MOL0     H70331   7.946  10.536   6.982  1.9837  0.8431  1.6294
  521MOL0     H70332   7.379  11.019   6.866  0.4511  0.9021 -1.0885
  521MOL0     H70333   7.072  11.160   6.896  0.5470 -1.9002  0.9355
  521MOL0     H70334   7.244  11.198   6.891 -0.9291  1.2151  0.0138
  521MOL0     H70335   7.149  11.198   6.743  2.1604 -0.1879  0.2685
  522MOL0     O70336   0.835   1.348  10.154 -0.0486 -0.8929  0.4738
  522MOL0     C70337   0.824   1.452  10.220 -0.0790 -0.6568  0.1925
  522MOL0     O70338   0.827   1.574  10.166 -0.8518 -0.0511 -0.1542
  522MOL0     C70339   0.845   1.579  10.033 -0.8311  0.1398 -0.2638
  522MOL0     C70340   0.725   1.591   9.950  0.3300 -0.0705 -0.5755
  522MOL0     C70341   0.740   1.596   9.810 -0.8960  0.5710 -0.0185
  522MOL0     C70342   0.868   1.617   9.755 -0.3024  0.3315  0.6060
  522MOL0     O70343   0.885   1.636   9.618 -0.2353 -1.0300 -0.1808
  522MOL0     C70344   0.818   1.753   9.574  0.3431 -0.5818 -0.0310
  522MOL0     C70345   0.930   1.849   9.511 -0.0042  0.9296  0.1527
  522MOL0     C70346   0.883   1.975   9.431 -0.1157  0.1895 -0.3381
  522MOL0     C70347   0.995   2.055   9.382  0.2151 -0.0741 -0.2161
  522MOL0     C70348   0.958   2.180   9.296 -0.3654  0.2160  0.3466
  522MOL0     C70349   0.889   2.156   9.167  0.9353  0.5510 -0.8472
  522MOL0     C70350   0.955   2.042   9.082  0.3022  0.2394  0.3727
  522MOL0     C70351   0.901   2.036   8.939  0.1430 -0.3887  0.6692
  522MOL0     N70352   0.757   2.009   8.931  0.2946 -0.3372 -0.1488
  522MOL0     C70353   0.703   1.894   8.984  0.3315 -0.1846 -0.2619
  522MOL0     C70354   0.570   1.921   8.983  0.2482 -1.3252 -0.3045
  522MOL0     C70355   0.476   1.834   9.061  0.1884 -1.3660  0.4379
  522MOL0     C70356   0.503   1.848   9.214  0.2886 -0.0628  0.0690
  522MOL0     C70357   0.416   1.722   9.269  0.6123  0.5374 -0.4229
  522MOL0     C70358   0.426   1.701   9.417 -0.4683  0.3605  0.0333
  522MOL0     O70359   0.343   1.796   9.484 -0.4435  0.0380  0.2222
  522MOL0     C70360   0.362   1.799   9.623  0.2227 -0.1846 -0.4138
  522MOL0     C70361   0.343   1.916   9.688 -0.3161 -1.0360 -0.0183
  522MOL0     C70362   0.361   1.921   9.825  0.3426  0.3110 -0.9744
  522MOL0     C70363   0.384   1.800   9.899 -0.7079 -0.1835  0.3399
  522MOL0     C70364   0.399   1.802  10.049  0.1502  0.2841 -0.4686
  522MOL0     O70365   0.359   1.906  10.121  0.3188  0.1919 -0.7319
  522MOL0     C70366   0.390   1.902  10.256 -0.3616  0.0341 -0.5002
  522MOL0     C70367   0.527   1.920  10.294 -0.4083 -0.1084  0.4197
  522MOL0     C70368   0.566   1.942  10.422  0.1288 -0.4668  0.3974
  522MOL0     C70369   0.468   1.923  10.519 -0.0392 -1.0322 -0.0752
  522MOL0     O70370   0.496   1.908  10.659 -0.1612  0.3626  0.6949
  522MOL0     C70371   0.624   1.845  10.699  1.3089 -0.2949 -0.2792
  522MOL0     C70372   0.625   1.816  10.854 -0.0485 -0.3450 -0.7048
  522MOL0     C70373   0.626   1.924  10.958 -0.3374  0.1970 -0.3626
  522MOL0     C70374   0.590   1.878  11.102  0.2768 -0.1410  0.2160
  522MOL0     C70375   0.474   1.942  11.170  0.3989 -0.0358  0.0107
  522MOL0     C70376   0.340   1.923  11.100  0.2493  0.1606  0.5094
  522MOL0     C70377   0.216   1.984  11.185  0.5347 -0.3282 -0.1588
  522MOL0     C70378   0.097   1.969  11.095 -0.1693  0.6217  0.8738
  522MOL0    Cl70379   0.069   1.801  11.030  0.1221  0.0944 -0.0467
  522MOL0     C70380   0.334   1.901  10.490  0.1746 -0.2216  0.7303
  522MOL0     C70381   0.297   1.893  10.360 -0.2619  0.5593  0.2499
  522MOL0     O70382   0.446   1.696  10.096 -0.1174  0.2267  0.2960
  522MOL0     C70383   0.401   1.677   9.833  0.3492  0.5914  0.2978
  522MOL0     C70384   0.396   1.674   9.695  0.0203  0.2371  0.2195
  522MOL0     N70385   0.550   2.053   8.934  0.6865  0.6555  0.8379
  522MOL0     N70386   0.662   2.104   8.905 -0.5031  0.2996 -0.4479
  522MOL0     C70387   0.982   1.629   9.837 -1.7639 -1.2337 -0.8681
  522MOL0     C70388   0.971   1.611   9.980  0.1311  0.6622  0.7886
  522MOL0     C70389   0.799   1.448  10.357 -0.6406 -0.3587 -0.4953
  522MOL0     C70390   0.891   1.373  10.433  0.7772 -0.3324 -0.8964
  522MOL0     C70391   0.870   1.363  10.572 -0.6841 -0.2158 -0.2374
  522MOL0     C70392   0.759   1.407  10.639  0.1171 -0.6087 -0.2787
  522MOL0     O70393   0.754   1.392  10.778 -0.5609 -0.3540  0.4436
  522MOL0     C70394   0.626   1.396  10.840  0.0735 -0.1541 -1.0266
  522MOL0     C70395   0.547   1.266  10.832  0.0712 -0.0349 -0.9700
  522MOL0     C70396   0.438   1.269  10.726  0.0317 -0.1642  0.1329
  522MOL0     C70397   0.326   1.175  10.772 -0.2337 -0.0124 -0.6257
  522MOL0     C70398   0.372   1.033  10.789 -0.5257 -0.2888 -0.4408
  522MOL0     C70399   0.407   0.918  10.790 -0.2637  0.3459 -0.4897
  522MOL0     C70400   0.660   1.474  10.562 -0.4775 -0.6111 -0.3432
  522MOL0     C70401   0.681   1.503  10.425 -0.0958 -0.9073  0.5619
  522MOL0     C70402   0.577   1.572  10.346 -0.4976 -0.1594  0.0243
  522MOL0     H70403   0.636   1.574  10.010  0.8279  0.5487  0.3775
  522MOL0     H70404   0.647   1.591   9.754 -3.0273  2.9350  2.9282
  522MOL0     H70405   0.739   1.738   9.499 -0.5908 -0.8844  0.9836
  522MOL0     H70406   0.765   1.808   9.652 -3.2977 -3.2912 -0.3327
  522MOL0     H70407   0.990   1.802   9.433 -0.2730  1.8050 -0.6037
  522MOL0     H70408   0.992   1.889   9.591 -0.0413  0.2671  0.5179
  522MOL0     H70409   0.810   2.030   9.491 -0.9642 -1.9530  0.7161
  522MOL0     H70410   0.821   1.945   9.346 -1.4471 -2.9028  1.5356
  522MOL0     H70411   1.054   2.088   9.468  1.0351 -0.6505 -0.5470
  522MOL0     H70412   1.058   1.985   9.328 -0.1905 -1.0068  0.5001
  522MOL0     H70413   0.889   2.244   9.353 -2.0904 -1.1208 -0.1435
  522MOL0     H70414   1.048   2.234   9.267  0.1326 -0.6113  0.3428
  522MOL0     H70415   0.782   2.151   9.186  1.4609 -0.7104  2.6250
  522MOL0     H70416   0.889   2.248   9.107 -0.1717  0.7281 -0.5971
  522MOL0     H70417   0.945   1.942   9.124  0.1291  0.7903  1.6903
  522MOL0     H70418   1.062   2.065   9.078  0.1355  0.8589 -1.7179
  522MOL0     H70419   0.915   2.130   8.885  2.4594 -0.7597  0.5156
  522MOL0     H70420   0.960   1.960   8.886 -2.7192 -2.6386  0.4304
  522MOL0     H70421   0.752   1.814   9.039  0.0968  0.7560  1.3837
  522MOL0     H70422   0.372   1.850   9.034  0.0458 -0.7381  1.2966
  522MOL0     H70423   0.500   1.730   9.036 -0.3989 -0.6484 -3.9186
  522MOL0     H70424   0.605   1.847   9.254  0.6083 -2.4033 -0.6776
  522MOL0     H70425   0.463   1.946   9.240  3.0412  0.8137  1.4079
  522MOL0     H70426   0.448   1.628   9.223 -0.6708  0.1908 -0.6475
  522MOL0     H70427   0.311   1.741   9.245  0.2740  0.3550  0.8287
  522MOL0     H70428   0.532   1.716   9.443 -0.8612  1.7012  0.9591
  522MOL0     H70429   0.384   1.605   9.448  0.8352  0.0007  0.7683
  522MOL0     H70430   0.342   2.010   9.635 -1.3054 -0.8123  0.3587
  522MOL0     H70431   0.374   2.014   9.880  1.3415 -0.6490  0.4937
  522MOL0     H70432   0.597   1.935  10.212 -1.7841 -5.0364 -2.1022
  522MOL0     H70433   0.669   1.969  10.442 -0.7820 -0.1436  6.2616
  522MOL0     H70434   0.636   1.749  10.648  3.9749  0.0249 -0.3788
  522MOL0     H70435   0.710   1.907  10.673  1.1337 -0.1986 -0.6262
  522MOL0     H70436   0.530   1.766  10.875 -0.4448  0.2529 -1.0475
  522MOL0     H70437   0.704   1.742  10.868 -1.2769 -1.7358 -0.8456
  522MOL0     H70438   0.728   1.964  10.951 -1.2698  2.6991 -0.5034
  522MOL0     H70439   0.554   1.999  10.925  0.6249  0.3883 -2.1444
  522MOL0     H70440   0.678   1.899  11.163 -0.2523 -1.2294  1.4139
  522MOL0     H70441   0.567   1.772  11.092  0.4528 -0.1677  0.0940
  522MOL0     H70442   0.494   2.049  11.168 -1.7369  0.4415  1.1165
  522MOL0     H70443   0.457   1.909  11.273 -0.3943 -2.8652 -0.9221
  522MOL0     H70444   0.332   1.977  11.005  1.4534 -2.2197 -1.0540
  522MOL0     H70445   0.342   1.814  11.091 -0.7121  0.0463  1.5255
  522MOL0     H70446   0.235   2.090  11.206  0.0547  0.5421 -3.5394
  522MOL0     H70447   0.209   1.931  11.280  1.4838 -2.4643 -1.1959
  522MOL0     H70448   0.010   2.001  11.153 -2.9716 -1.7682 -1.6669
  522MOL0     H70449   0.099   2.040  11.012 -6.1700 -0.5472 -0.6963
  522MOL0     H70450   0.255   1.885  10.563 -0.4607  0.4390  0.2045
  522MOL0     H70451   0.193   1.877  10.332  0.1622 -0.6362 -0.7119
  522MOL0     H70452   0.420   1.584   9.885  2.1766  0.7783  0.0232
  522MOL0     H70453   0.417   1.577   9.651  0.7656 -0.1718  1.4429
  522MOL0     H70454   1.084   1.653   9.807 -1.6394  1.2767  1.2806
  522MOL0     H70455   1.055   1.623  10.047  1.4780 -0.0032 -0.7143
  522MOL0     H70456   0.979   1.346  10.376  0.2861  2.3013 -3.1239
  522MOL0     H70457   0.939   1.309  10.636 -2.1574 -1.4328  0.4129
  522MOL0     H70458   0.553   1.472  10.811  0.8407  0.6230 -0.9903
  522MOL0     H70459   0.635   1.418  10.947  0.5984 -1.6479 -0.7375
  522MOL0     H70460   0.495   1.264  10.928  2.2440 -3.1988  0.3069
  522MOL0     H70461   0.619   1.184  10.825 -0.7206 -0.8387  0.0418
  522MOL0     H70462   0.485   1.231  10.635  2.4659 -0.6826  1.5046
  522MOL0     H70463   0.398   1.369  10.706 -2.1835 -0.6591  1.7202
  522MOL0     H70464   0.276   1.204  10.865  0.7410 -2.6993  0.8379
  522MOL0     H70465   0.250   1.173  10.694  0.8677  3.3918 -1.9663
  522MOL0     H70466   0.430   0.814  10.797 -1.6335  0.0869  0.7319
  522MOL0     H70467   0.577   1.533  10.601  2.0869  1.4122  2.4408
  522MOL0     H70468   0.505   1.617  10.416 -1.1512 -0.4318 -0.4663
  522MOL0     H70469   0.618   1.661  10.299  0.1336 -0.6152 -0.2909
  522MOL0     H70470   0.526   1.509  10.272  1.4872  0.2964 -1.8273
  523MOL0     O70471   4.703   4.709   2.503  0.0184  0.6572  0.1206
  523MOL0     C70472   4.808   4.696   2.448 -0.0963 -0.5817  0.2941
  523MOL0     O70473   4.931   4.749   2.493  0.1265 -0.0024 -0.5569
  523MOL0     C70474   4.923   4.837   2.604  0.4383  0.8999  0.0830
  523MOL0     C70475   4.983   4.789   2.715 -0.2033 -0.4549 -0.1576
  523MOL0     C70476   4.978   4.853   2.839 -1.8055 -0.2068 -0.7531
  523MOL0     C70477   4.915   4.983   2.840 -0.6870 -0.0420  0.1706
  523MOL0     O70478   4.906   5.062   2.950 -0.2558 -0.0063  0.1140
  523MOL0     C70479   4.900   4.989   3.076  0.7880 -0.0137 -0.0338
  523MOL0     C70480   4.851   5.102   3.177 -0.4802  0.7334 -0.4080
  523MOL0     C70481   4.817   5.038   3.311 -0.0814  0.2784 -0.9577
  523MOL0     C70482   4.859   5.120   3.435 -0.5390  0.4476 -0.7272
  523MOL0     C70483   4.742   5.152   3.529 -0.0435  0.4226 -0.2381
  523MOL0     C70484   4.644   5.257   3.466 -0.2120 -0.1760  0.4380
  523MOL0     C70485   4.523   5.286   3.542  0.7371  0.0417 -0.1772
  523MOL0     C70486   4.437   5.390   3.471  0.3705  0.7597 -0.0492
  523MOL0     N70487   4.298   5.405   3.537 -0.4269 -0.4765  0.4596
  523MOL0     C70488   4.274   5.485   3.642  0.1277  0.1077  0.3268
  523MOL0     C70489   4.145   5.468   3.672  0.4645  0.1360  0.1644
  523MOL0     C70490   4.081   5.563   3.772 -0.1363 -0.0954  0.2540
  523MOL0     C70491   3.971   5.663   3.721 -0.1503  0.2491 -0.1542
  523MOL0     C70492   3.942   5.778   3.817 -0.5200 -1.1595 -0.4058
  523MOL0     C70493   3.800   5.825   3.791  1.0741 -0.3066  0.1843
  523MOL0     O70494   3.757   5.888   3.923  0.5231  0.2872  0.2945
  523MOL0     C70495   3.628   5.936   3.940  1.0962 -0.8989  0.4974
  523MOL0     C70496   3.534   5.951   3.834 -0.1570 -0.8037  0.4732
  523MOL0     C70497   3.408   6.006   3.864 -0.1479  0.3927  0.1514
  523MOL0     C70498   3.374   6.055   3.991 -0.3571  0.2265 -0.5963
  523MOL0     C70499   3.255   6.136   4.021 -0.3450 -0.6846 -0.4616
  523MOL0     O70500   3.252   6.231   4.120 -0.0583 -0.0825 -0.2030
  523MOL0     C70501   3.131   6.283   4.132  0.0894 -0.3500  0.0435
  523MOL0     C70502   3.059   6.244   4.245  0.7873  0.1514  0.1171
  523MOL0     C70503   2.933   6.292   4.267  0.8300 -0.1516  0.0340
  523MOL0     C70504   2.875   6.390   4.175 -0.8315 -0.8948 -0.4952
  523MOL0     O70505   2.758   6.441   4.222 -0.7602  0.2454 -0.2314
  523MOL0     C70506   2.748   6.580   4.243  0.5632 -0.5024  0.3753
  523MOL0     C70507   2.735   6.613   4.392  0.0619  0.5873 -0.9559
  523MOL0     C70508   2.611   6.537   4.445  0.4703 -0.3164 -0.1626
  523MOL0     C70509   2.555   6.615   4.565 -0.0705  0.4542  0.4400
  523MOL0     C70510   2.418   6.546   4.596 -0.5709 -0.1811  0.9568
  523MOL0     C70511   2.357   6.642   4.701  0.5873  0.1450  0.1952
  523MOL0     C70512   2.203   6.624   4.700 -0.1338 -0.7314  1.0083
  523MOL0     C70513   2.160   6.494   4.764 -0.2093  0.3995 -1.0498
  523MOL0    Cl70514   2.153   6.364   4.641 -0.2823  0.0375 -0.3466
  523MOL0     C70515   2.951   6.436   4.064 -0.1800 -0.2513  0.0311
  523MOL0     C70516   3.072   6.368   4.029  0.1231 -0.4692 -0.2477
  523MOL0     O70517   3.161   6.121   3.946 -0.2989  0.4296 -0.5001
  523MOL0     C70518   3.468   6.027   4.097  0.9308 -0.2361 -0.1514
  523MOL0     C70519   3.591   5.967   4.072  0.1454 -0.2747 -0.5558
  523MOL0     N70520   4.093   5.360   3.591  0.7555 -0.9716 -0.6488
  523MOL0     N70521   4.193   5.325   3.521 -0.1461 -0.0460 -1.2575
  523MOL0     C70522   4.851   5.023   2.725  0.1618  0.0126 -0.0484
  523MOL0     C70523   4.863   4.959   2.606 -0.9317 -0.4251  1.1756
  523MOL0     C70524   4.831   4.607   2.334 -1.0081  1.2636  0.7353
  523MOL0     C70525   4.886   4.658   2.209 -0.4447  0.3928 -0.0797
  523MOL0     C70526   4.910   4.577   2.101  0.0549 -0.2929 -1.0671
  523MOL0     C70527   4.870   4.447   2.102  0.2968  0.0813  0.9661
  523MOL0     O70528   4.902   4.348   2.003 -0.3152 -0.2916  0.1308
  523MOL0     C70529   4.970   4.395   1.886  0.1965  0.7436 -0.3446
  523MOL0     C70530   5.000   4.275   1.799  0.2083 -0.2330 -0.3667
  523MOL0     C70531   4.875   4.229   1.725  0.5518  0.8350 -0.3488
  523MOL0     C70532   4.903   4.116   1.631  0.2420 -1.3119 -0.8917
  523MOL0     C70533   4.920   3.981   1.692 -0.0862 -0.7097 -0.3056
  523MOL0     C70534   4.936   3.865   1.731  0.0654 -0.5148 -0.3022
  523MOL0     C70535   4.801   4.397   2.218  0.1441 -0.0693  0.1418
  523MOL0     C70536   4.781   4.474   2.334  0.1362  0.8828 -0.1486
  523MOL0     C70537   4.735   4.407   2.460 -0.2312  0.1627  0.0209
  523MOL0     H70538   5.042   4.698   2.709  2.8787  1.2936  1.0437
  523MOL0     H70539   5.027   4.809   2.925 -1.6671  2.2177  0.4979
  523MOL0     H70540   4.819   4.916   3.073  2.5916 -2.1044 -0.5400
  523MOL0     H70541   4.994   4.940   3.104  0.7417  0.5609  1.2219
  523MOL0     H70542   4.753   5.132   3.138 -0.5553 -1.0097 -1.6677
  523MOL0     H70543   4.927   5.180   3.187  1.2177 -0.9154  0.1396
  523MOL0     H70544   4.878   4.948   3.322  1.8080  1.6167  0.1644
  523MOL0     H70545   4.709   5.022   3.311 -0.5264  2.6262  1.4594
  523MOL0     H70546   4.934   5.056   3.482  0.4024  0.7213 -1.8228
  523MOL0     H70547   4.907   5.212   3.401 -0.7063  1.4416  1.4879
  523MOL0     H70548   4.687   5.061   3.555  0.8928  0.3572  1.7680
  523MOL0     H70549   4.763   5.196   3.627 -2.9667 -0.7501  1.0299
  523MOL0     H70550   4.707   5.343   3.438  0.6209 -1.2552 -1.1729
  523MOL0     H70551   4.616   5.215   3.369  0.4613  1.5356 -0.5540
  523MOL0     H70552   4.547   5.314   3.645 -2.7458  2.7849  0.1065
  523MOL0     H70553   4.466   5.193   3.539  0.7329  0.0790 -1.7203
  523MOL0     H70554   4.486   5.487   3.465  0.3709  0.7933  0.4414
  523MOL0     H70555   4.412   5.348   3.373 -0.2997 -0.2776  0.5397
  523MOL0     H70556   4.344   5.554   3.688  0.1294 -0.8172  1.7919
  523MOL0     H70557   4.041   5.494   3.847 -0.1476 -0.7742 -0.3631
  523MOL0     H70558   4.160   5.616   3.825 -0.1458 -0.6570  0.8437
  523MOL0     H70559   3.995   5.704   3.623  2.3068 -6.7652 -3.1152
  523MOL0     H70560   3.879   5.604   3.711  0.7799 -1.3045  0.1963
  523MOL0     H70561   4.015   5.859   3.806 -2.1246  0.3688 -0.1484
  523MOL0     H70562   3.935   5.738   3.919 -0.7908 -1.8116 -0.6775
  523MOL0     H70563   3.734   5.739   3.774  1.0222 -0.0483 -1.0353
  523MOL0     H70564   3.810   5.895   3.707 -0.7687 -0.0437  0.1311
  523MOL0     H70565   3.564   5.922   3.734 -2.4818 -1.2373 -0.1565
  523MOL0     H70566   3.346   6.037   3.780 -2.0801  0.0828  1.4042
  523MOL0     H70567   3.104   6.177   4.317  2.5998  0.7799 -0.3838
  523MOL0     H70568   2.888   6.255   4.358  2.9369  0.4431  1.3957
  523MOL0     H70569   2.830   6.642   4.206 -1.5314  1.0030 -2.0041
  523MOL0     H70570   2.658   6.609   4.189 -1.8032 -5.9120  0.7321
  523MOL0     H70571   2.824   6.585   4.449 -1.3415 -0.7195  0.7139
  523MOL0     H70572   2.724   6.720   4.408  1.3299  0.5546  0.3292
  523MOL0     H70573   2.537   6.528   4.365 -1.4376  0.5328  1.4190
  523MOL0     H70574   2.639   6.435   4.471 -1.2188 -1.5758 -2.8268
  523MOL0     H70575   2.543   6.722   4.543 -0.0216 -0.1977 -3.1987
  523MOL0     H70576   2.627   6.605   4.647 -0.5243  0.1587  0.8082
  523MOL0     H70577   2.442   6.451   4.644 -0.7555  0.9375  3.3998
  523MOL0     H70578   2.354   6.534   4.508 -0.2579 -3.5113  1.0512
  523MOL0     H70579   2.396   6.614   4.799 -3.1453  0.7037  2.0491
  523MOL0     H70580   2.379   6.748   4.687  4.3133 -0.6873 -1.4687
  523MOL0     H70581   2.175   6.631   4.595  0.0355 -2.0799  0.8539
  523MOL0     H70582   2.166   6.705   4.763  0.0546  0.5496 -0.4800
  523MOL0     H70583   2.222   6.459   4.847  0.9476  0.8440 -1.7098
  523MOL0     H70584   2.062   6.499   4.813  1.4485  1.5229  2.5125
  523MOL0     H70585   2.920   6.524   4.008  3.7872  2.7252  2.0503
  523MOL0     H70586   3.138   6.384   3.945 -0.9769  2.1822 -0.7101
  523MOL0     H70587   3.451   6.066   4.197 -1.1597  0.8828 -0.8686
  523MOL0     H70588   3.647   5.939   4.162 -1.4863  1.1674  0.9862
  523MOL0     H70589   4.786   5.109   2.731 -0.5073 -0.5697  1.4774
  523MOL0     H70590   4.812   5.005   2.522  3.2100 -1.3862 -2.1837
  523MOL0     H70591   4.901   4.765   2.200  1.3687  0.2304  0.6524
  523MOL0     H70592   4.951   4.643   2.025 -1.5487  2.5100  0.3351
  523MOL0     H70593   5.061   4.443   1.925  0.0298 -0.8193  2.2300
  523MOL0     H70594   4.910   4.463   1.825 -0.0739 -0.7048 -1.7504
  523MOL0     H70595   5.031   4.193   1.864 -0.9402  0.6257  1.3438
  523MOL0     H70596   5.079   4.300   1.728  1.3956  0.5059  1.1432
  523MOL0     H70597   4.830   4.302   1.658 -4.1051 -2.3407 -1.1640
  523MOL0     H70598   4.798   4.196   1.795 -3.7130  1.4501 -4.2821
  523MOL0     H70599   4.812   4.104   1.571  1.3601  0.4627 -3.1057
  523MOL0     H70600   4.990   4.141   1.570 -0.5112  1.5862 -0.9551
  523MOL0     H70601   4.961   3.763   1.755  0.3387 -0.5312 -0.6509
  523MOL0     H70602   4.764   4.295   2.210 -0.4367  0.2548 -5.1321
  523MOL0     H70603   4.807   4.418   2.542 -2.3736  0.9204  1.8905
  523MOL0     H70604   4.645   4.460   2.491  1.0019  2.6068 -0.3224
  523MOL0     H70605   4.711   4.302   2.441 -0.8494  0.3743 -0.4068
  524MOL0     O70606   1.910   1.796   6.588 -0.2786 -0.2314  0.0975
  524MOL0     C70607   1.943   1.688   6.552 -0.6033 -0.1130 -0.1878
  524MOL0     O70608   1.905   1.637   6.433  0.0344  0.3816 -0.1184
  524MOL0     C70609   1.777   1.650   6.379 -0.4571  0.4839  0.1013
  524MOL0     C70610   1.753   1.568   6.268 -0.8665  0.0694  0.6080
  524MOL0     C70611   1.621   1.574   6.208 -0.9983  0.1434 -0.5835
  524MOL0     C70612   1.523   1.651   6.260  0.6982  0.6680 -0.1954
  524MOL0     O70613   1.390   1.651   6.217 -0.0690 -0.1304  0.2066
  524MOL0     C70614   1.371   1.601   6.081  0.5210 -0.9784  0.6026
  524MOL0     C70615   1.219   1.614   6.048  1.3194 -0.0492  0.7507
  524MOL0     C70616   1.123   1.496   6.048 -0.2866  0.2769 -0.6232
  524MOL0     C70617   1.176   1.360   5.995 -0.8056 -0.5126  0.3364
  524MOL0     C70618   1.070   1.250   5.995 -0.1816  0.4756  0.1812
  524MOL0     C70619   1.138   1.125   5.934 -0.6647 -0.4158  0.1797
  524MOL0     C70620   1.040   1.018   5.892  0.1208  0.9539  0.0855
  524MOL0     C70621   0.966   1.042   5.762  0.6312 -0.0265 -0.8295
  524MOL0     N70622   1.052   1.060   5.643 -1.2070 -0.9107  0.1557
  524MOL0     C70623   1.146   0.981   5.579  0.5700  0.3297  1.0298
  524MOL0     C70624   1.210   1.052   5.483  0.2137 -0.1174  0.8795
  524MOL0     C70625   1.312   0.983   5.389  0.0360  0.2107 -1.1124
  524MOL0     C70626   1.229   0.928   5.259 -0.1367 -1.1563 -0.2544
  524MOL0     C70627   1.313   0.949   5.125 -1.1022 -0.3649  0.2366
  524MOL0     C70628   1.275   1.071   5.045  0.3973  0.3568 -0.0478
  524MOL0     O70629   1.146   1.052   4.986 -0.7427  0.5390 -0.0899
  524MOL0     C70630   1.100   1.151   4.901 -0.0043 -0.1030 -0.0785
  524MOL0     C70631   1.156   1.281   4.894  1.1333  0.0876 -0.6613
  524MOL0     C70632   1.094   1.377   4.809  0.1066  0.4609  0.6655
  524MOL0     C70633   0.966   1.356   4.748  0.3792  0.5490  0.0918
  524MOL0     C70634   0.904   1.461   4.680  0.1497  0.0986  0.5178
  524MOL0     O70635   0.771   1.482   4.709  0.0788 -0.6641  0.7917
  524MOL0     C70636   0.697   1.552   4.618 -0.4153  0.6874  0.6206
  524MOL0     C70637   0.651   1.689   4.629 -0.3041  0.5437  0.2379
  524MOL0     C70638   0.597   1.765   4.523 -0.3157 -0.0331  0.5597
  524MOL0     C70639   0.536   1.686   4.428  0.4585  0.3371  0.5254
  524MOL0     O70640   0.461   1.741   4.322 -0.6888 -0.5821  0.0058
  524MOL0     C70641   0.424   1.876   4.313 -0.0338 -0.5918 -0.8749
  524MOL0     C70642   0.381   1.904   4.169 -0.3020  0.5170 -0.8912
  524MOL0     C70643   0.330   2.049   4.151  0.7647 -0.0704 -0.6992
  524MOL0     C70644   0.285   2.080   4.003  0.1823 -0.1334 -0.1951
  524MOL0     C70645   0.291   2.235   3.980 -0.7077  0.0140 -0.2798
  524MOL0     C70646   0.209   2.301   3.860 -0.1308 -1.0025  1.1185
  524MOL0     C70647   0.228   2.452   3.847  0.3012 -0.0077 -0.8912
  524MOL0     C70648   0.374   2.492   3.838 -0.1573 -0.5148 -0.2344
  524MOL0    Cl70649   0.389   2.668   3.831  0.0212 -0.1530 -0.2580
  524MOL0     C70650   0.570   1.545   4.413  0.2078 -0.1541 -0.1047
  524MOL0     C70651   0.653   1.479   4.504 -1.1074 -0.4668 -0.3498
  524MOL0     O70652   0.971   1.519   4.594 -0.1004  0.1241  0.0134
  524MOL0     C70653   0.908   1.224   4.757 -1.3482  0.1409  0.4334
  524MOL0     C70654   0.981   1.128   4.826 -0.3797 -0.1984  0.7868
  524MOL0     N70655   1.180   1.189   5.507  0.0101 -0.2667 -0.1960
  524MOL0     N70656   1.080   1.182   5.596  0.3360 -0.4754  0.1431
  524MOL0     C70657   1.549   1.726   6.374  0.2093  0.6898  0.3825
  524MOL0     C70658   1.675   1.730   6.427  0.5101  0.2114  0.1393
  524MOL0     C70659   2.051   1.607   6.611 -0.2860  0.2082  0.3949
  524MOL0     C70660   2.108   1.501   6.543  0.1345  0.0042 -0.5231
  524MOL0     C70661   2.223   1.438   6.595 -0.4603 -0.2704  0.1015
  524MOL0     C70662   2.283   1.462   6.724  0.0079  0.0986  0.1381
  524MOL0     O70663   2.394   1.382   6.759 -0.3651 -0.6301  0.2572
  524MOL0     C70664   2.433   1.389   6.902  0.0842  0.6459  0.1708
  524MOL0     C70665   2.538   1.496   6.907  0.4158 -0.3669 -0.3534
  524MOL0     C70666   2.661   1.479   6.805 -0.3642 -0.3458  0.7150
  524MOL0     C70667   2.730   1.346   6.835 -0.4522  0.4545 -0.6224
  524MOL0     C70668   2.782   1.333   6.971  0.2318  0.2545  0.5454
  524MOL0     C70669   2.818   1.312   7.087  0.2719 -1.2127 -0.2360
  524MOL0     C70670   2.223   1.572   6.791  1.1224 -0.8336  0.7979
  524MOL0     C70671   2.103   1.638   6.741  0.4920 -0.1107 -0.3457
  524MOL0     C70672   2.049   1.743   6.832 -1.0302 -0.1658  0.2310
  524MOL0     H70673   1.835   1.508   6.229 -0.5948  0.8235  0.0074
  524MOL0     H70674   1.610   1.505   6.124 -1.1628 -2.0528  1.1433
  524MOL0     H70675   1.424   1.666   6.010  0.4259 -1.0465  0.4688
  524MOL0     H70676   1.405   1.497   6.073  0.3676 -1.0340  0.6754
  524MOL0     H70677   1.218   1.651   5.945  3.1207  0.4624  0.8804
  524MOL0     H70678   1.166   1.686   6.111 -5.4885 -3.5627 -0.0936
  524MOL0     H70679   1.036   1.529   5.990  0.3203  1.0776 -1.0855
  524MOL0     H70680   1.093   1.480   6.152  0.9305 -1.0546 -0.4367
  524MOL0     H70681   1.200   1.383   5.891  3.2717 -3.3845  0.4007
  524MOL0     H70682   1.272   1.324   6.034 -0.3692  2.3164  2.1879
  524MOL0     H70683   1.038   1.236   6.099 -2.3474  2.6641 -0.1145
  524MOL0     H70684   0.986   1.294   5.942 -0.2067 -1.7903 -1.8033
  524MOL0     H70685   1.193   1.144   5.841 -2.0366 -0.6796 -0.7080
  524MOL0     H70686   1.201   1.086   6.015 -0.4214  1.9233  1.1826
  524MOL0     H70687   0.967   1.000   5.972  0.6981 -0.9341  0.2228
  524MOL0     H70688   1.096   0.925   5.883 -1.5975 -0.1419  0.4389
  524MOL0     H70689   0.899   0.959   5.735 -3.2356  2.2675  0.9089
  524MOL0     H70690   0.908   1.134   5.770  1.5817  0.5175  0.0045
  524MOL0     H70691   1.164   0.876   5.599 -1.2872 -0.8446 -2.5557
  524MOL0     H70692   1.388   1.053   5.352  2.1359 -0.1086  2.1907
  524MOL0     H70693   1.365   0.906   5.445 -1.3509  0.6714  0.9458
  524MOL0     H70694   1.229   0.818   5.261  0.5604 -1.1450  0.8030
  524MOL0     H70695   1.135   0.981   5.242  1.6715  1.6629 -2.2001
  524MOL0     H70696   1.295   0.866   5.057 -0.7483  0.4896 -0.9300
  524MOL0     H70697   1.422   0.945   5.136 -1.0878 -3.0728 -0.1596
  524MOL0     H70698   1.334   1.094   4.955 -1.2277  1.1864 -0.9513
  524MOL0     H70699   1.292   1.159   5.108  1.6921 -1.3151  2.0574
  524MOL0     H70700   1.253   1.301   4.938  0.3600 -0.5931  1.4572
  524MOL0     H70701   1.135   1.478   4.810  0.8427  0.1743  1.8486
  524MOL0     H70702   0.689   1.743   4.715 -1.0311  1.8783 -0.2475
  524MOL0     H70703   0.584   1.873   4.516 -0.1666 -0.1304 -3.3157
  524MOL0     H70704   0.338   1.883   4.380 -1.0817 -2.6367 -1.9319
  524MOL0     H70705   0.493   1.958   4.338 -0.5440 -0.8642  1.6350
  524MOL0     H70706   0.463   1.880   4.101 -1.8878  0.4430 -2.8824
  524MOL0     H70707   0.296   1.846   4.133 -3.9923  2.0970  4.0852
  524MOL0     H70708   0.238   2.050   4.210 -0.0776 -5.1983 -1.5283
  524MOL0     H70709   0.406   2.122   4.182 -0.0474  0.2313  0.6454
  524MOL0     H70710   0.178   2.059   3.996 -0.1611  0.5981  2.0612
  524MOL0     H70711   0.336   2.023   3.924  0.1964  0.5329 -0.6804
  524MOL0     H70712   0.397   2.257   3.966 -1.2082  1.6917 -1.8538
  524MOL0     H70713   0.258   2.285   4.071  4.3732  0.4013  1.6572
  524MOL0     H70714   0.274   2.263   3.780  0.5933 -1.7587  2.0403
  524MOL0     H70715   0.104   2.279   3.841 -0.5550  1.9540 -0.7108
  524MOL0     H70716   0.177   2.506   3.927 -1.6968 -0.3609 -1.8634
  524MOL0     H70717   0.175   2.489   3.759  1.1811  0.2254 -1.3346
  524MOL0     H70718   0.424   2.467   3.932  0.7158  0.0063 -0.5474
  524MOL0     H70719   0.431   2.441   3.761 -2.2725 -5.1706  0.9591
  524MOL0     H70720   0.534   1.478   4.335  1.1693 -2.5891  1.4381
  524MOL0     H70721   0.691   1.377   4.504 -0.0089 -0.0783 -0.5816
  524MOL0     H70722   0.818   1.195   4.703 -1.8519  1.5059  0.4953
  524MOL0     H70723   0.937   1.029   4.823 -0.4234 -0.2070  1.4585
  524MOL0     H70724   1.473   1.787   6.419 -2.3186 -0.8226 -1.5399
  524MOL0     H70725   1.686   1.799   6.510 -3.0821 -1.0973  1.8591
  524MOL0     H70726   2.088   1.487   6.437 -0.6013  0.4945 -0.4538
  524MOL0     H70727   2.273   1.363   6.535  1.0089  0.5691  0.2386
  524MOL0     H70728   2.476   1.294   6.937  2.2304  0.3698 -2.8175
  524MOL0     H70729   2.355   1.430   6.967  0.6507  0.2953  1.1007
  524MOL0     H70730   2.587   1.513   7.004  0.6567  0.4333 -0.6124
  524MOL0     H70731   2.486   1.589   6.883 -2.0077 -2.2955 -3.3737
  524MOL0     H70732   2.725   1.566   6.818 -2.0079  1.2737 -1.2890
  524MOL0     H70733   2.630   1.473   6.700 -2.6190  1.1889  1.2191
  524MOL0     H70734   2.665   1.260   6.820 -1.0647  0.8328 -0.1730
  524MOL0     H70735   2.820   1.339   6.773 -0.1414 -2.2261  0.0590
  524MOL0     H70736   2.824   1.284   7.191 -2.9409 -1.7384 -0.0872
  524MOL0     H70737   2.261   1.592   6.890 -1.8478  0.9180  1.6839
  524MOL0     H70738   2.068   1.849   6.810 -2.8146  0.1479 -0.0136
  524MOL0     H70739   1.941   1.729   6.843 -0.9734 -1.4734 -0.6630
  524MOL0     H70740   2.080   1.723   6.935 -3.6884 -1.1625  0.9418
  525MOL0     O70741   3.295   7.235   2.465 -0.3012 -0.9156  0.4577
  525MOL0     C70742   3.327   7.273   2.578 -0.4226 -0.1173 -0.0495
  525MOL0     O70743   3.456   7.313   2.614 -0.1889 -0.6048  0.1295
  525MOL0     C70744   3.546   7.328   2.506 -0.9670  0.2014 -0.4004
  525MOL0     C70745   3.624   7.450   2.507  0.5778  1.3260 -0.3751
  525MOL0     C70746   3.728   7.469   2.420 -0.0247 -0.2185 -0.2897
  525MOL0     C70747   3.758   7.381   2.325  0.6235  0.3305 -0.4559
  525MOL0     O70748   3.858   7.425   2.245  1.0226  0.3272  0.9852
  525MOL0     C70749   3.855   7.396   2.099  0.1251  0.0054  0.9232
  525MOL0     C70750   3.991   7.433   2.038 -0.1293  1.8778 -0.5357
  525MOL0     C70751   4.100   7.349   2.105  0.1500 -0.5408  0.4136
  525MOL0     C70752   4.236   7.408   2.059  0.0856 -0.6955  0.4490
  525MOL0     C70753   4.357   7.317   2.094 -0.4910 -0.2661  0.4899
  525MOL0     C70754   4.483   7.362   2.018 -0.5578 -0.1868  0.6415
  525MOL0     C70755   4.614   7.276   2.030 -0.1955 -0.7027  0.2206
  525MOL0     C70756   4.591   7.152   1.944 -0.1601  0.0866  0.1527
  525MOL0     N70757   4.714   7.078   1.919 -0.4832  0.0897 -0.7492
  525MOL0     C70758   4.735   6.952   1.947 -0.7117  0.8220  0.2440
  525MOL0     C70759   4.850   6.926   1.883 -0.0875  1.0836 -0.5964
  525MOL0     C70760   4.921   6.794   1.868  0.3980  0.1299  0.3437
  525MOL0     C70761   4.961   6.756   2.004 -0.0358  0.7600 -0.1623
  525MOL0     C70762   5.042   6.628   2.007 -0.1696  1.2730 -0.3840
  525MOL0     C70763   5.195   6.649   1.995 -0.9160 -0.0019 -0.0241
  525MOL0     O70764   5.251   6.685   1.864  0.2293  0.1916 -0.4598
  525MOL0     C70765   5.288   6.573   1.787 -0.3617 -0.5082 -1.1982
  525MOL0     C70766   5.428   6.541   1.775  0.4328 -0.8551 -0.4113
  525MOL0     C70767   5.466   6.418   1.729  0.9280  0.2341 -0.0069
  525MOL0     C70768   5.371   6.334   1.661  0.2695 -0.2512 -0.1664
  525MOL0     C70769   5.409   6.212   1.580  0.6970  0.1593  1.0967
  525MOL0     O70770   5.314   6.143   1.507  0.1934 -0.1978  0.3015
  525MOL0     C70771   5.355   6.042   1.423  0.0340  1.5490 -0.0987
  525MOL0     C70772   5.388   6.076   1.293  0.0578  0.3763  0.1138
  525MOL0     C70773   5.429   5.977   1.202 -0.1988 -0.9629 -0.7697
  525MOL0     C70774   5.434   5.844   1.240  0.7074 -0.5592 -0.5422
  525MOL0     O70775   5.493   5.755   1.156 -0.3173  0.4270  0.4631
  525MOL0     C70776   5.540   5.624   1.209  0.4650  0.5368  0.0545
  525MOL0     C70777   5.600   5.543   1.097 -1.0759  1.0733 -0.2306
  525MOL0     C70778   5.760   5.536   1.113  0.0154  0.3926 -0.3218
  525MOL0     C70779   5.819   5.433   1.021  0.3287  0.4620 -0.1832
  525MOL0     C70780   5.965   5.429   1.000  0.0264 -0.5622 -0.0288
  525MOL0     C70781   6.047   5.551   0.955 -0.4848 -0.3728 -0.0652
  525MOL0     C70782   6.199   5.531   0.950  0.9800 -0.2510  0.5201
  525MOL0     C70783   6.254   5.484   1.083 -0.0924 -0.8437  0.6792
  525MOL0    Cl70784   6.433   5.508   1.087 -0.1076  0.0783 -0.1629
  525MOL0     C70785   5.398   5.815   1.373  0.6094  0.0614 -0.5738
  525MOL0     C70786   5.368   5.909   1.470  0.2956 -0.4686 -0.4874
  525MOL0     O70787   5.528   6.192   1.561  0.5212 -0.3604  0.6177
  525MOL0     C70788   5.236   6.370   1.660  0.3295 -0.4998  0.0820
  525MOL0     C70789   5.197   6.484   1.737  0.3748  0.6732  0.2428
  525MOL0     N70790   4.893   7.039   1.821 -0.0079  0.8944 -0.2884
  525MOL0     N70791   4.815   7.131   1.843  0.0046 -0.6287 -0.3588
  525MOL0     C70792   3.686   7.254   2.321  0.2907 -0.6116 -0.2269
  525MOL0     C70793   3.582   7.234   2.417 -0.3084  1.0422  0.4593
  525MOL0     C70794   3.222   7.250   2.685  0.9126 -0.9394  0.2831
  525MOL0     C70795   3.272   7.263   2.816  0.2471  0.6258 -0.1251
  525MOL0     C70796   3.188   7.250   2.923  0.7154  0.9934 -0.0241
  525MOL0     C70797   3.052   7.222   2.905  0.1054  0.7470  0.4355
  525MOL0     O70798   2.964   7.199   3.012  0.0961  0.1456  0.7938
  525MOL0     C70799   2.878   7.304   3.057 -0.4879  0.5188 -0.9577
  525MOL0     C70800   2.744   7.299   2.982 -0.4813 -0.6494  0.0231
  525MOL0     C70801   2.750   7.401   2.870 -0.1193 -1.8418 -0.6135
  525MOL0     C70802   2.638   7.387   2.773 -0.2347  0.9847 -0.1401
  525MOL0     C70803   2.644   7.269   2.686 -0.3650  1.1224 -0.4612
  525MOL0     C70804   2.641   7.168   2.623  0.4882  0.3968  0.5367
  525MOL0     C70805   3.011   7.190   2.778 -1.0515  0.1476  0.1910
  525MOL0     C70806   3.087   7.208   2.662 -0.2546 -0.1824 -0.4221
  525MOL0     C70807   3.019   7.174   2.529 -0.4649  0.4463 -0.5279
  525MOL0     H70808   3.602   7.522   2.585  1.8832  0.8655  0.4503
  525MOL0     H70809   3.777   7.566   2.430 -1.4079  0.6899 -1.7951
  525MOL0     H70810   3.827   7.294   2.073 -0.1545 -0.6759  3.5831
  525MOL0     H70811   3.786   7.466   2.051  2.1694  2.0583  0.8025
  525MOL0     H70812   4.009   7.537   2.065 -0.5700  1.3606  2.0533
  525MOL0     H70813   4.000   7.418   1.930 -1.0506 -0.3930 -0.3679
  525MOL0     H70814   4.096   7.242   2.085 -0.6633 -0.8129  1.8274
  525MOL0     H70815   4.105   7.359   2.214  1.3706 -1.8134  0.4990
  525MOL0     H70816   4.232   7.406   1.950  0.7691  0.8320  0.3659
  525MOL0     H70817   4.251   7.514   2.082 -0.0907  0.0733 -2.5661
  525MOL0     H70818   4.382   7.304   2.200  0.6981 -1.3253  0.0966
  525MOL0     H70819   4.329   7.215   2.067 -3.0047  0.1952  1.0393
  525MOL0     H70820   4.463   7.378   1.912 -0.6392  1.4932  0.8948
  525MOL0     H70821   4.515   7.460   2.052 -1.8996  1.1989 -1.8163
  525MOL0     H70822   4.637   7.248   2.133 -1.4622 -0.8549  0.4713
  525MOL0     H70823   4.706   7.320   1.990 -0.7794  0.7878  0.4532
  525MOL0     H70824   4.527   7.084   2.002 -1.1826  0.4501 -0.5076
  525MOL0     H70825   4.542   7.187   1.852 -0.9825  0.0053  0.5471
  525MOL0     H70826   4.668   6.888   2.003  2.5747 -2.1683  1.1413
  525MOL0     H70827   4.860   6.719   1.818 -2.0113  1.5304  1.0589
  525MOL0     H70828   5.011   6.812   1.807  0.5537 -0.4516  0.3897
  525MOL0     H70829   5.022   6.831   2.055  0.8034  1.2103 -1.7609
  525MOL0     H70830   4.878   6.745   2.074  0.7767  1.0861  0.8872
  525MOL0     H70831   5.008   6.562   1.927 -3.5750  0.8274  1.2294
  525MOL0     H70832   5.011   6.579   2.099  0.6978 -2.6197 -1.9711
  525MOL0     H70833   5.246   6.557   2.024  1.3577 -0.7534 -5.2150
  525MOL0     H70834   5.218   6.728   2.066 -2.5854 -0.9259  1.6270
  525MOL0     H70835   5.506   6.612   1.800  1.6764 -1.8855 -1.1990
  525MOL0     H70836   5.567   6.378   1.732  0.4936 -0.8800  2.8809
  525MOL0     H70837   5.387   6.181   1.264  4.2151  0.7482  0.7408
  525MOL0     H70838   5.457   6.011   1.102 -1.3206  1.9837 -0.1865
  525MOL0     H70839   5.612   5.642   1.289 -0.0604  0.8333  0.4688
  525MOL0     H70840   5.453   5.574   1.253 -0.9986  1.1246 -2.0172
  525MOL0     H70841   5.553   5.445   1.083  2.5851 -1.0515  0.9771
  525MOL0     H70842   5.587   5.586   0.998  2.1601  2.8822 -0.0392
  525MOL0     H70843   5.796   5.638   1.099  1.6071 -0.0774  0.2013
  525MOL0     H70844   5.799   5.509   1.212 -1.1950  1.2579  0.4132
  525MOL0     H70845   5.776   5.472   0.928  2.1522 -2.0992 -2.2356
  525MOL0     H70846   5.775   5.336   1.044  1.4080 -0.4457 -1.7381
  525MOL0     H70847   5.983   5.351   0.926 -0.2384 -1.1195  0.4831
  525MOL0     H70848   6.009   5.396   1.095  2.4199 -1.9438 -1.5311
  525MOL0     H70849   6.012   5.566   0.853 -0.5549 -0.2084 -0.0172
  525MOL0     H70850   6.020   5.634   1.022  0.6049 -1.5675  1.9631
  525MOL0     H70851   6.241   5.629   0.926 -0.0021  0.2673  0.8640
  525MOL0     H70852   6.232   5.464   0.870  0.6178  1.6554 -1.3175
  525MOL0     H70853   6.217   5.551   1.161 -1.1236 -0.2905 -0.2647
  525MOL0     H70854   6.222   5.382   1.104 -0.4539 -1.6829 -3.1949
  525MOL0     H70855   5.404   5.712   1.408 -2.5236 -0.7264 -1.9844
  525MOL0     H70856   5.354   5.890   1.576  0.7572  0.5599 -0.2374
  525MOL0     H70857   5.163   6.318   1.599 -0.0598 -0.3711  0.4347
  525MOL0     H70858   5.097   6.525   1.728  0.3592  0.5055 -0.4025
  525MOL0     H70859   3.728   7.175   2.260 -1.0607 -1.4704 -0.0858
  525MOL0     H70860   3.532   7.138   2.425 -1.3572  1.6169  0.9910
  525MOL0     H70861   3.364   7.307   2.851 -0.6119 -0.3743  3.9186
  525MOL0     H70862   3.236   7.260   3.020 -1.2172  2.9129  0.8390
  525MOL0     H70863   2.916   7.406   3.052  2.8934 -0.4780  1.3999
  525MOL0     H70864   2.856   7.277   3.161  1.6939 -0.1903 -0.6427
  525MOL0     H70865   2.662   7.326   3.049 -0.7923 -4.7297  1.5965
  525MOL0     H70866   2.734   7.194   2.953  2.3898 -1.9243  2.9701
  525MOL0     H70867   2.836   7.389   2.803 -0.2698  1.8501 -1.6815
  525MOL0     H70868   2.751   7.505   2.903 -1.9316 -1.9282 -0.2319
  525MOL0     H70869   2.535   7.391   2.812  0.0451  3.2309  0.4907
  525MOL0     H70870   2.637   7.471   2.704  1.9749  1.0457 -0.1501
  525MOL0     H70871   2.647   7.083   2.558  1.3603  0.8711 -0.0168
  525MOL0     H70872   2.908   7.157   2.776 -0.8155 -0.8464  2.1897
  525MOL0     H70873   2.911   7.175   2.543 -0.4933 -1.9241 -0.2077
  525MOL0     H70874   3.038   7.243   2.446  0.3639 -0.9932 -1.5691
  525MOL0     H70875   3.037   7.070   2.500 -0.0963  0.4623 -0.3727
  526MOL0     O70876   9.594   5.349   3.082 -0.3598 -0.4375 -0.6841
  526MOL0     C70877   9.682   5.426   3.060  0.6120 -0.0961  0.0390
  526MOL0     O70878   9.816   5.396   3.048  0.6134  0.4032  0.3036
  526MOL0     C70879   9.862   5.275   3.028 -0.2911  0.5709  0.6182
  526MOL0     C70880   9.870   5.181   3.130  0.5383  0.2820  0.3495
  526MOL0     C70881   9.919   5.057   3.096 -1.1294  0.3661  0.3419
  526MOL0     C70882   9.968   5.026   2.965  0.0447 -1.0098 -0.5508
  526MOL0     O70883  10.009   4.901   2.932  0.0050  0.0034  0.0831
  526MOL0     C70884   9.997   4.859   2.786  0.0352 -0.2396  0.1887
  526MOL0     C70885  10.038   4.711   2.780  0.1500  0.7640 -0.0975
  526MOL0     C70886   9.960   4.621   2.685 -0.0370  0.7088 -0.6991
  526MOL0     C70887  10.013   4.486   2.698  1.2138  0.7671  0.3800
  526MOL0     C70888   9.917   4.383   2.625  0.8968 -0.2667  0.3598
  526MOL0     C70889   9.996   4.260   2.578 -0.0596 -0.7740  0.0176
  526MOL0     C70890  10.060   4.168   2.680 -0.8400  0.3857 -0.9598
  526MOL0     C70891  10.143   4.076   2.607  1.0969 -0.5018  0.0721
  526MOL0     N70892  10.222   3.993   2.705  0.2753 -0.6217 -0.5108
  526MOL0     C70893  10.174   3.915   2.811 -0.4211 -0.0532  0.0764
  526MOL0     C70894  10.283   3.859   2.882  1.2585 -0.3895  0.2772
  526MOL0     C70895  10.263   3.756   2.988 -0.4996 -0.0094  0.6935
  526MOL0     C70896  10.190   3.641   2.939 -0.4959  0.0600 -0.0770
  526MOL0     C70897  10.059   3.609   3.017 -0.2249  0.1451 -0.2588
  526MOL0     C70898   9.939   3.630   2.925 -0.0101 -0.3248 -0.3580
  526MOL0     O70899   9.817   3.611   2.996  0.4645 -0.2456 -0.3147
  526MOL0     C70900   9.704   3.581   2.915 -0.7622 -0.6138 -0.0904
  526MOL0     C70901   9.605   3.517   2.978 -0.0139 -0.0078 -0.5084
  526MOL0     C70902   9.487   3.477   2.913 -0.7117  0.6329  0.0471
  526MOL0     C70903   9.457   3.514   2.778  0.4646 -0.4325 -0.6491
  526MOL0     C70904   9.326   3.484   2.724 -0.2899  0.5373  0.2937
  526MOL0     O70905   9.241   3.405   2.790  1.0406 -0.4768  0.1051
  526MOL0     C70906   9.123   3.358   2.735 -0.6267  1.0254  0.1276
  526MOL0     C70907   9.122   3.228   2.679 -0.0726 -0.8105 -0.1866
  526MOL0     C70908   9.003   3.170   2.627 -0.4014 -0.0409 -0.2322
  526MOL0     C70909   8.891   3.247   2.602  0.5237  0.1095 -0.4856
  526MOL0     O70910   8.777   3.197   2.535  0.0639 -1.0002  0.6316
  526MOL0     C70911   8.691   3.283   2.453  0.0946 -0.2873  0.2526
  526MOL0     C70912   8.564   3.340   2.515  0.5017 -0.0008  0.3472
  526MOL0     C70913   8.484   3.433   2.438  0.8581 -0.6031  0.5493
  526MOL0     C70914   8.358   3.470   2.520  0.2905 -0.0482 -0.2025
  526MOL0     C70915   8.256   3.535   2.424  0.1691 -0.8599  1.0247
  526MOL0     C70916   8.136   3.584   2.507  0.4453  0.4758 -0.2045
  526MOL0     C70917   8.028   3.663   2.422  0.1400 -0.8396 -0.6604
  526MOL0     C70918   8.003   3.806   2.470 -0.8618  1.2901  0.5013
  526MOL0    Cl70919   7.913   3.813   2.613  0.0211 -0.5261 -0.2753
  526MOL0     C70920   8.896   3.383   2.646  0.1024  0.2877  0.1603
  526MOL0     C70921   9.011   3.433   2.715  0.5323  1.2189 -0.2589
  526MOL0     O70922   9.303   3.535   2.612  0.2727  0.1819 -0.1153
  526MOL0     C70923   9.552   3.598   2.718 -1.0081  0.2013 -0.4440
  526MOL0     C70924   9.680   3.619   2.786 -1.2385  0.3653  0.4991
  526MOL0     N70925  10.399   3.923   2.820  0.9188  0.2062 -1.0786
  526MOL0     N70926  10.360   3.990   2.718  0.4648  0.7201 -0.1081
  526MOL0     C70927   9.973   5.132   2.873 -0.5155 -0.3512 -0.0955
  526MOL0     C70928   9.916   5.254   2.902 -0.0298  0.5082 -0.0894
  526MOL0     C70929   9.638   5.560   3.034  0.0892  0.3068 -0.0031
  526MOL0     C70930   9.523   5.615   3.114  0.3809 -0.5645 -0.5077
  526MOL0     C70931   9.459   5.737   3.082 -1.0841  0.6907  0.7106
  526MOL0     C70932   9.501   5.808   2.975 -0.6527 -0.3127  0.1626
  526MOL0     O70933   9.460   5.931   2.947  0.5955 -0.1826  0.6924
  526MOL0     C70934   9.320   5.944   2.935 -0.4271  1.2232 -0.4079
  526MOL0     C70935   9.281   5.955   2.783 -0.4226  0.0309 -0.1319
  526MOL0     C70936   9.320   5.830   2.704  0.2003 -0.4048 -0.7215
  526MOL0     C70937   9.250   5.790   2.570  0.8387  0.5403 -0.1018
  526MOL0     C70938   9.213   5.905   2.498  1.2198 -0.2376 -0.2694
  526MOL0     C70939   9.188   6.000   2.430 -0.1343 -0.3755  0.1039
  526MOL0     C70940   9.614   5.761   2.905  0.9786  0.2117  0.4612
  526MOL0     C70941   9.684   5.645   2.942  0.7442 -0.6673 -0.4713
  526MOL0     C70942   9.797   5.610   2.838 -0.3529 -0.6170 -0.1614
  526MOL0     H70943   9.830   5.185   3.230 -0.9498 -1.8396 -0.0835
  526MOL0     H70944   9.917   4.976   3.168  1.2867 -1.0584 -1.0622
  526MOL0     H70945   9.903   4.883   2.735 -2.7028 -2.0184  3.8598
  526MOL0     H70946  10.064   4.921   2.726  0.8902  1.5465  2.8234
  526MOL0     H70947  10.030   4.669   2.880 -2.9280  2.3355  0.4208
  526MOL0     H70948  10.147   4.698   2.769  0.5007  0.5578  2.8454
  526MOL0     H70949   9.965   4.658   2.582 -1.1409  0.3941 -0.8697
  526MOL0     H70950   9.858   4.631   2.721  0.9930  3.6059  1.8577
  526MOL0     H70951  10.113   4.476   2.654  0.7038 -2.7076 -0.2345
  526MOL0     H70952  10.025   4.455   2.802 -0.1616 -0.0019  0.3383
  526MOL0     H70953   9.839   4.356   2.697 -1.2739  0.3962 -1.6067
  526MOL0     H70954   9.869   4.430   2.539  0.8680  2.7797  1.8959
  526MOL0     H70955   9.926   4.211   2.510 -1.6472  3.0806 -1.4034
  526MOL0     H70956  10.080   4.301   2.521 -2.2975 -0.1181 -3.0508
  526MOL0     H70957   9.977   4.119   2.733 -2.0388  0.6275 -2.5527
  526MOL0     H70958  10.124   4.232   2.741 -1.0001  1.3985 -1.8336
  526MOL0     H70959  10.077   4.006   2.555 -1.6491  0.4720  1.9747
  526MOL0     H70960  10.218   4.125   2.545 -0.9148 -1.4412 -3.4005
  526MOL0     H70961  10.070   3.889   2.833 -0.9301  0.2539 -1.7993
  526MOL0     H70962  10.364   3.728   3.019  0.8605  2.2326 -1.3826
  526MOL0     H70963  10.214   3.802   3.074 -3.6556  0.7200 -1.3181
  526MOL0     H70964  10.180   3.646   2.831  1.7524 -1.2495 -0.4057
  526MOL0     H70965  10.254   3.553   2.951  0.8974  0.3932 -3.8459
  526MOL0     H70966  10.039   3.684   3.094 -0.9018  1.9837 -2.1126
  526MOL0     H70967  10.059   3.518   3.078 -1.4120  1.8156  2.4113
  526MOL0     H70968   9.936   3.557   2.844 -0.0652  0.0780 -0.7263
  526MOL0     H70969   9.937   3.732   2.886 -1.5484 -0.2874 -0.2313
  526MOL0     H70970   9.621   3.495   3.083 -0.0461  2.1904 -0.0043
  526MOL0     H70971   9.413   3.427   2.975  1.0288 -3.1370 -0.6416
  526MOL0     H70972   9.209   3.163   2.688  2.5384  2.2130 -1.3682
  526MOL0     H70973   9.005   3.064   2.605 -0.3707 -0.1191  0.1419
  526MOL0     H70974   8.750   3.364   2.410  1.3805 -1.3991 -0.1410
  526MOL0     H70975   8.666   3.222   2.366  0.3509  1.4213 -1.0900
  526MOL0     H70976   8.496   3.255   2.529 -0.7182  1.2432  2.3954
  526MOL0     H70977   8.587   3.382   2.614 -1.6561  0.8841  0.5061
  526MOL0     H70978   8.554   3.507   2.399  0.2726 -0.3040  0.0517
  526MOL0     H70979   8.449   3.391   2.344  1.5567  0.6924 -0.3191
  526MOL0     H70980   8.388   3.535   2.603  1.3146  0.3168 -0.8500
  526MOL0     H70981   8.315   3.375   2.556  1.4415  0.0728  1.6570
  526MOL0     H70982   8.215   3.463   2.352 -0.4013  1.0058 -0.5994
  526MOL0     H70983   8.293   3.622   2.369 -1.2676 -0.1095  1.1982
  526MOL0     H70984   8.093   3.499   2.559  1.9717 -1.8805 -2.5264
  526MOL0     H70985   8.176   3.651   2.584  1.4236 -0.1477 -0.1477
  526MOL0     H70986   7.938   3.606   2.447 -0.8617  1.8076  2.3711
  526MOL0     H70987   8.045   3.661   2.314 -2.6975 -0.0627 -1.2267
  526MOL0     H70988   8.105   3.842   2.479  0.3345 -0.0105 -4.5030
  526MOL0     H70989   7.944   3.858   2.393 -1.1923 -1.2286 -1.0856
  526MOL0     H70990   8.815   3.453   2.629  2.3845  3.3182  0.8513
  526MOL0     H70991   9.015   3.535   2.752  3.6022  0.4074  2.0918
  526MOL0     H70992   9.543   3.650   2.623  1.2172 -0.8198 -1.2798
  526MOL0     H70993   9.748   3.679   2.726 -1.5224  0.3173  0.1266
  526MOL0     H70994  10.006   5.112   2.772  0.2558 -1.4473  0.3504
  526MOL0     H70995   9.928   5.321   2.818 -0.5388  4.9366  2.9907
  526MOL0     H70996   9.504   5.558   3.204  1.4562 -1.4969 -0.8637
  526MOL0     H70997   9.392   5.767   3.162  1.6784 -0.2015  3.5912
  526MOL0     H70998   9.283   6.031   2.990 -1.7682 -0.0879  0.8574
  526MOL0     H70999   9.254   5.867   2.977 -0.6025  0.4277 -2.0495
  526MOL0     H71000   9.334   6.045   2.751  1.5561 -1.0356 -0.0263
  526MOL0     H71001   9.171   5.958   2.782 -0.6815 -1.5410  4.0020
  526MOL0     H71002   9.301   5.748   2.773  4.2265 -2.6219 -1.9024
  526MOL0     H71003   9.426   5.827   2.677  0.0480 -0.5039 -1.3136
  526MOL0     H71004   9.305   5.720   2.507  1.2626  0.8772 -0.1073
  526MOL0     H71005   9.153   5.743   2.593  1.7589 -2.0783 -1.2231
  526MOL0     H71006   9.154   6.082   2.370 -2.8995 -1.6887 -0.3064
  526MOL0     H71007   9.663   5.829   2.835  3.1030 -0.9148  0.7700
  526MOL0     H71008   9.764   5.562   2.745 -0.7324  2.2240 -1.5971
  526MOL0     H71009   9.854   5.698   2.808  1.3858 -1.1803  1.3014
  526MOL0     H71010   9.872   5.546   2.886  2.2359  2.6812  0.5194
  527MOL0     O71011   7.883   8.172   3.415  1.3998  0.2216  0.1905
  527MOL0     C71012   7.932   8.267   3.345  0.0325  0.0286  0.1451
  527MOL0     O71013   7.985   8.255   3.219 -0.2328  0.1279  0.7357
  527MOL0     C71014   7.989   8.131   3.152  0.7521  0.1365 -0.6075
  527MOL0     C71015   7.891   8.031   3.171  0.1404  0.0299 -0.3665
  527MOL0     C71016   7.911   7.906   3.103 -0.6532 -0.1128  0.8406
  527MOL0     C71017   8.025   7.886   3.027 -0.0235 -0.6250 -0.5251
  527MOL0     O71018   8.036   7.763   2.967  0.2717  0.4079  0.0191
  527MOL0     C71019   8.000   7.771   2.828  0.0812 -0.2012 -0.0035
  527MOL0     C71020   8.132   7.741   2.746  0.6182  0.2319  0.3268
  527MOL0     C71021   8.202   7.620   2.798 -0.0573 -0.5295  0.0535
  527MOL0     C71022   8.344   7.592   2.735  0.7562  0.2958 -0.0513
  527MOL0     C71023   8.428   7.506   2.826 -0.5101  0.7499 -0.1803
  527MOL0     C71024   8.577   7.480   2.777  0.7605  0.5514  0.5167
  527MOL0     C71025   8.677   7.426   2.881  0.1195  0.6628  0.0116
  527MOL0     C71026   8.736   7.537   2.964  0.5934 -0.1285 -0.2897
  527MOL0     N71027   8.854   7.493   3.039 -0.4129 -0.6687 -0.5007
  527MOL0     C71028   8.978   7.535   3.032 -0.4416 -0.4244  0.8225
  527MOL0     C71029   9.054   7.477   3.124  0.4458  0.7834 -0.4566
  527MOL0     C71030   9.196   7.509   3.146  0.3073  0.0667 -0.2819
  527MOL0     C71031   9.242   7.617   3.242  0.5092 -0.6401  0.2117
  527MOL0     C71032   9.187   7.610   3.382  1.0788 -0.4246  0.2948
  527MOL0     C71033   9.272   7.536   3.482  0.3069 -1.0732  0.1716
  527MOL0     O71034   9.392   7.615   3.488 -0.5683  0.6915  0.7884
  527MOL0     C71035   9.437   7.655   3.611 -0.3691  0.2705  0.7728
  527MOL0     C71036   9.578   7.631   3.646 -0.0509  0.3036  0.7659
  527MOL0     C71037   9.619   7.664   3.772  0.1630 -0.1463  0.5116
  527MOL0     C71038   9.531   7.726   3.861  0.1478 -0.6747 -0.1542
  527MOL0     C71039   9.559   7.734   4.003  0.7063 -0.0144  0.9088
  527MOL0     O71040   9.465   7.787   4.085 -0.1981 -0.1133 -0.5422
  527MOL0     C71041   9.480   7.793   4.218  0.4793 -0.3145 -0.4851
  527MOL0     C71042   9.375   7.755   4.300  0.3113 -0.5059  0.8077
  527MOL0     C71043   9.385   7.753   4.435 -0.1987 -0.7969 -0.0911
  527MOL0     C71044   9.495   7.820   4.501  0.6011  0.0949  0.0016
  527MOL0     O71045   9.515   7.825   4.642  0.3585  0.4146  0.8656
  527MOL0     C71046   9.418   7.762   4.729 -0.0512  1.5394  0.3115
  527MOL0     C71047   9.466   7.787   4.874 -0.2298  0.0656 -0.0663
  527MOL0     C71048   9.365   7.887   4.937  0.1836 -0.4688  0.1691
  527MOL0     C71049   9.439   7.984   5.037 -1.1820  0.3866  0.4210
  527MOL0     C71050   9.355   8.104   5.081  0.3573 -0.8272  0.1585
  527MOL0     C71051   9.300   8.079   5.222  0.5834 -0.4621 -0.1806
  527MOL0     C71052   9.255   8.209   5.286  0.2813  0.4205  0.7474
  527MOL0     C71053   9.113   8.195   5.348  0.2630  0.0016 -0.0547
  527MOL0    Cl71054   9.093   8.047   5.449  0.3661 -0.5791 -0.9482
  527MOL0     C71055   9.593   7.863   4.411  0.6516  0.2403 -0.0291
  527MOL0     C71056   9.585   7.853   4.279 -1.0010 -0.2693  0.9000
  527MOL0     O71057   9.660   7.670   4.042  0.3764  0.5129  0.5985
  527MOL0     C71058   9.402   7.754   3.824  0.3941 -0.1231  0.4637
  527MOL0     C71059   9.352   7.723   3.696 -0.4928  0.7364 -0.4377
  527MOL0     N71060   8.967   7.389   3.188  0.2706 -0.5325  0.5378
  527MOL0     N71061   8.859   7.391   3.133 -0.6972 -0.1065  0.8387
  527MOL0     C71062   8.111   7.989   2.998 -0.0730 -0.2029 -1.3464
  527MOL0     C71063   8.096   8.115   3.060  0.0026  0.8832  0.4392
  527MOL0     C71064   7.965   8.394   3.407  1.1578 -0.3974  0.3436
  527MOL0     C71065   8.085   8.459   3.390 -0.9377  0.9195  0.3951
  527MOL0     C71066   8.122   8.568   3.461 -0.0053  0.3603 -0.3690
  527MOL0     C71067   8.039   8.626   3.553  0.9480 -0.6319  0.6160
  527MOL0     O71068   8.068   8.736   3.629 -0.1791 -0.0991  0.7121
  527MOL0     C71069   8.113   8.720   3.764 -0.2595  0.8611  0.1580
  527MOL0     C71070   8.051   8.841   3.828 -0.3746  0.1871 -0.2144
  527MOL0     C71071   8.106   8.878   3.970  0.2692  0.2944 -0.4390
  527MOL0     C71072   8.114   9.029   3.973  0.5668  0.0797  0.0499
  527MOL0     C71073   8.225   9.091   3.905 -0.9146  0.2431 -0.7067
  527MOL0     C71074   8.324   9.129   3.836  0.4043  0.5192 -0.2722
  527MOL0     C71075   7.902   8.583   3.557 -0.1089  0.1235 -0.2825
  527MOL0     C71076   7.872   8.466   3.485  0.9854 -0.6784  0.0879
  527MOL0     C71077   7.727   8.420   3.502  0.2601  0.4688 -0.6683
  527MOL0     H71078   7.801   8.045   3.231  0.3870  1.1890 -0.2514
  527MOL0     H71079   7.832   7.831   3.101  0.1454 -0.9605 -1.2271
  527MOL0     H71080   7.929   7.688   2.823  1.1109 -1.1221  0.2793
  527MOL0     H71081   7.943   7.860   2.801 -2.7256 -1.8616  0.0356
  527MOL0     H71082   8.211   7.814   2.766  0.4416  0.6228 -0.3752
  527MOL0     H71083   8.117   7.719   2.640 -0.8380 -2.4015  0.9951
  527MOL0     H71084   8.152   7.523   2.794  1.4513 -1.3473  0.4569
  527MOL0     H71085   8.219   7.635   2.905  0.5627  0.0282 -0.1123
  527MOL0     H71086   8.321   7.544   2.639 -3.6698  3.3442 -0.7913
  527MOL0     H71087   8.396   7.688   2.730  0.0918  0.6382 -0.4006
  527MOL0     H71088   8.438   7.545   2.927 -1.2620  3.4517 -1.0600
  527MOL0     H71089   8.377   7.410   2.828 -0.6030  0.8150  0.5705
  527MOL0     H71090   8.571   7.418   2.687 -0.0517  3.1228 -1.3195
  527MOL0     H71091   8.625   7.568   2.733  0.1602 -0.2635 -1.9174
  527MOL0     H71092   8.764   7.378   2.834  2.8991  1.6650  3.6598
  527MOL0     H71093   8.621   7.351   2.937  1.3738 -0.8945 -0.7061
  527MOL0     H71094   8.759   7.622   2.900  2.4009 -1.6121 -1.7389
  527MOL0     H71095   8.662   7.566   3.040 -1.3417 -0.2858 -2.0125
  527MOL0     H71096   9.016   7.616   2.971 -0.3167  1.1649  2.8959
  527MOL0     H71097   9.239   7.414   3.179  0.4819 -0.1432 -1.0819
  527MOL0     H71098   9.226   7.524   3.041  1.5302  1.2683  0.2114
  527MOL0     H71099   9.350   7.611   3.233  0.4262 -0.6184 -0.8694
  527MOL0     H71100   9.199   7.704   3.191 -0.3284 -0.8000  0.6269
  527MOL0     H71101   9.088   7.563   3.386  0.9272 -0.3687 -1.8661
  527MOL0     H71102   9.161   7.710   3.419 -2.0882  0.0913 -2.8078
  527MOL0     H71103   9.280   7.434   3.442 -0.0022 -1.6974  1.6458
  527MOL0     H71104   9.221   7.535   3.578  2.2703 -0.7697  1.2794
  527MOL0     H71105   9.644   7.579   3.577 -0.0977  0.4628  0.6017
  527MOL0     H71106   9.721   7.639   3.799  0.2995 -0.1772 -0.0157
  527MOL0     H71107   9.292   7.717   4.242 -0.4749 -0.0353  1.6015
  527MOL0     H71108   9.304   7.713   4.495 -0.9331 -1.9879 -1.8152
  527MOL0     H71109   9.320   7.809   4.710 -0.8485  0.3535  1.3994
  527MOL0     H71110   9.424   7.657   4.699 -2.4873  1.4541 -0.0655
  527MOL0     H71111   9.482   7.692   4.926 -1.0497  0.0210  0.1179
  527MOL0     H71112   9.563   7.837   4.875  0.2420 -0.8319  1.5121
  527MOL0     H71113   9.315   7.941   4.856 -1.1707 -0.2190  1.1370
  527MOL0     H71114   9.297   7.832   5.002  3.4887 -1.6860  2.9172
  527MOL0     H71115   9.519   8.027   4.976 -0.3857  0.4393  1.4742
  527MOL0     H71116   9.473   7.935   5.128 -2.2482  0.2013  0.7297
  527MOL0     H71117   9.276   8.127   5.009 -1.4146 -1.6021  1.7768
  527MOL0     H71118   9.420   8.192   5.089  0.6314 -1.0710  0.6479
  527MOL0     H71119   9.219   8.006   5.209 -1.0282  0.7852  1.9706
  527MOL0     H71120   9.372   8.029   5.286 -0.2345 -0.2623  0.9349
  527MOL0     H71121   9.258   8.299   5.223 -1.9747  1.1705  1.6042
  527MOL0     H71122   9.326   8.237   5.365 -1.9518  1.6522  2.4578
  527MOL0     H71123   9.091   8.279   5.414 -1.7254 -0.8649  0.4718
  527MOL0     H71124   9.035   8.205   5.272  1.3898  1.3499 -1.0583
  527MOL0     H71125   9.683   7.915   4.443  0.0963  1.7342 -0.8267
  527MOL0     H71126   9.666   7.901   4.226  1.9568 -2.1092  3.4389
  527MOL0     H71127   9.332   7.796   3.896 -1.5870  0.7106 -1.8126
  527MOL0     H71128   9.247   7.742   3.682 -0.5009  0.0162 -1.4755
  527MOL0     H71129   8.190   7.981   2.924  0.8186 -0.8784 -0.3620
  527MOL0     H71130   8.176   8.186   3.046 -0.0824  0.6654 -1.4272
  527MOL0     H71131   8.153   8.424   3.313  2.2158  1.9779  2.4814
  527MOL0     H71132   8.220   8.612   3.446  0.4542  0.3598  2.1190
  527MOL0     H71133   8.222   8.716   3.771 -0.1758  1.6789 -0.4681
  527MOL0     H71134   8.076   8.628   3.811  5.2505 -2.0903 -0.5172
  527MOL0     H71135   7.945   8.816   3.838  0.2788 -3.5528 -1.2028
  527MOL0     H71136   8.067   8.929   3.766 -2.9040  1.0923  0.3034
  527MOL0     H71137   8.202   8.830   3.987 -0.2169 -0.6057 -0.1941
  527MOL0     H71138   8.034   8.847   4.046 -0.5283 -1.0922 -1.6986
  527MOL0     H71139   8.016   9.056   3.935 -0.4724 -2.6048  0.6053
  527MOL0     H71140   8.126   9.050   4.080  1.4846  1.0377 -0.2265
  527MOL0     H71141   8.404   9.167   3.777  1.4142 -1.7008 -0.4315
  527MOL0     H71142   7.831   8.626   3.626  2.0388 -0.0280  2.1626
  527MOL0     H71143   7.723   8.316   3.536 -0.3350  0.1908 -1.5794
  527MOL0     H71144   7.672   8.470   3.582 -0.9573 -0.7026 -0.7369
  527MOL0     H71145   7.674   8.434   3.407 -0.2678  0.2252 -0.4144
  528MOL0     O71146  10.656   6.551   1.649 -0.5392  0.3408  0.1524
  528MOL0     C71147  10.731   6.533   1.737  0.0170  0.2586  0.1238
  528MOL0     O71148  10.737   6.608   1.849  0.9988  1.1912 -0.4186
  528MOL0     C71149  10.665   6.730   1.852  0.4064  0.5490  0.0063
  528MOL0     C71150  10.573   6.759   1.953  0.6834 -0.7320 -0.3120
  528MOL0     C71151  10.510   6.884   1.959  0.1681 -0.0755  0.4834
  528MOL0     C71152  10.546   6.986   1.865  0.6868 -0.4116  0.1579
  528MOL0     O71153  10.484   7.106   1.878  0.2804  0.0352 -0.4746
  528MOL0     C71154  10.451   7.169   1.758 -0.0265 -0.8677 -0.0016
  528MOL0     C71155  10.323   7.258   1.753 -0.8234 -0.1835 -0.0352
  528MOL0     C71156  10.334   7.361   1.872 -0.1312 -0.1009  0.6988
  528MOL0     C71157  10.230   7.473   1.871  0.2897 -0.2499 -0.0047
  528MOL0     C71158  10.278   7.578   1.762 -0.1933 -0.0519  0.9773
  528MOL0     C71159  10.157   7.646   1.695  0.9400 -0.7558 -0.4359
  528MOL0     C71160  10.091   7.743   1.795  0.3007  0.7535  0.2508
  528MOL0     C71161   9.966   7.809   1.743 -0.5370 -0.3044  0.4660
  528MOL0     N71162   9.963   7.815   1.598  1.3426 -0.5366  0.4968
  528MOL0     C71163  10.004   7.921   1.525  0.4460 -1.0078 -1.0962
  528MOL0     C71164   9.967   7.899   1.396 -0.6534 -0.0723  0.4122
  528MOL0     C71165   9.989   7.979   1.271 -0.6587  0.8105 -0.6017
  528MOL0     C71166   9.923   8.114   1.277 -0.8501 -0.6531 -0.4146
  528MOL0     C71167   9.921   8.198   1.145  0.4011 -0.7180  0.1521
  528MOL0     C71168   9.825   8.170   1.039  0.2467  1.0507  0.0262
  528MOL0     O71169   9.862   8.223   0.912 -0.0102 -0.3077  0.4841
  528MOL0     C71170   9.795   8.167   0.813 -0.6587 -0.3564  0.1556
  528MOL0     C71171   9.680   8.228   0.768 -0.2643  0.4509 -1.2039
  528MOL0     C71172   9.602   8.162   0.677  0.0825  0.2066  0.3234
  528MOL0     C71173   9.651   8.038   0.622  0.1619  0.1651 -0.4514
  528MOL0     C71174   9.573   7.967   0.529 -0.4426  0.3473 -0.0382
  528MOL0     O71175   9.622   7.854   0.480  0.0412  0.2832  0.5822
  528MOL0     C71176   9.585   7.815   0.350 -0.6366  0.9668 -0.0971
  528MOL0     C71177   9.608   7.682   0.317  0.7124 -0.6547  0.5480
  528MOL0     C71178   9.570   7.629   0.192  0.3625 -0.0477 -0.2205
  528MOL0     C71179   9.503   7.705   0.096  0.4660  0.0217 -1.0219
  528MOL0     O71180   9.455   7.649  -0.016 -0.2866 -0.0040  0.1911
  528MOL0     C71181   9.468   7.512  -0.051 -0.2858 -0.3136  0.9956
  528MOL0     C71182   9.606   7.445  -0.074 -0.9142 -0.0774 -0.5918
  528MOL0     C71183   9.600   7.305  -0.148  0.3370  0.0194  0.3781
  528MOL0     C71184   9.736   7.254  -0.167 -0.2941 -0.0664 -0.4416
  528MOL0     C71185   9.749   7.127  -0.246 -0.0115 -0.4039 -1.2012
  528MOL0     C71186   9.712   7.141  -0.390 -0.5895 -0.0628 -0.2048
  528MOL0     C71187   9.736   7.016  -0.461 -0.1491  0.2037  0.1660
  528MOL0     C71188   9.716   7.038  -0.615  0.6825  0.5472  0.1632
  528MOL0    Cl71189   9.693   6.880  -0.701  0.2703 -0.3466  0.3661
  528MOL0     C71190   9.495   7.840   0.125  0.1029  0.6985 -0.3500
  528MOL0     C71191   9.542   7.896   0.244 -0.1350  0.6661  0.5664
  528MOL0     O71192   9.463   8.013   0.493 -0.1557 -0.4344 -0.4779
  528MOL0     C71193   9.765   7.975   0.676 -0.8352 -0.0377 -0.6006
  528MOL0     C71194   9.847   8.048   0.772  0.2249  0.0068  0.8527
  528MOL0     N71195   9.914   7.774   1.392 -0.0412  0.2235 -0.6021
  528MOL0     N71196   9.907   7.728   1.514  0.2929 -0.1962 -0.2086
  528MOL0     C71197  10.635   6.961   1.768 -0.5150 -0.1054  0.8625
  528MOL0     C71198  10.687   6.831   1.752  0.3948  0.0240 -0.1543
  528MOL0     C71199  10.813   6.414   1.750 -0.2520  0.1580  0.0823
  528MOL0     C71200  10.794   6.330   1.856 -0.3370  0.6961 -0.7468
  528MOL0     C71201  10.895   6.231   1.888 -0.1242 -0.8922  0.1450
  528MOL0     C71202  10.987   6.187   1.792  0.0377 -0.9758  0.5353
  528MOL0     O71203  11.079   6.099   1.832  0.6204 -0.3977 -0.1763
  528MOL0     C71204  11.174   6.050   1.732 -0.6028  0.9591 -0.8663
  528MOL0     C71205  11.218   5.919   1.791  0.3903 -0.3980  0.2186
  528MOL0     C71206  11.325   5.847   1.693  0.5184  0.2317  0.3224
  528MOL0     C71207  11.272   5.772   1.562 -0.0810 -0.5748  0.4293
  528MOL0     C71208  11.215   5.638   1.572  0.7991 -0.7080  1.2917
  528MOL0     C71209  11.183   5.532   1.604  0.0841 -0.1157 -0.8847
  528MOL0     C71210  10.995   6.267   1.673  0.1771  0.2008 -0.0318
  528MOL0     C71211  10.920   6.385   1.660  0.6384  0.1948  0.2386
  528MOL0     C71212  10.948   6.473   1.541  0.0630  0.1495 -0.0588
  528MOL0     H71213  10.563   6.678   2.025 -0.7654  1.5321  2.2467
  528MOL0     H71214  10.428   6.910   2.025 -0.8991  0.0634 -0.8349
  528MOL0     H71215  10.541   7.223   1.726 -0.9034  0.8135  0.2560
  528MOL0     H71216  10.423   7.095   1.683 -2.0496  0.6319 -0.8402
  528MOL0     H71217  10.236   7.191   1.757 -1.1105  0.1180 -0.9588
  528MOL0     H71218  10.320   7.314   1.659 -3.2792  1.2018  0.7587
  528MOL0     H71219  10.436   7.400   1.873  0.4601 -1.4897  3.5434
  528MOL0     H71220  10.316   7.299   1.960  0.1454 -1.2834 -0.0537
  528MOL0     H71221  10.135   7.431   1.840  0.8541 -1.6239  0.0603
  528MOL0     H71222  10.209   7.522   1.967 -3.3001 -1.1451 -0.2001
  528MOL0     H71223  10.355   7.649   1.793  0.7133 -0.4074 -0.3726
  528MOL0     H71224  10.338   7.524   1.689  2.6586 -0.2076  3.2408
  528MOL0     H71225  10.196   7.713   1.619 -2.0763  1.1240 -0.5196
  528MOL0     H71226  10.086   7.571   1.659 -1.7025  2.0753 -1.5452
  528MOL0     H71227  10.166   7.822   1.809 -1.3581  2.1492  1.9246
  528MOL0     H71228  10.064   7.711   1.896 -1.7879  0.1231 -0.4578
  528MOL0     H71229   9.880   7.748   1.773 -1.1877 -1.9090 -3.8148
  528MOL0     H71230   9.955   7.910   1.783  0.3298 -0.1148  0.2484
  528MOL0     H71231  10.051   8.013   1.557  1.5699 -1.5823 -1.0392
  528MOL0     H71232  10.094   7.990   1.243  0.5925 -1.2453  2.6191
  528MOL0     H71233   9.946   7.918   1.191 -3.0002 -0.3848  1.4114
  528MOL0     H71234   9.817   8.105   1.303 -0.7981  0.1479  0.1283
  528MOL0     H71235   9.980   8.172   1.350 -3.1846  0.8311  0.3761
  528MOL0     H71236  10.023   8.209   1.106  0.9727 -3.0219  0.8237
  528MOL0     H71237   9.879   8.290   1.188  0.6772 -0.9621  0.9773
  528MOL0     H71238   9.727   8.199   1.077 -0.9832 -0.8724 -1.4524
  528MOL0     H71239   9.820   8.061   1.031 -2.3469  1.1668 -0.8816
  528MOL0     H71240   9.636   8.318   0.810 -1.0276 -1.2477  1.9177
  528MOL0     H71241   9.502   8.190   0.648  0.7034  4.1448  1.4016
  528MOL0     H71242   9.668   7.619   0.381  1.1901  0.8932  1.7037
  528MOL0     H71243   9.577   7.522   0.176  0.0749  0.2343 -2.5342
  528MOL0     H71244   9.396   7.444  -0.006 -1.2554 -0.7483 -1.0796
  528MOL0     H71245   9.427   7.511  -0.152 -1.2002  1.0874  1.3261
  528MOL0     H71246   9.670   7.501  -0.143  1.1663  0.8346  1.8771
  528MOL0     H71247   9.659   7.428   0.020 -0.0849 -1.9070 -1.3562
  528MOL0     H71248   9.535   7.229  -0.105  3.4147 -2.6822  0.6684
  528MOL0     H71249   9.554   7.326  -0.245  0.7049  1.6045  0.5089
  528MOL0     H71250   9.771   7.236  -0.065  0.1498 -0.3737 -0.6456
  528MOL0     H71251   9.798   7.332  -0.212 -0.3540 -0.2168 -0.7832
  528MOL0     H71252   9.683   7.058  -0.192  0.6845  0.7955  1.3004
  528MOL0     H71253   9.852   7.089  -0.247  0.4766  0.8640 -2.6492
  528MOL0     H71254   9.606   7.165  -0.403 -0.8106 -1.5254 -1.4064
  528MOL0     H71255   9.776   7.221  -0.426  1.9614 -1.4101  1.0575
  528MOL0     H71256   9.673   6.934  -0.426 -0.3463  0.2950  0.0229
  528MOL0     H71257   9.837   6.976  -0.446 -0.5001 -1.1101 -0.8326
  528MOL0     H71258   9.631   7.104  -0.636  1.2981  0.6478 -2.3506
  528MOL0     H71259   9.797   7.107  -0.643  0.4595  0.3410 -1.0550
  528MOL0     H71260   9.452   7.908   0.052 -0.4066 -0.4271 -1.1309
  528MOL0     H71261   9.540   8.004   0.244  0.5870  0.6908 -0.1954
  528MOL0     H71262   9.794   7.873   0.653  0.7660 -0.1868  1.7073
  528MOL0     H71263   9.938   7.996   0.801  2.0189  2.0022 -0.8773
  528MOL0     H71264  10.665   7.032   1.691 -3.0794 -1.7278 -1.8152
  528MOL0     H71265  10.749   6.799   1.669  1.3067 -1.4335  1.0316
  528MOL0     H71266  10.724   6.361   1.932  1.2527 -0.9978  1.5259
  528MOL0     H71267  10.873   6.169   1.974 -1.2931 -2.1778 -1.0214
  528MOL0     H71268  11.266   6.109   1.734 -0.5343  0.8335  0.8958
  528MOL0     H71269  11.133   6.040   1.631 -0.7332  6.7002 -1.7281
  528MOL0     H71270  11.127   5.861   1.813 -0.3306  0.5480 -0.2275
  528MOL0     H71271  11.263   5.929   1.890  0.4959 -0.6664  0.1985
  528MOL0     H71272  11.390   5.777   1.747 -1.9154 -2.3565  0.1207
  528MOL0     H71273  11.396   5.921   1.653 -0.1607  2.4983  2.9732
  528MOL0     H71274  11.190   5.830   1.519  0.3244 -0.2525  0.0803
  528MOL0     H71275  11.351   5.773   1.486  1.5744 -0.6356  2.0657
  528MOL0     H71276  11.149   5.439   1.646 -0.0532  0.7185  0.9627
  528MOL0     H71277  11.069   6.249   1.596  1.4549  0.0200  1.1832
  528MOL0     H71278  10.970   6.569   1.587 -0.2314 -0.3910  1.2423
  528MOL0     H71279  11.037   6.443   1.484  0.9549  3.2403 -0.4277
  528MOL0     H71280  10.861   6.487   1.477 -0.6709 -1.4336  0.5338
  529MOL0     O71281   3.996   4.051   5.978  0.3234  0.1973  0.2887
  529MOL0     C71282   3.973   3.931   5.996  0.3320  0.8414  0.8055
  529MOL0     O71283   4.041   3.823   5.945 -0.2174 -0.1163  0.9370
  529MOL0     C71284   4.156   3.852   5.879  0.2844 -0.1844 -0.0275
  529MOL0     C71285   4.266   3.922   5.926  0.3420 -0.6285 -0.1722
  529MOL0     C71286   4.382   3.935   5.851  1.0601  0.1310 -0.0538
  529MOL0     C71287   4.384   3.888   5.720 -0.5633 -0.3666  0.4439
  529MOL0     O71288   4.508   3.887   5.655 -0.5640 -0.8887 -0.7960
  529MOL0     C71289   4.594   3.775   5.671 -0.6258  0.1988 -0.0987
  529MOL0     C71290   4.727   3.820   5.611  0.4265  0.0461 -0.2457
  529MOL0     C71291   4.851   3.727   5.640  0.2909 -0.7587 -0.1774
  529MOL0     C71292   4.961   3.807   5.714 -0.5130  1.2937 -0.3566
  529MOL0     C71293   5.079   3.718   5.754  0.1400 -0.6748  0.6188
  529MOL0     C71294   5.161   3.640   5.641 -0.1585 -0.1094 -0.0005
  529MOL0     C71295   5.310   3.674   5.635 -0.1787  0.3324 -0.3925
  529MOL0     C71296   5.407   3.618   5.536 -0.7616  0.5348 -0.1912
  529MOL0     N71297   5.541   3.673   5.535  0.1621 -0.1798  0.0335
  529MOL0     C71298   5.642   3.634   5.452 -0.4516  1.4538 -0.1794
  529MOL0     C71299   5.754   3.684   5.514  0.4068  0.5458  0.2904
  529MOL0     C71300   5.899   3.635   5.468  0.7428  0.4328  0.3038
  529MOL0     C71301   5.990   3.733   5.414 -0.4023  0.0695  0.0691
  529MOL0     C71302   6.129   3.671   5.423  0.2584 -0.0460  0.0948
  529MOL0     C71303   6.226   3.785   5.373  0.8362 -0.6786  0.5950
  529MOL0     O71304   6.360   3.736   5.386  0.1814 -0.0101 -0.1876
  529MOL0     C71305   6.436   3.755   5.279  0.7629 -0.8029 -1.0685
  529MOL0     C71306   6.395   3.764   5.140  0.5436 -0.1666  0.8680
  529MOL0     C71307   6.483   3.820   5.048 -0.5615 -0.2151  0.1887
  529MOL0     C71308   6.612   3.850   5.072 -0.4669 -0.0709 -0.5865
  529MOL0     C71309   6.691   3.921   4.968  0.1487  0.7924 -0.3562
  529MOL0     O71310   6.635   3.918   4.837 -0.6711 -0.3531 -0.2370
  529MOL0     C71311   6.722   3.963   4.741 -0.0332  0.5691  0.9001
  529MOL0     C71312   6.797   3.873   4.662  0.5099 -0.4826  0.3311
  529MOL0     C71313   6.868   3.909   4.545 -0.9937  0.0761 -0.5034
  529MOL0     C71314   6.857   4.041   4.508 -0.5054 -0.9673 -0.6034
  529MOL0     O71315   6.932   4.093   4.403  0.3656 -0.4163 -0.1939
  529MOL0     C71316   6.849   4.142   4.288 -0.7689 -0.8886 -0.0904
  529MOL0     C71317   6.913   4.160   4.155 -0.9375  0.3691  0.3571
  529MOL0     C71318   6.810   4.137   4.040 -0.3228  0.3256  0.0310
  529MOL0     C71319   6.704   4.245   4.037  0.4069 -0.0179  0.3822
  529MOL0     C71320   6.584   4.191   3.959  0.0478  0.4414 -0.3079
  529MOL0     C71321   6.503   4.318   3.903  0.2436  0.1506  0.7092
  529MOL0     C71322   6.385   4.274   3.814 -0.1657  0.6383  0.1835
  529MOL0     C71323   6.410   4.285   3.659 -0.3524 -0.1996  0.2206
  529MOL0    Cl71324   6.551   4.191   3.591 -0.3440 -0.0638 -0.5106
  529MOL0     C71325   6.775   4.132   4.585 -0.2062  0.0025 -0.5641
  529MOL0     C71326   6.721   4.095   4.707  0.8023 -0.4841 -0.6369
  529MOL0     O71327   6.786   3.979   5.001 -0.0519  0.4564 -0.6415
  529MOL0     C71328   6.664   3.831   5.201  0.0482 -0.2098 -0.4569
  529MOL0     C71329   6.573   3.800   5.304  0.7901  0.7823 -0.6659
  529MOL0     N71330   5.723   3.740   5.635  1.3228 -0.4167  0.4883
  529MOL0     N71331   5.591   3.751   5.636 -0.0620 -0.4082 -0.3625
  529MOL0     C71332   4.276   3.813   5.672 -0.0544 -1.0937 -0.6825
  529MOL0     C71333   4.166   3.796   5.751  0.1673 -1.6522 -0.5966
  529MOL0     C71334   3.871   3.894   6.098  0.4036  0.2452  0.1654
  529MOL0     C71335   3.894   3.773   6.166  0.3340 -0.1002 -0.3310
  529MOL0     C71336   3.791   3.727   6.254 -0.4736 -0.7444  0.9181
  529MOL0     C71337   3.670   3.794   6.269  0.8784  0.0390 -0.0836
  529MOL0     O71338   3.580   3.719   6.347  0.4836 -0.3055 -0.2353
  529MOL0     C71339   3.468   3.798   6.400  0.0102  0.3197  0.4931
  529MOL0     C71340   3.337   3.781   6.312 -0.4952  0.1373  0.5571
  529MOL0     C71341   3.204   3.821   6.373 -0.5657  0.4731 -0.2213
  529MOL0     C71342   3.099   3.824   6.258  0.0998 -0.1537  0.0402
  529MOL0     C71343   2.968   3.830   6.324  0.6102 -0.9007  0.3433
  529MOL0     C71344   2.859   3.843   6.380 -0.4859 -0.1124  0.3007
  529MOL0     C71345   3.659   3.918   6.210  0.0787  0.5048 -0.5198
  529MOL0     C71346   3.756   3.965   6.130  0.4153 -1.5875  0.0213
  529MOL0     C71347   3.727   4.107   6.075 -0.1607  0.0408 -0.0698
  529MOL0     H71348   4.242   3.954   6.027 -1.9515  2.0579 -1.4246
  529MOL0     H71349   4.476   3.972   5.892  0.4799 -0.7185  2.1802
  529MOL0     H71350   4.611   3.759   5.778 -0.7606 -2.2108 -0.3880
  529MOL0     H71351   4.543   3.688   5.629 -0.8796 -0.0373  0.6868
  529MOL0     H71352   4.743   3.922   5.646  2.2648 -0.1230 -0.4852
  529MOL0     H71353   4.725   3.823   5.502  3.4404 -0.2825 -0.4076
  529MOL0     H71354   4.897   3.702   5.544  1.3305 -1.3206  0.4553
  529MOL0     H71355   4.821   3.642   5.702  1.8968 -2.5720 -1.7434
  529MOL0     H71356   4.994   3.891   5.653  0.5250  0.8423 -0.4410
  529MOL0     H71357   4.913   3.838   5.807 -0.1671  0.2227  0.2031
  529MOL0     H71358   5.149   3.779   5.813 -0.9785  0.5143  0.7551
  529MOL0     H71359   5.038   3.644   5.824 -2.2951  3.3763  3.9906
  529MOL0     H71360   5.145   3.533   5.657  0.7335 -0.4127 -0.9908
  529MOL0     H71361   5.126   3.653   5.538  2.4569 -4.6173 -1.7427
  529MOL0     H71362   5.335   3.644   5.737 -1.0834 -0.0365 -0.2697
  529MOL0     H71363   5.325   3.781   5.617  2.5010  0.2173  0.7436
  529MOL0     H71364   5.413   3.512   5.560 -0.6712  0.1095 -1.9658
  529MOL0     H71365   5.359   3.637   5.439  0.2483  3.4007 -0.2326
  529MOL0     H71366   5.634   3.577   5.360 -1.5364  0.2390  0.6250
  529MOL0     H71367   5.929   3.578   5.557 -2.5019 -0.4891  0.9438
  529MOL0     H71368   5.883   3.553   5.397 -0.9493 -2.2875  3.4958
  529MOL0     H71369   5.962   3.749   5.309 -2.2550 -1.1717  0.3205
  529MOL0     H71370   5.985   3.825   5.472 -3.4058  0.6157 -0.8735
  529MOL0     H71371   6.135   3.584   5.356 -1.5276 -0.4082  0.3476
  529MOL0     H71372   6.165   3.646   5.523  2.1428  0.3805 -0.4318
  529MOL0     H71373   6.215   3.873   5.437 -1.2031 -0.7987  0.4754
  529MOL0     H71374   6.198   3.823   5.274  0.0996  3.3285  2.1350
  529MOL0     H71375   6.301   3.733   5.096 -0.1521  2.1124  0.5919
  529MOL0     H71376   6.448   3.837   4.946 -0.9931 -0.5257  0.2826
  529MOL0     H71377   6.801   3.766   4.680 -0.0926 -1.4168 -4.0233
  529MOL0     H71378   6.924   3.828   4.500 -2.1796 -1.9131  1.4039
  529MOL0     H71379   6.777   4.060   4.279 -0.1835 -1.4289  0.0726
  529MOL0     H71380   6.804   4.234   4.326  2.3123  1.0292 -0.7252
  529MOL0     H71381   6.961   4.258   4.152  2.3185 -1.0240  1.9950
  529MOL0     H71382   6.989   4.083   4.139 -2.0595 -1.0746  1.5949
  529MOL0     H71383   6.863   4.146   3.945 -4.1217 -0.5826 -2.3827
  529MOL0     H71384   6.767   4.037   4.050  0.5938  0.1240  2.7643
  529MOL0     H71385   6.748   4.337   3.999  0.7408  0.8565  2.7241
  529MOL0     H71386   6.674   4.274   4.138 -0.8263  2.0715 -0.5178
  529MOL0     H71387   6.530   4.111   4.011 -1.0425  0.2024 -1.7489
  529MOL0     H71388   6.614   4.145   3.864 -1.5863  0.8713 -1.0687
  529MOL0     H71389   6.457   4.365   3.991 -4.1098  0.6791 -1.5952
  529MOL0     H71390   6.565   4.382   3.840 -2.2602  0.7471 -1.3295
  529MOL0     H71391   6.298   4.336   3.838  0.7318  2.3461 -0.8717
  529MOL0     H71392   6.363   4.167   3.825  1.1078 -0.1694 -3.6358
  529MOL0     H71393   6.317   4.264   3.604  0.1304 -1.3526 -0.1880
  529MOL0     H71394   6.449   4.385   3.641  3.0577 -1.1789  1.4067
  529MOL0     H71395   6.768   4.234   4.550  0.6926  0.3785  0.2937
  529MOL0     H71396   6.672   4.169   4.769  0.7390 -1.3025  0.3143
  529MOL0     H71397   6.764   3.866   5.224 -0.6549  0.9078  1.0666
  529MOL0     H71398   6.612   3.794   5.405  0.2661  1.8323 -0.3818
  529MOL0     H71399   4.275   3.786   5.567 -1.7479 -1.0439 -0.7161
  529MOL0     H71400   4.072   3.763   5.708  0.9624 -4.0155 -0.7000
  529MOL0     H71401   3.987   3.717   6.163  1.7134  1.7783  2.4688
  529MOL0     H71402   3.810   3.638   6.313  0.5460 -0.3564  1.1969
  529MOL0     H71403   3.495   3.902   6.418 -1.5311  0.7310  0.5986
  529MOL0     H71404   3.452   3.746   6.495  0.3819 -1.6953 -0.4917
  529MOL0     H71405   3.340   3.682   6.267 -1.0035 -0.2125  1.2736
  529MOL0     H71406   3.359   3.855   6.234 -1.3468  0.0046  0.1792
  529MOL0     H71407   3.224   3.922   6.410  0.6793  0.1559  0.0185
  529MOL0     H71408   3.167   3.748   6.445  2.8665 -3.7955 -2.3265
  529MOL0     H71409   3.116   3.911   6.195 -1.9297  1.2108  1.2589
  529MOL0     H71410   3.109   3.736   6.195 -1.1356 -0.6985  0.5762
  529MOL0     H71411   2.759   3.853   6.417 -0.8653  0.2046 -0.7610
  529MOL0     H71412   3.569   3.977   6.227 -1.5571 -1.6058 -1.3393
  529MOL0     H71413   3.733   4.194   6.142 -3.0597  3.3979 -3.6297
  529MOL0     H71414   3.781   4.134   5.983  0.0361  1.8738  0.5369
  529MOL0     H71415   3.624   4.094   6.039  0.3270 -1.5132 -0.9887
  530MOL0     O71416   3.689   9.318   1.840  0.8473  0.2904  0.2630
  530MOL0     C71417   3.741   9.318   1.954 -0.3613 -0.0626  0.0576
  530MOL0     O71418   3.859   9.379   1.987  0.7478  0.5077  0.1431
  530MOL0     C71419   3.939   9.437   1.900  0.0085 -0.1399 -0.1017
  530MOL0     C71420   3.976   9.365   1.787  0.1729 -0.0776 -0.0438
  530MOL0     C71421   4.076   9.410   1.708 -0.1959 -0.6847 -0.5898
  530MOL0     C71422   4.140   9.531   1.728 -0.4979 -0.2150  0.8594
  530MOL0     O71423   4.234   9.571   1.641 -0.5248 -0.5748 -0.8910
  530MOL0     C71424   4.318   9.685   1.663 -0.2326  0.1910  0.5799
  530MOL0     C71425   4.260   9.812   1.614 -0.2513 -1.1332 -0.0553
  530MOL0     C71426   4.276   9.835   1.467 -0.9382 -0.3460  1.2523
  530MOL0     C71427   4.396   9.929   1.424 -0.1079  0.7523 -0.7413
  530MOL0     C71428   4.397   9.957   1.275 -0.4557  0.3444  0.7173
  530MOL0     C71429   4.502  10.067   1.252 -0.5141 -0.4955  0.0198
  530MOL0     C71430   4.496  10.103   1.105  0.5314 -0.5677  0.2102
  530MOL0     C71431   4.588  10.228   1.089 -0.9328  0.5982  1.0314
  530MOL0     N71432   4.730  10.184   1.080  0.5502 -0.8086 -0.0193
  530MOL0     C71433   4.792  10.066   1.052 -0.3824 -0.2424  0.2193
  530MOL0     C71434   4.923  10.092   1.060  0.3743 -0.1749  0.0309
  530MOL0     C71435   5.033  10.000   0.999 -0.4001 -0.2277 -0.0964
  530MOL0     C71436   5.181  10.043   1.044  0.1012  0.2801  0.6516
  530MOL0     C71437   5.281   9.938   0.983  0.3265 -0.1002 -0.2592
  530MOL0     C71438   5.422   9.975   0.991  0.2245 -0.6054 -1.0546
  530MOL0     O71439   5.449  10.098   0.926 -0.5330 -0.8393 -0.3735
  530MOL0     C71440   5.570  10.110   0.854  0.4828  0.7732  0.2146
  530MOL0     C71441   5.684  10.030   0.859 -0.5970  0.3752 -0.7197
  530MOL0     C71442   5.802  10.057   0.790  0.5238 -0.3297 -0.4534
  530MOL0     C71443   5.814  10.168   0.706  1.0093 -0.6502  0.1606
  530MOL0     C71444   5.927  10.208   0.635 -0.3687 -0.3154 -0.0323
  530MOL0     O71445   5.940  10.343   0.608 -0.2154  0.5359 -0.3913
  530MOL0     C71446   6.054  10.372   0.533  0.1284  0.6766  0.4396
  530MOL0     C71447   6.189  10.360   0.591  0.9089  0.0921 -0.0465
  530MOL0     C71448   6.296  10.379   0.510 -0.5196  0.1985 -0.7580
  530MOL0     C71449   6.280  10.410   0.372 -0.4123  0.0929  0.1856
  530MOL0     O71450   6.395  10.435   0.298  0.0289 -0.8172 -0.2645
  530MOL0     C71451   6.418  10.574   0.291 -0.5279  0.5120  0.3458
  530MOL0     C71452   6.551  10.587   0.220 -0.6062  0.1749  0.7855
  530MOL0     C71453   6.590  10.738   0.186  0.3068 -0.2942 -0.2340
  530MOL0     C71454   6.732  10.744   0.132  0.2192 -0.4451  0.5584
  530MOL0     C71455   6.762  10.875   0.050  0.6730  0.4429 -0.0893
  530MOL0     C71456   6.910  10.870  -0.008  0.9624  0.5672  0.7166
  530MOL0     C71457   6.964  10.996  -0.086  0.0991 -0.0785  0.4911
  530MOL0     C71458   6.939  11.139  -0.038 -0.7001  0.2886 -0.1284
  530MOL0    Cl71459   7.004  11.158   0.125  0.2184 -0.0244  0.2802
  530MOL0     C71460   6.147  10.427   0.320 -0.9046  0.6556  0.0420
  530MOL0     C71461   6.036  10.406   0.398 -0.1941 -0.5126 -0.1724
  530MOL0     O71462   6.010  10.122   0.602  0.1180  0.5368 -0.2165
  530MOL0     C71463   5.695  10.247   0.693 -0.7001 -0.9859 -0.1892
  530MOL0     C71464   5.573  10.222   0.760  0.1198  0.1105  0.3604
  530MOL0     N71465   4.955  10.220   1.100 -0.0465  0.2949 -0.7956
  530MOL0     N71466   4.836  10.264   1.120 -1.5640 -0.0356 -0.1834
  530MOL0     C71467   4.093   9.603   1.844 -0.7125  0.5936  0.9800
  530MOL0     C71468   3.996   9.560   1.932 -0.4626  0.0311 -0.2639
  530MOL0     C71469   3.662   9.244   2.054  0.0042 -0.2982  0.1847
  530MOL0     C71470   3.585   9.134   2.010 -0.5332  0.0206 -0.4762
  530MOL0     C71471   3.529   9.053   2.105  0.3020 -0.3830  0.0795
  530MOL0     C71472   3.533   9.091   2.246 -0.5177  0.8543  0.3420
  530MOL0     O71473   3.461   9.007   2.329  0.4979  0.2771  0.1590
  530MOL0     C71474   3.416   9.061   2.454  0.4899  0.6899  0.2325
  530MOL0     C71475   3.368   8.950   2.552 -0.0838  0.9261  0.1443
  530MOL0     C71476   3.285   9.013   2.661 -0.0296  0.1002 -0.0721
  530MOL0     C71477   3.209   8.917   2.748 -0.4485  0.6263  0.5505
  530MOL0     C71478   3.307   8.835   2.822 -0.0126 -0.0512  0.6338
  530MOL0     C71479   3.391   8.779   2.886  0.1001 -0.0490 -0.2561
  530MOL0     C71480   3.595   9.210   2.283  0.5347  0.0786 -0.0067
  530MOL0     C71481   3.671   9.281   2.192  0.5072 -0.2306  0.1443
  530MOL0     C71482   3.764   9.389   2.242  0.3224 -0.3066  0.5416
  530MOL0     H71483   3.920   9.278   1.758 -1.4988  0.4399  1.4761
  530MOL0     H71484   4.111   9.349   1.626  2.4240  2.0321 -1.6761
  530MOL0     H71485   4.336   9.692   1.771 -1.6949  1.2474  0.7821
  530MOL0     H71486   4.409   9.661   1.609 -1.3977  3.2079 -3.1576
  530MOL0     H71487   4.306   9.894   1.670 -2.9975 -0.6829  1.7073
  530MOL0     H71488   4.154   9.809   1.641 -0.6679 -2.8546 -1.6438
  530MOL0     H71489   4.182   9.879   1.434 -1.1000 -0.4300  1.5947
  530MOL0     H71490   4.289   9.741   1.412  1.5099  1.6639 -1.9816
  530MOL0     H71491   4.386  10.021   1.482  0.6089 -0.3434  1.2045
  530MOL0     H71492   4.491   9.889   1.460 -0.6744  0.3297  0.3191
  530MOL0     H71493   4.436   9.865   1.231 -1.6939 -0.0149  0.3430
  530MOL0     H71494   4.301   9.997   1.243 -0.3230  1.9745  2.1610
  530MOL0     H71495   4.486  10.151   1.320  0.9666  1.0253 -1.4133
  530MOL0     H71496   4.602  10.032   1.282  2.0320  4.4237 -1.6763
  530MOL0     H71497   4.396  10.128   1.069  1.1143  0.1494 -0.9829
  530MOL0     H71498   4.527  10.012   1.052  1.3579  0.6339 -1.4460
  530MOL0     H71499   4.557  10.268   0.992 -3.9290  0.9342  2.0526
  530MOL0     H71500   4.558  10.297   1.167 -4.6763  2.0967 -1.4644
  530MOL0     H71501   4.744   9.974   1.020  0.9667 -2.0157  2.9182
  530MOL0     H71502   5.001   9.897   1.017 -1.0114 -0.1040 -0.4711
  530MOL0     H71503   5.022  10.003   0.890 -0.2368 -1.1334 -0.1438
  530MOL0     H71504   5.210  10.139   0.999  1.3742  1.0705  2.9893
  530MOL0     H71505   5.187  10.050   1.153  0.2709 -0.1373  0.6704
  530MOL0     H71506   5.243   9.913   0.884  0.0017 -2.0733  0.3058
  530MOL0     H71507   5.256   9.844   1.034 -1.6299  0.2487 -0.4821
  530MOL0     H71508   5.475   9.892   0.944  4.1279  0.9974  0.1590
  530MOL0     H71509   5.456   9.982   1.095  0.8414  3.1385 -1.3918
  530MOL0     H71510   5.689   9.951   0.934  0.3462  1.5901  0.5553
  530MOL0     H71511   5.887   9.990   0.796  2.4799  2.0944  0.6527
  530MOL0     H71512   6.202  10.325   0.693  3.4685 -0.9159 -0.6466
  530MOL0     H71513   6.397  10.359   0.543 -0.4791 -1.1014 -1.5748
  530MOL0     H71514   6.336  10.633   0.247 -2.0792 -1.1601  0.8920
  530MOL0     H71515   6.432  10.619   0.390 -1.1773  0.4983  0.4497
  530MOL0     H71516   6.632  10.544   0.280  0.5786 -0.7407 -1.3620
  530MOL0     H71517   6.559  10.534   0.125  4.2771 -0.0424  1.0674
  530MOL0     H71518   6.510  10.775   0.121 -1.1803 -0.8763  1.2022
  530MOL0     H71519   6.590  10.795   0.279  1.7463  0.5142 -0.6849
  530MOL0     H71520   6.753  10.656   0.070 -3.2598 -0.8634 -0.2062
  530MOL0     H71521   6.806  10.750   0.213 -0.8299  3.8016  1.4603
  530MOL0     H71522   6.751  10.966   0.110  0.3883  0.7987 -0.6799
  530MOL0     H71523   6.682  10.888  -0.023 -3.4029  3.1202  4.2315
  530MOL0     H71524   6.987  10.869   0.070  3.4803 -2.3206 -1.5402
  530MOL0     H71525   6.918  10.779  -0.068 -1.9526  0.0619  0.9657
  530MOL0     H71526   6.931  11.003  -0.190 -0.2819 -0.9286  0.5501
  530MOL0     H71527   7.071  10.977  -0.103  0.2149  2.0321 -1.9063
  530MOL0     H71528   6.993  11.200  -0.111 -1.5069  0.3321 -0.7061
  530MOL0     H71529   6.836  11.177  -0.039 -0.2530  2.0080  3.2181
  530MOL0     H71530   6.140  10.463   0.217  2.3614  1.8811  0.1219
  530MOL0     H71531   5.940  10.396   0.348  0.7522 -3.4907 -1.6361
  530MOL0     H71532   5.709  10.324   0.619  0.7992 -1.8261 -0.8427
  530MOL0     H71533   5.495  10.297   0.761 -0.4106 -0.4307  0.9199
  530MOL0     H71534   4.163   9.680   1.875  4.5735 -2.8103 -1.0538
  530MOL0     H71535   3.971   9.626   2.014  0.9708  2.1208 -1.4343
  530MOL0     H71536   3.580   9.117   1.903  0.9051 -0.0093 -0.5563
  530MOL0     H71537   3.471   8.969   2.070  2.7567 -1.4183 -1.8272
  530MOL0     H71538   3.346   9.143   2.439 -1.9385 -1.5814 -1.8153
  530MOL0     H71539   3.501   9.105   2.508  0.4906  1.6725 -0.5505
  530MOL0     H71540   3.459   8.908   2.597 -0.4786  0.7737  0.8021
  530MOL0     H71541   3.313   8.867   2.506 -1.7822  0.8252  2.2244
  530MOL0     H71542   3.208   9.077   2.617 -1.7232 -0.4862  1.9176
  530MOL0     H71543   3.342   9.092   2.712 -0.4743  0.0553  0.5031
  530MOL0     H71544   3.156   8.978   2.822  1.0714  1.6804  0.8053
  530MOL0     H71545   3.153   8.847   2.685  1.8497 -2.8141  2.0430
  530MOL0     H71546   3.471   8.735   2.941  1.5443 -0.9051 -2.8530
  530MOL0     H71547   3.593   9.244   2.386  2.2600  5.0679 -1.3548
  530MOL0     H71548   3.751   9.479   2.180  3.9722 -0.8324 -1.2058
  530MOL0     H71549   3.720   9.410   2.340 -1.4563  0.2082 -0.3087
  530MOL0     H71550   3.867   9.359   2.259 -0.0238 -0.5987  2.3953
  531MOL0     O71551   7.457   5.137   0.358 -0.2840 -0.0203  0.6972
  531MOL0     C71552   7.515   5.129   0.254 -0.8130 -0.0279  0.0967
  531MOL0     O71553   7.459   5.124   0.134 -0.2067 -0.7367  0.0835
  531MOL0     C71554   7.331   5.176   0.119  0.0185 -0.1538  0.0489
  531MOL0     C71555   7.231   5.086   0.072 -0.1497 -0.4215 -0.2774
  531MOL0     C71556   7.097   5.122   0.056  0.1300  0.3047 -0.0086
  531MOL0     C71557   7.061   5.251   0.090 -0.7949 -0.3458  0.0054
  531MOL0     O71558   6.934   5.286   0.089  0.2005 -0.5912  0.2202
  531MOL0     C71559   6.897   5.370   0.204  0.0991 -1.1910  0.2408
  531MOL0     C71560   6.740   5.356   0.195 -0.4945  0.0836 -0.3388
  531MOL0     C71561   6.669   5.421   0.311  0.1025 -0.3184  0.4077
  531MOL0     C71562   6.522   5.443   0.279  1.0616 -1.1364 -0.1724
  531MOL0     C71563   6.438   5.320   0.238 -0.7688  0.2978 -1.2447
  531MOL0     C71564   6.289   5.350   0.225  0.6921  0.2220  0.5551
  531MOL0     C71565   6.259   5.475   0.138  0.1659 -1.0709 -0.2978
  531MOL0     C71566   6.104   5.506   0.134 -0.4726 -0.0715 -0.2845
  531MOL0     N71567   6.082   5.579   0.016  0.4298 -0.0913  0.8482
  531MOL0     C71568   6.042   5.542  -0.114  1.2300 -0.1161  0.1059
  531MOL0     C71569   6.052   5.658  -0.192  0.2156  0.1559 -0.6099
  531MOL0     C71570   6.021   5.673  -0.340 -0.5201 -1.0993 -0.7905
  531MOL0     C71571   6.081   5.563  -0.412 -0.1266 -0.2507  0.1591
  531MOL0     C71572   6.107   5.591  -0.561  1.0244  0.5485 -0.0320
  531MOL0     C71573   6.174   5.478  -0.637 -0.3383  0.4179 -1.0103
  531MOL0     O71574   6.315   5.486  -0.591  0.2799 -0.0741 -1.0154
  531MOL0     C71575   6.401   5.405  -0.631 -0.6418  0.3841  0.6751
  531MOL0     C71576   6.516   5.383  -0.553 -1.0559  0.0449  0.8144
  531MOL0     C71577   6.621   5.312  -0.622  0.2581  0.7893  0.3913
  531MOL0     C71578   6.603   5.257  -0.748 -1.0031  0.1608 -0.6636
  531MOL0     C71579   6.713   5.176  -0.808 -0.4048 -0.4956 -0.2636
  531MOL0     O71580   6.818   5.132  -0.731 -0.4028  0.3961  0.5588
  531MOL0     C71581   6.886   5.023  -0.771  0.8029  0.2918  0.7233
  531MOL0     C71582   6.830   4.911  -0.829  0.0731 -0.7748 -1.1781
  531MOL0     C71583   6.909   4.801  -0.855  1.0087  1.0701  0.0653
  531MOL0     C71584   7.046   4.796  -0.838 -0.0364  0.1012  0.0916
  531MOL0     O71585   7.115   4.690  -0.874 -0.1890  0.0866  0.2984
  531MOL0     C71586   7.056   4.581  -0.946 -1.0933 -0.4158  0.3821
  531MOL0     C71587   7.045   4.638  -1.090 -0.0095 -0.1311  0.1149
  531MOL0     C71588   7.081   4.531  -1.197 -0.7207 -0.6788  0.1271
  531MOL0     C71589   7.057   4.591  -1.329  0.0505  0.2560  0.3021
  531MOL0     C71590   7.092   4.488  -1.439  0.6311  1.1856  0.5656
  531MOL0     C71591   7.231   4.519  -1.503  0.0521  0.4605 -0.1283
  531MOL0     C71592   7.232   4.660  -1.561 -0.3168 -0.0587  0.2389
  531MOL0     C71593   7.367   4.667  -1.639 -0.1581  0.2431  0.2936
  531MOL0    Cl71594   7.410   4.831  -1.679  0.0923  0.0105  0.1089
  531MOL0     C71595   7.107   4.916  -0.796  0.5476 -0.1063 -0.6732
  531MOL0     C71596   7.022   5.028  -0.756 -0.9314  0.4791 -0.8167
  531MOL0     O71597   6.701   5.152  -0.933  0.6583 -0.6359 -0.8819
  531MOL0     C71598   6.497   5.297  -0.828  0.4046  0.6568 -0.8181
  531MOL0     C71599   6.402   5.375  -0.770 -0.6261  0.5793 -0.0900
  531MOL0     N71600   6.081   5.760  -0.103  0.0296  0.0840  0.1522
  531MOL0     N71601   6.097   5.716   0.021  0.1582  0.2114  0.2885
  531MOL0     C71602   7.159   5.348   0.123  0.3302 -1.0640  0.3943
  531MOL0     C71603   7.293   5.310   0.136  0.2379  0.4022 -0.3076
  531MOL0     C71604   7.655   5.100   0.271  0.0860 -0.1637  1.0613
  531MOL0     C71605   7.697   5.036   0.390 -0.2395 -0.3128 -0.6147
  531MOL0     C71606   7.830   5.008   0.402 -0.3795  1.0779  0.2493
  531MOL0     C71607   7.927   5.059   0.314  0.1827  0.2522  0.2777
  531MOL0     O71608   8.065   5.038   0.334 -0.2009  0.8860  0.3334
  531MOL0     C71609   8.101   4.965   0.447  0.7591 -0.3109  0.2159
  531MOL0     C71610   8.245   4.927   0.411 -0.5591 -0.7071 -0.9763
  531MOL0     C71611   8.332   5.055   0.428 -1.0782  0.3904 -0.1243
  531MOL0     C71612   8.480   5.032   0.391  0.4301 -0.3920 -0.3179
  531MOL0     C71613   8.547   4.915   0.445 -0.2302  0.4096 -0.2588
  531MOL0     C71614   8.622   4.832   0.498  0.0197  0.0539 -0.3818
  531MOL0     C71615   7.880   5.112   0.198  0.2632 -0.3253  0.1441
  531MOL0     C71616   7.747   5.129   0.165  0.3201 -0.2992 -0.4072
  531MOL0     C71617   7.717   5.192   0.029 -1.2562  0.2506 -0.6383
  531MOL0     H71618   7.258   4.983   0.056 -0.3824 -0.6601  0.7503
  531MOL0     H71619   7.017   5.051   0.039 -1.5865  2.1698  0.0165
  531MOL0     H71620   6.934   5.339   0.302 -0.4210  1.6369  1.4419
  531MOL0     H71621   6.924   5.475   0.190 -1.0461 -0.9646 -0.4879
  531MOL0     H71622   6.719   5.249   0.192 -0.7357  0.0990  0.3747
  531MOL0     H71623   6.709   5.402   0.101  0.3931 -0.5976 -0.9741
  531MOL0     H71624   6.710   5.519   0.335 -2.3075  0.6975  0.6252
  531MOL0     H71625   6.682   5.359   0.400  1.8111 -0.7860 -0.1197
  531MOL0     H71626   6.479   5.491   0.367  2.6278  0.0868 -0.0265
  531MOL0     H71627   6.521   5.517   0.198  0.2856 -0.2423  0.6283
  531MOL0     H71628   6.468   5.273   0.144 -0.9128  0.0233 -1.1530
  531MOL0     H71629   6.454   5.255   0.324  0.5527 -0.1274 -1.7949
  531MOL0     H71630   6.226   5.265   0.198  0.9472 -0.0522  0.8079
  531MOL0     H71631   6.255   5.375   0.326  1.9326  2.2243  0.5383
  531MOL0     H71632   6.302   5.461   0.038 -0.3125  0.5278 -0.7630
  531MOL0     H71633   6.312   5.562   0.178  0.0030 -1.5332  0.9607
  531MOL0     H71634   6.046   5.413   0.126  0.2033 -0.4719 -0.5443
  531MOL0     H71635   6.073   5.566   0.220  0.0720  0.5817 -0.5375
  531MOL0     H71636   6.019   5.443  -0.152 -2.3345  1.9179 -3.8962
  531MOL0     H71637   5.917   5.686  -0.369 -1.0181 -0.2892  1.2337
  531MOL0     H71638   6.060   5.769  -0.378  0.1497  0.0421  2.4816
  531MOL0     H71639   6.181   5.545  -0.369 -0.6608 -0.1134  1.5013
  531MOL0     H71640   6.006   5.483  -0.415  2.6002 -3.0548  0.8607
  531MOL0     H71641   6.170   5.680  -0.573  1.7192  0.3011  1.4496
  531MOL0     H71642   6.013   5.604  -0.615  0.8375  2.6330  0.6999
  531MOL0     H71643   6.152   5.495  -0.743 -1.1583  0.8020 -0.7863
  531MOL0     H71644   6.128   5.381  -0.615  1.3762 -0.4946 -1.2956
  531MOL0     H71645   6.532   5.432  -0.457 -2.0793 -0.7177  1.4010
  531MOL0     H71646   6.717   5.299  -0.573  0.1659 -5.0092 -0.2847
  531MOL0     H71647   6.724   4.901  -0.850 -0.1784  1.3552 -1.1854
  531MOL0     H71648   6.843   4.717  -0.875 -1.7327  3.4426 -1.8103
  531MOL0     H71649   7.137   4.508  -0.951  1.0280  1.7339  1.0059
  531MOL0     H71650   6.965   4.530  -0.913 -1.1176 -1.2375 -0.8902
  531MOL0     H71651   6.942   4.673  -1.102 -0.3620  0.9768  4.5794
  531MOL0     H71652   7.117   4.718  -1.108 -1.5995  0.7759 -2.9148
  531MOL0     H71653   7.190   4.521  -1.200 -0.6365  0.3174 -2.4228
  531MOL0     H71654   7.036   4.431  -1.189  4.4470 -3.3536 -0.2509
  531MOL0     H71655   7.117   4.683  -1.328 -0.4798  0.6432 -1.0703
  531MOL0     H71656   6.955   4.628  -1.347  1.2428  2.1781 -3.8002
  531MOL0     H71657   7.020   4.489  -1.522 -0.0870  0.4534  1.1597
  531MOL0     H71658   7.090   4.392  -1.386  0.8173  1.9331  1.9776
  531MOL0     H71659   7.310   4.500  -1.431 -0.5980 -3.9771 -0.3062
  531MOL0     H71660   7.258   4.448  -1.581 -3.9085 -1.4959  0.0281
  531MOL0     H71661   7.228   4.728  -1.476 -1.5317  1.2094 -0.7908
  531MOL0     H71662   7.140   4.668  -1.620 -0.3251  0.1456  0.2795
  531MOL0     H71663   7.447   4.615  -1.586  1.0338 -1.0644 -2.5305
  531MOL0     H71664   7.357   4.621  -1.738  1.5734 -0.7535  0.5412
  531MOL0     H71665   7.214   4.933  -0.783 -0.0443  4.0443  0.4170
  531MOL0     H71666   7.080   5.111  -0.719  1.0452 -1.3243  0.3741
  531MOL0     H71667   6.477   5.275  -0.933  0.3686  2.3549 -1.1948
  531MOL0     H71668   6.317   5.393  -0.835 -1.9963 -1.1391  1.1415
  531MOL0     H71669   7.137   5.448   0.158  0.0957 -2.5814  5.2641
  531MOL0     H71670   7.369   5.372   0.182  2.2633 -2.1211 -0.0284
  531MOL0     H71671   7.623   5.007   0.464  0.8928  0.0505  0.6877
  531MOL0     H71672   7.855   4.953   0.493 -1.6191 -1.4180 -0.8214
  531MOL0     H71673   8.041   4.874   0.462  0.2326  0.4270  3.4797
  531MOL0     H71674   8.107   5.031   0.534  0.2689  2.7932 -1.9516
  531MOL0     H71675   8.246   4.874   0.315  0.7778  1.7862 -2.4485
  531MOL0     H71676   8.287   4.852   0.478  0.2150 -0.8603 -1.6061
  531MOL0     H71677   8.338   5.094   0.530  0.4025 -0.0219 -0.0283
  531MOL0     H71678   8.297   5.141   0.371 -1.8388 -0.7591 -1.4473
  531MOL0     H71679   8.499   5.030   0.283 -0.3218  1.9238 -0.5457
  531MOL0     H71680   8.541   5.113   0.432  1.6037 -1.4870  0.1879
  531MOL0     H71681   8.668   4.744   0.539 -0.1633 -0.7697 -1.8788
  531MOL0     H71682   7.954   5.151   0.128 -0.4364  1.8863  0.5369
  531MOL0     H71683   7.675   5.108  -0.027  0.2913 -0.6632 -0.5086
  531MOL0     H71684   7.648   5.276   0.038  0.9794  2.1623 -0.0848
  531MOL0     H71685   7.805   5.225  -0.027  0.4536  0.4024  1.9342
  532MOL0     O71686   7.116   8.151  10.154 -0.3079  0.8230 -0.0557
  532MOL0     C71687   7.210   8.164  10.081 -0.3269 -0.2434  0.6441
  532MOL0     O71688   7.334   8.134  10.095  0.2063 -0.2984  0.4763
  532MOL0     C71689   7.379   8.068  10.209  0.0138 -0.8050 -0.0747
  532MOL0     C71690   7.486   8.133  10.283  0.6702 -0.1648  0.0766
  532MOL0     C71691   7.538   8.068  10.397  0.5036 -0.2248  0.1513
  532MOL0     C71692   7.493   7.938  10.430 -0.7754 -0.7735 -0.2827
  532MOL0     O71693   7.558   7.887  10.538 -0.8623 -0.4258 -0.3070
  532MOL0     C71694   7.501   7.769  10.596 -0.2937  0.3453  0.0323
  532MOL0     C71695   7.588   7.706  10.712 -0.0118 -0.2523 -0.2942
  532MOL0     C71696   7.590   7.781  10.856 -0.3049  1.0706  0.8875
  532MOL0     C71697   7.738   7.806  10.888 -0.5779 -0.9114 -1.0144
  532MOL0     C71698   7.769   7.888  11.013 -0.5352 -0.2207  0.6443
  532MOL0     C71699   7.736   8.034  10.988  0.6538  0.5495 -0.4406
  532MOL0     C71700   7.779   8.121  11.108  1.1393  0.5416 -0.7362
  532MOL0     C71701   7.757   8.272  11.066  0.3081  0.3697 -0.7645
  532MOL0     N71702   7.800   8.350  11.180 -0.4990  0.1659  0.1752
  532MOL0     C71703   7.721   8.379  11.280 -0.1320  0.2710 -1.0250
  532MOL0     C71704   7.788   8.464  11.357 -0.9307  0.1105  1.0226
  532MOL0     C71705   7.731   8.530  11.482  0.3780 -0.4637 -0.6903
  532MOL0     C71706   7.584   8.585  11.467  0.0493 -0.0722 -0.0769
  532MOL0     C71707   7.594   8.730  11.425 -0.9948 -0.2896  0.5083
  532MOL0     C71708   7.455   8.781  11.373  0.0231 -0.7040 -0.7400
  532MOL0     O71709   7.343   8.739  11.468  0.2740  0.3293 -0.3004
  532MOL0     C71710   7.224   8.810  11.439 -0.5432  0.5367  0.1957
  532MOL0     C71711   7.196   8.905  11.340 -0.3863  0.0165 -0.1610
  532MOL0     C71712   7.066   8.950  11.312  0.6030 -0.5731 -0.3278
  532MOL0     C71713   6.955   8.881  11.376  0.7111 -0.5558  0.5357
  532MOL0     C71714   6.809   8.908  11.332 -0.9264  0.0671  0.0079
  532MOL0     O71715   6.713   8.820  11.378  0.5403 -0.1921  0.1100
  532MOL0     C71716   6.589   8.862  11.358 -0.3492 -0.7374  0.8090
  532MOL0     C71717   6.521   8.840  11.241  0.7158 -0.4292 -0.0703
  532MOL0     C71718   6.385   8.886  11.229 -0.4327 -0.2449 -0.7927
  532MOL0     C71719   6.321   8.942  11.341 -0.4647  0.4283 -1.3445
  532MOL0     O71720   6.189   8.986  11.336  0.4382  0.9050  0.2724
  532MOL0     C71721   6.092   8.884  11.305  0.6854  0.7997  0.3035
  532MOL0     C71722   6.016   8.833  11.428 -0.1884  0.5684  0.8878
  532MOL0     C71723   6.097   8.744  11.529 -0.4152  0.0197  0.1116
  532MOL0     C71724   6.016   8.626  11.586 -0.1848  0.1968 -0.7975
  532MOL0     C71725   5.964   8.665  11.725  0.0625  0.1461  0.2987
  532MOL0     C71726   5.896   8.547  11.800  0.2752  0.2251  0.1988
  532MOL0     C71727   5.842   8.569  11.938 -0.3694 -0.3653 -0.3308
  532MOL0     C71728   5.709   8.646  11.931 -0.0240  0.0283 -0.1528
  532MOL0    Cl71729   5.585   8.559  11.848  0.1042 -0.0617 -0.5434
  532MOL0     C71730   6.387   8.951  11.465 -0.1026 -0.2308  0.0280
  532MOL0     C71731   6.517   8.911  11.470 -0.2355  0.1233 -0.5430
  532MOL0     O71732   6.793   8.997  11.249 -0.7533  0.5719 -0.3295
  532MOL0     C71733   6.979   8.785  11.470 -0.4804  0.2138  0.8631
  532MOL0     C71734   7.114   8.759  11.498  0.6093 -0.0002 -0.8600
  532MOL0     N71735   7.903   8.489  11.285 -0.7218  0.9795  0.2599
  532MOL0     N71736   7.913   8.421  11.184  0.6792 -0.7475  0.8684
  532MOL0     C71737   7.391   7.878  10.352 -0.6406 -0.6888 -0.5572
  532MOL0     C71738   7.336   7.944  10.243  0.8051  0.5294 -0.1021
  532MOL0     C71739   7.180   8.206   9.943  0.0384 -0.4759  0.6381
  532MOL0     C71740   7.239   8.323   9.895 -0.7535  0.1250 -0.0767
  532MOL0     C71741   7.230   8.357   9.760 -0.5228 -0.0903  0.1235
  532MOL0     C71742   7.158   8.281   9.671 -0.0846 -0.1751 -0.0388
  532MOL0     O71743   7.161   8.317   9.540 -0.1734 -0.3341  0.1639
  532MOL0     C71744   7.165   8.212   9.441 -0.5591  0.6519  0.3678
  532MOL0     C71745   7.184   8.252   9.293  0.3711 -0.3691 -0.8812
  532MOL0     C71746   7.132   8.402   9.270 -0.4676 -1.1960 -0.3791
  532MOL0     C71747   7.165   8.457   9.132  0.7743 -0.3720  0.7295
  532MOL0     C71748   7.109   8.376   9.023 -0.0517 -0.7774 -0.0986
  532MOL0     C71749   7.073   8.314   8.932 -0.1097  0.5451  0.4985
  532MOL0     C71750   7.104   8.159   9.720  0.0773 -0.0763  0.3689
  532MOL0     C71751   7.117   8.120   9.845  0.3345 -0.6502 -0.7117
  532MOL0     C71752   7.064   7.981   9.887  0.2063  0.2529 -0.8450
  532MOL0     H71753   7.521   8.235  10.270 -2.5074  0.7130 -2.8804
  532MOL0     H71754   7.608   8.108  10.470  2.1834  0.2801 -1.6226
  532MOL0     H71755   7.399   7.784  10.634  0.9827  0.4806  3.7352
  532MOL0     H71756   7.502   7.696  10.514  1.9234  1.3976 -0.9594
  532MOL0     H71757   7.689   7.698  10.671  0.4550 -0.9238  0.9314
  532MOL0     H71758   7.541   7.609  10.730 -0.6027  0.4442  2.5923
  532MOL0     H71759   7.556   7.701  10.922 -2.9103 -0.2352 -1.7923
  532MOL0     H71760   7.520   7.865  10.855 -3.2231 -1.1899  1.3425
  532MOL0     H71761   7.783   7.709  10.907  0.9985 -0.0390 -0.0862
  532MOL0     H71762   7.786   7.844  10.798 -1.2486 -3.9101 -2.7633
  532MOL0     H71763   7.725   7.857  11.108 -1.1683  0.4969  0.5923
  532MOL0     H71764   7.877   7.871  11.015 -0.8843 -2.6714  1.5892
  532MOL0     H71765   7.784   8.073  10.898  2.5690 -1.8119 -0.5357
  532MOL0     H71766   7.630   8.047  10.966  0.9498  0.0375 -2.3118
  532MOL0     H71767   7.881   8.107  11.144  0.8612 -1.4990 -0.6389
  532MOL0     H71768   7.717   8.093  11.194  3.2907  4.4629  2.4583
  532MOL0     H71769   7.819   8.307  10.983  0.9817  0.6167 -0.1591
  532MOL0     H71770   7.651   8.287  11.043  0.5170  0.6197 -1.6252
  532MOL0     H71771   7.620   8.342  11.294 -0.4996  0.6921 -2.4693
  532MOL0     H71772   7.730   8.448  11.554 -0.3095  1.2039  1.2899
  532MOL0     H71773   7.795   8.610  11.520 -1.1278  0.1738  0.6379
  532MOL0     H71774   7.523   8.532  11.393 -3.5067 -1.7930  3.7302
  532MOL0     H71775   7.528   8.588  11.560  0.6594 -0.0829  0.2976
  532MOL0     H71776   7.677   8.748  11.355  0.0769  1.5544  2.1631
  532MOL0     H71777   7.600   8.790  11.515 -4.4569  2.1143 -0.6494
  532MOL0     H71778   7.439   8.731  11.277 -1.2276 -4.9074  1.4116
  532MOL0     H71779   7.461   8.891  11.374 -2.5691 -0.4691 -1.4895
  532MOL0     H71780   7.272   8.941  11.271 -0.1772 -1.2183 -0.6042
  532MOL0     H71781   7.038   9.039  11.256 -1.2316  0.2577  1.7608
  532MOL0     H71782   6.575   8.803  11.155  3.4398  0.9449  0.9474
  532MOL0     H71783   6.328   8.881  11.137  0.0675  2.7976 -1.3863
  532MOL0     H71784   6.023   8.919  11.228  0.2473  0.2011  0.4179
  532MOL0     H71785   6.130   8.794  11.257 -3.1167  0.3370 -2.2171
  532MOL0     H71786   5.956   8.911  11.478 -0.7161  1.8455 -1.6031
  532MOL0     H71787   5.936   8.770  11.389 -1.2363  0.7866  2.5489
  532MOL0     H71788   6.189   8.708  11.481 -0.4636  0.7258 -0.5405
  532MOL0     H71789   6.132   8.807  11.611 -0.3962 -0.5856  0.5708
  532MOL0     H71790   6.081   8.539  11.599 -0.4919 -0.1268 -1.4035
  532MOL0     H71791   5.934   8.590  11.524 -0.5508 -0.4259  0.0226
  532MOL0     H71792   5.897   8.750  11.710  1.0009  1.5276  3.0835
  532MOL0     H71793   6.040   8.704  11.794 -1.2314  0.7612  1.4300
  532MOL0     H71794   5.815   8.501  11.743  0.8945 -1.2569  0.4469
  532MOL0     H71795   5.970   8.466  11.810 -1.4051 -1.7107 -2.0017
  532MOL0     H71796   5.908   8.634  11.996 -3.1934  2.9820 -0.5034
  532MOL0     H71797   5.826   8.474  11.990  1.0978 -0.3502  0.2030
  532MOL0     H71798   5.689   8.664  12.037  0.3035 -1.8966  0.2779
  532MOL0     H71799   5.710   8.750  11.898  0.0190 -0.4358 -1.7025
  532MOL0     H71800   6.319   8.984  11.543  0.5711 -0.0664  0.5577
  532MOL0     H71801   6.566   8.902  11.567 -1.8579 -1.6847  0.1809
  532MOL0     H71802   6.895   8.737  11.520 -0.0780  2.6523  4.2349
  532MOL0     H71803   7.125   8.689  11.581  0.1116  1.3351  0.3687
  532MOL0     H71804   7.346   7.780  10.366 -0.4118 -0.7404 -0.1717
  532MOL0     H71805   7.259   7.901  10.181  0.0613  3.2262 -1.1565
  532MOL0     H71806   7.287   8.387   9.968 -1.8106  0.3722  0.4199
  532MOL0     H71807   7.277   8.444   9.716  2.1312 -2.1721 -1.4958
  532MOL0     H71808   7.068   8.161   9.446  0.1247 -0.9916 -1.5165
  532MOL0     H71809   7.243   8.140   9.466 -0.1427  1.5620  1.7985
  532MOL0     H71810   7.144   8.178   9.224 -0.8874 -0.6108  0.0796
  532MOL0     H71811   7.293   8.248   9.281  0.9414  0.4618  2.8135
  532MOL0     H71812   7.191   8.459   9.343  0.2943 -1.3554 -0.8592
  532MOL0     H71813   7.024   8.406   9.286 -0.6210 -2.5756 -0.9355
  532MOL0     H71814   7.134   8.562   9.127 -0.0409 -0.5726  1.3995
  532MOL0     H71815   7.274   8.455   9.129  0.7804  0.1449 -1.2902
  532MOL0     H71816   7.038   8.252   8.852  1.3935  0.0997  0.1495
  532MOL0     H71817   7.052   8.093   9.652  1.0127 -0.2093 -0.2397
  532MOL0     H71818   7.147   7.910   9.881  1.0192  1.0555  0.3440
  532MOL0     H71819   7.036   7.973   9.993  0.3769  2.2273 -0.6102
  532MOL0     H71820   6.978   7.955   9.824 -0.1704 -0.7054  0.0353
  533MOL0     O71821   3.467   9.230   1.547 -0.0435  0.1842  0.5927
  533MOL0     C71822   3.436   9.322   1.625  0.1378 -0.7963  0.2556
  533MOL0     O71823   3.473   9.454   1.625 -0.0991 -0.2793 -0.6524
  533MOL0     C71824   3.579   9.478   1.542  0.6190 -0.1712  0.5676
  533MOL0     C71825   3.552   9.482   1.397 -0.1747 -0.1931 -0.4460
  533MOL0     C71826   3.661   9.483   1.305 -0.3753  1.2121 -0.0441
  533MOL0     C71827   3.793   9.498   1.352 -0.6132 -0.6877  0.8410
  533MOL0     O71828   3.899   9.516   1.261  0.1782 -0.0142 -0.3996
  533MOL0     C71829   3.882   9.629   1.175  0.2271  0.2765  0.4597
  533MOL0     C71830   4.029   9.650   1.121  0.0716  0.1797 -0.5124
  533MOL0     C71831   4.047   9.776   1.044  0.4013 -0.3300 -0.1074
  533MOL0     C71832   4.196   9.756   0.999 -0.0912 -0.4464 -0.0155
  533MOL0     C71833   4.229   9.867   0.886 -0.0290  0.7665 -0.3196
  533MOL0     C71834   4.365   9.852   0.821  0.0320 -0.3544  0.3291
  533MOL0     C71835   4.377   9.731   0.731  0.5727 -0.3762  0.3352
  533MOL0     C71836   4.497   9.742   0.630 -0.7869  0.3967 -0.8635
  533MOL0     N71837   4.628   9.762   0.692 -0.5066 -0.7934 -0.2786
  533MOL0     C71838   4.724   9.665   0.706  0.6915 -0.1104 -0.8422
  533MOL0     C71839   4.830   9.729   0.754 -0.7928  0.6147  0.3868
  533MOL0     C71840   4.965   9.666   0.785 -0.8481  0.4464  0.1866
  533MOL0     C71841   4.968   9.603   0.933  0.8665 -0.1855 -0.0499
  533MOL0     C71842   5.106   9.552   0.956 -0.1657 -0.0369 -0.0532
  533MOL0     C71843   5.134   9.537   1.110  0.7792 -0.4677  0.4034
  533MOL0     O71844   5.054   9.432   1.166 -0.5332  0.3623 -0.8774
  533MOL0     C71845   5.063   9.413   1.302  0.2355  0.7790 -0.0618
  533MOL0     C71846   4.982   9.319   1.345 -0.7191  0.2642 -0.6662
  533MOL0     C71847   4.964   9.286   1.486 -0.4425  0.1241  0.4266
  533MOL0     C71848   5.020   9.366   1.584 -0.7399 -0.1696 -0.0187
  533MOL0     C71849   4.991   9.348   1.728  0.1719 -0.4119 -0.6714
  533MOL0     O71850   4.922   9.233   1.772  0.3323 -0.1298 -0.1742
  533MOL0     C71851   4.908   9.224   1.910  0.7966 -0.7406  0.5313
  533MOL0     C71852   5.006   9.173   1.995 -0.5502 -0.1655  1.0574
  533MOL0     C71853   4.991   9.178   2.135 -0.3536  0.5038  0.1745
  533MOL0     C71854   4.872   9.223   2.193  0.1876 -0.1086 -0.3845
  533MOL0     O71855   4.852   9.199   2.330 -1.0664  0.7492  0.5206
  533MOL0     C71856   4.843   9.316   2.406  0.9534  0.4531  0.2183
  533MOL0     C71857   4.974   9.342   2.477 -0.0703  0.5042 -0.2873
  533MOL0     C71858   5.001   9.225   2.581 -0.8514 -0.8385  0.5979
  533MOL0     C71859   5.148   9.229   2.634 -0.3685  0.1285 -0.3588
  533MOL0     C71860   5.201   9.091   2.685  0.3229 -0.4376 -0.5923
  533MOL0     C71861   5.353   9.080   2.721  0.4238 -0.7722 -0.4569
  533MOL0     C71862   5.382   9.148   2.855  0.6043 -0.1809  0.9699
  533MOL0     C71863   5.533   9.155   2.880 -0.5062 -0.2621  0.2520
  533MOL0    Cl71864   5.602   9.309   2.797  0.0073 -0.1626  0.0654
  533MOL0     C71865   4.772   9.271   2.108  0.2495 -0.0657  0.5826
  533MOL0     C71866   4.790   9.276   1.967 -0.1858  0.2326 -0.6615
  533MOL0     O71867   5.036   9.439   1.807  0.6574 -0.0091 -0.1992
  533MOL0     C71868   5.111   9.473   1.540  0.1516  0.4690 -0.3307
  533MOL0     C71869   5.133   9.483   1.403  0.5638  0.1628 -0.1139
  533MOL0     N71870   4.807   9.861   0.748  0.3645  0.6478 -0.3874
  533MOL0     N71871   4.682   9.881   0.720  0.4001 -0.2544  0.4800
  533MOL0     C71872   3.814   9.517   1.488 -0.3311  0.9486  0.0648
  533MOL0     C71873   3.712   9.504   1.577 -1.0196 -0.6608 -1.1241
  533MOL0     C71874   3.348   9.291   1.740 -0.4556 -0.3588  0.0509
  533MOL0     C71875   3.355   9.378   1.848 -0.1193  0.4897  0.4879
  533MOL0     C71876   3.289   9.361   1.962 -0.0934 -0.3368 -0.6213
  533MOL0     C71877   3.224   9.243   1.992  0.5255  0.1673 -0.1923
  533MOL0     O71878   3.184   9.221   2.122 -0.7708  0.3905 -0.1336
  533MOL0     C71879   3.104   9.110   2.163  0.0229  0.5892  0.4877
  533MOL0     C71880   3.044   9.127   2.306  0.4910  0.0407  0.1736
  533MOL0     C71881   2.985   9.005   2.371 -0.3260  0.6535  0.7417
  533MOL0     C71882   2.901   8.921   2.276  1.0194  0.1230  0.7577
  533MOL0     C71883   2.785   8.988   2.213  0.5431  0.5865 -0.6961
  533MOL0     C71884   2.683   9.036   2.171  0.1679 -0.1166  0.0425
  533MOL0     C71885   3.203   9.158   1.876  0.0811 -0.0604 -1.0224
  533MOL0     C71886   3.270   9.175   1.761 -0.1172  0.5296  0.8817
  533MOL0     C71887   3.248   9.074   1.647 -0.5950  0.0560  0.2027
  533MOL0     H71888   3.449   9.469   1.367 -0.6376 -1.2181  1.4568
  533MOL0     H71889   3.652   9.464   1.198 -1.1385  1.1917  0.0182
  533MOL0     H71890   3.811   9.618   1.092 -0.7860 -0.4262  1.3957
  533MOL0     H71891   3.841   9.718   1.225 -0.0247  1.4641 -1.7143
  533MOL0     H71892   4.050   9.556   1.069  0.1888  0.0362 -0.2030
  533MOL0     H71893   4.097   9.651   1.206 -4.0240 -0.4953  3.1644
  533MOL0     H71894   4.016   9.862   1.103  2.3839 -1.5578  2.9631
  533MOL0     H71895   3.986   9.777   0.953 -2.1163 -1.2138  1.4622
  533MOL0     H71896   4.258   9.767   1.088 -0.6797 -1.8478  0.6009
  533MOL0     H71897   4.213   9.657   0.955 -1.5154 -0.3251 -0.9095
  533MOL0     H71898   4.156   9.858   0.805  0.1369  4.0781 -0.9927
  533MOL0     H71899   4.216   9.963   0.938 -4.8435  0.0442  0.2599
  533MOL0     H71900   4.388   9.944   0.766 -1.5259 -0.6678 -0.8915
  533MOL0     H71901   4.435   9.839   0.904 -1.4276  3.6874  2.4723
  533MOL0     H71902   4.279   9.717   0.686  0.5414 -2.0369  0.8530
  533MOL0     H71903   4.378   9.651   0.805 -0.0148 -0.5122  0.1990
  533MOL0     H71904   4.502   9.650   0.571  1.4998 -2.0328  2.7207
  533MOL0     H71905   4.479   9.837   0.579 -1.3866  1.9677  2.0526
  533MOL0     H71906   4.726   9.559   0.684  0.7744 -0.4965  0.8673
  533MOL0     H71907   4.994   9.590   0.712 -2.8203 -1.1287  0.9218
  533MOL0     H71908   5.040   9.744   0.801 -0.9187  0.6881 -0.6621
  533MOL0     H71909   4.932   9.667   1.014 -0.2778 -1.8593  0.8268
  533MOL0     H71910   4.898   9.519   0.933 -1.1107  1.3180  2.1546
  533MOL0     H71911   5.176   9.622   0.909  0.6461 -0.1065  1.0031
  533MOL0     H71912   5.111   9.454   0.907 -2.3505  0.3459 -1.1583
  533MOL0     H71913   5.116   9.636   1.152  3.0331  0.9727 -1.7256
  533MOL0     H71914   5.242   9.522   1.125  0.8184  0.0537  0.6575
  533MOL0     H71915   4.941   9.243   1.279  2.0500 -3.6346  1.7002
  533MOL0     H71916   4.896   9.209   1.521 -2.4644  1.9376  0.6435
  533MOL0     H71917   5.091   9.121   1.951 -1.2833  0.4333 -1.2216
  533MOL0     H71918   5.076   9.154   2.198 -1.0052 -2.0695  0.1794
  533MOL0     H71919   4.823   9.408   2.351 -1.1618  1.4982  2.5291
  533MOL0     H71920   4.759   9.296   2.474 -0.4293  1.1599 -1.2115
  533MOL0     H71921   5.051   9.339   2.399 -2.8840 -1.2648 -3.2580
  533MOL0     H71922   4.976   9.438   2.531  0.5516 -0.1429  0.8675
  533MOL0     H71923   4.925   9.217   2.659  1.9125  0.6078  3.6498
  533MOL0     H71924   4.995   9.130   2.528 -0.5433 -0.6492  0.2129
  533MOL0     H71925   5.157   9.306   2.711 -2.1490  1.7637 -1.6805
  533MOL0     H71926   5.206   9.265   2.549  0.0989  0.2869  0.0261
  533MOL0     H71927   5.171   9.024   2.604  0.9342  2.4253 -3.3748
  533MOL0     H71928   5.142   9.056   2.771 -0.8776  4.4951  0.8808
  533MOL0     H71929   5.387   8.977   2.705  0.1606 -1.0119  0.4413
  533MOL0     H71930   5.404   9.135   2.641 -0.2537 -1.1551 -1.1592
  533MOL0     H71931   5.344   9.087   2.937 -0.3403  0.8329  1.3027
  533MOL0     H71932   5.341   9.248   2.873 -1.2063 -0.1581 -2.3809
  533MOL0     H71933   5.548   9.174   2.987 -0.4024 -0.6446  0.3071
  533MOL0     H71934   5.589   9.071   2.837 -1.2027  0.6900 -2.7748
  533MOL0     H71935   4.678   9.304   2.152 -1.4076  0.7086 -3.1254
  533MOL0     H71936   4.712   9.319   1.906  0.9302  3.2989 -0.1219
  533MOL0     H71937   5.159   9.519   1.626 -1.7614 -0.3881  1.2745
  533MOL0     H71938   5.203   9.563   1.384  0.0053  1.6081  3.1715
  533MOL0     H71939   3.919   9.520   1.516 -0.1214 -0.1413 -0.5767
  533MOL0     H71940   3.724   9.517   1.684 -2.4349  0.2460 -1.0474
  533MOL0     H71941   3.415   9.468   1.844  0.8304 -0.1109  0.8305
  533MOL0     H71942   3.320   9.434   2.036 -0.9956  0.3830 -0.9395
  533MOL0     H71943   3.183   9.035   2.170  1.2061  1.5707 -1.4104
  533MOL0     H71944   3.030   9.086   2.086  1.6509  1.1487 -1.3221
  533MOL0     H71945   2.969   9.203   2.283  1.3237  1.7737  2.7976
  533MOL0     H71946   3.126   9.166   2.368  1.2132 -0.9851 -0.1034
  533MOL0     H71947   2.932   9.035   2.463 -0.3910  1.4667  0.4493
  533MOL0     H71948   3.069   8.943   2.403 -0.7396  0.7640  2.1433
  533MOL0     H71949   2.965   8.891   2.192 -1.4395  1.8047 -1.8812
  533MOL0     H71950   2.871   8.821   2.309 -3.5751 -1.0771 -5.2433
  533MOL0     H71951   2.590   9.087   2.154  0.6633  0.7563 -0.1331
  533MOL0     H71952   3.142   9.071   1.898 -1.1306  0.4563 -2.1798
  533MOL0     H71953   3.327   9.002   1.623 -0.7358 -0.6480  1.7107
  533MOL0     H71954   3.163   9.009   1.671 -1.3586 -0.8520 -4.0922
  533MOL0     H71955   3.209   9.130   1.562 -0.7882 -0.1203  0.1727
  534MOL0     O71956   1.448   8.455   1.518 -0.0139  0.0991  0.2586
  534MOL0     C71957   1.418   8.520   1.418 -0.1066  0.7043  0.1055
  534MOL0     O71958   1.289   8.567   1.388 -0.4709  0.2670 -0.1030
  534MOL0     C71959   1.186   8.561   1.477  1.2617  1.3269 -0.1743
  534MOL0     C71960   1.194   8.549   1.623  0.2125 -1.2657 -0.4576
  534MOL0     C71961   1.067   8.524   1.689 -0.4949  0.6337  0.3282
  534MOL0     C71962   0.943   8.509   1.631 -0.9324 -1.0166  1.0409
  534MOL0     O71963   0.832   8.456   1.681  0.6790  0.5237  0.3553
  534MOL0     C71964   0.818   8.457   1.823  1.1397  0.4261 -0.5045
  534MOL0     C71965   0.867   8.324   1.883  0.3663  0.7115 -1.1186
  534MOL0     C71966   0.780   8.199   1.853  0.3247 -1.1425 -0.3211
  534MOL0     C71967   0.854   8.074   1.875 -0.2278 -0.1906 -0.5335
  534MOL0     C71968   0.788   7.949   1.826 -0.0103  0.0623 -0.0198
  534MOL0     C71969   0.862   7.829   1.889 -0.4698 -0.3496 -0.1964
  534MOL0     C71970   0.843   7.705   1.806 -0.3991  0.2984  0.8329
  534MOL0     C71971   0.945   7.589   1.836 -0.2185 -0.2605 -0.1397
  534MOL0     N71972   1.043   7.577   1.727  0.6107  0.4048  0.6464
  534MOL0     C71973   1.173   7.574   1.745 -0.5048  0.3464 -0.1270
  534MOL0     C71974   1.225   7.572   1.620 -0.1614 -0.3820 -0.3573
  534MOL0     C71975   1.376   7.576   1.588 -0.5246 -0.3212  0.5858
  534MOL0     C71976   1.405   7.545   1.440 -0.6480 -0.1696  1.0250
  534MOL0     C71977   1.541   7.494   1.409 -1.2030 -0.1928 -0.9427
  534MOL0     C71978   1.547   7.458   1.258 -0.2965 -0.8037 -0.7897
  534MOL0     O71979   1.679   7.415   1.246  0.2433  0.2450  0.3034
  534MOL0     C71980   1.702   7.282   1.272  0.2054  0.6987 -0.0271
  534MOL0     C71981   1.787   7.248   1.372 -0.3342 -0.2063  0.2097
  534MOL0     C71982   1.829   7.118   1.379 -0.2950 -0.3480  0.3295
  534MOL0     C71983   1.786   7.016   1.296 -0.4896 -0.8015  0.3701
  534MOL0     C71984   1.853   6.891   1.300  0.1687  0.3537 -0.1973
  534MOL0     O71985   1.859   6.833   1.182 -0.0329 -0.2594  0.3594
  534MOL0     C71986   1.894   6.698   1.174  0.0585 -0.3731 -1.3959
  534MOL0     C71987   1.793   6.604   1.171 -0.2449 -0.4023  0.1903
  534MOL0     C71988   1.825   6.477   1.129 -0.3374 -0.2622  0.0013
  534MOL0     C71989   1.954   6.432   1.105 -0.7331 -0.3163  0.2368
  534MOL0     O71990   1.967   6.302   1.058  0.2988 -0.0707 -0.7661
  534MOL0     C71991   2.102   6.245   1.048 -0.4911  0.1773 -0.1027
  534MOL0     C71992   2.085   6.100   1.047 -0.5788  0.7448 -0.0982
  534MOL0     C71993   2.220   6.035   1.033 -0.0121  0.5708  0.3243
  534MOL0     C71994   2.204   5.885   1.046  0.5216  0.6834 -0.1712
  534MOL0     C71995   2.332   5.808   1.064 -0.7208 -0.6868  0.7352
  534MOL0     C71996   2.293   5.659   1.059  0.2285  0.4930  0.7615
  534MOL0     C71997   2.393   5.553   1.118  0.7347 -1.1021 -0.0014
  534MOL0     C71998   2.535   5.537   1.064  0.0260 -0.0585  0.7793
  534MOL0    Cl71999   2.648   5.451   1.181  0.1413  0.3520  0.1171
  534MOL0     C72000   2.057   6.526   1.105 -0.1116  0.4139 -0.0200
  534MOL0     C72001   2.030   6.662   1.138 -0.0821  0.9711 -0.5165
  534MOL0     O72002   1.898   6.837   1.404 -0.4035 -0.1590  0.4742
  534MOL0     C72003   1.701   7.057   1.188  0.6746  0.5456 -0.4537
  534MOL0     C72004   1.658   7.188   1.182  0.5792 -0.8497  0.3482
  534MOL0     N72005   1.124   7.569   1.524 -0.5843 -0.1382 -0.0051
  534MOL0     N72006   1.017   7.569   1.594 -0.7174  0.5355  0.1030
  534MOL0     C72007   0.935   8.520   1.494 -1.1839 -0.6410  0.2770
  534MOL0     C72008   1.056   8.547   1.425 -0.7443  1.1561  0.7945
  534MOL0     C72009   1.521   8.545   1.310  0.4053  0.2416  0.2180
  534MOL0     C72010   1.479   8.557   1.176 -0.8323  0.8050 -0.8825
  534MOL0     C72011   1.570   8.569   1.065  0.1879 -1.0268 -0.9354
  534MOL0     C72012   1.701   8.580   1.098 -0.3970  0.2473 -0.2366
  534MOL0     O72013   1.797   8.600   0.998  0.5903 -0.4717  0.0320
  534MOL0     C72014   1.938   8.591   1.039  1.6248 -0.6287  0.0436
  534MOL0     C72015   2.014   8.592   0.903 -0.9011  0.6851 -0.3339
  534MOL0     C72016   2.169   8.588   0.927 -0.4878 -0.1614  0.4195
  534MOL0     C72017   2.242   8.666   0.820  0.0092 -0.4997 -0.1621
  534MOL0     C72018   2.378   8.657   0.852 -0.2115 -0.4050 -0.2892
  534MOL0     C72019   2.493   8.673   0.880  0.2711  0.2436 -1.1693
  534MOL0     C72020   1.751   8.559   1.237  0.4646  0.4986  1.4387
  534MOL0     C72021   1.657   8.545   1.336 -1.0607 -0.0764 -0.4164
  534MOL0     C72022   1.710   8.540   1.477 -0.6048 -0.3803  0.4034
  534MOL0     H72023   1.293   8.558   1.665 -0.7518  2.6389  1.3777
  534MOL0     H72024   1.084   8.506   1.795 -0.0487  3.1119  0.7354
  534MOL0     H72025   0.882   8.534   1.867 -1.9892  2.4852  0.8424
  534MOL0     H72026   0.714   8.474   1.852  1.6071  2.5730  0.1035
  534MOL0     H72027   0.871   8.349   1.990 -0.7540  0.7858 -1.0762
  534MOL0     H72028   0.971   8.312   1.853  1.5086  4.5607  0.6808
  534MOL0     H72029   0.741   8.194   1.751 -3.8149 -3.2924  1.1049
  534MOL0     H72030   0.686   8.202   1.910  0.0499  1.9013 -0.7967
  534MOL0     H72031   0.956   8.071   1.836 -0.4466  0.2685 -1.1612
  534MOL0     H72032   0.874   8.072   1.982 -1.9492  2.2567 -0.0903
  534MOL0     H72033   0.686   7.935   1.860  0.1719  0.7740  0.8493
  534MOL0     H72034   0.794   7.952   1.716 -1.2742  4.9043 -0.2099
  534MOL0     H72035   0.968   7.851   1.903 -0.2508 -1.2951 -0.3174
  534MOL0     H72036   0.829   7.807   1.991  0.2090  0.7002  0.2632
  534MOL0     H72037   0.847   7.721   1.698 -1.2919 -1.0980  0.5796
  534MOL0     H72038   0.741   7.669   1.822  0.2302 -2.2253 -0.4640
  534MOL0     H72039   1.011   7.619   1.919  2.2514 -1.3311 -1.6091
  534MOL0     H72040   0.895   7.492   1.832  0.9445 -0.8914  0.2320
  534MOL0     H72041   1.233   7.565   1.835 -2.5981 -3.8881  1.1012
  534MOL0     H72042   1.423   7.672   1.614 -1.1627  0.0914  0.2296
  534MOL0     H72043   1.424   7.501   1.652  1.1018 -1.3261 -1.6957
  534MOL0     H72044   1.342   7.468   1.395  1.3414 -2.1825  1.5079
  534MOL0     H72045   1.393   7.644   1.395 -0.3473 -0.7998 -0.5200
  534MOL0     H72046   1.571   7.403   1.463  0.0517 -0.2801 -1.7529
  534MOL0     H72047   1.619   7.570   1.414 -1.4921  0.0915 -0.6932
  534MOL0     H72048   1.535   7.557   1.212  1.7781  0.1344  0.5386
  534MOL0     H72049   1.471   7.391   1.217 -2.4135 -0.8289  2.7452
  534MOL0     H72050   1.835   7.331   1.423  0.1266  0.8318 -1.8176
  534MOL0     H72051   1.899   7.100   1.461  1.0462  4.8922  0.6964
  534MOL0     H72052   1.688   6.634   1.168 -0.5648 -1.5195 -1.3687
  534MOL0     H72053   1.741   6.411   1.107 -1.0340  0.2806  0.9673
  534MOL0     H72054   2.142   6.281   0.953  0.9405 -2.4246 -0.5712
  534MOL0     H72055   2.170   6.287   1.122  0.2529 -1.8059  0.4079
  534MOL0     H72056   2.047   6.060   1.142  0.1942 -0.2354 -0.1781
  534MOL0     H72057   2.012   6.059   0.977 -2.3203  1.2930  1.3054
  534MOL0     H72058   2.282   6.065   0.949  2.8399 -1.1404  1.6571
  534MOL0     H72059   2.274   6.066   1.123 -2.2842  2.1869  1.2081
  534MOL0     H72060   2.166   5.853   0.948 -2.9873 -2.8327  2.0376
  534MOL0     H72061   2.129   5.853   1.119 -0.9081 -0.5716 -2.0709
  534MOL0     H72062   2.386   5.831   1.157  0.4678 -2.4666  0.5245
  534MOL0     H72063   2.409   5.832   0.990 -1.7798  4.2707  0.8775
  534MOL0     H72064   2.194   5.637   1.099  0.4370 -1.1888  0.4113
  534MOL0     H72065   2.279   5.633   0.954  2.6942  2.2054 -0.0846
  534MOL0     H72066   2.345   5.454   1.122 -4.3526  1.1246  3.2523
  534MOL0     H72067   2.404   5.581   1.223  0.2206  2.1236 -0.7293
  534MOL0     H72068   2.550   5.493   0.965  1.1829  1.0129  0.4433
  534MOL0     H72069   2.562   5.642   1.047 -1.2290  0.2299  0.4515
  534MOL0     H72070   2.154   6.495   1.070 -0.4365 -1.4588  0.6355
  534MOL0     H72071   2.113   6.732   1.134 -0.2274  1.3006  1.3242
  534MOL0     H72072   1.681   6.981   1.113  1.8095 -1.4047  1.1279
  534MOL0     H72073   1.605   7.226   1.095  3.1785  0.5098 -0.7554
  534MOL0     H72074   0.841   8.495   1.446  0.7744  0.9486 -5.1305
  534MOL0     H72075   1.048   8.541   1.317 -0.6581  0.9338  0.7993
  534MOL0     H72076   1.372   8.555   1.159 -1.2870 -0.7786  1.6372
  534MOL0     H72077   1.522   8.578   0.968  0.0575 -2.1648 -0.9839
  534MOL0     H72078   1.945   8.497   1.095  0.1078 -0.4484  0.5805
  534MOL0     H72079   1.959   8.684   1.092  0.3992 -0.9943  1.2239
  534MOL0     H72080   1.990   8.679   0.841 -3.0256  0.2960 -0.1381
  534MOL0     H72081   1.980   8.501   0.853 -1.3560  1.0107 -0.6284
  534MOL0     H72082   2.204   8.485   0.915  0.6730  0.0941  1.4367
  534MOL0     H72083   2.197   8.641   1.018  1.6729  1.3534 -1.0316
  534MOL0     H72084   2.220   8.640   0.717 -2.0076  2.8752 -0.7502
  534MOL0     H72085   2.206   8.770   0.823  2.7870  0.5427 -0.2071
  534MOL0     H72086   2.596   8.689   0.906  0.5660  0.6986 -2.5191
  534MOL0     H72087   1.854   8.560   1.271  1.3784  1.4050 -1.1112
  534MOL0     H72088   1.665   8.623   1.532  1.8871  0.9768  0.5475
  534MOL0     H72089   1.691   8.445   1.530 -2.3095 -0.3034 -0.0161
  534MOL0     H72090   1.818   8.558   1.479 -0.0294 -3.0718  4.0523
  535MOL0     O72091   5.034   7.180   1.218 -0.1428 -0.2395  0.2473
  535MOL0     C72092   5.058   7.200   1.340 -0.2337 -0.5197  0.2158
  535MOL0     O72093   5.134   7.117   1.422 -0.0467 -0.2632  0.1077
  535MOL0     C72094   5.156   6.984   1.388  0.0957 -0.0369 -0.2809
  535MOL0     C72095   5.267   6.939   1.464 -0.3779  0.9867 -0.5499
  535MOL0     C72096   5.294   6.800   1.465 -0.4950  0.2995  0.1234
  535MOL0     C72097   5.235   6.713   1.381  0.5213 -0.1019  0.1065
  535MOL0     O72098   5.277   6.585   1.365  0.5082  0.2339  0.2091
  535MOL0     C72099   5.372   6.574   1.263  0.1518  0.1897 -0.2096
  535MOL0     C72100   5.486   6.485   1.312 -0.6851  0.5030 -0.4502
  535MOL0     C72101   5.576   6.466   1.197 -0.0078 -0.3838  0.0883
  535MOL0     C72102   5.539   6.354   1.086 -0.8127 -0.3888 -0.5428
  535MOL0     C72103   5.629   6.377   0.958 -0.2492  0.4594 -0.6581
  535MOL0     C72104   5.785   6.350   0.984  0.0225 -0.5881  0.0741
  535MOL0     C72105   5.854   6.355   0.846  0.3545 -0.7606 -0.3856
  535MOL0     C72106   5.976   6.269   0.835  0.5719  0.5738  0.8029
  535MOL0     N72107   6.087   6.318   0.909  1.4731 -0.4938 -0.5227
  535MOL0     C72108   6.193   6.254   0.975  0.0738 -0.1719 -0.6534
  535MOL0     C72109   6.264   6.352   1.028  0.2443  0.1005 -0.4043
  535MOL0     C72110   6.388   6.323   1.102  0.0005 -0.3299  0.0932
  535MOL0     C72111   6.520   6.306   1.019 -0.2328  0.5366 -0.5189
  535MOL0     C72112   6.547   6.433   0.940  1.0238 -0.1589  0.4277
  535MOL0     C72113   6.692   6.425   0.880 -0.0791 -0.7766 -0.0422
  535MOL0     O72114   6.780   6.481   0.980  0.0512 -0.1612 -0.1272
  535MOL0     C72115   6.908   6.439   0.980  0.3911  0.2467 -0.1520
  535MOL0     C72116   6.963   6.358   0.874 -0.2055 -0.5863 -0.2214
  535MOL0     C72117   7.096   6.325   0.877  0.1188  0.8308 -0.5899
  535MOL0     C72118   7.178   6.367   0.974 -0.3358  0.6272 -0.3006
  535MOL0     C72119   7.329   6.336   0.979 -1.2909 -0.3712 -0.1518
  535MOL0     O72120   7.407   6.363   1.091  0.0315 -0.7968  0.1945
  535MOL0     C72121   7.531   6.296   1.109 -0.2009 -0.6306  0.1817
  535MOL0     C72122   7.657   6.357   1.099  0.1372  0.3301  0.0954
  535MOL0     C72123   7.773   6.293   1.138 -0.0277 -1.0929 -0.5046
  535MOL0     C72124   7.784   6.155   1.174  0.6365  0.1763  0.0573
  535MOL0     O72125   7.902   6.087   1.201 -0.4278 -0.6750 -1.1396
  535MOL0     C72126   8.019   6.162   1.224  0.0276 -0.2150 -0.4507
  535MOL0     C72127   8.019   6.242   1.356  0.9929  0.4570  0.1190
  535MOL0     C72128   8.163   6.291   1.397  0.6952  0.1747 -0.2074
  535MOL0     C72129   8.241   6.181   1.487  1.5771  0.0262 -0.4859
  535MOL0     C72130   8.372   6.237   1.547 -0.8435  1.3868  0.1531
  535MOL0     C72131   8.456   6.123   1.616  0.8454 -0.7791 -0.4364
  535MOL0     C72132   8.551   6.175   1.727 -0.7123 -0.2052 -0.2420
  535MOL0     C72133   8.647   6.288   1.679  0.5513  0.1804 -0.3431
  535MOL0    Cl72134   8.745   6.248   1.533 -0.0911 -0.1754 -0.4035
  535MOL0     C72135   7.656   6.091   1.175  0.3469  0.5347 -0.0973
  535MOL0     C72136   7.537   6.154   1.140  0.3172  0.0078 -0.8169
  535MOL0     O72137   7.368   6.279   0.880  0.7003  0.1646 -0.1147
  535MOL0     C72138   7.125   6.452   1.081  0.1642  0.0279  0.6103
  535MOL0     C72139   6.987   6.479   1.082  0.6819 -1.3539 -0.2962
  535MOL0     N72140   6.198   6.470   1.014  0.4579  0.1721 -0.0562
  535MOL0     N72141   6.095   6.458   0.934 -0.0004 -0.1732 -0.1324
  535MOL0     C72142   5.123   6.751   1.299  0.7614  0.7977 -0.4383
  535MOL0     C72143   5.082   6.890   1.306 -0.1293  0.0495  0.2056
  535MOL0     C72144   5.005   7.323   1.408 -0.9741  0.7610  0.5073
  535MOL0     C72145   5.017   7.325   1.550  0.4776 -0.5553 -0.3565
  535MOL0     C72146   4.951   7.412   1.631 -0.3035 -0.3183 -0.0751
  535MOL0     C72147   4.864   7.515   1.579 -0.5010  1.0907  0.3761
  535MOL0     O72148   4.767   7.585   1.648  0.2247 -0.5165  0.0900
  535MOL0     C72149   4.767   7.568   1.788  0.5677  0.7657  0.4610
  535MOL0     C72150   4.650   7.644   1.853 -0.0611  0.0789  0.4135
  535MOL0     C72151   4.595   7.770   1.779 -0.0559  0.2975  0.5506
  535MOL0     C72152   4.505   7.850   1.874  1.2828 -0.7751  0.1027
  535MOL0     C72153   4.450   7.966   1.807  0.9424  0.7414  0.1369
  535MOL0     C72154   4.396   8.057   1.747 -0.1576  0.3081 -0.3676
  535MOL0     C72155   4.867   7.520   1.437  0.2507  0.0813 -0.5766
  535MOL0     C72156   4.937   7.427   1.357  0.0064 -1.7031  0.3640
  535MOL0     C72157   4.911   7.442   1.210  0.0810  0.9943 -0.0374
  535MOL0     H72158   5.337   7.000   1.519 -2.3311  0.6548  2.5383
  535MOL0     H72159   5.373   6.749   1.520 -2.0366 -1.9188  0.4215
  535MOL0     H72160   5.324   6.550   1.167 -2.1416 -1.3297  1.2254
  535MOL0     H72161   5.414   6.674   1.256 -0.2709  0.3219 -1.0137
  535MOL0     H72162   5.444   6.392   1.352 -1.2408  1.2643  0.7965
  535MOL0     H72163   5.541   6.533   1.394 -1.5797  0.7962 -0.0016
  535MOL0     H72164   5.667   6.445   1.255 -2.0504 -0.2558  3.6129
  535MOL0     H72165   5.600   6.562   1.150  2.5335 -0.7429  0.5200
  535MOL0     H72166   5.548   6.251   1.121 -2.2409 -0.4431 -0.2746
  535MOL0     H72167   5.439   6.361   1.042 -0.1895  1.1237 -1.8471
  535MOL0     H72168   5.590   6.317   0.875  0.4442 -1.0206  0.0632
  535MOL0     H72169   5.625   6.484   0.934 -1.0166  0.5489 -0.1598
  535MOL0     H72170   5.822   6.420   1.060 -1.7558 -0.4083  0.8205
  535MOL0     H72171   5.790   6.247   1.020  0.1297 -1.6174 -2.6731
  535MOL0     H72172   5.862   6.458   0.809 -1.2893 -0.6213 -0.4531
  535MOL0     H72173   5.784   6.318   0.770  0.4477 -0.0616 -0.8228
  535MOL0     H72174   5.956   6.165   0.861 -1.3626  0.3658 -1.2492
  535MOL0     H72175   6.015   6.266   0.733 -1.2466  0.0464  0.0853
  535MOL0     H72176   6.208   6.147   0.979 -2.9611 -0.6639  0.8730
  535MOL0     H72177   6.398   6.408   1.171 -1.6153  0.0225 -0.0737
  535MOL0     H72178   6.384   6.239   1.172  1.0726  1.9707  3.1481
  535MOL0     H72179   6.604   6.267   1.076 -1.7188 -1.7965  0.2462
  535MOL0     H72180   6.500   6.226   0.947  3.1959 -0.9262 -0.0264
  535MOL0     H72181   6.524   6.518   1.005 -2.6457 -0.4355 -0.2998
  535MOL0     H72182   6.481   6.439   0.854  1.6464 -1.3550 -0.1541
  535MOL0     H72183   6.700   6.490   0.792  3.7406 -0.7505  0.1511
  535MOL0     H72184   6.719   6.323   0.852  2.8468 -0.5039  1.3890
  535MOL0     H72185   6.911   6.329   0.783 -0.2837  0.1645 -0.4197
  535MOL0     H72186   7.132   6.251   0.806  1.6061  0.6507  0.2968
  535MOL0     H72187   7.668   6.460   1.067  1.0695 -0.4150 -2.1557
  535MOL0     H72188   7.859   6.359   1.132 -0.1454 -0.8019  0.6715
  535MOL0     H72189   8.095   6.084   1.231  1.8150  1.3923 -0.8575
  535MOL0     H72190   8.029   6.223   1.133  0.1946  1.1295  0.4471
  535MOL0     H72191   7.957   6.331   1.344 -0.8879 -1.0586 -2.1265
  535MOL0     H72192   7.969   6.185   1.434 -0.8708 -1.4409 -2.3171
  535MOL0     H72193   8.227   6.326   1.316  0.8371  2.6692  0.9005
  535MOL0     H72194   8.138   6.382   1.453 -0.3385  0.7380 -1.5127
  535MOL0     H72195   8.253   6.086   1.434 -2.6873 -1.2948  0.4751
  535MOL0     H72196   8.174   6.135   1.560  2.3897  0.9078  0.8648
  535MOL0     H72197   8.340   6.316   1.616 -0.4824  1.4879  0.2089
  535MOL0     H72198   8.423   6.285   1.463 -0.3782  3.5516  1.5811
  535MOL0     H72199   8.396   6.045   1.665  0.6050 -0.6801 -0.5694
  535MOL0     H72200   8.520   6.079   1.539 -0.9197 -0.8858 -1.9315
  535MOL0     H72201   8.609   6.089   1.761 -1.0054  0.4553  2.1643
  535MOL0     H72202   8.505   6.219   1.817  1.6158  5.4362 -1.3446
  535MOL0     H72203   8.588   6.374   1.648 -2.7297 -1.0815  1.8082
  535MOL0     H72204   8.712   6.312   1.764  5.4719 -2.0317 -3.0919
  535MOL0     H72205   7.643   5.984   1.190 -1.1866  0.6189 -0.5642
  535MOL0     H72206   7.445   6.097   1.147  2.4564 -3.7884 -0.6781
  535MOL0     H72207   7.179   6.488   1.168 -2.8802 -0.6935  2.9947
  535MOL0     H72208   6.929   6.527   1.161  0.3412  1.2667 -2.0355
  535MOL0     H72209   5.071   6.691   1.224  0.0349 -3.0983  2.8346
  535MOL0     H72210   5.002   6.929   1.244 -0.1995 -0.7907 -0.2324
  535MOL0     H72211   5.061   7.243   1.606 -1.9677 -2.4340 -0.9999
  535MOL0     H72212   4.979   7.396   1.735  1.2786  1.3454 -0.1859
  535MOL0     H72213   4.860   7.616   1.820  0.7672  0.6269  0.0873
  535MOL0     H72214   4.767   7.461   1.807 -1.6838  0.0382 -2.8004
  535MOL0     H72215   4.686   7.674   1.952 -2.1660  3.5209  0.2926
  535MOL0     H72216   4.566   7.576   1.871 -1.3567  2.0928  2.5803
  535MOL0     H72217   4.549   7.734   1.687  0.1392  0.5763  0.3442
  535MOL0     H72218   4.675   7.837   1.747 -0.3023  0.3637  0.0781
  535MOL0     H72219   4.423   7.788   1.912  0.2407  0.7426  0.4287
  535MOL0     H72220   4.571   7.874   1.958  0.0363 -1.5292  1.3406
  535MOL0     H72221   4.353   8.139   1.692  1.1132  1.5520  0.4314
  535MOL0     H72222   4.819   7.598   1.379  3.2890  1.2953 -1.6687
  535MOL0     H72223   4.876   7.346   1.172 -1.7828  1.4610  0.3861
  535MOL0     H72224   4.834   7.518   1.194 -2.1589 -1.2705 -0.7055
  535MOL0     H72225   5.007   7.461   1.161  1.8248 -1.8754  2.0149
  536MOL0     O72226   6.775   6.545   5.572  0.5205 -0.8382  0.4931
  536MOL0     C72227   6.775   6.625   5.479 -1.1091  1.1964  0.8091
  536MOL0     O72228   6.881   6.708   5.438  0.1937 -0.4176 -0.0574
  536MOL0     C72229   7.013   6.703   5.475  0.2378  0.8607 -0.4757
  536MOL0     C72230   7.069   6.596   5.546 -1.2416 -0.6477 -0.2991
  536MOL0     C72231   7.204   6.596   5.583  0.3291 -0.8105  0.4034
  536MOL0     C72232   7.289   6.693   5.542  0.4904  0.1225  0.6274
  536MOL0     O72233   7.421   6.686   5.583 -0.0191  0.3298 -0.2274
  536MOL0     C72234   7.519   6.750   5.494  0.9466  0.6163  0.1187
  536MOL0     C72235   7.656   6.701   5.516  0.4699 -0.6065  0.0255
  536MOL0     C72236   7.668   6.547   5.494  0.3295 -0.6646  0.0183
  536MOL0     C72237   7.799   6.494   5.427 -0.0415  0.5808  0.7094
  536MOL0     C72238   7.921   6.573   5.463  0.5456  0.0164 -0.0496
  536MOL0     C72239   7.934   6.581   5.619 -0.7085 -0.9004 -0.7556
  536MOL0     C72240   8.086   6.574   5.678  1.2264 -0.4676 -0.7256
  536MOL0     C72241   8.127   6.424   5.675  0.1230  0.4018 -0.0259
  536MOL0     N72242   8.258   6.403   5.758 -0.2459  0.2974  0.2564
  536MOL0     C72243   8.383   6.419   5.697 -0.8673  0.3768 -0.4448
  536MOL0     C72244   8.467   6.435   5.804  0.5920 -0.0564  0.1519
  536MOL0     C72245   8.616   6.472   5.802  0.0438  0.6629  0.5006
  536MOL0     C72246   8.641   6.616   5.766 -0.4196  0.0313  0.4056
  536MOL0     C72247   8.587   6.668   5.625 -0.8807 -0.6889 -0.7751
  536MOL0     C72248   8.648   6.809   5.613  1.1107  0.4438 -0.4388
  536MOL0     O72249   8.604   6.905   5.715  0.4584 -0.3090  0.8687
  536MOL0     C72250   8.599   7.045   5.691 -0.2497  0.4737 -1.0528
  536MOL0     C72251   8.549   7.133   5.800 -0.6979  0.2402 -0.1686
  536MOL0     C72252   8.557   7.271   5.789  0.4058 -0.2770 -0.2330
  536MOL0     C72253   8.611   7.328   5.672  0.0140 -1.0718 -0.4095
  536MOL0     C72254   8.601   7.472   5.645  1.4785 -0.3924  0.8901
  536MOL0     O72255   8.680   7.527   5.543 -0.2717  0.0975 -0.8465
  536MOL0     C72256   8.665   7.662   5.530 -0.2568 -0.4809 -0.1384
  536MOL0     C72257   8.776   7.736   5.567 -0.1520 -0.0792 -0.6401
  536MOL0     C72258   8.777   7.873   5.554 -0.0048 -0.1051  0.4833
  536MOL0     C72259   8.659   7.946   5.518 -0.3592 -0.3107 -0.7202
  536MOL0     O72260   8.648   8.086   5.529  0.3454  0.6208  0.0244
  536MOL0     C72261   8.705   8.133   5.407 -0.6862  0.2115  0.7931
  536MOL0     C72262   8.685   8.278   5.369  0.5681 -0.3135  0.2708
  536MOL0     C72263   8.543   8.332   5.389  0.7600 -1.3193 -0.2822
  536MOL0     C72264   8.520   8.472   5.334 -0.2677 -0.4249 -0.7433
  536MOL0     C72265   8.396   8.552   5.388 -0.2684 -0.3525 -0.0739
  536MOL0     C72266   8.417   8.699   5.349 -0.3585 -0.5018 -0.7120
  536MOL0     C72267   8.284   8.770   5.350 -0.1760  0.0371 -0.0788
  536MOL0     C72268   8.301   8.922   5.372 -0.2058  0.3421  0.6141
  536MOL0    Cl72269   8.334   9.015   5.221 -0.0688 -0.3524  0.0374
  536MOL0     C72270   8.544   7.870   5.476 -0.1710  0.4334  0.3745
  536MOL0     C72271   8.553   7.728   5.485  0.0207 -0.5777 -0.4019
  536MOL0     O72272   8.511   7.537   5.703  0.1244  0.0271 -0.3423
  536MOL0     C72273   8.669   7.248   5.578  0.8967  0.1161  0.1838
  536MOL0     C72274   8.664   7.110   5.588 -0.0519 -0.2952  0.0036
  536MOL0     N72275   8.394   6.413   5.924  0.4485 -0.0970 -0.3189
  536MOL0     N72276   8.276   6.407   5.898  0.2266 -0.3782  0.9508
  536MOL0     C72277   7.234   6.802   5.462 -0.4170  0.2407 -0.6972
  536MOL0     C72278   7.098   6.808   5.437  0.5144  0.3098  0.3050
  536MOL0     C72279   6.642   6.676   5.418  0.1805  0.0815 -1.5253
  536MOL0     C72280   6.639   6.800   5.343  0.3154 -0.1604 -1.2082
  536MOL0     C72281   6.521   6.840   5.286  0.8753  0.7888 -0.5392
  536MOL0     C72282   6.404   6.767   5.287 -0.1741 -0.0331  0.6100
  536MOL0     O72283   6.291   6.823   5.238  0.4456 -0.5198 -0.5101
  536MOL0     C72284   6.184   6.736   5.189 -0.0426  0.0087 -0.3778
  536MOL0     C72285   6.220   6.643   5.070  0.4312 -0.2326 -0.5025
  536MOL0     C72286   6.253   6.731   4.947 -0.9974 -0.2631  0.6835
  536MOL0     C72287   6.369   6.668   4.867 -0.7186 -1.1385 -0.4596
  536MOL0     C72288   6.400   6.751   4.751  0.4207 -0.5551  0.2046
  536MOL0     C72289   6.415   6.816   4.656  0.2693 -0.5353 -0.4324
  536MOL0     C72290   6.415   6.641   5.363  0.2054 -0.6334  0.0512
  536MOL0     C72291   6.527   6.592   5.422  0.4448 -0.3740  0.6635
  536MOL0     C72292   6.505   6.460   5.490  0.1138  0.6726 -0.3029
  536MOL0     H72293   7.015   6.508   5.579 -2.6775  0.1757 -0.3593
  536MOL0     H72294   7.237   6.505   5.632 -0.6695 -0.6981  1.3053
  536MOL0     H72295   7.485   6.733   5.391  2.0627  1.9351 -0.5017
  536MOL0     H72296   7.519   6.857   5.514 -1.4952  0.9210 -1.0997
  536MOL0     H72297   7.694   6.730   5.615  2.3181  2.7862 -1.4717
  536MOL0     H72298   7.718   6.759   5.447 -1.4662  0.9859 -0.4820
  536MOL0     H72299   7.572   6.522   5.447 -0.7072  1.9250  0.5993
  536MOL0     H72300   7.666   6.494   5.590  2.0682 -0.8968 -0.0489
  536MOL0     H72301   7.807   6.387   5.447 -4.2159  0.2639  1.6125
  536MOL0     H72302   7.784   6.489   5.318  1.1725 -0.6267  0.5693
  536MOL0     H72303   8.014   6.527   5.428  1.9554  1.6503  1.3097
  536MOL0     H72304   7.912   6.680   5.440  0.5216  1.1287  4.2826
  536MOL0     H72305   7.900   6.677   5.658 -1.5732 -1.2356 -0.6804
  536MOL0     H72306   7.891   6.504   5.683  0.3336 -2.0702 -1.4235
  536MOL0     H72307   8.067   6.606   5.781 -3.0757  2.2925 -2.0968
  536MOL0     H72308   8.146   6.647   5.623 -0.8366  2.4434  0.5712
  536MOL0     H72309   8.043   6.361   5.703  0.5222  0.5254  1.5282
  536MOL0     H72310   8.151   6.393   5.573 -1.8139  2.3767 -1.1742
  536MOL0     H72311   8.415   6.419   5.594  0.8328  1.6403  0.0357
  536MOL0     H72312   8.670   6.435   5.890  0.7603  4.0686  1.6352
  536MOL0     H72313   8.648   6.406   5.721  0.5305  3.0548 -1.3638
  536MOL0     H72314   8.609   6.673   5.854 -2.0089  2.5158 -1.6487
  536MOL0     H72315   8.749   6.631   5.762 -0.1053 -1.6259  1.6532
  536MOL0     H72316   8.478   6.667   5.612 -1.1190  2.2752  0.0889
  536MOL0     H72317   8.635   6.609   5.547  1.2239  0.6895 -0.5913
  536MOL0     H72318   8.628   6.839   5.510  0.5650  1.8175  0.0488
  536MOL0     H72319   8.754   6.787   5.630  0.6579 -1.1753  0.5116
  536MOL0     H72320   8.514   7.088   5.892  1.5470 -1.1736  0.0684
  536MOL0     H72321   8.512   7.331   5.867 -0.1725 -2.0242  0.8361
  536MOL0     H72322   8.855   7.674   5.607 -2.0064 -0.3194  3.0253
  536MOL0     H72323   8.857   7.933   5.596 -0.5659  1.5809 -0.7782
  536MOL0     H72324   8.814   8.125   5.402 -0.7145  0.2758  0.0361
  536MOL0     H72325   8.670   8.067   5.327 -0.6325  0.5560  0.4838
  536MOL0     H72326   8.744   8.350   5.426 -1.3219  3.2345 -1.8907
  536MOL0     H72327   8.720   8.290   5.266  0.1909  1.1055  0.2968
  536MOL0     H72328   8.468   8.265   5.347 -0.4494  0.3521 -0.9075
  536MOL0     H72329   8.517   8.340   5.495  0.1834 -0.2168 -0.4887
  536MOL0     H72330   8.514   8.473   5.225 -0.2213  2.2139 -0.7832
  536MOL0     H72331   8.606   8.536   5.357 -1.9376  1.7694 -0.2364
  536MOL0     H72332   8.369   8.543   5.493 -2.9858  2.3391 -0.4059
  536MOL0     H72333   8.312   8.508   5.334 -0.1554 -1.7844  0.8678
  536MOL0     H72334   8.485   8.742   5.424  2.1324 -1.0590 -2.5131
  536MOL0     H72335   8.467   8.720   5.254  0.8692  1.2290  0.2725
  536MOL0     H72336   8.216   8.733   5.428 -0.6476  3.0453  1.0404
  536MOL0     H72337   8.235   8.758   5.253  1.1417  0.6538 -0.8351
  536MOL0     H72338   8.210   8.970   5.409 -1.5766 -2.7432  1.5996
  536MOL0     H72339   8.388   8.940   5.435  0.9338 -1.1658 -0.4672
  536MOL0     H72340   8.453   7.919   5.444  0.4135  1.8878  0.8367
  536MOL0     H72341   8.464   7.673   5.456 -1.0537  0.2980  1.0752
  536MOL0     H72342   8.697   7.285   5.480 -3.3814  0.9637 -0.9406
  536MOL0     H72343   8.718   7.051   5.514 -0.8577 -1.0174 -0.0280
  536MOL0     H72344   7.307   6.874   5.426 -1.6070  1.7197 -0.2384
  536MOL0     H72345   7.050   6.891   5.385  0.6770  1.6853  2.2075
  536MOL0     H72346   6.716   6.874   5.327 -1.6173  1.9483 -1.2907
  536MOL0     H72347   6.513   6.939   5.241 -0.0670  1.0387  0.1423
  536MOL0     H72348   6.094   6.793   5.164 -0.6366 -1.1993 -1.1114
  536MOL0     H72349   6.149   6.671   5.270 -1.3311 -0.1496 -1.0294
  536MOL0     H72350   6.130   6.593   5.033  0.0888 -0.9985  1.2494
  536MOL0     H72351   6.298   6.572   5.100  0.0648 -0.5552 -0.2913
  536MOL0     H72352   6.272   6.831   4.985 -3.8837  0.6912 -0.1189
  536MOL0     H72353   6.162   6.750   4.889  1.7512  5.2931 -2.7090
  536MOL0     H72354   6.454   6.670   4.937 -1.4742 -0.6988  0.4559
  536MOL0     H72355   6.354   6.566   4.828  1.1106 -1.9535  0.7755
  536MOL0     H72356   6.418   6.865   4.561 -1.9910  0.6776  0.0611
  536MOL0     H72357   6.318   6.593   5.374  0.4004 -0.8394  0.9653
  536MOL0     H72358   6.475   6.480   5.594 -1.0149  1.7017 -0.8055
  536MOL0     H72359   6.422   6.408   5.442  1.0806 -0.9988 -0.2491
  536MOL0     H72360   6.587   6.388   5.501 -3.3406 -3.3247  2.9492
  537MOL0     O72361   6.423   8.621   7.179  0.0314  0.6056  0.4989
  537MOL0     C72362   6.453   8.525   7.253 -1.0110 -0.4458 -0.3986
  537MOL0     O72363   6.528   8.538   7.365 -0.3493  0.1380  0.2673
  537MOL0     C72364   6.567   8.666   7.404 -0.0539 -0.2861  0.4130
  537MOL0     C72365   6.477   8.753   7.465 -0.9838 -0.2212  0.9551
  537MOL0     C72366   6.511   8.882   7.507  0.2066  0.8760  1.2880
  537MOL0     C72367   6.636   8.923   7.493  0.4553 -0.0051  1.0556
  537MOL0     O72368   6.677   9.049   7.541  0.1481 -0.4787 -0.4932
  537MOL0     C72369   6.602   9.160   7.503  0.8962 -0.3234  0.5284
  537MOL0     C72370   6.607   9.204   7.355 -0.0477 -0.4640 -1.1192
  537MOL0     C72371   6.498   9.314   7.339 -0.5383 -0.3077 -0.3521
  537MOL0     C72372   6.492   9.379   7.200  0.0540 -0.5531  0.1919
  537MOL0     C72373   6.390   9.490   7.200  0.6207  0.0963 -0.2740
  537MOL0     C72374   6.398   9.572   7.076  0.3464  0.2269  0.9125
  537MOL0     C72375   6.367   9.722   7.088  0.4954 -0.3056 -0.5325
  537MOL0     C72376   6.229   9.762   7.135  0.5565  0.3873 -0.8036
  537MOL0     N72377   6.204   9.906   7.136 -0.1155 -0.0742 -0.6811
  537MOL0     C72378   6.256   9.999   7.050  0.0712  0.2392 -1.1375
  537MOL0     C72379   6.259  10.113   7.122  0.6991 -0.1818  0.7814
  537MOL0     C72380   6.307  10.242   7.059  0.6585 -0.1036 -0.1117
  537MOL0     C72381   6.204  10.353   7.044 -0.6329 -0.8645 -0.1193
  537MOL0     C72382   6.147  10.397   7.183 -0.5451  0.4735  0.0823
  537MOL0     C72383   6.070  10.528   7.185 -0.8286 -1.4339  0.0763
  537MOL0     O72384   6.170  10.632   7.144  0.3221  0.1949  0.7094
  537MOL0     C72385   6.269  10.674   7.231 -0.4150 -0.1984  0.6438
  537MOL0     C72386   6.235  10.768   7.333  0.5464  0.1370 -1.3248
  537MOL0     C72387   6.343  10.808   7.407  0.4702  0.2506 -0.0299
  537MOL0     C72388   6.480  10.787   7.379  1.0072  0.7292  0.2701
  537MOL0     C72389   6.586  10.834   7.470  0.4985 -0.0102 -1.2688
  537MOL0     O72390   6.560  10.945   7.557  0.1907 -0.2154  0.1360
  537MOL0     C72391   6.636  10.974   7.672 -0.2309  0.0860 -0.1177
  537MOL0     C72392   6.617  11.105   7.733  0.9224  1.3374  0.6177
  537MOL0     C72393   6.691  11.146   7.839  0.2461 -0.4400  0.0240
  537MOL0     C72394   6.796  11.070   7.889  0.0102  1.5095  0.0762
  537MOL0     O72395   6.881  11.130   7.976 -0.0452  0.0376 -0.6647
  537MOL0     C72396   6.919  11.056   8.094 -0.0457  0.2290  0.4165
  537MOL0     C72397   6.916  11.151   8.211  0.0357 -0.1676  0.2440
  537MOL0     C72398   6.781  11.214   8.234  0.2892 -0.2033  1.0811
  537MOL0     C72399   6.740  11.224   8.385 -0.6963  0.0951 -0.4922
  537MOL0     C72400   6.796  11.350   8.442 -0.3068  0.2865  0.0998
  537MOL0     C72401   6.939  11.337   8.489 -0.5715 -0.5036 -0.2610
  537MOL0     C72402   6.951  11.221   8.594  0.7924 -0.9817  0.3012
  537MOL0     C72403   7.059  11.236   8.701 -0.2415  0.5537 -1.2821
  537MOL0    Cl72404   7.218  11.211   8.624 -0.1651  0.8246  0.6492
  537MOL0     C72405   6.825  10.942   7.830 -0.3393  1.1868  0.7258
  537MOL0     C72406   6.746  10.901   7.724 -1.3843 -0.0840  0.0014
  537MOL0     O72407   6.691  10.779   7.453 -1.0105 -0.1402  0.8259
  537MOL0     C72408   6.511  10.701   7.268  0.3088  0.2567  0.0552
  537MOL0     C72409   6.404  10.642   7.203 -0.3403  0.4455  0.0648
  537MOL0     N72410   6.204  10.096   7.245 -0.1559  0.5074 -0.8341
  537MOL0     N72411   6.166   9.969   7.255 -0.0428  0.2199  0.9403
  537MOL0     C72412   6.730   8.841   7.431  0.3889  0.3595  0.0557
  537MOL0     C72413   6.694   8.711   7.376 -0.4565  0.3445 -1.0337
  537MOL0     C72414   6.418   8.387   7.224  0.0272 -0.5795  0.6807
  537MOL0     C72415   6.443   8.292   7.324  0.0023  0.5738 -1.4064
  537MOL0     C72416   6.427   8.153   7.286  0.5277 -0.3759  0.4699
  537MOL0     C72417   6.376   8.105   7.156 -0.5292 -0.2001 -0.0172
  537MOL0     O72418   6.350   7.976   7.121 -0.3862 -0.0861 -0.2329
  537MOL0     C72419   6.354   7.862   7.222  0.0235 -0.5174  0.4587
  537MOL0     C72420   6.227   7.873   7.315  1.0636  1.0844 -0.7814
  537MOL0     C72421   6.166   7.726   7.326  0.2367 -0.3664 -0.1606
  537MOL0     C72422   6.051   7.724   7.424  0.1866  0.4106  0.0547
  537MOL0     C72423   5.989   7.592   7.420 -0.1191 -0.2492 -0.3503
  537MOL0     C72424   5.928   7.488   7.405  0.1600  0.6265  0.6126
  537MOL0     C72425   6.353   8.209   7.071 -0.1133 -1.1247  0.0840
  537MOL0     C72426   6.367   8.343   7.097 -0.2995  0.5411 -0.4057
  537MOL0     C72427   6.334   8.429   6.974  0.0827 -0.1309 -0.7339
  537MOL0     H72428   6.376   8.713   7.466 -0.7708 -1.4981 -3.7433
  537MOL0     H72429   6.436   8.942   7.558 -0.5619  1.5737 -0.6013
  537MOL0     H72430   6.499   9.146   7.536  0.4710 -1.2525 -1.0961
  537MOL0     H72431   6.645   9.244   7.559 -1.4995  0.8639  0.7211
  537MOL0     H72432   6.582   9.122   7.286  1.2487 -2.2168  0.3845
  537MOL0     H72433   6.711   9.236   7.345 -0.0635  0.5845  1.3777
  537MOL0     H72434   6.517   9.390   7.415  1.7834  0.7204 -1.8514
  537MOL0     H72435   6.400   9.268   7.359 -1.4856  2.4232  2.0081
  537MOL0     H72436   6.589   9.420   7.169  0.9115  0.0496  3.2841
  537MOL0     H72437   6.454   9.302   7.133  3.5036 -1.1522 -1.2783
  537MOL0     H72438   6.289   9.447   7.202 -0.4705  2.4805  1.9385
  537MOL0     H72439   6.395   9.548   7.292  2.2429  2.9002 -1.9671
  537MOL0     H72440   6.493   9.558   7.023 -0.2000  0.4225 -0.1542
  537MOL0     H72441   6.325   9.533   7.004  0.1983 -0.2823  1.3313
  537MOL0     H72442   6.376   9.757   6.985 -0.9535 -0.7555 -0.8361
  537MOL0     H72443   6.442   9.768   7.153  0.6519 -2.2712  0.7608
  537MOL0     H72444   6.153   9.715   7.071  0.3571 -1.3503  0.6331
  537MOL0     H72445   6.211   9.711   7.230  0.8766  0.9559 -0.4382
  537MOL0     H72446   6.281   9.971   6.948 -1.4632 -2.9065 -0.7856
  537MOL0     H72447   6.389  10.277   7.123  0.0793 -0.6095  0.9275
  537MOL0     H72448   6.348  10.209   6.963 -0.9802 -0.3197 -0.7583
  537MOL0     H72449   6.256  10.442   7.007  2.1559 -1.2659  2.4457
  537MOL0     H72450   6.125  10.319   6.977 -1.3733  0.1231  0.2167
  537MOL0     H72451   6.224  10.415   7.258 -2.7935  1.7107  2.2685
  537MOL0     H72452   6.070  10.320   7.200 -1.3001  1.1863 -0.0494
  537MOL0     H72453   6.035  10.539   7.288 -1.1356 -1.9910  0.0351
  537MOL0     H72454   5.981  10.522   7.122  0.5059 -4.1845 -1.7606
  537MOL0     H72455   6.130  10.795   7.346  0.0673 -1.8194 -0.7651
  537MOL0     H72456   6.321  10.869   7.494 -3.2046 -0.1382 -0.5375
  537MOL0     H72457   6.536  11.172   7.708  0.1655  0.9179  1.8396
  537MOL0     H72458   6.679  11.245   7.882 -0.9989 -0.5004 -0.1600
  537MOL0     H72459   6.852  10.973   8.118 -1.2865  0.5713 -1.5689
  537MOL0     H72460   7.015  11.013   8.067  0.6413  0.4031  2.4201
  537MOL0     H72461   6.957  11.102   8.300  1.3076 -0.5956 -0.5497
  537MOL0     H72462   6.988  11.228   8.179  1.6245 -2.6115 -2.6095
  537MOL0     H72463   6.776  11.302   8.169 -3.4897 -1.1287 -0.1659
  537MOL0     H72464   6.704  11.149   8.191 -0.7216  2.4803 -1.4874
  537MOL0     H72465   6.779  11.138   8.440  0.0172  2.5152  3.1439
  537MOL0     H72466   6.632  11.217   8.403 -0.4813  0.1452  0.9211
  537MOL0     H72467   6.749  11.392   8.531 -0.2472 -0.2320  0.3765
  537MOL0     H72468   6.778  11.420   8.359 -2.0924 -2.2809 -1.8493
  537MOL0     H72469   7.010  11.321   8.407  2.7597  0.8032  2.1593
  537MOL0     H72470   6.973  11.432   8.532 -0.4700  0.1351 -1.6994
  537MOL0     H72471   6.959  11.125   8.542 -2.7614 -1.3656  0.1860
  537MOL0     H72472   6.857  11.214   8.650  0.2982  1.2581 -0.1661
  537MOL0     H72473   7.036  11.332   8.748 -0.4426 -0.3765  0.5823
  537MOL0     H72474   7.038  11.163   8.779 -2.3215  0.9230 -1.4306
  537MOL0     H72475   6.905  10.883   7.874  0.7551  2.0863  0.0079
  537MOL0     H72476   6.770  10.809   7.672 -3.3651  0.1718 -1.4865
  537MOL0     H72477   6.610  10.662   7.249 -0.7465 -2.5533 -0.2526
  537MOL0     H72478   6.421  10.572   7.122 -0.9898  1.7589 -1.2676
  537MOL0     H72479   6.836   8.862   7.420  0.2480  1.3867  0.4766
  537MOL0     H72480   6.765   8.649   7.322  1.3552 -0.8358  2.3804
  537MOL0     H72481   6.490   8.315   7.419  2.7581 -3.8211 -1.3883
  537MOL0     H72482   6.436   8.073   7.360  1.7775 -1.1351 -0.4620
  537MOL0     H72483   6.441   7.864   7.288  0.5286 -1.1813 -0.1725
  537MOL0     H72484   6.347   7.763   7.176  1.3368 -0.7360  0.7035
  537MOL0     H72485   6.156   7.946   7.274  0.8469  2.0594  1.2204
  537MOL0     H72486   6.252   7.906   7.416  0.4677 -2.0118  0.4938
  537MOL0     H72487   6.229   7.651   7.374 -0.1512  0.1487  1.2037
  537MOL0     H72488   6.133   7.687   7.229 -0.4537 -0.1339 -0.0270
  537MOL0     H72489   6.084   7.737   7.527  0.5046 -2.3297  0.3880
  537MOL0     H72490   5.970   7.796   7.410  1.5327  1.6151 -2.1551
  537MOL0     H72491   5.875   7.394   7.404  1.6145 -0.2618  1.7196
  537MOL0     H72492   6.334   8.178   6.969 -0.0906 -1.8462  0.2983
  537MOL0     H72493   6.424   8.460   6.920 -0.2863  4.7381  0.9153
  537MOL0     H72494   6.261   8.384   6.905 -0.1503 -1.0048  0.0621
  537MOL0     H72495   6.295   8.527   7.004  0.9829 -0.2379  0.9126
  538MOL0     O72496   2.560   3.972   6.849 -0.7614  0.5040  0.4116
  538MOL0     C72497   2.467   3.900   6.882 -0.0074  0.6077  1.1034
  538MOL0     O72498   2.366   3.950   6.951 -0.2975 -0.3463  1.4730
  538MOL0     C72499   2.392   4.059   7.030  0.6726  0.6513  0.2627
  538MOL0     C72500   2.456   4.030   7.155  0.2361  0.0567 -0.9387
  538MOL0     C72501   2.498   4.127   7.237  0.5703 -0.6439 -0.2984
  538MOL0     C72502   2.469   4.261   7.209  0.8245 -0.9150 -0.0898
  538MOL0     O72503   2.475   4.365   7.307  0.4980 -0.3897  0.0716
  538MOL0     C72504   2.536   4.332   7.434 -0.3689 -1.2869 -0.3716
  538MOL0     C72505   2.528   4.440   7.535 -0.1521 -0.1860  1.0688
  538MOL0     C72506   2.582   4.402   7.669 -0.8011 -0.4897 -0.8330
  538MOL0     C72507   2.722   4.328   7.656 -0.6183 -0.4621 -0.1942
  538MOL0     C72508   2.754   4.285   7.802  0.3584  0.2365 -0.0417
  538MOL0     C72509   2.897   4.228   7.802 -0.1115  0.5234 -0.2401
  538MOL0     C72510   2.942   4.207   7.947 -0.1452 -0.3465  0.8690
  538MOL0     C72511   2.902   4.066   8.000  0.2376  0.2970  0.1550
  538MOL0     N72512   2.953   4.032   8.139 -0.1037  0.5163 -0.5117
  538MOL0     C72513   3.091   4.031   8.186  0.3409  0.6639  0.1641
  538MOL0     C72514   3.070   3.993   8.316 -0.6621  0.3959 -0.7714
  538MOL0     C72515   3.183   3.969   8.419  0.0868 -0.6725  0.1524
  538MOL0     C72516   3.230   3.827   8.414  0.5731  0.2833 -0.0702
  538MOL0     C72517   3.310   3.798   8.539 -0.2764 -0.2787  0.7962
  538MOL0     C72518   3.450   3.864   8.543 -0.9927 -0.0081 -0.7364
  538MOL0     O72519   3.513   3.839   8.671 -0.6932 -0.5616  0.4455
  538MOL0     C72520   3.626   3.927   8.704  0.2973 -0.2425  0.6319
  538MOL0     C72521   3.700   3.997   8.604  0.4403  0.1446 -0.3975
  538MOL0     C72522   3.823   4.059   8.644 -0.2800  1.2051  0.0943
  538MOL0     C72523   3.867   4.057   8.778  0.0627  0.2658  0.3027
  538MOL0     C72524   4.010   4.102   8.809  0.7106  0.5196  0.7173
  538MOL0     O72525   4.079   4.162   8.705 -0.1474 -0.1546 -0.6618
  538MOL0     C72526   4.215   4.171   8.700 -0.8541 -0.0840 -0.2503
  538MOL0     C72527   4.300   4.063   8.728  1.0000  0.4782  0.2085
  538MOL0     C72528   4.443   4.062   8.729  0.7865  0.1700  0.7601
  538MOL0     C72529   4.515   4.176   8.699 -0.1146  0.4577 -0.7396
  538MOL0     O72530   4.651   4.185   8.689 -0.2507 -0.1395  0.2746
  538MOL0     C72531   4.723   4.059   8.662  0.1211 -0.0998  0.4451
  538MOL0     C72532   4.871   4.085   8.621  1.1357  0.3545 -1.0240
  538MOL0     C72533   4.966   3.965   8.636  0.1099  0.3469 -0.0066
  538MOL0     C72534   5.014   3.949   8.783  0.6138  0.2079  0.2594
  538MOL0     C72535   5.137   4.047   8.800 -0.2987  0.2022 -0.2707
  538MOL0     C72536   5.196   4.041   8.939 -0.3538 -0.0419 -0.7290
  538MOL0     C72537   5.136   4.120   9.050  0.4741 -0.0085 -0.1480
  538MOL0     C72538   5.180   4.066   9.184  0.2726 -0.0575  0.2289
  538MOL0    Cl72539   5.109   4.152   9.326  0.4732  0.8423  0.4915
  538MOL0     C72540   4.442   4.284   8.664 -0.2231 -0.2300  0.3969
  538MOL0     C72541   4.295   4.274   8.654 -0.2808  0.5325 -0.0791
  538MOL0     O72542   4.056   4.074   8.914  0.4231  0.6503 -0.7937
  538MOL0     C72543   3.781   3.999   8.871 -0.0982 -0.3026  0.0185
  538MOL0     C72544   3.666   3.931   8.833  0.3996  0.0462  0.4514
  538MOL0     N72545   2.940   3.979   8.342 -0.6772 -0.2952 -1.0536
  538MOL0     N72546   2.870   3.993   8.239 -0.3493 -0.1415  1.2075
  538MOL0     C72547   2.405   4.291   7.085  0.5526 -0.0538 -0.4463
  538MOL0     C72548   2.365   4.191   6.996  0.0388  1.0130  0.5485
  538MOL0     C72549   2.456   3.769   6.810  0.2958 -0.5466 -0.7022
  538MOL0     C72550   2.577   3.701   6.776  0.6296 -0.3900 -0.7615
  538MOL0     C72551   2.567   3.574   6.721 -0.0632 -0.2720 -0.1290
  538MOL0     C72552   2.448   3.518   6.681 -0.3836  0.4346  0.4037
  538MOL0     O72553   2.454   3.394   6.611  0.1423  0.3883  0.2551
  538MOL0     C72554   2.328   3.336   6.596  0.8622  0.7806 -0.1407
  538MOL0     C72555   2.347   3.189   6.567 -0.2342  0.5801 -0.1945
  538MOL0     C72556   2.393   3.161   6.426 -0.2925  0.9548 -0.0349
  538MOL0     C72557   2.285   3.174   6.320 -0.2481 -0.2399  0.6721
  538MOL0     C72558   2.182   3.069   6.331 -0.8508  1.2653  0.2967
  538MOL0     C72559   2.109   2.976   6.348 -0.2639 -0.1769  0.7316
  538MOL0     C72560   2.337   3.588   6.723 -0.0622 -0.8926 -0.4909
  538MOL0     C72561   2.333   3.707   6.781 -0.9691 -0.3675 -0.3849
  538MOL0     C72562   2.198   3.773   6.813  0.0264 -0.4923 -0.5300
  538MOL0     H72563   2.474   3.931   7.197  4.0670  0.6735 -0.7726
  538MOL0     H72564   2.538   4.084   7.328 -1.0521  0.1921  0.8703
  538MOL0     H72565   2.478   4.248   7.472 -2.9640  0.3237 -0.5237
  538MOL0     H72566   2.640   4.299   7.426  0.0709  0.2981 -1.8411
  538MOL0     H72567   2.427   4.476   7.557 -0.3022 -1.1557  2.0165
  538MOL0     H72568   2.583   4.530   7.507 -1.7138  0.2137 -1.0467
  538MOL0     H72569   2.511   4.344   7.729  2.4010 -1.1314  2.6702
  538MOL0     H72570   2.597   4.491   7.730 -0.8102 -1.3797  0.5150
  538MOL0     H72571   2.728   4.238   7.594  1.5961 -1.3905  1.2306
  538MOL0     H72572   2.794   4.391   7.604 -1.4524  0.8430  0.1927
  538MOL0     H72573   2.754   4.376   7.863 -1.9500  1.1181 -1.2192
  538MOL0     H72574   2.684   4.209   7.839 -3.0608  2.4193 -1.5350
  538MOL0     H72575   2.885   4.134   7.748 -4.4408 -0.0328  1.3565
  538MOL0     H72576   2.975   4.284   7.749 -0.1606  0.2767 -0.5760
  538MOL0     H72577   2.899   4.280   8.015 -1.5103  0.1433 -0.4734
  538MOL0     H72578   3.052   4.206   7.950 -0.1161  1.9545  2.0176
  538MOL0     H72579   2.795   4.048   8.003  0.6873 -2.7252  0.5442
  538MOL0     H72580   2.943   3.999   7.924 -2.1076 -1.9432  0.7561
  538MOL0     H72581   3.182   4.064   8.137  0.4011 -0.8987 -0.8415
  538MOL0     H72582   3.258   4.048   8.412  2.9830 -3.1625  1.3574
  538MOL0     H72583   3.126   3.992   8.509  0.5855 -2.8788  1.0987
  538MOL0     H72584   3.140   3.764   8.410  0.0307  0.9852  0.6005
  538MOL0     H72585   3.282   3.802   8.322 -1.4885  0.8711 -1.4753
  538MOL0     H72586   3.314   3.688   8.545  1.5732 -0.5000 -2.3267
  538MOL0     H72587   3.262   3.831   8.631 -0.0396 -0.1701  0.8794
  538MOL0     H72588   3.431   3.970   8.523 -2.5464 -0.2056 -0.4415
  538MOL0     H72589   3.512   3.824   8.463 -0.2028  0.8003 -0.5415
  538MOL0     H72590   3.678   3.986   8.498  0.5912 -0.9893 -0.3248
  538MOL0     H72591   3.876   4.111   8.565 -0.4409 -0.4331 -1.1352
  538MOL0     H72592   4.251   3.966   8.741  3.5602 -0.7737  1.0706
  538MOL0     H72593   4.493   3.973   8.766 -2.6086 -1.3130  2.2999
  538MOL0     H72594   4.725   3.987   8.744 -2.3120  1.3956  1.9361
  538MOL0     H72595   4.675   4.004   8.580  2.9111 -1.7643 -0.2108
  538MOL0     H72596   4.875   4.099   8.512  0.8506  1.5494 -0.8956
  538MOL0     H72597   4.910   4.176   8.667  0.7807  0.6032 -1.2102
  538MOL0     H72598   4.905   3.884   8.594  1.0343  0.0306 -0.7696
  538MOL0     H72599   5.052   3.968   8.568 -0.7063 -0.7522 -1.1324
  538MOL0     H72600   5.026   3.843   8.808 -0.3092  0.3970  1.5971
  538MOL0     H72601   4.941   3.993   8.853  0.0091  1.7581 -1.2713
  538MOL0     H72602   5.106   4.145   8.765 -2.0199 -0.6799 -1.3546
  538MOL0     H72603   5.214   4.019   8.728  1.3105  1.9665  0.6640
  538MOL0     H72604   5.198   3.938   8.977 -3.3407  0.5189  1.2750
  538MOL0     H72605   5.296   4.083   8.929 -1.2507  1.9978 -1.8037
  538MOL0     H72606   5.027   4.120   9.046  0.3757  2.1722  1.0789
  538MOL0     H72607   5.160   4.227   9.046  0.8728 -0.1029 -0.4232
  538MOL0     H72608   5.160   3.958   9.182 -1.7519  0.1953  2.4466
  538MOL0     H72609   5.288   4.078   9.181  0.2835  0.8407  2.4065
  538MOL0     H72610   4.496   4.375   8.641  0.1179 -0.7076 -0.7354
  538MOL0     H72611   4.240   4.358   8.612  0.2344  0.4300 -0.9734
  538MOL0     H72612   3.801   4.006   8.977 -3.0975  1.5303  0.5893
  538MOL0     H72613   3.605   3.879   8.906  0.2008  0.8294  0.8540
  538MOL0     H72614   2.405   4.394   7.050  1.1490  0.2118  0.2995
  538MOL0     H72615   2.327   4.219   6.899  0.8370  2.7269  0.6833
  538MOL0     H72616   2.680   3.728   6.794  0.7693  0.4650 -2.6088
  538MOL0     H72617   2.661   3.525   6.697  0.0844 -0.6446  1.1489
  538MOL0     H72618   2.262   3.384   6.523  0.5400  0.2065 -0.2279
  538MOL0     H72619   2.279   3.353   6.692  2.5600  1.0376  0.7046
  538MOL0     H72620   2.259   3.132   6.597  0.7121  0.2948  2.2460
  538MOL0     H72621   2.423   3.141   6.630 -1.5662 -1.1245  0.1759
  538MOL0     H72622   2.425   3.057   6.417 -2.1396  0.1747  1.6317
  538MOL0     H72623   2.483   3.219   6.404 -0.5902  0.2633 -3.6452
  538MOL0     H72624   2.252   3.278   6.327  1.0128  0.5503 -3.0716
  538MOL0     H72625   2.326   3.159   6.220  0.5078 -0.7939  1.0515
  538MOL0     H72626   2.057   2.885   6.370  0.3467 -0.5110  0.8125
  538MOL0     H72627   2.240   3.546   6.698 -0.8952 -2.0341  3.8334
  538MOL0     H72628   2.204   3.876   6.777  2.3016 -0.0859  0.7811
  538MOL0     H72629   2.111   3.723   6.770 -0.0643 -0.2127 -0.6740
  538MOL0     H72630   2.197   3.777   6.922  0.7518 -0.8342 -0.5021
  539MOL0     O72631   7.217   3.417   1.985  0.4380  0.6289  0.0404
  539MOL0     C72632   7.313   3.473   1.931  0.4019 -0.2947  0.1737
  539MOL0     O72633   7.341   3.608   1.929  0.1887 -0.6206  0.4546
  539MOL0     C72634   7.244   3.699   1.968 -0.3747  0.0475 -0.4626
  539MOL0     C72635   7.107   3.681   1.971 -0.0895 -0.1527 -0.0174
  539MOL0     C72636   7.024   3.778   1.999  0.9323  0.1188  0.1411
  539MOL0     C72637   7.061   3.912   2.019 -1.4682 -0.0202  0.0884
  539MOL0     O72638   6.982   4.013   2.056 -0.6019 -0.0965  0.6612
  539MOL0     C72639   6.907   3.990   2.178  0.5210 -0.9736 -0.2663
  539MOL0     C72640   6.759   4.020   2.176  0.4405 -0.1315  0.7116
  539MOL0     C72641   6.748   4.173   2.212  0.7725  1.2828  0.5068
  539MOL0     C72642   6.605   4.216   2.188 -0.1548  1.0182  0.5299
  539MOL0     C72643   6.579   4.354   2.241  0.0937  0.3791  0.3439
  539MOL0     C72644   6.443   4.402   2.193 -0.4422 -0.9216 -0.5023
  539MOL0     C72645   6.386   4.514   2.272 -0.1244 -0.9705 -1.3185
  539MOL0     C72646   6.323   4.470   2.403 -0.1251  0.5181 -0.2470
  539MOL0     N72647   6.176   4.464   2.396 -0.2826 -0.3236 -0.1735
  539MOL0     C72648   6.091   4.565   2.405 -0.3640 -0.2367  0.2000
  539MOL0     C72649   5.976   4.504   2.395 -0.0509 -0.0548 -0.0168
  539MOL0     C72650   5.848   4.586   2.385  0.9592  0.1984  0.1635
  539MOL0     C72651   5.810   4.658   2.516 -0.3048  0.0504 -0.8374
  539MOL0     C72652   5.707   4.765   2.484 -0.0386 -0.8045 -0.8743
  539MOL0     C72653   5.676   4.851   2.602  0.5715  0.0028  0.3868
  539MOL0     O72654   5.555   4.789   2.663  0.2110 -0.4701 -0.4032
  539MOL0     C72655   5.482   4.868   2.748  0.5678  1.3651  0.9910
  539MOL0     C72656   5.426   4.799   2.862  0.1917 -0.8183 -0.1351
  539MOL0     C72657   5.385   4.883   2.965  0.2857 -0.9302 -0.2599
  539MOL0     C72658   5.392   5.022   2.959 -0.1472  0.4179  0.0251
  539MOL0     C72659   5.358   5.100   3.076  0.1797  0.5358 -0.0229
  539MOL0     O72660   5.319   5.031   3.190  0.2389 -0.1737 -0.7158
  539MOL0     C72661   5.321   5.093   3.310  1.0893  0.2199  0.4226
  539MOL0     C72662   5.210   5.158   3.356 -0.2333  0.0530  0.1960
  539MOL0     C72663   5.215   5.202   3.490  0.0024  0.2471 -0.5093
  539MOL0     C72664   5.325   5.189   3.574  0.0614 -0.1898 -0.2338
  539MOL0     O72665   5.332   5.231   3.707 -0.1101  0.2550  0.0075
  539MOL0     C72666   5.213   5.286   3.770 -0.1133  0.4875  0.2114
  539MOL0     C72667   5.229   5.280   3.921  0.9254 -0.8573 -0.6267
  539MOL0     C72668   5.105   5.355   3.990 -1.1216  0.1629 -0.4207
  539MOL0     C72669   5.112   5.332   4.134  0.2469  0.8705  0.7708
  539MOL0     C72670   5.010   5.428   4.188 -0.2585 -0.1050 -0.5360
  539MOL0     C72671   4.955   5.404   4.325 -0.1149  0.2792 -0.0425
  539MOL0     C72672   4.863   5.509   4.367  0.3803 -0.2247  0.2181
  539MOL0     C72673   4.801   5.465   4.496  0.1935  1.0798  0.1081
  539MOL0    Cl72674   4.666   5.558   4.553 -0.1769 -0.0935  0.2725
  539MOL0     C72675   5.425   5.115   3.526  0.2877  0.2306 -0.0695
  539MOL0     C72676   5.420   5.057   3.399 -1.6488 -2.1632 -0.1508
  539MOL0     O72677   5.381   5.219   3.071 -0.5835 -0.2184  0.3181
  539MOL0     C72678   5.446   5.087   2.843 -0.3380 -0.0282 -0.0081
  539MOL0     C72679   5.491   5.003   2.740  0.1280 -0.3159 -0.1433
  539MOL0     N72680   5.985   4.365   2.376 -0.4139 -0.5819  0.4937
  539MOL0     N72681   6.108   4.348   2.385  0.1265  0.4822  0.1213
  539MOL0     C72682   7.194   3.935   2.006  0.5072  0.1046  0.7058
  539MOL0     C72683   7.291   3.831   1.987  0.0909  0.6660  0.0841
  539MOL0     C72684   7.438   3.387   1.887 -0.5826  0.4625  0.4534
  539MOL0     C72685   7.431   3.238   1.917  0.2499  0.1221 -0.3140
  539MOL0     C72686   7.544   3.157   1.885  0.9003  0.0599  0.4776
  539MOL0     C72687   7.651   3.199   1.824 -0.7149 -1.1496  0.6009
  539MOL0     O72688   7.737   3.114   1.782 -0.5707  1.1393 -0.7113
  539MOL0     C72689   7.879   3.136   1.819  0.0174 -0.0912 -0.1200
  539MOL0     C72690   7.978   3.155   1.703 -0.6288  0.2548 -0.1687
  539MOL0     C72691   7.967   3.051   1.584 -0.2803 -0.1902 -0.6853
  539MOL0     C72692   8.070   3.074   1.481 -0.7239 -0.6036 -0.3226
  539MOL0     C72693   8.077   3.211   1.435 -0.0236 -0.8052  0.8179
  539MOL0     C72694   8.081   3.326   1.394  0.0096 -0.7062 -0.3699
  539MOL0     C72695   7.664   3.337   1.790  0.7941 -0.3704  0.4422
  539MOL0     C72696   7.558   3.434   1.821 -0.7324 -0.1848  1.2714
  539MOL0     C72697   7.576   3.578   1.782  1.0550  1.1618  0.2711
  539MOL0     H72698   7.068   3.581   1.956  0.0630 -0.2367  0.1471
  539MOL0     H72699   6.917   3.763   2.006  0.6721  0.2199 -2.5021
  539MOL0     H72700   6.916   3.884   2.204  3.3629 -1.2997 -2.1494
  539MOL0     H72701   6.965   4.033   2.261  2.6520 -1.7884 -1.2509
  539MOL0     H72702   6.717   3.968   2.263 -1.4900  0.4946  0.2057
  539MOL0     H72703   6.714   3.984   2.084  0.7640  0.3388  0.3686
  539MOL0     H72704   6.813   4.240   2.155  0.1931  1.0789 -0.4280
  539MOL0     H72705   6.785   4.183   2.314  4.4310 -2.7792 -0.1395
  539MOL0     H72706   6.572   4.228   2.084 -0.5248 -3.6178 -0.1089
  539MOL0     H72707   6.535   4.142   2.228 -0.7329  0.2052 -1.8184
  539MOL0     H72708   6.573   4.352   2.350 -0.0640  1.4313  0.3676
  539MOL0     H72709   6.652   4.429   2.209 -1.6733  1.7652 -0.6644
  539MOL0     H72710   6.448   4.434   2.089 -1.7545  0.5952 -0.1312
  539MOL0     H72711   6.364   4.326   2.185  0.4656 -2.0416  0.6915
  539MOL0     H72712   6.306   4.554   2.209  0.3007 -1.9978 -2.5433
  539MOL0     H72713   6.453   4.598   2.293 -1.6209  0.7383 -3.0172
  539MOL0     H72714   6.367   4.373   2.427 -3.3159 -1.2850 -1.0501
  539MOL0     H72715   6.360   4.543   2.476 -0.3572  0.9679 -0.5754
  539MOL0     H72716   6.112   4.669   2.431  0.8760 -0.2946 -0.4763
  539MOL0     H72717   5.849   4.653   2.299  0.5370 -0.7700 -0.6165
  539MOL0     H72718   5.772   4.512   2.358 -0.5112  1.8241 -0.2569
  539MOL0     H72719   5.779   4.579   2.585  0.3669  0.9812  0.5860
  539MOL0     H72720   5.897   4.693   2.574 -1.2961  0.7108  0.2904
  539MOL0     H72721   5.616   4.735   2.431 -0.8604 -1.6560  0.9093
  539MOL0     H72722   5.759   4.826   2.410 -1.2901  1.8900  0.3266
  539MOL0     H72723   5.659   4.946   2.550 -0.7317  0.4231  1.5326
  539MOL0     H72724   5.757   4.867   2.673 -0.0576  1.5932  0.7911
  539MOL0     H72725   5.429   4.691   2.859 -3.1996 -1.0591 -3.4752
  539MOL0     H72726   5.344   4.833   3.052  0.8199 -1.1925 -0.1534
  539MOL0     H72727   5.124   5.181   3.294  1.4297  1.8310 -1.5983
  539MOL0     H72728   5.126   5.261   3.510 -0.4008  0.3771 -2.4758
  539MOL0     H72729   5.200   5.389   3.734 -1.3643 -0.0424 -0.9030
  539MOL0     H72730   5.127   5.227   3.738  1.3213 -0.6304 -1.8201
  539MOL0     H72731   5.228   5.180   3.964 -2.9957 -0.3820  0.8616
  539MOL0     H72732   5.321   5.329   3.955  1.9143 -1.4872 -2.2985
  539MOL0     H72733   5.123   5.459   3.963  3.5878 -0.3481 -0.0937
  539MOL0     H72734   5.010   5.319   3.950 -0.2361 -1.1988 -1.4329
  539MOL0     H72735   5.215   5.345   4.170  0.1633 -0.2008  1.4331
  539MOL0     H72736   5.074   5.232   4.155 -1.7979  2.0897  3.6920
  539MOL0     H72737   4.925   5.431   4.120  0.3198 -0.6799 -1.3122
  539MOL0     H72738   5.052   5.528   4.173  1.4604 -0.5547  0.8431
  539MOL0     H72739   4.898   5.310   4.325 -0.4738  0.3991  3.0861
  539MOL0     H72740   5.042   5.389   4.389  1.8837 -1.9448 -3.0072
  539MOL0     H72741   4.783   5.516   4.294 -0.4670 -2.0371  0.9340
  539MOL0     H72742   4.907   5.610   4.371 -0.5560  0.2750 -1.2632
  539MOL0     H72743   4.754   5.368   4.477  0.5781  1.2770 -2.0384
  539MOL0     H72744   4.878   5.447   4.572  0.2132 -2.9656 -0.6343
  539MOL0     H72745   5.500   5.096   3.602  0.3784  1.7893  0.2785
  539MOL0     H72746   5.502   4.991   3.372 -0.7942  0.0287 -3.6022
  539MOL0     H72747   5.448   5.195   2.832 -3.5409 -0.1174 -3.5478
  539MOL0     H72748   5.554   5.046   2.663 -0.7280 -2.7655 -2.3655
  539MOL0     H72749   7.206   4.042   2.014 -2.4115  0.4893  0.9410
  539MOL0     H72750   7.394   3.860   2.005  0.3224  0.0245 -0.1676
  539MOL0     H72751   7.346   3.181   1.953 -0.4696 -0.9106 -3.3441
  539MOL0     H72752   7.531   3.049   1.893  1.3431 -0.0905 -0.6219
  539MOL0     H72753   7.915   3.061   1.891 -2.4980  2.0390  3.7418
  539MOL0     H72754   7.891   3.227   1.878  0.3157 -0.5282  0.5142
  539MOL0     H72755   8.079   3.150   1.745 -1.2110  0.5492  1.3655
  539MOL0     H72756   7.961   3.250   1.651  0.8218 -0.9200 -2.9707
  539MOL0     H72757   7.867   3.064   1.541  0.3117 -0.3514 -2.1744
  539MOL0     H72758   7.974   2.951   1.628 -0.5385  0.6998  1.5210
  539MOL0     H72759   8.164   3.053   1.532 -0.5529  2.1298  0.6255
  539MOL0     H72760   8.056   3.007   1.396 -1.4224  0.7754 -1.3240
  539MOL0     H72761   8.078   3.428   1.361 -1.2343 -0.9225 -0.9808
  539MOL0     H72762   7.748   3.369   1.730  1.0827  0.0206  1.0501
  539MOL0     H72763   7.578   3.646   1.868 -1.3354 -2.3774  3.4419
  539MOL0     H72764   7.676   3.575   1.737 -0.5114 -0.3927 -3.6057
  539MOL0     H72765   7.501   3.607   1.708  1.2438  0.4371 -0.2175
  540MOL0     O72766   0.418   2.383   9.660  0.5031 -0.3332  0.0694
  540MOL0     C72767   0.470   2.312   9.579  0.3626 -0.0147  0.2522
  540MOL0     O72768   0.557   2.206   9.609 -0.2369  0.3999  0.0313
  540MOL0     C72769   0.614   2.186   9.732  0.0603  0.3665 -0.2468
  540MOL0     C72770   0.657   2.293   9.816 -0.1676  0.1225  0.9655
  540MOL0     C72771   0.721   2.259   9.937  0.4513 -0.7268 -0.8266
  540MOL0     C72772   0.750   2.126   9.975 -0.3797 -0.6603 -0.2369
  540MOL0     O72773   0.816   2.117  10.096  0.1246 -0.5914 -0.2243
  540MOL0     C72774   0.954   2.064  10.090  0.1788 -0.5645 -0.3382
  540MOL0     C72775   0.964   1.912  10.125  0.1979  0.3183 -0.7254
  540MOL0     C72776   0.926   1.885  10.275  0.1415  0.0099  0.1330
  540MOL0     C72777   1.029   1.944  10.374 -0.9194 -0.4493  0.0336
  540MOL0     C72778   1.002   1.906  10.521  0.2338  0.2909  0.3906
  540MOL0     C72779   1.029   1.756  10.547  0.4733  0.4431 -0.1276
  540MOL0     C72780   1.020   1.717  10.697 -0.0886  0.3766  0.3241
  540MOL0     C72781   1.082   1.808  10.797 -0.0074 -0.7027  0.2696
  540MOL0     N72782   1.216   1.819  10.766  0.3469 -0.5700 -0.5768
  540MOL0     C72783   1.281   1.937  10.746 -0.6136  1.0231 -0.8477
  540MOL0     C72784   1.410   1.902  10.742  0.2605 -0.0925 -0.2455
  540MOL0     C72785   1.517   2.003  10.732  0.0375 -0.5057  0.3021
  540MOL0     C72786   1.587   2.032  10.866  1.2343  0.5217  1.1329
  540MOL0     C72787   1.708   2.132  10.840  0.2321  0.3036  0.6127
  540MOL0     C72788   1.768   2.181  10.967  0.5324  0.2565 -0.1039
  540MOL0     O72789   1.807   2.073  11.058  0.1724  1.6082  0.3222
  540MOL0     C72790   1.885   2.099  11.178 -0.6730  0.3251 -0.9620
  540MOL0     C72791   1.938   2.226  11.215  0.2930  0.6113 -0.0704
  540MOL0     C72792   2.012   2.236  11.340 -1.2212  0.2376  0.4401
  540MOL0     C72793   2.028   2.131  11.426  0.2462  0.2690 -0.5385
  540MOL0     C72794   2.105   2.149  11.548  0.9023  0.5448 -1.2057
  540MOL0     O72795   2.139   2.274  11.579  0.9437 -0.4991 -0.3331
  540MOL0     C72796   2.200   2.295  11.701  0.1649 -0.6489 -0.4633
  540MOL0     C72797   2.118   2.304  11.809  0.5000  0.5556 -0.3502
  540MOL0     C72798   2.175   2.328  11.936  0.2761  0.6789 -0.2317
  540MOL0     C72799   2.317   2.314  11.947  0.9314  0.4352 -0.1313
  540MOL0     O72800   2.368   2.335  12.075 -0.4334  0.3854 -0.3868
  540MOL0     C72801   2.506   2.365  12.080  0.0959  1.1248  0.0848
  540MOL0     C72802   2.517   2.481  12.194 -0.0569 -0.0567  0.0045
  540MOL0     C72803   2.649   2.556  12.176  0.1918 -0.6643 -0.4476
  540MOL0     C72804   2.635   2.700  12.222 -0.1130 -0.2029  0.4948
  540MOL0     C72805   2.764   2.783  12.192 -0.0423 -0.7279 -0.1933
  540MOL0     C72806   2.756   2.939  12.209 -0.1210 -0.0055 -0.8134
  540MOL0     C72807   2.689   2.982  12.345 -0.3261 -0.4196  0.4945
  540MOL0     C72808   2.689   3.133  12.359 -0.9058  0.5491  0.4502
  540MOL0    Cl72809   2.557   3.201  12.252  0.3725  0.1295 -0.2460
  540MOL0     C72810   2.396   2.287  11.834 -0.1907  0.5568  0.6170
  540MOL0     C72811   2.335   2.289  11.711  0.1461 -0.1442  0.0677
  540MOL0     O72812   2.112   2.050  11.621 -0.1963  0.3203  0.4895
  540MOL0     C72813   1.976   2.011  11.382 -0.5682  0.0370  0.5542
  540MOL0     C72814   1.915   1.988  11.261 -0.5309 -0.4513 -0.9834
  540MOL0     N72815   1.416   1.764  10.744  0.2338 -0.7375  1.2018
  540MOL0     N72816   1.301   1.721  10.769 -0.3458 -0.0100  0.3338
  540MOL0     C72817   0.704   2.020   9.894 -0.3807 -0.0264 -0.0510
  540MOL0     C72818   0.636   2.051   9.775  0.0968 -0.0422  0.7922
  540MOL0     C72819   0.449   2.349   9.431  0.7136  0.5957 -0.3902
  540MOL0     C72820   0.508   2.266   9.342 -0.3465  0.0311  0.6663
  540MOL0     C72821   0.522   2.305   9.202  0.1411 -0.6424  0.0172
  540MOL0     C72822   0.454   2.412   9.160 -0.1331 -0.0640 -0.3452
  540MOL0     O72823   0.442   2.431   9.022 -0.0890 -0.1446 -0.0785
  540MOL0     C72824   0.327   2.374   8.970 -0.1245 -0.0570  0.3110
  540MOL0     C72825   0.355   2.327   8.823 -0.6224 -0.6996  0.0262
  540MOL0     C72826   0.371   2.444   8.727 -0.5985 -0.0904  0.4152
  540MOL0     C72827   0.510   2.465   8.678  0.3165 -0.2574 -0.1231
  540MOL0     C72828   0.529   2.365   8.576  0.2804  0.0067  0.5599
  540MOL0     C72829   0.544   2.284   8.482 -0.1842  0.0819  0.0204
  540MOL0     C72830   0.381   2.490   9.249  0.1199  0.4078  0.6467
  540MOL0     C72831   0.380   2.465   9.386  0.3079  0.1439 -0.8589
  540MOL0     C72832   0.295   2.555   9.470  0.1338  0.5515 -0.2104
  540MOL0     H72833   0.638   2.397   9.794  0.7907 -0.3106 -2.6727
  540MOL0     H72834   0.739   2.345  10.000 -3.0534 -0.4888  0.0502
  540MOL0     H72835   0.993   2.083   9.990 -1.2662 -0.2526 -0.8655
  540MOL0     H72836   1.010   2.117  10.167 -0.6606  0.4411 -0.3911
  540MOL0     H72837   1.066   1.878  10.105  0.0031 -1.2476  0.7984
  540MOL0     H72838   0.889   1.859  10.065 -1.1634  0.9453  0.3880
  540MOL0     H72839   0.910   1.778  10.289  0.8275 -0.4275 -2.0556
  540MOL0     H72840   0.832   1.940  10.287  0.6265  0.8585  0.0583
  540MOL0     H72841   1.127   1.908  10.340 -0.4825  0.4424  0.3086
  540MOL0     H72842   1.028   2.053  10.359 -0.5431 -0.8131 -3.5845
  540MOL0     H72843   1.060   1.979  10.579 -1.2261  1.6785  0.1922
  540MOL0     H72844   0.897   1.921  10.548 -0.1883 -1.6745 -0.0655
  540MOL0     H72845   0.965   1.687  10.491  2.2894 -0.9054 -0.6295
  540MOL0     H72846   1.134   1.748  10.516  0.2181  0.3892 -1.0081
  540MOL0     H72847   1.063   1.617  10.707 -0.9444 -0.0403 -0.1084
  540MOL0     H72848   0.918   1.688  10.723 -0.3886  1.1676  0.0407
  540MOL0     H72849   1.029   1.903  10.789 -1.9809 -1.8939 -2.6450
  540MOL0     H72850   1.071   1.772  10.900  1.4832  2.5713  1.7249
  540MOL0     H72851   1.233   2.034  10.739  0.0729  1.3791 -0.6622
  540MOL0     H72852   1.593   1.980  10.657 -0.5997 -2.5991  0.2453
  540MOL0     H72853   1.460   2.091  10.702 -0.3126 -0.0681  2.0972
  540MOL0     H72854   1.517   2.061  10.945  1.9857 -2.5085  3.0667
  540MOL0     H72855   1.623   1.932  10.893  0.2000 -0.2490 -0.1930
  540MOL0     H72856   1.679   2.212  10.771  1.9317 -0.6499 -1.3206
  540MOL0     H72857   1.780   2.074  10.781 -0.1427  1.5726 -1.1888
  540MOL0     H72858   1.698   2.251  11.015  0.2688 -0.2442  0.2541
  540MOL0     H72859   1.854   2.245  10.946 -0.3120  0.9342 -1.6735
  540MOL0     H72860   1.910   2.304  11.145 -0.5516 -0.0681 -0.5056
  540MOL0     H72861   2.046   2.336  11.364 -0.6245 -0.0601  0.8700
  540MOL0     H72862   2.010   2.305  11.797  0.3750 -1.0884  0.3824
  540MOL0     H72863   2.113   2.354  12.021  0.4759 -1.9688  0.8189
  540MOL0     H72864   2.567   2.281  12.116 -3.4048 -1.0012  1.5237
  540MOL0     H72865   2.544   2.408  11.987 -3.3447  0.1888 -1.9339
  540MOL0     H72866   2.436   2.555  12.193 -0.3562 -0.3830 -0.0688
  540MOL0     H72867   2.525   2.426  12.288  2.7849  2.7376  1.6158
  540MOL0     H72868   2.735   2.512  12.228 -0.8402  2.6768  4.9207
  540MOL0     H72869   2.676   2.554  12.070  1.5299 -3.1720 -0.1564
  540MOL0     H72870   2.608   2.695  12.328  0.3279 -0.1880  0.6086
  540MOL0     H72871   2.554   2.750  12.169  0.1428 -1.7790 -1.5327
  540MOL0     H72872   2.806   2.766  12.093 -2.1309 -2.3069 -0.8715
  540MOL0     H72873   2.842   2.752  12.263  0.1432 -2.2599 -1.0390
  540MOL0     H72874   2.854   2.984  12.191 -1.0276  2.4384 -0.0232
  540MOL0     H72875   2.697   2.981  12.127 -0.1469 -2.5494 -2.2299
  540MOL0     H72876   2.741   2.928  12.425  1.3271  0.1307 -0.1842
  540MOL0     H72877   2.582   2.960  12.340 -0.6441  0.5791  2.0295
  540MOL0     H72878   2.677   3.161  12.464  0.9863 -0.7150  1.0594
  540MOL0     H72879   2.780   3.179  12.319 -1.3630  1.6559  0.6603
  540MOL0     H72880   2.504   2.282  11.838 -0.0209  1.0347 -1.8476
  540MOL0     H72881   2.386   2.277  11.615 -0.3246  1.7426 -0.4528
  540MOL0     H72882   1.988   1.921  11.441 -0.6351 -0.8756 -0.7892
  540MOL0     H72883   1.871   1.891  11.241 -0.5267 -0.5683 -0.4570
  540MOL0     H72884   0.713   1.920   9.936  0.6610 -0.5644 -1.4870
  540MOL0     H72885   0.596   1.979   9.704 -2.2721  4.0138 -2.4854
  540MOL0     H72886   0.562   2.180   9.380  1.0248  0.1214 -0.9635
  540MOL0     H72887   0.584   2.254   9.129  2.1259 -2.7751  2.9615
  540MOL0     H72888   0.235   2.432   8.974  0.6242  1.1064  1.9029
  540MOL0     H72889   0.322   2.279   9.024  0.7236 -1.1532 -1.4390
  540MOL0     H72890   0.268   2.266   8.799 -1.7880  1.7101 -2.4275
  540MOL0     H72891   0.448   2.274   8.847 -0.5256 -0.4192  0.2863
  540MOL0     H72892   0.341   2.529   8.791  1.7073 -1.1271  3.0932
  540MOL0     H72893   0.300   2.441   8.644 -0.9856  2.8891  0.4973
  540MOL0     H72894   0.507   2.568   8.642 -1.1383 -0.1742  0.1710
  540MOL0     H72895   0.593   2.456   8.749  0.9263 -3.5440 -1.0584
  540MOL0     H72896   0.552   2.205   8.410  0.4855 -1.1450  1.3662
  540MOL0     H72897   0.328   2.573   9.202 -0.0759  0.1412  0.3899
  540MOL0     H72898   0.280   2.647   9.413  2.1338  1.3343  0.4293
  540MOL0     H72899   0.198   2.508   9.486 -0.1722  1.2953  0.1575
  540MOL0     H72900   0.336   2.585   9.567  0.4499  1.0244 -0.4854
  541MOL0     O72901   7.976   0.826  10.946  0.0992  0.1875 -0.0218
  541MOL0     C72902   7.887   0.743  10.930 -1.1801  0.2007 -0.1169
  541MOL0     O72903   7.846   0.655  11.025  0.0745 -0.7253  0.1983
  541MOL0     C72904   7.903   0.630  11.151 -0.4436  0.0951 -0.8984
  541MOL0     C72905   8.031   0.666  11.196  1.2507 -0.6412  0.4907
  541MOL0     C72906   8.079   0.634  11.326  0.5077 -0.9227  0.5009
  541MOL0     C72907   7.998   0.561  11.407 -0.2087  0.4017  0.2659
  541MOL0     O72908   8.031   0.509  11.527  0.3689  0.8051 -0.1056
  541MOL0     C72909   8.171   0.519  11.560  0.2224  0.8285  0.5549
  541MOL0     C72910   8.186   0.449  11.690 -0.6244 -0.6406 -0.1903
  541MOL0     C72911   8.322   0.468  11.750  0.1154 -0.5330  0.3724
  541MOL0     C72912   8.344   0.391  11.879 -0.4830 -0.3702 -0.3147
  541MOL0     C72913   8.473   0.434  11.955  0.0771 -0.0326 -0.1726
  541MOL0     C72914   8.603   0.442  11.866  0.6599  0.2494 -0.0276
  541MOL0     C72915   8.640   0.304  11.803 -0.2471 -0.0203  0.1579
  541MOL0     C72916   8.763   0.322  11.718  0.3221  1.7093  0.8065
  541MOL0     N72917   8.884   0.322  11.795 -0.3201  1.1390 -0.1008
  541MOL0     C72918   8.930   0.222  11.869 -0.5457  1.2072 -0.5405
  541MOL0     C72919   9.031   0.276  11.935 -0.0575 -0.3536  0.5542
  541MOL0     C72920   9.111   0.235  12.053 -0.3780  1.2658 -0.4031
  541MOL0     C72921   9.069   0.312  12.177 -0.1289 -0.4528  0.8362
  541MOL0     C72922   9.177   0.402  12.237 -0.9899 -0.2068  0.2740
  541MOL0     C72923   9.286   0.324  12.308  0.6803 -0.1965 -0.5276
  541MOL0     O72924   9.365   0.408  12.398  0.5920  0.8090  0.1159
  541MOL0     C72925   9.486   0.453  12.359 -0.7439 -0.4391  0.3135
  541MOL0     C72926   9.507   0.590  12.360 -0.3906 -0.2785 -0.2209
  541MOL0     C72927   9.622   0.652  12.304  0.5467 -0.0164 -0.3268
  541MOL0     C72928   9.720   0.573  12.249 -0.2344  0.5829 -0.1488
  541MOL0     C72929   9.851   0.647  12.215 -1.0037 -0.9899  0.3075
  541MOL0     O72930   9.935   0.595  12.114 -0.1002 -0.8725 -0.2802
  541MOL0     C72931  10.058   0.647  12.101 -0.2446 -0.4930  1.3499
  541MOL0     C72932  10.171   0.596  12.160 -0.8307  0.5310  0.1883
  541MOL0     C72933  10.296   0.651  12.143  0.4534  0.3306 -0.2409
  541MOL0     C72934  10.324   0.746  12.042  0.9015  0.0631  0.3554
  541MOL0     O72935  10.447   0.802  12.014 -0.0193 -0.0537  0.6462
  541MOL0     C72936  10.464   0.941  12.064  0.5332  0.3415  0.1749
  541MOL0     C72937  10.599   0.988  12.018  0.1964  0.0091  0.3555
  541MOL0     C72938  10.611   1.137  12.063  0.8205 -0.5540  0.3054
  541MOL0     C72939  10.766   1.181  12.046 -0.0757 -0.0926 -0.5812
  541MOL0     C72940  10.783   1.330  12.085 -0.4848 -0.1511 -0.3270
  541MOL0     C72941  10.932   1.364  12.087 -0.3655 -0.7451  1.0310
  541MOL0     C72942  10.997   1.413  11.956 -0.4843  0.4426  0.6638
  541MOL0     C72943  11.149   1.420  11.948 -0.7457  0.4756 -0.2586
  541MOL0    Cl72944  11.199   1.442  11.778  0.0048  0.1892  0.1724
  541MOL0     C72945  10.212   0.788  11.968  0.9889  0.1061  0.5949
  541MOL0     C72946  10.079   0.750  12.008  0.0484 -0.0982  0.6546
  541MOL0     O72947   9.872   0.755  12.281 -0.7852 -0.0470  0.2538
  541MOL0     C72948   9.707   0.428  12.253  0.8521 -0.1714 -0.0353
  541MOL0     C72949   9.586   0.375  12.298 -0.7526  0.0345 -0.1602
  541MOL0     N72950   9.062   0.402  11.868 -0.6846 -1.2134  0.1102
  541MOL0     N72951   8.972   0.422  11.791 -0.3413  0.2968 -0.3687
  541MOL0     C72952   7.863   0.531  11.370 -0.4307  0.1165 -0.6203
  541MOL0     C72953   7.821   0.559  11.243 -0.3586  0.3703  0.0394
  541MOL0     C72954   7.818   0.741  10.803  0.7952  0.4449 -0.2120
  541MOL0     C72955   7.693   0.677  10.780  0.2941  0.4533 -0.0669
  541MOL0     C72956   7.628   0.667  10.655 -0.2000 -0.6507 -0.0240
  541MOL0     C72957   7.681   0.720  10.545  0.6688  0.4025 -0.1463
  541MOL0     O72958   7.631   0.711  10.428  0.1820  0.0435 -0.0551
  541MOL0     C72959   7.627   0.576  10.383  0.2511  0.1626 -0.6987
  541MOL0     C72960   7.531   0.577  10.260 -0.6943 -0.2156  0.5101
  541MOL0     C72961   7.511   0.450  10.185 -0.6143  0.2345 -0.5689
  541MOL0     C72962   7.646   0.390  10.130 -0.2086 -0.8518  0.8146
  541MOL0     C72963   7.708   0.485  10.030  0.3512  0.8140  0.5774
  541MOL0     C72964   7.762   0.555   9.948 -0.1636  0.1313  0.9716
  541MOL0     C72965   7.815   0.772  10.552 -0.1604  0.5237 -1.3630
  541MOL0     C72966   7.877   0.789  10.681  0.0826 -0.5355 -0.4865
  541MOL0     C72967   8.000   0.872  10.673 -0.0678 -1.3018  0.5908
  541MOL0     H72968   8.099   0.732  11.144 -1.8520  2.4041 -0.0941
  541MOL0     H72969   8.180   0.663  11.351  0.2749 -0.1146  0.5283
  541MOL0     H72970   8.232   0.466  11.486  1.6479  4.0378 -0.7473
  541MOL0     H72971   8.199   0.624  11.564  0.6084  1.4120 -6.3595
  541MOL0     H72972   8.157   0.344  11.682 -0.2998 -1.2525  4.2504
  541MOL0     H72973   8.121   0.497  11.764 -0.3973  2.5042 -1.8676
  541MOL0     H72974   8.330   0.565  11.800  2.7526 -1.0137  1.0885
  541MOL0     H72975   8.400   0.455  11.674 -0.6164  0.0190 -0.4847
  541MOL0     H72976   8.269   0.410  11.956  0.5393 -1.2146  0.9302
  541MOL0     H72977   8.346   0.282  11.872  1.1694 -0.4905  1.3990
  541MOL0     H72978   8.460   0.534  11.997  1.1759  1.5804 -3.2996
  541MOL0     H72979   8.484   0.365  12.040 -2.6265 -4.7527 -3.1614
  541MOL0     H72980   8.586   0.509  11.781  0.2519  0.7297  0.4280
  541MOL0     H72981   8.686   0.482  11.925  0.6741 -3.3035  2.6721
  541MOL0     H72982   8.558   0.269  11.740 -2.1817 -1.3092  3.1822
  541MOL0     H72983   8.662   0.223  11.873  3.2470  0.6714  0.0704
  541MOL0     H72984   8.763   0.246  11.640 -2.3577  4.1899 -1.8985
  541MOL0     H72985   8.746   0.414  11.661 -1.0351 -0.7688 -3.2782
  541MOL0     H72986   8.883   0.125  11.888 -1.2017  1.3285 -1.4880
  541MOL0     H72987   9.094   0.133  12.087 -3.2678  1.7403 -0.1735
  541MOL0     H72988   9.215   0.243  12.021 -0.4882 -2.0599 -2.0494
  541MOL0     H72989   8.974   0.366  12.181 -0.4926 -0.5454 -2.7611
  541MOL0     H72990   9.043   0.235  12.249 -0.6052 -0.6262  0.4808
  541MOL0     H72991   9.120   0.461  12.309 -1.9310  0.6879 -1.1484
  541MOL0     H72992   9.220   0.474  12.166 -2.7047  4.4728  3.4704
  541MOL0     H72993   9.340   0.269  12.231  0.1283  0.6835 -1.5711
  541MOL0     H72994   9.246   0.238  12.362 -0.1831  0.9767  0.7698
  541MOL0     H72995   9.441   0.657  12.415  0.3985  1.3700 -1.1763
  541MOL0     H72996   9.625   0.760  12.317  0.1581 -0.1217  0.6583
  541MOL0     H72997  10.138   0.513  12.223  1.6072  0.4607  1.5078
  541MOL0     H72998  10.382   0.621  12.202 -0.6918 -1.6024  0.5273
  541MOL0     H72999  10.378   1.001  12.033 -1.3964 -2.2765  0.1007
  541MOL0     H73000  10.457   0.932  12.173 -1.1374 -1.2022  0.0005
  541MOL0     H73001  10.676   0.931  12.072  0.6965  0.0895 -0.2636
  541MOL0     H73002  10.609   0.972  11.910 -1.5418 -1.5407  0.3707
  541MOL0     H73003  10.541   1.199  12.005  0.2412 -2.3449 -1.0134
  541MOL0     H73004  10.586   1.141  12.169  1.5045  2.5111  0.4224
  541MOL0     H73005  10.796   1.162  11.942  1.5818 -2.9618  0.3296
  541MOL0     H73006  10.835   1.122  12.106  1.9212  0.1314 -2.5164
  541MOL0     H73007  10.746   1.341  12.186  1.1234 -0.3903  0.3267
  541MOL0     H73008  10.732   1.397  12.015  1.7712  2.2289  0.1673
  541MOL0     H73009  10.949   1.454  12.147  2.8834 -0.2104 -0.4934
  541MOL0     H73010  10.997   1.285  12.124  3.1197  0.5383 -1.8121
  541MOL0     H73011  10.958   1.512  11.928  0.3529  0.9105  1.0951
  541MOL0     H73012  10.968   1.338  11.883  2.5406  0.9709 -1.2573
  541MOL0     H73013  11.192   1.507  11.999  1.1170 -0.7304  0.3285
  541MOL0     H73014  11.187   1.327  11.990 -2.9536 -1.1497 -1.6138
  541MOL0     H73015  10.225   0.859  11.886 -0.8508 -2.1708 -1.8649
  541MOL0     H73016   9.998   0.790  11.948  1.1950  1.4193  0.0577
  541MOL0     H73017   9.786   0.362  12.219 -0.0560  0.4450 -3.8104
  541MOL0     H73018   9.566   0.271  12.275  0.2424  0.2423 -2.2741
  541MOL0     H73019   7.796   0.485  11.442  1.4073  0.4510  1.4240
  541MOL0     H73020   7.720   0.526  11.220 -0.0620 -2.8001  2.6556
  541MOL0     H73021   7.643   0.631  10.864  0.9387  0.0011  0.0830
  541MOL0     H73022   7.533   0.614  10.661  0.2572 -1.4122  0.7282
  541MOL0     H73023   7.577   0.509  10.453  2.0507 -0.6940 -0.1756
  541MOL0     H73024   7.726   0.537  10.362 -0.0532 -1.5448  0.8017
  541MOL0     H73025   7.576   0.647  10.190  1.0001 -1.0252  0.7141
  541MOL0     H73026   7.432   0.606  10.295 -0.5701  0.8113  0.0308
  541MOL0     H73027   7.428   0.459  10.114 -1.5514 -0.4367  0.4102
  541MOL0     H73028   7.470   0.374  10.252 -0.9424  1.6555  0.9077
  541MOL0     H73029   7.707   0.367  10.218 -0.4056 -1.9857  0.6740
  541MOL0     H73030   7.627   0.292  10.085 -3.5016 -1.1314  2.4693
  541MOL0     H73031   7.812   0.595   9.862 -1.4812 -3.3161 -1.6341
  541MOL0     H73032   7.862   0.806  10.460  1.6534  0.6174 -0.4344
  541MOL0     H73033   8.038   0.873  10.571 -3.3295  3.2097 -0.9146
  541MOL0     H73034   7.988   0.977  10.701 -2.4431 -1.1377 -0.8426
  541MOL0     H73035   8.080   0.828  10.734 -0.1174 -1.3330  0.6340
  542MOL0     O73036   6.617   2.500   5.508  0.7550  0.4716 -0.1154
  542MOL0     C73037   6.556   2.595   5.549  0.2635  0.4904  0.3256
  542MOL0     O73038   6.588   2.667   5.653 -0.5628  0.0022 -0.0861
  542MOL0     C73039   6.673   2.620   5.743  0.4995 -0.1848  0.8129
  542MOL0     C73040   6.795   2.674   5.752  0.3839  0.5059 -0.0854
  542MOL0     C73041   6.890   2.628   5.843 -0.3323  0.6327  0.8279
  542MOL0     C73042   6.859   2.516   5.926  0.1794  0.0408 -0.4462
  542MOL0     O73043   6.961   2.466   6.005  0.1258 -0.1015  0.1285
  542MOL0     C73044   6.902   2.398   6.128 -0.4316 -0.4828  0.2293
  542MOL0     C73045   7.008   2.385   6.239 -0.4089  0.7979  0.8537
  542MOL0     C73046   7.069   2.240   6.238 -0.1055  0.6709  0.7643
  542MOL0     C73047   7.137   2.210   6.377  0.4969 -0.5725  0.7307
  542MOL0     C73048   7.191   2.071   6.365 -1.1364  0.8839 -0.2494
  542MOL0     C73049   7.260   2.033   6.495  0.5969  0.2191  0.5609
  542MOL0     C73050   7.385   2.119   6.532 -0.3978  0.1211 -0.0723
  542MOL0     C73051   7.496   2.132   6.426 -0.8977  0.8431  0.4521
  542MOL0     N73052   7.623   2.180   6.479 -1.3668 -0.5210  0.0645
  542MOL0     C73053   7.641   2.272   6.575  0.1515  0.2315 -0.1421
  542MOL0     C73054   7.774   2.279   6.602  0.2718 -0.3748  0.3465
  542MOL0     C73055   7.837   2.380   6.693 -0.4247  1.0847 -0.3133
  542MOL0     C73056   7.987   2.364   6.696 -0.0931  0.0801  0.6772
  542MOL0     C73057   8.051   2.492   6.736  0.0173 -0.7177  0.6072
  542MOL0     C73058   8.198   2.464   6.772 -0.6257 -0.2151  0.0476
  542MOL0     O73059   8.261   2.585   6.790 -0.6006  0.4707  0.5064
  542MOL0     C73060   8.361   2.585   6.889  0.2831 -0.5111 -0.5360
  542MOL0     C73061   8.474   2.661   6.855  0.5089 -0.5035  0.3648
  542MOL0     C73062   8.585   2.650   6.935  0.5986  0.7655 -0.9190
  542MOL0     C73063   8.578   2.581   7.066 -0.3335  0.4664  0.5247
  542MOL0     C73064   8.698   2.572   7.144 -0.3938  0.1059 -0.2459
  542MOL0     O73065   8.813   2.609   7.089 -0.6638 -0.5082 -0.1351
  542MOL0     C73066   8.936   2.593   7.152  0.5396 -1.1238 -1.3845
  542MOL0     C73067   9.043   2.548   7.078  0.0745  0.0251  0.1006
  542MOL0     C73068   9.165   2.522   7.150  0.1660 -0.2480 -0.4967
  542MOL0     C73069   9.191   2.543   7.291 -0.2773  0.3365 -0.4974
  542MOL0     O73070   9.323   2.545   7.347  0.7251 -0.6183  0.2216
  542MOL0     C73071   9.331   2.469   7.469  0.4289  0.0990 -0.5165
  542MOL0     C73072   9.436   2.362   7.445  0.2791 -0.1180  0.1437
  542MOL0     C73073   9.453   2.273   7.563 -0.2557 -0.0498 -1.4965
  542MOL0     C73074   9.572   2.174   7.541  0.3410  0.1063 -0.3958
  542MOL0     C73075   9.586   2.078   7.656 -0.7788 -0.3612 -0.0183
  542MOL0     C73076   9.476   1.956   7.650  0.6642 -0.3723  0.7026
  542MOL0     C73077   9.548   1.836   7.712 -0.0267  0.2484  0.3401
  542MOL0     C73078   9.600   1.755   7.595 -0.4344 -0.0711 -0.3036
  542MOL0    Cl73079   9.711   1.638   7.655 -0.1832  0.3707  0.3149
  542MOL0     C73080   9.078   2.578   7.361  0.6673  0.4737  0.3314
  542MOL0     C73081   8.952   2.602   7.296  0.3328 -0.2278 -0.1727
  542MOL0     O73082   8.674   2.541   7.263  0.1500  0.2574 -0.2053
  542MOL0     C73083   8.463   2.506   7.094  0.2164  0.1919 -1.4029
  542MOL0     C73084   8.355   2.505   7.003  0.2085 -0.1490 -1.4745
  542MOL0     N73085   7.840   2.185   6.526  0.1358  0.1360  0.5658
  542MOL0     N73086   7.754   2.133   6.446 -0.2586  0.8212 -0.3786
  542MOL0     C73087   6.730   2.457   5.914 -0.7825  1.1091  0.0197
  542MOL0     C73088   6.640   2.511   5.819  0.0570 -0.0471 -0.9326
  542MOL0     C73089   6.435   2.635   5.471 -0.5950 -0.4151 -0.3978
  542MOL0     C73090   6.415   2.769   5.456 -0.0073 -1.0798  0.2325
  542MOL0     C73091   6.311   2.823   5.375 -0.1689  0.0048 -0.3307
  542MOL0     C73092   6.219   2.736   5.314 -0.6777  0.2681 -0.3680
  542MOL0     O73093   6.114   2.791   5.241 -0.1845  0.6018 -0.5853
  542MOL0     C73094   6.054   2.695   5.140  0.4319  0.5898 -0.5625
  542MOL0     C73095   6.163   2.638   5.037 -0.2252 -0.3363 -0.0746
  542MOL0     C73096   6.101   2.624   4.891 -0.1556  0.2498 -1.0169
  542MOL0     C73097   6.003   2.503   4.884 -0.4357 -0.5159 -0.5916
  542MOL0     C73098   5.965   2.488   4.742 -1.2396 -0.4386  0.2530
  542MOL0     C73099   5.963   2.467   4.619  0.2142  0.9278  0.5857
  542MOL0     C73100   6.241   2.594   5.341 -0.2819 -0.1554  0.2343
  542MOL0     C73101   6.342   2.542   5.421 -0.0976  0.3108  0.2064
  542MOL0     C73102   6.347   2.393   5.442  0.5348 -1.3551  0.8800
  542MOL0     H73103   6.820   2.749   5.677 -1.7881  3.7328  2.1431
  542MOL0     H73104   6.986   2.679   5.839 -0.6459  1.1595 -0.6717
  542MOL0     H73105   6.824   2.459   6.173 -0.7654 -0.7237 -0.0198
  542MOL0     H73106   6.869   2.298   6.096  1.5559 -1.1443  0.0869
  542MOL0     H73107   6.982   2.412   6.342 -0.4496 -1.2442  1.4229
  542MOL0     H73108   7.094   2.443   6.205 -1.3655  0.6747 -2.0204
  542MOL0     H73109   7.150   2.227   6.166  1.8500 -1.2032  3.1192
  542MOL0     H73110   6.987   2.171   6.215 -0.2682  0.6219  1.4537
  542MOL0     H73111   7.225   2.274   6.378 -0.3186  0.6802 -1.7648
  542MOL0     H73112   7.072   2.225   6.464  1.0236  1.7311  0.7701
  542MOL0     H73113   7.117   2.000   6.327 -0.3633 -0.5766  0.8421
  542MOL0     H73114   7.273   2.069   6.293  0.5168  2.0441  1.4936
  542MOL0     H73115   7.187   2.034   6.576  1.1856  0.2251  1.1037
  542MOL0     H73116   7.295   1.930   6.486 -3.4180 -1.7649  4.2006
  542MOL0     H73117   7.431   2.089   6.626  1.7439 -1.3106 -1.4799
  542MOL0     H73118   7.351   2.221   6.554 -1.9155 -0.4295  0.2261
  542MOL0     H73119   7.500   2.027   6.395 -1.7139  1.5187 -2.2081
  542MOL0     H73120   7.467   2.187   6.336 -0.5942 -1.5616 -1.1953
  542MOL0     H73121   7.559   2.326   6.623 -0.9879 -3.1150  2.0463
  542MOL0     H73122   7.812   2.479   6.652 -0.5548  1.7964  1.4204
  542MOL0     H73123   7.806   2.373   6.797 -0.2194  3.7376 -0.0100
  542MOL0     H73124   8.008   2.285   6.769 -1.1316 -0.8106  0.0346
  542MOL0     H73125   8.019   2.339   6.595 -2.3844  2.3786 -0.7551
  542MOL0     H73126   8.028   2.531   6.836  2.7992 -0.1499  1.0851
  542MOL0     H73127   8.044   2.567   6.657 -0.3007  1.6477  2.7375
  542MOL0     H73128   8.246   2.423   6.683 -2.1199  0.6875 -1.2409
  542MOL0     H73129   8.206   2.386   6.848 -4.1234  0.2113  1.0397
  542MOL0     H73130   8.461   2.736   6.778 -1.4853  0.4148  1.4990
  542MOL0     H73131   8.675   2.704   6.911  0.4039  0.7044 -1.8112
  542MOL0     H73132   9.034   2.533   6.971 -0.6768  1.4460 -0.0518
  542MOL0     H73133   9.256   2.491   7.100 -0.5819 -1.7066 -1.0155
  542MOL0     H73134   9.355   2.533   7.555 -4.3546  3.2991 -1.2247
  542MOL0     H73135   9.239   2.414   7.492  2.0705 -2.4549  0.4589
  542MOL0     H73136   9.414   2.296   7.361 -1.8141 -0.9347  1.2639
  542MOL0     H73137   9.530   2.416   7.428  2.8201 -3.6074  1.9073
  542MOL0     H73138   9.482   2.338   7.646 -1.8933  0.7006 -1.4849
  542MOL0     H73139   9.363   2.221   7.599  1.8341 -1.5370  2.2283
  542MOL0     H73140   9.666   2.229   7.532  1.9578 -2.5672 -1.0972
  542MOL0     H73141   9.553   2.118   7.449  0.8326 -4.4962  1.9678
  542MOL0     H73142   9.600   2.138   7.745  2.0279 -0.9421  0.0155
  542MOL0     H73143   9.680   2.025   7.636 -0.8954 -0.4063 -0.4654
  542MOL0     H73144   9.384   1.977   7.706 -1.1464 -3.2206 -0.9340
  542MOL0     H73145   9.448   1.933   7.547 -0.8005 -1.9115  1.3911
  542MOL0     H73146   9.469   1.786   7.769 -0.8551  4.6340  3.6470
  542MOL0     H73147   9.626   1.867   7.782  0.8658 -1.7370  0.2653
  542MOL0     H73148   9.527   1.689   7.546 -1.0175 -2.4799  3.4419
  542MOL0     H73149   9.639   1.827   7.522 -4.0088  1.2623 -1.1032
  542MOL0     H73150   9.088   2.604   7.466  0.0839 -2.3678  1.1667
  542MOL0     H73151   8.871   2.625   7.365 -0.7583 -0.4480 -1.3449
  542MOL0     H73152   8.457   2.449   7.187  2.8038  4.4352  1.7496
  542MOL0     H73153   8.268   2.447   7.032  0.5375  0.2264  0.4063
  542MOL0     H73154   6.712   2.363   5.964  2.8957  0.1786 -0.1190
  542MOL0     H73155   6.547   2.456   5.805  1.5604 -3.0548  0.1103
  542MOL0     H73156   6.476   2.842   5.507 -0.7866 -0.1064 -0.1822
  542MOL0     H73157   6.309   2.931   5.368  0.7473  0.2695  2.2065
  542MOL0     H73158   5.986   2.763   5.088  0.6509 -1.0293 -3.1463
  542MOL0     H73159   5.992   2.619   5.187  0.3813 -0.5573 -2.4146
  542MOL0     H73160   6.193   2.535   5.062 -0.5531 -0.8021 -1.4998
  542MOL0     H73161   6.245   2.709   5.031 -1.2159  0.8337 -0.0843
  542MOL0     H73162   6.178   2.584   4.824  0.6829 -2.3603  1.3130
  542MOL0     H73163   6.051   2.716   4.859  0.8327  1.2625  0.2237
  542MOL0     H73164   6.053   2.416   4.928  4.0228  1.5138 -1.0766
  542MOL0     H73165   5.915   2.533   4.942  0.9895 -2.4364  2.8525
  542MOL0     H73166   5.977   2.451   4.514  3.0645  2.2681  0.6588
  542MOL0     H73167   6.181   2.521   5.287  2.8106  0.1169 -4.0373
  542MOL0     H73168   6.256   2.340   5.411  1.8928 -2.0427 -2.2560
  542MOL0     H73169   6.419   2.356   5.369 -0.1017 -1.0363  0.0615
  542MOL0     H73170   6.385   2.363   5.539  2.5921 -0.0035  0.5501
  543MOL0     O73171   7.511   5.797  10.680 -0.3971  0.5541 -0.3185
  543MOL0     C73172   7.475   5.858  10.582  0.7803  0.7247  0.1592
  543MOL0     O73173   7.463   5.994  10.583 -0.3301 -0.5235 -0.6776
  543MOL0     C73174   7.516   6.064  10.687 -0.0996 -0.3474  0.9158
  543MOL0     C73175   7.640   6.035  10.747 -0.0229 -0.2435 -0.8252
  543MOL0     C73176   7.685   6.118  10.855  0.0786  0.1033  0.0893
  543MOL0     C73177   7.608   6.223  10.903 -0.5019 -0.0495  0.1687
  543MOL0     O73178   7.662   6.292  11.007  0.4756 -0.5311  0.1263
  543MOL0     C73179   7.653   6.433  11.008 -0.3751  0.1201  0.6496
  543MOL0     C73180   7.748   6.472  11.115 -0.0189  0.1157  0.5764
  543MOL0     C73181   7.746   6.621  11.141  0.1844 -0.5911  0.8541
  543MOL0     C73182   7.793   6.646  11.282  0.6762 -0.2108 -0.5263
  543MOL0     C73183   7.802   6.802  11.302  0.3798 -0.3658 -0.2083
  543MOL0     C73184   7.934   6.850  11.250 -0.4138 -0.1616 -0.1477
  543MOL0     C73185   7.939   7.003  11.242  0.2836  0.1320  1.0888
  543MOL0     C73186   8.064   7.042  11.168 -0.6434 -0.5274  0.5476
  543MOL0     N73187   8.156   7.087  11.274 -0.0823  0.4265  0.4920
  543MOL0     C73188   8.199   7.222  11.281  0.2674  0.3159 -0.7889
  543MOL0     C73189   8.319   7.215  11.350  0.0802  0.1463  0.6804
  543MOL0     C73190   8.405   7.338  11.385 -0.0645 -0.0187  0.1039
  543MOL0     C73191   8.380   7.379  11.518  0.2512 -0.3586  0.6758
  543MOL0     C73192   8.437   7.274  11.617  0.2558  0.0230  0.3578
  543MOL0     C73193   8.494   7.342  11.743 -0.7263  0.2761  0.3629
  543MOL0     O73194   8.398   7.381  11.839 -0.3131 -0.2243  0.4141
  543MOL0     C73195   8.444   7.406  11.962 -0.0076  0.3724 -0.2767
  543MOL0     C73196   8.580   7.398  12.000  0.0335  0.2674 -0.5664
  543MOL0     C73197   8.622   7.450  12.120 -0.6278 -0.4188 -0.3369
  543MOL0     C73198   8.529   7.498  12.215 -1.1615  0.4963 -0.8130
  543MOL0     C73199   8.580   7.522  12.353  0.2642 -0.2854 -0.2838
  543MOL0     O73200   8.716   7.532  12.367 -0.3114  0.5460  0.6039
  543MOL0     C73201   8.766   7.585  12.484 -0.1311  0.0601  0.0582
  543MOL0     C73202   8.730   7.527  12.612  0.4960 -0.2491  0.1183
  543MOL0     C73203   8.795   7.571  12.725  1.9000 -0.4111  1.0798
  543MOL0     C73204   8.879   7.681  12.725  0.8920 -0.2043 -1.0035
  543MOL0     O73205   8.927   7.745  12.838 -0.8789 -0.3400 -0.3587
  543MOL0     C73206   8.904   7.703  12.972  0.4912  0.2849 -0.4571
  543MOL0     C73207   8.992   7.590  13.024  0.1994  0.6313  0.1476
  543MOL0     C73208   8.913   7.496  13.113  0.0784  0.4062 -0.8086
  543MOL0     C73209   9.002   7.410  13.205  0.2951 -0.0641 -0.9870
  543MOL0     C73210   9.058   7.282  13.140  0.4051  0.4306 -0.2891
  543MOL0     C73211   9.121   7.206  13.252  0.3763  0.1783  0.8207
  543MOL0     C73212   9.245   7.280  13.318  0.3352 -0.4242  0.0119
  543MOL0     C73213   9.322   7.187  13.425  0.2035  0.0548 -0.5628
  543MOL0    Cl73214   9.216   7.162  13.573  0.0867 -0.4559 -0.1584
  543MOL0     C73215   8.912   7.739  12.604  0.7223  0.1274 -0.0526
  543MOL0     C73216   8.867   7.682  12.481 -0.1646 -0.2365 -0.1147
  543MOL0     O73217   8.490   7.550  12.432 -0.0451 -0.1255  1.2369
  543MOL0     C73218   8.397   7.508  12.181  0.0457 -0.0487  0.2521
  543MOL0     C73219   8.356   7.460  12.053  0.2991  0.0682  0.3400
  543MOL0     N73220   8.335   7.083  11.386  0.3418  0.2377 -0.7903
  543MOL0     N73221   8.248   7.007  11.333  0.2730  0.3347 -0.1748
  543MOL0     C73222   7.481   6.247  10.844 -0.0138  0.0686 -0.0357
  543MOL0     C73223   7.432   6.161  10.743 -0.5280  0.5213 -0.7310
  543MOL0     C73224   7.439   5.776  10.459  0.7948 -1.0610 -0.1947
  543MOL0     C73225   7.454   5.640  10.456  0.1447 -0.4700  0.2183
  543MOL0     C73226   7.402   5.557  10.364  0.0034 -0.9407  0.4911
  543MOL0     C73227   7.344   5.602  10.248  0.7510  0.1644  0.9474
  543MOL0     O73228   7.302   5.528  10.138  0.7554  0.2823 -0.6928
  543MOL0     C73229   7.294   5.379  10.152 -1.6038 -0.5480 -0.0285
  543MOL0     C73230   7.238   5.308  10.023 -0.0888  0.8886  0.2010
  543MOL0     C73231   7.248   5.162  10.033 -1.1129 -0.2212 -0.2558
  543MOL0     C73232   7.181   5.097  10.148 -0.1803  1.1188 -0.4913
  543MOL0     C73233   7.037   5.124  10.158  0.4314 -0.1980 -0.1819
  543MOL0     C73234   6.913   5.141  10.181 -0.0859  0.2019  0.5415
  543MOL0     C73235   7.328   5.740  10.245 -0.5122 -0.1455 -0.5924
  543MOL0     C73236   7.376   5.830  10.344 -0.4159 -0.3090  0.4956
  543MOL0     C73237   7.361   5.980  10.314 -0.0236 -0.0908 -0.3962
  543MOL0     H73238   7.698   5.952  10.708 -1.7899 -1.6450 -0.5940
  543MOL0     H73239   7.779   6.102  10.906 -0.6591  0.6693  1.7072
  543MOL0     H73240   7.679   6.477  10.911  0.0665 -2.2683 -0.3747
  543MOL0     H73241   7.557   6.453  11.055  0.4933 -0.7957  2.9806
  543MOL0     H73242   7.851   6.445  11.089  0.8777  2.2984  1.5350
  543MOL0     H73243   7.719   6.417  11.205  0.2846 -1.4898 -0.2650
  543MOL0     H73244   7.650   6.670  11.129  2.4767  4.0211 -1.2363
  543MOL0     H73245   7.806   6.670  11.063 -1.0129  0.8788  0.8119
  543MOL0     H73246   7.709   6.603  11.337 -0.9963 -0.6103 -3.2161
  543MOL0     H73247   7.884   6.590  11.307  0.0687 -1.3376 -0.7829
  543MOL0     H73248   7.727   6.856  11.245  0.6222  2.0677  1.6209
  543MOL0     H73249   7.794   6.824  11.409  2.4017 -0.1931 -0.0437
  543MOL0     H73250   8.017   6.815  11.311 -0.9760 -1.8007 -0.2588
  543MOL0     H73251   7.947   6.816  11.147 -0.4353  1.4634 -0.7090
  543MOL0     H73252   7.934   7.043  11.344 -0.7634  5.2776 -0.7088
  543MOL0     H73253   7.857   7.053  11.190  1.2447 -0.1489 -0.7901
  543MOL0     H73254   8.108   6.960  11.110  1.8131  0.5833  0.7029
  543MOL0     H73255   8.055   7.122  11.094  0.5226  0.2540  1.2299
  543MOL0     H73256   8.148   7.314  11.255 -2.8192 -1.0586 -0.1612
  543MOL0     H73257   8.513   7.326  11.380 -0.1418 -0.2651 -1.5038
  543MOL0     H73258   8.380   7.409  11.306 -0.3120 -3.4296 -3.1997
  543MOL0     H73259   8.436   7.471  11.539  0.3791  0.6002 -3.2120
  543MOL0     H73260   8.275   7.402  11.538  0.4069  1.3516 -0.2212
  543MOL0     H73261   8.516   7.214  11.570  0.6002 -0.5178  1.5749
  543MOL0     H73262   8.359   7.201  11.641 -0.3480  1.1710  2.0413
  543MOL0     H73263   8.556   7.429  11.717 -0.5027  0.1453  0.4513
  543MOL0     H73264   8.548   7.254  11.780  0.0164 -0.1987 -1.7384
  543MOL0     H73265   8.656   7.346  11.942 -0.8215 -2.0911  0.3198
  543MOL0     H73266   8.727   7.438  12.143  0.1556  1.2395 -2.7157
  543MOL0     H73267   8.661   7.443  12.623  1.2132 -0.8871 -0.1810
  543MOL0     H73268   8.768   7.523  12.819 -0.0950  0.6239  1.0985
  543MOL0     H73269   8.929   7.786  13.038  0.9676 -1.3753  1.5728
  543MOL0     H73270   8.797   7.686  12.987  0.0118  2.7554 -0.6377
  543MOL0     H73271   9.031   7.537  12.937 -0.5961 -1.4977  1.0343
  543MOL0     H73272   9.081   7.629  13.074  0.3137 -0.4517  0.8260
  543MOL0     H73273   8.841   7.545  13.179  0.6447  0.4608 -0.2227
  543MOL0     H73274   8.858   7.428  13.048 -0.5984  1.3637 -1.2565
  543MOL0     H73275   8.942   7.379  13.291 -1.7430  0.1895 -2.2328
  543MOL0     H73276   9.080   7.467  13.256 -1.4831  0.9611  0.7266
  543MOL0     H73277   9.131   7.311  13.064  0.9292  3.6178  1.2608
  543MOL0     H73278   8.972   7.228  13.099 -0.1134  2.3821 -1.9397
  543MOL0     H73279   9.049   7.176  13.328  1.0031 -1.7480  0.7131
  543MOL0     H73280   9.162   7.114  13.209  4.4005  1.3904  1.6318
  543MOL0     H73281   9.208   7.364  13.377  1.3818  0.6959 -0.8674
  543MOL0     H73282   9.310   7.317  13.238 -1.7275  0.0885 -1.4854
  543MOL0     H73283   9.344   7.091  13.377  0.7096  0.7358 -1.7256
  543MOL0     H73284   9.420   7.229  13.449 -1.6700  3.0334  2.7187
  543MOL0     H73285   8.974   7.828  12.610  1.5148 -0.4566  0.9549
  543MOL0     H73286   8.908   7.709  12.384 -1.1987  3.6082  0.3306
  543MOL0     H73287   8.337   7.568  12.249  0.5636  2.1816 -1.1624
  543MOL0     H73288   8.256   7.471  12.011  0.4301 -1.5906 -0.4971
  543MOL0     H73289   7.420   6.326  10.889  0.2871  0.1403  0.2505
  543MOL0     H73290   7.329   6.173  10.710  0.2596  2.9006 -2.6619
  543MOL0     H73291   7.504   5.586  10.536 -1.9170 -2.4438  0.2682
  543MOL0     H73292   7.418   5.454  10.395  0.5815 -0.4221  1.9865
  543MOL0     H73293   7.242   5.358  10.247 -1.0945  0.5651  0.5155
  543MOL0     H73294   7.393   5.335  10.160 -0.3337  1.5546 -2.6256
  543MOL0     H73295   7.300   5.333   9.937 -1.7859 -1.2450 -1.7917
  543MOL0     H73296   7.134   5.335  10.003  0.5526  2.1001 -1.7189
  543MOL0     H73297   7.356   5.144  10.040 -0.9177  0.5143 -1.1055
  543MOL0     H73298   7.231   5.126   9.931 -3.3024 -0.1688  0.0336
  543MOL0     H73299   7.206   4.990  10.155  0.7335  1.2750 -1.1783
  543MOL0     H73300   7.239   5.137  10.232  0.5533 -0.6030 -0.1221
  543MOL0     H73301   6.810   5.161  10.200 -0.7650 -3.7170  1.8582
  543MOL0     H73302   7.268   5.771  10.160  0.3396 -0.1476 -1.2015
  543MOL0     H73303   7.368   6.003  10.207 -1.2103  2.5299 -0.0004
  543MOL0     H73304   7.263   6.004  10.354  0.9670  1.0854  1.4723
  543MOL0     H73305   7.436   6.045  10.362 -0.2603 -0.8038  0.9809
  544MOL0     O73306   2.955   5.970   6.949 -0.0242  0.1409  0.0012
  544MOL0     C73307   3.039   5.908   7.011 -0.1941 -1.4779 -0.0276
  544MOL0     O73308   3.130   5.831   6.953 -0.2490  0.0260 -0.0837
  544MOL0     C73309   3.125   5.799   6.818  0.1569 -0.5931 -0.2021
  544MOL0     C73310   3.089   5.884   6.706 -0.4179 -0.8066 -0.6106
  544MOL0     C73311   3.087   5.831   6.578  0.0762  0.6042  0.3524
  544MOL0     C73312   3.125   5.692   6.558  0.8428  0.2081  0.0559
  544MOL0     O73313   3.107   5.628   6.439  0.4137  0.2351  0.5494
  544MOL0     C73314   3.124   5.715   6.319  0.1691  0.1354 -0.7324
  544MOL0     C73315   3.186   5.616   6.221  0.9331 -0.7639 -0.2242
  544MOL0     C73316   3.251   5.698   6.113 -0.5644  0.1580  0.2658
  544MOL0     C73317   3.359   5.604   6.047  0.2703 -0.0819  0.1998
  544MOL0     C73318   3.410   5.643   5.911  0.1352  0.1570 -0.1404
  544MOL0     C73319   3.493   5.767   5.936 -0.0003  0.3902  0.5851
  544MOL0     C73320   3.565   5.795   5.806 -0.5565  0.9702  0.2689
  544MOL0     C73321   3.479   5.849   5.683 -0.1785  0.0458  0.5007
  544MOL0     N73322   3.401   5.967   5.733  0.2954 -0.0382 -0.2771
  544MOL0     C73323   3.456   6.087   5.780  0.9837 -0.6790 -0.2689
  544MOL0     C73324   3.354   6.163   5.819 -0.4455 -0.0228 -0.1872
  544MOL0     C73325   3.379   6.304   5.871 -0.6934 -0.0873  0.0571
  544MOL0     C73326   3.380   6.317   6.020  0.6296 -1.3711 -0.1244
  544MOL0     C73327   3.249   6.266   6.080 -0.0379 -0.4924 -0.3836
  544MOL0     C73328   3.284   6.135   6.152 -0.2039 -0.0439 -0.2771
  544MOL0     O73329   3.178   6.098   6.247  0.9078 -0.4417 -0.2311
  544MOL0     C73330   3.204   6.131   6.373  0.4313  0.4106 -0.6768
  544MOL0     C73331   3.312   6.082   6.448 -0.1010  0.2724 -0.1977
  544MOL0     C73332   3.348   6.128   6.572  0.4497  0.6928 -0.3133
  544MOL0     C73333   3.260   6.220   6.639  0.9549 -1.0888 -0.6735
  544MOL0     C73334   3.285   6.248   6.780 -0.9857  0.3796 -0.7502
  544MOL0     O73335   3.386   6.172   6.838  0.3815  0.4040 -0.7405
  544MOL0     C73336   3.410   6.201   6.972  0.5531  0.1987 -0.5381
  544MOL0     C73337   3.544   6.192   7.010  0.2183  0.3594  0.0220
  544MOL0     C73338   3.581   6.208   7.142 -0.2356 -0.0220 -0.2482
  544MOL0     C73339   3.495   6.220   7.247  0.9598 -1.1736 -0.7689
  544MOL0     O73340   3.516   6.215   7.384 -0.4680  0.6997  1.0466
  544MOL0     C73341   3.651   6.222   7.428 -0.1590 -0.3811 -0.2994
  544MOL0     C73342   3.718   6.365   7.449  0.9252 -0.1056 -0.7819
  544MOL0     C73343   3.785   6.417   7.328  0.3349 -0.6100 -0.0376
  544MOL0     C73344   3.908   6.499   7.362  0.8404 -0.2504  0.2981
  544MOL0     C73345   4.030   6.393   7.376 -0.5779 -1.0048  1.2793
  544MOL0     C73346   4.164   6.465   7.392 -0.3239  0.0035  0.4003
  544MOL0     C73347   4.191   6.585   7.290  0.5328 -0.2687  0.3388
  544MOL0     C73348   4.335   6.643   7.309  0.1661 -0.0666  0.1508
  544MOL0    Cl73349   4.365   6.793   7.221  0.5928 -0.1842 -0.5744
  544MOL0     C73350   3.365   6.210   7.216  0.0338 -0.5525  0.6136
  544MOL0     C73351   3.317   6.202   7.081 -0.0539  0.0779 -0.0118
  544MOL0     O73352   3.220   6.332   6.826  0.1259 -0.2878  0.0165
  544MOL0     C73353   3.162   6.284   6.571  0.4909 -0.5881  0.4202
  544MOL0     C73354   3.135   6.238   6.440  0.6826  0.2393  0.3262
  544MOL0     N73355   3.235   6.089   5.804  1.0896 -0.2956  0.1342
  544MOL0     N73356   3.269   5.970   5.758  0.5495 -1.0314  0.0568
  544MOL0     C73357   3.162   5.616   6.665  0.4111 -0.7171  0.2204
  544MOL0     C73358   3.160   5.666   6.798 -0.2716  0.9211 -0.1330
  544MOL0     C73359   3.033   5.928   7.163  0.1201  0.3351 -0.0628
  544MOL0     C73360   3.015   6.060   7.219  0.6148  0.1847 -0.4169
  544MOL0     C73361   3.005   6.079   7.360  0.1232  0.2028  0.0926
  544MOL0     C73362   3.019   5.972   7.448 -0.3477  0.1650 -0.4603
  544MOL0     O73363   3.017   6.010   7.583  0.3128 -0.1050 -0.4392
  544MOL0     C73364   3.010   5.907   7.678 -0.4352 -0.1936 -1.1038
  544MOL0     C73365   2.970   5.955   7.816  0.3750  0.0788 -0.7328
  544MOL0     C73366   3.082   6.045   7.873  0.6251  0.0499 -0.2969
  544MOL0     C73367   3.080   6.097   8.020 -0.8532 -0.3980  0.1923
  544MOL0     C73368   3.029   6.234   8.018 -0.3011  0.4688 -0.6565
  544MOL0     C73369   2.974   6.342   8.016  0.6270 -1.0319 -0.4560
  544MOL0     C73370   3.034   5.840   7.394 -0.2966 -1.6565  0.6270
  544MOL0     C73371   3.041   5.818   7.253  0.4102  0.2872 -0.5307
  544MOL0     C73372   3.055   5.674   7.203 -0.3583 -0.2054  0.1796
  544MOL0     H73373   3.061   5.988   6.718  2.7434  0.4476 -2.7813
  544MOL0     H73374   3.049   5.892   6.496 -1.3019 -0.7952 -0.0939
  544MOL0     H73375   3.032   5.753   6.275 -0.5612 -1.3066 -0.5116
  544MOL0     H73376   3.189   5.800   6.343  2.1870 -1.3778 -0.5496
  544MOL0     H73377   3.107   5.564   6.166 -0.0722 -0.5344  0.9553
  544MOL0     H73378   3.261   5.546   6.260 -0.2474 -2.6269 -1.1266
  544MOL0     H73379   3.293   5.790   6.155 -3.4423  1.1438  1.2037
  544MOL0     H73380   3.180   5.723   6.033  1.6439  1.0774 -1.5257
  544MOL0     H73381   3.446   5.588   6.112  2.3586 -1.2101 -2.6531
  544MOL0     H73382   3.311   5.506   6.037  0.5801 -0.2794  0.6224
  544MOL0     H73383   3.479   5.567   5.874  1.0948  2.1379 -2.7537
  544MOL0     H73384   3.334   5.650   5.833 -1.3682 -3.0990  0.8194
  544MOL0     H73385   3.439   5.854   5.977  1.9961  1.5358  0.9109
  544MOL0     H73386   3.570   5.740   6.008  1.5607  0.7898 -0.8573
  544MOL0     H73387   3.627   5.712   5.770 -1.1775  1.2477 -1.5696
  544MOL0     H73388   3.642   5.871   5.820  2.9880 -2.1223 -0.8109
  544MOL0     H73389   3.551   5.890   5.613  1.6429  0.4273  2.4963
  544MOL0     H73390   3.405   5.781   5.638 -1.8107  2.1367 -0.1245
  544MOL0     H73391   3.558   6.120   5.796  1.1893 -1.0867 -0.6976
  544MOL0     H73392   3.476   6.348   5.846 -2.5459  2.6186 -3.1186
  544MOL0     H73393   3.309   6.380   5.834  0.5118  1.6368  1.1842
  544MOL0     H73394   3.471   6.273   6.061  1.6866 -0.3768 -1.3131
  544MOL0     H73395   3.377   6.425   6.037  0.6202 -0.6776 -3.7427
  544MOL0     H73396   3.167   6.262   6.008 -0.2386 -1.9356 -0.0938
  544MOL0     H73397   3.223   6.333   6.162  2.0676  1.4675 -1.2031
  544MOL0     H73398   3.381   6.152   6.201  0.6999 -0.2646 -1.9302
  544MOL0     H73399   3.293   6.055   6.078 -1.0267 -0.3618 -0.0416
  544MOL0     H73400   3.378   6.017   6.390 -0.1693  3.0372 -3.6775
  544MOL0     H73401   3.437   6.095   6.625  0.1013  1.0107  0.4761
  544MOL0     H73402   3.601   6.185   6.918 -0.8716 -2.4726 -0.5287
  544MOL0     H73403   3.686   6.215   7.168 -0.4112  1.9438  0.0507
  544MOL0     H73404   3.655   6.182   7.531  0.2125  1.0301  0.2511
  544MOL0     H73405   3.709   6.162   7.357 -3.5344 -2.6744 -1.4084
  544MOL0     H73406   3.647   6.435   7.493  0.8897 -0.7552  0.2181
  544MOL0     H73407   3.802   6.342   7.516  1.2913  0.1409 -1.1498
  544MOL0     H73408   3.813   6.333   7.264  0.4502 -0.6972  0.1289
  544MOL0     H73409   3.714   6.480   7.272  0.8195  0.8651  0.9400
  544MOL0     H73410   3.907   6.551   7.459 -2.8121 -2.1213  1.4789
  544MOL0     H73411   3.929   6.573   7.286 -2.0251  1.5502  1.1086
  544MOL0     H73412   4.042   6.334   7.285 -0.6425 -2.3545  2.1121
  544MOL0     H73413   4.004   6.317   7.451 -1.0562 -2.9716 -0.7620
  544MOL0     H73414   4.182   6.509   7.491  0.5436 -2.2204  1.2950
  544MOL0     H73415   4.241   6.390   7.379 -0.1072 -0.0923  2.0048
  544MOL0     H73416   4.128   6.672   7.310  1.5997  0.1183  2.2600
  544MOL0     H73417   4.175   6.555   7.186  2.3154  0.5114 -0.2035
  544MOL0     H73418   4.347   6.667   7.415  2.7047  1.8034 -0.4653
  544MOL0     H73419   4.403   6.561   7.282 -1.6001 -1.9232  1.0606
  544MOL0     H73420   3.297   6.206   7.301 -1.8482 -1.1616 -0.8536
  544MOL0     H73421   3.213   6.184   7.059 -0.0780  0.4712 -0.2225
  544MOL0     H73422   3.091   6.356   6.611  1.5514  0.4842  0.4360
  544MOL0     H73423   3.043   6.276   6.398  0.7579  2.4107  1.9387
  544MOL0     H73424   3.183   5.514   6.637  2.1104  0.5189 -3.7741
  544MOL0     H73425   3.191   5.607   6.884 -0.3421 -0.6506 -1.1582
  544MOL0     H73426   2.996   6.141   7.150 -1.4407  2.1054  2.1869
  544MOL0     H73427   2.981   6.179   7.395  2.8488  1.7279 -1.9997
  544MOL0     H73428   3.113   5.871   7.683  0.5664  2.6359 -0.0191
  544MOL0     H73429   2.942   5.826   7.649  1.7038 -1.9757 -1.3942
  544MOL0     H73430   2.943   5.872   7.881 -0.0436  2.0533  1.7495
  544MOL0     H73431   2.884   6.022   7.806 -0.7478 -1.1361  0.5262
  544MOL0     H73432   3.085   6.131   7.805 -0.1967  0.4190  0.1264
  544MOL0     H73433   3.178   5.993   7.864  0.9901  0.1631  2.3487
  544MOL0     H73434   3.010   6.033   8.074 -1.9299  0.8721  0.3678
  544MOL0     H73435   3.172   6.090   8.079 -2.1541 -0.3815  2.3567
  544MOL0     H73436   2.923   6.434   8.033  0.1763 -1.6626  2.0559
  544MOL0     H73437   3.053   5.752   7.455  0.4348 -1.2358  1.0290
  544MOL0     H73438   3.139   5.675   7.133  0.8711  3.7957  1.4299
  544MOL0     H73439   3.083   5.611   7.289  2.0386  0.5171  0.0005
  544MOL0     H73440   2.973   5.622   7.153  0.0897 -2.6600  1.8090
  545MOL0     O73441   1.843   4.564   0.827  0.2717  0.1388 -0.1841
  545MOL0     C73442   1.906   4.650   0.880 -0.7112 -0.0454  0.3966
  545MOL0     O73443   1.908   4.775   0.834  0.6009 -0.7142 -0.5942
  545MOL0     C73444   1.817   4.817   0.743  1.0989  1.1740 -0.4957
  545MOL0     C73445   1.699   4.877   0.795 -0.0530 -0.2538 -0.0251
  545MOL0     C73446   1.608   4.924   0.707 -0.3471 -0.6586 -0.6541
  545MOL0     C73447   1.617   4.897   0.568  0.0917  0.3308 -0.3951
  545MOL0     O73448   1.517   4.950   0.487 -0.1157  0.2369  0.4272
  545MOL0     C73449   1.498   4.900   0.357  0.0835  0.1714  0.1752
  545MOL0     C73450   1.380   4.972   0.297  1.4638  0.5000 -0.2365
  545MOL0     C73451   1.347   4.919   0.163  0.1005 -0.1767 -0.3073
  545MOL0     C73452   1.439   4.968   0.056 -0.8127 -1.2170 -0.2499
  545MOL0     C73453   1.453   4.859  -0.054 -0.0491  0.0569  0.2774
  545MOL0     C73454   1.537   4.740  -0.014 -0.5179  0.2184 -0.0338
  545MOL0     C73455   1.626   4.665  -0.119  1.0044 -0.2915 -0.8398
  545MOL0     C73456   1.692   4.745  -0.226 -0.6930 -0.2762  0.0904
  545MOL0     N73457   1.799   4.680  -0.300  0.4274 -0.0443 -0.2551
  545MOL0     C73458   1.925   4.669  -0.262 -0.3756  0.4653  0.6023
  545MOL0     C73459   1.980   4.610  -0.373 -0.1134 -0.2577  0.3465
  545MOL0     C73460   2.123   4.593  -0.399 -0.1049 -0.5725 -0.1854
  545MOL0     C73461   2.187   4.489  -0.298  0.1758  0.0139  0.1647
  545MOL0     C73462   2.116   4.356  -0.307  0.0962  0.0049 -0.8613
  545MOL0     C73463   2.084   4.302  -0.444 -0.1659  0.1684 -0.2840
  545MOL0     O73464   2.036   4.165  -0.438 -0.2190 -0.1750 -0.1960
  545MOL0     C73465   2.039   4.099  -0.558  0.6999 -0.3488 -1.0065
  545MOL0     C73466   2.037   3.964  -0.545 -0.6925 -0.4954  0.6192
  545MOL0     C73467   2.041   3.880  -0.656 -0.1107  0.1433  0.3079
  545MOL0     C73468   2.032   3.938  -0.786  0.0263 -0.1897  0.1704
  545MOL0     C73469   2.036   3.852  -0.903 -0.2221 -0.0930 -0.0750
  545MOL0     O73470   2.025   3.718  -0.885 -0.4236  0.8841 -0.4270
  545MOL0     C73471   1.975   3.637  -0.978  0.1493 -0.1439  0.3345
  545MOL0     C73472   1.887   3.675  -1.075  0.0897  0.2681  0.2578
  545MOL0     C73473   1.815   3.584  -1.158  0.1620 -0.7383 -0.4642
  545MOL0     C73474   1.820   3.447  -1.132  0.0393  0.3088 -0.8303
  545MOL0     O73475   1.743   3.361  -1.216  0.0820 -0.1678  0.1518
  545MOL0     C73476   1.804   3.234  -1.235  0.2570  0.5341  0.2456
  545MOL0     C73477   1.725   3.157  -1.344 -0.4110  0.7734  0.0575
  545MOL0     C73478   1.700   3.235  -1.474 -0.3257  0.7646 -0.3372
  545MOL0     C73479   1.616   3.152  -1.569 -0.9379 -0.3096  0.1961
  545MOL0     C73480   1.544   3.238  -1.672 -0.5669 -0.4004 -1.0638
  545MOL0     C73481   1.462   3.139  -1.751  0.3327  1.4305  0.5039
  545MOL0     C73482   1.382   3.222  -1.856 -0.1493  0.8327 -0.8035
  545MOL0     C73483   1.322   3.135  -1.966 -0.4640  0.0200  0.2842
  545MOL0    Cl73484   1.281   2.973  -1.898 -0.1773  0.5787  0.0653
  545MOL0     C73485   1.920   3.404  -1.033 -0.5644  0.2223 -1.0463
  545MOL0     C73486   1.994   3.500  -0.960  0.0894 -0.0364 -0.7687
  545MOL0     O73487   2.036   3.907  -1.014  0.5443 -0.2899 -1.0157
  545MOL0     C73488   2.025   4.076  -0.802  0.3904 -0.3056 -0.4399
  545MOL0     C73489   2.028   4.155  -0.686  0.3330  0.4852  0.2641
  545MOL0     N73490   1.888   4.578  -0.461  0.2965 -0.8796  0.1698
  545MOL0     N73491   1.779   4.621  -0.414 -1.1128 -0.2012 -0.5016
  545MOL0     C73492   1.732   4.846   0.513 -0.8208  0.3636  0.4465
  545MOL0     C73493   1.827   4.807   0.604 -0.0724  0.2948  0.8389
  545MOL0     C73494   1.991   4.619   1.003 -0.8938 -1.1647 -0.7563
  545MOL0     C73495   1.970   4.491   1.073 -0.4133 -0.4940  0.3155
  545MOL0     C73496   2.037   4.462   1.194  0.2158  0.6158  0.8371
  545MOL0     C73497   2.125   4.551   1.248 -0.4300 -0.6638 -0.0944
  545MOL0     O73498   2.207   4.524   1.354 -0.2589 -0.4792  0.5729
  545MOL0     C73499   2.197   4.407   1.436  0.5814  0.1356 -0.5211
  545MOL0     C73500   2.058   4.394   1.512 -0.1310 -0.2576  0.4317
  545MOL0     C73501   2.070   4.440   1.661  0.3766 -0.7578 -0.3641
  545MOL0     C73502   1.938   4.451   1.744  0.7831  0.2605 -0.6470
  545MOL0     C73503   1.880   4.316   1.767 -0.1217 -0.1105 -0.9347
  545MOL0     C73504   1.816   4.219   1.794  0.0632  0.0236 -0.0783
  545MOL0     C73505   2.150   4.677   1.188 -0.2694  0.9957 -0.0975
  545MOL0     C73506   2.079   4.714   1.072  0.5109  0.3729  0.6323
  545MOL0     C73507   2.109   4.847   1.011 -0.2121 -0.4109 -0.0902
  545MOL0     H73508   1.685   4.896   0.901  1.0008 -1.2034  0.3074
  545MOL0     H73509   1.524   4.985   0.740  0.7157  1.1135 -1.1096
  545MOL0     H73510   1.585   4.915   0.291  0.5188 -1.4923  0.3192
  545MOL0     H73511   1.486   4.791   0.361  0.2337  0.1729  0.7526
  545MOL0     H73512   1.391   5.081   0.285 -1.1850  1.1965  2.3104
  545MOL0     H73513   1.296   4.952   0.365  0.5759 -2.0504 -1.9769
  545MOL0     H73514   1.249   4.964   0.144 -1.1440 -0.9060  3.4682
  545MOL0     H73515   1.333   4.811   0.157  0.4460 -0.2417 -0.0309
  545MOL0     H73516   1.398   5.053  -0.000  2.1673  2.4450  2.5716
  545MOL0     H73517   1.534   5.008   0.093 -1.8687  4.1238 -2.3806
  545MOL0     H73518   1.349   4.826  -0.061 -1.0361  2.4505  2.1175
  545MOL0     H73519   1.486   4.906  -0.147  1.8538 -0.8278  0.4528
  545MOL0     H73520   1.614   4.761   0.062  2.4543 -3.0085 -1.8764
  545MOL0     H73521   1.468   4.667   0.029 -0.1279  0.8838  1.8255
  545MOL0     H73522   1.577   4.582  -0.172  1.6395 -0.2448 -1.5145
  545MOL0     H73523   1.700   4.603  -0.069  1.3541 -1.3290 -2.5259
  545MOL0     H73524   1.609   4.773  -0.292  0.6667  1.1958 -1.0783
  545MOL0     H73525   1.732   4.838  -0.183  1.1535  0.0215 -2.1281
  545MOL0     H73526   1.974   4.705  -0.172 -2.8254  2.8067  1.1408
  545MOL0     H73527   2.134   4.580  -0.507 -0.1606  4.2625 -1.0139
  545MOL0     H73528   2.166   4.691  -0.376 -1.6001  0.1823 -0.4887
  545MOL0     H73529   2.291   4.477  -0.331 -0.2474 -1.8262 -0.5850
  545MOL0     H73530   2.189   4.532  -0.198 -0.1366 -1.7915  0.9780
  545MOL0     H73531   2.021   4.364  -0.254 -1.9273 -0.9817 -4.0571
  545MOL0     H73532   2.161   4.282  -0.240  0.8250  1.3984  0.2320
  545MOL0     H73533   2.171   4.317  -0.509 -1.5122  0.1027 -2.1743
  545MOL0     H73534   2.010   4.366  -0.493  2.0073  1.4667 -2.0407
  545MOL0     H73535   2.036   3.911  -0.450 -0.2349  0.4427  1.1581
  545MOL0     H73536   2.057   3.776  -0.629 -1.6650  0.0284  0.9013
  545MOL0     H73537   1.850   3.774  -1.100 -1.2411  0.2676  2.0124
  545MOL0     H73538   1.747   3.641  -1.220 -1.9672 -2.9820 -0.3491
  545MOL0     H73539   1.905   3.241  -1.276  0.3478 -1.7989 -0.1083
  545MOL0     H73540   1.818   3.181  -1.141 -2.4801 -0.3696  0.2360
  545MOL0     H73541   1.788   3.071  -1.367 -1.3515 -0.2467  1.2195
  545MOL0     H73542   1.625   3.134  -1.306 -0.9313  2.2603 -0.3358
  545MOL0     H73543   1.649   3.328  -1.445  0.1572  0.6672  0.9072
  545MOL0     H73544   1.796   3.266  -1.516 -0.1490 -0.8954 -1.2062
  545MOL0     H73545   1.543   3.102  -1.506  2.3692 -1.5048  3.4392
  545MOL0     H73546   1.668   3.072  -1.623  0.7134 -1.0153  2.6735
  545MOL0     H73547   1.612   3.301  -1.730  1.1888  0.6229  1.8942
  545MOL0     H73548   1.469   3.308  -1.635 -0.4833 -0.7475 -0.2200
  545MOL0     H73549   1.528   3.064  -1.795  0.2586  1.7491 -0.1660
  545MOL0     H73550   1.395   3.091  -1.678  1.1818 -0.2109  0.2600
  545MOL0     H73551   1.451   3.295  -1.899 -0.0612  1.7969  0.8759
  545MOL0     H73552   1.301   3.270  -1.800 -0.8827 -1.2674  0.0099
  545MOL0     H73553   1.235   3.188  -2.006  1.4047  3.3483  0.2987
  545MOL0     H73554   1.393   3.117  -2.048 -0.9986  0.0137 -0.1832
  545MOL0     H73555   1.948   3.301  -1.014  3.3122  1.3717  0.5285
  545MOL0     H73556   2.053   3.476  -0.873  0.9373  4.0812  0.0360
  545MOL0     H73557   2.010   4.131  -0.895  1.9612  1.2840  0.1826
  545MOL0     H73558   2.020   4.262  -0.701 -1.5831  0.3685  0.2654
  545MOL0     H73559   1.750   4.831   0.406  0.2591  0.8960  0.5361
  545MOL0     H73560   1.917   4.768   0.558 -0.7651  0.6631 -0.9368
  545MOL0     H73561   1.903   4.417   1.031 -3.3415  1.5720  1.0803
  545MOL0     H73562   2.030   4.369   1.250  4.9584  0.2118  1.2401
  545MOL0     H73563   2.277   4.408   1.511  1.9043  1.0683 -1.8897
  545MOL0     H73564   2.206   4.317   1.374  1.6716 -1.2584  1.5284
  545MOL0     H73565   2.026   4.290   1.506 -0.3077 -0.1909  0.2044
  545MOL0     H73566   1.981   4.458   1.469 -2.7655 -2.1841  2.0350
  545MOL0     H73567   2.097   4.546   1.659  3.0702 -1.3411  0.8552
  545MOL0     H73568   2.136   4.389   1.732 -1.0204  0.1277  1.6641
  545MOL0     H73569   1.952   4.508   1.836 -2.1410  2.5216 -1.4376
  545MOL0     H73570   1.856   4.493   1.684 -0.4060 -1.3255 -0.2151
  545MOL0     H73571   1.775   4.122   1.812 -1.5806  0.9137  1.1878
  545MOL0     H73572   2.226   4.745   1.227  1.1137 -0.1579 -0.7065
  545MOL0     H73573   2.031   4.920   1.034  1.2433  0.1144  3.9569
  545MOL0     H73574   2.190   4.902   1.060 -1.4736  2.2687 -0.8664
  545MOL0     H73575   2.126   4.842   0.903 -2.1688 -0.4406 -0.4344
  546MOL0     O73576   1.672   7.736   3.137  0.1892 -0.0150  0.2550
  546MOL0     C73577   1.720   7.698   3.248 -0.7943 -0.7406 -0.3429
  546MOL0     O73578   1.647   7.657   3.348  0.3008 -0.4702 -0.9963
  546MOL0     C73579   1.511   7.650   3.327  0.1915 -0.1551 -0.7446
  546MOL0     C73580   1.432   7.715   3.422  0.6121  0.0368  0.2088
  546MOL0     C73581   1.294   7.716   3.414 -0.0338 -0.6500  0.0884
  546MOL0     C73582   1.222   7.646   3.314  0.1663 -0.2924  0.0972
  546MOL0     O73583   1.087   7.676   3.295 -0.2902 -0.3657  0.4954
  546MOL0     C73584   1.004   7.572   3.239 -0.1440 -0.5905 -0.2387
  546MOL0     C73585   0.866   7.620   3.194  0.0530 -0.2225 -0.4159
  546MOL0     C73586   0.797   7.702   3.311 -0.7605 -0.5733  0.1954
  546MOL0     C73587   0.647   7.725   3.274  0.1669  0.0867 -1.2060
  546MOL0     C73588   0.569   7.776   3.389  0.1010 -0.7904 -0.3648
  546MOL0     C73589   0.596   7.913   3.422  0.3711 -0.3243  0.1035
  546MOL0     C73590   0.511   7.967   3.536  0.2687 -0.7597 -0.7434
  546MOL0     C73591   0.593   8.026   3.656 -0.7336  0.2199 -0.5445
  546MOL0     N73592   0.659   7.921   3.729 -0.1213 -0.1013 -0.6945
  546MOL0     C73593   0.602   7.810   3.781 -0.2347  0.7902 -0.5230
  546MOL0     C73594   0.694   7.736   3.834 -0.0023  0.4986  1.1058
  546MOL0     C73595   0.663   7.611   3.906 -0.2013  0.6777  0.3668
  546MOL0     C73596   0.647   7.611   4.057  0.8803 -0.8385 -1.3243
  546MOL0     C73597   0.763   7.705   4.111 -0.5867  0.2422 -1.2959
  546MOL0     C73598   0.756   7.729   4.260 -0.5674 -0.3053  0.4539
  546MOL0     O73599   0.864   7.817   4.296 -0.2621  0.3043 -0.4202
  546MOL0     C73600   0.990   7.760   4.286  0.2594 -0.2737  0.3248
  546MOL0     C73601   1.030   7.626   4.264  0.2784  0.3542  0.3664
  546MOL0     C73602   1.163   7.592   4.251 -0.0865 -0.1595 -0.4536
  546MOL0     C73603   1.265   7.688   4.254 -0.3859  0.0409  0.2158
  546MOL0     C73604   1.416   7.652   4.247  0.2742 -0.0371  0.1704
  546MOL0     O73605   1.443   7.521   4.246 -0.2782 -0.0436  0.2600
  546MOL0     C73606   1.574   7.474   4.219  0.6697 -0.0578 -1.1279
  546MOL0     C73607   1.659   7.523   4.119  0.0545  0.1423 -0.1744
  546MOL0     C73608   1.786   7.464   4.109 -0.2174  0.0469  0.1972
  546MOL0     C73609   1.827   7.357   4.194 -0.3436 -0.6528  1.1933
  546MOL0     O73610   1.954   7.303   4.169  0.2926 -0.1726 -0.1825
  546MOL0     C73611   2.003   7.175   4.211  0.1786  0.0554  0.4395
  546MOL0     C73612   2.001   7.085   4.087  0.2030  0.0288 -0.7149
  546MOL0     C73613   1.867   7.083   4.014 -0.2561 -0.8680  0.0400
  546MOL0     C73614   1.869   6.977   3.901 -0.2690 -0.5265 -0.7801
  546MOL0     C73615   1.758   7.016   3.798  0.4765  0.5584  0.1142
  546MOL0     C73616   1.755   6.918   3.683  0.4049 -1.1681 -0.1137
  546MOL0     C73617   1.639   6.955   3.594 -0.1087 -0.2209 -0.3328
  546MOL0     C73618   1.631   6.860   3.474 -0.5757  0.1079 -0.3709
  546MOL0    Cl73619   1.470   6.855   3.412 -0.1331 -0.5194  0.0797
  546MOL0     C73620   1.734   7.301   4.280 -0.4973 -0.7128  0.0333
  546MOL0     C73621   1.606   7.360   4.293  0.6415 -0.4310 -0.7598
  546MOL0     O73622   1.493   7.745   4.244 -0.2376  0.3497 -0.7067
  546MOL0     C73623   1.224   7.825   4.256  0.2211  0.5377  0.0995
  546MOL0     C73624   1.094   7.859   4.278  0.2063  0.5197  0.1723
  546MOL0     N73625   0.818   7.798   3.802  0.9207  0.1991  0.0544
  546MOL0     N73626   0.797   7.905   3.737  0.1482 -0.2181  0.1781
  546MOL0     C73627   1.301   7.565   3.229 -1.0199  0.2709  0.1571
  546MOL0     C73628   1.449   7.573   3.235  0.1829  1.0878  0.0757
  546MOL0     C73629   1.863   7.728   3.279  0.7729 -0.1770 -0.4812
  546MOL0     C73630   1.896   7.734   3.418 -0.2834 -0.2423 -0.9142
  546MOL0     C73631   2.020   7.766   3.462 -1.1605 -0.5910  0.7515
  546MOL0     C73632   2.121   7.813   3.371  1.0342 -0.1887  0.0886
  546MOL0     O73633   2.227   7.874   3.421 -0.6014 -0.2698 -0.6603
  546MOL0     C73634   2.306   7.968   3.347  0.3524  0.3457 -0.3435
  546MOL0     C73635   2.233   8.097   3.296 -0.0712  0.7141  0.7850
  546MOL0     C73636   2.182   8.166   3.421 -0.2807  0.1839 -0.9502
  546MOL0     C73637   2.247   8.295   3.442  0.2464 -0.4741  0.1303
  546MOL0     C73638   2.233   8.386   3.331  0.4472 -0.5190  0.1740
  546MOL0     C73639   2.222   8.445   3.231 -0.5610 -0.2568  0.6055
  546MOL0     C73640   2.084   7.802   3.232  0.1798 -0.3066  0.2036
  546MOL0     C73641   1.959   7.768   3.185 -0.5936  0.7642  0.8233
  546MOL0     C73642   1.945   7.746   3.041  0.8470 -0.2533 -0.1680
  546MOL0     H73643   1.486   7.768   3.500  2.7509 -0.7880 -0.6236
  546MOL0     H73644   1.249   7.775   3.493  0.8993  2.8444 -1.8062
  546MOL0     H73645   1.061   7.535   3.153  2.9038  1.7651  0.5918
  546MOL0     H73646   0.991   7.488   3.307  3.2628 -1.6436 -0.6948
  546MOL0     H73647   0.808   7.531   3.169  1.7402 -1.0394 -1.6613
  546MOL0     H73648   0.872   7.677   3.101  0.1254  1.6335  0.6725
  546MOL0     H73649   0.849   7.796   3.332  1.1021 -1.8649  1.7406
  546MOL0     H73650   0.809   7.652   3.408 -1.5174  1.5426  1.4361
  546MOL0     H73651   0.648   7.808   3.202  6.1442  1.5437 -0.0422
  546MOL0     H73652   0.601   7.635   3.232 -1.5275  0.6132 -0.5692
  546MOL0     H73653   0.463   7.766   3.363  0.1442  1.5415 -1.6775
  546MOL0     H73654   0.587   7.714   3.478 -1.6567  0.2737  0.7831
  546MOL0     H73655   0.703   7.917   3.444  0.9170  1.0111 -2.4059
  546MOL0     H73656   0.573   7.970   3.332  0.3202 -3.4474 -2.0247
  546MOL0     H73657   0.433   7.893   3.558 -1.3819  0.5885 -1.8046
  546MOL0     H73658   0.448   8.052   3.509  0.2629  0.6681  3.1164
  546MOL0     H73659   0.670   8.091   3.614 -1.5653  0.8382 -1.1680
  546MOL0     H73660   0.534   8.081   3.731 -0.6332 -0.8096  0.3230
  546MOL0     H73661   0.499   7.785   3.759  0.1658  2.3978 -5.2272
  546MOL0     H73662   0.581   7.555   3.860 -0.1832  0.0004  1.1338
  546MOL0     H73663   0.749   7.544   3.899  1.1040  2.4098 -1.1800
  546MOL0     H73664   0.554   7.655   4.097  0.9224 -1.7313 -0.2131
  546MOL0     H73665   0.649   7.507   4.090  2.4213 -0.2225  0.7183
  546MOL0     H73666   0.759   7.803   4.063 -3.1927  0.6000 -0.4709
  546MOL0     H73667   0.860   7.660   4.089 -0.6652  0.5153 -2.2053
  546MOL0     H73668   0.761   7.634   4.314  2.2884 -0.5297 -0.0623
  546MOL0     H73669   0.665   7.775   4.299 -0.4359 -1.5645  2.3582
  546MOL0     H73670   0.964   7.541   4.276 -0.8535  1.2921  0.9914
  546MOL0     H73671   1.191   7.487   4.251  3.9927  0.7554  0.3947
  546MOL0     H73672   1.619   7.609   4.065 -1.2675 -0.3948 -0.0993
  546MOL0     H73673   1.856   7.503   4.035 -0.3046 -0.1768 -0.0060
  546MOL0     H73674   2.105   7.191   4.247  1.6214 -2.5256 -2.0907
  546MOL0     H73675   1.938   7.139   4.290  0.8092  0.2110  1.0350
  546MOL0     H73676   2.071   7.123   4.011  0.7550  0.2386 -0.1074
  546MOL0     H73677   2.034   6.988   4.126  1.4423  0.5535 -0.4254
  546MOL0     H73678   1.779   7.066   4.077  0.4964  0.8572  1.6437
  546MOL0     H73679   1.860   7.183   3.970  0.2298 -0.2253  1.3751
  546MOL0     H73680   1.853   6.877   3.942 -0.1282 -2.0834 -4.1947
  546MOL0     H73681   1.961   6.982   3.842  0.0002 -1.5574 -0.4601
  546MOL0     H73682   1.774   7.118   3.763 -1.0881  0.4746 -0.9507
  546MOL0     H73683   1.663   7.004   3.851  0.8711 -0.4142  0.6361
  546MOL0     H73684   1.847   6.921   3.623 -1.3094 -1.8471 -2.9835
  546MOL0     H73685   1.739   6.815   3.713  0.8164 -1.5896 -1.2706
  546MOL0     H73686   1.642   7.059   3.559  0.4726 -0.2318 -0.3271
  546MOL0     H73687   1.540   6.964   3.641  0.1436  2.3707 -0.1481
  546MOL0     H73688   1.690   6.903   3.393 -0.5043  1.0075  0.1488
  546MOL0     H73689   1.666   6.758   3.491 -2.7987 -0.2286  3.1074
  546MOL0     H73690   1.743   7.206   4.331  0.7276 -0.7700 -0.2642
  546MOL0     H73691   1.537   7.326   4.369  1.3948 -0.8375 -0.2442
  546MOL0     H73692   1.303   7.897   4.235 -1.3290  2.4286  0.5325
  546MOL0     H73693   1.068   7.963   4.291  1.5197  0.5894  2.6799
  546MOL0     H73694   1.260   7.495   3.157  1.6847 -0.1938 -1.0759
  546MOL0     H73695   1.506   7.528   3.153  1.8589 -0.0989  1.7931
  546MOL0     H73696   1.829   7.697   3.496 -0.2809  0.9792 -0.3097
  546MOL0     H73697   2.052   7.743   3.563  1.3716 -2.2979 -0.3011
  546MOL0     H73698   2.347   7.912   3.263 -0.6610 -2.0032  0.6354
  546MOL0     H73699   2.388   8.001   3.412 -1.2561 -0.0281  2.0236
  546MOL0     H73700   2.146   8.060   3.240  1.5668  0.5377 -1.8465
  546MOL0     H73701   2.293   8.154   3.224 -2.1383  2.0658  0.0693
  546MOL0     H73702   2.182   8.102   3.509 -2.1234  2.9184  1.2026
  546MOL0     H73703   2.077   8.190   3.405 -0.1922  1.0735 -0.2687
  546MOL0     H73704   2.205   8.341   3.532 -1.3864  1.1257 -1.3722
  546MOL0     H73705   2.355   8.279   3.451  0.6694  1.5938 -0.6765
  546MOL0     H73706   2.222   8.505   3.143  1.3590 -0.1347  0.6535
  546MOL0     H73707   2.166   7.831   3.166 -0.4081  0.1779 -0.3207
  546MOL0     H73708   1.921   7.640   3.026 -2.5410  0.4124 -0.2908
  546MOL0     H73709   1.854   7.788   2.998  0.6086  0.1174  0.6751
  546MOL0     H73710   2.031   7.774   2.980  0.1698 -2.0106 -2.0440
  547MOL0     O73711   5.921   2.985   3.210 -0.5532 -0.0915 -0.4202
  547MOL0     C73712   5.844   3.014   3.300 -0.0867 -1.2213 -0.6576
  547MOL0     O73713   5.803   2.927   3.393  1.0368  0.3260 -0.0671
  547MOL0     C73714   5.870   2.809   3.416 -0.1963 -0.4397 -0.2379
  547MOL0     C73715   6.008   2.809   3.427 -0.9044  0.2765  0.4005
  547MOL0     C73716   6.076   2.700   3.491  0.4089 -0.5162 -0.1306
  547MOL0     C73717   6.013   2.579   3.521 -1.6925 -0.6649  0.2292
  547MOL0     O73718   6.082   2.467   3.550 -0.5491 -0.9234  0.3403
  547MOL0     C73719   6.044   2.394   3.661 -0.0644  0.3813 -0.3475
  547MOL0     C73720   6.153   2.403   3.767  0.8471 -0.6811  0.5811
  547MOL0     C73721   6.179   2.548   3.812  0.4546 -0.0867  0.2838
  547MOL0     C73722   6.048   2.614   3.864  0.6005 -0.6957  0.3508
  547MOL0     C73723   6.085   2.740   3.951 -0.3079  0.6709 -0.0647
  547MOL0     C73724   5.963   2.824   3.979 -0.7241 -0.0144  0.0088
  547MOL0     C73725   5.894   2.882   3.854 -0.0530 -0.2177 -0.2044
  547MOL0     C73726   5.984   2.976   3.766  0.0227  0.3095 -0.0723
  547MOL0     N73727   5.998   3.110   3.833 -0.0515  0.6152 -0.6257
  547MOL0     C73728   6.063   3.134   3.956 -0.9687  0.1017  0.7511
  547MOL0     C73729   6.084   3.268   3.949  0.1630  0.0567 -0.0244
  547MOL0     C73730   6.174   3.347   4.032  0.2420  0.0780  0.1611
  547MOL0     C73731   6.099   3.434   4.133  0.3721 -0.1579 -0.2701
  547MOL0     C73732   6.009   3.544   4.068  1.1454 -0.9124 -0.6963
  547MOL0     C73733   5.985   3.662   4.158  0.0848 -0.2266  0.2639
  547MOL0     O73734   5.893   3.762   4.118  0.5371 -0.4790 -0.6567
  547MOL0     C73735   5.945   3.882   4.151 -0.8460 -0.9436  0.3249
  547MOL0     C73736   6.010   3.952   4.051 -1.0540  0.3318  0.3483
  547MOL0     C73737   6.060   4.074   4.086 -0.6081  0.2133  0.2738
  547MOL0     C73738   6.058   4.126   4.217 -0.1543  0.4494 -0.4899
  547MOL0     C73739   6.107   4.261   4.250  0.5796  0.1916 -0.4855
  547MOL0     O73740   6.138   4.284   4.383 -0.0739 -0.4006  0.1309
  547MOL0     C73741   6.235   4.380   4.404  0.1915  0.3994 -0.3560
  547MOL0     C73742   6.195   4.487   4.489  0.3502  0.1441  0.5539
  547MOL0     C73743   6.287   4.583   4.520  0.4965  0.7575  0.0524
  547MOL0     C73744   6.423   4.569   4.486  0.0600  0.1501  0.1806
  547MOL0     O73745   6.520   4.662   4.524  0.0915  0.6598 -0.0334
  547MOL0     C73746   6.482   4.792   4.565 -0.0595  0.4063  0.3148
  547MOL0     C73747   6.617   4.872   4.606  0.2254 -0.3989 -0.4142
  547MOL0     C73748   6.584   5.018   4.664 -0.3363 -1.0613  0.3630
  547MOL0     C73749   6.711   5.111   4.661  0.4305  0.4299  0.2806
  547MOL0     C73750   6.677   5.246   4.697  0.5008 -0.1043  0.4427
  547MOL0     C73751   6.637   5.338   4.576  0.0207  0.4275 -0.4319
  547MOL0     C73752   6.577   5.464   4.606  0.4147  0.2567 -0.7382
  547MOL0     C73753   6.685   5.564   4.644  0.3427  0.3824  0.1271
  547MOL0    Cl73754   6.613   5.725   4.650 -0.0818 -0.0067 -0.4815
  547MOL0     C73755   6.464   4.462   4.405 -0.1656 -0.1872 -0.0819
  547MOL0     C73756   6.370   4.365   4.366 -0.0938 -0.2650  0.9501
  547MOL0     O73757   6.133   4.325   4.157 -0.6110 -0.8633 -0.4775
  547MOL0     C73758   6.002   4.046   4.320  0.2731 -0.6295  0.4806
  547MOL0     C73759   5.941   3.931   4.279  0.4379  0.6433 -0.0302
  547MOL0     N73760   6.036   3.319   3.832  0.1735  0.0298 -0.1626
  547MOL0     N73761   5.983   3.229   3.762 -0.0736  0.6442 -0.3555
  547MOL0     C73762   5.871   2.585   3.505 -0.6710  1.4707 -0.7682
  547MOL0     C73763   5.799   2.694   3.458 -0.4041  1.3868 -0.4701
  547MOL0     C73764   5.790   3.152   3.322 -0.6378 -0.3171  0.2737
  547MOL0     C73765   5.656   3.176   3.355 -0.1082  0.6438 -0.8500
  547MOL0     C73766   5.604   3.307   3.367 -0.4214  0.0003 -1.3264
  547MOL0     C73767   5.683   3.416   3.346 -0.7336 -0.0113 -0.5331
  547MOL0     O73768   5.643   3.548   3.380 -0.1886  0.4953  1.5497
  547MOL0     C73769   5.504   3.578   3.401 -0.0928 -0.7944  0.7445
  547MOL0     C73770   5.485   3.734   3.398  0.3384  0.1889 -0.8240
  547MOL0     C73771   5.330   3.771   3.402 -0.0662  0.6482  1.0276
  547MOL0     C73772   5.249   3.760   3.254 -0.6539 -0.3286 -0.0816
  547MOL0     C73773   5.221   3.621   3.203 -0.1928 -0.5065  0.4644
  547MOL0     C73774   5.218   3.509   3.168 -0.7100  0.4357 -0.1659
  547MOL0     C73775   5.823   3.404   3.321 -0.1704  0.0359 -0.4312
  547MOL0     C73776   5.875   3.274   3.301  0.4432  0.5528  0.7090
  547MOL0     C73777   6.023   3.260   3.278 -0.1487  0.1931  0.3693
  547MOL0     H73778   6.068   2.889   3.387 -1.2988  0.1503 -0.4552
  547MOL0     H73779   6.184   2.707   3.499  0.2218  0.6863  3.0772
  547MOL0     H73780   5.946   2.417   3.702  0.0841  0.6107 -0.1179
  547MOL0     H73781   6.032   2.290   3.630 -1.8029  0.0274  1.2996
  547MOL0     H73782   6.235   2.355   3.713  0.2716 -0.3080 -0.6575
  547MOL0     H73783   6.131   2.342   3.855  0.4181 -1.1955  0.1284
  547MOL0     H73784   6.217   2.615   3.734 -0.7542  0.4865  0.1612
  547MOL0     H73785   6.249   2.546   3.896 -0.6776 -1.9102  1.2494
  547MOL0     H73786   5.989   2.637   3.775  0.9308 -1.5705 -0.1022
  547MOL0     H73787   5.983   2.555   3.930  2.5562 -1.1472  1.9595
  547MOL0     H73788   6.136   2.702   4.041 -0.7357  0.0944 -0.0587
  547MOL0     H73789   6.162   2.802   3.904  0.0473 -1.3821 -2.4013
  547MOL0     H73790   5.887   2.761   4.025 -0.1003  0.7511  2.1740
  547MOL0     H73791   6.000   2.904   4.043 -2.0027  0.8818 -0.3354
  547MOL0     H73792   5.812   2.943   3.892  1.2835  1.2043  0.5453
  547MOL0     H73793   5.846   2.809   3.789 -1.0141 -0.4776  0.7741
  547MOL0     H73794   6.076   2.930   3.731  0.5081  1.0760  0.1665
  547MOL0     H73795   5.942   2.998   3.667  0.6270 -0.6736 -0.5604
  547MOL0     H73796   6.121   3.067   4.019  1.0825 -0.5942 -1.7037
  547MOL0     H73797   6.259   3.294   4.075  1.0904 -1.4193 -2.9983
  547MOL0     H73798   6.226   3.414   3.963  0.8681 -2.9775 -2.5899
  547MOL0     H73799   6.032   3.378   4.198 -0.5098 -0.4216 -1.3769
  547MOL0     H73800   6.179   3.481   4.191  1.2793 -0.8538 -0.9139
  547MOL0     H73801   5.913   3.507   4.032  0.7471  0.5306 -1.2227
  547MOL0     H73802   6.049   3.583   3.974 -0.6391 -0.2278 -1.2110
  547MOL0     H73803   6.088   3.700   4.161  0.3647 -0.9808  0.4794
  547MOL0     H73804   5.969   3.636   4.263  2.5355 -2.4273  0.1913
  547MOL0     H73805   6.026   3.916   3.950 -1.4891 -1.0927  0.7598
  547MOL0     H73806   6.101   4.129   4.002 -1.5823 -0.1058 -0.4226
  547MOL0     H73807   6.093   4.487   4.525 -0.1537  0.5356 -0.8086
  547MOL0     H73808   6.255   4.659   4.591  2.5019  0.3614  1.4915
  547MOL0     H73809   6.430   4.842   4.483  0.2199 -0.7759 -0.6281
  547MOL0     H73810   6.421   4.795   4.655  1.3981 -1.3077  1.4378
  547MOL0     H73811   6.662   4.813   4.686  1.5816  1.1445  0.0245
  547MOL0     H73812   6.688   4.881   4.523  0.0329  3.5673 -0.3474
  547MOL0     H73813   6.510   5.060   4.595  0.7841  1.7392  0.7439
  547MOL0     H73814   6.543   5.013   4.766  3.0895  1.1977  2.0510
  547MOL0     H73815   6.755   5.114   4.561  1.8922 -1.2181  0.8185
  547MOL0     H73816   6.783   5.089   4.740 -0.2143  2.5862  1.5646
  547MOL0     H73817   6.767   5.292   4.737  0.2799 -0.0572  0.8875
  547MOL0     H73818   6.600   5.250   4.775  1.0137  0.3154  0.9288
  547MOL0     H73819   6.730   5.348   4.518  2.8478  0.4872  3.6669
  547MOL0     H73820   6.563   5.282   4.518 -1.7237  0.4504  1.6862
  547MOL0     H73821   6.503   5.464   4.686 -0.5250  1.8316 -1.5404
  547MOL0     H73822   6.522   5.481   4.513  2.2661 -0.0083 -1.9381
  547MOL0     H73823   6.735   5.528   4.734  0.4601 -2.0972 -0.8267
  547MOL0     H73824   6.763   5.571   4.567 -0.5141  2.0911 -0.6368
  547MOL0     H73825   6.568   4.448   4.379 -0.4426 -1.4619 -0.6117
  547MOL0     H73826   6.393   4.270   4.320 -0.7654  0.7889 -1.7864
  547MOL0     H73827   5.986   4.074   4.423  2.7280  0.7743  0.5598
  547MOL0     H73828   5.896   3.870   4.357  0.5796 -0.6944 -0.9769
  547MOL0     H73829   5.803   2.503   3.526 -0.3474  1.3873 -0.0421
  547MOL0     H73830   5.690   2.693   3.453 -0.5847 -1.0863  1.9628
  547MOL0     H73831   5.592   3.090   3.374 -0.0696  0.8509  0.2498
  547MOL0     H73832   5.499   3.311   3.394 -0.4237 -1.8632 -0.9101
  547MOL0     H73833   5.472   3.541   3.499  1.3265  0.2550  1.6506
  547MOL0     H73834   5.446   3.526   3.324  0.4349 -2.1369  1.2110
  547MOL0     H73835   5.523   3.765   3.300 -4.9355 -0.1500 -3.3047
  547MOL0     H73836   5.531   3.779   3.487 -1.3722 -4.3553  2.8295
  547MOL0     H73837   5.338   3.879   3.415 -1.3960  1.1256 -1.5724
  547MOL0     H73838   5.278   3.734   3.491 -0.6547  3.5312  1.9905
  547MOL0     H73839   5.145   3.793   3.261 -0.3942  0.7904 -1.1555
  547MOL0     H73840   5.294   3.821   3.176 -0.0023  0.0568  0.5779
  547MOL0     H73841   5.206   3.410   3.127 -0.6898  1.0038 -1.6252
  547MOL0     H73842   5.894   3.486   3.315  1.2528 -1.2315 -1.6341
  547MOL0     H73843   6.038   3.224   3.176 -1.0952  0.6214  0.0557
  547MOL0     H73844   6.077   3.355   3.287 -1.1168  0.9062 -0.9452
  547MOL0     H73845   6.078   3.197   3.348  0.5384  1.0469  0.6160
  548MOL0     O73846   4.059  10.054   2.042  0.8312  0.5627 -0.3234
  548MOL0     C73847   4.132   9.955   2.027 -1.2693  0.1516  0.2009
  548MOL0     O73848   4.241   9.941   1.936 -0.5388 -0.0519 -0.3099
  548MOL0     C73849   4.287  10.051   1.865 -0.4757 -0.4053 -0.1775
  548MOL0     C73850   4.208  10.124   1.768 -0.3722  0.0237  0.2864
  548MOL0     C73851   4.268  10.232   1.695  0.2445  0.9596 -0.3138
  548MOL0     C73852   4.404  10.265   1.710  0.1474  1.2622 -0.2453
  548MOL0     O73853   4.460  10.381   1.653 -0.2167  0.0566 -0.4745
  548MOL0     C73854   4.423  10.427   1.525 -0.5998 -0.4165 -0.2740
  548MOL0     C73855   4.547  10.466   1.449 -0.0872  0.4336 -0.1489
  548MOL0     C73856   4.639  10.572   1.504 -0.6322  0.2646 -0.7919
  548MOL0     C73857   4.764  10.596   1.427 -0.6209 -0.9947 -0.0968
  548MOL0     C73858   4.871  10.481   1.423  0.3724 -0.3112 -0.4120
  548MOL0     C73859   4.981  10.520   1.321  0.0981 -0.0291 -0.2633
  548MOL0     C73860   5.097  10.428   1.349 -0.1921 -0.0985 -0.0096
  548MOL0     C73861   5.195  10.436   1.230 -0.6119  0.6172 -0.0600
  548MOL0     N73862   5.325  10.503   1.262  0.1964 -0.5131 -0.2090
  548MOL0     C73863   5.408  10.451   1.355 -0.1602  0.0881 -0.1250
  548MOL0     C73864   5.517  10.529   1.363  0.1535  0.5848  0.2460
  548MOL0     C73865   5.627  10.486   1.453  0.0781 -0.1942 -0.0671
  548MOL0     C73866   5.685  10.608   1.518 -0.1525  0.5835  0.1262
  548MOL0     C73867   5.808  10.572   1.607  0.0654  0.1778  0.6596
  548MOL0     C73868   5.823  10.661   1.728  0.7948 -0.7479  0.1488
  548MOL0     O73869   5.939  10.608   1.807  1.0200 -0.4795 -0.6527
  548MOL0     C73870   5.922  10.499   1.894  1.4243 -0.0594  0.1756
  548MOL0     C73871   5.807  10.417   1.901 -0.6259 -0.2850  0.2178
  548MOL0     C73872   5.794  10.316   1.993  0.1914  0.4403 -0.4184
  548MOL0     C73873   5.911  10.277   2.064 -0.0700 -0.6674  0.2135
  548MOL0     C73874   5.898  10.164   2.149  0.4638 -0.2023 -0.4164
  548MOL0     O73875   5.776  10.092   2.161 -0.4183 -0.3675 -0.2640
  548MOL0     C73876   5.754   9.992   2.250 -0.2043 -0.1241 -0.1401
  548MOL0     C73877   5.831   9.949   2.356 -0.8827  0.8844  0.0263
  548MOL0     C73878   5.795   9.847   2.445  0.3326  0.1897 -0.4308
  548MOL0     C73879   5.670   9.779   2.430 -0.3589  0.0149 -0.5449
  548MOL0     O73880   5.607   9.677   2.502 -0.5281  0.1592 -1.0129
  548MOL0     C73881   5.683   9.621   2.607  0.3988  0.0456  0.6562
  548MOL0     C73882   5.657   9.702   2.730 -0.4548  0.8829  0.9960
  548MOL0     C73883   5.719   9.652   2.861 -0.3174  0.1447  0.6093
  548MOL0     C73884   5.660   9.720   2.985  0.9522 -0.3091  0.5082
  548MOL0     C73885   5.532   9.634   3.030 -0.4072  0.0382 -0.3932
  548MOL0     C73886   5.452   9.707   3.136 -0.2208  0.2626  0.5652
  548MOL0     C73887   5.328   9.639   3.198  0.4984  0.1623 -0.4240
  548MOL0     C73888   5.351   9.562   3.329 -0.7055 -0.2923  0.6294
  548MOL0    Cl73889   5.440   9.408   3.292  0.3361 -0.0561 -0.5967
  548MOL0     C73890   5.593   9.809   2.317 -0.4642  0.9203 -0.0276
  548MOL0     C73891   5.633   9.909   2.230  0.5878  0.2944 -0.0916
  548MOL0     O73892   6.001  10.137   2.214 -0.0021 -0.7037  0.4738
  548MOL0     C73893   6.024  10.356   2.063 -1.1290 -0.7229 -0.2519
  548MOL0     C73894   6.027  10.460   1.969  0.4301  0.5782  0.2406
  548MOL0     N73895   5.489  10.635   1.276 -0.2781  0.0364  0.7482
  548MOL0     N73896   5.371  10.622   1.228  0.4812 -0.6012 -0.9611
  548MOL0     C73897   4.479  10.193   1.796  0.0136  0.3653  0.0005
  548MOL0     C73898   4.426  10.085   1.869 -0.3319  0.2687 -0.0426
  548MOL0     C73899   4.112   9.840   2.121 -0.0120 -0.4514 -0.7930
  548MOL0     C73900   4.225   9.754   2.139 -0.0759  0.1015 -0.2880
  548MOL0     C73901   4.214   9.664   2.246 -0.6557 -0.2951 -0.1755
  548MOL0     C73902   4.098   9.653   2.317 -0.0021  0.0366 -0.3175
  548MOL0     O73903   4.074   9.565   2.416 -0.3186  0.3910 -0.9937
  548MOL0     C73904   4.163   9.547   2.529 -0.5738  0.4669 -0.7369
  548MOL0     C73905   4.090   9.484   2.648 -0.2624 -0.0741 -0.3269
  548MOL0     C73906   4.045   9.339   2.615 -0.4012  0.0318 -0.1533
  548MOL0     C73907   3.897   9.336   2.637 -0.2953 -0.3594 -0.3483
  548MOL0     C73908   3.841   9.203   2.633  0.8848  0.7963 -0.3781
  548MOL0     C73909   3.794   9.086   2.629  0.0576 -0.2068 -0.2670
  548MOL0     C73910   3.993   9.727   2.289 -0.3706 -0.1340  0.5483
  548MOL0     C73911   3.989   9.814   2.185 -0.1570 -0.0452  1.3521
  548MOL0     C73912   3.870   9.895   2.163 -0.1789  0.1619  0.3098
  548MOL0     H73913   4.105  10.089   1.764  0.5466 -2.9979  0.3387
  548MOL0     H73914   4.214  10.299   1.628  0.4574  0.7484 -0.6997
  548MOL0     H73915   4.378  10.344   1.470 -0.1127 -0.8537 -0.0152
  548MOL0     H73916   4.360  10.516   1.540  1.6004  0.9899  1.3528
  548MOL0     H73917   4.510  10.494   1.350 -2.6595  0.3917  0.7246
  548MOL0     H73918   4.596  10.368   1.442 -1.3617 -0.1959 -0.5141
  548MOL0     H73919   4.662  10.537   1.605 -0.1890  1.1151 -0.5913
  548MOL0     H73920   4.587  10.667   1.517 -1.3785 -0.4643  2.8125
  548MOL0     H73921   4.726  10.618   1.327 -2.1505 -1.8164  0.2763
  548MOL0     H73922   4.804  10.691   1.465 -2.5374  0.2655 -1.0782
  548MOL0     H73923   4.916  10.453   1.519  2.6309  1.0404 -1.0046
  548MOL0     H73924   4.827  10.384   1.397 -0.8359 -0.6712  2.5598
  548MOL0     H73925   4.946  10.514   1.218 -1.4912 -0.4611  0.2632
  548MOL0     H73926   5.017  10.620   1.345  1.7807 -0.8531  0.8475
  548MOL0     H73927   5.057  10.326   1.347 -0.1481 -0.2093  2.0786
  548MOL0     H73928   5.143  10.444   1.447  0.4139  0.8459 -0.4351
  548MOL0     H73929   5.227  10.338   1.191 -0.9787 -0.6153  2.5160
  548MOL0     H73930   5.144  10.497   1.155  0.4594  0.7079 -0.7454
  548MOL0     H73931   5.384  10.353   1.394  0.2650  0.3693  0.8897
  548MOL0     H73932   5.586  10.417   1.528  0.3609 -2.5065 -1.9520
  548MOL0     H73933   5.698  10.435   1.388  1.7983  3.1614 -1.0448
  548MOL0     H73934   5.720  10.672   1.437  2.1206  2.1979  2.2480
  548MOL0     H73935   5.605  10.658   1.574  2.3333  2.9240  1.8754
  548MOL0     H73936   5.888  10.603   1.540 -1.7807  2.3556 -0.6787
  548MOL0     H73937   5.805  10.465   1.629 -1.4079  0.5743  2.6731
  548MOL0     H73938   5.733  10.668   1.790  0.5313 -0.5418 -0.2542
  548MOL0     H73939   5.849  10.765   1.703  0.0948  0.2993  3.3537
  548MOL0     H73940   5.719  10.436   1.842 -0.1946 -0.5276 -0.5195
  548MOL0     H73941   5.704  10.257   2.004 -0.2725  0.9841 -1.1416
  548MOL0     H73942   5.927  10.000   2.367 -0.1703  0.2097 -2.5314
  548MOL0     H73943   5.853   9.812   2.529 -1.4941 -0.4889  0.5830
  548MOL0     H73944   5.662   9.516   2.632  0.5671  0.1348  1.1807
  548MOL0     H73945   5.786   9.618   2.573 -0.0193  1.4469 -0.8245
  548MOL0     H73946   5.698   9.801   2.707  1.3414 -0.6322 -3.3581
  548MOL0     H73947   5.550   9.713   2.747 -0.4097  0.3043  1.7409
  548MOL0     H73948   5.696   9.546   2.864  1.2798 -0.6779 -4.7541
  548MOL0     H73949   5.825   9.679   2.853 -0.0316 -1.2979 -0.9790
  548MOL0     H73950   5.636   9.825   2.963 -1.7904 -0.9253  0.2080
  548MOL0     H73951   5.739   9.727   3.060 -0.7776  0.1307  2.4069
  548MOL0     H73952   5.570   9.537   3.062 -0.5219 -0.4153 -1.5964
  548MOL0     H73953   5.468   9.615   2.944  1.3703 -0.0470 -1.7645
  548MOL0     H73954   5.520   9.741   3.215 -0.1871  4.2838 -0.9987
  548MOL0     H73955   5.411   9.800   3.096 -2.7669  0.0237  2.3783
  548MOL0     H73956   5.276   9.581   3.121 -1.2532  2.1890 -0.8798
  548MOL0     H73957   5.257   9.719   3.220  2.0245  1.0847  1.4000
  548MOL0     H73958   5.419   9.621   3.391  0.7445  0.1240 -1.2640
  548MOL0     H73959   5.263   9.539   3.390 -0.6588 -1.9707  0.1153
  548MOL0     H73960   5.512   9.742   2.289 -0.9119  0.9382  1.1508
  548MOL0     H73961   5.577   9.920   2.138 -1.6606 -2.7639  0.7734
  548MOL0     H73962   6.115  10.352   2.123 -0.5114  2.0046 -0.8544
  548MOL0     H73963   6.115  10.525   1.961  1.5403 -0.9915 -0.9957
  548MOL0     H73964   4.582  10.222   1.814 -0.0583 -0.2484  1.6557
  548MOL0     H73965   4.492  10.027   1.934 -2.1701 -2.3494 -0.3230
  548MOL0     H73966   4.317   9.777   2.087 -1.1664  0.5536 -2.1488
  548MOL0     H73967   4.307   9.616   2.275 -1.2023 -1.0779  0.3119
  548MOL0     H73968   4.201   9.643   2.566 -1.1459  1.0568 -1.6498
  548MOL0     H73969   4.249   9.486   2.501 -2.0040 -0.9497 -2.2926
  548MOL0     H73970   4.015   9.556   2.683  0.6136  0.6244  0.1522
  548MOL0     H73971   4.157   9.479   2.734  0.8192 -3.4649 -1.2131
  548MOL0     H73972   4.092   9.271   2.687  0.9629  0.1691 -0.8854
  548MOL0     H73973   4.074   9.309   2.514  0.2768  2.6998 -0.8442
  548MOL0     H73974   3.872   9.377   2.736  0.0586 -2.1355  0.5260
  548MOL0     H73975   3.852   9.395   2.557  1.1955  1.0613 -0.1942
  548MOL0     H73976   3.765   8.983   2.623 -5.0337  0.9964 -0.7273
  548MOL0     H73977   3.904   9.725   2.352 -1.9189  3.1868 -1.2304
  548MOL0     H73978   3.777   9.849   2.199  0.1766  0.4528  1.6301
  548MOL0     H73979   3.887   9.982   2.227  0.1845 -0.1157  0.5899
  548MOL0     H73980   3.859   9.924   2.057 -0.8017  2.5968  0.9709
  549MOL0     O73981   9.770   2.319   7.218 -0.1524  0.8075  0.0426
  549MOL0     C73982   9.789   2.407   7.130 -0.0521  0.2695 -0.6533
  549MOL0     O73983   9.733   2.408   7.007 -0.8444 -0.2261  0.3337
  549MOL0     C73984   9.617   2.339   6.980  0.4670  0.0497 -0.1912
  549MOL0     C73985   9.515   2.315   7.074 -0.7206  0.4878 -0.3147
  549MOL0     C73986   9.401   2.236   7.043 -1.2661 -0.1823 -0.5841
  549MOL0     C73987   9.387   2.180   6.921  0.5497  0.5479 -0.3526
  549MOL0     O73988   9.287   2.097   6.880  0.0030  0.5013 -0.4147
  549MOL0     C73989   9.155   2.142   6.926 -0.7965  0.8116 -0.1859
  549MOL0     C73990   9.046   2.037   6.908  0.1804 -0.7563  0.2588
  549MOL0     C73991   8.985   2.019   6.766  0.9549  0.3286  0.6354
  549MOL0     C73992   8.901   1.889   6.744  0.5565 -0.4510  0.3596
  549MOL0     C73993   8.876   1.888   6.593  1.2426 -0.8151 -0.0554
  549MOL0     C73994   8.796   2.011   6.531  0.7490  0.3308  0.2179
  549MOL0     C73995   8.770   1.991   6.377 -0.3849  0.4025  0.1743
  549MOL0     C73996   8.689   2.106   6.315 -0.5532  1.0342  0.5491
  549MOL0     N73997   8.559   2.106   6.377 -0.3551  0.3807 -0.3635
  549MOL0     C73998   8.455   2.035   6.330 -0.1494  0.2116 -0.0236
  549MOL0     C73999   8.352   2.071   6.406 -0.1501  1.2576 -0.0375
  549MOL0     C74000   8.215   2.014   6.403  0.3982 -0.3890  0.2517
  549MOL0     C74001   8.144   2.034   6.269 -0.7702 -0.2492 -0.6668
  549MOL0     C74002   8.003   1.983   6.280  0.3477  0.3724  0.3784
  549MOL0     C74003   7.917   2.035   6.162  0.0439 -0.0671 -0.1868
  549MOL0     O74004   7.927   1.964   6.039 -0.7227  0.1751  1.3477
  549MOL0     C74005   7.840   1.992   5.938 -0.4051  0.3196 -0.1723
  549MOL0     C74006   7.847   1.904   5.830 -0.0601  0.6804 -0.3011
  549MOL0     C74007   7.749   1.912   5.726 -0.3393  0.4398 -1.0149
  549MOL0     C74008   7.662   2.022   5.714  1.4285  0.5514 -0.2199
  549MOL0     C74009   7.555   2.044   5.614 -0.2353 -0.4998 -0.0082
  549MOL0     O74010   7.525   1.927   5.536  0.1527 -0.2881  0.2746
  549MOL0     C74011   7.419   1.908   5.450  0.2003 -0.7581 -0.8007
  549MOL0     C74012   7.409   1.784   5.394 -0.9495 -0.1997  0.4066
  549MOL0     C74013   7.307   1.754   5.302  1.0200  0.0560 -0.0071
  549MOL0     C74014   7.212   1.847   5.261 -0.9029 -0.3898 -0.4900
  549MOL0     O74015   7.103   1.830   5.186  0.4934  0.0143  0.5508
  549MOL0     C74016   7.126   1.743   5.076  0.4600 -0.2850  0.3116
  549MOL0     C74017   6.985   1.720   5.023 -0.2929 -0.1131  0.3663
  549MOL0     C74018   6.922   1.841   4.960 -0.0660 -0.4157 -0.8714
  549MOL0     C74019   6.771   1.837   4.914 -0.4655 -0.6239 -0.9390
  549MOL0     C74020   6.733   1.759   4.795  0.0062  0.6159 -0.3959
  549MOL0     C74021   6.593   1.782   4.745 -0.2706 -0.4214 -0.2894
  549MOL0     C74022   6.554   1.677   4.649 -1.0349 -0.3079  0.3543
  549MOL0     C74023   6.410   1.701   4.589  0.1393 -0.1723  0.1176
  549MOL0    Cl74024   6.415   1.855   4.486  0.1645 -0.1775  0.4146
  549MOL0     C74025   7.229   1.972   5.312 -0.1730  0.3156  0.3005
  549MOL0     C74026   7.323   2.007   5.410  0.5256  0.1229  0.4557
  549MOL0     O74027   7.494   2.159   5.602 -0.4405  0.1813 -1.3210
  549MOL0     C74028   7.672   2.111   5.826  0.1786 -0.0277  0.7512
  549MOL0     C74029   7.758   2.098   5.939  0.4983 -0.4544 -0.6976
  549MOL0     N74030   8.392   2.154   6.506 -0.0721  0.2646  0.5944
  549MOL0     N74031   8.512   2.181   6.475  0.1490 -0.4015 -0.1119
  549MOL0     C74032   9.481   2.204   6.821 -0.8188 -0.3966 -0.2918
  549MOL0     C74033   9.597   2.279   6.844 -0.4623 -0.0807 -0.4381
  549MOL0     C74034   9.889   2.520   7.169  0.1895  0.1775 -0.6154
  549MOL0     C74035   9.917   2.617   7.070  0.0345 -1.2285 -0.7793
  549MOL0     C74036  10.008   2.722   7.098  0.2288 -0.2922 -0.3925
  549MOL0     C74037  10.075   2.732   7.220 -1.1000  0.3630  0.3488
  549MOL0     O74038  10.154   2.842   7.256 -0.1688  0.4468  0.5086
  549MOL0     C74039  10.257   2.894   7.170 -0.3080  0.1110 -0.4426
  549MOL0     C74040  10.371   2.788   7.149  0.6928  0.4671  0.6416
  549MOL0     C74041  10.428   2.731   7.276 -0.1186 -0.0874  0.0938
  549MOL0     C74042  10.549   2.806   7.344 -0.2479 -0.3566 -0.2466
  549MOL0     C74043  10.620   2.719   7.439  0.1096 -0.8933 -0.7879
  549MOL0     C74044  10.670   2.650   7.528 -0.0783 -0.0208 -0.3558
  549MOL0     C74045  10.058   2.635   7.313 -0.0226  1.0772 -0.2354
  549MOL0     C74046   9.968   2.528   7.293 -0.6724  0.2564  0.0566
  549MOL0     C74047   9.981   2.419   7.397  0.8606  0.0625  0.5256
  549MOL0     H74048   9.521   2.357   7.174 -1.3078  1.8782 -0.8393
  549MOL0     H74049   9.331   2.218   7.125 -2.0702  0.8249 -1.0392
  549MOL0     H74050   9.159   2.181   7.028 -0.9455  2.2572 -0.7006
  549MOL0     H74051   9.130   2.235   6.873 -0.7540  1.3787  0.7673
  549MOL0     H74052   8.965   2.075   6.972  1.4299  1.3527  0.6950
  549MOL0     H74053   9.071   1.939   6.950 -1.7385 -1.6163 -0.4896
  549MOL0     H74054   9.070   2.012   6.698 -0.4939 -0.2560 -1.1839
  549MOL0     H74055   8.926   2.107   6.740 -0.5501 -0.3206  1.6538
  549MOL0     H74056   8.949   1.797   6.780  0.3723 -0.3394  0.9019
  549MOL0     H74057   8.805   1.896   6.797 -1.0537 -1.8518 -2.1489
  549MOL0     H74058   8.969   1.892   6.536  0.3741  0.3599 -1.4621
  549MOL0     H74059   8.816   1.802   6.563  0.7106  0.3280 -2.5491
  549MOL0     H74060   8.703   2.027   6.585  0.7737  3.1912 -0.4208
  549MOL0     H74061   8.853   2.102   6.553 -0.0516  0.1902  3.4219
  549MOL0     H74062   8.730   1.890   6.366 -0.4802  0.2770  1.4623
  549MOL0     H74063   8.858   1.998   6.312 -2.5408  0.0885 -3.0170
  549MOL0     H74064   8.731   2.206   6.332  0.3633  0.7307  0.1785
  549MOL0     H74065   8.692   2.082   6.208  0.3760 -1.7257  1.1287
  549MOL0     H74066   8.444   1.967   6.246  3.5936  3.3235 -3.3920
  549MOL0     H74067   8.204   1.906   6.418 -4.3267 -0.0540  0.7616
  549MOL0     H74068   8.162   2.055   6.489 -0.6483 -2.3357  0.6025
  549MOL0     H74069   8.150   2.142   6.250 -2.5696 -0.3569 -2.0935
  549MOL0     H74070   8.203   1.988   6.189 -0.3136 -1.0985  0.1477
  549MOL0     H74071   7.960   2.002   6.379 -2.2135 -3.2720  0.1529
  549MOL0     H74072   8.016   1.876   6.263  2.7473  0.7465 -0.5434
  549MOL0     H74073   7.930   2.143   6.150 -3.2368  0.2653 -1.9044
  549MOL0     H74074   7.813   2.018   6.192  0.1477 -0.1340  0.1441
  549MOL0     H74075   7.933   1.837   5.826  0.8431  1.8813 -1.5440
  549MOL0     H74076   7.742   1.839   5.646 -2.4528 -0.3220 -0.2145
  549MOL0     H74077   7.478   1.702   5.415 -0.8281  0.0591  1.0399
  549MOL0     H74078   7.299   1.650   5.272 -0.9003 -0.0361  0.6933
  549MOL0     H74079   7.190   1.777   4.994  1.4666 -3.2372 -0.2399
  549MOL0     H74080   7.166   1.648   5.112 -0.2449 -0.6340  0.1915
  549MOL0     H74081   6.987   1.635   4.954  2.9503 -0.3564  0.6181
  549MOL0     H74082   6.920   1.691   5.106  0.5905 -1.1488  0.7267
  549MOL0     H74083   6.920   1.918   5.039  0.8275 -0.7324 -0.5371
  549MOL0     H74084   6.984   1.889   4.885 -0.0081 -1.4574 -1.5088
  549MOL0     H74085   6.747   1.941   4.891 -2.2294 -0.3994  1.4926
  549MOL0     H74086   6.712   1.814   5.003 -1.1627  0.3380 -1.1326
  549MOL0     H74087   6.744   1.653   4.820 -4.2939 -0.5022 -2.3306
  549MOL0     H74088   6.818   1.769   4.726  0.2483 -3.7318 -1.0052
  549MOL0     H74089   6.523   1.782   4.828 -0.5952  0.1506 -0.5567
  549MOL0     H74090   6.587   1.881   4.698 -3.0466  0.1416  1.0934
  549MOL0     H74091   6.554   1.580   4.701 -2.1265  1.7230  4.6332
  549MOL0     H74092   6.619   1.682   4.562  0.5377 -0.2881  1.4870
  549MOL0     H74093   6.358   1.624   4.531  1.4974 -0.3605 -0.8892
  549MOL0     H74094   6.347   1.704   4.679  0.4575  1.0980  0.3112
  549MOL0     H74095   7.163   2.051   5.276  1.3500  0.4363 -2.5424
  549MOL0     H74096   7.321   2.114   5.431  0.4128  0.7766 -2.4452
  549MOL0     H74097   7.605   2.196   5.829  0.4594  0.4819 -2.7181
  549MOL0     H74098   7.752   2.161   6.027  0.2614 -0.6042 -0.6055
  549MOL0     H74099   9.472   2.159   6.723 -1.7843 -0.7357 -0.0527
  549MOL0     H74100   9.663   2.287   6.758 -1.4483 -2.1626 -1.4495
  549MOL0     H74101   9.878   2.608   6.969  1.4715 -0.1922 -1.4588
  549MOL0     H74102  10.023   2.799   7.023  0.7304  1.2598  1.2166
  549MOL0     H74103  10.305   2.979   7.220 -3.3163 -0.3759  3.8073
  549MOL0     H74104  10.207   2.921   7.076  1.7270  2.4712 -0.9792
  549MOL0     H74105  10.444   2.842   7.089  0.5116 -1.3623 -1.3544
  549MOL0     H74106  10.332   2.701   7.095 -3.8230  0.0196  4.0174
  549MOL0     H74107  10.443   2.626   7.249  0.6796  0.6358 -2.5076
  549MOL0     H74108  10.357   2.732   7.359  1.0062 -1.6307  1.1405
  549MOL0     H74109  10.620   2.848   7.272  0.4760  0.9868  1.1716
  549MOL0     H74110  10.509   2.898   7.388  0.7470  1.5259 -2.9926
  549MOL0     H74111  10.728   2.586   7.591 -0.5769 -2.0401 -1.8446
  549MOL0     H74112  10.121   2.646   7.401  1.3014 -2.4764 -0.5494
  549MOL0     H74113   9.882   2.374   7.411 -0.3499  2.3664 -0.1795
  549MOL0     H74114  10.035   2.343   7.340  0.0106 -0.9009  0.9618
  549MOL0     H74115  10.014   2.451   7.497  0.1268 -2.3491  1.6300
  550MOL0     O74116  11.213   6.201   1.312 -0.1167 -0.3468  0.1406
  550MOL0     C74117  11.330   6.232   1.280 -0.8144 -0.7405 -0.3081
  550MOL0     O74118  11.381   6.355   1.309 -0.9034 -0.3842 -0.3658
  550MOL0     C74119  11.294   6.467   1.317 -0.4298  0.7731 -0.3393
  550MOL0     C74120  11.190   6.485   1.220  1.0291  0.1500 -0.2375
  550MOL0     C74121  11.095   6.585   1.211 -0.3449 -0.1499 -1.2005
  550MOL0     C74122  11.108   6.694   1.302  0.4667 -0.1719 -0.9261
  550MOL0     O74123  11.011   6.795   1.300 -0.4316  0.0276 -0.2504
  550MOL0     C74124  11.018   6.913   1.381 -0.6266  0.9588  0.1388
  550MOL0     C74125  10.921   7.027   1.349 -0.0311 -0.1591  0.4649
  550MOL0     C74126  10.779   6.977   1.370  0.9253 -0.0386  0.2925
  550MOL0     C74127  10.674   7.078   1.323 -0.1739  0.0169 -0.2319
  550MOL0     C74128  10.537   7.069   1.393  0.1423  0.8562 -0.1465
  550MOL0     C74129  10.471   6.930   1.393  0.3488 -0.3208 -0.6602
  550MOL0     C74130  10.458   6.874   1.257  0.0893 -0.3318  0.5403
  550MOL0     C74131  10.365   6.953   1.165 -0.8109  0.2729  0.3314
  550MOL0     N74132  10.292   6.877   1.065 -0.3766  0.2636  0.2630
  550MOL0     C74133  10.181   6.805   1.093 -0.1370  0.1789  0.6590
  550MOL0     C74134  10.175   6.721   0.988 -0.7439 -0.2903 -0.4068
  550MOL0     C74135  10.094   6.600   0.964 -0.3986  0.2092  0.1550
  550MOL0     C74136  10.188   6.480   0.995  0.3096 -0.7093  0.1834
  550MOL0     C74137  10.114   6.354   0.968 -0.4770 -0.0496 -0.4606
  550MOL0     C74138  10.225   6.246   0.926 -0.1101 -0.6241  0.6959
  550MOL0     O74139  10.179   6.115   0.952  0.4313 -0.6488  0.5835
  550MOL0     C74140  10.279   6.023   0.954 -0.4248 -0.4138 -0.7611
  550MOL0     C74141  10.361   5.991   0.845  0.8940 -0.0749 -0.3005
  550MOL0     C74142  10.456   5.886   0.859 -0.5193  0.2324 -0.4368
  550MOL0     C74143  10.469   5.810   0.977  0.3938  0.3731  0.0901
  550MOL0     C74144  10.554   5.694   0.988  0.0781  0.6867 -0.0226
  550MOL0     O74145  10.499   5.587   1.046  0.8871 -0.2393 -0.3908
  550MOL0     C74146  10.563   5.466   1.066  0.1989 -0.1275 -0.6755
  550MOL0     C74147  10.702   5.455   1.086  0.0079 -0.7577 -0.0781
  550MOL0     C74148  10.749   5.328   1.114 -0.4388  0.6012 -0.3478
  550MOL0     C74149  10.667   5.218   1.156  0.1297 -0.3839 -0.4637
  550MOL0     O74150  10.726   5.113   1.220 -0.1529 -0.1592  0.5354
  550MOL0     C74151  10.660   4.985   1.226  0.4594  0.3001 -0.2998
  550MOL0     C74152  10.759   4.895   1.288 -0.1295  0.0666 -0.6125
  550MOL0     C74153  10.714   4.771   1.370 -0.2504 -0.6339  0.2576
  550MOL0     C74154  10.621   4.678   1.292 -1.0900  0.4511 -0.4396
  550MOL0     C74155  10.573   4.564   1.378  0.6372 -0.1005 -0.0495
  550MOL0     C74156  10.500   4.603   1.505  0.2713 -0.7684  0.8967
  550MOL0     C74157  10.448   4.474   1.580 -0.4542 -0.3553 -0.2027
  550MOL0     C74158  10.443   4.510   1.726  0.2168  0.3731 -0.5227
  550MOL0    Cl74159  10.423   4.352   1.816  0.1394  0.2707 -0.5399
  550MOL0     C74160  10.529   5.238   1.150  0.7016 -0.4810  0.5061
  550MOL0     C74161  10.477   5.363   1.103 -0.9086 -0.1511 -0.0183
  550MOL0     O74162  10.665   5.696   0.923  0.2762 -0.4429  0.6890
  550MOL0     C74163  10.374   5.839   1.079 -0.7158 -0.6339  0.3105
  550MOL0     C74164  10.287   5.946   1.064  0.9316  0.2059  0.0820
  550MOL0     N74165  10.270   6.760   0.889  0.5748  0.2480  0.2434
  550MOL0     N74166  10.349   6.846   0.940 -0.2951 -0.2737 -0.2216
  550MOL0     C74167  11.212   6.687   1.399 -0.4298  1.1012 -0.3185
  550MOL0     C74168  11.309   6.576   1.401  0.4335  0.4762 -0.2938
  550MOL0     C74169  11.408   6.157   1.174 -0.1553  0.1524 -0.5729
  550MOL0     C74170  11.496   6.233   1.085 -0.7702  0.6598  0.6330
  550MOL0     C74171  11.571   6.170   0.981 -0.3021  0.0253 -0.2477
  550MOL0     C74172  11.556   6.031   0.966 -0.5375 -0.6842  0.3495
  550MOL0     O74173  11.605   5.954   0.863 -0.4141  0.0840 -0.2847
  550MOL0     C74174  11.623   6.021   0.741 -0.1317 -0.3617 -0.3978
  550MOL0     C74175  11.495   5.998   0.655 -0.5097  0.1889 -0.5082
  550MOL0     C74176  11.511   6.031   0.504 -0.0229  0.1659  0.6028
  550MOL0     C74177  11.570   5.923   0.425  0.5014 -0.2894 -0.4145
  550MOL0     C74178  11.614   5.981   0.291 -0.3820  0.3793  0.4917
  550MOL0     C74179  11.639   6.035   0.187  0.3493  0.4459 -0.1320
  550MOL0     C74180  11.487   5.960   1.060  0.0695  0.4873 -0.8179
  550MOL0     C74181  11.411   6.018   1.164 -0.0366  0.4111 -0.4558
  550MOL0     C74182  11.342   5.929   1.272 -0.1295  0.6917 -0.3343
  550MOL0     H74183  11.174   6.411   1.142  1.5707 -2.5036  2.0250
  550MOL0     H74184  11.018   6.580   1.134 -0.2759  0.6707 -1.3275
  550MOL0     H74185  10.991   6.893   1.485 -1.2965  2.8172  0.3635
  550MOL0     H74186  11.120   6.953   1.367  1.1052 -2.9024  0.5259
  550MOL0     H74187  10.948   7.075   1.254 -0.9806 -0.4237  0.0403
  550MOL0     H74188  10.940   7.099   1.429 -0.4186 -0.3518  0.7348
  550MOL0     H74189  10.770   6.948   1.475  1.1950 -2.2206 -0.2435
  550MOL0     H74190  10.757   6.887   1.312 -2.1458  1.1801 -0.6579
  550MOL0     H74191  10.728   7.173   1.333  1.3941 -0.5964 -2.3640
  550MOL0     H74192  10.655   7.057   1.218 -0.2081 -3.3715  0.3502
  550MOL0     H74193  10.552   7.089   1.499  2.1731 -3.2157  0.5519
  550MOL0     H74194  10.471   7.146   1.353 -2.5766 -0.8195  0.8230
  550MOL0     H74195  10.534   6.857   1.444  1.0545  0.4854 -0.3567
  550MOL0     H74196  10.375   6.935   1.446  0.4198  2.9785 -0.6262
  550MOL0     H74197  10.417   6.773   1.262  0.7692 -0.5622  1.6135
  550MOL0     H74198  10.559   6.868   1.213 -0.7651 -1.3744 -1.4059
  550MOL0     H74199  10.287   7.013   1.214  0.0204  2.0596 -0.4578
  550MOL0     H74200  10.427   7.024   1.110 -0.7962  0.8173  1.0359
  550MOL0     H74201  10.113   6.801   1.178 -0.7541  1.5787  0.2762
  550MOL0     H74202  10.010   6.594   1.033  0.1648 -2.3342  0.7233
  550MOL0     H74203  10.061   6.589   0.860 -0.3585  2.0336 -0.0800
  550MOL0     H74204  10.281   6.495   0.939  0.4532  0.1481  0.6254
  550MOL0     H74205  10.202   6.483   1.103  0.2374  1.1294  0.1868
  550MOL0     H74206  10.031   6.369   0.898 -0.3049  1.4178 -0.3893
  550MOL0     H74207  10.067   6.324   1.062  1.4692  1.1061  0.9757
  550MOL0     H74208  10.321   6.283   0.965  0.6060 -2.1734  0.4512
  550MOL0     H74209  10.240   6.260   0.818 -0.1446  3.0833  1.0172
  550MOL0     H74210  10.350   6.046   0.752 -0.1786  2.8210  1.3977
  550MOL0     H74211  10.518   5.867   0.772  0.0164 -0.9356  0.1875
  550MOL0     H74212  10.762   5.544   1.069  0.7177 -0.9993  1.0533
  550MOL0     H74213  10.856   5.318   1.103 -0.3796 -1.0806  1.2042
  550MOL0     H74214  10.564   4.992   1.279  0.3074 -1.9118 -0.1763
  550MOL0     H74215  10.654   4.953   1.122  2.4617  0.5107 -0.5191
  550MOL0     H74216  10.835   4.867   1.215 -1.1602  0.9579 -2.0754
  550MOL0     H74217  10.818   4.956   1.358  0.0598 -0.2183 -0.5211
  550MOL0     H74218  10.806   4.719   1.398  0.9445  1.8624  1.3266
  550MOL0     H74219  10.677   4.799   1.469 -0.7571 -0.7186  0.0971
  550MOL0     H74220  10.679   4.643   1.207  0.2528 -0.7060  0.8961
  550MOL0     H74221  10.531   4.729   1.255 -1.9316 -1.0846 -0.5703
  550MOL0     H74222  10.661   4.506   1.409 -0.2359 -1.1484  0.5046
  550MOL0     H74223  10.509   4.502   1.315  0.1492 -2.7830  2.8552
  550MOL0     H74224  10.566   4.654   1.576 -0.2108  1.8163 -0.4101
  550MOL0     H74225  10.421   4.673   1.477  1.4650 -0.8167 -3.2519
  550MOL0     H74226  10.523   4.395   1.587 -2.2758 -2.3055 -1.5447
  550MOL0     H74227  10.365   4.421   1.533 -3.8166  1.3587  3.1855
  550MOL0     H74228  10.536   4.556   1.759  0.6368 -0.4904 -0.4838
  550MOL0     H74229  10.354   4.572   1.740  0.2915  1.2075 -3.1535
  550MOL0     H74230  10.448   5.173   1.180  0.8864 -0.6876  0.5596
  550MOL0     H74231  10.372   5.387   1.090  0.0720  3.8588 -1.9660
  550MOL0     H74232  10.368   5.786   1.173 -0.6870  1.8583  1.8203
  550MOL0     H74233  10.222   5.971   1.148 -0.3117 -1.7692 -0.2238
  550MOL0     H74234  11.235   6.768   1.468  3.4709 -0.3129  0.3147
  550MOL0     H74235  11.394   6.588   1.468 -0.5162  0.3739  0.9568
  550MOL0     H74236  11.489   6.341   1.095 -3.4916  0.5364  0.8677
  550MOL0     H74237  11.636   6.234   0.923 -1.6385  4.8553  3.0053
  550MOL0     H74238  11.702   5.966   0.689 -1.3388 -3.3603  0.7114
  550MOL0     H74239  11.658   6.125   0.743  2.8241 -1.2261 -1.7442
  550MOL0     H74240  11.408   6.049   0.698  1.2917  2.2723  0.9031
  550MOL0     H74241  11.465   5.893   0.667  0.7095 -0.3168 -1.6970
  550MOL0     H74242  11.570   6.123   0.508 -1.0782  0.9506 -0.8324
  550MOL0     H74243  11.414   6.068   0.469  1.1504  1.3687 -1.5564
  550MOL0     H74244  11.644   5.881   0.494  0.2866 -0.9944 -0.5998
  550MOL0     H74245  11.487   5.855   0.403  0.4127  0.1878 -1.6675
  550MOL0     H74246  11.655   6.066   0.085 -0.1098 -1.7163 -0.9241
  550MOL0     H74247  11.514   5.855   1.057 -1.7628 -0.1394 -5.9760
  550MOL0     H74248  11.234   5.932   1.261 -0.2957 -1.7811  0.1376
  550MOL0     H74249  11.382   5.829   1.254  0.5292  1.3003 -2.6285
  550MOL0     H74250  11.365   5.966   1.373 -1.3923  1.6463 -0.3747
  551MOL0     O74251  10.879   3.511   6.120  0.9794 -1.1706  0.0227
  551MOL0     C74252  10.970   3.468   6.048  0.6483  0.7952 -0.6317
  551MOL0     O74253  11.080   3.413   6.095 -0.2971  0.0920  0.4312
  551MOL0     C74254  11.134   3.478   6.202  0.4726 -0.3570 -0.0936
  551MOL0     C74255  11.135   3.421   6.328 -0.5417  0.9563 -0.6289
  551MOL0     C74256  11.170   3.499   6.439 -1.0604 -0.5192 -0.4217
  551MOL0     C74257  11.230   3.623   6.422 -0.3598  0.4011  0.4251
  551MOL0     O74258  11.289   3.688   6.526 -0.5341  0.4617 -0.1904
  551MOL0     C74259  11.433   3.699   6.525  0.4647 -0.1484  0.7280
  551MOL0     C74260  11.498   3.562   6.535  0.0486  0.2554  0.0393
  551MOL0     C74261  11.652   3.577   6.510  0.7167 -0.6801 -0.0594
  551MOL0     C74262  11.688   3.571   6.354  0.3568  0.6675  0.4826
  551MOL0     C74263  11.826   3.533   6.314 -0.4054  0.1238  0.5012
  551MOL0     C74264  11.878   3.410   6.387  0.4031  0.9137  0.1010
  551MOL0     C74265  12.003   3.373   6.318  0.5500 -0.1160 -0.0883
  551MOL0     C74266  12.107   3.283   6.396 -0.5718 -0.5076 -0.6029
  551MOL0     N74267  12.054   3.173   6.468 -0.1210 -1.0467  0.0662
  551MOL0     C74268  11.979   3.065   6.422 -0.9417 -0.0071  0.6890
  551MOL0     C74269  11.963   2.989   6.529  0.1945  0.0993 -1.7490
  551MOL0     C74270  11.898   2.860   6.542  0.3573  0.0782  0.3596
  551MOL0     C74271  11.784   2.852   6.448  0.4285  0.2970 -0.2804
  551MOL0     C74272  11.698   2.723   6.460  0.0170 -0.4039 -0.3487
  551MOL0     C74273  11.733   2.621   6.351  0.0762 -0.4712 -0.1439
  551MOL0     O74274  11.652   2.500   6.355  0.8281  0.3825 -0.8129
  551MOL0     C74275  11.516   2.511   6.353  0.9617  0.6664 -0.1398
  551MOL0     C74276  11.446   2.599   6.274 -1.2529  0.7680  1.2489
  551MOL0     C74277  11.310   2.608   6.280  0.5654  0.6401 -0.0261
  551MOL0     C74278  11.240   2.506   6.344  1.1860  0.7941 -0.6890
  551MOL0     C74279  11.087   2.510   6.343  0.7554  0.6623  0.6773
  551MOL0     O74280  11.023   2.413   6.403  0.5910 -0.7598 -0.5400
  551MOL0     C74281  10.888   2.433   6.418 -0.0703 -0.1635  0.3849
  551MOL0     C74282  10.800   2.360   6.329 -0.0029  0.2552  0.0783
  551MOL0     C74283  10.661   2.390   6.340 -0.4464 -1.1307  0.8182
  551MOL0     C74284  10.614   2.477   6.439 -0.8344 -0.0430  0.3250
  551MOL0     O74285  10.480   2.497   6.457  0.0556 -0.1306 -0.7349
  551MOL0     C74286  10.392   2.481   6.348 -0.7361  0.3065 -0.2723
  551MOL0     C74287  10.249   2.505   6.382  0.1701  0.2056 -0.2776
  551MOL0     C74288  10.166   2.505   6.248  0.1072  0.4133 -0.3072
  551MOL0     C74289  10.024   2.564   6.266 -0.3640  0.1534 -0.6603
  551MOL0     C74290   9.953   2.573   6.135 -0.5819  0.0225 -0.3237
  551MOL0     C74291   9.812   2.635   6.145  0.3577 -0.5051 -0.0778
  551MOL0     C74292   9.713   2.529   6.162  1.3461  0.0143  0.8396
  551MOL0     C74293   9.592   2.581   6.249 -0.2487  0.4369 -0.3392
  551MOL0    Cl74294   9.459   2.459   6.245 -0.3825 -0.0953 -0.1635
  551MOL0     C74295  10.694   2.532   6.527 -0.5464 -0.6664  0.5372
  551MOL0     C74296  10.835   2.520   6.511  0.6960 -0.3137 -0.2556
  551MOL0     O74297  11.029   2.608   6.291  0.4918 -0.4124  0.3462
  551MOL0     C74298  11.304   2.415   6.431 -0.2366  0.7924  0.7188
  551MOL0     C74299  11.442   2.414   6.440 -0.7579 -0.3770  0.0649
  551MOL0     N74300  12.029   3.051   6.638  0.6873  0.1630  0.7659
  551MOL0     N74301  12.079   3.157   6.600 -0.1265 -1.2215 -0.8575
  551MOL0     C74302  11.241   3.678   6.291 -0.3806 -0.4521 -0.7166
  551MOL0     C74303  11.190   3.606   6.186 -1.1272  0.7934 -0.2188
  551MOL0     C74304  10.931   3.482   5.904 -0.2944  0.2626  0.2516
  551MOL0     C74305  10.797   3.489   5.866  0.0311  0.6651 -0.6118
  551MOL0     C74306  10.757   3.483   5.730  0.0793  0.2695  0.1133
  551MOL0     C74307  10.842   3.478   5.621  1.0763 -0.3648  0.4357
  551MOL0     O74308  10.801   3.471   5.489 -0.5135  0.1741  0.1115
  551MOL0     C74309  10.669   3.413   5.464 -0.6064 -0.5172  0.0955
  551MOL0     C74310  10.650   3.408   5.314  0.2346 -0.0687 -0.8136
  551MOL0     C74311  10.749   3.318   5.238 -0.2849  0.5129  0.5258
  551MOL0     C74312  10.723   3.172   5.279  0.5266  0.9483 -0.2490
  551MOL0     C74313  10.741   3.078   5.171  0.4601 -0.8749  0.3995
  551MOL0     C74314  10.722   3.016   5.071 -1.3636  0.2781  0.3318
  551MOL0     C74315  10.978   3.478   5.663 -0.3857 -1.0590 -0.1993
  551MOL0     C74316  11.024   3.478   5.800 -1.0542  0.2685 -0.3649
  551MOL0     C74317  11.169   3.467   5.824  0.7642  0.6045  0.2800
  551MOL0     H74318  11.092   3.322   6.342  0.0268  0.6409 -1.0833
  551MOL0     H74319  11.168   3.457   6.540  1.1074  0.2396 -0.0041
  551MOL0     H74320  11.467   3.759   6.440 -1.0624  1.2542  1.0624
  551MOL0     H74321  11.451   3.754   6.618 -0.0668 -0.8274  1.2475
  551MOL0     H74322  11.463   3.489   6.462 -0.6175  1.1866 -0.6035
  551MOL0     H74323  11.486   3.526   6.638  0.5450  1.8856  0.6997
  551MOL0     H74324  11.705   3.500   6.567 -0.2694 -1.5066 -0.2413
  551MOL0     H74325  11.683   3.674   6.550 -2.3496  0.2326  0.3032
  551MOL0     H74326  11.617   3.506   6.302 -0.0112  1.3533  0.1090
  551MOL0     H74327  11.659   3.671   6.318 -2.1337  0.3567  1.3801
  551MOL0     H74328  11.830   3.517   6.206  1.2568  2.3650  0.1465
  551MOL0     H74329  11.898   3.612   6.337 -0.8619  0.7142 -0.0375
  551MOL0     H74330  11.884   3.423   6.496 -2.6248  1.1205  0.3346
  551MOL0     H74331  11.804   3.330   6.381  0.3021  0.9942  0.2710
  551MOL0     H74332  12.053   3.462   6.277  2.1708  0.6375  3.1676
  551MOL0     H74333  11.985   3.314   6.228  3.1185  0.0634 -0.8096
  551MOL0     H74334  12.192   3.260   6.331  0.3653  1.4701 -0.1648
  551MOL0     H74335  12.147   3.354   6.470 -0.9915 -0.1569 -0.7087
  551MOL0     H74336  11.940   3.029   6.327 -1.6191  2.1012  0.1048
  551MOL0     H74337  11.970   2.778   6.531 -2.9803 -3.5251  2.6612
  551MOL0     H74338  11.856   2.844   6.642 -1.5411 -2.9494 -0.7718
  551MOL0     H74339  11.721   2.930   6.491  0.3546 -0.5267  1.1566
  551MOL0     H74340  11.808   2.879   6.344 -1.3021 -1.8078 -1.3058
  551MOL0     H74341  11.599   2.766   6.443  0.5045  0.6483 -0.5751
  551MOL0     H74342  11.706   2.687   6.563  2.3940 -0.5022 -0.5246
  551MOL0     H74343  11.837   2.590   6.362  1.0894  1.7854 -2.5216
  551MOL0     H74344  11.726   2.661   6.250 -0.4020 -3.2128 -1.2822
  551MOL0     H74345  11.488   2.657   6.192  1.6353  0.0147  2.1066
  551MOL0     H74346  11.255   2.677   6.217  0.8796  1.2139  0.3146
  551MOL0     H74347  10.839   2.285   6.262  1.2350 -0.2119  1.2672
  551MOL0     H74348  10.601   2.345   6.261  0.4689 -0.6522 -0.1795
  551MOL0     H74349  10.426   2.537   6.259  1.3346 -2.8506 -1.6459
  551MOL0     H74350  10.402   2.379   6.311 -1.2210  0.3600 -0.5648
  551MOL0     H74351  10.211   2.429   6.450 -0.6535  1.6053  0.8666
  551MOL0     H74352  10.232   2.604   6.426 -1.2491 -0.3476  0.4638
  551MOL0     H74353  10.207   2.559   6.162  1.7810 -0.9635 -0.4335
  551MOL0     H74354  10.144   2.408   6.203 -3.2947  0.1516  1.6105
  551MOL0     H74355  10.017   2.668   6.297 -0.0682  0.2591 -0.9432
  551MOL0     H74356   9.980   2.500   6.344  1.8695 -0.9525 -0.2053
  551MOL0     H74357   9.938   2.475   6.089 -0.0071 -0.0070 -0.4549
  551MOL0     H74358  10.016   2.622   6.059 -0.7609 -3.3603 -2.8841
  551MOL0     H74359   9.810   2.709   6.225 -0.6337 -2.3971  1.7317
  551MOL0     H74360   9.791   2.692   6.054 -0.0945 -1.5369 -0.6465
  551MOL0     H74361   9.752   2.440   6.212  3.4314  0.5440  0.2557
  551MOL0     H74362   9.672   2.510   6.062 -0.4556 -1.1811  1.7577
  551MOL0     H74363   9.615   2.598   6.355 -2.5002  2.5399 -0.1166
  551MOL0     H74364   9.553   2.676   6.212 -2.0517  0.9991  2.6349
  551MOL0     H74365  10.643   2.597   6.598 -1.3100 -0.5164 -0.1331
  551MOL0     H74366  10.911   2.569   6.571 -0.2039 -2.2708  2.7223
  551MOL0     H74367  11.240   2.340   6.476  0.1338  0.8493  1.3536
  551MOL0     H74368  11.494   2.338   6.497  1.0454 -0.0588 -1.0762
  551MOL0     H74369  11.287   3.772   6.264 -0.9101  0.7211  2.0425
  551MOL0     H74370  11.190   3.649   6.086  1.0451 -2.4234 -1.7792
  551MOL0     H74371  10.727   3.505   5.947  1.0146 -0.3218  0.4842
  551MOL0     H74372  10.649   3.485   5.727 -0.0100 -1.8429 -3.1776
  551MOL0     H74373  10.599   3.486   5.506 -0.8442  0.2965 -1.6158
  551MOL0     H74374  10.657   3.314   5.509 -4.8012 -0.5949 -0.7976
  551MOL0     H74375  10.657   3.511   5.276  1.8692 -0.1666 -0.8447
  551MOL0     H74376  10.544   3.382   5.300  0.0684  0.5580 -0.7674
  551MOL0     H74377  10.852   3.350   5.260  0.7354 -1.8745 -0.4688
  551MOL0     H74378  10.725   3.320   5.132 -0.5192  1.2404  0.5891
  551MOL0     H74379  10.804   3.144   5.347  1.4026 -0.6354 -1.8195
  551MOL0     H74380  10.627   3.154   5.329  0.0537  2.2821 -0.6515
  551MOL0     H74381  10.702   2.977   4.974  0.9076 -0.2188 -0.0045
  551MOL0     H74382  11.053   3.482   5.584 -0.8284 -0.3666 -0.5917
  551MOL0     H74383  11.208   3.377   5.873  2.3734 -0.0822 -2.0740
  551MOL0     H74384  11.230   3.485   5.735 -0.9419  1.8489 -0.7029
  551MOL0     H74385  11.187   3.545   5.899 -0.6200 -0.8914  2.2735
  552MOL0     O74386  11.350   7.124   1.474  0.0583  0.5966 -0.3571
  552MOL0     C74387  11.426   7.193   1.403 -0.5434  0.1849  0.1513
  552MOL0     O74388  11.387   7.306   1.336  0.7845  0.4489  0.1394
  552MOL0     C74389  11.251   7.334   1.342 -1.3731  0.4907 -0.9566
  552MOL0     C74390  11.201   7.418   1.443 -0.6008 -0.3106 -0.9573
  552MOL0     C74391  11.069   7.449   1.447  0.6967 -0.1428  0.2282
  552MOL0     C74392  10.989   7.407   1.348  1.2773 -0.4480 -0.1231
  552MOL0     O74393  10.862   7.458   1.346  0.7351  0.0932 -0.3779
  552MOL0     C74394  10.823   7.544   1.235  0.9153 -0.1888 -0.1737
  552MOL0     C74395  10.691   7.493   1.186 -0.2966 -0.3815  0.5535
  552MOL0     C74396  10.590   7.519   1.283 -0.6441  0.6265 -0.3526
  552MOL0     C74397  10.466   7.437   1.269  0.2945  0.0927  0.2376
  552MOL0     C74398  10.350   7.473   1.369 -0.2315 -0.0726 -0.1920
  552MOL0     C74399  10.232   7.376   1.345  0.2195  0.8708  0.1718
  552MOL0     C74400  10.100   7.429   1.391  0.5990  0.5851  1.0959
  552MOL0     C74401   9.988   7.352   1.322 -0.4009  0.2340 -0.6559
  552MOL0     N74402   9.982   7.201   1.356  0.1680 -0.7220 -0.0239
  552MOL0     C74403   9.863   7.139   1.396  0.7023  0.4493 -0.1543
  552MOL0     C74404   9.896   7.006   1.395 -0.2651  0.8200 -0.7680
  552MOL0     C74405   9.810   6.899   1.454  0.3923  0.2340 -0.7861
  552MOL0     C74406   9.744   6.804   1.351  0.4111 -0.2095  0.4290
  552MOL0     C74407   9.660   6.696   1.409 -0.1266 -0.1179  0.8715
  552MOL0     C74408   9.734   6.592   1.489 -0.0557  0.2749 -0.0315
  552MOL0     O74409   9.790   6.508   1.387  0.7009  0.1535 -0.3076
  552MOL0     C74410   9.879   6.416   1.429 -0.3244  0.1448  0.8666
  552MOL0     C74411   9.855   6.331   1.536 -0.8039 -0.0360 -0.2019
  552MOL0     C74412   9.941   6.221   1.555 -0.0483  0.6619 -0.2591
  552MOL0     C74413  10.053   6.200   1.465 -0.9337  0.2903  0.7790
  552MOL0     C74414  10.136   6.073   1.467  0.9077  0.0200 -0.3629
  552MOL0     O74415  10.096   5.969   1.565 -0.6208 -0.2828  0.0274
  552MOL0     C74416  10.144   5.844   1.539 -0.1746 -0.3746 -0.1981
  552MOL0     C74417  10.050   5.741   1.526  0.1043 -0.5885 -0.4151
  552MOL0     C74418  10.099   5.611   1.508 -0.0298 -0.6920 -0.0493
  552MOL0     C74419  10.238   5.582   1.507  0.8561 -0.7854 -0.7338
  552MOL0     O74420  10.278   5.452   1.487 -0.9678  0.0358  0.3192
  552MOL0     C74421  10.417   5.410   1.497 -0.0704  0.2079  0.3783
  552MOL0     C74422  10.449   5.373   1.642  0.0555  0.2900  0.2583
  552MOL0     C74423  10.378   5.245   1.681  0.5466 -0.3880  0.0440
  552MOL0     C74424  10.419   5.181   1.811  0.2533  0.4172  0.2344
  552MOL0     C74425  10.314   5.088   1.868 -0.3606 -0.4307  0.4241
  552MOL0     C74426  10.364   5.018   1.989  0.4327 -0.0931 -0.5297
  552MOL0     C74427  10.358   5.112   2.111 -0.6132  0.6840 -0.8929
  552MOL0     C74428  10.208   5.121   2.170 -0.8009 -0.6975  0.2216
  552MOL0    Cl74429  10.242   5.231   2.318  0.4286  0.2520 -0.0308
  552MOL0     C74430  10.320   5.696   1.528  0.2611  1.1639  0.4201
  552MOL0     C74431  10.280   5.823   1.547  0.0429  1.2340  0.3705
  552MOL0     O74432  10.223   6.062   1.377  0.4982  0.2675  0.1443
  552MOL0     C74433  10.080   6.294   1.364 -0.6229  0.1832  1.2039
  552MOL0     C74434   9.987   6.393   1.341 -0.1496  0.9782 -0.3740
  552MOL0     N74435  10.026   6.992   1.352 -0.1750  0.4511 -0.5915
  552MOL0     N74436  10.074   7.105   1.332 -0.0335  0.2693 -0.0548
  552MOL0     C74437  11.028   7.325   1.241  0.0284  1.4357 -0.3300
  552MOL0     C74438  11.162   7.282   1.247 -1.5281 -0.1507 -0.2492
  552MOL0     C74439  11.568   7.148   1.386 -0.2150  0.2334 -0.2551
  552MOL0     C74440  11.654   7.238   1.333 -0.1324 -0.0964 -0.3964
  552MOL0     C74441  11.779   7.212   1.302  0.5896  0.5101 -0.3002
  552MOL0     C74442  11.828   7.081   1.313 -0.2084  0.8169  0.1391
  552MOL0     O74443  11.953   7.045   1.279 -0.1968 -0.2636  0.3193
  552MOL0     C74444  12.027   7.136   1.201  0.2143 -0.2023 -0.4095
  552MOL0     C74445  12.144   7.048   1.151 -0.1642  0.1454  0.1672
  552MOL0     C74446  12.248   7.014   1.268 -0.1668 -0.2050  0.5880
  552MOL0     C74447  12.321   6.875   1.247  0.7004  0.5239  0.2319
  552MOL0     C74448  12.229   6.758   1.266  0.6778  1.1416  0.0584
  552MOL0     C74449  12.166   6.653   1.301 -0.3772 -0.9230 -0.1041
  552MOL0     C74450  11.742   6.983   1.360 -0.1849  1.0951  0.1569
  552MOL0     C74451  11.618   7.019   1.403  0.0257 -0.3723  0.3735
  552MOL0     C74452  11.538   6.899   1.465 -0.6781  0.3249  0.1304
  552MOL0     H74453  11.271   7.453   1.519 -0.1035 -3.1809  0.0351
  552MOL0     H74454  11.027   7.513   1.524  0.6649 -1.8227  1.6417
  552MOL0     H74455  10.812   7.649   1.263 -2.3385 -0.9006  1.7799
  552MOL0     H74456  10.890   7.535   1.149 -2.7520 -0.8356 -3.2682
  552MOL0     H74457  10.706   7.392   1.146  3.4957 -0.3093  1.4331
  552MOL0     H74458  10.669   7.558   1.101 -0.1090 -0.1404  0.6890
  552MOL0     H74459  10.573   7.627   1.287  0.1252  0.7322  0.9512
  552MOL0     H74460  10.628   7.504   1.385  1.4489  1.7944 -0.8998
  552MOL0     H74461  10.422   7.445   1.170 -3.3906 -1.4713  1.5838
  552MOL0     H74462  10.503   7.334   1.274 -0.2929 -0.2511 -1.7394
  552MOL0     H74463  10.387   7.462   1.472 -0.8459  1.5157  0.2126
  552MOL0     H74464  10.329   7.576   1.339 -2.1225  0.2650  2.0201
  552MOL0     H74465  10.234   7.343   1.241  1.1317 -0.2608  0.5353
  552MOL0     H74466  10.253   7.288   1.407  0.0157  0.7639  0.0913
  552MOL0     H74467  10.087   7.527   1.344  4.0154 -0.1862 -1.8661
  552MOL0     H74468  10.095   7.415   1.500 -2.2515  0.7275  1.0572
  552MOL0     H74469   9.895   7.400   1.355 -0.1156  1.3421 -1.4203
  552MOL0     H74470  10.001   7.357   1.214 -0.2752 -0.4639 -0.6786
  552MOL0     H74471   9.765   7.180   1.417  0.1284  0.4977 -2.5593
  552MOL0     H74472   9.867   6.835   1.523  2.5456  0.9137 -1.8383
  552MOL0     H74473   9.730   6.953   1.505 -1.6498 -2.7414 -0.5720
  552MOL0     H74474   9.678   6.862   1.286 -0.0437 -2.2376 -1.0061
  552MOL0     H74475   9.819   6.768   1.281 -1.2719 -1.1323 -0.9506
  552MOL0     H74476   9.594   6.647   1.336  0.6922  2.1164 -1.5532
  552MOL0     H74477   9.595   6.758   1.470  0.1216 -0.4119  1.4404
  552MOL0     H74478   9.672   6.530   1.554  2.1470 -0.1469  1.7951
  552MOL0     H74479   9.812   6.640   1.548 -2.0309  0.6597  2.4305
  552MOL0     H74480   9.769   6.342   1.600 -0.6900  0.9470 -0.2004
  552MOL0     H74481   9.929   6.157   1.642  1.2278 -1.4691 -1.5643
  552MOL0     H74482   9.949   5.780   1.526  1.2951  2.7865 -0.7084
  552MOL0     H74483  10.028   5.528   1.500  0.5753 -1.2952  0.6429
  552MOL0     H74484  10.427   5.313   1.448  0.1525 -2.2455  4.7384
  552MOL0     H74485  10.490   5.486   1.466 -1.6115  2.8744  2.8625
  552MOL0     H74486  10.552   5.338   1.654 -0.3255 -1.0591 -0.2201
  552MOL0     H74487  10.421   5.462   1.699  3.2364  2.1279 -0.7781
  552MOL0     H74488  10.274   5.275   1.697  1.1034  2.2085 -0.6913
  552MOL0     H74489  10.392   5.174   1.599  3.8590 -0.9537  0.9266
  552MOL0     H74490  10.442   5.255   1.888  0.9027 -2.1832  2.6647
  552MOL0     H74491  10.504   5.119   1.782 -1.0100 -1.8890  1.2327
  552MOL0     H74492  10.301   5.016   1.786 -1.3552  0.5395 -0.2927
  552MOL0     H74493  10.226   5.147   1.892  1.0022  0.8265  2.5900
  552MOL0     H74494  10.287   4.941   1.994 -4.5372  4.2285 -1.8670
  552MOL0     H74495  10.461   4.968   1.974  0.3560 -0.4704  0.1792
  552MOL0     H74496  10.393   5.212   2.081 -0.7907  0.4851 -1.7924
  552MOL0     H74497  10.427   5.079   2.189 -0.9160  1.4550 -0.2911
  552MOL0     H74498  10.131   5.170   2.110  1.2319  1.9583 -0.4348
  552MOL0     H74499  10.175   5.022   2.204 -1.1194  0.0478  2.2533
  552MOL0     H74500  10.426   5.682   1.511 -0.2593 -1.6394 -1.2099
  552MOL0     H74501  10.347   5.906   1.564  1.3703 -0.0474  1.6130
  552MOL0     H74502  10.170   6.286   1.304 -0.9145  0.4586  0.7316
  552MOL0     H74503  10.004   6.472   1.269 -2.7333  0.3656 -1.7963
  552MOL0     H74504  10.961   7.287   1.165 -1.5824  1.4857  1.0142
  552MOL0     H74505  11.205   7.210   1.178 -0.3339 -1.7722  2.0883
  552MOL0     H74506  11.640   7.345   1.320  4.3134  0.4706 -2.2638
  552MOL0     H74507  11.848   7.291   1.278  0.9066  0.1022 -0.7381
  552MOL0     H74508  12.056   7.226   1.256 -2.1410  1.5230 -1.8286
  552MOL0     H74509  11.969   7.160   1.111  1.1298 -0.1772 -1.0089
  552MOL0     H74510  12.180   7.099   1.062 -1.2736 -0.2062 -0.5054
  552MOL0     H74511  12.097   6.955   1.116 -1.5082  0.0736  1.9997
  552MOL0     H74512  12.203   7.006   1.367 -1.5551 -0.4830 -0.0370
  552MOL0     H74513  12.327   7.089   1.274 -0.8214  0.4904  0.6291
  552MOL0     H74514  12.357   6.870   1.144 -2.9373 -2.4118 -1.1212
  552MOL0     H74515  12.398   6.859   1.322  0.1889 -2.0916  0.2628
  552MOL0     H74516  12.120   6.558   1.320  1.1885 -1.3471  1.8605
  552MOL0     H74517  11.778   6.881   1.366 -1.9874  0.5253  2.0862
  552MOL0     H74518  11.469   6.937   1.541 -1.2423 -0.2061 -0.1101
  552MOL0     H74519  11.465   6.855   1.397  0.2857  0.9102 -1.3205
  552MOL0     H74520  11.608   6.828   1.510 -0.1338 -0.7604 -2.2830
  553MOL0     O74521  11.151  10.849   3.659  0.1451 -1.0467  0.7473
  553MOL0     C74522  11.035  10.887   3.690 -0.4130  0.3903 -0.5719
  553MOL0     O74523  10.932  10.806   3.701  0.2734  0.4544 -0.6637
  553MOL0     C74524  10.815  10.840   3.776 -0.1089 -0.4643  0.7249
  553MOL0     C74525  10.696  10.792   3.727  0.4079 -0.5298  0.4472
  553MOL0     C74526  10.573  10.823   3.784 -0.0661 -0.7519  0.3105
  553MOL0     C74527  10.563  10.900   3.902  0.6182 -0.5602  0.2516
  553MOL0     O74528  10.442  10.919   3.966 -1.0341  0.0239 -0.1635
  553MOL0     C74529  10.403  11.054   3.988 -0.3023  0.7261 -0.6745
  553MOL0     C74530  10.267  11.073   3.915  0.1249 -0.3170  0.3045
  553MOL0     C74531  10.267  11.023   3.771 -1.2729  0.7413  0.0909
  553MOL0     C74532  10.138  11.061   3.707  0.7650  0.2617  0.4139
  553MOL0     C74533  10.141  11.023   3.557  0.0608 -0.1508  0.3927
  553MOL0     C74534  10.038  11.088   3.474  0.6177 -0.0006  0.2412
  553MOL0     C74535  10.058  11.055   3.330 -0.1123  0.0720  0.5083
  553MOL0     C74536   9.948  11.118   3.251  0.4865  0.8536  0.5419
  553MOL0     N74537   9.986  11.099   3.111  0.2631  0.1547  0.5659
  553MOL0     C74538  10.001  11.199   3.020  0.5659  0.4269 -0.2182
  553MOL0     C74539  10.005  11.133   2.900  0.0144  0.2974 -1.0964
  553MOL0     C74540  10.033  11.199   2.765 -0.7380 -0.0590  0.4542
  553MOL0     C74541   9.915  11.268   2.695  1.0839 -1.3790 -0.0743
  553MOL0     C74542   9.943  11.285   2.547 -0.6427 -0.3479 -0.2401
  553MOL0     C74543   9.819  11.294   2.469 -0.5377 -0.2740  0.7950
  553MOL0     O74544   9.737  11.393   2.533  0.1026  1.8687 -1.1225
  553MOL0     C74545   9.614  11.424   2.502 -0.1513 -0.6196  0.0421
  553MOL0     C74546   9.540  11.357   2.398 -0.5090 -0.9323 -0.3771
  553MOL0     C74547   9.414  11.398   2.356  0.0669  0.7205 -0.3847
  553MOL0     C74548   9.356  11.509   2.409 -0.5221 -0.0226  0.6709
  553MOL0     C74549   9.225  11.571   2.372  0.1517 -0.1226  0.7211
  553MOL0     O74550   9.154  11.667   2.445  0.6396  0.2102 -0.0901
  553MOL0     C74551   9.067  11.759   2.383 -1.0309 -0.5238 -0.5775
  553MOL0     C74552   8.974  11.722   2.286  0.6552  0.6452 -1.2152
  553MOL0     C74553   8.874  11.812   2.245 -0.3808 -0.3185 -0.1985
  553MOL0     C74554   8.879  11.946   2.283 -0.1580  0.3271 -1.1273
  553MOL0     O74555   8.791  12.021   2.215 -0.2755  0.8559  0.7803
  553MOL0     C74556   8.796  12.158   2.211  0.2868 -0.7335  0.2006
  553MOL0     C74557   8.678  12.235   2.150  0.9492  0.3319  0.2707
  553MOL0     C74558   8.566  12.245   2.262  0.7938  0.5430 -0.7421
  553MOL0     C74559   8.433  12.292   2.203  0.4025 -0.1460  0.0210
  553MOL0     C74560   8.323  12.272   2.313  0.0540  0.6686 -0.0846
  553MOL0     C74561   8.186  12.324   2.247  0.2865 -0.7493  0.0173
  553MOL0     C74562   8.094  12.287   2.360 -0.9066  0.1292 -0.4939
  553MOL0     C74563   7.949  12.310   2.316  0.1555  0.1551  0.2401
  553MOL0    Cl74564   7.873  12.160   2.260 -0.1691 -0.5388 -0.2687
  553MOL0     C74565   8.977  11.983   2.368  0.0853  0.3552 -0.5832
  553MOL0     C74566   9.075  11.898   2.422  0.5156 -0.1747 -0.4896
  553MOL0     O74567   9.201  11.538   2.253  0.3416  0.8859  0.5547
  553MOL0     C74568   9.434  11.581   2.498  0.9952 -0.1782  0.2954
  553MOL0     C74569   9.557  11.539   2.551  0.6719 -0.8932 -0.0558
  553MOL0     N74570   9.998  11.001   2.928 -0.1752 -0.0802 -0.2904
  553MOL0     N74571   9.965  10.979   3.052  0.5004 -0.3131 -0.1289
  553MOL0     C74572  10.686  10.942   3.954 -0.0628 -0.1564 -0.5509
  553MOL0     C74573  10.809  10.910   3.895 -0.0113  0.1539 -1.0047
  553MOL0     C74574  11.014  11.031   3.689  0.1868  0.0613 -0.7127
  553MOL0     C74575  10.900  11.088   3.620 -0.9776 -0.3696  0.2845
  553MOL0     C74576  10.885  11.226   3.618 -0.1028  0.7174  0.3954
  553MOL0     C74577  10.974  11.307   3.693 -0.3769  0.3309  0.6432
  553MOL0     O74578  10.958  11.434   3.711  0.4091 -0.6307  0.6051
  553MOL0     C74579  10.838  11.501   3.680  0.1083  0.5645  0.5828
  553MOL0     C74580  10.844  11.644   3.731  0.4748  0.4940 -0.1252
  553MOL0     C74581  10.915  11.760   3.650  0.3322  0.9760 -0.3949
  553MOL0     C74582  11.033  11.716   3.563 -0.5042 -0.1413 -0.3208
  553MOL0     C74583  11.089  11.841   3.525  0.5368  0.4021  0.3788
  553MOL0     C74584  11.158  11.932   3.499  0.4788 -0.2956  0.3530
  553MOL0     C74585  11.080  11.249   3.757  0.6087 -0.1059  0.8855
  553MOL0     C74586  11.099  11.115   3.756 -0.8487  0.6890 -1.5005
  553MOL0     C74587  11.216  11.059   3.846  0.4053  0.4934  0.9084
  553MOL0     H74588  10.710  10.719   3.648  2.3442  0.8538 -0.5697
  553MOL0     H74589  10.483  10.782   3.737 -1.2206  1.5564  0.3653
  553MOL0     H74590  10.395  11.082   4.094 -3.9508  0.8627 -0.8680
  553MOL0     H74591  10.470  11.123   3.937 -1.5320  2.5272  0.0193
  553MOL0     H74592  10.238  11.178   3.924  0.2769  0.1264 -3.0408
  553MOL0     H74593  10.193  11.012   3.968  3.0463 -2.5184  2.1843
  553MOL0     H74594  10.289  10.916   3.762 -0.6292  0.9839 -1.7444
  553MOL0     H74595  10.351  11.078   3.727  0.1537 -0.8283  0.7222
  553MOL0     H74596  10.047  11.025   3.755 -1.2558  1.9595 -1.8492
  553MOL0     H74597  10.127  11.170   3.714  3.4934  0.4805  3.1642
  553MOL0     H74598  10.237  11.032   3.505  0.4810 -4.4015  0.0463
  553MOL0     H74599  10.123  10.915   3.550  0.0537 -0.1580  0.5304
  553MOL0     H74600   9.939  11.051   3.504 -1.0222 -0.1372 -4.4359
  553MOL0     H74601  10.041  11.197   3.468  1.8333 -0.0877 -0.9269
  553MOL0     H74602  10.036  10.948   3.325 -3.0659  0.6499 -1.0915
  553MOL0     H74603  10.157  11.085   3.294 -1.6141  2.5339 -1.9284
  553MOL0     H74604   9.846  11.082   3.270  1.3359 -2.2331 -0.1130
  553MOL0     H74605   9.942  11.223   3.281  1.3325  0.3182  2.7743
  553MOL0     H74606   9.993  11.303   3.049 -0.7204  0.7747 -1.7207
  553MOL0     H74607  10.101  11.281   2.790  0.4739 -1.3882  1.6597
  553MOL0     H74608  10.081  11.122   2.704 -1.6642 -2.2337  2.3129
  553MOL0     H74609   9.829  11.202   2.709  0.0030  0.1267  0.6211
  553MOL0     H74610   9.908  11.363   2.749 -0.2484 -3.3923  3.6565
  553MOL0     H74611   9.993  11.194   2.512 -2.5616 -2.5131  2.2426
  553MOL0     H74612  10.000  11.376   2.523 -0.8791  0.6847  2.6827
  553MOL0     H74613   9.766  11.200   2.485 -0.6815 -0.5608 -1.2056
  553MOL0     H74614   9.835  11.317   2.364 -2.4550 -0.4362  0.4305
  553MOL0     H74615   9.575  11.260   2.365  0.2372 -0.0013 -2.5027
  553MOL0     H74616   9.358  11.342   2.282 -2.4802  2.7204 -0.1050
  553MOL0     H74617   8.975  11.619   2.251  0.1447  0.7724 -1.6153
  553MOL0     H74618   8.806  11.767   2.174 -1.8200  0.8165  0.4098
  553MOL0     H74619   8.812  12.198   2.311  1.2817  0.7676 -0.5231
  553MOL0     H74620   8.891  12.181   2.163 -0.5112  2.3195 -0.1488
  553MOL0     H74621   8.720  12.332   2.123  0.1561  0.7499  0.5033
  553MOL0     H74622   8.641  12.195   2.056  1.0725  3.3937 -1.2091
  553MOL0     H74623   8.548  12.146   2.306 -0.1223  1.0775  0.1418
  553MOL0     H74624   8.589  12.315   2.342 -1.3481 -1.3598  1.7453
  553MOL0     H74625   8.400  12.237   2.114  2.5719 -0.4085 -0.6704
  553MOL0     H74626   8.444  12.396   2.172 -0.5627 -0.0002  0.1196
  553MOL0     H74627   8.353  12.329   2.401 -2.3413 -0.1754  1.3738
  553MOL0     H74628   8.308  12.171   2.351 -6.0128  2.4833  3.9035
  553MOL0     H74629   8.180  12.431   2.222 -2.3083  0.3183  4.1772
  553MOL0     H74630   8.158  12.271   2.155  2.3047  1.3840 -1.9636
  553MOL0     H74631   8.122  12.341   2.451  2.8663  0.1491 -1.5117
  553MOL0     H74632   8.095  12.182   2.388 -1.6485  0.6666  1.7734
  553MOL0     H74633   7.896  12.342   2.406 -0.5325  0.3089 -0.2111
  553MOL0     H74634   7.936  12.393   2.246 -0.0507  0.4768  0.6582
  553MOL0     H74635   8.972  12.086   2.401  2.3575  0.0068  1.0762
  553MOL0     H74636   9.148  11.921   2.499 -2.3944  1.2192  2.0682
  553MOL0     H74637   9.397  11.675   2.539  1.7708  0.0351  0.5189
  553MOL0     H74638   9.610  11.613   2.610 -2.7648  1.8313 -0.0430
  553MOL0     H74639  10.687  11.017   4.033 -0.6580 -0.5785 -0.1404
  553MOL0     H74640  10.903  10.943   3.937 -0.0835  2.1393 -2.2181
  553MOL0     H74641  10.821  11.026   3.579 -1.0840  0.8938 -1.5446
  553MOL0     H74642  10.810  11.268   3.552  1.2412  0.5303 -1.3357
  553MOL0     H74643  10.751  11.444   3.714 -1.0197  0.4887 -2.1878
  553MOL0     H74644  10.812  11.522   3.576  0.7482  1.2292  0.5447
  553MOL0     H74645  10.882  11.640   3.833 -1.4992  1.7130  0.7226
  553MOL0     H74646  10.741  11.680   3.732 -0.2641 -1.3711 -1.9178
  553MOL0     H74647  10.941  11.842   3.717 -2.9937  0.7621  1.3603
  553MOL0     H74648  10.838  11.799   3.583 -1.5447 -0.3540  0.8794
  553MOL0     H74649  11.096  11.661   3.633  2.1329 -0.8817 -3.0303
  553MOL0     H74650  11.003  11.653   3.479 -3.6739  0.5948  0.1424
  553MOL0     H74651  11.223  12.011   3.468 -1.4263  1.2288  0.0651
  553MOL0     H74652  11.150  11.310   3.814  1.4813  0.0561 -0.3387
  553MOL0     H74653  11.227  11.113   3.941  0.0223  0.3824  1.0166
  553MOL0     H74654  11.191  10.956   3.870 -1.4989  0.0202 -2.5613
  553MOL0     H74655  11.306  11.047   3.785 -0.8118 -0.6060 -0.7413
  554MOL0     O74656   1.990   3.229   1.286  0.2314 -0.2404 -0.2167
  554MOL0     C74657   1.975   3.352   1.282 -0.6506 -0.9085 -0.4668
  554MOL0     O74658   1.974   3.435   1.176  0.4747 -0.2563 -0.0263
  554MOL0     C74659   2.015   3.386   1.052  1.0960 -0.0361  0.4611
  554MOL0     C74660   2.135   3.310   1.029  0.5404  0.2413 -0.7410
  554MOL0     C74661   2.174   3.260   0.903 -1.0030  0.1556  0.5230
  554MOL0     C74662   2.092   3.287   0.795  0.4398  0.2275  0.0414
  554MOL0     O74663   2.126   3.232   0.674 -0.0987 -0.8174 -0.7991
  554MOL0     C74664   2.045   3.269   0.559 -0.3536  0.0166  0.8688
  554MOL0     C74665   1.931   3.163   0.552 -0.7586  0.6353  0.0374
  554MOL0     C74666   1.983   3.026   0.502  0.1673  2.2555 -1.0236
  554MOL0     C74667   2.049   2.943   0.618  0.4954  1.1111  0.1821
  554MOL0     C74668   2.101   2.816   0.568  0.1054 -0.0219 -0.1145
  554MOL0     C74669   2.212   2.830   0.463  0.6974 -0.7543  0.1941
  554MOL0     C74670   2.311   2.725   0.487 -1.2999  0.1216 -0.2443
  554MOL0     C74671   2.429   2.748   0.395 -0.1244 -0.4038 -0.2023
  554MOL0     N74672   2.416   2.695   0.252 -0.5612 -0.0703 -0.1507
  554MOL0     C74673   2.387   2.779   0.146 -0.2480 -0.1510 -0.3144
  554MOL0     C74674   2.380   2.692   0.045 -0.2501 -0.5203 -0.2108
  554MOL0     C74675   2.348   2.740  -0.095 -0.7352 -0.0671 -0.6141
  554MOL0     C74676   2.469   2.797  -0.164 -0.3788 -0.4980  0.1611
  554MOL0     C74677   2.441   2.852  -0.306 -0.5638 -0.4718  0.7704
  554MOL0     C74678   2.372   2.771  -0.402 -0.5091  0.0637 -0.2631
  554MOL0     O74679   2.392   2.849  -0.518  0.5776  0.6082  0.1841
  554MOL0     C74680   2.323   2.805  -0.631 -0.1156  0.0536  0.2594
  554MOL0     C74681   2.301   2.889  -0.735 -0.2142 -0.1501  1.4228
  554MOL0     C74682   2.243   2.843  -0.855  0.6417  0.7459 -0.2919
  554MOL0     C74683   2.195   2.716  -0.866 -1.0104  0.4661  0.0015
  554MOL0     C74684   2.139   2.659  -0.996 -0.4453  0.3213 -0.6720
  554MOL0     O74685   2.086   2.531  -0.981 -0.3685  0.1669  0.1016
  554MOL0     C74686   2.062   2.467  -1.097  0.3692 -0.6916  0.7518
  554MOL0     C74687   2.177   2.409  -1.160 -0.0364 -0.6967  0.6082
  554MOL0     C74688   2.151   2.329  -1.281  0.0361 -0.2082 -0.7116
  554MOL0     C74689   2.019   2.300  -1.329 -0.1942 -0.4244 -0.3094
  554MOL0     O74690   1.978   2.220  -1.434  0.2209  0.4543  0.0393
  554MOL0     C74691   2.016   2.081  -1.452 -0.9004  0.2201  0.1523
  554MOL0     C74692   1.885   2.007  -1.428 -0.4500  0.2177  0.3437
  554MOL0     C74693   1.891   1.862  -1.489 -0.6066  0.2635 -0.2339
  554MOL0     C74694   2.008   1.789  -1.433  0.7010 -0.0377 -0.1962
  554MOL0     C74695   1.960   1.637  -1.447 -0.2770  0.3126  0.3042
  554MOL0     C74696   1.927   1.590  -1.594  1.2129  0.7351  0.0120
  554MOL0     C74697   2.061   1.543  -1.666 -0.0040 -0.7083 -0.5704
  554MOL0     C74698   2.037   1.521  -1.817  1.1483 -0.4855 -0.1051
  554MOL0    Cl74699   2.128   1.399  -1.884 -0.3527 -0.5103  0.1116
  554MOL0     C74700   1.915   2.361  -1.264 -0.2253  0.0492 -0.1619
  554MOL0     C74701   1.930   2.454  -1.153  0.3854 -0.2998  0.2855
  554MOL0     O74702   2.148   2.719  -1.099  0.0356 -0.0256  0.1301
  554MOL0     C74703   2.211   2.626  -0.757 -0.3751  0.9360  0.1103
  554MOL0     C74704   2.269   2.673  -0.643 -0.6903  0.0311 -0.0804
  554MOL0     N74705   2.413   2.565   0.086  0.2667  0.2666 -0.3698
  554MOL0     N74706   2.448   2.570   0.208  0.4981  0.3449  1.5258
  554MOL0     C74707   1.987   3.377   0.818  0.2001  0.5139  0.1774
  554MOL0     C74708   1.957   3.435   0.940  0.5685  0.3770  0.5008
  554MOL0     C74709   1.961   3.421   1.409  0.6753 -0.4380 -1.2456
  554MOL0     C74710   2.073   3.445   1.494 -0.2352  0.0789 -0.3320
  554MOL0     C74711   2.074   3.537   1.595  0.6689  0.1776 -0.6672
  554MOL0     C74712   1.953   3.600   1.622  1.3053  0.7974  0.6531
  554MOL0     O74713   1.937   3.673   1.733 -0.5903  0.5214  0.9788
  554MOL0     C74714   1.918   3.597   1.854  0.8623  0.1705 -0.6110
  554MOL0     C74715   1.780   3.617   1.923  0.1610 -0.8244  0.6188
  554MOL0     C74716   1.706   3.752   1.897 -0.5986  0.4139 -0.1235
  554MOL0     C74717   1.588   3.759   1.991  0.0695 -0.0279 -0.2386
  554MOL0     C74718   1.561   3.898   2.036 -0.1860  0.1886 -0.6189
  554MOL0     C74719   1.527   4.003   2.069 -0.1420 -0.4330  0.3735
  554MOL0     C74720   1.836   3.568   1.547 -0.0198 -0.6830  0.7118
  554MOL0     C74721   1.835   3.484   1.443 -0.3973  0.6036  0.9314
  554MOL0     C74722   1.698   3.437   1.378  0.6124  0.3346  0.3062
  554MOL0     H74723   2.190   3.277   1.117 -1.4679 -1.0870  0.0941
  554MOL0     H74724   2.269   3.208   0.891 -0.8859  0.9666 -3.0573
  554MOL0     H74725   2.025   3.376   0.549 -0.3552 -0.1295 -0.8598
  554MOL0     H74726   2.113   3.269   0.474 -1.4396 -2.1950 -0.0976
  554MOL0     H74727   1.849   3.205   0.493  2.4855  6.1058 -1.3132
  554MOL0     H74728   1.904   3.160   0.658  2.2396  3.8555  1.0948
  554MOL0     H74729   2.056   3.035   0.421  2.0052  1.7445  0.5269
  554MOL0     H74730   1.895   2.971   0.468 -0.2608  3.7299 -2.4479
  554MOL0     H74731   2.136   3.003   0.647  1.3254  0.7933 -1.5301
  554MOL0     H74732   1.989   2.935   0.709  0.4772  1.6101  0.2185
  554MOL0     H74733   2.150   2.762   0.649  3.3718  1.8063 -0.7122
  554MOL0     H74734   2.010   2.762   0.538  0.2725  1.1097 -2.9100
  554MOL0     H74735   2.181   2.829   0.358 -2.9011 -2.6925  1.0967
  554MOL0     H74736   2.265   2.924   0.483 -0.8541  0.1799  0.0817
  554MOL0     H74737   2.272   2.623   0.492  3.1395 -1.7554  0.3207
  554MOL0     H74738   2.359   2.752   0.582 -1.2645 -2.2266  0.4512
  554MOL0     H74739   2.444   2.856   0.395 -2.6456  0.0305 -1.6140
  554MOL0     H74740   2.522   2.703   0.430  0.0343 -0.7901 -1.0989
  554MOL0     H74741   2.374   2.884   0.172 -0.5855 -0.8560  2.6911
  554MOL0     H74742   2.314   2.652  -0.149 -0.1319  0.1670 -1.3909
  554MOL0     H74743   2.264   2.810  -0.093 -1.7063 -1.2067  0.2934
  554MOL0     H74744   2.496   2.891  -0.113  1.0192 -0.8809  0.1790
  554MOL0     H74745   2.555   2.730  -0.153 -1.5969 -2.5320 -1.9877
  554MOL0     H74746   2.545   2.865  -0.339 -0.8355  1.8183  0.6742
  554MOL0     H74747   2.399   2.951  -0.289 -1.2531 -0.7406  0.6686
  554MOL0     H74748   2.269   2.738  -0.384  0.1867 -1.5855  0.9740
  554MOL0     H74749   2.424   2.675  -0.414 -2.4765 -1.4796  2.4050
  554MOL0     H74750   2.334   2.990  -0.710 -0.8381  0.3936  0.1740
  554MOL0     H74751   2.239   2.913  -0.937  0.9128  3.4004  1.8107
  554MOL0     H74752   2.280   2.420  -1.128 -0.0376 -0.5157  0.5526
  554MOL0     H74753   2.238   2.280  -1.325 -0.0768 -0.7760 -0.3145
  554MOL0     H74754   2.051   2.058  -1.553 -0.4719  1.5061 -0.0139
  554MOL0     H74755   2.090   2.038  -1.384 -3.1408 -0.4040  2.3469
  554MOL0     H74756   1.871   1.999  -1.320  3.3163 -2.0167  0.8731
  554MOL0     H74757   1.805   2.062  -1.478 -2.6498 -1.5434  1.7315
  554MOL0     H74758   1.802   1.807  -1.457  0.2142 -1.5263 -0.9348
  554MOL0     H74759   1.910   1.868  -1.596  1.0323  0.4742  0.0478
  554MOL0     H74760   2.033   1.813  -1.329  1.5494 -0.2126 -0.3464
  554MOL0     H74761   2.088   1.807  -1.505 -1.3629  2.2964 -2.0695
  554MOL0     H74762   1.866   1.630  -1.392 -0.9763  0.6098 -0.8102
  554MOL0     H74763   2.032   1.569  -1.400  0.0301  0.2391 -0.2547
  554MOL0     H74764   1.860   1.505  -1.584  2.2400 -0.3817 -1.9502
  554MOL0     H74765   1.872   1.656  -1.661 -1.2110 -0.4303  0.7294
  554MOL0     H74766   2.104   1.449  -1.630  1.8351  0.2326 -0.1954
  554MOL0     H74767   2.130   1.626  -1.649 -0.2480 -0.4888 -0.6452
  554MOL0     H74768   1.931   1.494  -1.808  1.0418  0.4035  1.8995
  554MOL0     H74769   2.043   1.621  -1.861 -0.9856  0.0195  0.6337
  554MOL0     H74770   1.817   2.329  -1.300 -1.8201  4.0515  0.0731
  554MOL0     H74771   1.840   2.501  -1.115 -0.9409 -2.7356  0.3692
  554MOL0     H74772   2.165   2.527  -0.754  0.7040  0.3649 -1.1370
  554MOL0     H74773   2.291   2.604  -0.562 -0.3527 -1.7836 -1.6234
  554MOL0     H74774   1.925   3.421   0.741  3.1511  1.9082 -1.5443
  554MOL0     H74775   1.878   3.509   0.946 -1.8988 -2.0464  0.0077
  554MOL0     H74776   2.157   3.377   1.482 -0.6587 -0.3329 -1.0188
  554MOL0     H74777   2.155   3.559   1.663 -2.5181  2.7584  2.6720
  554MOL0     H74778   1.993   3.627   1.928  1.9349 -1.8324 -0.8178
  554MOL0     H74779   1.935   3.491   1.832  0.9898  0.0839 -0.1161
  554MOL0     H74780   1.803   3.621   2.030 -0.7743 -0.0117  0.8089
  554MOL0     H74781   1.720   3.529   1.899  2.4550 -2.0305 -1.0968
  554MOL0     H74782   1.668   3.758   1.794  4.6108  2.2701 -2.2840
  554MOL0     H74783   1.786   3.826   1.910  1.2001 -1.1481 -1.7171
  554MOL0     H74784   1.504   3.739   1.924  0.2609  1.3600 -0.9150
  554MOL0     H74785   1.587   3.676   2.062 -0.5024 -0.1338 -0.3668
  554MOL0     H74786   1.504   4.105   2.090  2.0899  0.5020 -1.2471
  554MOL0     H74787   1.745   3.599   1.597  0.3065 -2.1460  2.2993
  554MOL0     H74788   1.716   3.413   1.273  4.4308  0.1260  0.8918
  554MOL0     H74789   1.671   3.346   1.432  1.7442 -2.2542 -3.1143
  554MOL0     H74790   1.611   3.500   1.400  1.8478  1.6087  1.8211
  555MOL0     O74791   2.332   9.370   4.401  0.1542 -0.2668  0.1128
  555MOL0     C74792   2.280   9.257   4.404 -0.5353  0.0611 -0.2823
  555MOL0     O74793   2.327   9.145   4.345 -0.4700  0.3777 -0.6291
  555MOL0     C74794   2.450   9.146   4.283  1.0718 -1.2163  0.3872
  555MOL0     C74795   2.461   9.083   4.157  0.1854 -0.0832  0.9943
  555MOL0     C74796   2.582   9.088   4.087  0.8733 -0.8868  0.1312
  555MOL0     C74797   2.688   9.167   4.129 -0.4271 -0.6464 -0.7091
  555MOL0     O74798   2.806   9.178   4.052 -0.8208 -0.5137  0.4022
  555MOL0     C74799   2.918   9.257   4.071 -0.2817  0.6754  0.1274
  555MOL0     C74800   3.007   9.211   4.186  0.6194  0.0763 -0.2403
  555MOL0     C74801   3.122   9.308   4.224 -0.5493 -0.7358 -0.2342
  555MOL0     C74802   3.092   9.449   4.277  0.2162 -0.5830 -0.1801
  555MOL0     C74803   3.068   9.563   4.178 -0.3026 -0.4860  0.7055
  555MOL0     C74804   3.200   9.609   4.117  0.4799 -0.2214  0.7194
  555MOL0     C74805   3.168   9.732   4.026 -0.7887  0.2707  0.1069
  555MOL0     C74806   3.157   9.706   3.880  0.3686 -0.0898  0.1895
  555MOL0     N74807   3.086   9.583   3.831  0.8606 -0.1887 -0.3156
  555MOL0     C74808   2.946   9.558   3.840 -0.0456 -0.6015  0.2558
  555MOL0     C74809   2.923   9.450   3.760  0.2384 -0.4757 -0.6490
  555MOL0     C74810   2.787   9.380   3.753 -0.8245  0.7799 -0.9069
  555MOL0     C74811   2.737   9.360   3.611  1.0224  0.3223  0.1299
  555MOL0     C74812   2.700   9.489   3.546 -0.1821 -0.2419  0.6260
  555MOL0     C74813   2.607   9.453   3.429  0.3371 -0.4064 -0.0336
  555MOL0     O74814   2.667   9.401   3.310 -0.3962  0.3448 -0.1435
  555MOL0     C74815   2.635   9.272   3.264  0.5199 -0.2999 -0.3959
  555MOL0     C74816   2.656   9.252   3.126 -0.0308  0.0231  0.4116
  555MOL0     C74817   2.628   9.121   3.076  0.1580  0.1458  0.1841
  555MOL0     C74818   2.579   9.020   3.166 -0.0351 -0.1546  0.3224
  555MOL0     C74819   2.564   8.882   3.114 -0.5153 -0.0361 -0.2954
  555MOL0     O74820   2.609   8.863   2.985  0.5227  0.5194  0.3396
  555MOL0     C74821   2.621   8.735   2.941 -0.5741  0.0964  0.5190
  555MOL0     C74822   2.744   8.693   2.889 -1.1266 -0.4189  1.6248
  555MOL0     C74823   2.752   8.560   2.828  0.1450  0.5484 -0.9675
  555MOL0     C74824   2.645   8.478   2.809  0.0702  0.8294 -0.2774
  555MOL0     O74825   2.651   8.362   2.731 -0.0350  0.7123  0.1826
  555MOL0     C74826   2.738   8.356   2.613 -0.1024  1.0346  0.2998
  555MOL0     C74827   2.687   8.463   2.516 -0.2187  0.4316  0.1356
  555MOL0     C74828   2.751   8.426   2.378 -0.7248  0.0215 -0.6618
  555MOL0     C74829   2.710   8.513   2.260  0.6793 -0.0782  0.1962
  555MOL0     C74830   2.821   8.510   2.144 -0.1129  0.1407  0.4604
  555MOL0     C74831   2.787   8.557   2.007  0.2803  0.5658  0.5021
  555MOL0     C74832   2.744   8.695   2.001 -0.1431  0.4302  0.4649
  555MOL0     C74833   2.653   8.719   1.863 -0.2244 -0.4645 -0.0163
  555MOL0    Cl74834   2.726   8.672   1.694  0.0500  0.4202  0.5338
  555MOL0     C74835   2.526   8.518   2.880  0.3261 -0.3173  0.5521
  555MOL0     C74836   2.517   8.648   2.939  0.5147 -0.5555  0.7725
  555MOL0     O74837   2.499   8.799   3.184  0.4748  0.1037 -0.3429
  555MOL0     C74838   2.549   9.044   3.299 -0.0398 -0.6625  0.5044
  555MOL0     C74839   2.588   9.170   3.354  0.4706  0.8426  0.9399
  555MOL0     N74840   3.043   9.413   3.703  0.1106  0.1383  0.1577
  555MOL0     N74841   3.140   9.485   3.752  0.3762 -0.4983  0.1743
  555MOL0     C74842   2.665   9.236   4.251  0.0241  0.6781 -0.2481
  555MOL0     C74843   2.555   9.216   4.330 -0.0695 -0.2368 -0.1950
  555MOL0     C74844   2.157   9.240   4.480  0.1258  0.2087 -0.2191
  555MOL0     C74845   2.064   9.139   4.431 -0.4591 -0.4417 -0.6893
  555MOL0     C74846   1.944   9.116   4.499 -0.2892  0.1173  0.9447
  555MOL0     C74847   1.900   9.196   4.600 -0.0591 -0.9289  0.5277
  555MOL0     O74848   1.785   9.148   4.663  0.5603  0.1991  0.0372
  555MOL0     C74849   1.695   9.243   4.725  0.7602 -0.1715 -0.0925
  555MOL0     C74850   1.611   9.325   4.635 -0.3571  0.0376  0.4519
  555MOL0     C74851   1.613   9.467   4.669 -0.6405  0.5889  0.3137
  555MOL0     C74852   1.501   9.494   4.774  0.0774  0.9197  0.3055
  555MOL0     C74853   1.371   9.522   4.710 -0.6516  0.6981 -0.6450
  555MOL0     C74854   1.264   9.562   4.677 -0.3205  0.1211 -0.4852
  555MOL0     C74855   1.981   9.313   4.634  0.1395  0.5132  0.0264
  555MOL0     C74856   2.110   9.329   4.577 -0.4528 -0.5885 -0.1964
  555MOL0     C74857   2.191   9.440   4.638 -0.1799 -1.0814  0.5783
  555MOL0     H74858   2.372   9.040   4.111  0.1590  1.4047 -0.4216
  555MOL0     H74859   2.590   9.032   3.994  0.6831  1.8934 -1.6715
  555MOL0     H74860   2.980   9.268   3.982 -2.9506  0.8975 -1.8216
  555MOL0     H74861   2.888   9.360   4.093 -2.0228 -0.1952  2.2585
  555MOL0     H74862   3.065   9.121   4.165  2.6077  1.0829  0.6583
  555MOL0     H74863   2.955   9.183   4.278 -0.4256  1.4549 -0.3727
  555MOL0     H74864   3.196   9.315   4.144  1.8791 -2.1350  1.7648
  555MOL0     H74865   3.177   9.271   4.310  1.3406  1.1433 -0.5464
  555MOL0     H74866   3.000   9.452   4.337  0.0953  4.0424 -0.2004
  555MOL0     H74867   3.173   9.480   4.344  0.8704 -0.5957 -0.9471
  555MOL0     H74868   2.998   9.536   4.098 -0.5082 -0.1112  0.7534
  555MOL0     H74869   3.025   9.642   4.241 -2.7722  1.0126 -2.5473
  555MOL0     H74870   3.268   9.642   4.196  1.8590 -0.6075 -0.2615
  555MOL0     H74871   3.242   9.527   4.059  2.4451  0.7298  0.7218
  555MOL0     H74872   3.256   9.797   4.032  0.6790 -0.7215 -5.2286
  555MOL0     H74873   3.074   9.773   4.063 -2.0697 -1.9704 -0.4544
  555MOL0     H74874   3.099   9.790   3.840 -1.3476 -2.1181 -1.8206
  555MOL0     H74875   3.253   9.717   3.830 -1.8505  1.4717 -4.3243
  555MOL0     H74876   2.878   9.623   3.894  1.1804  2.3967 -1.5505
  555MOL0     H74877   2.799   9.280   3.795  1.8737  0.4494 -2.2873
  555MOL0     H74878   2.722   9.430   3.826  0.0458 -1.5156  1.5790
  555MOL0     H74879   2.805   9.308   3.543 -1.3349 -1.7936 -0.7762
  555MOL0     H74880   2.647   9.301   3.628 -0.4404  0.8128 -4.5823
  555MOL0     H74881   2.787   9.553   3.529 -1.6468  1.5468 -0.4578
  555MOL0     H74882   2.624   9.537   3.609  0.6621 -0.9426  2.2380
  555MOL0     H74883   2.554   9.545   3.402 -3.0019 -1.4782  2.2021
  555MOL0     H74884   2.528   9.390   3.470  1.1123 -1.9822 -0.8845
  555MOL0     H74885   2.693   9.328   3.057  1.1907 -1.4833 -0.6668
  555MOL0     H74886   2.642   9.102   2.970  3.8539  0.7124  0.4546
  555MOL0     H74887   2.837   8.750   2.887 -2.0148  1.1135  2.3387
  555MOL0     H74888   2.848   8.533   2.787  0.9906  1.3443  0.4182
  555MOL0     H74889   2.846   8.360   2.628 -0.0008  1.5019 -0.4798
  555MOL0     H74890   2.722   8.255   2.572  0.0155  0.3663  1.8428
  555MOL0     H74891   2.577   8.456   2.516 -0.1801 -1.5895  2.6880
  555MOL0     H74892   2.710   8.564   2.553  0.9489 -0.4046  1.7804
  555MOL0     H74893   2.860   8.431   2.388 -0.5767 -3.1822  0.5910
  555MOL0     H74894   2.734   8.319   2.361  2.7916 -1.2187  2.2775
  555MOL0     H74895   2.705   8.618   2.291  0.4231 -0.0038 -0.0980
  555MOL0     H74896   2.616   8.470   2.225  1.5078 -2.1851  0.3605
  555MOL0     H74897   2.845   8.405   2.128  2.6780  0.8073 -0.2545
  555MOL0     H74898   2.921   8.548   2.168  0.9445 -2.2135  0.0763
  555MOL0     H74899   2.865   8.555   1.931  0.2778  2.1443  0.4145
  555MOL0     H74900   2.710   8.489   1.968  1.1430  1.4944 -3.2441
  555MOL0     H74901   2.833   8.759   2.002  0.6706 -0.5400 -2.0088
  555MOL0     H74902   2.672   8.705   2.082 -0.2121 -1.5587  0.7084
  555MOL0     H74903   2.561   8.661   1.874 -0.6668  0.6840  4.8677
  555MOL0     H74904   2.632   8.825   1.881  4.2796  0.4458  0.9193
  555MOL0     H74905   2.435   8.459   2.875  0.6668 -0.7661 -0.7251
  555MOL0     H74906   2.417   8.673   2.971  0.0936 -1.4408  0.2070
  555MOL0     H74907   2.512   8.972   3.371  1.1349 -0.9764  0.8233
  555MOL0     H74908   2.589   9.179   3.462 -0.2225  1.2719  0.9149
  555MOL0     H74909   2.738   9.309   4.285 -0.1517  0.6871  0.1180
  555MOL0     H74910   2.550   9.266   4.426 -1.9231 -1.0847  0.1859
  555MOL0     H74911   2.086   9.082   4.342  0.8948  2.5831 -2.4379
  555MOL0     H74912   1.880   9.035   4.466  0.0494  0.9772 -2.1851
  555MOL0     H74913   1.765   9.304   4.783  0.3479 -1.7868  2.2710
  555MOL0     H74914   1.628   9.196   4.798  0.8498  3.3439  2.5338
  555MOL0     H74915   1.508   9.288   4.626  0.1901 -1.5181  0.2020
  555MOL0     H74916   1.643   9.315   4.531 -1.4554 -1.2511  0.1962
  555MOL0     H74917   1.608   9.530   4.580  4.7129  0.9678 -0.0746
  555MOL0     H74918   1.713   9.497   4.702  0.7292 -1.7357 -1.4454
  555MOL0     H74919   1.491   9.406   4.838 -0.3643  1.5875  1.1890
  555MOL0     H74920   1.528   9.582   4.834 -3.4555  0.8294  2.3176
  555MOL0     H74921   1.165   9.588   4.646 -0.2040  1.8239  0.4326
  555MOL0     H74922   1.957   9.386   4.709  1.2314  3.0060 -1.9080
  555MOL0     H74923   2.182   9.531   4.578  0.6849 -0.5786  1.2055
  555MOL0     H74924   2.143   9.457   4.735 -1.5737 -3.3484  0.3619
  555MOL0     H74925   2.293   9.404   4.650 -0.9646 -2.6793  3.4929
  556MOL0     O74926   5.683   1.013   0.957 -0.7888 -0.0186  0.2629
  556MOL0     C74927   5.769   0.952   1.013  0.9223  0.6246  0.0609
  556MOL0     O74928   5.792   0.812   1.001 -0.6139  0.7042 -1.2381
  556MOL0     C74929   5.699   0.734   0.930  0.7443  0.7612 -0.2527
  556MOL0     C74930   5.689   0.604   0.971  1.0770  0.5903 -1.1907
  556MOL0     C74931   5.600   0.505   0.918  0.0918 -0.7468 -0.3347
  556MOL0     C74932   5.535   0.541   0.796  0.9274  1.1517 -0.0313
  556MOL0     O74933   5.435   0.468   0.729  0.5515 -0.1956  0.1781
  556MOL0     C74934   5.396   0.343   0.790  0.1867 -0.3808  1.4020
  556MOL0     C74935   5.253   0.298   0.728 -1.0682  0.0277 -0.0710
  556MOL0     C74936   5.133   0.372   0.787 -0.6120  0.9074 -0.3180
  556MOL0     C74937   5.012   0.349   0.697 -1.2603  0.2298 -0.0851
  556MOL0     C74938   4.888   0.349   0.782 -0.5243  0.0114  0.4395
  556MOL0     C74939   4.767   0.315   0.691  0.2624 -0.1164 -0.1713
  556MOL0     C74940   4.664   0.277   0.784  0.3142  1.1746  0.4649
  556MOL0     C74941   4.680   0.136   0.843  0.5979 -0.4997  0.3946
  556MOL0     N74942   4.575   0.087   0.938  0.5170  0.4990  0.4086
  556MOL0     C74943   4.570  -0.042   0.972  0.8222  1.3096  0.0872
  556MOL0     C74944   4.452  -0.061   1.027  0.9482 -0.0037 -0.0260
  556MOL0     C74945   4.377  -0.179   1.075 -0.1604 -0.2031 -1.0440
  556MOL0     C74946   4.366  -0.280   0.953 -1.1212 -0.1403 -0.2049
  556MOL0     C74947   4.316  -0.425   0.985  0.5384 -0.0940 -0.2583
  556MOL0     C74948   4.197  -0.429   1.084  0.2876  0.0471 -0.1168
  556MOL0     O74949   4.072  -0.413   1.019  0.0275  0.0505  0.2650
  556MOL0     C74950   3.984  -0.505   1.057 -0.5282 -0.8185 -0.6437
  556MOL0     C74951   3.946  -0.612   0.985  0.6567 -0.8890 -0.0373
  556MOL0     C74952   3.860  -0.714   1.026 -0.5876 -0.0673 -0.0734
  556MOL0     C74953   3.811  -0.706   1.162  0.6728  0.0291  0.4613
  556MOL0     C74954   3.737  -0.818   1.209 -0.6720 -1.3032  0.6255
  556MOL0     O74955   3.673  -0.891   1.113  0.4504  0.1176 -0.1896
  556MOL0     C74956   3.611  -1.007   1.155 -0.2845 -0.1965  0.1663
  556MOL0     C74957   3.638  -1.121   1.083 -0.5516  0.7804  0.1809
  556MOL0     C74958   3.580  -1.247   1.116  0.0637  0.1614  0.5686
  556MOL0     C74959   3.470  -1.261   1.203 -0.0753 -0.6644 -0.1386
  556MOL0     O74960   3.398  -1.381   1.208 -0.7962 -0.6864  0.1455
  556MOL0     C74961   3.387  -1.443   1.336  0.2219 -0.2072  0.3704
  556MOL0     C74962   3.364  -1.592   1.311 -1.0549 -0.3883  0.4576
  556MOL0     C74963   3.300  -1.679   1.420 -0.4103 -0.3285  0.0100
  556MOL0     C74964   3.370  -1.656   1.555  0.0453  0.4478 -0.3452
  556MOL0     C74965   3.310  -1.743   1.667 -0.3899  0.6368  0.0373
  556MOL0     C74966   3.206  -1.681   1.752 -0.5311 -0.2909 -0.2223
  556MOL0     C74967   3.182  -1.761   1.884 -0.3418 -0.3418  0.0549
  556MOL0     C74968   3.064  -1.722   1.977 -0.1076 -0.2356 -0.4597
  556MOL0    Cl74969   3.121  -1.631   2.120  0.2043  0.0936  0.5794
  556MOL0     C74970   3.447  -1.141   1.279  0.0021 -0.9475 -0.6242
  556MOL0     C74971   3.522  -1.024   1.261  0.0674  0.8093 -0.0317
  556MOL0     O74972   3.733  -0.842   1.330 -0.1539 -0.3657 -0.9029
  556MOL0     C74973   3.847  -0.596   1.242 -0.0422 -0.4143  0.2312
  556MOL0     C74974   3.931  -0.495   1.189  0.2463 -0.7229 -0.2482
  556MOL0     N74975   4.389   0.059   1.033 -0.4072 -0.6838 -0.4013
  556MOL0     N74976   4.456   0.150   0.966  0.6173 -0.6016 -0.1031
  556MOL0     C74977   5.555   0.667   0.744  0.6861 -0.3396 -0.0234
  556MOL0     C74978   5.628   0.764   0.813  0.3021  0.4557  1.1444
  556MOL0     C74979   5.853   1.026   1.102  0.6562  0.5472 -1.0860
  556MOL0     C74980   5.986   0.981   1.098 -1.4252 -1.2456  0.9612
  556MOL0     C74981   6.081   1.037   1.174 -0.6950  0.2946 -0.2831
  556MOL0     C74982   6.051   1.137   1.268 -1.1678 -0.6159  0.3042
  556MOL0     O74983   6.144   1.206   1.342 -0.1894 -0.3680  0.7944
  556MOL0     C74984   6.215   1.299   1.260 -0.3629  0.3118  0.4518
  556MOL0     C74985   6.241   1.428   1.342 -0.2581 -0.8793  0.3823
  556MOL0     C74986   6.353   1.417   1.443 -0.3641 -0.7635  0.3192
  556MOL0     C74987   6.322   1.525   1.551 -0.5773  0.2590  0.9380
  556MOL0     C74988   6.362   1.654   1.488 -0.5919 -0.1439 -0.5391
  556MOL0     C74989   6.397   1.756   1.438 -0.5227 -0.0802 -0.2106
  556MOL0     C74990   5.917   1.174   1.287 -0.0972  0.2060  0.2096
  556MOL0     C74991   5.818   1.129   1.196 -0.4048 -0.2319 -0.6857
  556MOL0     C74992   5.684   1.168   1.220  0.4659 -0.0123 -0.3256
  556MOL0     H74993   5.733   0.567   1.063 -1.0635 -1.5738 -0.9344
  556MOL0     H74994   5.574   0.410   0.964 -2.5988 -0.0374 -0.1921
  556MOL0     H74995   5.478   0.274   0.769  0.1836  0.3942 -1.6452
  556MOL0     H74996   5.373   0.345   0.897  0.8521 -2.0141  1.5997
  556MOL0     H74997   5.239   0.191   0.743 -3.3517  0.1015 -1.2581
  556MOL0     H74998   5.258   0.300   0.618  0.4349 -0.6416 -0.0498
  556MOL0     H74999   5.158   0.479   0.783 -0.1841  0.8946  1.3120
  556MOL0     H75000   5.128   0.333   0.889 -0.2899 -1.9296 -1.3007
  556MOL0     H75001   5.003   0.421   0.615 -1.0146 -0.4773 -0.7509
  556MOL0     H75002   5.034   0.257   0.642  0.5265  0.9378 -0.6295
  556MOL0     H75003   4.899   0.276   0.862 -1.7584 -1.1432 -0.4218
  556MOL0     H75004   4.865   0.447   0.825  0.1919  0.6556 -0.5909
  556MOL0     H75005   4.733   0.404   0.635 -4.5117 -1.4019  0.2208
  556MOL0     H75006   4.773   0.236   0.615 -3.7069  0.7094 -1.6389
  556MOL0     H75007   4.564   0.277   0.740  0.7046 -1.7475 -0.6714
  556MOL0     H75008   4.663   0.340   0.873  2.0004  0.2334  1.1955
  556MOL0     H75009   4.702   0.068   0.761  5.7501  1.0280  0.1794
  556MOL0     H75010   4.767   0.122   0.907  0.5839 -0.3158  0.4561
  556MOL0     H75011   4.631  -0.129   0.949 -0.4309  0.1518  1.0188
  556MOL0     H75012   4.429  -0.228   1.159 -0.8055  1.9703  0.7043
  556MOL0     H75013   4.280  -0.143   1.109  1.9737  1.7513  3.9135
  556MOL0     H75014   4.305  -0.234   0.874 -0.0326  0.0134 -0.9827
  556MOL0     H75015   4.464  -0.276   0.903 -0.6455 -2.1689  0.4535
  556MOL0     H75016   4.403  -0.480   1.022  0.5361 -0.1277 -0.3036
  556MOL0     H75017   4.275  -0.468   0.894 -1.6089 -0.2849  0.7394
  556MOL0     H75018   4.214  -0.352   1.160 -0.6080 -2.5470  2.8892
  556MOL0     H75019   4.192  -0.519   1.145 -0.7831 -1.0881 -1.7846
  556MOL0     H75020   3.998  -0.641   0.894  0.1949 -2.8035  0.2478
  556MOL0     H75021   3.824  -0.798   0.968 -2.6418 -0.4183  1.5851
  556MOL0     H75022   3.706  -1.116   0.998  2.3833 -3.0655  2.0018
  556MOL0     H75023   3.616  -1.338   1.070  1.3442 -1.0553  3.7267
  556MOL0     H75024   3.473  -1.432   1.404  1.7407 -1.1774 -1.2942
  556MOL0     H75025   3.295  -1.397   1.373  1.4579  1.4591  1.5347
  556MOL0     H75026   3.310  -1.608   1.217 -1.0791 -0.4514  0.4818
  556MOL0     H75027   3.461  -1.642   1.301  0.4289  1.8900  2.2912
  556MOL0     H75028   3.195  -1.649   1.420  0.6164  3.9993 -0.9838
  556MOL0     H75029   3.298  -1.781   1.381 -1.1183 -0.3791  0.1710
  556MOL0     H75030   3.364  -1.549   1.577 -0.3628  1.0716 -3.1269
  556MOL0     H75031   3.475  -1.680   1.537  0.0717  1.1058 -1.1776
  556MOL0     H75032   3.398  -1.774   1.724  1.0696  1.7042 -1.5326
  556MOL0     H75033   3.272  -1.836   1.624 -1.2020  0.7206  0.5360
  556MOL0     H75034   3.253  -1.590   1.789 -1.4345 -0.3624  1.1487
  556MOL0     H75035   3.108  -1.663   1.707 -0.3813  1.7640  0.1715
  556MOL0     H75036   3.275  -1.742   1.939 -1.7518  1.6380  1.9499
  556MOL0     H75037   3.168  -1.865   1.853  1.3516 -0.0511 -1.8888
  556MOL0     H75038   2.988  -1.661   1.929 -1.3853 -3.3420 -2.7562
  556MOL0     H75039   3.015  -1.813   2.014 -0.8413  0.6373  0.8061
  556MOL0     H75040   3.380  -1.142   1.365  0.0100  2.7578 -0.4345
  556MOL0     H75041   3.505  -0.941   1.330 -0.3781  1.2214 -0.6252
  556MOL0     H75042   3.807  -0.596   1.342 -1.7908  1.0268 -0.4307
  556MOL0     H75043   3.961  -0.409   1.249 -0.8065  0.3315 -1.1847
  556MOL0     H75044   5.507   0.679   0.647 -2.2806 -2.8634  0.9386
  556MOL0     H75045   5.653   0.855   0.760  1.1804  0.0290  0.8186
  556MOL0     H75046   6.020   0.915   1.019 -1.0934  3.0018 -2.9108
  556MOL0     H75047   6.185   1.016   1.152 -1.1352  0.1771 -2.3910
  556MOL0     H75048   6.155   1.328   1.174 -0.4297 -0.8622  0.0822
  556MOL0     H75049   6.301   1.260   1.205 -3.0192 -0.9075 -3.2387
  556MOL0     H75050   6.146   1.465   1.384  1.1136  1.2512  1.8612
  556MOL0     H75051   6.262   1.507   1.270 -3.4246 -1.8255 -1.7721
  556MOL0     H75052   6.454   1.430   1.401  2.5134 -2.9715  5.5972
  556MOL0     H75053   6.348   1.325   1.501  0.3853 -1.0187 -0.0071
  556MOL0     H75054   6.215   1.529   1.571 -1.3675 -0.9055 -2.4471
  556MOL0     H75055   6.390   1.525   1.637  2.4291  1.9841 -1.2667
  556MOL0     H75056   6.428   1.846   1.389  0.4447  0.4550  1.3388
  556MOL0     H75057   5.887   1.251   1.358  0.9909 -1.3342  2.4631
  556MOL0     H75058   5.664   1.275   1.217 -3.6761 -0.5053  2.1007
  556MOL0     H75059   5.615   1.125   1.146  0.1816  0.7829 -0.5325
  556MOL0     H75060   5.643   1.127   1.313  1.6033  1.2129  0.7561
  557MOL0     O75061   5.364   0.626   2.171 -0.9298 -0.6896  0.2083
  557MOL0     C75062   5.429   0.527   2.211  0.1890 -0.0927  0.8380
  557MOL0     O75063   5.392   0.440   2.302  0.1689 -0.4851  0.3234
  557MOL0     C75064   5.256   0.421   2.306 -0.5388  1.0618  0.6427
  557MOL0     C75065   5.209   0.306   2.251 -1.4950  0.5239  0.3115
  557MOL0     C75066   5.076   0.271   2.255  0.4592 -0.7005 -0.0656
  557MOL0     C75067   4.983   0.363   2.312  1.4301 -0.4397 -0.4917
  557MOL0     O75068   4.852   0.323   2.297  0.1509 -0.3769 -0.8486
  557MOL0     C75069   4.753   0.416   2.338  0.3805  0.2296  0.6567
  557MOL0     C75070   4.620   0.340   2.322  0.4556  0.9609 -0.4833
  557MOL0     C75071   4.501   0.431   2.343 -0.0627 -0.0354  0.5096
  557MOL0     C75072   4.370   0.365   2.325 -0.5087 -0.1119 -0.2740
  557MOL0     C75073   4.250   0.459   2.319 -0.3659  0.4422  0.7919
  557MOL0     C75074   4.211   0.507   2.459 -0.6469  0.1515 -0.5458
  557MOL0     C75075   4.100   0.614   2.456  0.0019 -0.4330 -0.7443
  557MOL0     C75076   3.962   0.573   2.407 -0.3475  0.8405 -0.1884
  557MOL0     N75077   3.883   0.519   2.513 -0.1150 -0.0184  0.0978
  557MOL0     C75078   3.857   0.381   2.527 -0.3596 -0.8750 -0.7312
  557MOL0     C75079   3.769   0.380   2.632  1.2311 -1.1432  0.1810
  557MOL0     C75080   3.711   0.267   2.707 -0.0618 -0.5313  0.3278
  557MOL0     C75081   3.814   0.177   2.788  0.0057 -0.2803  0.1067
  557MOL0     C75082   3.870   0.252   2.911  0.3572  0.1198 -1.1153
  557MOL0     C75083   4.019   0.215   2.945 -0.8502  0.3761 -0.3398
  557MOL0     O75084   4.076   0.299   3.040  0.0638 -0.6379  0.0534
  557MOL0     C75085   4.190   0.365   2.996  0.4202 -0.5835 -0.5752
  557MOL0     C75086   4.288   0.373   3.094  0.5295  0.8489  0.8418
  557MOL0     C75087   4.409   0.438   3.078 -0.4775 -0.4429 -0.5718
  557MOL0     C75088   4.442   0.481   2.953  0.5123 -0.1147 -0.1259
  557MOL0     C75089   4.583   0.525   2.935  0.7798  0.0404 -0.2917
  557MOL0     O75090   4.636   0.526   2.810  0.1510 -1.3631 -0.8650
  557MOL0     C75091   4.773   0.518   2.780  0.5964 -0.3270  0.2811
  557MOL0     C75092   4.868   0.617   2.800  0.4830  0.2615 -0.0029
  557MOL0     C75093   5.001   0.588   2.772 -0.4759 -0.3453 -0.4386
  557MOL0     C75094   5.045   0.457   2.742 -0.1301  0.0590  0.7631
  557MOL0     O75095   5.169   0.426   2.695  0.6134  0.3426 -0.5204
  557MOL0     C75096   5.284   0.485   2.760 -0.7488 -0.5068  0.2351
  557MOL0     C75097   5.415   0.452   2.668  0.1307 -0.1237  0.9464
  557MOL0     C75098   5.449   0.301   2.681 -0.8289 -0.4583  0.9623
  557MOL0     C75099   5.570   0.275   2.595  0.5181 -0.4304  0.3953
  557MOL0     C75100   5.619   0.138   2.616 -0.8019  0.3940  0.3803
  557MOL0     C75101   5.731   0.092   2.514 -0.6452 -0.3186 -0.5507
  557MOL0     C75102   5.854   0.190   2.533 -0.2348  0.2630 -0.2220
  557MOL0     C75103   5.989   0.122   2.529 -0.1740  0.2197  0.0060
  557MOL0    Cl75104   6.008   0.059   2.367  0.5239 -0.0396  0.1238
  557MOL0     C75105   4.946   0.361   2.712  0.6277 -0.2834 -0.1978
  557MOL0     C75106   4.812   0.394   2.730 -0.3527  0.1574 -0.0091
  557MOL0     O75107   4.647   0.546   3.042 -0.3544  0.1487  0.5746
  557MOL0     C75108   4.347   0.485   2.852  0.0346  0.3369 -0.1117
  557MOL0     C75109   4.222   0.434   2.878 -0.0099 -0.1385 -0.2481
  557MOL0     N75110   3.748   0.512   2.680  0.7898  0.3073  0.1421
  557MOL0     N75111   3.810   0.596   2.601 -0.1773 -0.0597  0.0162
  557MOL0     C75112   5.031   0.486   2.373  0.1669  0.8884 -0.7418
  557MOL0     C75113   5.166   0.514   2.364  0.0779  0.5356 -0.7420
  557MOL0     C75114   5.575   0.510   2.169 -0.0866  0.7960  0.0508
  557MOL0     C75115   5.670   0.454   2.258 -1.0686  0.0096 -0.3123
  557MOL0     C75116   5.806   0.443   2.232  0.1273 -0.2690  0.0787
  557MOL0     C75117   5.861   0.483   2.110  0.0324 -1.1401  1.6068
  557MOL0     O75118   5.993   0.474   2.074 -0.4594 -0.1309  0.7052
  557MOL0     C75119   6.089   0.412   2.149  0.1156 -0.1787  0.1487
  557MOL0     C75120   6.229   0.479   2.119 -0.6708 -0.4247 -0.2429
  557MOL0     C75121   6.236   0.526   1.975  0.0963 -0.1957  0.4028
  557MOL0     C75122   6.368   0.554   1.918 -0.7814  0.3759  0.1195
  557MOL0     C75123   6.447   0.430   1.901 -0.1478  0.4960  0.7347
  557MOL0     C75124   6.505   0.326   1.878 -0.7378  0.1770  0.0898
  557MOL0     C75125   5.772   0.529   2.022  1.0059  0.0327  0.1734
  557MOL0     C75126   5.627   0.535   2.046 -0.7195 -0.4428  0.4799
  557MOL0     C75127   5.554   0.613   1.933 -0.1043 -0.4399 -0.2921
  557MOL0     H75128   5.281   0.243   2.200 -1.1997  1.6562 -0.7287
  557MOL0     H75129   5.045   0.180   2.204 -0.4963  0.0765 -0.9285
  557MOL0     H75130   4.770   0.434   2.445  1.0591  1.1819  0.4024
  557MOL0     H75131   4.758   0.506   2.276 -4.1394 -0.2624 -0.8047
  557MOL0     H75132   4.620   0.252   2.388  2.8760 -0.2270 -1.9414
  557MOL0     H75133   4.621   0.301   2.220  2.9758  0.2112 -0.2427
  557MOL0     H75134   4.512   0.515   2.274 -0.1174  0.3971  1.0171
  557MOL0     H75135   4.504   0.484   2.438  2.0912  0.6020  0.1327
  557MOL0     H75136   4.367   0.287   2.248 -0.6131 -1.8323  1.3959
  557MOL0     H75137   4.363   0.298   2.411  1.9877 -0.9942 -0.6795
  557MOL0     H75138   4.264   0.541   2.247 -1.6439 -0.1613 -0.1942
  557MOL0     H75139   4.169   0.404   2.271 -1.9958  2.2216  1.3930
  557MOL0     H75140   4.194   0.421   2.524  2.2074 -0.0369  0.0727
  557MOL0     H75141   4.289   0.564   2.511  0.2162 -1.2770 -0.2283
  557MOL0     H75142   4.135   0.695   2.391  1.1636  1.7310  2.3598
  557MOL0     H75143   4.092   0.665   2.552  3.9908  1.4505 -1.2183
  557MOL0     H75144   3.913   0.663   2.366 -2.0368  0.8441  1.6633
  557MOL0     H75145   3.958   0.506   2.320 -1.7986 -2.1673  2.0145
  557MOL0     H75146   3.900   0.298   2.471  0.6557 -0.9136  0.0770
  557MOL0     H75147   3.640   0.299   2.785  1.6598 -1.6035  2.4536
  557MOL0     H75148   3.654   0.207   2.635 -2.0929 -0.9640  2.1787
  557MOL0     H75149   3.768   0.082   2.817 -0.1306 -0.8353 -1.7894
  557MOL0     H75150   3.899   0.161   2.722  0.2761  0.8811  0.1453
  557MOL0     H75151   3.799   0.220   2.988 -0.3643 -1.1641 -2.2631
  557MOL0     H75152   3.875   0.361   2.906  2.1875  0.2894  1.9707
  557MOL0     H75153   4.062   0.210   2.845  0.9693  2.0956  0.2825
  557MOL0     H75154   4.020   0.114   2.988 -1.1284  1.2950  1.9707
  557MOL0     H75155   4.265   0.334   3.193  1.4003 -2.6401 -0.2010
  557MOL0     H75156   4.480   0.452   3.160  0.3605 -1.8237 -1.0091
  557MOL0     H75157   4.852   0.717   2.839  2.9555  0.1351  1.5612
  557MOL0     H75158   5.065   0.676   2.774 -0.3073 -0.4166  2.7792
  557MOL0     H75159   5.288   0.594   2.757 -0.6411 -0.5291 -1.8259
  557MOL0     H75160   5.296   0.457   2.865  1.3964 -0.6573 -0.0006
  557MOL0     H75161   5.416   0.493   2.567 -0.5261  0.3510  1.1284
  557MOL0     H75162   5.492   0.512   2.719 -0.0393  1.7022 -0.8133
  557MOL0     H75163   5.472   0.276   2.785 -1.2634 -0.0625  1.1546
  557MOL0     H75164   5.365   0.246   2.638 -1.9950  1.6139  0.4861
  557MOL0     H75165   5.655   0.340   2.617  1.2511 -0.2019 -2.6469
  557MOL0     H75166   5.549   0.292   2.489 -2.1939 -0.2222  0.8838
  557MOL0     H75167   5.533   0.073   2.597 -1.4227  0.5509  2.4015
  557MOL0     H75168   5.655   0.134   2.719 -0.7847 -2.8259  0.3347
  557MOL0     H75169   5.762  -0.010   2.537 -0.2206 -0.2160 -0.6634
  557MOL0     H75170   5.694   0.094   2.411 -1.9235 -0.5652 -0.1067
  557MOL0     H75171   5.850   0.214   2.639 -1.8188 -0.3912 -0.1025
  557MOL0     H75172   5.854   0.277   2.467 -3.0213  0.2148 -0.4115
  557MOL0     H75173   6.067   0.192   2.558  1.3425 -2.5235  3.1095
  557MOL0     H75174   5.998   0.037   2.596  1.4342  1.5833  1.6030
  557MOL0     H75175   4.978   0.263   2.676 -3.1413 -1.4616 -0.8385
  557MOL0     H75176   4.738   0.314   2.724 -0.1712  0.0615 -1.0016
  557MOL0     H75177   4.370   0.529   2.755  1.6666  1.6280  0.8054
  557MOL0     H75178   4.148   0.427   2.799  2.3208  2.9449 -2.9383
  557MOL0     H75179   4.959   0.549   2.424 -0.5086 -0.8707  0.5837
  557MOL0     H75180   5.195   0.601   2.422 -0.2632  0.2336 -0.0966
  557MOL0     H75181   5.631   0.427   2.355  0.4772 -0.9534  0.0728
  557MOL0     H75182   5.877   0.399   2.302 -1.4142 -1.3294  1.0521
  557MOL0     H75183   6.071   0.311   2.110 -0.2725  0.4036 -1.2691
  557MOL0     H75184   6.070   0.419   2.256 -2.7279 -1.1902 -0.2099
  557MOL0     H75185   6.320   0.430   2.154 -1.2264  0.6883  3.0970
  557MOL0     H75186   6.227   0.578   2.165  0.1916 -1.5261  2.3447
  557MOL0     H75187   6.186   0.621   1.953  3.0513  1.1338 -1.1299
  557MOL0     H75188   6.193   0.439   1.925  0.8020 -0.4021  0.1473
  557MOL0     H75189   6.356   0.594   1.817 -0.9349 -0.4623 -0.2015
  557MOL0     H75190   6.424   0.632   1.969  2.4080 -1.2731 -0.5839
  557MOL0     H75191   6.575   0.248   1.857 -1.5524 -0.0788 -1.8770
  557MOL0     H75192   5.807   0.567   1.927 -2.2698 -0.2967 -1.3051
  557MOL0     H75193   5.596   0.576   1.840  1.8516 -2.7231  1.3625
  557MOL0     H75194   5.449   0.583   1.922 -0.2727 -1.1290  2.3406
  557MOL0     H75195   5.555   0.718   1.962  1.3189 -0.2203 -1.0865
  558MOL0     O75196  10.229   7.205   6.308  0.1052  0.5555 -0.0758
  558MOL0     C75197  10.180   7.314   6.283 -0.1149  0.1885 -0.1562
  558MOL0     O75198  10.056   7.352   6.326 -0.3579 -0.3497  0.3058
  558MOL0     C75199   9.983   7.255   6.394  0.3148  1.0466  0.8643
  558MOL0     C75200   9.873   7.187   6.336 -0.2024  0.2096 -0.5546
  558MOL0     C75201   9.795   7.109   6.413  0.4352  0.3822  1.3403
  558MOL0     C75202   9.813   7.091   6.545 -0.5467  0.2577 -0.2619
  558MOL0     O75203   9.729   7.002   6.614  0.0400 -0.0813  0.3977
  558MOL0     C75204   9.783   6.927   6.721 -0.4129 -0.3627 -0.6408
  558MOL0     C75205   9.688   6.815   6.781 -0.3151 -0.8485 -0.6716
  558MOL0     C75206   9.632   6.717   6.673  0.3868 -0.0489 -0.3880
  558MOL0     C75207   9.533   6.627   6.754  0.2739  1.1456  0.2619
  558MOL0     C75208   9.419   6.586   6.661 -0.0215 -0.1424  0.5134
  558MOL0     C75209   9.318   6.505   6.739 -0.9260  0.2429 -1.0796
  558MOL0     C75210   9.180   6.486   6.674  0.4078 -0.6366  0.2986
  558MOL0     C75211   9.074   6.412   6.754  0.5372 -0.1356 -0.1068
  558MOL0     N75212   8.943   6.432   6.691 -0.2497 -0.3623  0.1317
  558MOL0     C75213   8.903   6.398   6.555  0.2863  1.2162  0.2734
  558MOL0     C75214   8.788   6.467   6.533  0.5734 -0.6817  0.0445
  558MOL0     C75215   8.698   6.471   6.418  0.4202  0.3500  0.2578
  558MOL0     C75216   8.732   6.593   6.326  0.1320  0.2429  0.2729
  558MOL0     C75217   8.666   6.600   6.198  0.8136 -0.4204  0.6231
  558MOL0     C75218   8.508   6.591   6.191 -0.3457 -0.5145 -0.2813
  558MOL0     O75219   8.439   6.710   6.238  0.5340 -0.0764 -0.0862
  558MOL0     C75220   8.305   6.728   6.212  0.6767  1.5319  0.4364
  558MOL0     C75221   8.239   6.805   6.300 -0.9607 -0.7310  0.3044
  558MOL0     C75222   8.107   6.849   6.282 -0.4936  0.5257 -0.2081
  558MOL0     C75223   8.031   6.781   6.177  0.0737 -0.7447  0.1794
  558MOL0     C75224   7.883   6.804   6.174 -0.7285 -0.2114  0.3971
  558MOL0     O75225   7.809   6.704   6.117  0.0101  0.2838 -0.3835
  558MOL0     C75226   7.681   6.730   6.080  0.2114  0.2348 -0.7200
  558MOL0     C75227   7.589   6.754   6.180 -0.2405 -0.1937  0.2389
  558MOL0     C75228   7.456   6.763   6.156 -0.1583 -1.2426 -0.0997
  558MOL0     C75229   7.397   6.766   6.026 -1.0080 -0.8661  0.3125
  558MOL0     O75230   7.261   6.787   6.024 -0.1340 -0.2990 -0.0262
  558MOL0     C75231   7.197   6.798   5.898 -0.4657  0.5637  0.2985
  558MOL0     C75232   7.063   6.863   5.926 -0.1731 -0.2915  0.4102
  558MOL0     C75233   6.966   6.856   5.799  0.1780  0.7076  1.0618
  558MOL0     C75234   6.870   6.981   5.799 -0.8990 -0.2856 -0.6241
  558MOL0     C75235   6.767   6.961   5.688  0.3943 -0.0975 -0.0603
  558MOL0     C75236   6.674   7.082   5.686  0.7473  0.6928 -0.2726
  558MOL0     C75237   6.691   7.151   5.551 -0.0270 -1.0000 -0.5872
  558MOL0     C75238   6.835   7.219   5.535  0.1658 -0.0173  0.2770
  558MOL0    Cl75239   6.864   7.262   5.373  0.3959  0.0392 -0.1233
  558MOL0     C75240   7.498   6.739   5.926  0.5112 -0.7273  0.7079
  558MOL0     C75241   7.634   6.724   5.949  0.2405  0.1466 -0.0245
  558MOL0     O75242   7.836   6.905   6.227  0.3036 -0.2166 -0.7716
  558MOL0     C75243   8.093   6.687   6.088 -0.9041  0.0237  0.1196
  558MOL0     C75244   8.237   6.675   6.101  0.2586  0.1002 -0.3654
  558MOL0     N75245   8.769   6.544   6.652 -0.3928  0.3351 -0.1293
  558MOL0     N75246   8.856   6.522   6.741 -0.4791  0.1887  0.1238
  558MOL0     C75247   9.914   7.155   6.607 -0.6157  0.6278  0.4085
  558MOL0     C75248  10.002   7.234   6.535  0.7751 -0.7960  0.0789
  558MOL0     C75249  10.254   7.401   6.193  0.2471 -0.2442 -0.6516
  558MOL0     C75250  10.190   7.526   6.172  0.7555  0.1698 -0.1270
  558MOL0     C75251  10.235   7.614   6.076  0.2955  0.3523  0.4093
  558MOL0     C75252  10.339   7.585   5.991 -0.9111 -0.4310  0.3131
  558MOL0     O75253  10.387   7.670   5.892  0.8481  0.6228 -0.5225
  558MOL0     C75254  10.323   7.653   5.762  0.6020  0.5181 -0.0627
  558MOL0     C75255  10.263   7.793   5.730  0.2983  0.0852  0.0545
  558MOL0     C75256  10.204   7.785   5.588  0.0967 -0.8716 -0.6062
  558MOL0     C75257  10.174   7.922   5.556  0.4773  0.6298  1.0827
  558MOL0     C75258  10.102   7.929   5.429 -0.2322 -0.2648 -0.8922
  558MOL0     C75259  10.047   7.923   5.327  0.5501 -0.3322  0.3664
  558MOL0     C75260  10.417   7.470   6.023  0.1329  0.3247 -0.6361
  558MOL0     C75261  10.377   7.384   6.121 -0.0769 -0.7597  0.0563
  558MOL0     C75262  10.455   7.250   6.136 -0.0098 -0.5399 -0.0812
  558MOL0     H75263   9.841   7.190   6.233 -0.0694 -0.7149 -0.6266
  558MOL0     H75264   9.716   7.048   6.370 -0.7993  2.8565 -0.1272
  558MOL0     H75265   9.883   6.883   6.717  0.0243  0.4152  1.1916
  558MOL0     H75266   9.792   6.990   6.809  0.3694 -0.9449 -0.2964
  558MOL0     H75267   9.601   6.870   6.819  1.0763  0.7661  0.3093
  558MOL0     H75268   9.734   6.759   6.863 -0.6764  0.9703  0.8557
  558MOL0     H75269   9.720   6.670   6.627  2.4091  2.5768  0.4969
  558MOL0     H75270   9.593   6.772   6.586 -0.9814  0.5606  0.5840
  558MOL0     H75271   9.585   6.541   6.797  1.2063  1.4515 -0.2289
  558MOL0     H75272   9.482   6.687   6.830 -2.6518  4.1189 -3.6690
  558MOL0     H75273   9.372   6.677   6.622  1.2498 -0.2920 -1.5354
  558MOL0     H75274   9.449   6.529   6.573  0.6677  2.7438 -1.2880
  558MOL0     H75275   9.369   6.411   6.764  0.2280  1.4665  1.5296
  558MOL0     H75276   9.305   6.577   6.820  3.8337 -0.8959  1.0390
  558MOL0     H75277   9.187   6.433   6.578  1.5208 -1.0101  0.5595
  558MOL0     H75278   9.140   6.580   6.637 -1.0333 -1.5774 -0.6227
  558MOL0     H75279   9.111   6.309   6.761 -1.2722 -0.6657  3.4849
  558MOL0     H75280   9.077   6.466   6.848  1.1871  0.3531 -0.3982
  558MOL0     H75281   8.953   6.341   6.477  1.4447  4.2167 -1.3110
  558MOL0     H75282   8.708   6.385   6.351 -0.2233  1.0715 -0.7817
  558MOL0     H75283   8.597   6.483   6.458  0.8171  0.6952  1.1858
  558MOL0     H75284   8.694   6.677   6.386 -0.1291 -0.3157  0.9031
  558MOL0     H75285   8.839   6.610   6.312 -0.0386  0.3756 -0.9941
  558MOL0     H75286   8.704   6.515   6.141 -0.1212  0.0152 -0.7108
  558MOL0     H75287   8.690   6.685   6.134 -0.1341  0.0124  0.8214
  558MOL0     H75288   8.466   6.507   6.247 -2.7725  0.8552  0.1024
  558MOL0     H75289   8.494   6.585   6.082  1.2982  5.0555 -1.1281
  558MOL0     H75290   8.302   6.839   6.382 -0.0252 -0.9946 -0.2879
  558MOL0     H75291   8.056   6.917   6.349 -0.2429 -0.9448  1.5438
  558MOL0     H75292   7.633   6.755   6.279 -1.7302  0.6247  0.9239
  558MOL0     H75293   7.400   6.780   6.247  1.2879 -2.7856  1.1361
  558MOL0     H75294   7.250   6.861   5.826 -2.2291  1.9123  0.1157
  558MOL0     H75295   7.176   6.695   5.867 -0.6516 -0.1781  2.6869
  558MOL0     H75296   7.013   6.813   6.010 -0.0712 -1.5292 -0.2472
  558MOL0     H75297   7.082   6.970   5.941  2.3718 -0.8720  1.9674
  558MOL0     H75298   7.017   6.846   5.703  0.1243  3.2487  0.6894
  558MOL0     H75299   6.916   6.760   5.812  0.2007  0.6706  0.8822
  558MOL0     H75300   6.929   7.072   5.785  1.8118 -1.8841 -0.2732
  558MOL0     H75301   6.823   6.993   5.897  3.1497 -1.4326  1.6543
  558MOL0     H75302   6.714   6.870   5.719 -0.7221  0.5744  0.0893
  558MOL0     H75303   6.809   6.945   5.588 -0.8935 -2.7422 -0.2819
  558MOL0     H75304   6.574   7.039   5.686  1.7657 -1.8643  0.2360
  558MOL0     H75305   6.688   7.144   5.775 -1.1771  2.5236 -1.1608
  558MOL0     H75306   6.617   7.231   5.539 -0.0821 -1.2166 -1.8247
  558MOL0     H75307   6.672   7.077   5.473 -0.1082  0.9028 -2.4778
  558MOL0     H75308   6.840   7.309   5.596  2.5361 -0.5596  0.9782
  558MOL0     H75309   6.904   7.139   5.563 -2.4087 -1.9723  1.4234
  558MOL0     H75310   7.455   6.730   5.827  2.3291  1.5417 -0.3603
  558MOL0     H75311   7.706   6.707   5.871  0.2639 -1.0235  0.2291
  558MOL0     H75312   8.049   6.650   5.996  2.0338 -2.1125 -0.5495
  558MOL0     H75313   8.293   6.618   6.028  1.8896  1.9650 -0.6240
  558MOL0     H75314   9.926   7.139   6.714  0.4144 -1.6265 -0.0005
  558MOL0     H75315  10.077   7.292   6.587 -0.9682  0.6982  1.0186
  558MOL0     H75316  10.100   7.560   6.222 -1.4564 -2.5618 -1.9738
  558MOL0     H75317  10.184   7.706   6.050  0.3404  0.2009 -0.2509
  558MOL0     H75318  10.245   7.577   5.771  0.8774  0.2150 -0.2409
  558MOL0     H75319  10.395   7.625   5.685  0.5692  4.0184 -1.5959
  558MOL0     H75320  10.341   7.869   5.737 -1.6591  2.0814  1.4933
  558MOL0     H75321  10.188   7.817   5.807 -2.3642 -2.8546 -1.3891
  558MOL0     H75322  10.114   7.724   5.598 -0.7556  0.4493  0.2441
  558MOL0     H75323  10.280   7.749   5.518  0.1658 -1.2023 -0.3630
  558MOL0     H75324  10.112   7.965   5.635  1.6058  2.5987  0.9411
  558MOL0     H75325  10.269   7.975   5.554  0.6375  0.3827  1.8011
  558MOL0     H75326  10.000   7.909   5.232 -2.0643  0.3847  1.4681
  558MOL0     H75327  10.504   7.447   5.964  1.7075  0.6992  1.4192
  558MOL0     H75328  10.380   7.171   6.130  2.0283 -2.4678 -3.1032
  558MOL0     H75329  10.512   7.246   6.042 -2.1949  1.5002 -1.6216
  558MOL0     H75330  10.513   7.258   6.228 -0.2550  0.4763  0.0016
  559MOL0     O75331   4.565   9.961   4.581  0.2329 -0.2105 -0.1355
  559MOL0     C75332   4.597   9.968   4.698 -0.3436 -0.5155 -0.3196
  559MOL0     O75333   4.599  10.080   4.770 -0.0181  0.3802  0.5147
  559MOL0     C75334   4.616  10.198   4.703 -0.6029  0.3273 -0.3272
  559MOL0     C75335   4.668  10.230   4.575 -0.1454  0.8416  0.0443
  559MOL0     C75336   4.679  10.365   4.535 -0.3865  0.2865  0.9998
  559MOL0     C75337   4.625  10.470   4.610 -0.4014  0.3243  0.0883
  559MOL0     O75338   4.625  10.596   4.563 -0.1766  0.3940 -0.5383
  559MOL0     C75339   4.727  10.648   4.480  0.8044  0.8406 -0.3654
  559MOL0     C75340   4.864  10.640   4.551 -0.1185  0.4876  0.1279
  559MOL0     C75341   4.966  10.713   4.466 -0.7763 -0.0681  0.4458
  559MOL0     C75342   5.098  10.749   4.534 -0.1642 -0.4729  0.1941
  559MOL0     C75343   5.209  10.642   4.538  0.2918 -0.2935  0.8259
  559MOL0     C75344   5.359  10.694   4.572  0.1262 -0.5252 -0.2431
  559MOL0     C75345   5.374  10.758   4.712 -0.3576 -0.4774 -0.3661
  559MOL0     C75346   5.337  10.668   4.824  0.2246 -0.8240  0.2335
  559MOL0     N75347   5.333  10.743   4.947  0.1016  0.4229  0.0031
  559MOL0     C75348   5.446  10.808   5.003 -0.0642  0.3290 -0.1505
  559MOL0     C75349   5.401  10.910   5.076 -0.2154 -0.4583 -0.5173
  559MOL0     C75350   5.474  11.021   5.151 -0.3076  0.9252 -0.3282
  559MOL0     C75351   5.625  11.040   5.128  0.2985  0.5662  0.0571
  559MOL0     C75352   5.706  10.943   5.216 -0.4541 -0.0114  0.5653
  559MOL0     C75353   5.722  10.999   5.363  0.6679  0.3540  0.6678
  559MOL0     O75354   5.785  11.128   5.378 -0.5569  0.1713 -0.3688
  559MOL0     C75355   5.908  11.153   5.326 -0.2395  1.3486 -0.2075
  559MOL0     C75356   5.938  11.289   5.298  0.7506  0.3347  0.0511
  559MOL0     C75357   6.059  11.319   5.228 -0.4620  0.4805 -0.8032
  559MOL0     C75358   6.139  11.225   5.174 -0.3797  0.2530 -0.5106
  559MOL0     C75359   6.267  11.275   5.114  0.4121 -0.5029 -0.9774
  559MOL0     O75360   6.385  11.198   5.140  0.6970 -0.3344 -0.2481
  559MOL0     C75361   6.500  11.270   5.143 -0.0831  0.6479  0.1904
  559MOL0     C75362   6.611  11.223   5.070  0.8209 -0.1163  1.2242
  559MOL0     C75363   6.735  11.294   5.076  0.5452 -0.4899 -0.1081
  559MOL0     C75364   6.750  11.409   5.160 -1.3627  0.8999  0.2714
  559MOL0     O75365   6.861  11.481   5.169 -0.0216  0.1608  0.1868
  559MOL0     C75366   6.924  11.501   5.049  0.0417 -0.2029 -0.2875
  559MOL0     C75367   7.003  11.629   5.046 -0.0104  0.8843 -1.4598
  559MOL0     C75368   6.926  11.764   5.056 -0.1381  0.2372 -0.7300
  559MOL0     C75369   6.848  11.801   4.930 -0.0417 -0.3194  0.0640
  559MOL0     C75370   6.935  11.864   4.807  0.2946 -1.3307 -1.8213
  559MOL0     C75371   6.938  12.015   4.820 -0.0168 -0.1804 -0.9100
  559MOL0     C75372   7.034  12.077   4.713  0.9325  0.0051  0.1940
  559MOL0     C75373   6.975  12.066   4.574  0.3006 -0.2930 -0.1933
  559MOL0    Cl75374   7.055  12.174   4.463 -0.0566  0.0578  0.3303
  559MOL0     C75375   6.640  11.453   5.235  0.0647  0.5910 -0.4734
  559MOL0     C75376   6.522  11.385   5.221  0.2242  0.7125 -0.9206
  559MOL0     O75377   6.264  11.379   5.050 -0.1387  0.3839 -0.2587
  559MOL0     C75378   6.105  11.094   5.195 -0.3901  0.4226 -0.3966
  559MOL0     C75379   5.999  11.055   5.274  0.4654 -0.7156  0.3981
  559MOL0     N75380   5.263  10.886   5.088  0.6110  0.0893 -0.1203
  559MOL0     N75381   5.224  10.784   5.007  0.3760  0.3449  0.0118
  559MOL0     C75382   4.574  10.433   4.735  0.5873 -0.0299 -0.6198
  559MOL0     C75383   4.580  10.308   4.786 -0.6884  0.5006  0.3028
  559MOL0     C75384   4.620   9.834   4.765 -0.0240  0.5422  0.9942
  559MOL0     C75385   4.532   9.731   4.726 -0.9692 -0.5975 -0.3089
  559MOL0     C75386   4.531   9.610   4.792  0.0056  0.3509 -0.1304
  559MOL0     C75387   4.626   9.582   4.886 -0.1063 -0.1845 -0.8253
  559MOL0     O75388   4.646   9.455   4.929 -0.1056 -0.0089 -0.2533
  559MOL0     C75389   4.538   9.360   4.925 -0.3017 -0.4047 -0.4722
  559MOL0     C75390   4.560   9.228   4.997  0.2170  0.7396 -0.3733
  559MOL0     C75391   4.655   9.132   4.934 -0.8696  0.5568  0.7793
  559MOL0     C75392   4.715   9.023   5.015 -0.8728 -0.0125 -0.0630
  559MOL0     C75393   4.642   8.894   5.026  0.1752  0.5296 -0.5635
  559MOL0     C75394   4.580   8.792   5.034 -0.9740 -0.2561 -0.3849
  559MOL0     C75395   4.720   9.682   4.926 -0.5055 -0.6405  0.4779
  559MOL0     C75396   4.715   9.815   4.865  0.3777  0.7404  0.5686
  559MOL0     C75397   4.812   9.906   4.913  0.0960 -0.2708 -0.3924
  559MOL0     H75398   4.708  10.153   4.510 -0.1305  1.9463 -1.2929
  559MOL0     H75399   4.732  10.384   4.442 -0.0192  1.3703  1.4168
  559MOL0     H75400   4.728  10.591   4.386  1.0629 -2.2610  1.3628
  559MOL0     H75401   4.696  10.748   4.449 -3.1862  0.2311  1.0211
  559MOL0     H75402   4.891  10.535   4.560  0.1552  0.6021  0.6619
  559MOL0     H75403   4.842  10.681   4.651 -1.4420  0.9165 -0.3071
  559MOL0     H75404   4.923  10.811   4.446  0.9836  0.6038 -0.2253
  559MOL0     H75405   4.984  10.658   4.373  0.7270 -3.5972  2.6140
  559MOL0     H75406   5.132  10.834   4.474 -2.3669  0.0256 -0.4491
  559MOL0     H75407   5.089  10.791   4.635 -1.6731 -0.1756 -0.0447
  559MOL0     H75408   5.169  10.576   4.616 -1.9391 -1.1508 -0.9244
  559MOL0     H75409   5.214  10.578   4.450  1.1966  3.2084 -1.8887
  559MOL0     H75410   5.431  10.613   4.559  0.6837 -0.1860  0.5965
  559MOL0     H75411   5.381  10.771   4.497 -0.5330 -0.0610  0.0290
  559MOL0     H75412   5.305  10.842   4.719  1.4192  1.1401 -1.4034
  559MOL0     H75413   5.476  10.791   4.732 -0.8400  1.7823 -1.2548
  559MOL0     H75414   5.237  10.626   4.809 -1.6730  2.3639  2.5303
  559MOL0     H75415   5.420  10.599   4.841  2.5505  1.4571 -1.2038
  559MOL0     H75416   5.543  10.816   4.955 -1.9245  1.5249 -4.2081
  559MOL0     H75417   5.414  11.104   5.113 -1.8861 -0.6765 -1.4919
  559MOL0     H75418   5.460  10.995   5.256  0.2729  0.8126 -0.2777
  559MOL0     H75419   5.635  11.027   5.020 -2.0073  0.4575 -0.1893
  559MOL0     H75420   5.658  11.144   5.134  1.6220  0.5258 -3.7464
  559MOL0     H75421   5.796  10.927   5.156 -1.3865 -0.3963 -0.7930
  559MOL0     H75422   5.659  10.844   5.214 -0.7049  0.1076  0.3044
  559MOL0     H75423   5.781  10.926   5.420  0.0450  0.5293  1.5572
  559MOL0     H75424   5.623  10.998   5.408 -0.6480  0.2963 -2.0388
  559MOL0     H75425   5.883  11.373   5.339  0.2764  0.4804 -0.8624
  559MOL0     H75426   6.099  11.419   5.211  1.6947 -0.1547  0.2255
  559MOL0     H75427   6.586  11.138   5.007  1.4344  1.5750 -1.4904
  559MOL0     H75428   6.815  11.248   5.019  1.7380  0.1111  1.0446
  559MOL0     H75429   6.995  11.418   5.041  0.9530  0.7675 -4.0092
  559MOL0     H75430   6.855  11.502   4.963 -1.9127 -0.2336  1.2046
  559MOL0     H75431   7.070  11.629   5.133 -1.9132 -1.5437  0.1749
  559MOL0     H75432   7.057  11.635   4.951  0.3885 -0.1984 -1.3150
  559MOL0     H75433   6.863  11.762   5.145  0.7529  1.4750 -0.0351
  559MOL0     H75434   7.000  11.841   5.080 -1.7732  1.8081 -0.5691
  559MOL0     H75435   6.776  11.878   4.958  2.7705  2.7755 -0.5686
  559MOL0     H75436   6.783  11.715   4.911 -0.9537  0.7531 -2.0063
  559MOL0     H75437   6.895  11.823   4.713 -1.3761  0.6774 -2.0585
  559MOL0     H75438   7.039  11.832   4.810  0.5176 -0.6329 -2.1598
  559MOL0     H75439   6.839  12.060   4.806  0.2006  0.2954 -0.9269
  559MOL0     H75440   6.979  12.044   4.917 -1.1332 -0.8155 -0.2305
  559MOL0     H75441   7.127  12.019   4.707 -0.4055 -2.3368  0.7793
  559MOL0     H75442   7.058  12.182   4.733 -1.4075  0.6663 -0.1791
  559MOL0     H75443   6.975  11.963   4.536  0.4459 -1.3773  2.4920
  559MOL0     H75444   6.870  12.094   4.579 -0.2875 -2.4828  1.1787
  559MOL0     H75445   6.653  11.538   5.302 -0.0576 -0.8519  1.4807
  559MOL0     H75446   6.448  11.428   5.287 -1.4888 -1.1913 -1.4826
  559MOL0     H75447   6.167  11.018   5.149 -0.1421  0.5118 -0.2157
  559MOL0     H75448   5.974  10.949   5.282 -1.5352 -0.3148 -0.1180
  559MOL0     H75449   4.529  10.510   4.796  1.5839  2.7111 -3.1131
  559MOL0     H75450   4.559  10.295   4.892  0.2669 -1.3870  0.2915
  559MOL0     H75451   4.459   9.743   4.646 -0.5303 -0.0813 -0.6367
  559MOL0     H75452   4.456   9.541   4.754 -0.6264  0.8631  0.1505
  559MOL0     H75453   4.506   9.324   4.826 -2.4302 -1.3099  0.4841
  559MOL0     H75454   4.461   9.408   4.985 -1.5089 -1.2824 -1.2786
  559MOL0     H75455   4.464   9.177   5.012  0.8935 -0.3959  0.3087
  559MOL0     H75456   4.596   9.251   5.098 -0.2572 -0.5794  0.1296
  559MOL0     H75457   4.738   9.193   4.900 -0.4166  1.2705  2.9816
  559MOL0     H75458   4.602   9.086   4.850 -0.2078 -0.4107  0.8767
  559MOL0     H75459   4.806   8.996   4.960  0.8711  1.2621  2.0548
  559MOL0     H75460   4.746   9.059   5.113  0.1533 -1.2720  0.1085
  559MOL0     H75461   4.528   8.698   5.039  1.3395 -1.5665  2.3644
  559MOL0     H75462   4.799   9.654   4.996  0.1112 -2.4218 -0.8446
  559MOL0     H75463   4.767  10.004   4.932 -1.4670 -0.7230 -1.5676
  559MOL0     H75464   4.880   9.875   4.993  1.9124  3.5916 -0.2417
  559MOL0     H75465   4.881   9.919   4.830  0.4324 -2.7759 -0.5861
  560MOL0     O75466  11.345   6.441   9.498  0.0922  0.1283  0.1424
  560MOL0     C75467  11.391   6.545   9.477 -0.5703  0.2564 -0.0692
  560MOL0     O75468  11.492   6.564   9.383 -1.0129 -0.6374  0.3462
  560MOL0     C75469  11.509   6.478   9.281 -0.7830 -0.3862 -0.2281
  560MOL0     C75470  11.633   6.433   9.246 -0.5661  0.0246 -1.0256
  560MOL0     C75471  11.668   6.336   9.145  0.3979 -0.5133 -1.6667
  560MOL0     C75472  11.557   6.302   9.073  0.3578 -0.5655  0.4123
  560MOL0     O75473  11.581   6.218   8.969 -0.0296 -0.2545  0.6144
  560MOL0     C75474  11.482   6.121   8.916  0.4872 -1.2258 -0.2823
  560MOL0     C75475  11.528   6.076   8.783 -0.0121  0.0988  0.0718
  560MOL0     C75476  11.401   6.073   8.701 -0.0690 -0.2207  0.4989
  560MOL0     C75477  11.440   6.015   8.558 -0.1041  0.1135  0.6840
  560MOL0     C75478  11.322   6.013   8.470  0.4078 -0.2121  0.0174
  560MOL0     C75479  11.263   6.155   8.446  0.0779 -0.4208  1.1501
  560MOL0     C75480  11.194   6.176   8.318  0.2397 -0.3972  0.3824
  560MOL0     C75481  11.116   6.308   8.307  0.2511  0.1263 -0.5116
  560MOL0     N75482  11.212   6.416   8.282 -0.1351  0.2129 -0.3215
  560MOL0     C75483  11.282   6.437   8.164 -0.1296 -0.4387  0.3160
  560MOL0     C75484  11.324   6.560   8.151 -0.4400 -0.0113 -0.7632
  560MOL0     C75485  11.401   6.633   8.042 -0.0778 -0.3322 -0.1227
  560MOL0     C75486  11.530   6.700   8.086 -0.2683 -0.1772  0.1107
  560MOL0     C75487  11.636   6.727   7.982 -0.2915  0.0173  0.1032
  560MOL0     C75488  11.601   6.863   7.920  1.1712  0.2009 -0.2217
  560MOL0     O75489  11.673   6.886   7.796  0.3560 -0.6846 -0.7692
  560MOL0     C75490  11.606   6.874   7.679 -0.1030 -0.6629 -0.6890
  560MOL0     C75491  11.600   6.979   7.593  0.4904  0.0242  0.7044
  560MOL0     C75492  11.527   6.974   7.470  0.2161 -0.9877  0.2696
  560MOL0     C75493  11.468   6.852   7.430  0.0265  0.1540 -1.0285
  560MOL0     C75494  11.390   6.836   7.311 -0.5597  0.2323  0.5574
  560MOL0     O75495  11.363   6.946   7.234 -0.8469 -0.2897  0.6629
  560MOL0     C75496  11.284   6.908   7.123 -0.0352  0.3837 -0.4162
  560MOL0     C75497  11.156   6.945   7.083 -0.2678  0.9944 -0.7492
  560MOL0     C75498  11.096   6.907   6.967  0.6779 -0.0009 -0.8147
  560MOL0     C75499  11.170   6.844   6.866  0.3694  1.4045 -0.0962
  560MOL0     O75500  11.089   6.793   6.759 -0.1930  0.6488 -0.5887
  560MOL0     C75501  11.144   6.824   6.630  0.0034  0.4955 -0.0667
  560MOL0     C75502  11.124   6.967   6.589 -0.0838  0.6776 -0.3919
  560MOL0     C75503  11.220   7.001   6.469 -0.2592  1.1621 -0.6601
  560MOL0     C75504  11.356   7.034   6.526  0.7058  0.2716 -1.0590
  560MOL0     C75505  11.446   7.068   6.420  1.3083  0.7886 -0.3636
  560MOL0     C75506  11.569   7.146   6.466  0.4347  0.5451  0.1581
  560MOL0     C75507  11.670   7.160   6.349  0.1074  0.1755  0.2431
  560MOL0     C75508  11.803   7.206   6.417  0.4971  0.2061 -0.4750
  560MOL0    Cl75509  11.877   7.082   6.508 -0.4139  0.0743 -0.0053
  560MOL0     C75510  11.301   6.807   6.897  0.8747  0.4636  0.2317
  560MOL0     C75511  11.357   6.834   7.022  0.0304  0.2483 -0.5307
  560MOL0     O75512  11.353   6.723   7.281  0.1203  0.3983  0.1379
  560MOL0     C75513  11.492   6.737   7.515  0.0272 -0.1840  0.2897
  560MOL0     C75514  11.556   6.755   7.639 -0.3373 -0.3867 -0.6070
  560MOL0     N75515  11.311   6.606   8.286  1.0328  0.3965  0.7957
  560MOL0     N75516  11.241   6.520   8.356 -0.1952  0.4089  0.7124
  560MOL0     C75517  11.429   6.348   9.097 -0.0033  0.2690  0.1363
  560MOL0     C75518  11.405   6.427   9.200  0.3251 -0.9654  0.0493
  560MOL0     C75519  11.361   6.658   9.564  1.1188 -0.6925 -0.7572
  560MOL0     C75520  11.440   6.776   9.557 -0.3068  0.2534  0.0657
  560MOL0     C75521  11.413   6.890   9.627  0.0180  0.2342 -0.4005
  560MOL0     C75522  11.319   6.886   9.732  0.7259  0.2451  0.0740
  560MOL0     O75523  11.317   7.003   9.799 -0.1084 -0.2771  0.3786
  560MOL0     C75524  11.240   7.017   9.919 -0.2358 -0.9059  0.1128
  560MOL0     C75525  11.098   7.075   9.907  0.4725  0.4281  0.1348
  560MOL0     C75526  11.087   7.213   9.835  0.5779 -0.9003 -0.0690
  560MOL0     C75527  11.168   7.333   9.891 -0.3961 -0.6990 -0.7495
  560MOL0     C75528  11.151   7.330  10.033 -0.6289 -0.1230 -0.5038
  560MOL0     C75529  11.158   7.336  10.153 -0.2070 -0.5156 -0.4705
  560MOL0     C75530  11.234   6.779   9.750 -0.8863 -0.3236 -0.6390
  560MOL0     C75531  11.250   6.662   9.662 -0.6487 -0.9821  0.2016
  560MOL0     C75532  11.156   6.544   9.680  0.1886  0.2080 -0.5616
  560MOL0     H75533  11.717   6.472   9.301 -1.1224  0.8777 -0.7615
  560MOL0     H75534  11.771   6.304   9.132 -0.0019 -1.5974 -2.2782
  560MOL0     H75535  11.459   6.042   8.988 -3.1925  3.4459  4.5681
  560MOL0     H75536  11.383   6.167   8.902  1.0803 -0.1202 -1.0458
  560MOL0     H75537  11.561   5.973   8.794  1.2396  0.7230  3.1193
  560MOL0     H75538  11.607   6.139   8.742  1.6914 -0.1555  2.6950
  560MOL0     H75539  11.356   6.173   8.690  4.7213  2.0784 -0.6923
  560MOL0     H75540  11.326   6.008   8.746 -0.5380 -0.9017 -1.1999
  560MOL0     H75541  11.513   6.081   8.510 -1.8718  2.3108  0.8669
  560MOL0     H75542  11.476   5.912   8.568  0.0831 -0.0759 -1.4996
  560MOL0     H75543  11.352   5.979   8.370 -0.9392  1.7268 -1.1097
  560MOL0     H75544  11.242   5.951   8.512  2.1208 -2.8940 -0.3836
  560MOL0     H75545  11.199   6.189   8.528  0.3467  1.7462  0.5424
  560MOL0     H75546  11.356   6.213   8.442  0.9756 -1.8368 -2.5176
  560MOL0     H75547  11.117   6.102   8.294 -0.2109  0.8106 -2.3777
  560MOL0     H75548  11.270   6.168   8.240  2.2989  1.9424  1.9815
  560MOL0     H75549  11.043   6.317   8.226 -0.2498 -1.6139 -0.2859
  560MOL0     H75550  11.071   6.319   8.407  0.9803  0.9508 -0.2636
  560MOL0     H75551  11.295   6.368   8.081  0.3305  0.5837 -0.4848
  560MOL0     H75552  11.415   6.562   7.961  1.6181 -1.9708  1.4924
  560MOL0     H75553  11.339   6.715   8.005 -0.5406 -0.0418  1.2063
  560MOL0     H75554  11.498   6.794   8.131  0.8046 -0.0136  0.5728
  560MOL0     H75555  11.574   6.630   8.158 -1.8104 -1.5198 -0.1911
  560MOL0     H75556  11.647   6.643   7.913  0.5451 -0.3418  0.6485
  560MOL0     H75557  11.728   6.734   8.041 -0.7709 -1.7498  1.1324
  560MOL0     H75558  11.625   6.932   8.001  0.9014 -1.2467  1.1357
  560MOL0     H75559  11.494   6.872   7.900  0.7769 -0.6305  1.3478
  560MOL0     H75560  11.631   7.079   7.621  1.7380 -0.8403  2.6516
  560MOL0     H75561  11.516   7.064   7.411  1.9630 -1.8009 -1.4294
  560MOL0     H75562  11.097   6.991   7.162 -2.5905  0.3767 -2.0216
  560MOL0     H75563  10.990   6.927   6.955 -0.1967 -1.4242  3.1630
  560MOL0     H75564  11.251   6.812   6.616 -0.1965 -0.4816 -0.8756
  560MOL0     H75565  11.098   6.756   6.557 -0.8019 -0.8992  1.6734
  560MOL0     H75566  11.021   6.991   6.563 -0.2148  0.7507  0.1827
  560MOL0     H75567  11.146   7.035   6.672  1.0306 -0.9703  0.7224
  560MOL0     H75568  11.217   6.915   6.401 -1.4128  0.9634 -0.3775
  560MOL0     H75569  11.174   7.085   6.416  2.1936  0.9893 -3.3515
  560MOL0     H75570  11.390   6.945   6.581 -0.0519 -0.0633 -1.1126
  560MOL0     H75571  11.344   7.115   6.598 -2.1198  0.9592 -2.1993
  560MOL0     H75572  11.390   7.129   6.349  1.9133  3.8714  1.6076
  560MOL0     H75573  11.478   6.978   6.366  3.0352  0.2771  1.3934
  560MOL0     H75574  11.529   7.239   6.509 -3.4975 -0.6085 -0.6148
  560MOL0     H75575  11.605   7.084   6.548 -2.5546  0.6452  1.7022
  560MOL0     H75576  11.623   7.235   6.284 -0.1181 -1.0352 -1.0281
  560MOL0     H75577  11.676   7.066   6.295 -1.9684 -0.1003  0.4339
  560MOL0     H75578  11.879   7.239   6.345 -1.8635  2.3257 -2.1788
  560MOL0     H75579  11.777   7.298   6.472 -1.0136 -0.7272  0.4336
  560MOL0     H75580  11.355   6.735   6.836  0.2587 -1.0114  1.3680
  560MOL0     H75581  11.445   6.774   7.045 -1.2478 -1.6487 -0.3871
  560MOL0     H75582  11.462   6.638   7.482  2.1332 -0.4977 -0.9524
  560MOL0     H75583  11.552   6.676   7.713  2.6045  2.8745  3.4507
  560MOL0     H75584  11.340   6.309   9.049 -0.4460  0.2434  0.9633
  560MOL0     H75585  11.302   6.449   9.225  0.1690 -2.8802  1.2486
  560MOL0     H75586  11.510   6.777   9.474  0.2978 -2.3777  0.4388
  560MOL0     H75587  11.471   6.980   9.613  2.4443 -1.1948 -0.0377
  560MOL0     H75588  11.302   7.091   9.971 -1.8500 -0.8423  2.0777
  560MOL0     H75589  11.241   6.923   9.974 -2.8505 -1.7125 -1.0337
  560MOL0     H75590  11.075   7.089  10.013 -0.1585 -0.2658  0.0983
  560MOL0     H75591  11.040   6.993   9.862 -1.8396  0.0068  3.4974
  560MOL0     H75592  10.980   7.233   9.843  1.0955  1.5600  2.1868
  560MOL0     H75593  11.112   7.204   9.729 -2.0448 -0.3380 -0.8202
  560MOL0     H75594  11.275   7.318   9.879 -0.1617  1.3609 -1.5064
  560MOL0     H75595  11.146   7.425   9.836  0.5553 -0.2693 -0.4234
  560MOL0     H75596  11.162   7.359  10.258 -0.8719  4.0279 -1.2428
  560MOL0     H75597  11.165   6.776   9.833  0.9012 -0.7327  0.8964
  560MOL0     H75598  11.204   6.469   9.744 -2.8323  1.1723  3.2413
  560MOL0     H75599  11.059   6.577   9.719  1.0281  2.7819 -0.4776
  560MOL0     H75600  11.130   6.503   9.583 -3.3824  0.3545  0.1653
  561MOL0     O75601   9.386   3.311   0.998 -0.2067  0.3190  0.7556
  561MOL0     C75602   9.323   3.391   1.067  0.4836  0.3292 -0.6408
  561MOL0     O75603   9.304   3.378   1.199 -0.4936  0.6369  0.0871
  561MOL0     C75604   9.410   3.316   1.273  0.4973 -1.2211  0.2321
  561MOL0     C75605   9.360   3.253   1.381 -0.0207  0.2585 -0.1690
  561MOL0     C75606   9.444   3.187   1.471  0.0254 -0.3902  0.2326
  561MOL0     C75607   9.587   3.182   1.453  0.4651 -0.5128  0.2944
  561MOL0     O75608   9.675   3.123   1.526  0.1976 -0.3430 -0.0494
  561MOL0     C75609   9.710   2.985   1.496 -0.0272  0.5903 -0.2870
  561MOL0     C75610   9.813   2.939   1.593  0.5856  0.7256 -0.4997
  561MOL0     C75611   9.852   2.792   1.570 -0.3159  0.0966 -0.1403
  561MOL0     C75612   9.899   2.726   1.700 -0.7336  0.1707  0.2911
  561MOL0     C75613   9.884   2.577   1.692  0.7092  1.2848  0.1476
  561MOL0     C75614   9.935   2.517   1.824  0.6144 -0.3472  0.9065
  561MOL0     C75615  10.083   2.539   1.855  0.3907  0.3789 -0.0943
  561MOL0     C75616  10.174   2.464   1.747  0.1573  0.0011 -0.1408
  561MOL0     N75617  10.313   2.499   1.767  1.0304  0.2783  0.1711
  561MOL0     C75618  10.381   2.587   1.701 -1.2860 -0.2570 -0.0756
  561MOL0     C75619  10.515   2.578   1.725 -0.1855  0.8233 -0.1119
  561MOL0     C75620  10.633   2.637   1.645  0.2321 -0.9364 -1.3751
  561MOL0     C75621  10.679   2.558   1.517  0.3478 -0.1995  0.2036
  561MOL0     C75622  10.745   2.428   1.563  0.2737 -0.1250 -0.3560
  561MOL0     C75623  10.793   2.348   1.439  0.1868 -1.4918 -0.7505
  561MOL0     O75624  10.928   2.313   1.460  0.0057  0.9102 -0.1173
  561MOL0     C75625  10.963   2.198   1.531  0.0937  0.2778 -0.2383
  561MOL0     C75626  11.099   2.170   1.551  0.5605 -0.7143 -0.1648
  561MOL0     C75627  11.135   2.052   1.618  0.1514  0.0248 -0.0482
  561MOL0     C75628  11.035   1.968   1.668  0.4814 -0.5672  0.1616
  561MOL0     C75629  11.069   1.849   1.744 -0.4929 -0.5553 -0.1911
  561MOL0     O75630  11.195   1.810   1.759  0.4351 -0.6664  0.0282
  561MOL0     C75631  11.233   1.692   1.818 -0.3765  0.3804 -0.2297
  561MOL0     C75632  11.338   1.616   1.762 -0.2956 -0.9724 -0.2832
  561MOL0     C75633  11.372   1.486   1.802  0.0743 -0.1606  0.7679
  561MOL0     C75634  11.300   1.434   1.912 -0.1978  0.4248  0.0837
  561MOL0     O75635  11.339   1.319   1.979 -0.4821  0.0503  0.2511
  561MOL0     C75636  11.407   1.220   1.900 -0.2196  0.9207  0.0200
  561MOL0     C75637  11.395   1.084   1.967 -0.5492  0.3812  0.8804
  561MOL0     C75638  11.506   0.993   1.900  0.0014 -0.7927 -0.0613
  561MOL0     C75639  11.521   0.858   1.972  0.4146 -0.4380 -0.6733
  561MOL0     C75640  11.597   0.753   1.894 -0.0648 -0.9539  0.4973
  561MOL0     C75641  11.748   0.818   1.860 -0.0011  0.1323 -0.0491
  561MOL0     C75642  11.822   0.715   1.784  0.4129 -0.0017  0.2971
  561MOL0     C75643  11.769   0.675   1.653  0.2004  0.6290  0.7006
  561MOL0    Cl75644  11.832   0.505   1.633  0.5025  0.1137  0.2408
  561MOL0     C75645  11.202   1.515   1.974  1.4966  0.5616 -0.3486
  561MOL0     C75646  11.167   1.636   1.924  0.5735 -0.1884  0.4103
  561MOL0     O75647  10.973   1.781   1.786  0.7776  0.0655  0.3690
  561MOL0     C75648  10.903   2.002   1.652  0.6488  0.4388  0.6346
  561MOL0     C75649  10.865   2.111   1.584  0.0409  0.3260  0.0420
  561MOL0     N75650  10.517   2.481   1.828 -0.0998  0.2298  0.6006
  561MOL0     N75651  10.395   2.434   1.854  0.3532  0.1833  0.8389
  561MOL0     C75652   9.633   3.243   1.335 -0.8097 -0.1316  0.5343
  561MOL0     C75653   9.542   3.311   1.253  0.0316 -0.2563 -0.1279
  561MOL0     C75654   9.248   3.500   1.008 -0.0425 -0.2179  0.2957
  561MOL0     C75655   9.259   3.621   1.078  0.1335 -0.1430 -0.7904
  561MOL0     C75656   9.199   3.744   1.041  0.0571  0.5132 -0.5036
  561MOL0     C75657   9.143   3.749   0.912 -1.4583 -0.2150  0.9986
  561MOL0     O75658   9.104   3.869   0.850  0.6941  0.2053  0.4389
  561MOL0     C75659   9.052   3.969   0.935  1.0467 -1.3992  1.1614
  561MOL0     C75660   8.965   4.059   0.839 -0.5436 -0.3660  0.2948
  561MOL0     C75661   8.903   4.162   0.921 -0.4823 -0.9255 -1.0197
  561MOL0     C75662   8.838   4.270   0.827  0.3048  0.5020 -1.0348
  561MOL0     C75663   8.928   4.384   0.829 -0.0053  0.2563 -0.8198
  561MOL0     C75664   9.010   4.473   0.832  0.6002  0.4157  0.7279
  561MOL0     C75665   9.139   3.624   0.840  0.3699  0.3862 -1.0103
  561MOL0     C75666   9.189   3.502   0.882 -0.7092 -0.7392 -0.8618
  561MOL0     C75667   9.178   3.382   0.794 -0.2374  0.5303  0.5832
  561MOL0     H75668   9.253   3.256   1.398  0.0955  1.5978  0.4843
  561MOL0     H75669   9.413   3.144   1.566  1.2149 -0.9570  0.3858
  561MOL0     H75670   9.621   2.924   1.511  0.4237 -0.1400 -0.5463
  561MOL0     H75671   9.750   2.974   1.394  1.0319 -0.4996  0.2237
  561MOL0     H75672   9.771   2.938   1.694  1.0483 -1.4603 -0.2820
  561MOL0     H75673   9.896   3.011   1.593 -1.5126  3.3167 -0.3652
  561MOL0     H75674   9.939   2.784   1.505 -1.7873  0.1576 -2.2128
  561MOL0     H75675   9.778   2.735   1.513  0.4679 -0.4076 -0.6855
  561MOL0     H75676  10.006   2.746   1.707 -0.2796 -1.5106 -1.1763
  561MOL0     H75677   9.855   2.769   1.790  0.4848  1.5443  0.2697
  561MOL0     H75678   9.781   2.550   1.667  0.2696  0.9341  2.1206
  561MOL0     H75679   9.936   2.537   1.604  1.6545  1.0039  0.8118
  561MOL0     H75680   9.867   2.561   1.898 -1.7309  0.8233 -1.7443
  561MOL0     H75681   9.918   2.411   1.844  1.5452 -0.5203  0.8138
  561MOL0     H75682  10.093   2.502   1.957 -1.7708  1.0283  0.4082
  561MOL0     H75683  10.106   2.646   1.864 -1.3346  1.2880 -4.0239
  561MOL0     H75684  10.162   2.355   1.758 -1.7422  0.3384  1.7274
  561MOL0     H75685  10.137   2.501   1.651 -0.0713 -0.5060 -0.2522
  561MOL0     H75686  10.354   2.640   1.610  2.1173  2.6781  0.3735
  561MOL0     H75687  10.609   2.737   1.609 -1.1989 -1.5377 -2.1798
  561MOL0     H75688  10.708   2.650   1.724 -1.2733 -1.6509  0.2151
  561MOL0     H75689  10.597   2.540   1.447  0.8178  0.1158 -0.4418
  561MOL0     H75690  10.765   2.613   1.477  0.8862 -0.7527  0.5740
  561MOL0     H75691  10.669   2.369   1.614  0.2196 -2.1531 -2.6008
  561MOL0     H75692  10.821   2.450   1.638 -0.3906  1.8278 -0.1921
  561MOL0     H75693  10.780   2.416   1.354 -1.7090  0.9225  1.3069
  561MOL0     H75694  10.731   2.260   1.418  0.1043 -1.1315 -2.0837
  561MOL0     H75695  11.166   2.229   1.488 -2.4855  0.9193 -2.1210
  561MOL0     H75696  11.240   2.025   1.620  0.7390  2.0506 -1.2769
  561MOL0     H75697  11.392   1.674   1.686  1.6373  0.9985  2.3830
  561MOL0     H75698  11.457   1.435   1.758  0.7280  2.9276 -1.9784
  561MOL0     H75699  11.362   1.208   1.801  0.4609 -0.0533 -0.1859
  561MOL0     H75700  11.506   1.264   1.884 -0.1296  0.9738  0.7001
  561MOL0     H75701  11.408   1.091   2.075  1.7583  1.1392  0.6051
  561MOL0     H75702  11.297   1.047   1.937 -0.1642 -0.2850  0.3983
  561MOL0     H75703  11.490   0.972   1.794  3.3663 -0.5272 -0.7349
  561MOL0     H75704  11.602   1.046   1.897  2.0898 -4.3071 -0.3365
  561MOL0     H75705  11.418   0.833   1.999 -1.5704  6.0564 -0.3914
  561MOL0     H75706  11.563   0.886   2.070 -0.5494  1.4918 -0.7547
  561MOL0     H75707  11.537   0.741   1.803 -1.6606  2.0243  1.0212
  561MOL0     H75708  11.602   0.660   1.952  1.7472  0.7840  3.3583
  561MOL0     H75709  11.734   0.907   1.799 -0.3312 -0.6481 -1.1533
  561MOL0     H75710  11.803   0.850   1.949 -3.0495 -1.6583  2.7276
  561MOL0     H75711  11.837   0.621   1.839 -0.4991 -1.3893 -1.7156
  561MOL0     H75712  11.924   0.744   1.758  0.5638 -0.2094  0.6427
  561MOL0     H75713  11.660   0.662   1.652  0.1980 -0.2153 -2.8924
  561MOL0     H75714  11.804   0.750   1.582  4.8634 -0.2522  1.7505
  561MOL0     H75715  11.160   1.487   2.070  2.6446 -0.8943 -0.2269
  561MOL0     H75716  11.096   1.694   1.982 -1.3747  1.5837 -3.3533
  561MOL0     H75717  10.820   1.944   1.692 -0.8748  0.3691 -2.3506
  561MOL0     H75718  10.759   2.132   1.571  0.1374  0.1948 -1.0770
  561MOL0     H75719   9.736   3.239   1.301  0.0353  0.5973  2.8086
  561MOL0     H75720   9.577   3.373   1.171 -1.8041  1.2909  0.1904
  561MOL0     H75721   9.300   3.625   1.179 -0.3015 -0.1648 -0.6126
  561MOL0     H75722   9.195   3.833   1.102  1.3020  0.9262 -0.9970
  561MOL0     H75723   9.127   4.031   0.985 -0.3157  1.5776 -0.2347
  561MOL0     H75724   8.991   3.926   1.014 -1.1151  2.0969  1.6153
  561MOL0     H75725   8.885   4.009   0.784 -0.3051 -0.6642  0.2095
  561MOL0     H75726   9.035   4.104   0.769 -0.8293 -5.2088 -3.6285
  561MOL0     H75727   8.977   4.203   0.990 -0.4098  0.1310 -1.6927
  561MOL0     H75728   8.821   4.127   0.985  0.7743  2.1574  2.6377
  561MOL0     H75729   8.835   4.223   0.728  1.5212  1.7919 -1.7197
  561MOL0     H75730   8.738   4.292   0.867  0.6945  1.7060 -0.6691
  561MOL0     H75731   9.091   4.543   0.831  1.9108 -1.0528 -1.1625
  561MOL0     H75732   9.096   3.624   0.740 -2.0597  1.9802 -0.0859
  561MOL0     H75733   9.111   3.306   0.835 -2.1174  1.4486 -0.6716
  561MOL0     H75734   9.138   3.415   0.698  1.5412  0.4682 -0.2321
  561MOL0     H75735   9.278   3.345   0.769  0.1745  2.7004 -1.3467
  562MOL0     O75736  10.964  10.358   0.294 -0.6985  0.6232 -0.1859
  562MOL0     C75737  11.060  10.314   0.357 -0.2606 -0.1230  0.2975
  562MOL0     O75738  11.059  10.270   0.490 -0.0321 -0.5046 -0.0647
  562MOL0     C75739  10.953  10.292   0.572 -0.2007 -0.2917  1.4707
  562MOL0     C75740  10.910  10.423   0.596  0.8983 -0.2611 -0.3991
  562MOL0     C75741  10.794  10.439   0.679  0.4903  0.4011 -0.1337
  562MOL0     C75742  10.734  10.332   0.745  0.2794 -0.9071 -1.1001
  562MOL0     O75743  10.623  10.367   0.809  0.7029 -0.3215 -0.0823
  562MOL0     C75744  10.505  10.286   0.812 -0.2702 -0.0406 -0.7198
  562MOL0     C75745  10.403  10.346   0.898  0.3854 -0.4298 -0.8926
  562MOL0     C75746  10.260  10.331   0.841  0.3872  0.0267  1.0938
  562MOL0     C75747  10.225  10.467   0.781 -0.3267  0.5270 -0.8926
  562MOL0     C75748  10.077  10.463   0.735  0.0291 -0.3829 -0.5219
  562MOL0     C75749  10.065  10.362   0.622 -0.4974 -0.5667 -0.3618
  562MOL0     C75750   9.949  10.414   0.529  0.1577 -0.2566  0.1290
  562MOL0     C75751   9.914  10.315   0.417  0.1319  0.5071 -1.0361
  562MOL0     N75752   9.857  10.191   0.458 -0.9098 -0.1024  0.8179
  562MOL0     C75753   9.755  10.171   0.548  0.0257  0.0243  0.4474
  562MOL0     C75754   9.719  10.048   0.520  0.0840 -0.1489  0.3803
  562MOL0     C75755   9.605   9.966   0.564 -0.2171 -0.0844 -0.5135
  562MOL0     C75756   9.537   9.902   0.439  0.6850 -0.2384  0.3574
  562MOL0     C75757   9.483  10.009   0.327 -0.4675 -0.3457 -0.8900
  562MOL0     C75758   9.416   9.938   0.211  0.5589 -0.1442  0.3976
  562MOL0     O75759   9.295   9.876   0.259  0.6465  0.0511  0.2604
  562MOL0     C75760   9.292   9.753   0.191  0.4001 -0.8249 -0.3860
  562MOL0     C75761   9.366   9.648   0.238 -0.9863  1.0758 -0.3841
  562MOL0     C75762   9.362   9.528   0.159  0.6216  0.4349  0.5738
  562MOL0     C75763   9.262   9.506   0.058 -0.5448 -0.9972  0.7879
  562MOL0     C75764   9.247   9.378  -0.008 -0.7752 -0.5675  0.2229
  562MOL0     O75765   9.140   9.350  -0.075 -0.0442  0.0985 -0.3686
  562MOL0     C75766   9.116   9.233  -0.136 -0.0127  0.0681  0.5901
  562MOL0     C75767   9.119   9.105  -0.076 -0.6155 -0.5074 -0.8886
  562MOL0     C75768   9.089   8.995  -0.141  1.0429  0.5373 -0.2780
  562MOL0     C75769   9.045   9.005  -0.274  0.6155  0.4950 -0.3238
  562MOL0     O75770   8.998   8.899  -0.349 -0.0637  1.5603 -0.7816
  562MOL0     C75771   8.952   8.779  -0.287  0.3422  0.2064 -0.3009
  562MOL0     C75772   8.853   8.715  -0.391 -0.8110 -0.7422 -0.5906
  562MOL0     C75773   8.932   8.667  -0.513  0.3805 -0.2433  0.0280
  562MOL0     C75774   8.854   8.548  -0.565 -0.2208 -0.2988  0.4068
  562MOL0     C75775   8.920   8.487  -0.693 -0.3336 -0.6180 -0.4700
  562MOL0     C75776   8.816   8.389  -0.748  0.3569 -0.8925 -0.4083
  562MOL0     C75777   8.883   8.335  -0.879 -0.1604 -0.9919 -0.4852
  562MOL0     C75778   8.873   8.440  -0.993 -0.0050  0.0998  0.8996
  562MOL0    Cl75779   8.969   8.378  -1.134 -0.0813 -0.1088 -0.1074
  562MOL0     C75780   9.045   9.135  -0.337  1.1998  0.0505  0.6860
  562MOL0     C75781   9.079   9.246  -0.272 -0.3395  0.0939  0.4130
  562MOL0     O75782   9.344   9.297   0.005 -1.1670 -0.0854 -0.3674
  562MOL0     C75783   9.178   9.614   0.033 -0.4334  0.4493 -0.1166
  562MOL0     C75784   9.197   9.737   0.090  1.2710 -0.0532  0.3942
  562MOL0     N75785   9.795   9.995   0.423 -0.5415  0.0549 -0.3956
  562MOL0     N75786   9.874  10.083   0.379 -0.7842 -0.1385 -0.1183
  562MOL0     C75787  10.781  10.205   0.730 -0.1880  0.4981  0.8965
  562MOL0     C75788  10.887  10.190   0.638 -0.1066 -0.6028 -0.2716
  562MOL0     C75789  11.195  10.303   0.296  0.2752  0.8538 -0.1808
  562MOL0     C75790  11.306  10.255   0.370 -0.4798 -0.4004  0.2596
  562MOL0     C75791  11.437  10.258   0.316  0.2375 -0.8226  0.9000
  562MOL0     C75792  11.464  10.317   0.190  0.4477  0.0723 -0.1229
  562MOL0     O75793  11.586  10.345   0.140 -0.2044 -0.1160  0.5733
  562MOL0     C75794  11.631  10.477   0.177 -1.0926 -0.4325 -1.2376
  562MOL0     C75795  11.694  10.480   0.311  0.2713 -0.2646 -0.2311
  562MOL0     C75796  11.817  10.391   0.317  0.8110  0.0894  0.1077
  562MOL0     C75797  11.936  10.435   0.232 -0.5604  0.2593  0.5230
  562MOL0     C75798  11.987  10.565   0.274  0.8006 -0.2545 -0.4535
  562MOL0     C75799  12.036  10.680   0.305  0.5673  0.3086 -0.2719
  562MOL0     C75800  11.360  10.360   0.121  0.1875  0.4377  0.0761
  562MOL0     C75801  11.231  10.357   0.170  0.5360 -0.9925 -0.0321
  562MOL0     C75802  11.125  10.416   0.075  0.7213 -0.1818 -0.6448
  562MOL0     H75803  10.969  10.510   0.571  1.0200  0.0595  0.9143
  562MOL0     H75804  10.754  10.540   0.680  1.5385  0.8332 -0.1143
  562MOL0     H75805  10.472  10.263   0.710 -0.7345  1.7886 -1.0141
  562MOL0     H75806  10.530  10.188   0.855 -4.1819 -2.3316 -3.1137
  562MOL0     H75807  10.431  10.450   0.918 -0.2254 -0.3568 -0.3797
  562MOL0     H75808  10.402  10.296   0.996 -2.5703 -2.8455 -1.9948
  562MOL0     H75809  10.186  10.299   0.915  0.8375 -1.0321  1.1101
  562MOL0     H75810  10.252  10.254   0.763 -0.6371  1.0275  0.1916
  562MOL0     H75811  10.240  10.545   0.856 -0.7865 -2.6188  2.7995
  562MOL0     H75812  10.281  10.493   0.692 -1.7738  0.1439 -1.9523
  562MOL0     H75813  10.008  10.437   0.816  2.4327 -0.5639  1.5932
  562MOL0     H75814  10.054  10.566   0.706  1.5633  1.0578  2.8481
  562MOL0     H75815  10.159  10.363   0.566 -1.6398 -0.7918 -2.3972
  562MOL0     H75816  10.042  10.269   0.673 -2.6509  1.0698  1.9217
  562MOL0     H75817   9.966  10.516   0.493 -0.0151  0.5212  2.1067
  562MOL0     H75818   9.861  10.421   0.593 -0.0468  0.2947 -0.2132
  562MOL0     H75819   9.851  10.358   0.339 -2.8525  1.9170  1.9134
  562MOL0     H75820  10.010  10.294   0.369 -0.1024 -1.5639 -0.6769
  562MOL0     H75821   9.721  10.241   0.623  1.0283  0.7962  0.2152
  562MOL0     H75822   9.636   9.890   0.636  1.4483  1.5854  0.6228
  562MOL0     H75823   9.540  10.026   0.627  0.9635  2.6609 -1.7219
  562MOL0     H75824   9.609   9.832   0.396  1.1645 -0.9472  2.2244
  562MOL0     H75825   9.450   9.843   0.470  1.0301 -0.9729 -0.0225
  562MOL0     H75826   9.555  10.088   0.304  0.9380 -0.7877  1.5897
  562MOL0     H75827   9.405  10.066   0.380  0.2095  1.0588 -1.3446
  562MOL0     H75828   9.481   9.865   0.162  2.5384  1.3014  0.7452
  562MOL0     H75829   9.375  10.019   0.151  0.5720 -1.0892 -0.9368
  562MOL0     H75830   9.435   9.644   0.322 -2.0955 -1.4544  0.5336
  562MOL0     H75831   9.444   9.458   0.171  0.0714 -0.2807  0.2516
  562MOL0     H75832   9.149   9.103   0.028  0.0065  1.1180 -1.0189
  562MOL0     H75833   9.105   8.903  -0.087  2.5499  2.1146  2.1448
  562MOL0     H75834   9.039   8.715  -0.269  0.2415 -0.0970 -0.8795
  562MOL0     H75835   8.893   8.803  -0.198  0.4626  0.8858 -0.3995
  562MOL0     H75836   8.796   8.638  -0.338  0.6336 -0.3507  1.6718
  562MOL0     H75837   8.787   8.799  -0.415  1.1130  1.2388  0.6635
  562MOL0     H75838   8.945   8.745  -0.588  2.9279 -0.2343  0.4076
  562MOL0     H75839   9.028   8.637  -0.472 -0.5238 -1.2682  1.5179
  562MOL0     H75840   8.750   8.580  -0.575 -0.0443  0.1331 -0.0620
  562MOL0     H75841   8.866   8.476  -0.484 -0.9162 -0.8082  0.0719
  562MOL0     H75842   9.019   8.441  -0.684 -0.2500 -0.6932 -1.5913
  562MOL0     H75843   8.932   8.575  -0.756  0.6422  0.2475  0.8891
  562MOL0     H75844   8.782   8.313  -0.678 -1.0596 -0.5410 -0.6745
  562MOL0     H75845   8.727   8.446  -0.779 -1.4936 -3.3550  0.0124
  562MOL0     H75846   8.827   8.245  -0.906 -0.0512 -1.0860 -0.3943
  562MOL0     H75847   8.987   8.304  -0.867  0.7635  2.5869  2.8891
  562MOL0     H75848   8.766   8.455  -1.014 -0.1771  1.4966  2.5317
  562MOL0     H75849   8.919   8.537  -0.971 -1.2175  0.3211  2.6306
  562MOL0     H75850   8.995   9.151  -0.432 -1.7919 -1.8261  1.7666
  562MOL0     H75851   9.063   9.332  -0.336  0.4625 -2.5467 -3.7208
  562MOL0     H75852   9.102   9.600  -0.043  2.1892 -1.4327 -2.5823
  562MOL0     H75853   9.144   9.823   0.050  1.9803  0.3491  0.3139
  562MOL0     H75854  10.741  10.118   0.781 -3.1445 -0.5343 -2.7677
  562MOL0     H75855  10.925  10.090   0.626  0.3810 -0.4887  0.3222
  562MOL0     H75856  11.298  10.218   0.472  0.5327 -1.1191  0.0967
  562MOL0     H75857  11.524  10.235   0.376  0.9185 -0.1895  0.1807
  562MOL0     H75858  11.550  10.551   0.173  1.2108  2.2330 -2.9411
  562MOL0     H75859  11.700  10.523   0.105 -1.6092  2.3902 -0.0548
  562MOL0     H75860  11.624  10.446   0.389  0.9762  1.1782  1.0913
  562MOL0     H75861  11.715  10.585   0.333 -0.2226  0.9393 -4.6424
  562MOL0     H75862  11.790  10.293   0.276  1.6543 -0.4190  0.7505
  562MOL0     H75863  11.843  10.377   0.423 -2.9283  3.6256  1.7981
  562MOL0     H75864  12.016  10.363   0.252 -0.0670  0.2646 -1.2194
  562MOL0     H75865  11.902  10.438   0.128  0.6206 -0.4657  0.0850
  562MOL0     H75866  12.080  10.772   0.338 -1.2685  0.1669  2.9587
  562MOL0     H75867  11.379  10.401   0.022  3.2065 -2.5793 -0.7807
  562MOL0     H75868  11.155  10.417  -0.030  2.0743 -0.5671 -0.2817
  562MOL0     H75869  11.036  10.352   0.075  2.0767 -2.5067  3.7371
  562MOL0     H75870  11.089  10.511   0.115 -0.9740 -1.4352  0.9862
  563MOL0     O75871   0.362  10.011   4.362 -0.2371  0.3226 -0.4002
  563MOL0     C75872   0.252   9.951   4.349 -0.4578 -1.5459  0.3642
  563MOL0     O75873   0.202   9.898   4.228 -0.1813  0.0674 -0.0075
  563MOL0     C75874   0.281   9.909   4.118 -0.7468  0.3760 -0.6233
  563MOL0     C75875   0.413   9.841   4.124 -0.1263  1.3678  0.8914
  563MOL0     C75876   0.498   9.859   4.014 -0.0406  0.0923 -0.8774
  563MOL0     C75877   0.462   9.941   3.912  0.2525  0.6222 -0.4997
  563MOL0     O75878   0.561   9.966   3.819 -0.2166 -0.2682 -0.8677
  563MOL0     C75879   0.531   9.959   3.685  0.0849 -0.3920  0.0573
  563MOL0     C75880   0.539  10.090   3.618  0.2942  1.0007 -0.0459
  563MOL0     C75881   0.671  10.152   3.617 -0.1396 -0.0471  0.6114
  563MOL0     C75882   0.688  10.272   3.516  0.0320  0.2376 -1.0358
  563MOL0     C75883   0.815  10.353   3.545 -0.4946  0.3535 -0.5511
  563MOL0     C75884   0.815  10.480   3.458 -0.5195 -0.7058 -0.2651
  563MOL0     C75885   0.947  10.539   3.491 -0.4816  0.7777  0.1500
  563MOL0     C75886   0.981  10.661   3.408 -0.3937 -0.4415 -0.4701
  563MOL0     N75887   0.882  10.772   3.404 -1.1219 -0.1066  0.1217
  563MOL0     C75888   0.815  10.836   3.506 -0.2391 -0.7771  0.0638
  563MOL0     C75889   0.735  10.931   3.452  0.5509 -0.6672  0.3028
  563MOL0     C75890   0.648  11.036   3.526 -0.0704  0.2996 -0.0495
  563MOL0     C75891   0.641  11.160   3.448 -1.2098  0.5852 -0.4592
  563MOL0     C75892   0.529  11.245   3.495 -0.7821 -0.1264 -0.3892
  563MOL0     C75893   0.496  11.367   3.396  0.1403  0.0636 -0.6310
  563MOL0     O75894   0.611  11.456   3.382  0.0877 -0.0011  0.2027
  563MOL0     C75895   0.609  11.535   3.271  1.2675 -0.4942  0.0978
  563MOL0     C75896   0.736  11.578   3.242  0.3839 -0.5014  0.3578
  563MOL0     C75897   0.754  11.659   3.134 -0.1587  0.0151  0.0336
  563MOL0     C75898   0.643  11.720   3.064 -0.8949  0.7319  0.1486
  563MOL0     C75899   0.675  11.806   2.949  0.6621 -0.3073  0.4398
  563MOL0     O75900   0.557  11.862   2.893 -0.2614 -0.3108  0.1556
  563MOL0     C75901   0.550  11.970   2.802  0.7405  0.3996 -1.0874
  563MOL0     C75902   0.429  11.973   2.727  0.5077  0.1915 -0.2685
  563MOL0     C75903   0.410  12.077   2.639  0.2742  0.4148  0.4741
  563MOL0     C75904   0.507  12.177   2.626 -1.1031  0.6858  0.3170
  563MOL0     O75905   0.471  12.297   2.567  0.0088  0.5361  0.2820
  563MOL0     C75906   0.365  12.295   2.461 -0.8411 -0.1850 -0.1888
  563MOL0     C75907   0.386  12.406   2.368  0.7018 -0.3093  0.1712
  563MOL0     C75908   0.249  12.443   2.303 -0.1595 -0.1703 -0.7166
  563MOL0     C75909   0.243  12.583   2.240  0.3711  0.8387 -0.6359
  563MOL0     C75910   0.346  12.600   2.123 -0.8233  0.6927  0.0147
  563MOL0     C75911   0.343  12.747   2.080  0.2964  0.2910  0.5517
  563MOL0     C75912   0.404  12.762   1.936 -0.3707  0.6279  0.9603
  563MOL0     C75913   0.416  12.913   1.904 -0.1414  0.0556 -0.4525
  563MOL0    Cl75914   0.497  12.943   1.744  0.0614 -0.1611  0.0055
  563MOL0     C75915   0.617  12.184   2.710  0.1286  0.4073  0.0114
  563MOL0     C75916   0.639  12.073   2.801  0.4061 -0.8225  0.9629
  563MOL0     O75917   0.795  11.825   2.918 -0.2555 -0.3442 -0.7381
  563MOL0     C75918   0.514  11.679   3.102 -0.5105 -0.3021  1.0901
  563MOL0     C75919   0.502  11.585   3.198 -0.6676  0.9705 -0.0009
  563MOL0     N75920   0.738  10.906   3.314 -0.1596 -0.4600  0.1904
  563MOL0     N75921   0.831  10.820   3.285 -0.4726  0.1829  1.0057
  563MOL0     C75922   0.335  10.000   3.913  0.3948  0.6625 -0.0747
  563MOL0     C75923   0.246   9.989   4.018 -0.8966 -0.2931  0.2072
  563MOL0     C75924   0.174   9.922   4.465  0.2804 -0.2921 -0.7804
  563MOL0     C75925   0.077  10.006   4.493  0.3015 -0.2829 -0.2081
  563MOL0     C75926  -0.008   9.987   4.600  0.7796  0.3543 -0.5555
  563MOL0     C75927   0.018   9.886   4.689 -0.5643 -0.8355  0.6365
  563MOL0     O75928  -0.054   9.872   4.801  0.2952 -0.7588  0.4675
  563MOL0     C75929  -0.069   9.748   4.870 -0.0495  0.7702 -0.6936
  563MOL0     C75930  -0.103   9.624   4.779  1.2221 -0.1560  0.2205
  563MOL0     C75931  -0.164   9.509   4.863 -0.5119  0.4686  0.0201
  563MOL0     C75932  -0.120   9.371   4.802 -0.1263 -0.2133 -0.4111
  563MOL0     C75933   0.021   9.336   4.839  0.5920 -0.5425  0.0236
  563MOL0     C75934   0.132   9.324   4.876  0.1502  1.0288  0.1061
  563MOL0     C75935   0.127   9.798   4.662  0.3524  0.2013  0.3919
  563MOL0     C75936   0.211   9.818   4.548  0.0590 -0.6747  0.1096
  563MOL0     C75937   0.335   9.734   4.539 -0.7034  0.4469  0.3824
  563MOL0     H75938   0.438   9.792   4.218 -1.2889  1.6025  1.3468
  563MOL0     H75939   0.600   9.823   4.017  0.8441  2.4450 -0.8877
  563MOL0     H75940   0.592   9.890   3.627 -2.4507 -2.8683  0.1139
  563MOL0     H75941   0.426   9.928   3.683  0.8405 -3.2227 -0.2857
  563MOL0     H75942   0.467  10.158   3.664  1.3122  0.1283  3.0913
  563MOL0     H75943   0.505  10.069   3.516 -2.0383 -1.6997  1.1594
  563MOL0     H75944   0.738  10.070   3.591 -0.0559 -0.3501  1.7401
  563MOL0     H75945   0.701  10.192   3.714  0.6566 -0.1888  0.4367
  563MOL0     H75946   0.683  10.229   3.415 -1.4573 -2.5653  0.1232
  563MOL0     H75947   0.604  10.343   3.517  0.2046  0.4325 -0.0668
  563MOL0     H75948   0.822  10.384   3.650 -2.9963  2.8431 -0.9923
  563MOL0     H75949   0.900  10.286   3.534  0.2221  0.3220  3.5053
  563MOL0     H75950   0.813  10.453   3.352  4.3850 -0.5132 -0.6399
  563MOL0     H75951   0.727  10.541   3.482  0.0189  0.6721 -1.5985
  563MOL0     H75952   1.022  10.461   3.473 -1.7815 -1.0214  2.0302
  563MOL0     H75953   0.940  10.570   3.596 -1.1911  0.5938  0.1592
  563MOL0     H75954   1.071  10.701   3.455 -0.7636 -0.8972  0.6600
  563MOL0     H75955   0.992  10.628   3.304 -0.9605  0.9826 -1.0189
  563MOL0     H75956   0.822  10.836   3.615  0.2367  3.5248  0.2044
  563MOL0     H75957   0.546  11.005   3.552  0.4256  1.1518  3.4857
  563MOL0     H75958   0.688  11.056   3.626  1.0750  1.9691 -0.7927
  563MOL0     H75959   0.740  11.207   3.443 -0.4773 -0.9004 -0.4798
  563MOL0     H75960   0.610  11.138   3.345  0.7149  0.9281 -1.1525
  563MOL0     H75961   0.545  11.272   3.599  0.6213 -2.4489  0.0483
  563MOL0     H75962   0.437  11.186   3.497 -1.0626  0.2949 -0.4892
  563MOL0     H75963   0.406  11.422   3.423 -1.2337  0.2584 -4.9109
  563MOL0     H75964   0.476  11.326   3.297  1.5902  0.0651 -0.9497
  563MOL0     H75965   0.816  11.557   3.312 -0.6559  1.5345  2.2931
  563MOL0     H75966   0.851  11.691   3.099  0.3954  0.5068  1.8749
  563MOL0     H75967   0.348  11.905   2.751  1.2901 -0.5840  0.1876
  563MOL0     H75968   0.312  12.086   2.595  1.7262  0.7732 -2.9462
  563MOL0     H75969   0.370  12.200   2.407  1.0071  0.5738 -1.4544
  563MOL0     H75970   0.266  12.300   2.509 -0.4287 -0.4631  0.7144
  563MOL0     H75971   0.423  12.500   2.410 -0.6370  1.3299 -2.1150
  563MOL0     H75972   0.454  12.372   2.289 -0.2462 -3.4336  0.5839
  563MOL0     H75973   0.238  12.378   2.216  0.7813 -0.3570 -0.7044
  563MOL0     H75974   0.166  12.435   2.373  2.2619  2.2843  2.8433
  563MOL0     H75975   0.258  12.653   2.323 -0.5282  0.3033  0.0006
  563MOL0     H75976   0.141  12.609   2.209 -0.1994  2.3846  2.2144
  563MOL0     H75977   0.323  12.524   2.047  2.7518  0.5057 -1.0696
  563MOL0     H75978   0.446  12.588   2.164  0.9448  3.8077 -2.9248
  563MOL0     H75979   0.241  12.785   2.066  0.0957 -0.6029 -0.4702
  563MOL0     H75980   0.407  12.804   2.148  0.3989  0.2209  0.5131
  563MOL0     H75981   0.345  12.708   1.862 -0.7263  0.5633  1.2852
  563MOL0     H75982   0.502  12.713   1.937 -1.0985 -0.9297  0.1649
  563MOL0     H75983   0.316  12.957   1.905 -0.5008 -0.6914 -1.3849
  563MOL0     H75984   0.467  12.964   1.986  1.8099 -0.2573 -1.3951
  563MOL0     H75985   0.695  12.258   2.702  2.0576 -1.5930 -0.7382
  563MOL0     H75986   0.726  12.076   2.865  0.8439 -1.5751  0.4226
  563MOL0     H75987   0.421  11.706   3.053 -0.5990 -2.8894 -0.3415
  563MOL0     H75988   0.405  11.559   3.239 -0.2193  2.4913  2.1628
  563MOL0     H75989   0.303  10.062   3.830  0.1541  2.5347  1.3391
  563MOL0     H75990   0.147  10.031   4.031 -1.6041 -1.4307 -1.3550
  563MOL0     H75991   0.063  10.089   4.425  1.9523  3.0381  3.1357
  563MOL0     H75992  -0.095  10.049   4.616  0.0430 -0.7055 -0.3743
  563MOL0     H75993  -0.158   9.753   4.934 -0.8438 -0.5019 -1.6555
  563MOL0     H75994   0.025   9.725   4.921  0.3091  0.3253 -1.5345
  563MOL0     H75995  -0.018   9.590   4.718 -0.2030 -1.1730 -1.2863
  563MOL0     H75996  -0.185   9.646   4.710  1.7230  1.8432  0.1912
  563MOL0     H75997  -0.271   9.531   4.858 -0.1160  2.4328 -0.8487
  563MOL0     H75998  -0.133   9.501   4.968  0.0780 -1.0635 -0.2494
  563MOL0     H75999  -0.182   9.289   4.840  0.9568  0.1076  2.2553
  563MOL0     H76000  -0.130   9.385   4.694  0.1789  1.3738 -0.2582
  563MOL0     H76001   0.230   9.305   4.915  0.3249  0.7748 -0.4455
  563MOL0     H76002   0.162   9.735   4.744  1.8331  2.1730  1.3533
  563MOL0     H76003   0.417   9.792   4.495 -1.5243  3.3045  2.3065
  563MOL0     H76004   0.360   9.699   4.640 -0.2428  2.5190  1.0359
  563MOL0     H76005   0.308   9.644   4.483  0.3345 -0.9579  2.0305
  564MOL0     O76006   5.158   8.759   7.446  0.5502  0.2784 -0.6559
  564MOL0     C76007   5.036   8.777   7.461  0.8648  0.3750 -0.1468
  564MOL0     O76008   4.986   8.821   7.571  0.2308 -0.0692 -0.2189
  564MOL0     C76009   5.067   8.854   7.670 -0.9460  0.1682  0.7843
  564MOL0     C76010   5.109   8.736   7.746 -0.6545 -0.8315 -0.0687
  564MOL0     C76011   5.199   8.746   7.856 -0.7472  0.1284  0.7260
  564MOL0     C76012   5.254   8.874   7.886  0.8476 -0.4846  0.7659
  564MOL0     O76013   5.341   8.896   7.990 -0.4162  0.7451 -0.2164
  564MOL0     C76014   5.316   9.001   8.083  0.0855 -0.8294  0.2082
  564MOL0     C76015   5.368   8.983   8.227 -0.4442 -1.1516  0.0331
  564MOL0     C76016   5.521   8.979   8.234  0.6937 -0.1475  0.9834
  564MOL0     C76017   5.589   9.116   8.222 -0.5446  0.3784 -1.0039
  564MOL0     C76018   5.738   9.110   8.164  0.8596  0.4853 -0.5332
  564MOL0     C76019   5.808   9.234   8.112  0.2068 -0.9543 -0.0182
  564MOL0     C76020   5.736   9.315   8.005  0.6106  0.1606 -0.4628
  564MOL0     C76021   5.695   9.229   7.888 -0.5326 -0.6232  1.1698
  564MOL0     N76022   5.689   9.294   7.757  0.1999 -0.0218 -0.0024
  564MOL0     C76023   5.578   9.299   7.674  0.4558 -0.1970  0.3586
  564MOL0     C76024   5.617   9.392   7.580  0.4478  0.8600  0.4366
  564MOL0     C76025   5.540   9.445   7.455  0.8080  0.4981 -0.0040
  564MOL0     C76026   5.392   9.414   7.463 -0.9765 -0.7377 -0.6796
  564MOL0     C76027   5.305   9.485   7.364  0.8804 -0.3705  0.7205
  564MOL0     C76028   5.193   9.387   7.325  0.1853  0.0194  0.0661
  564MOL0     O76029   5.087   9.441   7.245 -0.5395  0.3644 -0.3453
  564MOL0     C76030   5.103   9.439   7.108 -0.1246 -0.2702  0.2644
  564MOL0     C76031   4.985   9.478   7.046 -0.0415 -0.6130 -0.4073
  564MOL0     C76032   4.973   9.494   6.911 -0.6022  0.0045  0.5980
  564MOL0     C76033   5.087   9.472   6.837  0.5084  0.1180  0.0624
  564MOL0     C76034   5.068   9.496   6.696 -1.1374  0.8224 -0.1558
  564MOL0     O76035   4.945   9.488   6.639 -0.5867  0.2484  0.8434
  564MOL0     C76036   4.926   9.501   6.501 -0.8504  0.2671  0.4338
  564MOL0     C76037   4.791   9.538   6.459  0.8654  0.2617  0.6040
  564MOL0     C76038   4.764   9.560   6.324 -0.3628 -0.6983  1.3645
  564MOL0     C76039   4.856   9.529   6.219 -0.0174  0.3788 -0.5457
  564MOL0     O76040   4.805   9.542   6.089  0.2683  0.7575  0.3516
  564MOL0     C76041   4.896   9.539   5.981  0.0085 -0.3896 -0.9450
  564MOL0     C76042   4.826   9.585   5.845 -0.1267  0.5429  0.3196
  564MOL0     C76043   4.803   9.740   5.854  0.8768 -0.0726  0.0451
  564MOL0     C76044   4.711   9.799   5.740  0.1672  0.5109 -0.0519
  564MOL0     C76045   4.657   9.941   5.777  0.3790  0.0357  0.4703
  564MOL0     C76046   4.535   9.976   5.695  0.1326 -0.0206 -0.1358
  564MOL0     C76047   4.509  10.123   5.692  0.6567  0.0834  0.6675
  564MOL0     C76048   4.357  10.148   5.656  0.5992 -0.0653  0.6010
  564MOL0    Cl76049   4.262  10.149   5.810 -0.0323  0.1684 -0.6092
  564MOL0     C76050   4.980   9.474   6.260  0.5895 -0.3567 -0.2209
  564MOL0     C76051   5.015   9.468   6.395 -0.3316  0.2584  0.2427
  564MOL0     O76052   5.164   9.527   6.632 -0.2087  0.5508 -0.2288
  564MOL0     C76053   5.216   9.433   6.897  0.0075 -0.8235  0.5258
  564MOL0     C76054   5.221   9.413   7.040 -1.2386 -0.1797  0.0584
  564MOL0     N76055   5.743   9.439   7.614 -0.0168 -0.9691 -0.3695
  564MOL0     N76056   5.788   9.381   7.726  0.3584  0.7913  0.3806
  564MOL0     C76057   5.218   8.980   7.802  0.9540 -0.0603  0.0613
  564MOL0     C76058   5.131   8.969   7.692 -0.7081  0.6759  0.9799
  564MOL0     C76059   4.933   8.727   7.377  1.0252  0.9725  0.5022
  564MOL0     C76060   4.791   8.756   7.397  0.3132 -0.3809 -0.1778
  564MOL0     C76061   4.685   8.713   7.315 -0.2966  0.4185  0.1498
  564MOL0     C76062   4.718   8.634   7.201 -1.1195  0.2991 -0.0422
  564MOL0     O76063   4.623   8.596   7.109 -0.0796 -0.1684  0.0633
  564MOL0     C76064   4.484   8.562   7.143 -0.4106 -0.7656  1.2094
  564MOL0     C76065   4.487   8.420   7.198  1.1364 -0.2024 -0.2982
  564MOL0     C76066   4.552   8.311   7.114 -0.2525 -0.0576 -0.6634
  564MOL0     C76067   4.546   8.182   7.180  0.6655  0.2612 -0.7023
  564MOL0     C76068   4.596   8.071   7.090 -0.2223 -1.0542 -0.1391
  564MOL0     C76069   4.631   7.970   7.037 -0.2270  0.4607  0.3225
  564MOL0     C76070   4.853   8.615   7.167  0.0368 -0.3036  0.1793
  564MOL0     C76071   4.960   8.651   7.256 -0.4750  0.2796  0.4993
  564MOL0     C76072   5.097   8.601   7.215 -0.3431  0.4411 -0.1389
  564MOL0     H76073   5.064   8.643   7.710 -1.1845 -0.2462 -0.9550
  564MOL0     H76074   5.235   8.662   7.914 -0.4509 -0.5998 -0.4615
  564MOL0     H76075   5.363   9.092   8.044  1.0418 -1.2748  0.2695
  564MOL0     H76076   5.211   9.030   8.090  0.1510 -0.8833  2.1508
  564MOL0     H76077   5.335   8.893   8.280  0.8250 -1.8914 -0.3912
  564MOL0     H76078   5.323   9.069   8.276  2.0904  1.1345 -1.3629
  564MOL0     H76079   5.560   8.915   8.155  1.1371  0.7330  0.4651
  564MOL0     H76080   5.545   8.940   8.333  1.1138  1.4150  1.5405
  564MOL0     H76081   5.528   9.177   8.155 -0.8244  1.5578  0.2834
  564MOL0     H76082   5.581   9.167   8.319 -0.2575  2.9739 -2.2475
  564MOL0     H76083   5.806   9.072   8.240  1.3486 -0.8602 -1.6147
  564MOL0     H76084   5.723   9.034   8.087 -0.5391  0.2778 -0.0963
  564MOL0     H76085   5.817   9.299   8.200 -2.1058 -3.0211  1.8873
  564MOL0     H76086   5.908   9.200   8.083  2.0593 -1.0086  5.4427
  564MOL0     H76087   5.796   9.398   7.968 -0.3359  1.5628  1.0083
  564MOL0     H76088   5.654   9.376   8.045  2.6670  2.6240  0.2174
  564MOL0     H76089   5.783   9.167   7.871  0.0745  0.6046 -0.5333
  564MOL0     H76090   5.599   9.179   7.905 -0.6988 -0.8624 -0.3204
  564MOL0     H76091   5.482   9.252   7.690  2.2552 -3.3597  3.2908
  564MOL0     H76092   5.549   9.553   7.468  0.5051  0.5684 -0.3590
  564MOL0     H76093   5.586   9.413   7.362  1.1392  0.7548  0.0705
  564MOL0     H76094   5.373   9.306   7.460 -0.3944 -0.8372 -0.9986
  564MOL0     H76095   5.362   9.444   7.564 -0.6994  0.8693 -1.0574
  564MOL0     H76096   5.351   9.496   7.265 -1.7838 -0.6463 -0.6301
  564MOL0     H76097   5.270   9.585   7.391  1.6785 -0.2727  1.4471
  564MOL0     H76098   5.140   9.350   7.414 -0.6032 -0.8469 -0.7483
  564MOL0     H76099   5.234   9.297   7.278 -0.1125  0.0539 -0.2658
  564MOL0     H76100   4.903   9.507   7.111  2.4019  3.2684  1.2834
  564MOL0     H76101   4.887   9.531   6.857  0.8577  1.6343 -0.7387
  564MOL0     H76102   4.712   9.543   6.533 -1.0483  2.3258 -1.4169
  564MOL0     H76103   4.661   9.584   6.301 -0.5752 -2.1536  0.6810
  564MOL0     H76104   4.980   9.601   6.013 -0.4879  0.3294 -1.0348
  564MOL0     H76105   4.909   9.431   5.971 -1.4952 -0.6373 -0.4561
  564MOL0     H76106   4.889   9.567   5.757 -1.4533  3.3544 -1.3598
  564MOL0     H76107   4.730   9.537   5.826  0.7467 -1.7869  1.4636
  564MOL0     H76108   4.745   9.751   5.946 -1.9239  1.6750 -1.7341
  564MOL0     H76109   4.896   9.797   5.852  0.4340  0.6641 -1.3643
  564MOL0     H76110   4.631   9.726   5.728 -0.6182  1.3596 -0.0957
  564MOL0     H76111   4.759   9.797   5.642 -1.6141 -2.1705 -0.9806
  564MOL0     H76112   4.737  10.014   5.773 -0.7346  1.2441 -1.8596
  564MOL0     H76113   4.613   9.936   5.877 -2.0766  0.9341 -0.4765
  564MOL0     H76114   4.555   9.952   5.590  2.3496  0.9045  0.0289
  564MOL0     H76115   4.461   9.910   5.740  1.1818 -0.5248  0.8993
  564MOL0     H76116   4.568  10.169   5.612  0.6734 -1.9016 -0.5283
  564MOL0     H76117   4.541  10.168   5.786  2.0961  0.6051 -0.0436
  564MOL0     H76118   4.340  10.250   5.620  0.6557 -0.3456 -0.2291
  564MOL0     H76119   4.329  10.079   5.577  2.2670  0.7501 -0.7749
  564MOL0     H76120   5.052   9.432   6.191 -1.5220  0.2380 -2.9770
  564MOL0     H76121   5.110   9.424   6.424  1.0322  1.8411 -1.5400
  564MOL0     H76122   5.304   9.417   6.836 -0.5501 -1.0734 -0.2397
  564MOL0     H76123   5.314   9.382   7.087 -0.0536 -1.2069 -2.7248
  564MOL0     H76124   5.257   9.077   7.831 -0.6591  0.3304  1.0976
  564MOL0     H76125   5.112   9.057   7.632  0.9414 -0.5652 -1.4943
  564MOL0     H76126   4.759   8.818   7.480  3.4991  0.1136  0.8298
  564MOL0     H76127   4.585   8.746   7.340 -0.3194  1.0187 -0.6987
  564MOL0     H76128   4.424   8.563   7.052 -1.6209 -3.1497  1.9068
  564MOL0     H76129   4.447   8.640   7.211 -0.9427 -0.8348  0.9968
  564MOL0     H76130   4.384   8.391   7.219  1.6743 -1.0768  1.3515
  564MOL0     H76131   4.533   8.429   7.297 -0.6518  0.6099  0.5026
  564MOL0     H76132   4.658   8.326   7.089 -0.5358  1.6660 -0.9597
  564MOL0     H76133   4.490   8.307   7.024  0.0714 -1.8990 -0.8422
  564MOL0     H76134   4.605   8.186   7.272  0.0706  0.0948 -0.3062
  564MOL0     H76135   4.441   8.158   7.196  0.1459  1.2106 -2.4415
  564MOL0     H76136   4.682   7.878   7.017 -1.8846 -0.3066 -0.5671
  564MOL0     H76137   4.876   8.560   7.076  0.2285  0.3756 -0.1864
  564MOL0     H76138   5.105   8.561   7.113  0.4686  0.3564 -0.0419
  564MOL0     H76139   5.158   8.692   7.208  1.4670 -0.8260 -2.1747
  564MOL0     H76140   5.149   8.534   7.284  0.0753  1.2966  0.4017
  565MOL0     O76141   0.299   2.034   0.171 -0.0745  0.6339 -0.4080
  565MOL0     C76142   0.378   2.096   0.116 -0.4827  0.2377  0.1652
  565MOL0     O76143   0.366   2.229   0.086  0.1848 -0.0628  0.2007
  565MOL0     C76144   0.260   2.292   0.146 -0.4995 -0.2944  0.6960
  565MOL0     C76145   0.159   2.350   0.068  0.4806  0.8069 -1.0059
  565MOL0     C76146   0.056   2.414   0.130 -0.3557  0.1993  0.1808
  565MOL0     C76147   0.065   2.445   0.269 -0.6138 -0.6230  1.3447
  565MOL0     O76148  -0.036   2.515   0.329 -0.4752  0.2929 -0.5825
  565MOL0     C76149  -0.149   2.445   0.381 -0.1728 -0.3191  0.2200
  565MOL0     C76150  -0.121   2.342   0.490  0.2917  0.6212 -0.6785
  565MOL0     C76151  -0.080   2.385   0.630  0.1457  0.0104 -0.0992
  565MOL0     C76152  -0.020   2.255   0.695 -0.0757  0.1499  0.0144
  565MOL0     C76153  -0.001   2.280   0.847 -0.0201  0.0445 -0.2593
  565MOL0     C76154   0.102   2.169   0.895  0.3418 -0.6292  0.0779
  565MOL0     C76155   0.142   2.184   1.046  0.4953 -0.0079  0.2982
  565MOL0     C76156   0.033   2.118   1.134  0.7631 -0.1933  0.2690
  565MOL0     N76157   0.083   2.077   1.273  0.0431 -0.5482 -0.3680
  565MOL0     C76158   0.081   1.943   1.324  0.4971 -0.0751 -0.2025
  565MOL0     C76159   0.125   1.952   1.454 -0.5150 -0.7588  0.5590
  565MOL0     C76160   0.151   1.838   1.542  0.2735 -0.6090 -0.2181
  565MOL0     C76161   0.296   1.796   1.555  0.1943 -0.0117 -0.8652
  565MOL0     C76162   0.331   1.759   1.699 -0.2007 -0.4977  0.7025
  565MOL0     C76163   0.329   1.887   1.789 -0.0668 -0.0789  0.6392
  565MOL0     O76164   0.216   1.898   1.869  0.8387  0.4532 -0.2916
  565MOL0     C76165   0.212   1.819   1.982 -0.8157 -0.5421 -1.2193
  565MOL0     C76166   0.084   1.775   2.012 -0.2479  0.2353  0.1453
  565MOL0     C76167   0.058   1.703   2.130  0.2300  0.5870  0.1319
  565MOL0     C76168   0.172   1.664   2.204 -0.0163 -0.8537 -0.0348
  565MOL0     C76169   0.157   1.557   2.302  0.3045  1.1559  0.1932
  565MOL0     O76170   0.029   1.516   2.326  0.0877  0.1051 -0.3488
  565MOL0     C76171   0.004   1.395   2.381  0.0208  0.0743 -0.5919
  565MOL0     C76172   0.079   1.347   2.491  0.5489  0.9084 -0.2048
  565MOL0     C76173   0.054   1.217   2.536 -0.3904 -1.0883  0.1052
  565MOL0     C76174  -0.054   1.150   2.483  0.4756  0.2003  0.8599
  565MOL0     O76175  -0.083   1.024   2.528  0.6317  0.1413  0.2145
  565MOL0     C76176  -0.124   0.920   2.428 -0.2439  0.3539  0.2398
  565MOL0     C76177  -0.275   0.907   2.406  1.2578 -0.5679 -0.1756
  565MOL0     C76178  -0.360   0.951   2.528  0.8634  0.6413 -0.2605
  565MOL0     C76179  -0.346   0.852   2.650 -0.7152 -0.3667  0.6872
  565MOL0     C76180  -0.435   0.895   2.768  0.3681 -0.0602 -0.1056
  565MOL0     C76181  -0.412   0.816   2.897 -0.1776 -0.1714  0.0766
  565MOL0     C76182  -0.270   0.834   2.956  0.5320 -0.5929  0.0217
  565MOL0     C76183  -0.229   0.713   3.047  0.4738 -0.2938 -0.3639
  565MOL0    Cl76184  -0.336   0.697   3.191  0.1236  0.1895 -0.0485
  565MOL0     C76185  -0.131   1.209   2.376 -0.2174 -0.6980 -0.2791
  565MOL0     C76186  -0.096   1.330   2.323  0.0001  0.3789  0.8734
  565MOL0     O76187   0.261   1.499   2.340 -0.2761 -0.2492 -0.0224
  565MOL0     C76188   0.307   1.720   2.178  0.0561  0.7531 -0.2895
  565MOL0     C76189   0.328   1.799   2.070 -0.5127  0.4732 -0.8697
  565MOL0     N76190   0.137   2.091   1.480  0.0290 -0.4529 -1.0584
  565MOL0     N76191   0.110   2.164   1.374  0.5562  0.3496 -0.4223
  565MOL0     C76192   0.166   2.396   0.347 -0.7360  0.2037 -0.0686
  565MOL0     C76193   0.258   2.316   0.285 -0.0974  0.4664  0.9833
  565MOL0     C76194   0.508   2.033   0.071 -0.1471  1.0531  0.7231
  565MOL0     C76195   0.587   2.102  -0.022  0.0790  0.0618  0.0333
  565MOL0     C76196   0.712   2.060  -0.057  0.2956  0.5073  0.0529
  565MOL0     C76197   0.766   1.926  -0.021  0.4156 -0.5981  0.2102
  565MOL0     O76198   0.895   1.884  -0.056  0.1221 -0.1113 -0.3346
  565MOL0     C76199   0.923   1.742  -0.076  0.8173 -0.5370  0.8769
  565MOL0     C76200   0.826   1.664  -0.180 -1.1717 -0.4469  0.5356
  565MOL0     C76201   0.844   1.510  -0.200 -0.2721  0.6596  0.6732
  565MOL0     C76202   0.762   1.457  -0.324 -0.2414 -0.3117 -0.0954
  565MOL0     C76203   0.747   1.316  -0.308  0.4205 -0.3141  0.5260
  565MOL0     C76204   0.730   1.205  -0.269 -0.0819  0.3689 -0.0391
  565MOL0     C76205   0.679   1.852   0.052 -0.3908  0.3964  0.1414
  565MOL0     C76206   0.564   1.905   0.114  1.1644  0.8264  0.3759
  565MOL0     C76207   0.487   1.813   0.202  0.3676  0.6170 -0.1391
  565MOL0     H76208   0.154   2.353  -0.040  0.7144  2.1648 -1.0009
  565MOL0     H76209  -0.016   2.461   0.064  0.1141  0.6065 -0.0508
  565MOL0     H76210  -0.226   2.512   0.420 -0.2331  0.1131 -0.6107
  565MOL0     H76211  -0.189   2.397   0.291 -0.7342  0.1215  0.2289
  565MOL0     H76212  -0.041   2.276   0.455 -0.9280 -1.4951  0.3266
  565MOL0     H76213  -0.213   2.284   0.495  1.6708 -1.5920  0.5365
  565MOL0     H76214  -0.160   2.426   0.692  0.2322  1.3107 -0.8132
  565MOL0     H76215  -0.003   2.462   0.621  2.2895 -1.9781  0.2324
  565MOL0     H76216  -0.084   2.167   0.685  1.1017 -0.6815 -0.3983
  565MOL0     H76217   0.073   2.244   0.639 -1.5662 -1.3379 -2.3412
  565MOL0     H76218   0.029   2.384   0.865 -1.2138  0.1691  1.1977
  565MOL0     H76219  -0.097   2.269   0.899  1.7004  0.3208  3.2761
  565MOL0     H76220   0.064   2.069   0.878 -0.4342 -0.4533  0.7448
  565MOL0     H76221   0.197   2.171   0.840  2.3249 -0.2688  3.2231
  565MOL0     H76222   0.139   2.291   1.066 -0.2916 -0.3877  2.4773
  565MOL0     H76223   0.243   2.142   1.057  0.7117  0.4374  0.0278
  565MOL0     H76224  -0.043   2.195   1.150 -0.5090 -1.1342 -1.0109
  565MOL0     H76225   0.008   2.023   1.087 -2.0423  0.3853  0.4295
  565MOL0     H76226   0.065   1.848   1.275  3.5908 -0.3442 -0.8711
  565MOL0     H76227   0.110   1.857   1.642  1.3628  2.1024 -0.2137
  565MOL0     H76228   0.094   1.754   1.502 -2.2546  1.2393 -0.7294
  565MOL0     H76229   0.311   1.712   1.487 -0.5910  2.0051 -3.7786
  565MOL0     H76230   0.367   1.870   1.515 -0.9483  1.0898 -0.9405
  565MOL0     H76231   0.430   1.713   1.695 -0.4502 -0.9624 -0.4374
  565MOL0     H76232   0.258   1.686   1.736 -1.9286 -0.1541 -1.7473
  565MOL0     H76233   0.337   1.985   1.741  0.1469 -0.3453  0.1283
  565MOL0     H76234   0.417   1.874   1.854 -0.2972  0.5470  1.0880
  565MOL0     H76235   0.007   1.795   1.938  0.6466 -2.8912 -1.7931
  565MOL0     H76236  -0.039   1.665   2.161  0.7600 -0.5931  0.3960
  565MOL0     H76237   0.155   1.408   2.539  1.0195 -0.7632  1.2580
  565MOL0     H76238   0.120   1.182   2.614  1.0336  3.3144  1.1887
  565MOL0     H76239  -0.071   0.923   2.332 -0.2036  2.2494  0.2965
  565MOL0     H76240  -0.083   0.831   2.477  1.2040  1.1654  0.5615
  565MOL0     H76241  -0.305   0.976   2.327  1.6818  1.7607  1.5943
  565MOL0     H76242  -0.297   0.802   2.385  0.9098 -0.6169  0.4084
  565MOL0     H76243  -0.327   1.048   2.567  2.1330 -0.5630  1.8660
  565MOL0     H76244  -0.466   0.963   2.504  0.8305 -1.5233 -1.4133
  565MOL0     H76245  -0.242   0.839   2.682  0.1356  0.1306 -1.6289
  565MOL0     H76246  -0.373   0.751   2.618  0.4238 -0.7897  1.0034
  565MOL0     H76247  -0.543   0.888   2.752 -0.0766  1.4004  1.8125
  565MOL0     H76248  -0.416   1.002   2.785  0.9389 -0.3725  1.3915
  565MOL0     H76249  -0.490   0.851   2.965  0.7760  2.6447 -0.1539
  565MOL0     H76250  -0.439   0.721   2.850 -1.6318  1.8243 -3.6163
  565MOL0     H76251  -0.272   0.930   3.008 -3.4525  1.3403 -3.1420
  565MOL0     H76252  -0.189   0.845   2.882  2.2470  0.2414  1.9130
  565MOL0     H76253  -0.228   0.622   2.987 -2.0263  0.2809 -1.4519
  565MOL0     H76254  -0.133   0.739   3.091  0.5763 -1.0499 -0.1339
  565MOL0     H76255  -0.220   1.156   2.343  0.9253 -2.1615 -1.0961
  565MOL0     H76256  -0.152   1.373   2.240  0.4332  0.5363  0.6629
  565MOL0     H76257   0.391   1.679   2.234 -3.1373  0.4995  5.0614
  565MOL0     H76258   0.424   1.846   2.053 -0.8448  0.6007 -2.5352
  565MOL0     H76259   0.176   2.413   0.454  1.4674 -1.7514  0.1074
  565MOL0     H76260   0.341   2.285   0.348 -0.8306  0.7726  2.1357
  565MOL0     H76261   0.543   2.192  -0.065  0.6502  0.2235 -0.2223
  565MOL0     H76262   0.781   2.111  -0.124  1.9068 -2.0669 -0.3851
  565MOL0     H76263   0.930   1.691   0.021  1.4557 -2.3220 -0.0552
  565MOL0     H76264   1.024   1.736  -0.119  1.4781 -1.2862  2.4304
  565MOL0     H76265   0.848   1.717  -0.273 -0.2812 -1.1154  0.3565
  565MOL0     H76266   0.720   1.682  -0.159 -1.1809  2.6518 -1.4749
  565MOL0     H76267   0.809   1.461  -0.109  0.0199  0.5144  0.7059
  565MOL0     H76268   0.943   1.467  -0.212 -0.3941  0.3342  0.8044
  565MOL0     H76269   0.665   1.508  -0.316 -1.8980 -3.0968 -1.1383
  565MOL0     H76270   0.809   1.483  -0.419 -2.1046  2.9257 -0.2832
  565MOL0     H76271   0.751   1.107  -0.230  2.0856  0.5023 -0.7538
  565MOL0     H76272   0.715   1.753   0.080  1.4928  0.8116 -0.6630
  565MOL0     H76273   0.563   1.744   0.239  0.0701  0.3904  0.0421
  565MOL0     H76274   0.447   1.862   0.291  0.5710 -0.8711  0.7992
  565MOL0     H76275   0.412   1.769   0.136  2.8701  0.7517 -3.3633
  566MOL0     O76276  11.237   1.031   9.344  0.3565  0.2827 -0.0842
  566MOL0     C76277  11.127   1.083   9.371  0.2686 -0.2435  0.6288
  566MOL0     O76278  11.042   1.037   9.467  0.4608  0.1524  0.0856
  566MOL0     C76279  11.094   0.953   9.566 -0.4228 -0.5940 -0.1968
  566MOL0     C76280  11.081   0.984   9.703  0.9145  0.3110 -0.1264
  566MOL0     C76281  11.121   0.903   9.801  0.4211 -0.2815 -0.9542
  566MOL0     C76282  11.169   0.778   9.777  0.1451  1.1865  0.7375
  566MOL0     O76283  11.201   0.690   9.874 -0.0135  0.2760 -0.0122
  566MOL0     C76284  11.175   0.717  10.015 -0.0530 -0.2378 -0.3409
  566MOL0     C76285  11.038   0.674  10.058  0.8177  0.0186  0.9671
  566MOL0     C76286  10.993   0.543   9.996 -0.1347  0.1400 -0.6780
  566MOL0     C76287  10.868   0.562   9.903 -0.0899 -0.4961 -0.1967
  566MOL0     C76288  10.791   0.437   9.849 -0.2412  0.8734  0.0039
  566MOL0     C76289  10.886   0.328   9.812  0.1343  0.3436  1.0824
  566MOL0     C76290  10.817   0.236   9.698 -0.1315  0.3295  0.5632
  566MOL0     C76291  10.679   0.166   9.737  0.6735  0.9828 -0.0097
  566MOL0     N76292  10.681   0.086   9.860 -0.0291 -0.1984  0.4475
  566MOL0     C76293  10.780   0.000   9.893 -0.2400  0.7089 -0.8490
  566MOL0     C76294  10.745  -0.051  10.013  0.1373  0.5578 -0.5296
  566MOL0     C76295  10.844  -0.135  10.099 -0.4686  0.2035 -0.3679
  566MOL0     C76296  10.821  -0.287  10.113 -0.5446 -0.4721  0.3486
  566MOL0     C76297  10.664  -0.321  10.104  0.2766  0.8490  0.3717
  566MOL0     C76298  10.615  -0.330   9.964  1.0885  1.1389 -0.4932
  566MOL0     O76299  10.639  -0.459   9.909 -0.4361 -0.3832  0.0826
  566MOL0     C76300  10.539  -0.554   9.919  0.0071 -0.5671  0.0271
  566MOL0     C76301  10.552  -0.667   9.846  0.3620  0.8008 -0.0663
  566MOL0     C76302  10.453  -0.762   9.840  1.3290 -0.1329 -0.4676
  566MOL0     C76303  10.335  -0.750   9.920 -0.1268 -0.8130  0.4505
  566MOL0     C76304  10.220  -0.851   9.897  0.1030 -1.2039  0.9731
  566MOL0     O76305  10.225  -0.952   9.808  0.3478 -0.2482  0.3763
  566MOL0     C76306  10.116  -1.031   9.770 -0.6264  0.4603 -0.0604
  566MOL0     C76307  10.125  -1.173   9.774  0.2194  0.0540  0.5501
  566MOL0     C76308  10.024  -1.265   9.738  0.7709 -0.3724 -0.7107
  566MOL0     C76309   9.895  -1.202   9.711  0.8014 -0.1516 -0.1896
  566MOL0     O76310   9.778  -1.269   9.676  0.3135  0.1258  0.3821
  566MOL0     C76311   9.759  -1.406   9.688 -0.2074  0.3926  0.1689
  566MOL0     C76312   9.758  -1.466   9.541  0.7331 -0.2060 -0.0365
  566MOL0     C76313   9.735  -1.623   9.546 -1.5131  0.1889  0.3139
  566MOL0     C76314   9.586  -1.646   9.530  0.4515 -0.0653 -0.3922
  566MOL0     C76315   9.537  -1.788   9.554  0.0791  0.3951 -0.2811
  566MOL0     C76316   9.537  -1.833   9.698 -0.0800  0.8104 -0.7404
  566MOL0     C76317   9.485  -1.980   9.706 -0.2628 -0.2126 -0.1718
  566MOL0     C76318   9.454  -2.029   9.852 -1.6830 -0.3153  0.4231
  566MOL0    Cl76319   9.370  -2.195   9.840 -0.3340  0.0419 -0.0754
  566MOL0     C76320   9.885  -1.062   9.722  0.7492  0.1942  0.4731
  566MOL0     C76321   9.991  -0.980   9.738 -0.3385  0.0956 -0.1944
  566MOL0     O76322  10.130  -0.831   9.972 -0.0015  0.7409  0.2461
  566MOL0     C76323  10.331  -0.642  10.012  0.0215  0.3576 -0.2340
  566MOL0     C76324  10.427  -0.546  10.004 -0.3957 -0.0393 -0.1051
  566MOL0     N76325  10.615  -0.004  10.050  0.2271  0.6467  0.0788
  566MOL0     N76326  10.582   0.089   9.965 -0.6303  0.2846 -0.0666
  566MOL0     C76327  11.178   0.736   9.641 -0.3901 -0.6285 -0.1507
  566MOL0     C76328  11.142   0.822   9.538 -0.1157  0.3477  0.0148
  566MOL0     C76329  11.070   1.191   9.285  1.3636  0.5109 -0.7763
  566MOL0     C76330  10.941   1.246   9.327 -0.2351 -0.2908 -0.7761
  566MOL0     C76331  10.871   1.333   9.241 -1.5821 -0.3101 -0.3640
  566MOL0     C76332  10.941   1.388   9.133  1.8001 -0.3352  1.0266
  566MOL0     O76333  10.869   1.487   9.075 -0.3839 -0.1577  0.4651
  566MOL0     C76334  10.932   1.590   9.002  0.1407 -0.8843  0.4352
  566MOL0     C76335  10.825   1.689   8.957 -0.1319  0.1544 -0.0224
  566MOL0     C76336  10.724   1.735   9.071 -0.2886 -0.5704 -0.5031
  566MOL0     C76337  10.781   1.844   9.169  1.1006 -0.4415  0.2183
  566MOL0     C76338  10.664   1.871   9.255 -0.1930  0.1584  0.6966
  566MOL0     C76339  10.575   1.891   9.333  0.8679  0.2894  0.0148
  566MOL0     C76340  11.064   1.352   9.098 -0.6295  0.0435  0.0309
  566MOL0     C76341  11.127   1.248   9.171 -0.2535 -0.6005 -0.0436
  566MOL0     C76342  11.263   1.203   9.131 -0.5600 -0.6697 -0.6884
  566MOL0     H76343  11.046   1.085   9.723 -1.9101 -0.4702 -0.8146
  566MOL0     H76344  11.123   0.944   9.901  2.8189 -0.2206 -0.9583
  566MOL0     H76345  11.255   0.659  10.061  0.6541  0.3278 -0.8253
  566MOL0     H76346  11.208   0.818  10.043  4.1980 -0.8703 -2.2064
  566MOL0     H76347  10.971   0.754  10.026 -0.1723 -1.0874  0.1693
  566MOL0     H76348  11.038   0.666  10.168 -0.4445  2.5673  1.2246
  566MOL0     H76349  10.977   0.477  10.081  1.4437  0.4696 -0.0797
  566MOL0     H76350  11.074   0.509   9.931 -1.4382 -4.0096 -0.3641
  566MOL0     H76351  10.789   0.624   9.948  0.5007 -0.8098  1.3535
  566MOL0     H76352  10.903   0.625   9.821 -2.5550 -0.6030 -1.4233
  566MOL0     H76353  10.719   0.401   9.923 -1.3969 -0.4500 -1.7050
  566MOL0     H76354  10.729   0.466   9.764 -2.1684  1.5103  1.5453
  566MOL0     H76355  10.974   0.380   9.772 -0.0400 -0.2624 -0.1316
  566MOL0     H76356  10.922   0.266   9.894  1.7187 -0.8566 -0.4493
  566MOL0     H76357  10.896   0.166   9.673  1.2133  0.9742  2.7230
  566MOL0     H76358  10.794   0.307   9.618 -2.7643 -0.3431  0.6360
  566MOL0     H76359  10.609   0.250   9.747 -1.2119 -0.7796  3.0836
  566MOL0     H76360  10.643   0.114   9.647  0.7976 -0.3115  0.6674
  566MOL0     H76361  10.873  -0.021   9.841 -1.2411 -2.6355 -1.5370
  566MOL0     H76362  10.949  -0.115  10.077 -0.3109 -1.9424 -1.9431
  566MOL0     H76363  10.828  -0.099  10.201 -0.0679 -0.3780 -0.0899
  566MOL0     H76364  10.866  -0.332  10.024 -1.8877 -1.1510 -0.0255
  566MOL0     H76365  10.875  -0.317  10.202  0.9185  1.1028  0.0437
  566MOL0     H76366  10.617  -0.242  10.163  0.5782  0.0924  1.6664
  566MOL0     H76367  10.643  -0.414  10.158  2.3295 -0.0018 -0.1708
  566MOL0     H76368  10.658  -0.258   9.894 -0.4215  1.3419 -1.2600
  566MOL0     H76369  10.507  -0.313   9.969  0.8895 -0.3288  1.7550
  566MOL0     H76370  10.642  -0.669   9.786  0.2086 -0.6793 -0.2653
  566MOL0     H76371  10.471  -0.858   9.793 -0.2120 -1.2228  1.0397
  566MOL0     H76372  10.220  -1.214   9.806 -0.7344 -2.0127  0.9429
  566MOL0     H76373  10.035  -1.372   9.740  0.2600 -0.4492 -1.5948
  566MOL0     H76374   9.830  -1.466   9.745 -1.1027 -3.1933 -2.1937
  566MOL0     H76375   9.659  -1.435   9.722  0.4617 -2.5852 -0.2156
  566MOL0     H76376   9.672  -1.426   9.486  0.1555 -3.8599 -2.1683
  566MOL0     H76377   9.856  -1.452   9.495  2.3320 -0.4963  3.0443
  566MOL0     H76378   9.775  -1.669   9.455 -3.4949 -1.4973  0.2131
  566MOL0     H76379   9.773  -1.664   9.640  1.3731 -1.5845 -1.4800
  566MOL0     H76380   9.568  -1.628   9.424  1.6549  3.2212 -0.1565
  566MOL0     H76381   9.522  -1.572   9.580 -1.6177 -0.5776 -2.1028
  566MOL0     H76382   9.610  -1.846   9.497  3.3784  2.1662  1.8223
  566MOL0     H76383   9.440  -1.794   9.504  0.0826 -2.4916 -0.0823
  566MOL0     H76384   9.639  -1.829   9.736 -0.3567  0.1401  0.0948
  566MOL0     H76385   9.477  -1.765   9.759  0.2208  0.0131  0.4675
  566MOL0     H76386   9.562  -2.051   9.672 -0.8671  1.6088 -6.6484
  566MOL0     H76387   9.400  -1.990   9.637 -0.2256  1.1327 -0.4391
  566MOL0     H76388   9.546  -2.034   9.912 -2.2528 -1.8568  1.2061
  566MOL0     H76389   9.389  -1.955   9.899  1.4665  1.8335  1.7737
  566MOL0     H76390   9.790  -1.017   9.695  0.1801 -0.5786  1.1023
  566MOL0     H76391   9.977  -0.874   9.724 -0.7860 -0.0732 -1.0814
  566MOL0     H76392  10.251  -0.633  10.085 -0.5272  1.2270 -0.9286
  566MOL0     H76393  10.409  -0.455  10.061 -1.2032 -0.6695  0.6538
  566MOL0     H76394  11.210   0.633   9.627  2.9845 -0.4640  4.1278
  566MOL0     H76395  11.150   0.782   9.438  2.5598 -2.3936  1.1702
  566MOL0     H76396  10.892   1.210   9.417 -2.4798  1.8253 -1.0287
  566MOL0     H76397  10.768   1.347   9.272 -2.0339 -2.1714 -0.8800
  566MOL0     H76398  10.991   1.551   8.919 -1.1237 -1.8526 -0.0489
  566MOL0     H76399  11.002   1.643   9.067  1.1194 -2.0124  0.3288
  566MOL0     H76400  10.760   1.631   8.891 -1.7951  1.0573  0.7445
  566MOL0     H76401  10.880   1.773   8.913  1.1656 -0.2951  0.7026
  566MOL0     H76402  10.674   1.649   9.117  0.5709 -1.4234 -1.1100
  566MOL0     H76403  10.646   1.782   9.010  2.1523 -0.3952 -3.7772
  566MOL0     H76404  10.868   1.810   9.226  0.6618 -4.2980 -1.1722
  566MOL0     H76405  10.802   1.943   9.126  1.8995 -0.1946  1.1418
  566MOL0     H76406  10.482   1.898   9.387 -0.5038 -1.7502 -1.8764
  566MOL0     H76407  11.123   1.390   9.016 -0.0278 -0.1818  0.3579
  566MOL0     H76408  11.300   1.259   9.045  4.8951 -1.0462  1.0306
  566MOL0     H76409  11.328   1.221   9.217  0.2964 -2.2033 -0.9739
  566MOL0     H76410  11.282   1.101   9.097  4.8850  0.5501 -2.3280
  567MOL0     O76411   8.457   0.183   3.756  0.2706 -0.6264  0.3140
  567MOL0     C76412   8.457   0.124   3.862  0.8651 -1.1278  0.9654
  567MOL0     O76413   8.524   0.166   3.969  1.0078  1.0316  0.3139
  567MOL0     C76414   8.604   0.282   3.961 -1.2571  0.4452  0.4696
  567MOL0     C76415   8.741   0.258   3.978 -0.5088 -0.2452  0.4678
  567MOL0     C76416   8.838   0.359   3.981  1.1722  0.5177 -0.1067
  567MOL0     C76417   8.799   0.491   3.952 -0.1529 -0.3294  0.4540
  567MOL0     O76418   8.897   0.578   3.957 -0.2245  0.1879  0.4056
  567MOL0     C76419   8.894   0.693   3.876  0.1222 -0.5754  0.2894
  567MOL0     C76420   9.030   0.710   3.819 -0.2227  0.1515  0.2534
  567MOL0     C76421   9.118   0.799   3.919  0.3874 -0.2864  0.1632
  567MOL0     C76422   9.245   0.821   3.833  0.1692 -0.1814  0.4666
  567MOL0     C76423   9.361   0.880   3.920 -0.2601  0.9308 -0.1085
  567MOL0     C76424   9.490   0.898   3.840 -0.2207 -0.4021  0.8429
  567MOL0     C76425   9.608   0.938   3.933  0.5369 -0.0295 -0.8000
  567MOL0     C76426   9.571   1.053   4.025 -0.1921  0.5444 -0.3796
  567MOL0     N76427   9.673   1.090   4.130  0.6011 -0.4948  0.4656
  567MOL0     C76428   9.806   1.112   4.110 -0.7621 -0.2983 -0.5582
  567MOL0     C76429   9.866   1.075   4.224 -0.6184 -0.4798  0.8493
  567MOL0     C76430  10.010   1.061   4.249  0.2202 -0.2495  0.2616
  567MOL0     C76431  10.050   0.913   4.292 -0.4568 -0.5914  0.0663
  567MOL0     C76432  10.079   0.830   4.169 -0.2772  0.1046  0.1511
  567MOL0     C76433  10.116   0.700   4.216 -0.2934 -0.5160 -0.1634
  567MOL0     O76434  10.146   0.613   4.103 -0.0029 -0.6476  0.1584
  567MOL0     C76435  10.211   0.499   4.135  0.5263 -0.0871 -1.1130
  567MOL0     C76436  10.218   0.450   4.275 -0.0591 -0.3680  0.0634
  567MOL0     C76437  10.270   0.327   4.302 -0.0672 -0.4515 -0.1407
  567MOL0     C76438  10.329   0.248   4.201 -0.6051 -0.1938 -0.0490
  567MOL0     C76439  10.383   0.116   4.246 -1.2397 -0.8928  0.7396
  567MOL0     O76440  10.468   0.070   4.145  0.0726  0.3575 -0.1335
  567MOL0     C76441  10.558  -0.036   4.160 -0.3953 -0.1406  0.1237
  567MOL0     C76442  10.641  -0.069   4.049  0.4522  0.0617  0.3582
  567MOL0     C76443  10.745  -0.167   4.069 -0.8751  0.8952 -0.2030
  567MOL0     C76444  10.762  -0.238   4.190 -0.1545 -0.7981  0.6505
  567MOL0     O76445  10.851  -0.333   4.208 -0.2179 -0.1493  0.3400
  567MOL0     C76446  10.913  -0.351   4.336  0.4438 -0.3019 -0.0850
  567MOL0     C76447  10.944  -0.502   4.350  0.2952  0.4231  0.1842
  567MOL0     C76448  11.043  -0.531   4.473  0.0111 -0.4126  0.6494
  567MOL0     C76449  11.063  -0.679   4.508  0.5951 -0.7652  0.1913
  567MOL0     C76450  10.950  -0.741   4.586 -0.7985  0.2884 -0.4587
  567MOL0     C76451  10.971  -0.700   4.732  0.9580  0.5939 -0.4438
  567MOL0     C76452  10.875  -0.770   4.835  0.3372 -0.3782 -0.0168
  567MOL0     C76453  10.894  -0.699   4.966 -0.2497 -0.6622 -0.3333
  567MOL0    Cl76454  10.822  -0.783   5.096 -0.3758 -0.0911 -0.0065
  567MOL0     C76455  10.669  -0.210   4.295 -0.0847 -0.0966  0.2941
  567MOL0     C76456  10.583  -0.103   4.285  0.0498 -1.5177  0.3311
  567MOL0     O76457  10.354   0.067   4.354 -0.2323 -0.4945  0.0165
  567MOL0     C76458  10.338   0.297   4.071 -0.5497  0.1148  0.7115
  567MOL0     C76459  10.276   0.416   4.044 -0.1672 -0.2364 -0.4368
  567MOL0     N76460   9.761   1.062   4.321  0.1297  0.4560  0.6758
  567MOL0     N76461   9.648   1.071   4.267  0.1432  0.1401 -0.2935
  567MOL0     C76462   8.661   0.517   3.928 -0.4189  0.7192  0.3081
  567MOL0     C76463   8.556   0.412   3.938  0.1476 -0.0738 -0.1477
  567MOL0     C76464   8.396  -0.011   3.876 -0.3966 -0.1022  1.2550
  567MOL0     C76465   8.460  -0.106   3.957  0.3139  0.1913 -1.0495
  567MOL0     C76466   8.425  -0.244   3.944 -0.7365 -0.4950 -0.0133
  567MOL0     C76467   8.324  -0.293   3.876  0.7097  0.4278  0.0209
  567MOL0     O76468   8.299  -0.429   3.895  0.2319 -0.4510 -0.1381
  567MOL0     C76469   8.242  -0.487   3.779 -0.2786 -0.5833  0.1086
  567MOL0     C76470   8.257  -0.635   3.789 -0.4517 -0.5621 -0.4453
  567MOL0     C76471   8.149  -0.689   3.880  0.1881 -0.3130 -0.3755
  567MOL0     C76472   8.002  -0.668   3.844  0.2178  0.1109  0.2629
  567MOL0     C76473   7.960  -0.715   3.709  0.5334 -0.0752  0.1325
  567MOL0     C76474   7.905  -0.727   3.601 -0.4410 -0.6959  0.4975
  567MOL0     C76475   8.244  -0.195   3.802 -0.0751  0.4360 -0.4708
  567MOL0     C76476   8.284  -0.064   3.802  0.0124 -0.4126 -0.3890
  567MOL0     C76477   8.193   0.030   3.727 -0.6057 -0.5430 -0.5289
  567MOL0     H76478   8.768   0.154   3.994 -3.3648 -1.6760 -2.6675
  567MOL0     H76479   8.939   0.329   4.006  0.9038 -0.9337 -0.6623
  567MOL0     H76480   8.821   0.691   3.794  0.9022 -0.4403 -0.4157
  567MOL0     H76481   8.871   0.780   3.938  0.5978  1.9199 -2.7927
  567MOL0     H76482   9.035   0.763   3.723  2.2342 -0.4388  0.0015
  567MOL0     H76483   9.072   0.609   3.808  1.4686  0.7229  1.0991
  567MOL0     H76484   9.128   0.746   4.014  0.5898  0.5134  0.5935
  567MOL0     H76485   9.068   0.891   3.947  0.4479 -0.2453  0.1349
  567MOL0     H76486   9.266   0.725   3.785 -6.8481 -0.0344 -4.5599
  567MOL0     H76487   9.224   0.884   3.746 -2.2836 -1.1042  0.2893
  567MOL0     H76488   9.323   0.975   3.959  0.8247  0.4151  2.4157
  567MOL0     H76489   9.372   0.811   4.004 -3.3671  1.7459  1.1077
  567MOL0     H76490   9.514   0.798   3.803  2.1524  1.2929 -2.6822
  567MOL0     H76491   9.479   0.968   3.757  1.9574 -0.2707  0.6150
  567MOL0     H76492   9.697   0.961   3.874  1.2214  1.9767  0.8820
  567MOL0     H76493   9.638   0.852   3.994  3.5375  0.4533 -1.4463
  567MOL0     H76494   9.554   1.139   3.960 -0.6571 -0.9703 -2.3287
  567MOL0     H76495   9.480   1.031   4.081 -0.2431 -1.2449 -1.1069
  567MOL0     H76496   9.856   1.139   4.018  2.2971  1.8344  1.5392
  567MOL0     H76497  10.061   1.092   4.157 -1.6855 -1.6970 -1.3775
  567MOL0     H76498  10.036   1.131   4.329 -1.1110 -1.5488  1.9209
  567MOL0     H76499  10.138   0.932   4.353  0.4137 -0.0270 -1.3174
  567MOL0     H76500   9.972   0.863   4.351  1.1211 -2.6332  0.5266
  567MOL0     H76501  10.170   0.868   4.120 -0.4003 -0.6653 -0.7183
  567MOL0     H76502   9.994   0.825   4.100  0.8908  0.9684 -1.4324
  567MOL0     H76503  10.032   0.655   4.269 -0.5942  0.6898  0.4209
  567MOL0     H76504  10.206   0.710   4.277 -2.1333 -1.4803  2.9158
  567MOL0     H76505  10.181   0.508   4.359 -0.5755 -2.3266  1.2685
  567MOL0     H76506  10.270   0.305   4.408  1.1241  2.3388  0.5206
  567MOL0     H76507  10.641  -0.016   3.954  0.5028  0.6389  0.6787
  567MOL0     H76508  10.819  -0.184   3.990 -0.4185 -2.8405  0.8072
  567MOL0     H76509  10.997  -0.282   4.336 -1.4949  2.2081  0.1164
  567MOL0     H76510  10.848  -0.317   4.416 -1.1698 -2.3194 -0.4501
  567MOL0     H76511  10.852  -0.561   4.357  2.6109 -3.6175 -0.4352
  567MOL0     H76512  10.993  -0.533   4.257 -1.6659  1.0397 -1.1086
  567MOL0     H76513  11.138  -0.480   4.456 -1.5607  2.2348 -0.9048
  567MOL0     H76514  11.000  -0.476   4.557  1.6891  2.2423 -0.1225
  567MOL0     H76515  11.158  -0.679   4.562  0.6628 -1.5307  0.0755
  567MOL0     H76516  11.073  -0.740   4.417 -1.3297 -0.7771 -0.0469
  567MOL0     H76517  10.951  -0.850   4.577  2.3225 -0.0014  1.7091
  567MOL0     H76518  10.856  -0.705   4.543 -1.3340 -1.1990 -0.5828
  567MOL0     H76519  11.077  -0.707   4.760  0.3660  0.6568  1.9750
  567MOL0     H76520  10.938  -0.596   4.737 -2.8533 -0.5013  0.6296
  567MOL0     H76521  10.901  -0.876   4.841 -1.0098 -0.9622 -2.7453
  567MOL0     H76522  10.771  -0.769   4.802 -0.3139  3.1537  1.7083
  567MOL0     H76523  11.000  -0.687   4.991 -0.2348  2.9039 -1.4983
  567MOL0     H76524  10.859  -0.595   4.964  1.0471 -0.2206 -1.5332
  567MOL0     H76525  10.659  -0.271   4.384  1.1814  0.6177  0.9557
  567MOL0     H76526  10.539  -0.061   4.374  1.3074  2.9988 -0.9509
  567MOL0     H76527  10.398   0.254   3.992 -0.5046 -0.2830  0.9600
  567MOL0     H76528  10.267   0.451   3.942  0.9176 -0.4995 -0.6319
  567MOL0     H76529   8.633   0.619   3.903 -0.1195 -0.2692 -5.5921
  567MOL0     H76530   8.450   0.433   3.935  0.1959  0.0991 -1.4531
  567MOL0     H76531   8.547  -0.074   4.014 -1.1621  2.1686  0.2050
  567MOL0     H76532   8.490  -0.321   3.984  2.3589  1.3891 -0.9870
  567MOL0     H76533   8.301  -0.472   3.688  0.3432 -0.6680  0.4873
  567MOL0     H76534   8.139  -0.462   3.755 -0.4601 -1.4342 -0.0204
  567MOL0     H76535   8.355  -0.667   3.826 -0.1402 -0.5152 -1.2089
  567MOL0     H76536   8.244  -0.671   3.686 -1.2285  0.4177 -0.7001
  567MOL0     H76537   8.162  -0.645   3.979  1.6507 -0.2709 -0.5750
  567MOL0     H76538   8.172  -0.795   3.895  2.1088 -0.4309 -3.3408
  567MOL0     H76539   7.936  -0.706   3.923  0.2296  0.5209  0.4723
  567MOL0     H76540   7.981  -0.561   3.845  0.9099  0.2602 -0.6606
  567MOL0     H76541   7.855  -0.743   3.508  0.6470 -1.6003  0.0443
  567MOL0     H76542   8.154  -0.232   3.754  0.7789 -3.6771  0.6953
  567MOL0     H76543   8.236   0.122   3.686  2.4080 -1.4526  0.3494
  567MOL0     H76544   8.145  -0.015   3.639 -0.6616  0.4410 -1.0095
  567MOL0     H76545   8.121   0.068   3.800 -0.5922 -1.1653 -0.1839
  568MOL0     O76546  11.021   3.508   3.506  0.8030  0.3871 -0.3526
  568MOL0     C76547  10.907   3.501   3.461  0.2042  0.4299  0.0297
  568MOL0     O76548  10.876   3.460   3.328  0.0416 -0.2574 -0.4941
  568MOL0     C76549  10.979   3.405   3.249  0.3590 -0.4270 -0.1721
  568MOL0     C76550  11.040   3.477   3.149  0.5219 -0.4012 -0.1425
  568MOL0     C76551  11.138   3.414   3.071  0.0152  0.2654 -0.5331
  568MOL0     C76552  11.172   3.280   3.088 -0.1451 -0.3065  0.0381
  568MOL0     O76553  11.270   3.236   3.006 -1.0177 -0.3159 -0.9489
  568MOL0     C76554  11.306   3.097   3.003  0.6194 -0.8984 -0.5340
  568MOL0     C76555  11.426   3.064   2.915 -0.0649  0.3436 -0.4005
  568MOL0     C76556  11.542   3.149   2.927  0.2996 -0.6019  0.2587
  568MOL0     C76557  11.589   3.173   3.073 -0.3429  0.4733  0.2946
  568MOL0     C76558  11.720   3.247   3.074 -0.0616  0.4353  0.2347
  568MOL0     C76559  11.789   3.266   3.209 -0.4650  0.1146  0.2942
  568MOL0     C76560  11.923   3.343   3.195  0.8995  0.0320 -0.3339
  568MOL0     C76561  11.930   3.490   3.170  0.1260  0.1082  0.0878
  568MOL0     N76562  11.907   3.567   3.294  0.6365  0.4888 -0.3179
  568MOL0     C76563  11.786   3.596   3.356 -0.6520  0.0178 -0.1048
  568MOL0     C76564  11.814   3.694   3.448  0.5360  0.0751  0.8415
  568MOL0     C76565  11.718   3.764   3.541 -0.5942  0.3313 -0.8383
  568MOL0     C76566  11.721   3.685   3.680 -0.0212 -1.0752 -0.5105
  568MOL0     C76567  11.614   3.743   3.778  0.4538  0.2148  0.3994
  568MOL0     C76568  11.669   3.715   3.925  0.4062  0.6022  0.5364
  568MOL0     O76569  11.691   3.577   3.957 -0.6438  0.7635  0.0779
  568MOL0     C76570  11.819   3.530   3.971 -0.4125 -0.3705 -0.6280
  568MOL0     C76571  11.847   3.392   3.977  0.8059 -0.1636  0.5431
  568MOL0     C76572  11.968   3.338   3.988  0.0579 -0.0654 -0.0066
  568MOL0     C76573  12.076   3.420   3.995 -1.3512 -0.2107 -0.1683
  568MOL0     C76574  12.207   3.367   4.009  0.4262  0.2634  0.4698
  568MOL0     O76575  12.309   3.439   3.952 -0.2507 -0.0015  0.0252
  568MOL0     C76576  12.434   3.372   3.962  0.2648 -0.6179 -0.5111
  568MOL0     C76577  12.507   3.384   4.078  0.0284  0.3797  0.0251
  568MOL0     C76578  12.632   3.322   4.088 -0.2133  0.4455 -0.2770
  568MOL0     C76579  12.690   3.265   3.973  0.0874  0.3966 -0.6813
  568MOL0     O76580  12.824   3.231   3.966  0.2487  0.1859  0.7363
  568MOL0     C76581  12.892   3.193   4.085 -0.3003 -0.3177 -0.2226
  568MOL0     C76582  13.016   3.106   4.051  0.0154 -0.5062  0.2948
  568MOL0     C76583  12.972   2.970   4.002  0.3650 -0.1750  0.0722
  568MOL0     C76584  13.103   2.908   3.939 -0.4256 -0.1778 -0.1690
  568MOL0     C76585  13.102   2.761   3.909  0.0023  0.9252 -1.0612
  568MOL0     C76586  13.232   2.714   3.856 -0.5213  0.3540 -0.0078
  568MOL0     C76587  13.328   2.680   3.976 -1.3669  0.4640  1.1420
  568MOL0     C76588  13.277   2.551   4.045 -0.0164  0.3558 -0.3239
  568MOL0    Cl76589  13.400   2.481   4.143 -0.3876 -0.4898  0.2076
  568MOL0     C76590  12.612   3.255   3.857  0.5820 -0.1489 -1.5003
  568MOL0     C76591  12.486   3.310   3.848  0.6408 -0.9971 -0.1648
  568MOL0     O76592  12.213   3.255   4.058  0.1784  0.4003 -0.5071
  568MOL0     C76593  12.055   3.559   3.988  0.2282 -0.1801 -0.3754
  568MOL0     C76594  11.929   3.615   3.977 -0.0451 -0.7922  0.8806
  568MOL0     N76595  11.945   3.732   3.418 -1.1374  0.3110 -0.3358
  568MOL0     N76596  11.996   3.653   3.336 -0.5705 -0.4643 -0.2194
  568MOL0     C76597  11.115   3.209   3.196 -0.4521 -1.5358 -0.3295
  568MOL0     C76598  11.023   3.271   3.274 -0.8375  0.5948 -1.3844
  568MOL0     C76599  10.799   3.521   3.563  0.2187 -0.8259 -0.3689
  568MOL0     C76600  10.823   3.616   3.666  0.0042  0.6270 -0.5262
  568MOL0     C76601  10.729   3.639   3.769 -0.2049 -0.0908  0.1062
  568MOL0     C76602  10.617   3.550   3.773  0.1162  0.6095 -0.4549
  568MOL0     O76603  10.546   3.550   3.883 -0.3629  0.0175  0.7629
  568MOL0     C76604  10.611   3.520   4.013 -0.6528  0.0525  0.2917
  568MOL0     C76605  10.512   3.439   4.098  0.0708  0.1646  0.3754
  568MOL0     C76606  10.397   3.523   4.150  1.1927  0.3109 -0.1783
  568MOL0     C76607  10.282   3.428   4.197 -0.5266 -0.2228  0.3956
  568MOL0     C76608  10.328   3.365   4.320 -1.2050 -0.2824 -0.1058
  568MOL0     C76609  10.365   3.319   4.430 -0.0581 -0.6507 -0.0110
  568MOL0     C76610  10.594   3.458   3.674  0.7055  0.9488  0.2047
  568MOL0     C76611  10.684   3.441   3.571 -0.2938 -0.7677  0.7369
  568MOL0     C76612  10.659   3.317   3.484 -0.3280  0.7245  0.8751
  568MOL0     H76613  11.019   3.578   3.114  1.8671 -1.0195 -3.0495
  568MOL0     H76614  11.198   3.479   3.008  0.5543  0.1163 -0.1764
  568MOL0     H76615  11.321   3.053   3.102 -1.8704 -0.1807  0.2497
  568MOL0     H76616  11.225   3.044   2.952 -0.5681 -1.2931  1.6330
  568MOL0     H76617  11.391   3.086   2.814  1.4702 -1.3980 -1.3742
  568MOL0     H76618  11.464   2.961   2.922  0.6989  0.6530  0.1889
  568MOL0     H76619  11.533   3.249   2.884 -0.2727 -1.6688 -2.3029
  568MOL0     H76620  11.619   3.106   2.863  0.7461 -0.4132  0.6656
  568MOL0     H76621  11.519   3.237   3.127  0.1782  1.2662  0.0486
  568MOL0     H76622  11.602   3.077   3.124  1.7957  0.3125 -0.4558
  568MOL0     H76623  11.790   3.194   3.009  1.4007  1.8618  0.5752
  568MOL0     H76624  11.710   3.349   3.035  2.1575  1.0570  1.1567
  568MOL0     H76625  11.718   3.318   3.275 -1.1265 -2.9068  2.1602
  568MOL0     H76626  11.785   3.171   3.264 -0.3677  0.2600  0.5570
  568MOL0     H76627  11.970   3.306   3.104  0.8941  3.1790 -1.7681
  568MOL0     H76628  11.987   3.324   3.282  0.3191  2.3261  0.6836
  568MOL0     H76629  12.028   3.523   3.135  0.3612 -0.2872  0.3612
  568MOL0     H76630  11.843   3.511   3.107 -0.9150 -3.8677 -0.1190
  568MOL0     H76631  11.693   3.540   3.352 -0.8696  0.4233 -0.9720
  568MOL0     H76632  11.771   3.856   3.567  0.7934 -1.2246  2.3573
  568MOL0     H76633  11.620   3.772   3.494 -1.6909 -0.8560  1.1469
  568MOL0     H76634  11.703   3.581   3.653 -2.0922 -0.1456 -3.2457
  568MOL0     H76635  11.819   3.699   3.726 -0.2940  3.4110 -0.8012
  568MOL0     H76636  11.517   3.694   3.761  1.3487 -0.2864 -5.1681
  568MOL0     H76637  11.613   3.852   3.762  3.2113 -0.0833 -2.8383
  568MOL0     H76638  11.592   3.748   3.995 -1.0973  0.9891 -1.2332
  568MOL0     H76639  11.750   3.786   3.943 -1.5503  3.6190 -1.5567
  568MOL0     H76640  11.754   3.336   3.990  0.7041  0.4715  3.1372
  568MOL0     H76641  11.983   3.231   3.997 -0.9571 -0.2639 -0.5385
  568MOL0     H76642  12.469   3.439   4.163 -3.9845 -0.0680 -1.2604
  568MOL0     H76643  12.687   3.323   4.182  2.3778 -0.6295 -1.6946
  568MOL0     H76644  12.932   3.287   4.125  0.6513 -0.3343 -1.0874
  568MOL0     H76645  12.829   3.145   4.161  2.9897 -3.5611  0.7556
  568MOL0     H76646  13.067   3.164   3.974 -1.7755  2.6673  1.3512
  568MOL0     H76647  13.078   3.082   4.137 -0.1506 -1.6443  0.1187
  568MOL0     H76648  12.939   2.919   4.094  0.0572  0.4258  0.2952
  568MOL0     H76649  12.899   2.970   3.921  2.6480  1.4428 -2.1277
  568MOL0     H76650  13.180   2.926   4.014  0.1363 -1.6420 -0.3619
  568MOL0     H76651  13.124   2.972   3.852 -0.1996  0.8457  0.6173
  568MOL0     H76652  13.020   2.745   3.839 -1.5615 -0.6424  1.0078
  568MOL0     H76653  13.075   2.708   4.001 -1.1706  1.7509 -0.9039
  568MOL0     H76654  13.216   2.628   3.790 -2.3338 -2.0282  3.2069
  568MOL0     H76655  13.275   2.793   3.793  2.7446 -1.3029 -0.0982
  568MOL0     H76656  13.349   2.760   4.047  0.3897  0.6836  0.4120
  568MOL0     H76657  13.427   2.668   3.932 -1.6708 -0.7033  0.7403
  568MOL0     H76658  13.189   2.569   4.106 -0.1523  2.0778 -0.9649
  568MOL0     H76659  13.261   2.471   3.972  1.6719  0.0534 -0.3980
  568MOL0     H76660  12.649   3.207   3.767  1.9176  2.6137 -2.5645
  568MOL0     H76661  12.420   3.306   3.763  0.9223  0.9643 -0.5160
  568MOL0     H76662  12.136   3.632   3.991 -0.9360  1.1445  1.7064
  568MOL0     H76663  11.929   3.724   3.979  0.1010 -0.6818 -1.5501
  568MOL0     H76664  11.145   3.108   3.222  0.5116 -1.0602  0.4897
  568MOL0     H76665  10.982   3.227   3.364  2.0692  0.0014 -0.2787
  568MOL0     H76666  10.912   3.677   3.667 -0.1095  0.8655 -2.2130
  568MOL0     H76667  10.743   3.720   3.840 -0.7134  1.2391 -1.2474
  568MOL0     H76668  10.650   3.606   4.069 -0.1673 -1.0821  1.7849
  568MOL0     H76669  10.692   3.448   4.000 -0.7943  0.3644 -3.1670
  568MOL0     H76670  10.553   3.405   4.194  0.9447 -2.6843 -0.9007
  568MOL0     H76671  10.479   3.359   4.030  1.9571 -1.0936  0.8443
  568MOL0     H76672  10.354   3.587   4.073  3.1136  0.3388 -1.2966
  568MOL0     H76673  10.431   3.582   4.236  3.5320 -3.5045  1.8220
  568MOL0     H76674  10.190   3.485   4.211 -0.5908 -0.2525  0.1182
  568MOL0     H76675  10.255   3.343   4.133  1.7569 -0.5949 -0.1815
  568MOL0     H76676  10.409   3.285   4.521 -0.1586 -0.8526 -0.0373
  568MOL0     H76677  10.505   3.396   3.680  1.4938 -0.3189 -0.6481
  568MOL0     H76678  10.757   3.268   3.484 -0.4008  0.2639 -3.0255
  568MOL0     H76679  10.583   3.251   3.526  0.8368 -2.2336 -1.2376
  568MOL0     H76680  10.652   3.336   3.376 -0.4891 -1.7505  0.3837
  569MOL0     O76681   1.129   7.812   2.107  0.0694  0.9816  0.0807
  569MOL0     C76682   1.249   7.832   2.090  0.1935  0.0828  0.0841
  569MOL0     O76683   1.303   7.958   2.081 -0.4849  0.3232  0.5604
  569MOL0     C76684   1.235   8.060   2.145 -0.1073 -0.0519  0.5737
  569MOL0     C76685   1.195   8.047   2.278 -0.3682  0.2636  0.2210
  569MOL0     C76686   1.119   8.152   2.333 -0.6618 -0.3997  0.1712
  569MOL0     C76687   1.091   8.270   2.260  0.2521 -1.1722 -0.5991
  569MOL0     O76688   1.008   8.364   2.326 -0.8925  1.0109 -0.6430
  569MOL0     C76689   0.934   8.320   2.443 -0.3025 -0.3850 -0.5528
  569MOL0     C76690   0.859   8.437   2.497  0.1289 -0.2525 -0.0367
  569MOL0     C76691   0.781   8.417   2.636 -0.0555 -1.0097  0.0422
  569MOL0     C76692   0.751   8.555   2.686 -1.3237  0.8844 -0.0009
  569MOL0     C76693   0.682   8.541   2.818 -0.3147  0.8329  0.7892
  569MOL0     C76694   0.699   8.651   2.920 -0.5289  1.1977 -0.2977
  569MOL0     C76695   0.834   8.642   3.002 -0.1709  0.2161 -1.6524
  569MOL0     C76696   0.837   8.762   3.100  0.2698 -0.4015  0.4873
  569MOL0     N76697   0.951   8.752   3.195  0.7926 -0.3708 -0.9322
  569MOL0     C76698   0.969   8.666   3.305 -0.8548 -0.5716  0.7822
  569MOL0     C76699   1.090   8.704   3.362 -0.3316 -0.0902 -0.3614
  569MOL0     C76700   1.162   8.644   3.475  0.5608  0.7827 -1.1275
  569MOL0     C76701   1.201   8.502   3.450  0.3488 -0.7889 -0.7297
  569MOL0     C76702   1.274   8.493   3.308 -1.9027  0.2287  0.5288
  569MOL0     C76703   1.407   8.574   3.314 -0.5065 -0.1362 -0.0683
  569MOL0     O76704   1.465   8.565   3.181  0.0432  0.0450 -0.0113
  569MOL0     C76705   1.576   8.485   3.151 -0.2539  0.4610 -0.4132
  569MOL0     C76706   1.687   8.449   3.240  0.6046 -0.2001  0.2480
  569MOL0     C76707   1.775   8.356   3.208 -0.4672  0.2462  0.0272
  569MOL0     C76708   1.779   8.301   3.080  0.1743 -0.9602  0.5559
  569MOL0     C76709   1.878   8.187   3.042  0.2317 -0.5656  0.0021
  569MOL0     O76710   1.899   8.184   2.911 -0.1505 -0.0940 -0.0332
  569MOL0     C76711   1.961   8.073   2.853 -0.1616  0.0530  0.1412
  569MOL0     C76712   1.921   8.020   2.733  0.3717 -0.7044  0.9586
  569MOL0     C76713   1.985   7.911   2.667 -0.3621 -0.0912  1.7781
  569MOL0     C76714   2.109   7.858   2.707  0.5985 -0.1412  0.9673
  569MOL0     O76715   2.178   7.753   2.649 -0.6722  0.1811  0.4552
  569MOL0     C76716   2.249   7.663   2.733 -0.3107 -0.1035  0.0881
  569MOL0     C76717   2.269   7.532   2.649 -0.3639 -0.5215 -0.6417
  569MOL0     C76718   2.389   7.544   2.540  0.1595  0.0111  0.0230
  569MOL0     C76719   2.400   7.418   2.449  0.3143 -0.3429 -0.1758
  569MOL0     C76720   2.535   7.412   2.378 -0.3975  0.7633  0.0624
  569MOL0     C76721   2.542   7.284   2.292 -0.7517  0.0065 -0.2015
  569MOL0     C76722   2.675   7.274   2.216  0.2304 -0.4160 -0.5133
  569MOL0     C76723   2.695   7.134   2.152  0.0880 -0.4036 -0.9269
  569MOL0    Cl76724   2.722   7.006   2.272 -0.0067  0.5672  0.1403
  569MOL0     C76725   2.157   7.923   2.812  0.4159  0.3686 -0.5813
  569MOL0     C76726   2.094   8.023   2.893  0.4583  0.4457  0.4993
  569MOL0     O76727   1.934   8.115   3.121  0.0027  0.3229 -0.0004
  569MOL0     C76728   1.690   8.352   2.979  1.9077  0.6299 -0.7076
  569MOL0     C76729   1.586   8.443   3.016  0.0431 -0.4047 -0.8757
  569MOL0     N76730   1.134   8.818   3.294 -0.0430 -0.6714 -0.4196
  569MOL0     N76731   1.045   8.848   3.208  0.2540 -0.3259  0.0659
  569MOL0     C76732   1.141   8.286   2.134  0.3055  0.2914  1.0059
  569MOL0     C76733   1.207   8.178   2.072 -0.4193 -0.2224 -0.1426
  569MOL0     C76734   1.340   7.716   2.067  0.3846 -0.2852  0.6841
  569MOL0     C76735   1.463   7.742   2.004 -0.5174 -0.0067 -0.6053
  569MOL0     C76736   1.537   7.630   1.948 -0.1370  0.5830 -0.5027
  569MOL0     C76737   1.500   7.492   1.961 -0.3247 -1.4594  0.3860
  569MOL0     O76738   1.578   7.401   1.902 -0.4382  0.6925  0.3434
  569MOL0     C76739   1.528   7.265   1.888  0.0643  0.4513  0.6944
  569MOL0     C76740   1.617   7.195   1.786 -0.7565  0.3727 -0.8870
  569MOL0     C76741   1.586   7.047   1.772  0.4394  0.7839 -0.2300
  569MOL0     C76742   1.661   6.971   1.668 -0.0492  0.1040  0.4440
  569MOL0     C76743   1.810   6.977   1.692  0.0878  0.8914  0.2016
  569MOL0     C76744   1.926   6.952   1.717  0.0549 -0.3739  0.6091
  569MOL0     C76745   1.381   7.472   2.043  0.3664  0.0500 -0.0002
  569MOL0     C76746   1.305   7.581   2.093  0.0798 -0.3145 -0.3890
  569MOL0     C76747   1.183   7.535   2.181  0.2555 -0.5673  0.0047
  569MOL0     H76748   1.229   7.965   2.340  4.1449  0.9743 -0.9238
  569MOL0     H76749   1.097   8.133   2.438  0.2012 -3.8665 -0.1842
  569MOL0     H76750   0.872   8.239   2.403  4.0380 -3.4719 -1.7411
  569MOL0     H76751   0.988   8.276   2.527 -2.6665 -1.0284  0.7262
  569MOL0     H76752   0.792   8.473   2.419 -1.0774 -3.7595 -0.7763
  569MOL0     H76753   0.937   8.511   2.520  0.1930 -0.3513  0.0647
  569MOL0     H76754   0.857   8.367   2.698  3.2333  2.7631 -0.5557
  569MOL0     H76755   0.684   8.366   2.633 -1.4830  0.9995  4.1637
  569MOL0     H76756   0.837   8.621   2.700 -1.1255  0.5780  0.2550
  569MOL0     H76757   0.682   8.605   2.618 -0.8965  3.8434  1.5780
  569MOL0     H76758   0.577   8.519   2.797 -0.0706  1.9115 -2.0387
  569MOL0     H76759   0.714   8.448   2.866  1.4222  0.9187 -0.1273
  569MOL0     H76760   0.701   8.753   2.878  1.8610  0.8419 -1.2113
  569MOL0     H76761   0.610   8.651   2.984 -0.8260  1.9956 -0.6921
  569MOL0     H76762   0.918   8.662   2.936  0.4998  2.5470 -0.2340
  569MOL0     H76763   0.827   8.545   3.053  0.4091 -0.5261 -2.9419
  569MOL0     H76764   0.852   8.843   3.027 -0.7475 -1.7372 -1.3062
  569MOL0     H76765   0.742   8.780   3.151 -0.9674 -1.2624 -1.3887
  569MOL0     H76766   0.926   8.566   3.314  0.8353 -1.4056  0.0326
  569MOL0     H76767   1.246   8.701   3.516  0.7118 -0.4805  0.3817
  569MOL0     H76768   1.084   8.657   3.551  0.0818  1.2800 -1.6866
  569MOL0     H76769   1.282   8.468   3.515  0.7791 -1.2676 -1.4970
  569MOL0     H76770   1.113   8.439   3.467  0.2963  0.0451  2.6948
  569MOL0     H76771   1.210   8.528   3.226 -0.5985  1.9847  0.2047
  569MOL0     H76772   1.302   8.391   3.280 -0.5363  1.4277 -3.0594
  569MOL0     H76773   1.468   8.542   3.399 -0.2149  0.4758 -0.0364
  569MOL0     H76774   1.391   8.681   3.330  0.3187  0.1110 -0.8508
  569MOL0     H76775   1.673   8.478   3.344  3.7338  2.1580  0.1491
  569MOL0     H76776   1.845   8.332   3.288 -0.3294  1.4438  0.2740
  569MOL0     H76777   1.831   8.059   2.686 -0.1275  0.6701  2.9508
  569MOL0     H76778   1.937   7.887   2.573  1.9606 -0.5565  0.6299
  569MOL0     H76779   2.339   7.711   2.774 -0.9367 -0.5526  2.1366
  569MOL0     H76780   2.180   7.631   2.812 -2.2183 -0.1870 -1.5221
  569MOL0     H76781   2.300   7.454   2.720  1.0000 -0.1627 -0.8149
  569MOL0     H76782   2.172   7.500   2.611 -0.8722  0.1882  0.0203
  569MOL0     H76783   2.361   7.621   2.467  0.4977 -0.8780 -1.0769
  569MOL0     H76784   2.483   7.565   2.591  1.0651 -0.3638 -1.4186
  569MOL0     H76785   2.312   7.408   2.384 -0.9556  2.4863  0.9289
  569MOL0     H76786   2.381   7.335   2.518  0.2124 -0.2783 -0.1241
  569MOL0     H76787   2.617   7.421   2.450 -0.0127 -2.5289  0.1880
  569MOL0     H76788   2.552   7.494   2.307  0.3495  0.0123 -0.6339
  569MOL0     H76789   2.551   7.197   2.357 -0.4285 -1.7237 -2.4248
  569MOL0     H76790   2.450   7.283   2.231 -1.8144  0.3953  1.3420
  569MOL0     H76791   2.760   7.302   2.279 -0.0145  0.2156 -0.4540
  569MOL0     H76792   2.668   7.344   2.132 -1.3601 -1.7550 -1.5540
  569MOL0     H76793   2.603   7.117   2.095 -0.5975 -1.9573  0.5437
  569MOL0     H76794   2.774   7.113   2.080  2.1311 -0.4345  1.2322
  569MOL0     H76795   2.254   7.892   2.851 -0.3870 -2.4282 -0.5713
  569MOL0     H76796   2.145   8.060   2.982 -1.3096  0.7967  1.4135
  569MOL0     H76797   1.698   8.307   2.880  0.0188  0.4043 -0.7807
  569MOL0     H76798   1.520   8.490   2.944  1.1912 -0.4053 -1.9465
  569MOL0     H76799   1.118   8.377   2.079 -3.4162 -0.3093  1.3201
  569MOL0     H76800   1.252   8.189   1.974  2.5040 -1.0276  1.0085
  569MOL0     H76801   1.496   7.840   1.970  2.0202 -0.7916 -0.6375
  569MOL0     H76802   1.623   7.651   1.886 -1.2937 -0.8570 -2.7326
  569MOL0     H76803   1.422   7.271   1.863  0.5135  0.8077 -1.2459
  569MOL0     H76804   1.525   7.207   1.981 -2.3249  1.0417  1.0470
  569MOL0     H76805   1.721   7.218   1.809 -1.4656  1.8060  1.1487
  569MOL0     H76806   1.595   7.236   1.687 -1.6835 -1.1850 -1.3648
  569MOL0     H76807   1.477   7.049   1.756 -0.0209  3.2712  2.4034
  569MOL0     H76808   1.613   6.990   1.861  1.1691 -0.9154 -1.4811
  569MOL0     H76809   1.622   6.869   1.670  1.5178 -0.5126  0.8624
  569MOL0     H76810   1.641   6.998   1.564  1.2942 -2.2677 -0.5082
  569MOL0     H76811   2.033   6.946   1.713  0.2228  2.1553 -1.9690
  569MOL0     H76812   1.335   7.374   2.050  0.4669 -0.1015 -1.2749
  569MOL0     H76813   1.207   7.591   2.272  2.7887 -0.1028 -0.8498
  569MOL0     H76814   1.089   7.557   2.130 -0.3665 -0.1785  1.2834
  569MOL0     H76815   1.184   7.428   2.203 -1.7067 -1.0621 -1.9480
  570MOL0     O76816   9.957   4.798   1.547  0.0956 -0.7445  0.4147
  570MOL0     C76817  10.070   4.741   1.525  1.1276 -1.0123 -0.0856
  570MOL0     O76818  10.124   4.640   1.600  0.4010  0.0070 -0.8547
  570MOL0     C76819  10.066   4.617   1.723 -0.4371  0.1685  0.5964
  570MOL0     C76820  10.023   4.718   1.821  0.3791  0.4962 -0.1835
  570MOL0     C76821   9.987   4.672   1.943  0.1760 -0.0682  0.2121
  570MOL0     C76822   9.972   4.540   1.984 -0.0141  0.4441  0.6880
  570MOL0     O76823   9.916   4.503   2.101  0.1737  0.3853 -0.3012
  570MOL0     C76824   9.823   4.391   2.100 -0.6146 -0.2959 -0.2877
  570MOL0     C76825   9.758   4.355   2.237 -0.7855 -0.1106  0.4092
  570MOL0     C76826   9.712   4.482   2.301  0.9575  0.3184  0.6096
  570MOL0     C76827   9.614   4.438   2.408  0.1813  0.8442  0.7467
  570MOL0     C76828   9.604   4.548   2.507 -0.8849 -0.3137 -0.8658
  570MOL0     C76829   9.539   4.512   2.638 -0.2422  0.3336 -0.0898
  570MOL0     C76830   9.544   4.631   2.731  1.3004  0.4515 -0.9230
  570MOL0     C76831   9.504   4.581   2.866 -0.6260 -1.0740 -1.2750
  570MOL0     N76832   9.625   4.546   2.952 -0.0618  0.2392  0.9367
  570MOL0     C76833   9.692   4.636   3.033 -0.4204  0.2437  1.0872
  570MOL0     C76834   9.792   4.561   3.072 -0.0454 -0.5434  0.1614
  570MOL0     C76835   9.913   4.626   3.140  0.3972  0.1202 -0.6774
  570MOL0     C76836   9.918   4.596   3.289  0.7168  0.1600  0.1037
  570MOL0     C76837   9.977   4.453   3.299 -0.2999  0.4438  0.2317
  570MOL0     C76838   9.970   4.410   3.452  0.0220 -0.0900  0.7090
  570MOL0     O76839  10.061   4.484   3.527  0.3793  0.1413  0.2577
  570MOL0     C76840  10.126   4.427   3.635  0.5958 -0.9278 -0.2870
  570MOL0     C76841  10.081   4.305   3.685  0.6561  0.2739 -0.0899
  570MOL0     C76842  10.146   4.254   3.803  0.3582 -0.3578 -0.2012
  570MOL0     C76843  10.261   4.323   3.855 -0.9144 -0.0440  0.9221
  570MOL0     C76844  10.327   4.279   3.978  0.4244 -0.4456  0.3127
  570MOL0     O76845  10.277   4.182   4.053 -0.1519 -0.0241  0.2208
  570MOL0     C76846  10.363   4.102   4.123 -0.3747 -0.4575 -0.0637
  570MOL0     C76847  10.416   3.984   4.067  0.1321  0.2734  0.4802
  570MOL0     C76848  10.520   3.928   4.141  0.2987  0.6440 -0.1842
  570MOL0     C76849  10.570   3.966   4.260  0.1829 -0.3306 -0.0130
  570MOL0     O76850  10.677   3.898   4.312 -0.1976 -0.1652 -0.4656
  570MOL0     C76851  10.690   3.890   4.460  0.2266 -0.1788 -0.4957
  570MOL0     C76852  10.819   3.941   4.509  0.0711 -0.2904  1.2197
  570MOL0     C76853  10.939   3.874   4.424 -0.1713  1.4864 -0.7218
  570MOL0     C76854  10.932   3.716   4.414 -0.2488 -0.4386 -0.5467
  570MOL0     C76855  11.078   3.658   4.381  0.2978 -0.1703 -0.4791
  570MOL0     C76856  11.147   3.686   4.240 -0.2230  0.0940 -0.0299
  570MOL0     C76857  11.088   3.610   4.125  0.6033  0.1160 -0.9905
  570MOL0     C76858  11.136   3.662   3.991  0.2585  0.9566 -0.3851
  570MOL0    Cl76859  11.309   3.622   3.985 -0.2929 -0.1419  0.0396
  570MOL0     C76860  10.517   4.088   4.316  0.0845  0.2639  0.6795
  570MOL0     C76861  10.411   4.150   4.248 -0.1162 -0.1879  0.3780
  570MOL0     O76862  10.427   4.339   3.999  0.5140  0.9472  0.4214
  570MOL0     C76863  10.299   4.451   3.801  0.2216  0.5249 -0.5526
  570MOL0     C76864  10.236   4.500   3.687 -0.7378  0.4522  0.1424
  570MOL0     N76865   9.795   4.433   3.016 -0.7962  0.1642 -0.5973
  570MOL0     N76866   9.689   4.425   2.950  0.9758  0.1273 -0.1056
  570MOL0     C76867  10.027   4.444   1.888 -0.8282 -1.3690  0.3107
  570MOL0     C76868  10.079   4.484   1.767 -0.2842 -0.1273 -0.0174
  570MOL0     C76869  10.141   4.780   1.398  0.1617 -0.6454  0.9314
  570MOL0     C76870  10.169   4.915   1.375  1.2265  0.3951  0.2932
  570MOL0     C76871  10.221   4.968   1.257 -0.5428  0.6238 -0.4810
  570MOL0     C76872  10.270   4.875   1.173 -0.2882 -0.0741 -0.8211
  570MOL0     O76873  10.338   4.937   1.063  0.9823  0.3539  0.0948
  570MOL0     C76874  10.378   4.854   0.957  0.0618 -0.4596 -0.3939
  570MOL0     C76875  10.480   4.903   0.864  0.8838 -0.2998 -0.3873
  570MOL0     C76876  10.464   5.044   0.810  0.8891  0.4201 -0.7286
  570MOL0     C76877  10.319   5.074   0.762  0.2198  0.1524 -0.5617
  570MOL0     C76878  10.267   4.979   0.665  0.6219  0.3781  0.3216
  570MOL0     C76879  10.207   4.920   0.585 -0.0466 -0.3343 -0.0367
  570MOL0     C76880  10.239   4.739   1.192  0.2048  0.0035  0.4128
  570MOL0     C76881  10.175   4.683   1.299 -0.2128 -0.2300  0.3004
  570MOL0     C76882  10.145   4.536   1.314  0.4066  0.6559  0.3107
  570MOL0     H76883  10.009   4.822   1.793  0.8518  1.0822  1.6093
  570MOL0     H76884   9.967   4.754   2.012  0.7447  1.2889 -1.1734
  570MOL0     H76885   9.742   4.415   2.031 -2.8285 -1.7396  1.6447
  570MOL0     H76886   9.877   4.302   2.067  0.0214 -0.8698  2.1227
  570MOL0     H76887   9.824   4.294   2.299 -0.7859 -0.3978  0.1300
  570MOL0     H76888   9.674   4.290   2.212  0.1137 -0.2329 -2.6220
  570MOL0     H76889   9.660   4.552   2.234 -1.1992 -2.6399 -1.0501
  570MOL0     H76890   9.801   4.533   2.339  1.1288  0.5094 -0.0309
  570MOL0     H76891   9.516   4.412   2.367 -0.1324  2.2824  0.5285
  570MOL0     H76892   9.651   4.341   2.441 -0.6192 -0.4265 -1.8888
  570MOL0     H76893   9.707   4.580   2.525 -1.2830  1.0274 -0.8832
  570MOL0     H76894   9.559   4.637   2.462 -2.1396 -0.9185 -0.8589
  570MOL0     H76895   9.436   4.477   2.630 -1.4354  3.3758  0.8859
  570MOL0     H76896   9.600   4.433   2.685  3.1133  2.1901 -0.9811
  570MOL0     H76897   9.462   4.699   2.702  0.8388  0.2007 -0.2242
  570MOL0     H76898   9.643   4.677   2.732  0.9730  1.2529  1.9422
  570MOL0     H76899   9.450   4.660   2.920  1.9902  0.4220 -0.7025
  570MOL0     H76900   9.436   4.496   2.861  0.1299 -1.8611  0.6167
  570MOL0     H76901   9.656   4.738   3.044 -0.3179  0.4298 -0.1445
  570MOL0     H76902  10.005   4.599   3.088 -0.8699 -0.5927 -2.6407
  570MOL0     H76903   9.905   4.734   3.125 -2.7684 -0.2263 -2.2089
  570MOL0     H76904   9.989   4.665   3.336  1.2938 -0.8864  0.8309
  570MOL0     H76905   9.823   4.599   3.343  1.9884  1.0658  2.4636
  570MOL0     H76906  10.082   4.459   3.270  0.0555 -2.5498  0.5779
  570MOL0     H76907   9.929   4.384   3.230  0.8989 -1.3152  1.0792
  570MOL0     H76908   9.993   4.303   3.453  1.6129  0.1789  3.3161
  570MOL0     H76909   9.873   4.427   3.500 -0.2008 -0.8325  0.5373
  570MOL0     H76910   9.998   4.249   3.642  1.5570 -0.7451 -0.5366
  570MOL0     H76911  10.118   4.159   3.847 -0.2115  0.7314  1.9414
  570MOL0     H76912  10.369   3.941   3.979 -2.7517 -1.3550  2.6331
  570MOL0     H76913  10.569   3.843   4.096  1.7605  1.9391 -1.1593
  570MOL0     H76914  10.618   3.957   4.506 -1.8594 -0.6521 -2.8382
  570MOL0     H76915  10.677   3.790   4.503 -1.2279 -0.4459 -1.4833
  570MOL0     H76916  10.838   4.048   4.495 -1.7626  0.4809  3.9443
  570MOL0     H76917  10.816   3.929   4.617 -1.8725 -0.8924  1.1330
  570MOL0     H76918  10.931   3.916   4.324 -0.2049  1.0107 -0.9212
  570MOL0     H76919  11.035   3.899   4.469  1.5311 -2.8715 -1.4321
  570MOL0     H76920  10.857   3.687   4.340 -2.0875 -1.4751  1.6285
  570MOL0     H76921  10.897   3.671   4.507  0.3780 -1.4453 -0.7899
  570MOL0     H76922  11.086   3.552   4.408  1.4412 -0.1468 -0.6721
  570MOL0     H76923  11.143   3.709   4.454  1.3870 -1.5808 -0.4128
  570MOL0     H76924  11.161   3.793   4.221 -0.7487 -0.1592 -2.0335
  570MOL0     H76925  11.248   3.650   4.265 -0.7134 -0.2318  1.6067
  570MOL0     H76926  10.980   3.626   4.134  0.8523  0.9654  1.0580
  570MOL0     H76927  11.105   3.502   4.132 -3.0385 -0.5003  0.6477
  570MOL0     H76928  11.086   3.604   3.913  0.4409  2.2585 -1.5153
  570MOL0     H76929  11.108   3.766   3.970  0.1941  0.5872 -2.3349
  570MOL0     H76930  10.553   4.146   4.401  0.8892  1.6214 -0.5407
  570MOL0     H76931  10.376   4.247   4.281 -0.1250 -1.0146  3.0271
  570MOL0     H76932  10.389   4.497   3.841  0.2963  0.5827 -0.7833
  570MOL0     H76933  10.260   4.596   3.641 -3.4397  0.2857 -1.8923
  570MOL0     H76934  10.046   4.339   1.903  2.6731 -1.1618 -1.6803
  570MOL0     H76935  10.133   4.419   1.699  1.2304  2.5094 -1.4920
  570MOL0     H76936  10.131   4.992   1.442 -0.5105  0.1977 -0.4023
  570MOL0     H76937  10.223   5.074   1.238  1.1360  0.4157 -1.7798
  570MOL0     H76938  10.288   4.824   0.903 -2.1621 -1.1766  3.3810
  570MOL0     H76939  10.423   4.763   0.998 -1.2178 -0.7453  0.4384
  570MOL0     H76940  10.498   4.829   0.785 -2.8308  0.1481 -1.8319
  570MOL0     H76941  10.565   4.909   0.933  2.2828 -3.1623 -1.6808
  570MOL0     H76942  10.527   5.066   0.723  0.8894 -1.1364 -1.1493
  570MOL0     H76943  10.489   5.123   0.881 -0.6324  1.9607 -1.8275
  570MOL0     H76944  10.247   5.083   0.844 -1.5568 -0.1231 -2.0275
  570MOL0     H76945  10.318   5.177   0.725  0.2900 -0.8330 -3.6116
  570MOL0     H76946  10.147   4.856   0.522 -1.3188  0.2072  0.5794
  570MOL0     H76947  10.250   4.676   1.104 -1.0603 -0.6099  0.6592
  570MOL0     H76948  10.071   4.515   1.392  1.5678 -1.5351  0.8983
  570MOL0     H76949  10.105   4.487   1.224 -0.2689 -2.6395  2.2365
  570MOL0     H76950  10.237   4.488   1.347 -0.5969  0.0100  2.3066
  571MOL0     O76951   8.323   0.982   4.954  0.4884  1.0029 -0.2744
  571MOL0     C76952   8.394   0.944   4.860  1.4853  0.1965 -0.0938
  571MOL0     O76953   8.438   1.028   4.756 -0.4297 -0.8591 -0.1688
  571MOL0     C76954   8.336   1.101   4.708 -0.0177 -0.2459 -0.4252
  571MOL0     C76955   8.290   1.211   4.783  0.3077 -0.9445  0.0262
  571MOL0     C76956   8.191   1.294   4.730 -0.4147 -1.2084 -0.0408
  571MOL0     C76957   8.135   1.265   4.602  0.0744 -0.1718  1.0212
  571MOL0     O76958   8.048   1.363   4.551 -0.5801 -0.0596 -0.6337
  571MOL0     C76959   7.928   1.318   4.486  0.1695 -0.5933  0.2412
  571MOL0     C76960   7.805   1.415   4.506 -0.1182  0.4503 -0.0039
  571MOL0     C76961   7.737   1.379   4.642 -0.4937 -0.7915  0.5143
  571MOL0     C76962   7.602   1.456   4.661 -0.4887 -0.1498  0.7166
  571MOL0     C76963   7.521   1.420   4.790 -0.4267  0.0384 -0.4342
  571MOL0     C76964   7.433   1.292   4.756  0.9583 -0.4955 -0.5333
  571MOL0     C76965   7.314   1.261   4.840 -0.3837 -0.1841 -1.0089
  571MOL0     C76966   7.228   1.380   4.886 -0.2278 -0.5273 -0.0477
  571MOL0     N76967   7.178   1.460   4.767 -0.1179  0.9683 -0.5976
  571MOL0     C76968   7.089   1.406   4.675  0.4949 -0.2790 -0.6132
  571MOL0     C76969   7.066   1.505   4.588  0.5926 -0.3988  0.9234
  571MOL0     C76970   6.973   1.512   4.477 -0.0851  0.2319 -0.3581
  571MOL0     C76971   7.032   1.603   4.358  0.5590 -0.6531 -1.0775
  571MOL0     C76972   7.159   1.555   4.301 -0.2324  0.0067 -0.1348
  571MOL0     C76973   7.223   1.671   4.218 -0.0972  0.3568 -0.3103
  571MOL0     O76974   7.143   1.678   4.097  0.1037 -0.6069  0.1765
  571MOL0     C76975   7.209   1.730   3.983  0.4079  0.2905 -0.1705
  571MOL0     C76976   7.297   1.833   4.004  0.0177 -0.2981  0.8923
  571MOL0     C76977   7.363   1.900   3.892 -0.3549 -0.7704  0.4857
  571MOL0     C76978   7.311   1.880   3.767  0.2365 -0.0164  0.3244
  571MOL0     C76979   7.362   1.962   3.657  1.2255  1.0935  0.2728
  571MOL0     O76980   7.279   2.008   3.563  0.8795  0.3767 -0.7549
  571MOL0     C76981   7.320   2.061   3.446  0.9927 -0.2463  0.4487
  571MOL0     C76982   7.427   2.013   3.374 -0.1821 -0.1918 -0.6094
  571MOL0     C76983   7.453   2.064   3.252  0.2833 -0.0641  0.4756
  571MOL0     C76984   7.370   2.159   3.193 -0.7463  1.0049 -0.4408
  571MOL0     O76985   7.392   2.213   3.063 -0.4095  0.1222 -1.2340
  571MOL0     C76986   7.518   2.207   2.994 -0.5186 -0.2010 -0.5773
  571MOL0     C76987   7.511   2.293   2.869  0.2000  0.4504  0.3006
  571MOL0     C76988   7.426   2.231   2.755 -0.3586  0.0301 -0.7107
  571MOL0     C76989   7.449   2.300   2.622 -0.1075  0.4807 -0.7705
  571MOL0     C76990   7.354   2.257   2.520  0.2503  0.0280 -0.6735
  571MOL0     C76991   7.414   2.306   2.391 -0.3504 -0.1538  0.0376
  571MOL0     C76992   7.337   2.259   2.266  0.4020 -0.4903 -1.0008
  571MOL0     C76993   7.196   2.318   2.252  0.2845  0.4897 -1.3719
  571MOL0    Cl76994   7.195   2.498   2.235 -0.0027  0.0684 -0.3609
  571MOL0     C76995   7.260   2.209   3.262 -0.5096  0.3857  0.2758
  571MOL0     C76996   7.229   2.160   3.388 -0.1295  0.1632  0.3264
  571MOL0     O76997   7.481   1.997   3.667  0.5903 -0.0299 -0.2874
  571MOL0     C76998   7.225   1.768   3.743  0.2971 -1.5256 -1.1798
  571MOL0     C76999   7.177   1.695   3.850  0.4196 -1.2356  0.4141
  571MOL0     N77000   7.148   1.613   4.631 -0.7613  0.3858 -0.2065
  571MOL0     N77001   7.215   1.578   4.735  0.6711  0.0393  0.7316
  571MOL0     C77002   8.187   1.151   4.521  0.7393  0.3831  0.0003
  571MOL0     C77003   8.282   1.075   4.580 -0.3386  0.5814 -0.0627
  571MOL0     C77004   8.430   0.798   4.857  0.0672 -0.4356  0.6783
  571MOL0     C77005   8.539   0.754   4.775 -0.6507 -0.3034 -0.3654
  571MOL0     C77006   8.569   0.611   4.771 -0.9207 -1.6328  0.6556
  571MOL0     C77007   8.497   0.512   4.835 -0.4101 -0.8642 -0.4068
  571MOL0     O77008   8.539   0.384   4.810  0.4504 -0.0841 -0.7677
  571MOL0     C77009   8.484   0.266   4.883  0.4759  0.5340  0.1856
  571MOL0     C77010   8.390   0.168   4.812  0.9862 -0.8656  0.2929
  571MOL0     C77011   8.256   0.240   4.788 -0.4140 -0.1568  0.7771
  571MOL0     C77012   8.151   0.136   4.765  0.0660  0.4308  0.7785
  571MOL0     C77013   8.018   0.190   4.739 -0.1475 -0.4717  0.1102
  571MOL0     C77014   7.909   0.245   4.735 -0.1907  0.2210 -0.1675
  571MOL0     C77015   8.391   0.553   4.918 -0.5414  0.0445  0.0373
  571MOL0     C77016   8.363   0.697   4.931 -0.3423 -0.7302 -0.2922
  571MOL0     C77017   8.255   0.732   5.034  0.3582  0.5868  0.3278
  571MOL0     H77018   8.317   1.235   4.885 -1.9703  1.0812  0.2444
  571MOL0     H77019   8.147   1.383   4.773 -0.8586 -1.4302 -0.0302
  571MOL0     H77020   7.956   1.326   4.381  3.3873 -0.8731  0.9708
  571MOL0     H77021   7.908   1.213   4.508 -0.5858 -0.1624  1.8212
  571MOL0     H77022   7.749   1.400   4.413  1.6111 -3.7769 -0.6253
  571MOL0     H77023   7.827   1.522   4.498  0.5778  0.4229  1.2066
  571MOL0     H77024   7.805   1.409   4.723 -0.0930  0.4410 -0.2468
  571MOL0     H77025   7.727   1.270   4.648 -0.0460 -0.7709  2.1216
  571MOL0     H77026   7.618   1.564   4.664  2.7781 -0.5491  3.0028
  571MOL0     H77027   7.537   1.440   4.575 -1.0869  0.1783  1.1012
  571MOL0     H77028   7.581   1.423   4.882 -0.0985  0.3092 -0.6571
  571MOL0     H77029   7.454   1.507   4.787  1.3188  1.3908 -2.9927
  571MOL0     H77030   7.388   1.313   4.659 -0.1184 -2.2155 -0.4580
  571MOL0     H77031   7.490   1.199   4.747 -0.1478 -1.0424 -2.3896
  571MOL0     H77032   7.353   1.223   4.935 -1.8652 -2.0257 -1.0840
  571MOL0     H77033   7.250   1.188   4.790 -0.4023  0.1847 -1.5347
  571MOL0     H77034   7.143   1.354   4.950  0.2731  2.6350  2.1546
  571MOL0     H77035   7.290   1.443   4.950  0.9549 -2.3548  0.6718
  571MOL0     H77036   7.028   1.318   4.688  3.2530 -2.1029  0.9425
  571MOL0     H77037   6.935   1.415   4.443 -2.0148  0.0006  2.0992
  571MOL0     H77038   6.880   1.553   4.519 -1.8005 -2.7757 -0.9630
  571MOL0     H77039   6.957   1.614   4.279 -0.5443  1.2496  0.1396
  571MOL0     H77040   7.053   1.700   4.404  3.1397 -1.7829  0.3301
  571MOL0     H77041   7.151   1.463   4.242  2.8972 -2.4926  2.8943
  571MOL0     H77042   7.233   1.527   4.377  1.6981  0.0711 -1.8850
  571MOL0     H77043   7.323   1.637   4.192 -0.3245  0.9358 -2.0211
  571MOL0     H77044   7.228   1.769   4.267  2.0063  1.0145 -1.7109
  571MOL0     H77045   7.323   1.855   4.106 -2.3006 -0.4549  1.5762
  571MOL0     H77046   7.437   1.977   3.910  1.1629 -1.5776 -1.8483
  571MOL0     H77047   7.489   1.932   3.412 -2.7332 -0.6990  3.0088
  571MOL0     H77048   7.542   2.027   3.201  1.5495  1.7019  1.2740
  571MOL0     H77049   7.605   2.235   3.053  0.0745  0.4220 -1.7089
  571MOL0     H77050   7.535   2.105   2.958 -1.2881 -0.3500 -0.5383
  571MOL0     H77051   7.472   2.394   2.882  0.5794  0.8531 -1.4421
  571MOL0     H77052   7.609   2.308   2.824  1.3350 -0.0456  2.4477
  571MOL0     H77053   7.459   2.127   2.748  1.9516  0.7087 -0.8195
  571MOL0     H77054   7.321   2.231   2.785  0.6760  3.1318  4.0574
  571MOL0     H77055   7.553   2.289   2.592  0.4405  0.9583  0.8584
  571MOL0     H77056   7.430   2.404   2.646  1.6526  1.1321 -1.9861
  571MOL0     H77057   7.255   2.302   2.534  0.0030  0.4128 -3.2408
  571MOL0     H77058   7.336   2.149   2.525 -1.8670  0.3983  0.8664
  571MOL0     H77059   7.403   2.415   2.392  0.5557 -0.0574  0.7171
  571MOL0     H77060   7.519   2.279   2.382  0.0911  0.9940  1.3558
  571MOL0     H77061   7.329   2.150   2.273  0.6028 -0.5176 -1.2028
  571MOL0     H77062   7.383   2.280   2.170 -1.9770  0.9469 -1.9267
  571MOL0     H77063   7.137   2.277   2.170  0.1728  0.4913 -1.2937
  571MOL0     H77064   7.141   2.309   2.346  1.9423  5.0248  0.3182
  571MOL0     H77065   7.194   2.280   3.213  0.1996 -1.1497 -3.2749
  571MOL0     H77066   7.152   2.197   3.455  0.5448  1.5866  0.3531
  571MOL0     H77067   7.191   1.750   3.641  2.4273  2.7090 -2.8870
  571MOL0     H77068   7.093   1.629   3.832 -0.4911 -0.4455  1.6489
  571MOL0     H77069   8.150   1.141   4.419  1.8127 -0.0831 -0.3622
  571MOL0     H77070   8.328   0.992   4.527  1.3297  1.2081  0.3433
  571MOL0     H77071   8.602   0.811   4.707  2.7446 -0.8407  2.0633
  571MOL0     H77072   8.640   0.568   4.700 -0.5008 -1.3318  0.8907
  571MOL0     H77073   8.442   0.301   4.978  0.7744 -0.1070  0.5610
  571MOL0     H77074   8.567   0.201   4.913  0.9543  1.0628  0.0181
  571MOL0     H77075   8.378   0.079   4.873  1.6457 -0.4605  1.0305
  571MOL0     H77076   8.431   0.140   4.714  0.3670  0.3336 -0.3318
  571MOL0     H77077   8.271   0.304   4.701  3.8274 -2.0258 -0.1058
  571MOL0     H77078   8.242   0.301   4.878  1.0936  2.6427 -0.7412
  571MOL0     H77079   8.180   0.078   4.677 -0.0788  1.5077 -0.0076
  571MOL0     H77080   8.154   0.062   4.846 -2.0109 -0.6296 -0.0307
  571MOL0     H77081   7.806   0.274   4.737 -0.4506 -0.4740 -2.0044
  571MOL0     H77082   8.330   0.486   4.977 -1.4767  1.6329  0.9297
  571MOL0     H77083   8.299   0.799   5.108 -0.9361  0.2116  1.4721
  571MOL0     H77084   8.172   0.780   4.982  0.1843  0.9445  0.9272
  571MOL0     H77085   8.231   0.637   5.084  0.9566  1.9439  3.4149
  572MOL0     O77086   9.646   6.141   9.228 -0.7010 -0.0848  0.5439
  572MOL0     C77087   9.757   6.169   9.277  1.1134  0.7799  0.5993
  572MOL0     O77088   9.784   6.258   9.370  0.5846 -0.1909  0.1459
  572MOL0     C77089   9.684   6.351   9.389  0.3741  0.5249 -0.1628
  572MOL0     C77090   9.593   6.327   9.498  0.6040  0.1029  0.7309
  572MOL0     C77091   9.484   6.416   9.501 -0.8604  0.3839  0.2960
  572MOL0     C77092   9.455   6.514   9.406 -0.1771  0.0510 -0.4588
  572MOL0     O77093   9.331   6.569   9.415  0.3649 -0.5006 -0.2547
  572MOL0     C77094   9.266   6.615   9.287  0.1801  0.6396  0.3427
  572MOL0     C77095   9.191   6.506   9.201 -0.6222 -1.0180 -0.6204
  572MOL0     C77096   9.100   6.429   9.289  1.3256  0.3068 -1.1360
  572MOL0     C77097   9.054   6.304   9.224 -0.3413 -0.8926 -0.3121
  572MOL0     C77098   9.095   6.163   9.277  0.7198  0.6365 -0.9379
  572MOL0     C77099   9.239   6.131   9.227  0.5553 -0.1834 -0.6001
  572MOL0     C77100   9.294   6.003   9.289 -0.3055 -0.3727  0.1797
  572MOL0     C77101   9.374   6.032   9.416 -0.0856 -0.0910  0.1043
  572MOL0     N77102   9.406   5.896   9.461  0.1620  1.0866 -0.7193
  572MOL0     C77103   9.328   5.811   9.533  0.0149  0.2664 -0.1521
  572MOL0     C77104   9.416   5.715   9.588  0.4508 -0.7437 -0.5146
  572MOL0     C77105   9.378   5.605   9.675  0.8945  0.6935 -1.2341
  572MOL0     C77106   9.365   5.647   9.827 -0.0339 -0.8896  0.1353
  572MOL0     C77107   9.244   5.732   9.856 -0.3532 -0.1289  0.2637
  572MOL0     C77108   9.121   5.640   9.883  0.8509  1.4679  0.7760
  572MOL0     O77109   9.008   5.719   9.931  0.7864 -0.3256 -0.5420
  572MOL0     C77110   8.891   5.657   9.956 -0.5224 -0.4515  0.2928
  572MOL0     C77111   8.809   5.722  10.051 -1.2152 -1.0241 -0.6895
  572MOL0     C77112   8.691   5.657  10.095 -1.0223  0.3094  0.9151
  572MOL0     C77113   8.657   5.534  10.044  0.5998 -0.3618 -0.0403
  572MOL0     C77114   8.533   5.466  10.104  0.2360 -0.7200  1.0125
  572MOL0     O77115   8.512   5.334  10.077 -0.0958  0.4652 -0.2909
  572MOL0     C77116   8.397   5.283  10.121 -1.0807  0.7793  0.0847
  572MOL0     C77117   8.400   5.221  10.245  0.8191  0.8988  1.0665
  572MOL0     C77118   8.283   5.156  10.288  0.3604  0.6831 -0.1153
  572MOL0     C77119   8.158   5.196  10.223  0.6167  1.2835 -0.0268
  572MOL0     O77120   8.052   5.154  10.291  0.3039  0.4211  0.2511
  572MOL0     C77121   7.920   5.194  10.247  0.8815 -0.4647  0.7602
  572MOL0     C77122   7.807   5.146  10.342 -0.9073  0.6268 -0.6745
  572MOL0     C77123   7.824   5.218  10.474  0.5012  0.5334 -0.1346
  572MOL0     C77124   7.762   5.357  10.486  0.5658  0.5269 -0.1694
  572MOL0     C77125   7.769   5.415  10.632  0.1630  0.6391  0.1197
  572MOL0     C77126   7.793   5.569  10.633  0.4176 -0.1774  0.0559
  572MOL0     C77127   7.847   5.621  10.767  0.8954 -0.4247 -1.2631
  572MOL0     C77128   7.754   5.584  10.885  0.7029 -0.0738  0.1276
  572MOL0    Cl77129   7.825   5.650  11.033  0.1607  0.0631 -0.1511
  572MOL0     C77130   8.154   5.253  10.099 -0.9668 -0.0808  0.5316
  572MOL0     C77131   8.279   5.290  10.046  0.2248  0.9106 -0.1769
  572MOL0     O77132   8.451   5.539  10.168  0.7612  0.3130  0.0976
  572MOL0     C77133   8.747   5.469   9.959  0.4806 -0.0332  0.8095
  572MOL0     C77134   8.867   5.525   9.919  0.7348  0.0678  0.2229
  572MOL0     N77135   9.547   5.757   9.545  1.1489  1.2655 -0.7502
  572MOL0     N77136   9.543   5.859   9.478 -0.0990  0.2542 -0.3670
  572MOL0     C77137   9.546   6.545   9.303 -0.6669  0.5524 -1.3467
  572MOL0     C77138   9.663   6.456   9.300  0.3582  0.0314  0.0179
  572MOL0     C77139   9.867   6.095   9.237 -0.0809 -0.1085  0.2101
  572MOL0     C77140   9.900   6.104   9.104 -1.0774  0.7056 -0.0262
  572MOL0     C77141  10.019   6.045   9.065  0.1795  0.4518 -0.0250
  572MOL0     C77142  10.094   5.961   9.147 -0.1060 -0.9565  0.3192
  572MOL0     O77143  10.200   5.891   9.089  0.4163 -0.3598 -0.5011
  572MOL0     C77144  10.239   5.771   9.158  0.3385  0.3812 -0.1051
  572MOL0     C77145  10.325   5.674   9.077  0.6315 -0.1996  0.0277
  572MOL0     C77146  10.251   5.645   8.945 -0.0416 -1.0003  0.7175
  572MOL0     C77147  10.118   5.568   8.959  0.3649 -0.6499 -0.0933
  572MOL0     C77148  10.120   5.450   8.880  0.4373  0.1797  0.5334
  572MOL0     C77149  10.119   5.349   8.812  0.4107 -0.1515 -0.5309
  572MOL0     C77150  10.048   5.946   9.281  0.0151  0.0937 -0.2037
  572MOL0     C77151   9.933   6.012   9.326 -0.5034 -0.1538  0.2850
  572MOL0     C77152   9.884   5.979   9.468  0.4011  0.8442  0.3040
  572MOL0     H77153   9.608   6.245   9.567  0.4761 -1.2222 -0.7428
  572MOL0     H77154   9.416   6.410   9.586  0.7999 -0.2249  1.6442
  572MOL0     H77155   9.193   6.693   9.310  0.1493  0.8717 -0.5102
  572MOL0     H77156   9.337   6.657   9.215 -0.9185 -0.7006 -1.6221
  572MOL0     H77157   9.260   6.436   9.154  1.4807  0.5536 -0.0077
  572MOL0     H77158   9.126   6.556   9.129 -3.2023 -0.1675  2.0863
  572MOL0     H77159   9.006   6.483   9.303 -0.6526 -2.3959 -2.9494
  572MOL0     H77160   9.149   6.424   9.386  1.3657  1.1418 -1.1013
  572MOL0     H77161   8.945   6.310   9.237 -0.1579 -2.6065  3.1400
  572MOL0     H77162   9.080   6.307   9.118  0.7190 -1.7123 -0.0929
  572MOL0     H77163   9.089   6.166   9.386  3.1701 -1.0043 -0.6726
  572MOL0     H77164   9.032   6.087   9.230 -2.4016  0.7809  2.5560
  572MOL0     H77165   9.254   6.116   9.120 -0.4220 -1.1052 -0.6137
  572MOL0     H77166   9.298   6.216   9.264 -1.4699 -0.0712  2.8210
  572MOL0     H77167   9.356   5.950   9.216 -0.2528  2.1854 -1.7506
  572MOL0     H77168   9.225   5.923   9.318  0.0740 -0.5998  0.4743
  572MOL0     H77169   9.462   6.085   9.379  0.2373 -1.0571 -0.5654
  572MOL0     H77170   9.316   6.094   9.484  0.2621 -1.7318  1.9845
  572MOL0     H77171   9.220   5.815   9.544 -0.1845 -2.3572 -0.5878
  572MOL0     H77172   9.292   5.551   9.633  0.9215  1.1415 -1.8877
  572MOL0     H77173   9.450   5.522   9.681 -0.8398 -0.8367 -0.5201
  572MOL0     H77174   9.348   5.552   9.878  2.1218 -2.5648 -2.0564
  572MOL0     H77175   9.453   5.708   9.849 -1.8745  0.8057  3.6308
  572MOL0     H77176   9.230   5.812   9.782  0.0146  2.1712  2.5556
  572MOL0     H77177   9.271   5.780   9.950  3.3607 -0.7028 -0.3615
  572MOL0     H77178   9.155   5.567   9.956  0.3932  2.9057  2.5206
  572MOL0     H77179   9.089   5.593   9.790  0.8831  0.8758  1.0597
  572MOL0     H77180   8.837   5.820  10.088  1.4219 -1.5975 -0.9867
  572MOL0     H77181   8.635   5.710  10.172  1.7779  0.9886  2.6532
  572MOL0     H77182   8.492   5.193  10.295  0.4652 -0.5924  0.9281
  572MOL0     H77183   8.286   5.110  10.386  4.1418 -0.3009 -0.5343
  572MOL0     H77184   7.922   5.303  10.238 -1.9797 -0.4448 -0.3849
  572MOL0     H77185   7.896   5.166  10.144  0.8312  0.5953  0.4743
  572MOL0     H77186   7.710   5.156  10.292  0.0256 -3.4062 -3.8416
  572MOL0     H77187   7.803   5.037  10.352 -0.9385  0.6404 -0.5306
  572MOL0     H77188   7.780   5.158  10.555  1.0980  1.4750  0.9135
  572MOL0     H77189   7.929   5.229  10.501  0.4009 -1.0112  1.0530
  572MOL0     H77190   7.655   5.348  10.465  0.5582 -1.0933  0.4077
  572MOL0     H77191   7.797   5.435  10.417 -0.4938  2.6725  1.5808
  572MOL0     H77192   7.847   5.360  10.686  0.5264  1.1368  0.1052
  572MOL0     H77193   7.671   5.402  10.678 -1.5027  2.0130 -2.7685
  572MOL0     H77194   7.877   5.588  10.565  1.4743 -1.5824  0.9137
  572MOL0     H77195   7.698   5.620  10.615 -0.6585 -1.3927  1.9610
  572MOL0     H77196   7.843   5.730  10.760  0.7525 -0.2442  0.8614
  572MOL0     H77197   7.950   5.585  10.776  1.2119  0.9847  3.0746
  572MOL0     H77198   7.663   5.645  10.880  0.7498  0.0363  0.5545
  572MOL0     H77199   7.721   5.481  10.895  1.5589 -0.1304  3.4267
  572MOL0     H77200   8.061   5.267  10.044 -1.0375 -1.3424  0.3005
  572MOL0     H77201   8.290   5.317   9.942 -0.2984 -2.1022 -1.1168
  572MOL0     H77202   8.726   5.368   9.926 -2.3141 -0.2593  2.8497
  572MOL0     H77203   8.937   5.463   9.863 -1.9201 -1.8639 -1.1761
  572MOL0     H77204   9.548   6.632   9.238  0.4605  0.4678 -1.4370
  572MOL0     H77205   9.742   6.464   9.226 -0.1488  3.5072 -0.2836
  572MOL0     H77206   9.842   6.172   9.043  0.7677  2.5709  0.1686
  572MOL0     H77207  10.048   6.053   8.961 -1.8812 -2.7878 -1.0028
  572MOL0     H77208  10.152   5.716   9.193  0.2655 -0.2263 -1.1978
  572MOL0     H77209  10.288   5.799   9.252 -0.7714 -1.7906  1.1902
  572MOL0     H77210  10.345   5.580   9.129 -0.6580  0.0018  0.9409
  572MOL0     H77211  10.419   5.722   9.049 -0.1691 -0.9388 -4.9645
  572MOL0     H77212  10.320   5.587   8.883 -1.7606  1.8560 -4.4359
  572MOL0     H77213  10.239   5.733   8.881  0.6322 -1.7457 -0.4791
  572MOL0     H77214  10.109   5.550   9.066 -1.8464 -0.4312 -0.1880
  572MOL0     H77215  10.030   5.618   8.916  2.1425 -0.3285 -3.7864
  572MOL0     H77216  10.108   5.252   8.768  3.7280 -1.6681  1.5773
  572MOL0     H77217  10.110   5.891   9.352  0.1987 -0.2640 -0.6349
  572MOL0     H77218   9.968   5.993   9.536 -0.3630 -0.1939  1.5139
  572MOL0     H77219   9.799   6.041   9.498 -0.8967  0.4415 -2.1871
  572MOL0     H77220   9.851   5.875   9.476  0.5271  0.4245 -3.1027
  573MOL0     O77221   3.269   4.089   1.458  1.4026  0.2756  0.4345
  573MOL0     C77222   3.265   4.068   1.337  0.1997 -0.2477 -0.0814
  573MOL0     O77223   3.337   3.975   1.259  0.6775  0.1493 -0.2157
  573MOL0     C77224   3.426   3.889   1.321  0.9037 -0.4300  0.1786
  573MOL0     C77225   3.509   3.934   1.425 -1.2166  0.6560  1.1026
  573MOL0     C77226   3.582   3.832   1.503 -0.9014  0.3626  0.0487
  573MOL0     C77227   3.574   3.697   1.465  0.3266 -0.7546  0.0036
  573MOL0     O77228   3.664   3.608   1.526 -0.1522  0.5033  0.9919
  573MOL0     C77229   3.670   3.470   1.495  0.3604 -0.3186  0.1793
  573MOL0     C77230   3.772   3.402   1.591  0.7183 -0.0764  0.2227
  573MOL0     C77231   3.743   3.414   1.749  0.0952 -0.2552 -0.4376
  573MOL0     C77232   3.832   3.327   1.840  0.2169  0.3576 -0.0384
  573MOL0     C77233   3.813   3.358   1.986 -0.0871 -0.7144 -0.2476
  573MOL0     C77234   3.894   3.268   2.083 -0.4879 -0.2333 -0.3551
  573MOL0     C77235   4.045   3.293   2.080 -0.5853  0.0798  0.6375
  573MOL0     C77236   4.126   3.217   2.185 -0.5569 -0.4481  0.3839
  573MOL0     N77237   4.117   3.068   2.173  0.4881  0.2220  0.2289
  573MOL0     C77238   4.182   2.993   2.072  0.2402  0.6443 -0.1204
  573MOL0     C77239   4.152   2.867   2.114 -1.0382 -0.4498 -0.6293
  573MOL0     C77240   4.200   2.740   2.065  1.0611 -0.2779 -0.6353
  573MOL0     C77241   4.130   2.695   1.937 -0.4039  0.1240  0.2795
  573MOL0     C77242   3.995   2.637   1.979 -0.1004 -0.6094  0.0384
  573MOL0     C77243   3.980   2.501   2.050  0.0670  0.3853  0.4323
  573MOL0     O77244   3.861   2.433   2.046 -0.5231  0.0382  0.3697
  573MOL0     C77245   3.742   2.484   2.082 -0.0745  0.5713  0.3887
  573MOL0     C77246   3.639   2.391   2.067 -0.1000  0.2741  0.4023
  573MOL0     C77247   3.519   2.434   2.112 -0.3832  0.0876  0.5662
  573MOL0     C77248   3.497   2.555   2.182 -0.4101 -0.3148 -0.1080
  573MOL0     C77249   3.365   2.600   2.225  0.6113 -0.2804 -0.1686
  573MOL0     O77250   3.268   2.560   2.148 -0.0345 -0.1475  0.5897
  573MOL0     C77251   3.136   2.576   2.187  0.2040  0.5587  0.0416
  573MOL0     C77252   3.063   2.686   2.141  0.0194  0.3850 -0.8642
  573MOL0     C77253   2.930   2.710   2.161  0.4232  0.5185 -0.2436
  573MOL0     C77254   2.862   2.617   2.239 -0.4145 -0.5724  0.8217
  573MOL0     O77255   2.728   2.627   2.273 -0.4841  0.4897 -0.5081
  573MOL0     C77256   2.660   2.736   2.219 -0.4695  0.3463 -0.4387
  573MOL0     C77257   2.520   2.732   2.268 -0.0618 -0.1735 -0.6198
  573MOL0     C77258   2.493   2.807   2.398 -0.3500 -0.2399  1.0268
  573MOL0     C77259   2.464   2.707   2.517  0.2341 -0.1384  0.0972
  573MOL0     C77260   2.593   2.643   2.563 -0.6092  0.2888 -0.7631
  573MOL0     C77261   2.586   2.599   2.711 -0.3853  0.7000 -0.0546
  573MOL0     C77262   2.474   2.492   2.751 -0.1658 -0.6167  0.0743
  573MOL0     C77263   2.480   2.480   2.907 -0.5797 -0.6122  0.1332
  573MOL0    Cl77264   2.582   2.338   2.965 -0.0422 -0.3548 -0.2904
  573MOL0     C77265   2.927   2.504   2.286 -0.5242  0.4267  0.7454
  573MOL0     C77266   3.064   2.472   2.259 -0.2153 -0.2999 -0.1357
  573MOL0     O77267   3.345   2.684   2.316  0.0548  0.2295 -0.7785
  573MOL0     C77268   3.604   2.643   2.192 -0.0011 -0.4821 -0.1612
  573MOL0     C77269   3.729   2.608   2.144  0.4063  0.9754 -0.0500
  573MOL0     N77270   4.078   2.879   2.229  0.4511 -0.0728  0.2939
  573MOL0     N77271   4.046   2.994   2.259 -0.0897 -0.2117 -0.1637
  573MOL0     C77272   3.489   3.653   1.363 -0.1695  0.1979  1.0635
  573MOL0     C77273   3.427   3.752   1.287  0.2798  0.6050 -0.1935
  573MOL0     C77274   3.167   4.148   1.265 -0.2032 -0.9023  0.3701
  573MOL0     C77275   3.081   4.075   1.169  0.0255 -1.0309  0.0994
  573MOL0     C77276   2.988   4.151   1.107  0.4158 -0.3756 -0.6296
  573MOL0     C77277   2.964   4.289   1.125  0.7342 -0.7186 -0.4826
  573MOL0     O77278   2.867   4.343   1.058  0.4257  0.8765 -0.8268
  573MOL0     C77279   2.915   4.389   0.927  1.0350  0.1949 -0.2083
  573MOL0     C77280   2.791   4.467   0.874 -0.7469 -0.3413  0.3630
  573MOL0     C77281   2.734   4.587   0.956 -0.2672 -0.6652 -0.1012
  573MOL0     C77282   2.599   4.613   0.893 -0.0304 -0.1412 -0.7903
  573MOL0     C77283   2.532   4.733   0.943 -0.2865  0.3975  0.4350
  573MOL0     C77284   2.478   4.831   0.999 -0.3622  0.7201  0.5555
  573MOL0     C77285   3.033   4.350   1.228 -0.6390  0.6040  0.2010
  573MOL0     C77286   3.143   4.282   1.294 -0.0736  0.2150 -0.3152
  573MOL0     C77287   3.231   4.360   1.389  0.8538 -0.2976 -0.0542
  573MOL0     H77288   3.516   4.039   1.450 -0.2442  0.7989  0.2915
  573MOL0     H77289   3.656   3.868   1.574  0.8935 -0.0176 -1.5508
  573MOL0     H77290   3.575   3.418   1.507  1.5899 -2.2702  2.2596
  573MOL0     H77291   3.717   3.456   1.397  0.5091  2.7140 -0.2761
  573MOL0     H77292   3.866   3.447   1.558  1.5027 -0.1516  2.2149
  573MOL0     H77293   3.779   3.294   1.572  0.3234  0.1449 -1.3056
  573MOL0     H77294   3.638   3.401   1.778 -0.1568  3.1585  0.6444
  573MOL0     H77295   3.765   3.518   1.773 -0.8467 -0.3892  1.1549
  573MOL0     H77296   3.815   3.222   1.813 -0.2725  0.6007 -0.7145
  573MOL0     H77297   3.937   3.328   1.809  0.8706 -1.0002  1.9637
  573MOL0     H77298   3.839   3.461   2.012 -0.3535 -0.4533 -1.0048
  573MOL0     H77299   3.707   3.357   2.012 -0.1336  0.4784 -0.3492
  573MOL0     H77300   3.854   3.301   2.179 -1.9851 -1.0207 -0.6788
  573MOL0     H77301   3.864   3.164   2.067 -0.2962 -0.2108 -0.8868
  573MOL0     H77302   4.069   3.398   2.097 -2.4495  0.9569 -1.6585
  573MOL0     H77303   4.077   3.271   1.978 -0.3432  2.7499  0.0591
  573MOL0     H77304   4.231   3.246   2.177 -1.3048  2.2858 -0.5492
  573MOL0     H77305   4.107   3.251   2.287 -1.5283 -1.3471  0.5280
  573MOL0     H77306   4.253   3.021   1.994  0.9225 -1.1753 -0.2050
  573MOL0     H77307   4.304   2.750   2.031  0.8690 -1.7227 -1.7117
  573MOL0     H77308   4.208   2.661   2.140 -3.1879 -2.6248 -2.3360
  573MOL0     H77309   4.114   2.781   1.871  1.5114  1.3782  1.3549
  573MOL0     H77310   4.181   2.620   1.876 -0.0022  0.7034 -0.1098
  573MOL0     H77311   3.941   2.626   1.885 -1.2613 -0.2791  0.6454
  573MOL0     H77312   3.941   2.720   2.025 -1.7433 -1.9549  0.6505
  573MOL0     H77313   4.020   2.527   2.148  2.0864 -2.6210  0.5280
  573MOL0     H77314   4.061   2.445   2.002  1.2951  3.4628 -1.3616
  573MOL0     H77315   3.653   2.293   2.023  2.1069 -1.1729  3.8293
  573MOL0     H77316   3.428   2.380   2.085 -0.3202 -1.0053  2.3897
  573MOL0     H77317   3.126   2.757   2.089  2.0419 -1.4022 -0.9968
  573MOL0     H77318   2.893   2.800   2.113  2.6715  1.0985 -0.9937
  573MOL0     H77319   2.712   2.831   2.234  2.6211 -1.0705 -1.5112
  573MOL0     H77320   2.656   2.724   2.111 -1.0012 -1.2018 -0.2689
  573MOL0     H77321   2.469   2.786   2.187  1.0528  1.7091 -0.1288
  573MOL0     H77322   2.477   2.632   2.263  2.2620 -1.5103  2.4982
  573MOL0     H77323   2.580   2.867   2.428  1.4784 -1.6591 -1.0528
  573MOL0     H77324   2.399   2.859   2.380  1.3290  2.1456 -1.9919
  573MOL0     H77325   2.398   2.621   2.497 -1.2404  0.8280  0.6529
  573MOL0     H77326   2.408   2.758   2.595  0.3699 -0.9394  0.7334
  573MOL0     H77327   2.687   2.696   2.546 -0.6268 -0.0273 -1.9393
  573MOL0     H77328   2.601   2.542   2.522 -1.6938 -1.0620  2.0471
  573MOL0     H77329   2.679   2.543   2.725 -0.4877 -0.4599 -3.2218
  573MOL0     H77330   2.593   2.684   2.779 -1.0442  0.1688  0.6929
  573MOL0     H77331   2.475   2.398   2.695 -2.3620 -0.3218 -0.5769
  573MOL0     H77332   2.381   2.542   2.721  0.6255  0.2417 -1.0410
  573MOL0     H77333   2.523   2.573   2.948  7.2346 -2.8083 -1.3466
  573MOL0     H77334   2.383   2.469   2.955  0.1310 -2.1223  1.3425
  573MOL0     H77335   2.873   2.437   2.353  1.5549 -0.4992  1.5773
  573MOL0     H77336   3.113   2.393   2.314 -0.2412 -0.1479  0.1072
  573MOL0     H77337   3.613   2.737   2.246  0.6347 -2.0924  2.7389
  573MOL0     H77338   3.810   2.677   2.168  3.2300 -1.6886 -1.2057
  573MOL0     H77339   3.491   3.548   1.335  5.5468 -0.6730  3.3031
  573MOL0     H77340   3.361   3.718   1.207 -1.6072 -0.8716  1.8602
  573MOL0     H77341   3.091   3.969   1.149  2.7692 -0.5782 -1.4474
  573MOL0     H77342   2.940   4.092   1.030 -0.6618 -0.8615  0.3831
  573MOL0     H77343   2.946   4.307   0.861  3.7958  4.1048 -4.3130
  573MOL0     H77344   2.997   4.460   0.918  1.5056 -0.3925 -0.6235
  573MOL0     H77345   2.703   4.403   0.864 -3.3536  2.4241  3.2504
  573MOL0     H77346   2.806   4.507   0.773 -0.4513 -1.5109 -0.0727
  573MOL0     H77347   2.794   4.676   0.935  1.6245 -2.0884 -1.0082
  573MOL0     H77348   2.730   4.553   1.060  3.0974 -2.5106 -0.4386
  573MOL0     H77349   2.613   4.627   0.786 -2.2775 -5.1758 -2.0552
  573MOL0     H77350   2.532   4.526   0.891 -2.1982  1.4593 -3.1288
  573MOL0     H77351   2.421   4.919   1.017 -1.1559  0.3996 -0.2846
  573MOL0     H77352   3.010   4.452   1.258 -2.5356  0.4732 -0.6958
  573MOL0     H77353   3.206   4.466   1.380 -2.6592 -1.0150 -0.1372
  573MOL0     H77354   3.218   4.334   1.494 -2.8343  2.4385  0.3788
  573MOL0     H77355   3.327   4.327   1.348 -0.0731  1.4445 -4.1832
  574MOL0     O77356   5.616  10.410   7.937 -0.4440  0.3197  0.5755
  574MOL0     C77357   5.633  10.308   8.011 -0.1073  0.6955  0.0879
  574MOL0     O77358   5.526  10.234   8.065 -0.4876 -0.1911  0.2381
  574MOL0     C77359   5.393  10.278   8.076 -0.5699  0.4178 -0.3574
  574MOL0     C77360   5.337  10.357   7.969  0.2464  0.3922 -0.7601
  574MOL0     C77361   5.198  10.389   7.974  0.2306  0.7482 -0.1759
  574MOL0     C77362   5.122  10.350   8.090  0.4116 -0.9566  0.2717
  574MOL0     O77363   4.986  10.392   8.101  0.3510 -0.2323  0.1479
  574MOL0     C77364   4.949  10.524   8.059 -0.1117 -0.8371  0.1783
  574MOL0     C77365   4.841  10.596   8.131 -0.4792 -0.3144 -0.0041
  574MOL0     C77366   4.728  10.503   8.156 -0.0795 -0.1494  0.6580
  574MOL0     C77367   4.613  10.568   8.225  0.0357 -0.0985 -0.0286
  574MOL0     C77368   4.651  10.586   8.376  0.6806  1.4745  0.5697
  574MOL0     C77369   4.527  10.623   8.467  0.8273  0.2861 -0.3415
  574MOL0     C77370   4.544  10.588   8.613  0.5329  0.0070  0.0063
  574MOL0     C77371   4.656  10.662   8.689 -0.2045  0.4576  0.0643
  574MOL0     N77372   4.641  10.804   8.724  0.4036  0.2781  0.5907
  574MOL0     C77373   4.552  10.861   8.815 -0.4936 -0.4024  0.1858
  574MOL0     C77374   4.592  10.990   8.820 -0.3545  1.8840  0.5678
  574MOL0     C77375   4.529  11.109   8.890  0.5733 -0.1443  0.8928
  574MOL0     C77376   4.551  11.100   9.042 -0.5513 -0.2445 -0.8661
  574MOL0     C77377   4.484  10.972   9.105 -0.1030 -0.3306  0.0897
  574MOL0     C77378   4.333  10.953   9.076  0.2910  0.8233  0.0610
  574MOL0     O77379   4.279  10.831   9.128  0.4153 -0.3821  0.4554
  574MOL0     C77380   4.225  10.827   9.258  0.8097  0.2857 -0.2454
  574MOL0     C77381   4.174  10.707   9.292  0.2774 -0.2156 -0.3457
  574MOL0     C77382   4.099  10.681   9.406  0.2913 -0.6179 -0.2850
  574MOL0     C77383   4.107  10.774   9.512 -0.0144 -0.2218 -0.3001
  574MOL0     C77384   4.031  10.754   9.644 -0.2181 -0.2565 -0.2684
  574MOL0     O77385   4.017  10.877   9.714 -0.1924  0.2039  0.3558
  574MOL0     C77386   3.946  10.884   9.834 -1.2980  1.3291 -0.4977
  574MOL0     C77387   3.995  10.988   9.916  0.1685  0.0881 -0.6345
  574MOL0     C77388   3.941  11.009  10.038  0.7187 -0.2817  0.1083
  574MOL0     C77389   3.837  10.931  10.097 -0.3173 -0.4261  0.8121
  574MOL0     O77390   3.775  10.944  10.216 -0.1451 -1.0670  0.5942
  574MOL0     C77391   3.821  11.048  10.303  0.2815 -0.5724  0.0040
  574MOL0     C77392   3.725  11.056  10.435  0.0732  0.4583  0.1079
  574MOL0     C77393   3.573  11.077  10.395  0.6059 -0.1187 -0.8727
  574MOL0     C77394   3.552  11.213  10.332  0.0868  0.3802  0.5409
  574MOL0     C77395   3.402  11.213  10.302 -1.0413  0.3742 -0.6053
  574MOL0     C77396   3.357  11.355  10.255  0.7925 -0.3267 -0.1017
  574MOL0     C77397   3.382  11.467  10.353  0.0587  0.1544  0.8323
  574MOL0     C77398   3.317  11.589  10.286 -0.5883  0.6074  0.4525
  574MOL0    Cl77399   3.132  11.589  10.292  0.2593 -0.3506 -0.1455
  574MOL0     C77400   3.784  10.833  10.006  0.6700 -0.1455 -0.2232
  574MOL0     C77401   3.841  10.802   9.881  1.1447  0.3019  0.5160
  574MOL0     O77402   3.996  10.650   9.682  0.0172  0.5190 -0.1589
  574MOL0     C77403   4.161  10.897   9.477 -1.0279  0.2271 -0.0215
  574MOL0     C77404   4.222  10.924   9.349  0.6091 -0.8926  0.8627
  574MOL0     N77405   4.697  11.010   8.735 -0.0602  0.3713 -0.4191
  574MOL0     N77406   4.724  10.898   8.675 -0.9132  0.0169  0.0815
  574MOL0     C77407   5.176  10.272   8.193  0.6808 -0.3692  0.2075
  574MOL0     C77408   5.316  10.246   8.190 -0.1507  0.0664  0.8189
  574MOL0     C77409   5.761  10.235   8.006  0.2963  0.4725 -0.3371
  574MOL0     C77410   5.773  10.108   8.072 -0.4860  0.3322  0.2968
  574MOL0     C77411   5.887  10.032   8.066 -0.3665 -0.3710 -0.3552
  574MOL0     C77412   6.005  10.082   8.010 -0.1575 -0.6513  0.4558
  574MOL0     O77413   6.119  10.000   8.003 -0.2957 -0.4385  0.9215
  574MOL0     C77414   6.247  10.075   7.989 -0.3682  0.1292 -1.1922
  574MOL0     C77415   6.373   9.981   7.973  0.1776  0.5532  0.6397
  574MOL0     C77416   6.403   9.921   8.115  0.3592 -0.1942 -0.2970
  574MOL0     C77417   6.366   9.765   8.137  0.0066 -0.4776  0.6508
  574MOL0     C77418   6.473   9.684   8.095 -1.4527  0.4130 -0.0881
  574MOL0     C77419   6.578   9.627   8.060 -0.2011  0.7652  0.5726
  574MOL0     C77420   6.002  10.216   7.958  0.3237  0.3545 -0.6998
  574MOL0     C77421   5.885  10.291   7.952 -0.7063 -0.1475  0.2440
  574MOL0     C77422   5.899  10.440   7.911 -0.3851 -0.7266  0.2889
  574MOL0     H77423   5.398  10.367   7.880  1.7795 -2.7202 -0.1845
  574MOL0     H77424   5.152  10.445   7.894  0.1553  1.0123  0.0510
  574MOL0     H77425   5.041  10.583   8.072  0.8897 -1.9319 -1.4661
  574MOL0     H77426   4.923  10.521   7.953  1.2208 -0.5594 -0.1808
  574MOL0     H77427   4.813  10.685   8.074  1.0935 -0.8508 -1.7367
  574MOL0     H77428   4.880  10.630   8.227 -0.9688 -0.5113  0.2661
  574MOL0     H77429   4.754  10.415   8.215  0.5036  0.0075  0.6372
  574MOL0     H77430   4.691  10.459   8.063  0.5462 -1.4220  0.9901
  574MOL0     H77431   4.578  10.658   8.173 -2.2897  0.2279  1.9382
  574MOL0     H77432   4.529  10.498   8.224 -1.7182  1.9061 -0.1306
  574MOL0     H77433   4.704  10.504   8.425  0.0795  1.4012  1.1163
  574MOL0     H77434   4.719  10.671   8.387  2.5541 -0.3648  5.4579
  574MOL0     H77435   4.489  10.725   8.454  0.7372  0.2039 -0.7456
  574MOL0     H77436   4.443  10.560   8.435  1.0356  0.6259 -1.6286
  574MOL0     H77437   4.559  10.480   8.619 -0.9629 -0.4389 -2.8458
  574MOL0     H77438   4.457  10.618   8.673  1.4665  0.0348  1.3981
  574MOL0     H77439   4.658  10.608   8.785 -2.4424 -0.9391 -0.5947
  574MOL0     H77440   4.748  10.645   8.633 -0.8028 -1.5442 -0.3918
  574MOL0     H77441   4.467  10.814   8.864 -1.6144 -1.3172 -2.4347
  574MOL0     H77442   4.585  11.196   8.854  1.0340 -0.4566  0.8545
  574MOL0     H77443   4.425  11.115   8.856  0.8044  1.6406  0.4060
  574MOL0     H77444   4.658  11.098   9.068 -0.4365 -1.0477 -1.3791
  574MOL0     H77445   4.515  11.190   9.094 -1.8942 -0.2968 -1.6642
  574MOL0     H77446   4.497  10.990   9.212 -3.3427 -0.4494  0.5932
  574MOL0     H77447   4.543  10.882   9.083  0.2585 -0.1245  0.2062
  574MOL0     H77448   4.311  10.951   8.969 -0.0834  0.0667  0.1438
  574MOL0     H77449   4.288  11.046   9.112  1.5455  1.8144 -0.8345
  574MOL0     H77450   4.178  10.627   9.218  3.8223 -0.0711 -0.4786
  574MOL0     H77451   4.047  10.587   9.419 -1.9616  0.2086 -2.5682
  574MOL0     H77452   4.071  11.054   9.877 -1.1199  0.0347 -3.4857
  574MOL0     H77453   3.984  11.087  10.099  1.9447 -2.6614  2.4841
  574MOL0     H77454   3.927  11.033  10.327  0.8450  0.4046 -1.6996
  574MOL0     H77455   3.809  11.150  10.268  2.6056  1.2595  3.8098
  574MOL0     H77456   3.734  10.967  10.498  0.6487 -1.2746 -2.2756
  574MOL0     H77457   3.753  11.132  10.508 -0.2099 -0.8491  1.6295
  574MOL0     H77458   3.539  11.008  10.316 -0.1677  0.9678 -1.5205
  574MOL0     H77459   3.501  11.067  10.477  0.5880 -0.4331 -0.9270
  574MOL0     H77460   3.600  11.206  10.234  1.0275 -1.2769  1.0909
  574MOL0     H77461   3.601  11.298  10.382  0.7232  2.8041 -3.7017
  574MOL0     H77462   3.337  11.190  10.388 -0.2743 -1.4418 -0.4563
  574MOL0     H77463   3.384  11.147  10.216  0.3881  0.7070 -1.1823
  574MOL0     H77464   3.399  11.370  10.155  1.2196 -1.2186 -0.0667
  574MOL0     H77465   3.248  11.348  10.250  0.5153  1.2337  2.1389
  574MOL0     H77466   3.490  11.486  10.357  0.3260 -1.0651  0.0125
  574MOL0     H77467   3.328  11.461  10.448 -0.7587  0.1573  0.3719
  574MOL0     H77468   3.344  11.676  10.347  0.0537  0.9035 -0.2292
  574MOL0     H77469   3.339  11.597  10.179  0.2263  1.4632  0.6659
  574MOL0     H77470   3.710  10.767  10.051 -0.0838  2.2937  2.4884
  574MOL0     H77471   3.806  10.714   9.828  1.0762 -0.2657  1.4643
  574MOL0     H77472   4.166  10.973   9.555  1.9883  0.3554 -0.2216
  574MOL0     H77473   4.277  11.016   9.330  0.7581 -1.1630 -0.0374
  574MOL0     H77474   5.117  10.233   8.276 -1.4932  2.2518  0.0498
  574MOL0     H77475   5.368  10.192   8.268  1.7476  0.5259 -0.0658
  574MOL0     H77476   5.692  10.046   8.110 -1.2836  0.4949 -1.0554
  574MOL0     H77477   5.899   9.932   8.108 -1.0682 -1.1175 -1.8302
  574MOL0     H77478   6.269  10.137   8.077  0.4334 -0.7009 -0.7988
  574MOL0     H77479   6.246  10.148   7.908  1.5756 -1.2367 -2.4959
  574MOL0     H77480   6.457  10.035   7.928  2.0958 -3.9603 -1.9533
  574MOL0     H77481   6.344   9.903   7.902  1.6678  0.6937 -0.1693
  574MOL0     H77482   6.359   9.984   8.193 -1.7334 -0.9122 -0.8308
  574MOL0     H77483   6.511   9.936   8.128  0.6547  0.0750 -2.6728
  574MOL0     H77484   6.336   9.752   8.241 -2.3416 -1.3648 -0.0826
  574MOL0     H77485   6.283   9.737   8.071  1.7237  0.4807 -2.0945
  574MOL0     H77486   6.666   9.572   8.032 -1.5053 -0.1134 -2.1953
  574MOL0     H77487   6.092  10.262   7.919 -0.9133  1.5147 -2.3545
  574MOL0     H77488   5.817  10.477   7.849 -0.6999  1.6295  1.9592
  574MOL0     H77489   5.920  10.513   7.990  0.3961  0.0048 -0.5889
  574MOL0     H77490   5.997  10.446   7.864 -0.3918 -2.4107 -0.0010
  575MOL0     O77491   5.560   8.296   0.102 -0.2477 -0.6686  0.4837
  575MOL0     C77492   5.552   8.244   0.209  0.3354  0.1375 -0.1801
  575MOL0     O77493   5.431   8.229   0.279 -0.6328  0.1462  0.3496
  575MOL0     C77494   5.323   8.293   0.219 -0.2086  0.2521 -0.3790
  575MOL0     C77495   5.240   8.226   0.126 -0.4830 -0.7143 -0.3699
  575MOL0     C77496   5.130   8.298   0.080  0.1897 -0.4280 -0.0859
  575MOL0     C77497   5.094   8.428   0.131  0.3764 -0.9156  0.7644
  575MOL0     O77498   4.968   8.478   0.093  0.0683 -0.3686 -0.5491
  575MOL0     C77499   4.905   8.582   0.176  0.0863  0.6374  0.7482
  575MOL0     C77500   4.760   8.620   0.135  0.2295 -0.3762  0.5968
  575MOL0     C77501   4.740   8.768   0.187  0.3714 -0.0115  0.2019
  575MOL0     C77502   4.597   8.826   0.180  0.3240  0.9637  0.2582
  575MOL0     C77503   4.493   8.757   0.267 -0.0253  0.5129 -1.2098
  575MOL0     C77504   4.531   8.757   0.415  0.7533 -1.0114  0.1610
  575MOL0     C77505   4.409   8.700   0.496 -1.1252 -0.1589  1.0047
  575MOL0     C77506   4.462   8.585   0.582  0.6021  0.5162  0.1435
  575MOL0     N77507   4.356   8.520   0.672 -0.6792  0.0230 -0.3616
  575MOL0     C77508   4.259   8.573   0.742 -0.2364 -0.1335 -1.0854
  575MOL0     C77509   4.203   8.475   0.819 -0.1797 -0.2365  1.3190
  575MOL0     C77510   4.121   8.500   0.950  0.2978  1.2740  0.0750
  575MOL0     C77511   4.046   8.638   0.950 -0.1867  0.2009 -0.6439
  575MOL0     C77512   3.965   8.641   1.083  0.7801  0.7938 -0.1650
  575MOL0     C77513   4.037   8.690   1.217  0.1698 -0.6072 -0.0951
  575MOL0     O77514   4.078   8.831   1.195 -0.3713  0.0564  0.3461
  575MOL0     C77515   4.203   8.870   1.240 -0.3824  0.6788  0.3936
  575MOL0     C77516   4.262   8.816   1.353 -0.0531 -0.6547 -0.7071
  575MOL0     C77517   4.387   8.846   1.394  1.5402 -0.2574  0.3293
  575MOL0     C77518   4.461   8.945   1.321  0.0489  1.4772 -0.6974
  575MOL0     C77519   4.596   8.972   1.353 -0.0906  0.2906  0.0381
  575MOL0     O77520   4.685   8.919   1.269  1.0820 -0.1600  0.1413
  575MOL0     C77521   4.804   8.891   1.326  0.4358 -0.2094  0.2618
  575MOL0     C77522   4.919   8.962   1.290  0.4848  0.1703  0.0011
  575MOL0     C77523   5.033   8.927   1.360  0.3091  0.6150 -0.1763
  575MOL0     C77524   5.051   8.820   1.456  0.1666  0.3958  0.0422
  575MOL0     O77525   5.174   8.808   1.510 -0.5961  0.3341 -0.0581
  575MOL0     C77526   5.192   8.689   1.584  0.2583 -0.2289 -0.3497
  575MOL0     C77527   5.337   8.672   1.610  0.1444  0.4326 -0.2970
  575MOL0     C77528   5.364   8.537   1.689 -0.9678 -0.1261 -0.2306
  575MOL0     C77529   5.521   8.526   1.705  1.3551 -0.3905  0.7324
  575MOL0     C77530   5.560   8.382   1.715  0.2483  0.3569 -0.1658
  575MOL0     C77531   5.710   8.361   1.742  0.3734  0.3558  0.5651
  575MOL0     C77532   5.794   8.388   1.619 -0.3525 -0.2124  0.8814
  575MOL0     C77533   5.941   8.358   1.649 -0.7927  0.4130 -0.0423
  575MOL0    Cl77534   6.039   8.319   1.503  0.1212  0.0434 -0.3650
  575MOL0     C77535   4.930   8.742   1.485 -0.2674 -1.0116  0.7272
  575MOL0     C77536   4.809   8.793   1.419 -0.1403  0.3288  0.5954
  575MOL0     O77537   4.621   9.024   1.460 -0.4674  0.5573  0.3725
  575MOL0     C77538   4.413   8.999   1.208  1.1189 -0.5770  0.3820
  575MOL0     C77539   4.281   8.968   1.172  0.1883  0.9144 -1.2235
  575MOL0     N77540   4.264   8.354   0.773  0.7405 -0.8848  0.2493
  575MOL0     N77541   4.351   8.388   0.693 -1.5294 -0.0081  0.9565
  575MOL0     C77542   5.181   8.495   0.212  0.7213 -0.8846  0.3100
  575MOL0     C77543   5.295   8.429   0.258 -0.1066 -0.1252  0.0270
  575MOL0     C77544   5.672   8.197   0.278 -0.2110  0.8128 -0.1750
  575MOL0     C77545   5.673   8.211   0.420  0.3966 -0.6241 -0.3816
  575MOL0     C77546   5.781   8.191   0.504  0.4539  0.0038  0.1693
  575MOL0     C77547   5.904   8.142   0.445  0.5952  0.1730  0.1198
  575MOL0     O77548   6.022   8.132   0.515  0.0321  0.1564 -0.4393
  575MOL0     C77549   6.041   8.144   0.663 -0.4000 -0.4239  0.5722
  575MOL0     C77550   6.178   8.196   0.695 -0.0760 -0.6571  0.4968
  575MOL0     C77551   6.182   8.346   0.679 -0.4493  0.0303 -0.4776
  575MOL0     C77552   6.317   8.412   0.712  0.3586  0.0338 -0.9641
  575MOL0     C77553   6.360   8.386   0.855  1.2765  0.9953 -0.2245
  575MOL0     C77554   6.362   8.338   0.970  0.2180 -0.0068  0.3549
  575MOL0     C77555   5.910   8.128   0.311 -0.2541  1.4453  0.0233
  575MOL0     C77556   5.797   8.149   0.223  0.4436 -0.0996 -0.7539
  575MOL0     C77557   5.812   8.122   0.076 -0.6525 -0.7691 -0.7907
  575MOL0     H77558   5.237   8.127   0.081  1.1001 -0.7471 -0.4615
  575MOL0     H77559   5.057   8.256   0.013  1.5331 -2.9868 -0.0603
  575MOL0     H77560   4.903   8.549   0.280  1.7115 -1.7542  0.1296
  575MOL0     H77561   4.965   8.673   0.172  0.3352  0.4925  1.1032
  575MOL0     H77562   4.691   8.549   0.182  0.7649 -2.2658 -1.3016
  575MOL0     H77563   4.753   8.608   0.027 -1.0850 -1.6201  0.7880
  575MOL0     H77564   4.805   8.829   0.124  0.9890 -1.9630 -1.1605
  575MOL0     H77565   4.782   8.781   0.287  0.2308  0.0944  0.2476
  575MOL0     H77566   4.595   8.934   0.195 -4.1774  1.1288 -0.1647
  575MOL0     H77567   4.549   8.818   0.082  0.2100 -0.1354  0.3860
  575MOL0     H77568   4.390   8.793   0.263 -0.7010 -1.2337 -0.4700
  575MOL0     H77569   4.499   8.653   0.233 -2.2072 -1.0930  2.6870
  575MOL0     H77570   4.610   8.682   0.426  0.6670 -1.1450 -0.1201
  575MOL0     H77571   4.569   8.852   0.452 -0.1678 -1.3550  2.1263
  575MOL0     H77572   4.320   8.681   0.435 -0.9679  2.7538 -0.3376
  575MOL0     H77573   4.369   8.786   0.552 -3.6911  0.6168 -1.7154
  575MOL0     H77574   4.485   8.508   0.508 -2.1164 -1.9567  1.6433
  575MOL0     H77575   4.556   8.591   0.638  0.2619 -0.3197  0.8367
  575MOL0     H77576   4.227   8.677   0.743 -0.7437 -0.2543 -2.3317
  575MOL0     H77577   4.057   8.412   0.963  1.6146 -0.0901 -2.0481
  575MOL0     H77578   4.183   8.492   1.040 -1.1502  1.6025  1.1432
  575MOL0     H77579   4.111   8.726   0.948  0.5607 -0.2278  1.5328
  575MOL0     H77580   3.983   8.632   0.860  0.3364  0.5919 -1.0369
  575MOL0     H77581   3.917   8.547   1.112 -1.2819  1.2819 -1.7074
  575MOL0     H77582   3.875   8.703   1.069  0.9136  1.0469  0.1042
  575MOL0     H77583   4.122   8.628   1.247  1.0633  1.0430  0.9279
  575MOL0     H77584   3.966   8.686   1.300  0.0657 -0.0983 -0.1594
  575MOL0     H77585   4.203   8.745   1.411 -1.2807  0.3627 -0.6472
  575MOL0     H77586   4.426   8.790   1.478  0.2633 -1.8926 -0.1035
  575MOL0     H77587   4.936   9.044   1.222  2.4291  0.3754  0.6720
  575MOL0     H77588   5.126   8.981   1.346  1.3508 -1.5542 -2.3741
  575MOL0     H77589   5.138   8.692   1.679 -1.2700 -3.1431 -1.0198
  575MOL0     H77590   5.163   8.598   1.531 -2.3489 -1.2901  2.6438
  575MOL0     H77591   5.386   8.668   1.512  3.2592 -1.2267  1.1895
  575MOL0     H77592   5.371   8.763   1.661 -2.6292  0.6283  1.4020
  575MOL0     H77593   5.323   8.542   1.790 -0.9784 -1.1905 -0.1743
  575MOL0     H77594   5.325   8.445   1.645 -0.9793 -1.3887  2.2402
  575MOL0     H77595   5.558   8.578   1.793 -3.1606  3.3067  0.8179
  575MOL0     H77596   5.563   8.562   1.611 -2.0748  0.6168 -0.5436
  575MOL0     H77597   5.535   8.325   1.625 -1.1782 -0.6038  0.7927
  575MOL0     H77598   5.512   8.318   1.790  1.0056 -1.1445 -0.9080
  575MOL0     H77599   5.740   8.427   1.823 -2.9875  1.5271  1.0076
  575MOL0     H77600   5.711   8.256   1.774 -0.5344 -0.1464 -0.8967
  575MOL0     H77601   5.783   8.495   1.600  1.7878  0.0993  1.1475
  575MOL0     H77602   5.754   8.324   1.540  1.9258 -2.0767  1.1260
  575MOL0     H77603   5.982   8.444   1.704 -4.5469  1.9511  0.6572
  575MOL0     H77604   5.940   8.267   1.709 -2.6199 -1.1500 -2.2639
  575MOL0     H77605   4.920   8.651   1.542 -5.2601 -2.1920 -1.4620
  575MOL0     H77606   4.717   8.742   1.442 -1.2312  2.1866  0.5393
  575MOL0     H77607   4.472   9.065   1.144 -4.6791  4.0055 -1.0410
  575MOL0     H77608   4.229   8.993   1.080 -1.5092  1.3531 -0.1907
  575MOL0     H77609   5.167   8.590   0.264  0.1167 -1.2387  0.8149
  575MOL0     H77610   5.369   8.484   0.314  1.2236 -2.4481  0.6708
  575MOL0     H77611   5.585   8.247   0.474  1.6821  2.0336  0.1246
  575MOL0     H77612   5.770   8.223   0.607 -0.7236  1.3546 -0.3412
  575MOL0     H77613   6.028   8.053   0.723  2.1988 -0.7455  0.7838
  575MOL0     H77614   5.966   8.214   0.701  3.0120  2.6793  2.3017
  575MOL0     H77615   6.250   8.166   0.619 -1.4353 -2.6035 -0.0781
  575MOL0     H77616   6.210   8.167   0.796 -1.6882  1.4026  1.6752
  575MOL0     H77617   6.109   8.378   0.754  1.5815  0.1660  1.5816
  575MOL0     H77618   6.151   8.379   0.580  0.0995 -0.0202 -0.6716
  575MOL0     H77619   6.396   8.360   0.656 -1.7228 -0.2136 -3.9379
  575MOL0     H77620   6.317   8.515   0.674 -3.7808 -0.2525 -2.1870
  575MOL0     H77621   6.370   8.326   1.076  3.0569  2.8793  0.6668
  575MOL0     H77622   6.004   8.096   0.268 -0.0468  3.3963 -1.1204
  575MOL0     H77623   5.851   8.023   0.051  3.2871  0.4315 -0.0306
  575MOL0     H77624   5.726   8.152   0.016 -0.6876  1.1045  0.1389
  575MOL0     H77625   5.899   8.180   0.043  2.6179 -3.6580  1.9117
  576MOL0     O77626   3.684   2.659   4.105  1.2961 -0.2109  0.1777
  576MOL0     C77627   3.794   2.703   4.057  1.1636 -0.6882 -0.1505
  576MOL0     O77628   3.853   2.814   4.110  0.3880  0.1833  0.4680
  576MOL0     C77629   3.785   2.885   4.205  0.6193  0.9061 -0.4122
  576MOL0     C77630   3.837   2.876   4.332 -0.3371 -1.0481 -0.4069
  576MOL0     C77631   3.786   2.967   4.431  0.0197 -0.4668  0.5021
  576MOL0     C77632   3.678   3.043   4.408 -0.5747  0.1617 -0.0652
  576MOL0     O77633   3.647   3.133   4.512  0.8866 -0.1886 -0.1677
  576MOL0     C77634   3.551   3.237   4.485 -0.3306  0.5727 -0.2302
  576MOL0     C77635   3.410   3.192   4.530  0.2180  0.4562 -0.2017
  576MOL0     C77636   3.414   3.159   4.678  0.2567  0.1823  1.0187
  576MOL0     C77637   3.285   3.132   4.755  0.2104 -0.0272  0.0818
  576MOL0     C77638   3.200   3.012   4.693  0.7068 -0.0804 -0.1895
  576MOL0     C77639   3.265   2.874   4.724  0.2931 -0.3109  0.8953
  576MOL0     C77640   3.175   2.757   4.672 -1.4506  0.3328 -0.0289
  576MOL0     C77641   3.074   2.713   4.773 -0.9196 -0.0767  0.6558
  576MOL0     N77642   3.141   2.651   4.890 -0.0229 -0.6005  0.3005
  576MOL0     C77643   3.083   2.649   5.017 -0.0669  0.5672 -0.2193
  576MOL0     C77644   3.178   2.579   5.094  0.3306  0.7810  0.4713
  576MOL0     C77645   3.167   2.561   5.239  0.2005  0.0433 -0.3524
  576MOL0     C77646   3.036   2.545   5.321  1.0475 -0.3404 -0.4577
  576MOL0     C77647   3.063   2.526   5.473 -0.7262  0.0839  0.7525
  576MOL0     C77648   2.946   2.496   5.562 -0.0417  0.0019  0.1626
  576MOL0     O77649   3.016   2.480   5.695  0.6744  0.3023  0.2328
  576MOL0     C77650   2.936   2.451   5.806 -0.2108  0.0052 -0.3169
  576MOL0     C77651   3.003   2.437   5.920 -0.6252  0.4949 -0.4769
  576MOL0     C77652   2.931   2.410   6.041  0.0342 -0.1603 -0.1490
  576MOL0     C77653   2.792   2.411   6.042  0.3361  0.2893 -0.7938
  576MOL0     C77654   2.721   2.409   6.174  0.0944  1.0889  0.4615
  576MOL0     O77655   2.789   2.401   6.288 -0.0323  0.1941  0.1890
  576MOL0     C77656   2.731   2.385   6.407  0.1629  0.5416  0.1477
  576MOL0     C77657   2.609   2.314   6.436 -0.7138  0.6627  0.1500
  576MOL0     C77658   2.559   2.310   6.564  0.5275 -0.2538 -0.7062
  576MOL0     C77659   2.629   2.372   6.676  0.8064 -0.3811 -0.0437
  576MOL0     O77660   2.565   2.366   6.802 -0.0632 -0.0891  0.4615
  576MOL0     C77661   2.630   2.438   6.909  0.6432 -0.6177  0.1881
  576MOL0     C77662   2.544   2.447   7.036 -1.0170  0.5245 -0.8013
  576MOL0     C77663   2.566   2.318   7.122  0.5662  0.3946  0.4217
  576MOL0     C77664   2.677   2.331   7.221  0.7721  0.4051  0.0664
  576MOL0     C77665   2.636   2.406   7.335 -0.0294  1.2161 -1.0097
  576MOL0     C77666   2.758   2.442   7.426 -0.2385 -0.7402 -0.7246
  576MOL0     C77667   2.734   2.538   7.549  0.8879 -0.1517  0.3890
  576MOL0     C77668   2.656   2.480   7.670  0.3732 -0.2609  0.2607
  576MOL0    Cl77669   2.785   2.370   7.734 -0.4923  0.1443 -0.7279
  576MOL0     C77670   2.751   2.429   6.651  0.2193  1.1502  0.0338
  576MOL0     C77671   2.799   2.437   6.515 -0.2931  0.0388  0.4644
  576MOL0     O77672   2.604   2.424   6.163 -0.2540  0.2292 -0.3957
  576MOL0     C77673   2.724   2.447   5.924 -0.6160 -0.2449 -0.5335
  576MOL0     C77674   2.795   2.466   5.812 -0.7175 -0.7041  0.2845
  576MOL0     N77675   3.279   2.541   5.008  0.0445  0.2427  0.7464
  576MOL0     N77676   3.254   2.585   4.890 -0.7292 -0.5252  0.0371
  576MOL0     C77677   3.608   3.035   4.280  0.1499 -0.4638 -0.7955
  576MOL0     C77678   3.670   2.958   4.180  0.4257 -0.8012 -0.5209
  576MOL0     C77679   3.873   2.608   3.966 -0.1793  0.2369  0.9540
  576MOL0     C77680   3.979   2.667   3.892 -0.1439 -0.1775 -1.4446
  576MOL0     C77681   4.054   2.591   3.806  0.5780  0.9159 -0.0346
  576MOL0     C77682   4.027   2.454   3.791  0.2623 -0.3324  0.9701
  576MOL0     O77683   4.098   2.392   3.688 -0.3768  0.6096  0.2295
  576MOL0     C77684   4.088   2.253   3.681 -0.0095  0.6486  0.1019
  576MOL0     C77685   4.192   2.198   3.582 -0.4056 -0.5940 -0.3510
  576MOL0     C77686   4.331   2.246   3.616 -0.6159  0.1640 -1.0627
  576MOL0     C77687   4.433   2.184   3.527  0.0861  0.1666  0.8949
  576MOL0     C77688   4.563   2.232   3.530 -1.1380 -0.7144  0.0490
  576MOL0     C77689   4.677   2.265   3.557 -0.5839 -1.2728 -0.1150
  576MOL0     C77690   3.909   2.405   3.852  0.0591 -0.4227  0.5196
  576MOL0     C77691   3.834   2.477   3.941  0.3751 -0.0047 -0.2875
  576MOL0     C77692   3.709   2.408   3.975 -0.9071 -0.3517  0.5127
  576MOL0     H77693   3.919   2.808   4.352  0.6770  0.2457  0.0159
  576MOL0     H77694   3.834   2.976   4.528  1.5734  0.2309 -0.2837
  576MOL0     H77695   3.579   3.326   4.543  0.1583 -0.4190  1.1018
  576MOL0     H77696   3.550   3.268   4.380 -1.4123  0.0328 -0.3884
  576MOL0     H77697   3.378   3.105   4.473 -0.2783  0.6163 -0.1701
  576MOL0     H77698   3.340   3.273   4.510 -0.7723 -0.5510 -0.9194
  576MOL0     H77699   3.473   3.236   4.728 -0.3756  0.1576  1.8150
  576MOL0     H77700   3.480   3.073   4.688  1.4447  1.0718  0.9794
  576MOL0     H77701   3.320   3.117   4.857  0.6841 -1.9816 -0.3248
  576MOL0     H77702   3.236   3.230   4.761  1.0106  0.3944 -0.1209
  576MOL0     H77703   3.104   3.014   4.746  0.5434 -0.6164 -0.4611
  576MOL0     H77704   3.187   3.022   4.585 -0.8505 -1.3606 -0.1652
  576MOL0     H77705   3.368   2.881   4.686  0.3368  0.7876  1.1689
  576MOL0     H77706   3.276   2.855   4.831 -0.4342  0.8237  1.1953
  576MOL0     H77707   3.251   2.681   4.655 -0.3432  1.4312 -0.1792
  576MOL0     H77708   3.126   2.784   4.578  1.3707  4.6323 -0.5843
  576MOL0     H77709   2.996   2.783   4.805  0.9835  2.2328  0.5182
  576MOL0     H77710   3.029   2.626   4.726  0.7474 -0.0181 -1.1954
  576MOL0     H77711   2.985   2.688   5.043 -0.9723 -1.4465 -0.4111
  576MOL0     H77712   3.225   2.477   5.277 -1.8151 -1.4902 -0.4856
  576MOL0     H77713   3.217   2.650   5.278  0.3681 -0.7613  1.3211
  576MOL0     H77714   2.975   2.632   5.296 -0.3020 -0.4979  1.9701
  576MOL0     H77715   2.986   2.452   5.293 -1.5546 -0.3064  3.3749
  576MOL0     H77716   3.107   2.615   5.519 -1.6937  0.4817  0.9444
  576MOL0     H77717   3.128   2.440   5.491  0.1965  0.3590 -1.0455
  576MOL0     H77718   2.888   2.409   5.528  1.5824 -1.2941  0.5860
  576MOL0     H77719   2.882   2.585   5.558 -0.0589 -0.0378 -0.5719
  576MOL0     H77720   3.111   2.443   5.911 -0.6543 -0.4772 -1.8172
  576MOL0     H77721   2.983   2.390   6.135  1.0082 -0.3471 -0.7149
  576MOL0     H77722   2.543   2.274   6.360  0.1145 -1.5638  0.5261
  576MOL0     H77723   2.460   2.279   6.595  0.6114 -0.2452 -0.4258
  576MOL0     H77724   2.722   2.390   6.942  1.4083  1.8200  1.8330
  576MOL0     H77725   2.659   2.541   6.888  0.5944 -0.4864  0.7645
  576MOL0     H77726   2.579   2.536   7.090  2.0080  0.3614 -2.2507
  576MOL0     H77727   2.439   2.453   7.007 -0.8307 -2.1209 -2.3247
  576MOL0     H77728   2.474   2.283   7.169  1.5969 -4.6818 -0.7523
  576MOL0     H77729   2.597   2.234   7.058  0.8601  2.6856 -2.6723
  576MOL0     H77730   2.764   2.376   7.174 -1.3800  3.9795 -0.9071
  576MOL0     H77731   2.710   2.233   7.258 -0.6804  0.4689  1.6723
  576MOL0     H77732   2.552   2.354   7.383 -2.0842  1.0640 -4.4126
  576MOL0     H77733   2.592   2.503   7.306  0.2392  2.0688  1.2343
  576MOL0     H77734   2.806   2.355   7.473 -1.6812 -1.1119  0.1081
  576MOL0     H77735   2.838   2.481   7.363  1.4008 -3.4485 -0.4847
  576MOL0     H77736   2.683   2.627   7.511  0.3989 -1.8164 -3.1828
  576MOL0     H77737   2.832   2.577   7.581  1.9486  1.0867 -3.7707
  576MOL0     H77738   2.633   2.547   7.753 -0.4233  0.2072 -0.3340
  576MOL0     H77739   2.569   2.422   7.640  2.7174 -3.7153 -0.4694
  576MOL0     H77740   2.816   2.458   6.734 -0.4582  2.1938  0.2132
  576MOL0     H77741   2.897   2.477   6.490  0.3447 -1.1838  0.9005
  576MOL0     H77742   2.616   2.442   5.929 -0.5219 -2.1354  2.6938
  576MOL0     H77743   2.744   2.468   5.716 -2.6025 -2.3648  1.1671
  576MOL0     H77744   3.514   3.090   4.272 -0.3023 -0.7128  1.8558
  576MOL0     H77745   3.637   2.970   4.077 -0.7118  0.7432 -0.0298
  576MOL0     H77746   3.990   2.771   3.922 -2.3973 -0.7796  1.9697
  576MOL0     H77747   4.137   2.644   3.761  0.8584 -0.4819 -1.2443
  576MOL0     H77748   3.996   2.216   3.635  0.2548 -0.2109  0.2559
  576MOL0     H77749   4.100   2.200   3.776  1.4797 -1.7579 -1.3198
  576MOL0     H77750   4.163   2.220   3.479 -0.3885 -2.6138 -0.8317
  576MOL0     H77751   4.189   2.089   3.586  1.1641 -0.7785 -2.4373
  576MOL0     H77752   4.355   2.222   3.720 -0.9205  2.0322 -0.5173
  576MOL0     H77753   4.336   2.354   3.597  1.6498  0.8654  2.4500
  576MOL0     H77754   4.442   2.080   3.561  3.1575  0.0207 -0.0952
  576MOL0     H77755   4.409   2.202   3.422  2.5972  3.2078  0.7043
  576MOL0     H77756   4.773   2.302   3.589 -0.8849 -1.8306  1.5472
  576MOL0     H77757   3.883   2.302   3.831  1.2107 -1.1144  2.2642
  576MOL0     H77758   3.695   2.311   3.925  1.2788  0.4378 -1.8163
  576MOL0     H77759   3.716   2.378   4.080  2.9465 -1.2297  0.1282
  576MOL0     H77760   3.620   2.471   3.965 -0.1945  0.6995  0.6024
  577MOL0     O77761   7.056   9.699   0.628  0.6158  0.0946  0.3981
  577MOL0     C77762   7.177   9.694   0.668  1.1505 -0.1888  0.7087
  577MOL0     O77763   7.219   9.582   0.720  0.9058  0.6447  0.6518
  577MOL0     C77764   7.130   9.502   0.791 -0.0865 -0.3146 -0.4430
  577MOL0     C77765   7.072   9.526   0.909 -0.1318 -0.6173 -0.7078
  577MOL0     C77766   6.997   9.436   0.976  0.0935  0.0186  0.2771
  577MOL0     C77767   6.977   9.311   0.921  0.8278 -0.8737 -0.6407
  577MOL0     O77768   6.912   9.220   0.991 -0.2860  0.3932  0.0568
  577MOL0     C77769   6.985   9.097   1.020 -0.0502 -0.4347 -0.2505
  577MOL0     C77770   6.903   9.018   1.120 -0.1466 -0.0441  0.3017
  577MOL0     C77771   6.871   9.106   1.236  0.7306  0.2648  0.2064
  577MOL0     C77772   6.777   9.020   1.328 -0.0275 -0.3410 -0.0909
  577MOL0     C77773   6.706   9.106   1.437 -0.2109 -0.5424  0.6442
  577MOL0     C77774   6.620   9.018   1.523 -0.4730 -0.3323  0.6914
  577MOL0     C77775   6.501   8.956   1.448 -0.4162  1.4245  0.4662
  577MOL0     C77776   6.405   8.878   1.547  0.3949  0.4495  0.1417
  577MOL0     N77777   6.441   8.734   1.566  0.2617 -0.4945  0.5126
  577MOL0     C77778   6.528   8.690   1.655  0.2317 -0.5429 -0.6121
  577MOL0     C77779   6.553   8.564   1.627  1.0538 -0.5076  0.7234
  577MOL0     C77780   6.637   8.469   1.702 -0.1943  0.0470 -0.1551
  577MOL0     C77781   6.630   8.324   1.663 -0.5059 -0.4104  0.4500
  577MOL0     C77782   6.705   8.243   1.765  0.3489 -0.0396  0.0166
  577MOL0     C77783   6.709   8.093   1.750 -0.2122 -0.0733  1.1093
  577MOL0     O77784   6.606   8.027   1.811  0.2736  0.3342 -0.0633
  577MOL0     C77785   6.623   7.899   1.836 -0.4563  1.1146 -0.5008
  577MOL0     C77786   6.572   7.803   1.751 -0.2730 -0.6020 -0.1939
  577MOL0     C77787   6.592   7.671   1.773  0.4382 -0.6219  0.4338
  577MOL0     C77788   6.662   7.626   1.888  1.0607  0.0073 -0.1591
  577MOL0     C77789   6.697   7.484   1.910 -0.4747 -0.3395  0.0806
  577MOL0     O77790   6.627   7.403   1.835 -0.0848 -0.0059  0.2289
  577MOL0     C77791   6.615   7.272   1.870 -0.5206  0.4443 -0.9847
  577MOL0     C77792   6.640   7.173   1.765 -0.0209 -0.4364  0.1263
  577MOL0     C77793   6.618   7.036   1.795 -0.4283 -0.8095 -0.3639
  577MOL0     C77794   6.571   6.996   1.922  0.4217 -0.5899 -0.0560
  577MOL0     O77795   6.540   6.869   1.952 -0.2706  0.3391  0.5742
  577MOL0     C77796   6.533   6.766   1.848 -0.3817 -0.2023 -0.6517
  577MOL0     C77797   6.531   6.639   1.927 -0.1413  0.1488  0.3904
  577MOL0     C77798   6.486   6.508   1.859  0.3750  0.1389  0.5222
  577MOL0     C77799   6.522   6.396   1.954  0.2159 -0.0199  0.1418
  577MOL0     C77800   6.442   6.263   1.924 -1.4979  0.5701  0.3785
  577MOL0     C77801   6.459   6.168   2.044 -0.5097 -1.0054  0.2824
  577MOL0     C77802   6.398   6.022   2.039  0.0383 -0.3071  0.0635
  577MOL0     C77803   6.307   6.010   2.157 -0.1811 -0.2362  0.8042
  577MOL0    Cl77804   6.408   5.967   2.303 -0.3900 -0.2050 -0.3479
  577MOL0     C77805   6.552   7.086   2.021 -0.0627 -0.6055 -0.2984
  577MOL0     C77806   6.576   7.223   1.997  0.1750  0.5468 -0.2219
  577MOL0     O77807   6.772   7.447   2.003  0.1786 -1.2127 -0.1195
  577MOL0     C77808   6.703   7.719   1.987  0.5875 -0.4874  0.6176
  577MOL0     C77809   6.688   7.858   1.956  0.4217  0.0011 -0.3985
  577MOL0     N77810   6.478   8.532   1.524 -0.7222  0.3837 -0.0512
  577MOL0     N77811   6.413   8.636   1.485  0.3934 -0.0779 -0.1007
  577MOL0     C77812   7.016   9.285   0.790 -0.0759  0.9788  0.8105
  577MOL0     C77813   7.093   9.385   0.726  0.6836  0.1053 -0.5201
  577MOL0     C77814   7.279   9.782   0.631 -0.9644 -0.2907 -0.1412
  577MOL0     C77815   7.407   9.758   0.689 -0.2702 -0.6856 -1.1635
  577MOL0     C77816   7.513   9.836   0.657  0.1145  0.2308 -0.3401
  577MOL0     C77817   7.496   9.950   0.580 -0.8763  0.2913 -1.2184
  577MOL0     O77818   7.611  10.029   0.558  0.0766 -0.3312 -0.6570
  577MOL0     C77819   7.594  10.171   0.571 -0.2008 -0.1456 -0.2870
  577MOL0     C77820   7.707  10.236   0.641  0.4391 -0.4694  0.0275
  577MOL0     C77821   7.838  10.247   0.564  0.0542  0.4461  0.1317
  577MOL0     C77822   7.946  10.287   0.656  0.9557  0.1895 -0.3224
  577MOL0     C77823   7.922  10.426   0.713 -0.3489 -0.1902  0.0060
  577MOL0     C77824   7.912  10.537   0.767 -0.2204  0.3656  0.5112
  577MOL0     C77825   7.368   9.982   0.539  0.0526 -0.0861  0.9585
  577MOL0     C77826   7.258   9.901   0.557 -0.6538 -0.1734 -0.6796
  577MOL0     C77827   7.130   9.947   0.491  0.0007  0.4191  0.1361
  577MOL0     H77828   7.084   9.610   0.977 -1.9240 -2.0471  1.5368
  577MOL0     H77829   6.973   9.449   1.081  3.4275  1.2405  0.9892
  577MOL0     H77830   7.013   9.032   0.937 -1.1862 -0.3366 -0.7295
  577MOL0     H77831   7.086   9.114   1.059  1.1837  2.0784 -3.9079
  577MOL0     H77832   6.952   8.931   1.163  0.7295 -0.2335 -1.0177
  577MOL0     H77833   6.806   8.980   1.085 -1.4612 -0.4645  3.9744
  577MOL0     H77834   6.815   9.198   1.214 -0.8983 -0.0595  2.6221
  577MOL0     H77835   6.956   9.132   1.300 -1.1922  0.4453  2.8571
  577MOL0     H77836   6.692   8.987   1.268 -1.2673  0.8281  0.9444
  577MOL0     H77837   6.847   8.959   1.386  2.8863  2.4429 -0.3587
  577MOL0     H77838   6.776   9.156   1.504 -0.6063 -1.7978  2.0445
  577MOL0     H77839   6.638   9.176   1.389  0.9044  0.1740  0.0909
  577MOL0     H77840   6.689   8.945   1.566  2.6944  2.4597  0.7675
  577MOL0     H77841   6.582   9.085   1.601  0.7143  2.4512 -0.9374
  577MOL0     H77842   6.541   8.887   1.374  0.8504  3.6382 -1.0602
  577MOL0     H77843   6.440   9.035   1.403  1.7814  0.9401 -3.9072
  577MOL0     H77844   6.386   8.918   1.647 -2.8144 -1.8654  0.6199
  577MOL0     H77845   6.306   8.882   1.500  0.8205 -0.0807 -0.8275
  577MOL0     H77846   6.578   8.744   1.735 -0.9163  1.7744 -1.3601
  577MOL0     H77847   6.741   8.501   1.701  0.5878 -2.2808 -0.5187
  577MOL0     H77848   6.611   8.486   1.807  1.1941 -1.0142  0.3959
  577MOL0     H77849   6.528   8.287   1.645 -0.1931 -1.3536  0.5576
  577MOL0     H77850   6.676   8.328   1.564 -1.8860  2.8333 -0.1960
  577MOL0     H77851   6.660   8.260   1.863 -2.0894 -1.3079 -0.7935
  577MOL0     H77852   6.813   8.259   1.773  0.8588 -3.5214  2.2791
  577MOL0     H77853   6.808   8.061   1.783  0.5192  0.2007 -0.7344
  577MOL0     H77854   6.706   8.069   1.643 -0.6751  0.1566  1.0666
  577MOL0     H77855   6.509   7.833   1.668 -0.2901  0.5973  0.2382
  577MOL0     H77856   6.561   7.609   1.690 -0.5936  0.5958 -0.1105
  577MOL0     H77857   6.677   7.200   1.666 -0.1764 -2.7597 -0.6155
  577MOL0     H77858   6.636   6.967   1.714  2.9352  1.9319 -2.2342
  577MOL0     H77859   6.438   6.772   1.793 -0.8874  2.4303  0.3829
  577MOL0     H77860   6.611   6.767   1.771 -0.4206 -1.4173 -0.7225
  577MOL0     H77861   6.638   6.618   1.942  0.9905  0.8088 -4.7785
  577MOL0     H77862   6.473   6.657   2.018  0.5359  4.0006  0.2213
  577MOL0     H77863   6.382   6.493   1.832  1.2729 -2.5118 -1.8883
  577MOL0     H77864   6.529   6.499   1.759 -1.5431 -0.9764 -0.2481
  577MOL0     H77865   6.508   6.429   2.058  2.6275  0.0445  0.5096
  577MOL0     H77866   6.631   6.386   1.953  0.2483  0.3716 -0.1402
  577MOL0     H77867   6.476   6.224   1.828  0.2864  2.4570  0.1593
  577MOL0     H77868   6.342   6.299   1.899 -0.4242  2.0692 -2.2719
  577MOL0     H77869   6.564   6.139   2.056 -0.2801 -0.5190 -0.4997
  577MOL0     H77870   6.426   6.226   2.131 -1.4329 -1.1819  0.0592
  577MOL0     H77871   6.476   5.946   2.036  0.7133  0.2713  1.5517
  577MOL0     H77872   6.331   6.026   1.953 -2.5300 -0.0344  1.9406
  577MOL0     H77873   6.249   6.097   2.188 -0.7503 -0.1544 -0.4427
  577MOL0     H77874   6.233   5.934   2.130  1.4659 -0.8990 -2.2867
  577MOL0     H77875   6.509   7.059   2.116 -1.0714  2.5881  0.2835
  577MOL0     H77876   6.556   7.294   2.077 -1.3178  0.5872 -0.5916
  577MOL0     H77877   6.739   7.674   2.080  0.9358 -0.5084  0.4740
  577MOL0     H77878   6.734   7.928   2.026  0.0567 -1.9273  1.8816
  577MOL0     H77879   6.986   9.193   0.740  2.5218  2.3622 -3.9559
  577MOL0     H77880   7.124   9.362   0.624  1.0209 -1.6744 -0.0487
  577MOL0     H77881   7.420   9.668   0.748 -0.1599 -1.4119 -2.2748
  577MOL0     H77882   7.612   9.817   0.697  0.3478  1.3184 -0.3772
  577MOL0     H77883   7.499  10.192   0.620  1.6872  1.6836  2.9414
  577MOL0     H77884   7.582  10.223   0.476  1.7397  4.0548  1.4937
  577MOL0     H77885   7.732  10.173   0.727  1.3983  0.7122  0.6361
  577MOL0     H77886   7.674  10.338   0.662 -1.9517 -0.7082 -2.0043
  577MOL0     H77887   7.821  10.330   0.495  0.9826  2.2012  1.9328
  577MOL0     H77888   7.865  10.155   0.511 -2.5925  0.4097 -1.3382
  577MOL0     H77889   7.956  10.217   0.740  3.1587  2.1042  1.1663
  577MOL0     H77890   8.037  10.286   0.595 -0.0984 -4.6877 -2.2958
  577MOL0     H77891   7.895  10.633   0.811 -1.3331  0.6411 -0.4532
  577MOL0     H77892   7.366  10.076   0.484 -2.0377  1.8278  3.9602
  577MOL0     H77893   7.076   9.862   0.448 -0.4490  0.5233  0.4752
  577MOL0     H77894   7.072   9.990   0.574  0.6765  1.6061  0.0113
  577MOL0     H77895   7.156  10.027   0.422  1.6945 -0.8801 -0.7993
  578MOL0     O77896   9.349   3.336   6.224 -0.7271  0.3117  0.7412
  578MOL0     C77897   9.425   3.378   6.128  0.0029 -0.1412  0.3117
  578MOL0     O77898   9.448   3.505   6.101  0.6080 -0.1682  0.0458
  578MOL0     C77899   9.356   3.604   6.116  0.1224  0.3443 -1.7511
  578MOL0     C77900   9.408   3.734   6.119 -1.0371 -0.2280  0.2199
  578MOL0     C77901   9.317   3.845   6.130  0.4517 -0.9040 -0.3550
  578MOL0     C77902   9.177   3.829   6.130 -0.8367 -0.1613 -0.4690
  578MOL0     O77903   9.092   3.934   6.130  0.0004  0.3467  0.7730
  578MOL0     C77904   9.111   4.061   6.069  0.1770  0.3454 -0.3642
  578MOL0     C77905   8.992   4.156   6.074  0.7995  0.4039 -0.3538
  578MOL0     C77906   8.867   4.122   5.992 -0.1636  0.2399 -0.1760
  578MOL0     C77907   8.755   4.237   5.985  0.4631  0.4013  0.1532
  578MOL0     C77908   8.651   4.202   5.870 -0.0816 -0.7732  0.3852
  578MOL0     C77909   8.562   4.328   5.845  0.2283 -0.0935  0.0830
  578MOL0     C77910   8.495   4.401   5.961 -0.4425  0.1182 -0.0891
  578MOL0     C77911   8.401   4.314   6.040  0.6637 -0.7288 -0.0288
  578MOL0     N77912   8.275   4.262   5.973  0.4924 -0.6413 -0.5176
  578MOL0     C77913   8.275   4.166   5.876  1.1291 -0.1108 -1.2299
  578MOL0     C77914   8.143   4.156   5.843 -0.0679 -0.5180  1.0037
  578MOL0     C77915   8.090   4.066   5.737  0.4814 -0.1909  0.4038
  578MOL0     C77916   8.057   3.919   5.792  0.2280 -0.5763  0.2235
  578MOL0     C77917   8.035   3.817   5.684 -0.6500  0.8246  0.5966
  578MOL0     C77918   8.148   3.810   5.584 -0.3285  0.3299  0.0370
  578MOL0     O77919   8.274   3.823   5.647  0.4241  0.6642 -0.3825
  578MOL0     C77920   8.346   3.711   5.680  0.0821 -0.1268 -0.3803
  578MOL0     C77921   8.479   3.732   5.712  0.0981  0.3179 -0.2912
  578MOL0     C77922   8.567   3.634   5.754 -0.1256  0.1559  0.1525
  578MOL0     C77923   8.514   3.504   5.774  0.7729 -0.5382  0.2398
  578MOL0     C77924   8.610   3.396   5.805 -0.7710  0.0025 -0.3168
  578MOL0     O77925   8.746   3.412   5.795 -0.1472  0.5133 -0.0651
  578MOL0     C77926   8.833   3.313   5.834 -0.7739 -0.0924 -0.1209
  578MOL0     C77927   8.840   3.197   5.771 -0.3401  0.1533  0.1426
  578MOL0     C77928   8.937   3.099   5.795 -0.0671 -0.5372 -0.5662
  578MOL0     C77929   9.022   3.118   5.896  0.2646 -0.7993 -0.0895
  578MOL0     O77930   9.094   3.006   5.937  0.3386  0.1168  0.1011
  578MOL0     C77931   9.211   3.025   6.022  0.5736  0.2714  0.2043
  578MOL0     C77932   9.308   2.906   6.028 -0.4118 -0.4336 -0.3133
  578MOL0     C77933   9.251   2.763   6.043  0.5070  0.5857  0.0899
  578MOL0     C77934   9.241   2.695   5.909 -0.1100 -0.5690  0.2271
  578MOL0     C77935   9.133   2.586   5.905 -0.0125 -1.0718 -1.0567
  578MOL0     C77936   9.131   2.517   5.775  0.4061 -0.3587  0.4683
  578MOL0     C77937   8.993   2.437   5.767  0.0978  0.1828  0.2888
  578MOL0     C77938   8.887   2.529   5.701 -0.0265  0.9030  0.0087
  578MOL0    Cl77939   8.718   2.465   5.724 -0.2600 -0.0936 -0.0370
  578MOL0     C77940   9.024   3.237   5.967  0.5480  0.0798 -0.0669
  578MOL0     C77941   8.933   3.339   5.936  0.8495  0.7312 -0.2943
  578MOL0     O77942   8.564   3.294   5.843 -0.4385 -0.0598  0.3214
  578MOL0     C77943   8.380   3.479   5.746 -0.1800  0.0011  0.7731
  578MOL0     C77944   8.301   3.577   5.697 -0.6580 -1.4354 -0.3499
  578MOL0     N77945   8.075   4.259   5.907  0.2253 -0.2567  0.2019
  578MOL0     N77946   8.158   4.318   5.989  0.8049  0.1931 -0.7135
  578MOL0     C77947   9.128   3.699   6.150 -0.1204  0.5986 -0.0993
  578MOL0     C77948   9.219   3.593   6.148  0.7946 -0.7712 -0.2086
  578MOL0     C77949   9.511   3.280   6.069 -0.2593 -0.5581  0.2907
  578MOL0     C77950   9.527   3.274   5.928  0.7461 -0.3070  0.0163
  578MOL0     C77951   9.593   3.170   5.868  0.9876 -0.9203 -2.0219
  578MOL0     C77952   9.645   3.074   5.950  0.7627  0.2813 -0.3710
  578MOL0     O77953   9.709   2.962   5.894 -0.1578  0.1524 -0.0650
  578MOL0     C77954   9.851   2.954   5.897  1.0124 -0.4555 -0.9486
  578MOL0     C77955   9.915   3.052   5.791 -0.1252  0.3282  0.5249
  578MOL0     C77956   9.888   3.032   5.636 -0.2844 -0.0337  0.5534
  578MOL0     C77957   9.982   3.111   5.540 -0.7520  0.3779  0.1946
  578MOL0     C77958   9.957   3.251   5.560 -0.9552 -0.2422  0.7427
  578MOL0     C77959   9.942   3.367   5.583  0.6514  0.1623  0.1212
  578MOL0     C77960   9.636   3.073   6.090  0.5442 -0.1339 -0.9749
  578MOL0     C77961   9.573   3.186   6.149 -0.7173  0.0180 -0.0044
  578MOL0     C77962   9.563   3.185   6.296 -1.0412  0.5224 -0.0214
  578MOL0     H77963   9.514   3.752   6.101 -1.3730  0.7688 -0.9630
  578MOL0     H77964   9.349   3.948   6.130 -0.6271 -0.5530  0.2691
  578MOL0     H77965   9.196   4.113   6.114  0.6030 -0.7233  0.1016
  578MOL0     H77966   9.132   4.047   5.962  2.1555  0.0663  0.0241
  578MOL0     H77967   9.031   4.255   6.048  3.9183 -0.7482 -0.4585
  578MOL0     H77968   8.953   4.155   6.176  1.7396 -1.8378  0.0307
  578MOL0     H77969   8.812   4.037   6.033 -0.2351  0.7214  0.7296
  578MOL0     H77970   8.908   4.098   5.893  1.1417 -1.6805  0.7704
  578MOL0     H77971   8.702   4.247   6.080 -1.8983 -2.8818 -0.6649
  578MOL0     H77972   8.800   4.336   5.970  0.4394  0.5461  1.0195
  578MOL0     H77973   8.706   4.176   5.780 -0.7225  1.1562 -0.6187
  578MOL0     H77974   8.592   4.117   5.905  0.7549 -0.9990  1.3101
  578MOL0     H77975   8.603   4.404   5.778 -1.6065 -1.5999 -2.9048
  578MOL0     H77976   8.478   4.287   5.790 -4.2235  0.7501  5.3283
  578MOL0     H77977   8.450   4.493   5.923  0.2997 -0.0111 -1.3250
  578MOL0     H77978   8.577   4.428   6.027  3.3350 -2.6737 -3.1678
  578MOL0     H77979   8.459   4.228   6.077  1.6407  0.8782  2.4638
  578MOL0     H77980   8.377   4.374   6.128  2.1186  0.2576 -0.2597
  578MOL0     H77981   8.354   4.094   5.861  0.5076 -0.5460 -2.5849
  578MOL0     H77982   7.991   4.097   5.703 -0.1854 -1.7777  0.7537
  578MOL0     H77983   8.160   4.063   5.654 -0.3271  1.8226 -0.4086
  578MOL0     H77984   8.136   3.879   5.856 -1.7598 -4.0776  0.7086
  578MOL0     H77985   7.965   3.915   5.852 -0.2549 -0.5733 -0.5001
  578MOL0     H77986   7.943   3.844   5.631  0.3572 -0.6381 -2.0868
  578MOL0     H77987   8.010   3.720   5.728 -4.4272  0.4341 -1.8959
  578MOL0     H77988   8.135   3.896   5.517 -0.6248 -1.8108 -2.8634
  578MOL0     H77989   8.140   3.719   5.524  1.9540  0.3799 -0.4050
  578MOL0     H77990   8.529   3.829   5.709 -0.2249  0.5534  1.3491
  578MOL0     H77991   8.666   3.666   5.786  0.0251  0.2544 -0.3858
  578MOL0     H77992   8.774   3.190   5.686 -1.8720  0.6367  1.2509
  578MOL0     H77993   8.941   2.999   5.754  0.8556 -1.0914  0.7969
  578MOL0     H77994   9.253   3.116   5.979  0.3351 -0.3272 -1.3713
  578MOL0     H77995   9.176   3.051   6.122  1.9794  0.6429  0.6179
  578MOL0     H77996   9.373   2.909   5.940  0.5321 -0.6609  0.3643
  578MOL0     H77997   9.375   2.926   6.112 -3.1265 -0.9338  2.1269
  578MOL0     H77998   9.327   2.711   6.102  0.7467 -0.1322 -0.8224
  578MOL0     H77999   9.153   2.753   6.092  2.3389  2.3439  4.6607
  578MOL0     H78000   9.332   2.641   5.884  0.1489  0.0684 -0.2096
  578MOL0     H78001   9.219   2.768   5.832  1.0341 -1.2284 -0.7499
  578MOL0     H78002   9.041   2.644   5.921  1.8153  2.1530 -1.3717
  578MOL0     H78003   9.147   2.516   5.988 -2.6606 -2.9216 -2.0263
  578MOL0     H78004   9.129   2.596   5.698 -0.0142 -0.0826  0.7613
  578MOL0     H78005   9.216   2.452   5.753  0.8851  0.1183  0.8805
  578MOL0     H78006   8.966   2.403   5.868 -0.4113  1.1511  0.4857
  578MOL0     H78007   9.013   2.346   5.709 -2.8088 -0.8353  0.7011
  578MOL0     H78008   8.887   2.631   5.742 -3.4786  0.9285  0.2519
  578MOL0     H78009   8.900   2.545   5.594 -0.3919  0.4620 -0.1067
  578MOL0     H78010   9.098   3.251   6.045  0.2971 -0.3493  0.2493
  578MOL0     H78011   8.943   3.435   5.985  2.1569  0.5311 -0.1240
  578MOL0     H78012   8.345   3.376   5.751  0.9701 -0.3697  1.4875
  578MOL0     H78013   8.196   3.564   5.675 -0.3030 -0.1614 -3.2701
  578MOL0     H78014   9.024   3.680   6.173 -0.6038  1.2841 -1.5641
  578MOL0     H78015   9.168   3.497   6.154  0.4813 -0.7060 -1.6283
  578MOL0     H78016   9.493   3.352   5.860 -0.2758 -1.0797 -0.3753
  578MOL0     H78017   9.593   3.163   5.759  2.2390  0.4532 -2.1411
  578MOL0     H78018   9.882   2.853   5.871  0.1500 -1.6696  2.2975
  578MOL0     H78019   9.879   2.986   5.998  0.2473 -1.0102 -0.5530
  578MOL0     H78020  10.023   3.049   5.804 -0.2216  0.2116  1.3971
  578MOL0     H78021   9.878   3.151   5.821 -2.2574 -0.6806  1.5243
  578MOL0     H78022   9.783   3.048   5.611 -0.2268 -0.0866  0.2803
  578MOL0     H78023   9.914   2.927   5.621  2.2289  0.8079 -1.7327
  578MOL0     H78024  10.085   3.083   5.560 -0.8583 -0.0982  0.0802
  578MOL0     H78025   9.942   3.079   5.443 -0.2049  1.8942 -0.5602
  578MOL0     H78026   9.937   3.473   5.592 -1.1337 -0.0732  3.7280
  578MOL0     H78027   9.673   2.987   6.145  0.2680 -2.5052 -4.2043
  578MOL0     H78028   9.458   3.167   6.321 -1.9239  0.0944 -3.4943
  578MOL0     H78029   9.626   3.105   6.336  0.8488  1.3159 -1.2848
  578MOL0     H78030   9.600   3.273   6.349  1.9123  1.2928 -3.0681
  579MOL0     O78031   4.018   3.070   3.148 -0.0530 -0.3408  0.0684
  579MOL0     C78032   4.085   3.130   3.235 -0.1996  0.4363  0.3901
  579MOL0     O78033   4.227   3.139   3.237 -0.4029 -0.7951 -0.6278
  579MOL0     C78034   4.285   3.060   3.147 -0.7469  0.2255  1.2204
  579MOL0     C78035   4.345   2.944   3.197 -0.1204  0.4797 -0.4027
  579MOL0     C78036   4.424   2.867   3.108  0.2134 -0.4560 -0.4160
  579MOL0     C78037   4.450   2.898   2.976 -0.2499  0.5737  0.3927
  579MOL0     O78038   4.530   2.825   2.885 -0.1017 -0.1652  0.4647
  579MOL0     C78039   4.545   2.681   2.917 -0.6443 -0.0871  0.3774
  579MOL0     C78040   4.566   2.606   2.782  0.0221 -0.3028 -0.2238
  579MOL0     C78041   4.696   2.646   2.701  0.0255 -0.9253 -0.0304
  579MOL0     C78042   4.706   2.578   2.566  0.3729  0.0638  0.0283
  579MOL0     C78043   4.845   2.588   2.503 -0.2476 -0.4038  0.3173
  579MOL0     C78044   4.899   2.735   2.490  0.3074 -0.2639 -0.3277
  579MOL0     C78045   5.035   2.741   2.428  0.4774 -0.7539  0.7157
  579MOL0     C78046   5.147   2.665   2.495  0.6230  0.3499 -0.5906
  579MOL0     N78047   5.272   2.694   2.429  0.0613  0.6478  0.1527
  579MOL0     C78048   5.374   2.775   2.483  0.3822  0.1055  0.5928
  579MOL0     C78049   5.469   2.778   2.392 -0.7466  0.3006  0.1909
  579MOL0     C78050   5.595   2.850   2.400 -1.5444 -0.0894  0.3351
  579MOL0     C78051   5.691   2.773   2.496 -0.1033  0.6264 -0.4782
  579MOL0     C78052   5.743   2.626   2.466  0.4975  0.6897 -0.9111
  579MOL0     C78053   5.819   2.561   2.578  0.8100 -0.3213 -0.3647
  579MOL0     O78054   5.944   2.630   2.592 -0.2368  0.2230  0.0628
  579MOL0     C78055   6.032   2.587   2.692  1.2518  0.1280  0.7352
  579MOL0     C78056   6.169   2.619   2.685  1.0231  0.6059  0.1443
  579MOL0     C78057   6.269   2.589   2.776  0.3794  0.7116  0.6951
  579MOL0     C78058   6.231   2.526   2.887 -0.3910 -0.4957  0.6240
  579MOL0     C78059   6.321   2.474   2.991 -0.5460  0.0088 -0.3455
  579MOL0     O78060   6.291   2.490   3.117 -0.5561 -0.4531  0.6970
  579MOL0     C78061   6.371   2.447   3.209 -0.2567 -0.1473 -0.1322
  579MOL0     C78062   6.381   2.309   3.225  1.3130  0.4729  0.1082
  579MOL0     C78063   6.467   2.255   3.329  0.1920 -0.0852 -0.2349
  579MOL0     C78064   6.527   2.348   3.424  0.1937 -0.0257 -0.8751
  579MOL0     O78065   6.583   2.306   3.545  0.0135 -0.4056 -0.4879
  579MOL0     C78066   6.664   2.195   3.542 -0.5339 -0.7402  0.1784
  579MOL0     C78067   6.778   2.232   3.644  0.8677  0.0994  0.7519
  579MOL0     C78068   6.874   2.113   3.666  0.2078 -0.3249  0.5608
  579MOL0     C78069   6.944   2.112   3.803  0.2160  0.0429  0.5007
  579MOL0     C78070   6.860   2.033   3.904  1.3401 -0.4816 -0.4059
  579MOL0     C78071   6.929   2.053   4.043  0.4762 -0.0092 -0.9502
  579MOL0     C78072   6.852   1.954   4.141  0.4612  0.0535  0.0090
  579MOL0     C78073   6.905   1.960   4.286 -0.3891 -0.6887 -0.8882
  579MOL0    Cl78074   6.775   1.934   4.408  0.0136 -0.3102  0.1485
  579MOL0     C78075   6.507   2.487   3.416  0.6693 -0.0610 -0.3056
  579MOL0     C78076   6.433   2.530   3.303 -0.0390 -1.4198  0.2547
  579MOL0     O78077   6.426   2.429   2.948 -0.0604 -0.2108  0.1810
  579MOL0     C78078   6.101   2.477   2.903 -0.3660  0.3398 -0.9937
  579MOL0     C78079   6.000   2.504   2.806 -0.1811  0.2853  0.0590
  579MOL0     N78080   5.427   2.701   2.281 -1.1064 -0.6865  0.4971
  579MOL0     N78081   5.303   2.652   2.303 -0.5394 -0.4213 -0.0274
  579MOL0     C78082   4.379   3.010   2.927 -0.1417 -0.6250  0.0733
  579MOL0     C78083   4.304   3.098   3.013  0.0251 -0.0854 -0.1210
  579MOL0     C78084   4.004   3.196   3.333 -0.0071 -0.6381 -0.4593
  579MOL0     C78085   4.055   3.314   3.386  0.1680 -0.9563  0.0226
  579MOL0     C78086   3.990   3.390   3.482 -0.7605 -0.2525 -0.6038
  579MOL0     C78087   3.865   3.348   3.519 -0.1577 -0.3013 -0.2943
  579MOL0     O78088   3.797   3.432   3.602 -0.0996  0.0611 -0.2572
  579MOL0     C78089   3.671   3.389   3.659  0.0302  0.0873 -1.2975
  579MOL0     C78090   3.603   3.504   3.745  0.9657 -0.4319  0.0859
  579MOL0     C78091   3.473   3.474   3.798  0.1264  0.1339 -0.1912
  579MOL0     C78092   3.389   3.589   3.854  0.3686 -0.0715 -0.7440
  579MOL0     C78093   3.434   3.630   3.988 -0.2898 -0.6930  0.0484
  579MOL0     C78094   3.504   3.662   4.083 -0.3301  0.3532 -0.3741
  579MOL0     C78095   3.807   3.230   3.463 -0.0828 -0.4119  0.4255
  579MOL0     C78096   3.882   3.145   3.379  0.7385 -0.3927  0.0677
  579MOL0     C78097   3.834   3.011   3.361 -0.4109 -0.4935  0.1143
  579MOL0     H78098   4.326   2.920   3.301 -0.1427  0.4168 -0.4213
  579MOL0     H78099   4.466   2.779   3.154  2.1980  1.1696  1.0521
  579MOL0     H78100   4.635   2.673   2.978 -0.3122  1.2087  0.1014
  579MOL0     H78101   4.454   2.641   2.963 -1.0449  0.1922 -0.1458
  579MOL0     H78102   4.482   2.626   2.715  0.0415  3.6925  0.6533
  579MOL0     H78103   4.565   2.500   2.809  3.4837 -0.3601  0.1221
  579MOL0     H78104   4.781   2.636   2.769 -1.3696 -0.6357  1.8231
  579MOL0     H78105   4.689   2.754   2.687  1.7280 -0.8880 -0.8838
  579MOL0     H78106   4.667   2.476   2.569 -0.2931  0.2148 -2.0342
  579MOL0     H78107   4.624   2.619   2.507 -1.4977 -3.6829 -0.2844
  579MOL0     H78108   4.907   2.528   2.570  1.1215  0.0110 -0.5393
  579MOL0     H78109   4.826   2.543   2.405  0.7051 -4.1721  1.6832
  579MOL0     H78110   4.824   2.778   2.422 -0.0360 -0.8832 -0.3470
  579MOL0     H78111   4.904   2.792   2.584  2.3812  0.1540 -0.6603
  579MOL0     H78112   5.060   2.847   2.431  2.7076 -1.0838 -1.9387
  579MOL0     H78113   5.038   2.714   2.322  0.2454  2.9925 -0.3911
  579MOL0     H78114   5.135   2.679   2.602 -0.5363 -1.8640 -0.3693
  579MOL0     H78115   5.119   2.559   2.489 -0.5566  0.7068 -1.9873
  579MOL0     H78116   5.375   2.802   2.588  0.1661 -1.6006  1.0522
  579MOL0     H78117   5.632   2.855   2.297 -1.4419  2.5512  0.4298
  579MOL0     H78118   5.576   2.948   2.444 -1.7123 -0.2134  0.5403
  579MOL0     H78119   5.776   2.841   2.484 -0.5000  0.7163 -3.5762
  579MOL0     H78120   5.643   2.778   2.594 -0.9598  3.9222 -0.9423
  579MOL0     H78121   5.800   2.622   2.373 -0.6036  1.3381 -1.6375
  579MOL0     H78122   5.650   2.569   2.458  1.6175 -1.4759  0.4345
  579MOL0     H78123   5.840   2.454   2.568  4.1034  0.0967  0.6308
  579MOL0     H78124   5.762   2.578   2.670  1.3849  0.8591 -0.2024
  579MOL0     H78125   6.195   2.674   2.595 -1.2867 -1.0844 -1.6924
  579MOL0     H78126   6.375   2.613   2.773  0.5992 -0.2334  0.4592
  579MOL0     H78127   6.325   2.231   3.174 -0.4995  1.5706  0.3185
  579MOL0     H78128   6.485   2.148   3.324 -3.2208 -0.7070 -2.9632
  579MOL0     H78129   6.613   2.105   3.579 -2.3676 -1.1708 -3.0232
  579MOL0     H78130   6.708   2.184   3.443  1.1540  0.2947  0.7764
  579MOL0     H78131   6.823   2.321   3.598 -2.2880  1.1822 -0.4756
  579MOL0     H78132   6.724   2.260   3.735 -1.9942 -0.0462 -0.8018
  579MOL0     H78133   6.818   2.019   3.659 -0.2938  0.0502 -0.7923
  579MOL0     H78134   6.952   2.115   3.590  2.3234 -2.0010  2.5234
  579MOL0     H78135   6.949   2.219   3.826 -0.6551  0.7555 -2.2254
  579MOL0     H78136   7.048   2.079   3.802 -0.3718 -1.8959 -0.1574
  579MOL0     H78137   6.857   1.927   3.877  1.5956 -0.4939 -0.3832
  579MOL0     H78138   6.752   2.054   3.907  1.2528 -0.3523 -2.6934
  579MOL0     H78139   7.033   2.025   4.025  0.5953  1.9015 -3.9515
  579MOL0     H78140   6.928   2.157   4.079  4.3969  0.5174 -1.8833
  579MOL0     H78141   6.864   1.851   4.106  0.1046 -0.9597  2.6889
  579MOL0     H78142   6.743   1.966   4.146  0.3743 -1.1849  1.7714
  579MOL0     H78143   6.989   1.891   4.299  0.2930  0.5207  1.9703
  579MOL0     H78144   6.960   2.051   4.315  0.8536 -2.4499  3.0482
  579MOL0     H78145   6.551   2.540   3.500  2.8957 -2.2688  0.0598
  579MOL0     H78146   6.419   2.634   3.274  0.6235 -1.2459  0.5174
  579MOL0     H78147   6.081   2.421   2.994 -2.4299 -1.1202 -2.2720
  579MOL0     H78148   5.901   2.459   2.816  0.9422 -2.8717 -1.6485
  579MOL0     H78149   4.381   3.031   2.820 -1.9989  1.6470  0.4022
  579MOL0     H78150   4.272   3.195   2.977  0.7096  0.0355 -0.4081
  579MOL0     H78151   4.143   3.357   3.341 -2.2181  2.8836 -1.5267
  579MOL0     H78152   4.040   3.481   3.515  0.4040 -1.2115  0.3788
  579MOL0     H78153   3.674   3.295   3.716 -0.1153  0.6196 -0.4011
  579MOL0     H78154   3.603   3.363   3.577 -4.0360 -1.0867  2.0712
  579MOL0     H78155   3.605   3.600   3.693  0.0115 -0.7139 -0.4821
  579MOL0     H78156   3.666   3.520   3.834  1.3256 -1.3681  0.0131
  579MOL0     H78157   3.490   3.403   3.880 -0.4410 -2.5084 -2.2242
  579MOL0     H78158   3.410   3.425   3.723  1.5404 -2.3058  0.1253
  579MOL0     H78159   3.389   3.669   3.780  0.5403  0.7065  0.0891
  579MOL0     H78160   3.284   3.559   3.866  0.6410 -2.2759 -2.8820
  579MOL0     H78161   3.583   3.671   4.155 -0.0316  0.5306 -0.7189
  579MOL0     H78162   3.707   3.201   3.493 -0.2866 -0.9473 -0.7121
  579MOL0     H78163   3.748   2.987   3.425 -1.3940 -1.5143 -1.5054
  579MOL0     H78164   3.800   2.997   3.258  1.5584 -0.8770 -0.5190
  579MOL0     H78165   3.912   2.938   3.386 -2.2183 -3.4608 -2.1937
  580MOL0     O78166   7.983   6.404   4.376  0.7636  0.5274  0.8528
  580MOL0     C78167   7.898   6.443   4.466 -0.6126  0.3120  0.4511
  580MOL0     O78168   7.923   6.431   4.602 -0.2348  0.9423  0.3732
  580MOL0     C78169   8.033   6.361   4.643 -0.4689 -1.1194 -0.2328
  580MOL0     C78170   8.140   6.421   4.703 -0.6330  0.1070  0.2509
  580MOL0     C78171   8.228   6.348   4.788 -0.3463  0.2927  1.2150
  580MOL0     C78172   8.234   6.209   4.776 -0.2555 -0.0600 -0.2228
  580MOL0     O78173   8.339   6.122   4.817  0.6162 -0.6396 -0.5556
  580MOL0     C78174   8.448   6.188   4.876 -0.6340  0.3509  0.8407
  580MOL0     C78175   8.565   6.084   4.864  0.8458  0.8711  0.6735
  580MOL0     C78176   8.665   6.107   4.980  0.3678  0.4676 -0.6134
  580MOL0     C78177   8.740   6.247   4.963 -0.0267  0.3059 -0.2234
  580MOL0     C78178   8.812   6.267   4.831  0.4726  1.0945  0.6828
  580MOL0     C78179   8.737   6.349   4.723  0.2740  0.1461 -0.1704
  580MOL0     C78180   8.829   6.424   4.621 -0.1559 -0.1284 -0.5632
  580MOL0     C78181   8.945   6.513   4.672  0.8486 -0.1473 -0.0851
  580MOL0     N78182   8.881   6.624   4.753  0.5088  0.4300 -0.6029
  580MOL0     C78183   8.814   6.731   4.694  0.5196 -0.5544 -0.2570
  580MOL0     C78184   8.740   6.785   4.793 -0.2768 -0.2125 -0.7980
  580MOL0     C78185   8.650   6.902   4.773 -0.3258  0.5193  0.3830
  580MOL0     C78186   8.547   6.872   4.672 -0.2070 -0.4448  0.3277
  580MOL0     C78187   8.443   6.992   4.660 -0.3668 -0.1824 -0.6535
  580MOL0     C78188   8.356   6.957   4.548  0.1072  0.5430  0.0072
  580MOL0     O78189   8.273   7.063   4.506  0.6031 -0.4865  0.1839
  580MOL0     C78190   8.316   7.155   4.419 -0.3067 -0.4159  0.0119
  580MOL0     C78191   8.222   7.237   4.366  0.4649  0.6481  0.3188
  580MOL0     C78192   8.241   7.333   4.272  0.0975 -0.1837 -0.3845
  580MOL0     C78193   8.365   7.357   4.219 -1.0687 -0.1338 -0.5355
  580MOL0     C78194   8.394   7.457   4.115  0.5334  0.0449 -0.3690
  580MOL0     O78195   8.305   7.478   4.016  0.6877  0.4938 -0.2179
  580MOL0     C78196   8.316   7.585   3.928  0.8890  0.1409 -0.1156
  580MOL0     C78197   8.410   7.582   3.822  0.9138  1.1238 -0.4308
  580MOL0     C78198   8.398   7.694   3.735  0.0645  0.0217  0.3315
  580MOL0     C78199   8.304   7.794   3.747  0.1271  0.7009 -0.1792
  580MOL0     O78200   8.305   7.886   3.643 -0.2185  0.2625 -0.0227
  580MOL0     C78201   8.180   7.953   3.634  0.2253 -0.6156 -1.1107
  580MOL0     C78202   8.154   8.006   3.492 -0.4289 -0.7205 -0.1432
  580MOL0     C78203   8.217   7.927   3.376 -1.1931 -0.1685  0.2981
  580MOL0     C78204   8.332   8.018   3.314  0.1040 -0.0442  0.4226
  580MOL0     C78205   8.424   7.951   3.215 -0.5515  0.6491  0.0768
  580MOL0     C78206   8.536   8.039   3.155 -0.2713  0.4349  0.5941
  580MOL0     C78207   8.659   7.965   3.116 -0.4707  0.2592  0.2372
  580MOL0     C78208   8.783   8.045   3.074  0.8714 -0.0727  0.0131
  580MOL0    Cl78209   8.911   7.939   3.127 -0.1305  0.1835  0.0903
  580MOL0     C78210   8.224   7.792   3.863  0.7214 -0.3289 -0.1130
  580MOL0     C78211   8.226   7.690   3.949 -0.0108  0.1397  0.4110
  580MOL0     O78212   8.496   7.521   4.138  0.5072  0.9190  0.5273
  580MOL0     C78213   8.472   7.279   4.281 -0.4262 -0.2466 -0.5777
  580MOL0     C78214   8.445   7.179   4.382  0.2991 -0.8160 -0.2485
  580MOL0     N78215   8.762   6.714   4.904  0.2376  0.4954 -0.0057
  580MOL0     N78216   8.843   6.616   4.881 -0.4646 -0.2382 -0.3644
  580MOL0     C78217   8.136   6.142   4.690 -0.5928 -0.3776  0.1793
  580MOL0     C78218   8.037   6.227   4.636  0.9366  0.6978  0.0472
  580MOL0     C78219   7.762   6.505   4.436 -0.2146  0.2356 -0.6742
  580MOL0     C78220   7.680   6.544   4.541  0.4983 -0.2013 -0.1648
  580MOL0     C78221   7.551   6.587   4.523  0.8040 -0.8446  0.3705
  580MOL0     C78222   7.494   6.616   4.398  0.4722 -0.0059  0.4918
  580MOL0     O78223   7.363   6.662   4.394  0.6646 -0.5852 -0.0896
  580MOL0     C78224   7.299   6.657   4.261  1.0536  0.5203  0.4905
  580MOL0     C78225   7.205   6.776   4.227 -0.3853 -0.5554 -0.6195
  580MOL0     C78226   7.178   6.793   4.074  0.2552 -0.1284 -0.8727
  580MOL0     C78227   7.079   6.910   4.052 -0.9368 -1.3832  0.0797
  580MOL0     C78228   6.944   6.904   4.101  0.4190  0.5217 -0.8233
  580MOL0     C78229   6.822   6.897   4.120  0.1878  0.3517  0.4440
  580MOL0     C78230   7.591   6.597   4.286  0.5984  0.1677 -0.1551
  580MOL0     C78231   7.709   6.520   4.299  0.4389 -0.8015  0.1836
  580MOL0     C78232   7.775   6.459   4.179  0.7436 -0.5074 -0.7098
  580MOL0     H78233   8.141   6.530   4.702  3.1261  0.2064 -0.9392
  580MOL0     H78234   8.306   6.398   4.845  1.0206  0.3013 -0.5381
  580MOL0     H78235   8.471   6.271   4.809 -0.3217 -0.4306 -0.0574
  580MOL0     H78236   8.434   6.220   4.979  0.0937 -1.9557  1.7220
  580MOL0     H78237   8.615   6.099   4.769  3.8189  1.3408  2.2096
  580MOL0     H78238   8.517   5.986   4.874  0.5558  0.9060 -0.3299
  580MOL0     H78239   8.745   6.033   4.973 -1.1353 -1.2775 -0.1495
  580MOL0     H78240   8.609   6.089   5.072  1.5044 -2.5462 -0.3931
  580MOL0     H78241   8.677   6.335   4.980 -1.3827 -0.6214 -0.2585
  580MOL0     H78242   8.816   6.239   5.041 -0.7536  1.9292  0.6981
  580MOL0     H78243   8.912   6.309   4.836  0.7267  0.9968 -2.0345
  580MOL0     H78244   8.834   6.172   4.781  0.9476  0.0662  2.7479
  580MOL0     H78245   8.670   6.292   4.658 -0.3098  2.6248 -1.8374
  580MOL0     H78246   8.677   6.423   4.777  1.2099  1.5912 -1.0376
  580MOL0     H78247   8.766   6.481   4.552  1.5614  1.5897 -0.7713
  580MOL0     H78248   8.870   6.349   4.553  0.3413  1.0727 -1.6146
  580MOL0     H78249   9.002   6.438   4.728 -2.7351 -1.9200  1.5234
  580MOL0     H78250   9.004   6.556   4.591  0.0857 -2.4149 -1.9468
  580MOL0     H78251   8.823   6.766   4.592 -2.3448  2.0759  0.2109
  580MOL0     H78252   8.596   6.933   4.863  0.2531 -0.7221  1.1734
  580MOL0     H78253   8.704   6.990   4.737 -1.4845  0.8597 -0.6425
  580MOL0     H78254   8.594   6.860   4.575 -1.3948  0.5202 -0.3956
  580MOL0     H78255   8.496   6.776   4.688  0.7736 -0.6202  2.9604
  580MOL0     H78256   8.495   7.085   4.635 -2.0875  1.9301  2.8465
  580MOL0     H78257   8.370   6.998   4.740 -1.7920 -0.8823 -1.8450
  580MOL0     H78258   8.301   6.871   4.586  0.7673  0.3010  0.4370
  580MOL0     H78259   8.413   6.927   4.461  0.8230  1.8381  0.0033
  580MOL0     H78260   8.126   7.216   4.412 -0.3546  1.3382 -1.0124
  580MOL0     H78261   8.151   7.391   4.251 -0.3785  0.4937  2.9920
  580MOL0     H78262   8.484   7.503   3.808 -0.6574 -0.9272  1.9126
  580MOL0     H78263   8.466   7.703   3.651 -0.8138  0.5534 -0.3535
  580MOL0     H78264   8.095   7.893   3.667  0.5680 -0.3497  0.3541
  580MOL0     H78265   8.190   8.040   3.700 -0.1962 -0.2758 -1.4968
  580MOL0     H78266   8.046   8.005   3.471 -0.1072  1.4124 -2.4477
  580MOL0     H78267   8.183   8.110   3.475  1.4329 -1.5761 -2.9455
  580MOL0     H78268   8.256   7.828   3.403  2.3087  1.2492  1.0159
  580MOL0     H78269   8.140   7.915   3.300 -1.2569 -0.8379  0.4581
  580MOL0     H78270   8.388   8.058   3.399  0.5598 -0.8784  0.5220
  580MOL0     H78271   8.291   8.099   3.254  2.2174  1.1849  0.5467
  580MOL0     H78272   8.375   7.924   3.121 -1.0797 -0.1025  0.5513
  580MOL0     H78273   8.467   7.859   3.257  2.3461  0.8094 -2.2318
  580MOL0     H78274   8.499   8.103   3.074  2.2024 -0.5366 -1.4078
  580MOL0     H78275   8.564   8.102   3.240  0.4737 -1.6136  1.9280
  580MOL0     H78276   8.644   7.897   3.032 -0.4027 -4.2460  3.5151
  580MOL0     H78277   8.687   7.890   3.191  1.8123 -0.6037 -1.3643
  580MOL0     H78278   8.793   8.063   2.967  3.5271 -0.5209  0.1149
  580MOL0     H78279   8.794   8.143   3.119  3.7890 -0.2821 -0.0742
  580MOL0     H78280   8.157   7.877   3.872  1.4125  0.0394  2.1372
  580MOL0     H78281   8.164   7.681   4.037  1.7908 -1.7865  1.5604
  580MOL0     H78282   8.569   7.298   4.236 -0.8033  2.4492 -0.4172
  580MOL0     H78283   8.530   7.132   4.431  0.5552 -0.4407 -0.3287
  580MOL0     H78284   8.122   6.035   4.678  2.5503 -0.6427 -2.6048
  580MOL0     H78285   7.942   6.191   4.600 -0.0686  1.1263  2.0984
  580MOL0     H78286   7.717   6.532   4.642  1.8070 -0.6607 -0.6789
  580MOL0     H78287   7.500   6.613   4.615  2.9102  2.7156  0.7537
  580MOL0     H78288   7.243   6.563   4.258  0.3082  0.9420 -2.1015
  580MOL0     H78289   7.359   6.657   4.170 -4.3586  0.2692 -3.6459
  580MOL0     H78290   7.252   6.864   4.272  1.1292 -1.1269 -1.0209
  580MOL0     H78291   7.111   6.763   4.283 -0.8546 -0.1732 -1.3041
  580MOL0     H78292   7.139   6.704   4.023  0.8376 -0.1388 -1.3070
  580MOL0     H78293   7.272   6.813   4.022  0.9194  0.5775  0.5663
  580MOL0     H78294   7.124   6.992   4.108 -1.2924 -1.6890  0.8336
  580MOL0     H78295   7.077   6.936   3.946  0.4654 -2.4778 -0.2462
  580MOL0     H78296   6.716   6.908   4.131  0.2371 -0.1052  1.5546
  580MOL0     H78297   7.558   6.610   4.183 -4.8143  1.8581  1.4695
  580MOL0     H78298   7.698   6.444   4.103 -1.9939  1.5151  1.4136
  580MOL0     H78299   7.848   6.528   4.137 -1.5182  0.6236 -3.1086
  580MOL0     H78300   7.822   6.364   4.206 -0.2963 -0.8946 -0.1890
  581MOL0     O78301   7.691  10.964   0.569 -0.6577  0.0407  0.0228
  581MOL0     C78302   7.756  10.911   0.660  0.2548  0.4638  1.3342
  581MOL0     O78303   7.715  10.788   0.724 -0.3710  0.8508 -0.1122
  581MOL0     C78304   7.614  10.724   0.668  0.3138  0.0875 -0.4614
  581MOL0     C78305   7.487  10.773   0.680 -0.2653  0.3056 -2.0212
  581MOL0     C78306   7.386  10.709   0.610 -0.5305 -0.4802  0.8158
  581MOL0     C78307   7.404  10.594   0.539 -0.3728 -0.4893  0.4297
  581MOL0     O78308   7.302  10.535   0.469  0.2823 -0.4384  0.3808
  581MOL0     C78309   7.299  10.529   0.322 -0.5623  0.1959 -0.0071
  581MOL0     C78310   7.227  10.655   0.260 -0.6515  0.0319  0.3166
  581MOL0     C78311   7.246  10.690   0.114 -0.2066  0.5524 -0.3250
  581MOL0     C78312   7.331  10.816   0.070 -0.1949  0.2262 -0.3996
  581MOL0     C78313   7.367  10.827  -0.083  0.6736  0.4502  0.8820
  581MOL0     C78314   7.468  10.939  -0.096  1.3668  0.8865  0.5024
  581MOL0     C78315   7.522  10.943  -0.238  0.4480 -0.3344 -0.4365
  581MOL0     C78316   7.555  11.097  -0.257 -0.9245 -0.2448  0.8173
  581MOL0     N78317   7.625  11.110  -0.391 -0.9901  0.4009  0.2087
  581MOL0     C78318   7.585  11.117  -0.522 -0.2153  0.4764 -0.6092
  581MOL0     C78319   7.699  11.129  -0.600 -0.9313 -0.5142  0.5537
  581MOL0     C78320   7.715  11.133  -0.746  0.1343 -0.3349  1.1105
  581MOL0     C78321   7.708  11.280  -0.779 -0.2706 -0.1642 -0.4348
  581MOL0     C78322   7.766  11.319  -0.920 -0.4495 -0.2393 -1.0897
  581MOL0     C78323   7.796  11.465  -0.946 -0.2896  0.3224 -0.5144
  581MOL0     O78324   7.848  11.485  -1.081 -0.7195 -0.2957  0.0667
  581MOL0     C78325   7.874  11.615  -1.124 -0.6605 -0.8086 -0.8608
  581MOL0     C78326   7.877  11.725  -1.038 -0.1962 -0.6928  0.2455
  581MOL0     C78327   7.933  11.856  -1.064 -0.4163 -0.9020  0.2849
  581MOL0     C78328   7.991  11.875  -1.190 -0.9750  0.1038  0.0346
  581MOL0     C78329   8.050  12.006  -1.224 -0.0000  0.8496 -1.3189
  581MOL0     O78330   8.091  12.013  -1.351  0.7301  0.4486  0.1077
  581MOL0     C78331   8.100  12.130  -1.417 -0.2616 -1.7371  0.8438
  581MOL0     C78332   8.192  12.133  -1.522 -0.2953 -0.4804 -0.0482
  581MOL0     C78333   8.220  12.250  -1.590  0.2941  0.4254 -0.4938
  581MOL0     C78334   8.161  12.369  -1.548  1.0303 -0.3395 -0.5801
  581MOL0     O78335   8.219  12.475  -1.605  0.5098 -0.4996 -0.2967
  581MOL0     C78336   8.186  12.609  -1.556 -0.6665  0.9531 -0.9428
  581MOL0     C78337   8.293  12.703  -1.609 -0.5799 -0.2668  0.3602
  581MOL0     C78338   8.246  12.849  -1.584 -0.2147 -0.6207  0.4703
  581MOL0     C78339   8.255  12.879  -1.433  0.4349  0.3896 -1.0920
  581MOL0     C78340   8.217  13.022  -1.404  1.0494 -0.2149  0.6454
  581MOL0     C78341   8.331  13.122  -1.428 -0.3413 -0.9607  0.1376
  581MOL0     C78342   8.448  13.108  -1.333 -0.0559  0.6436  0.3592
  581MOL0     C78343   8.535  13.240  -1.340  0.2233  0.2821 -0.5369
  581MOL0    Cl78344   8.603  13.265  -1.509 -0.5792 -0.6496 -0.3576
  581MOL0     C78345   8.054  12.374  -1.453 -1.2250  0.1274  0.0147
  581MOL0     C78346   8.024  12.249  -1.390  0.7608 -0.5333  0.9112
  581MOL0     O78347   8.065  12.092  -1.131  0.7083  0.8577  0.4165
  581MOL0     C78348   7.986  11.766  -1.280 -1.0006 -0.6566 -0.1467
  581MOL0     C78349   7.923  11.645  -1.242 -0.5297  0.7412  0.9494
  581MOL0     N78350   7.813  11.121  -0.512 -0.0288  0.4981 -0.1223
  581MOL0     N78351   7.756  11.104  -0.392 -0.3692 -1.5437  0.4309
  581MOL0     C78352   7.531  10.539   0.539  0.6233  0.4345 -0.0587
  581MOL0     C78353   7.642  10.618   0.590  0.0441 -0.7945 -0.1102
  581MOL0     C78354   7.889  10.973   0.695 -0.3872  0.3681  0.6870
  581MOL0     C78355   7.982  11.026   0.605  0.7863 -0.6273  0.2124
  581MOL0     C78356   8.102  11.079   0.650 -0.1211 -0.0413 -0.4293
  581MOL0     C78357   8.146  11.074   0.783  0.1734  1.0157  0.1488
  581MOL0     O78358   8.262  11.117   0.842  0.1225 -0.7498 -0.4721
  581MOL0     C78359   8.372  11.165   0.750 -0.0446 -0.0480  0.1573
  581MOL0     C78360   8.503  11.208   0.818 -0.1559 -0.5118 -0.5981
  581MOL0     C78361   8.487  11.349   0.901  0.3485  0.3832  0.4474
  581MOL0     C78362   8.607  11.422   0.963 -0.8766  0.1107 -0.2013
  581MOL0     C78363   8.632  11.371   1.107 -0.5884  0.1855 -0.5482
  581MOL0     C78364   8.632  11.326   1.223 -0.3672 -0.3379  0.6666
  581MOL0     C78365   8.060  11.012   0.873  0.1602  0.0248  0.8190
  581MOL0     C78366   7.937  10.958   0.828  0.0445  0.5451 -0.7696
  581MOL0     C78367   7.851  10.900   0.939  0.0926 -0.6473  0.3188
  581MOL0     H78368   7.446  10.858   0.733 -0.6435 -1.3759  0.5987
  581MOL0     H78369   7.283  10.737   0.631 -0.2740  1.7580 -0.5780
  581MOL0     H78370   7.404  10.532   0.293 -1.0536  2.1197 -1.8366
  581MOL0     H78371   7.260  10.433   0.287 -0.0644 -0.0258  0.0386
  581MOL0     H78372   7.264  10.740   0.318  3.1458 -0.2018 -1.4696
  581MOL0     H78373   7.120  10.640   0.276 -0.4838  0.0076  1.4531
  581MOL0     H78374   7.148  10.708   0.070 -0.0876  2.7812  0.2009
  581MOL0     H78375   7.274  10.595   0.067 -3.3135 -1.2782  1.1810
  581MOL0     H78376   7.277  10.910   0.087  2.4944  1.6676  0.8091
  581MOL0     H78377   7.422  10.828   0.130 -0.8438  1.0337  0.4522
  581MOL0     H78378   7.420  10.737  -0.116 -1.9768 -1.0260  0.4224
  581MOL0     H78379   7.275  10.840  -0.140  0.3145  0.7908  1.5296
  581MOL0     H78380   7.411  11.029  -0.072  1.4158  1.7328 -2.1528
  581MOL0     H78381   7.549  10.926  -0.023  0.5880 -0.6038  1.1376
  581MOL0     H78382   7.448  10.901  -0.307  0.6980  0.9638 -1.5291
  581MOL0     H78383   7.604  10.871  -0.237 -2.3782 -3.9131  1.7869
  581MOL0     H78384   7.462  11.154  -0.270  0.1230  0.8481 -3.5683
  581MOL0     H78385   7.608  11.151  -0.178  0.2521 -0.5712  0.2801
  581MOL0     H78386   7.483  11.125  -0.556 -0.0763  2.7562 -0.7015
  581MOL0     H78387   7.807  11.080  -0.774  0.6980  1.0400  0.2700
  581MOL0     H78388   7.630  11.092  -0.800 -0.7304  3.2586 -0.5413
  581MOL0     H78389   7.602  11.304  -0.773 -0.5697 -1.3730 -0.6415
  581MOL0     H78390   7.748  11.348  -0.703 -1.2203  0.6451 -0.6490
  581MOL0     H78391   7.684  11.301  -0.990  0.7074 -1.4404 -2.1790
  581MOL0     H78392   7.854  11.263  -0.952  1.0449  1.5320 -0.2842
  581MOL0     H78393   7.877  11.486  -0.874  0.3916  0.6739 -1.3667
  581MOL0     H78394   7.709  11.531  -0.942 -0.1013  1.1611 -5.1097
  581MOL0     H78395   7.852  11.717  -0.932  1.0135  1.7682  0.7906
  581MOL0     H78396   7.932  11.928  -0.983  1.4212 -0.7637  0.2115
  581MOL0     H78397   8.239  12.042  -1.557  0.9644 -0.6241  1.8947
  581MOL0     H78398   8.289  12.249  -1.674 -0.8358  2.9859 -1.5544
  581MOL0     H78399   8.082  12.632  -1.580 -0.8844  0.1742 -0.7961
  581MOL0     H78400   8.197  12.601  -1.447 -0.7906 -3.2433 -1.0744
  581MOL0     H78401   8.385  12.671  -1.559 -1.9435  0.0956  3.2432
  581MOL0     H78402   8.307  12.702  -1.718 -2.3994 -0.0943  0.0905
  581MOL0     H78403   8.306  12.915  -1.647  0.8716 -0.3078  1.7800
  581MOL0     H78404   8.142  12.871  -1.607 -0.1117  0.5849  1.0720
  581MOL0     H78405   8.357  12.861  -1.396  0.5373 -0.4614 -1.7413
  581MOL0     H78406   8.184  12.810  -1.386 -1.1328  0.6405 -2.9674
  581MOL0     H78407   8.185  13.028  -1.300  0.9757  2.7360  0.5453
  581MOL0     H78408   8.133  13.055  -1.466  0.9895 -0.7991  0.4064
  581MOL0     H78409   8.356  13.113  -1.534  0.5040  0.2236  0.2186
  581MOL0     H78410   8.291  13.224  -1.422  0.4799 -0.6737  1.0821
  581MOL0     H78411   8.527  13.036  -1.355  0.5644  1.1342  0.9457
  581MOL0     H78412   8.411  13.082  -1.233  1.2354  0.7684  0.8857
  581MOL0     H78413   8.477  13.329  -1.314 -1.2401 -0.1713 -2.0704
  581MOL0     H78414   8.620  13.232  -1.272  0.9029  1.1951 -1.2585
  581MOL0     H78415   8.001  12.466  -1.428 -2.2563 -0.7050  1.0236
  581MOL0     H78416   7.942  12.246  -1.319  0.9404  0.9276  1.2188
  581MOL0     H78417   8.014  11.782  -1.384  0.2306  0.1181  0.2790
  581MOL0     H78418   7.926  11.571  -1.322 -1.7820  2.6117 -0.9308
  581MOL0     H78419   7.547  10.451   0.477  0.1927  1.0645 -1.0876
  581MOL0     H78420   7.745  10.585   0.582  0.1000 -1.1645  1.7284
  581MOL0     H78421   7.954  11.022   0.500 -1.0136 -0.4616  0.6596
  581MOL0     H78422   8.165  11.133   0.580 -0.6431  0.0097 -0.8718
  581MOL0     H78423   8.341  11.254   0.692  2.0450 -0.2906 -1.4410
  581MOL0     H78424   8.400  11.087   0.678 -2.0379 -1.4118  0.7643
  581MOL0     H78425   8.582  11.214   0.743  1.0295  0.3484  0.6571
  581MOL0     H78426   8.532  11.135   0.894  0.8004 -0.3179 -0.7678
  581MOL0     H78427   8.415  11.332   0.982 -1.8033  0.7230 -1.2888
  581MOL0     H78428   8.440  11.417   0.829 -0.2070  0.9993  1.3657
  581MOL0     H78429   8.691  11.378   0.910 -1.3579 -3.7435  1.8511
  581MOL0     H78430   8.603  11.529   0.943  1.2438  0.4036  0.6736
  581MOL0     H78431   8.640  11.293   1.324 -0.4913 -1.7486  0.2502
  581MOL0     H78432   8.090  11.015   0.978 -0.8696  1.6055  1.1040
  581MOL0     H78433   7.862  10.793   0.959 -1.8679 -0.3666  3.8724
  581MOL0     H78434   7.871  10.960   1.029  1.7261  2.5073 -1.9605
  581MOL0     H78435   7.745  10.925   0.923  0.2886  1.1864  1.5439
  582MOL0     O78436   1.271   3.414   2.041  0.1771 -0.2172 -0.5675
  582MOL0     C78437   1.262   3.339   1.944 -0.1048 -0.0290  0.3716
  582MOL0     O78438   1.358   3.255   1.898  0.5067  0.0674  0.2419
  582MOL0     C78439   1.471   3.249   1.970 -0.7831 -0.7176  0.9024
  582MOL0     C78440   1.526   3.117   1.983  0.3125 -0.6057  0.3545
  582MOL0     C78441   1.658   3.102   2.022 -0.2259  0.0745 -0.6776
  582MOL0     C78442   1.726   3.202   2.094 -1.0613  0.1971  0.2505
  582MOL0     O78443   1.849   3.196   2.151 -0.4795  0.2639 -0.2991
  582MOL0     C78444   1.950   3.239   2.058  0.0608 -0.0118  0.1381
  582MOL0     C78445   2.088   3.237   2.132  0.6435 -0.2965 -0.3557
  582MOL0     C78446   2.121   3.375   2.189  0.2853 -0.7248  0.2519
  582MOL0     C78447   2.255   3.371   2.272  0.5132 -0.1478  0.2441
  582MOL0     C78448   2.264   3.479   2.372  0.8174 -0.5703 -0.0501
  582MOL0     C78449   2.162   3.491   2.489  0.3571  0.3603 -0.9634
  582MOL0     C78450   2.223   3.560   2.605 -0.2524  0.3161 -0.1126
  582MOL0     C78451   2.262   3.701   2.575  0.1390 -0.6520  0.5988
  582MOL0     N78452   2.302   3.772   2.698 -0.2290  0.6671  0.5634
  582MOL0     C78453   2.197   3.823   2.773 -0.8664  0.6767 -0.4254
  582MOL0     C78454   2.250   3.837   2.892 -0.6582 -0.2061  0.2734
  582MOL0     C78455   2.179   3.868   3.022 -0.1745  0.8499  0.3898
  582MOL0     C78456   2.020   3.905   3.009 -0.4138 -1.2095 -0.3233
  582MOL0     C78457   1.962   3.967   3.133 -0.2816 -1.4142  0.0029
  582MOL0     C78458   1.938   3.864   3.240  0.2403 -0.4525 -0.4226
  582MOL0     O78459   1.877   3.912   3.367 -0.1656  0.2940  0.2295
  582MOL0     C78460   1.879   3.819   3.481 -0.1553  0.9992  0.2573
  582MOL0     C78461   1.906   3.684   3.471  0.2292 -1.0750 -0.2786
  582MOL0     C78462   1.895   3.606   3.581  0.3096 -0.6185  0.1514
  582MOL0     C78463   1.842   3.649   3.704 -0.5301  0.7235 -0.2845
  582MOL0     C78464   1.839   3.545   3.819  0.6974 -0.3535 -0.4944
  582MOL0     O78465   1.847   3.410   3.794  0.6707  0.1850  0.0684
  582MOL0     C78466   1.896   3.318   3.886 -0.6411 -0.3468  0.0970
  582MOL0     C78467   1.874   3.312   4.022  0.0672  0.5777  0.4573
  582MOL0     C78468   1.943   3.215   4.094 -0.8113 -0.4554 -0.7344
  582MOL0     C78469   2.028   3.118   4.036 -0.3703 -0.5530 -0.0913
  582MOL0     O78470   2.078   3.031   4.132  0.7494  0.6104 -0.2511
  582MOL0     C78471   2.196   2.970   4.094 -0.7465 -0.0785  0.3900
  582MOL0     C78472   2.256   2.897   4.212  0.0748 -0.0206  0.2467
  582MOL0     C78473   2.164   2.782   4.248  0.6280 -0.1353 -0.2014
  582MOL0     C78474   2.215   2.696   4.369 -0.1289 -0.6016  0.0113
  582MOL0     C78475   2.204   2.747   4.511  0.0126 -0.0786 -0.2304
  582MOL0     C78476   2.072   2.812   4.539  0.3857 -0.4318  0.4605
  582MOL0     C78477   2.086   2.831   4.689  0.5201  0.5992 -0.3429
  582MOL0     C78478   1.988   2.742   4.772 -0.4980  0.1407  0.9406
  582MOL0    Cl78479   1.970   2.771   4.942  0.1802 -0.2144  0.1901
  582MOL0     C78480   2.060   3.126   3.900  0.1168 -0.3019  0.2432
  582MOL0     C78481   1.988   3.234   3.826  0.6354  0.5240  0.5826
  582MOL0     O78482   1.817   3.596   3.931  0.1859 -0.2452  0.2652
  582MOL0     C78483   1.795   3.784   3.705  0.5714 -0.5255 -0.8135
  582MOL0     C78484   1.823   3.869   3.595  0.2082 -0.5596  0.0527
  582MOL0     N78485   2.388   3.814   2.884 -0.7280 -0.2808  0.2117
  582MOL0     N78486   2.421   3.773   2.761  0.3534 -0.1932 -0.9101
  582MOL0     C78487   1.668   3.325   2.094 -0.0092 -0.0874 -0.3428
  582MOL0     C78488   1.544   3.351   2.031  0.2993 -0.1649  0.5757
  582MOL0     C78489   1.143   3.345   1.855 -0.2338  0.2097  0.3898
  582MOL0     C78490   1.067   3.461   1.868  0.4425 -0.4873 -0.1350
  582MOL0     C78491   0.942   3.472   1.810  0.0343  0.8164  0.3866
  582MOL0     C78492   0.887   3.365   1.730  0.5730  0.4255  0.3134
  582MOL0     O78493   0.763   3.394   1.657  0.1261 -0.3398  0.0284
  582MOL0     C78494   0.688   3.286   1.617 -0.1822  0.1373  0.1299
  582MOL0     C78495   0.693   3.252   1.463 -0.3274  0.6503 -0.7229
  582MOL0     C78496   0.766   3.359   1.366  0.9110  0.4028 -0.7043
  582MOL0     C78497   0.656   3.458   1.312 -0.3312  0.3727 -0.2121
  582MOL0     C78498   0.553   3.384   1.233 -0.6687  0.0026 -1.4411
  582MOL0     C78499   0.470   3.335   1.155  0.5063 -0.8401 -0.3777
  582MOL0     C78500   0.964   3.252   1.702 -0.2411 -0.4146  0.0088
  582MOL0     C78501   1.088   3.244   1.763 -0.5917 -0.5110 -0.2790
  582MOL0     C78502   1.144   3.105   1.740  0.6193 -0.1301 -0.8755
  582MOL0     H78503   1.462   3.035   1.950 -0.3194 -0.2152  0.5846
  582MOL0     H78504   1.702   3.004   2.009  1.1683  0.9985 -3.8085
  582MOL0     H78505   1.966   3.172   1.973  1.7696  1.6075 -0.9037
  582MOL0     H78506   1.924   3.336   2.013 -0.2068 -2.4490 -5.8670
  582MOL0     H78507   2.169   3.212   2.063  1.5190  2.5218 -0.4433
  582MOL0     H78508   2.091   3.174   2.222 -2.9159 -2.0031 -1.2456
  582MOL0     H78509   2.040   3.415   2.251  1.2299  0.6469  0.6530
  582MOL0     H78510   2.122   3.442   2.102 -2.8128 -0.9838 -0.0911
  582MOL0     H78511   2.249   3.291   2.346  0.1661 -0.2218  0.1392
  582MOL0     H78512   2.344   3.369   2.208 -0.6143 -0.3959 -1.3762
  582MOL0     H78513   2.359   3.467   2.424  0.4314  0.7895  1.0377
  582MOL0     H78514   2.264   3.578   2.325 -0.9183 -0.6314 -0.2381
  582MOL0     H78515   2.066   3.526   2.449 -0.3579  1.3229  1.3880
  582MOL0     H78516   2.130   3.397   2.535  1.3720  0.1240 -0.7188
  582MOL0     H78517   2.312   3.514   2.649 -0.0648  2.7107  2.2800
  582MOL0     H78518   2.147   3.557   2.684 -2.5356 -0.3256 -2.1921
  582MOL0     H78519   2.337   3.687   2.497  0.4791 -1.6973  1.0886
  582MOL0     H78520   2.181   3.760   2.531  0.4673  1.8774  3.1343
  582MOL0     H78521   2.092   3.820   2.747 -0.9836  2.4962 -0.2927
  582MOL0     H78522   2.185   3.779   3.084  0.5763  1.4393  1.1866
  582MOL0     H78523   2.226   3.956   3.066  0.6004  0.1823  0.9180
  582MOL0     H78524   2.012   3.974   2.924 -0.2897  0.5207  1.0005
  582MOL0     H78525   1.960   3.814   3.001 -2.2510 -0.4373  2.7587
  582MOL0     H78526   1.861   4.005   3.113  0.3925  0.6123  0.2105
  582MOL0     H78527   2.028   4.047   3.167  1.0045 -1.0463 -3.0082
  582MOL0     H78528   2.034   3.818   3.265  0.3372  0.2611  0.6093
  582MOL0     H78529   1.881   3.783   3.194  0.2573 -1.3476  1.0657
  582MOL0     H78530   1.953   3.636   3.385 -0.4486 -0.2308 -1.1438
  582MOL0     H78531   1.928   3.503   3.570  2.1319  0.0943 -1.7502
  582MOL0     H78532   1.807   3.387   4.065  0.1906  0.5696  0.6640
  582MOL0     H78533   1.928   3.213   4.201  0.0286 -0.0745 -0.6029
  582MOL0     H78534   2.178   2.901   4.011  3.7724 -0.6392 -0.4337
  582MOL0     H78535   2.268   3.046   4.061 -2.1217  0.4850 -1.4157
  582MOL0     H78536   2.352   2.857   4.177 -1.0873 -0.3950 -2.8123
  582MOL0     H78537   2.268   2.967   4.295 -1.4085 -1.3572  1.6860
  582MOL0     H78538   2.064   2.819   4.274  0.5506  0.8308 -1.7699
  582MOL0     H78539   2.150   2.718   4.161  0.9833 -1.2784  0.5534
  582MOL0     H78540   2.315   2.653   4.356  1.4974  3.2300 -1.7767
  582MOL0     H78541   2.151   2.607   4.368 -0.7355 -0.1791  0.3651
  582MOL0     H78542   2.279   2.824   4.529  0.2406 -0.6527  1.4608
  582MOL0     H78543   2.222   2.662   4.578 -0.1426  3.4017  4.8229
  582MOL0     H78544   2.050   2.909   4.494 -3.7269 -1.9189 -1.2112
  582MOL0     H78545   1.985   2.752   4.510  0.7212 -1.1233  0.8738
  582MOL0     H78546   2.054   2.935   4.705 -1.2666  0.3370 -1.8565
  582MOL0     H78547   2.181   2.818   4.741  0.8026  0.7427 -0.8171
  582MOL0     H78548   1.890   2.744   4.723 -0.1014 -2.9735 -0.2096
  582MOL0     H78549   2.006   2.635   4.755 -0.5259  0.2133  0.4203
  582MOL0     H78550   2.129   3.063   3.845  0.7996  0.0528  0.6847
  582MOL0     H78551   2.009   3.246   3.720  3.8802 -0.0793  1.0582
  582MOL0     H78552   1.738   3.832   3.784  2.2274  0.2867 -0.0690
  582MOL0     H78553   1.817   3.978   3.596 -2.8273 -0.6417  2.0097
  582MOL0     H78554   1.720   3.397   2.157  1.2624 -1.3864  0.1517
  582MOL0     H78555   1.522   3.456   2.018  1.2441 -0.2198 -2.1503
  582MOL0     H78556   1.077   3.533   1.949 -6.6682 -0.9799  1.9113
  582MOL0     H78557   0.875   3.557   1.814 -1.2816  0.0366 -2.3589
  582MOL0     H78558   0.587   3.320   1.644  0.5257  1.5667  1.0545
  582MOL0     H78559   0.709   3.201   1.683  1.1510 -0.3198 -0.8415
  582MOL0     H78560   0.594   3.223   1.426 -1.9728  5.3425 -0.7152
  582MOL0     H78561   0.750   3.160   1.452 -0.2201  0.7343 -0.8709
  582MOL0     H78562   0.812   3.305   1.282  2.6386  0.9896 -0.1741
  582MOL0     H78563   0.834   3.430   1.414 -1.7173  2.8974 -0.4299
  582MOL0     H78564   0.607   3.509   1.395 -1.2188 -0.0201 -0.4853
  582MOL0     H78565   0.705   3.531   1.248 -1.2432  1.1622 -0.0344
  582MOL0     H78566   0.411   3.282   1.084 -2.3760  0.6549  0.7391
  582MOL0     H78567   0.915   3.165   1.659 -2.3494  0.5099  0.4049
  582MOL0     H78568   1.225   3.083   1.810 -0.8275  0.7967  1.1536
  582MOL0     H78569   1.068   3.027   1.728  2.1780 -1.4704 -2.7493
  582MOL0     H78570   1.180   3.102   1.636  1.5547  0.1965 -0.5639
  583MOL0     O78571   5.500   8.486   6.116  0.0358  0.2135 -0.5208
  583MOL0     C78572   5.449   8.550   6.032 -0.4053 -0.2156  1.1939
  583MOL0     O78573   5.329   8.612   6.040  0.6834 -0.0014  0.0180
  583MOL0     C78574   5.271   8.616   6.166 -0.6366 -0.1594 -1.2493
  583MOL0     C78575   5.138   8.625   6.178  0.3775  0.8510  0.1719
  583MOL0     C78576   5.068   8.625   6.302 -0.5065 -0.6932 -0.6861
  583MOL0     C78577   5.145   8.632   6.417  0.1548 -0.6427 -0.6785
  583MOL0     O78578   5.067   8.635   6.529  0.2187  0.2120 -0.6840
  583MOL0     C78579   5.130   8.661   6.656 -0.4356 -0.2676  0.3350
  583MOL0     C78580   5.199   8.542   6.707 -0.4660  0.6965 -0.3527
  583MOL0     C78581   5.272   8.558   6.833  0.0077 -0.0211  0.2796
  583MOL0     C78582   5.412   8.629   6.811 -1.2920  0.5640 -0.4824
  583MOL0     C78583   5.496   8.646   6.931  0.1354  0.3281  0.2116
  583MOL0     C78584   5.527   8.538   7.034  0.2114  0.2032 -0.3971
  583MOL0     C78585   5.597   8.422   6.958  0.2468 -0.6803  0.5530
  583MOL0     C78586   5.626   8.296   7.032 -0.6954 -0.0561  0.2352
  583MOL0     N78587   5.534   8.273   7.144 -0.2364  0.9824 -0.0687
  583MOL0     C78588   5.552   8.315   7.279 -0.3242  0.4074 -0.7259
  583MOL0     C78589   5.446   8.265   7.348 -0.4517 -0.1584  0.3053
  583MOL0     C78590   5.395   8.307   7.479 -0.2979 -0.0141 -0.2352
  583MOL0     C78591   5.375   8.464   7.491  0.5955 -0.4320  0.3097
  583MOL0     C78592   5.505   8.531   7.524 -0.0758 -0.5518  0.5681
  583MOL0     C78593   5.495   8.683   7.559 -0.0327 -0.9452  0.8181
  583MOL0     O78594   5.619   8.753   7.547  0.5381  1.0125 -0.3688
  583MOL0     C78595   5.639   8.840   7.446  0.4495  0.1002  0.7249
  583MOL0     C78596   5.617   8.981   7.458 -0.4634 -0.7397  0.3783
  583MOL0     C78597   5.634   9.065   7.350 -0.2234  0.2416 -0.9463
  583MOL0     C78598   5.661   9.018   7.219  0.1929  0.5525  0.3268
  583MOL0     C78599   5.682   9.119   7.113  0.5271 -0.3435  1.0332
  583MOL0     O78600   5.604   9.237   7.126 -0.0535  0.5798 -0.2087
  583MOL0     C78601   5.606   9.326   7.029  0.7481 -1.4596  0.1671
  583MOL0     C78602   5.636   9.460   7.063  0.4258  1.0110  0.7066
  583MOL0     C78603   5.645   9.560   6.963 -0.1988 -0.1672  0.4274
  583MOL0     C78604   5.599   9.529   6.836 -0.2736  0.2585  1.4908
  583MOL0     O78605   5.605   9.629   6.738  0.0124 -0.0861  0.7080
  583MOL0     C78606   5.524   9.628   6.625 -0.4272 -0.4733  0.3094
  583MOL0     C78607   5.589   9.603   6.494  0.1438  0.1014  0.5955
  583MOL0     C78608   5.500   9.632   6.367  0.2937 -0.2215  0.2403
  583MOL0     C78609   5.449   9.510   6.288  0.5096 -0.7626 -0.7953
  583MOL0     C78610   5.356   9.538   6.164 -0.3747 -0.1795 -0.2525
  583MOL0     C78611   5.435   9.581   6.037  1.0219 -0.3432 -0.1101
  583MOL0     C78612   5.354   9.666   5.932 -0.0924 -0.0030 -0.5259
  583MOL0     C78613   5.366   9.588   5.798  0.8067 -0.4608 -0.1849
  583MOL0    Cl78614   5.314   9.705   5.677 -0.1706  0.5565 -0.7568
  583MOL0     C78615   5.563   9.394   6.800  0.4282  0.0415  0.3331
  583MOL0     C78616   5.567   9.296   6.896  0.2586  0.3918  0.2435
  583MOL0     O78617   5.752   9.086   7.017  0.3473 -0.3372 -0.2236
  583MOL0     C78618   5.681   8.874   7.209 -0.0639 -0.9497 -0.0791
  583MOL0     C78619   5.660   8.790   7.319  0.5337 -0.8386  0.1022
  583MOL0     N78620   5.362   8.202   7.253 -1.0979 -0.4927 -0.1354
  583MOL0     N78621   5.411   8.205   7.136  0.4723  0.0505 -0.0336
  583MOL0     C78622   5.283   8.646   6.415 -0.3712  0.4271  0.2760
  583MOL0     C78623   5.344   8.643   6.290  0.8156  0.0658  0.8006
  583MOL0     C78624   5.524   8.578   5.909 -0.1854  0.6456  0.1399
  583MOL0     C78625   5.454   8.605   5.792 -0.3709  0.2176  0.3808
  583MOL0     C78626   5.525   8.619   5.667  0.4119 -0.2555  0.1259
  583MOL0     C78627   5.666   8.588   5.663 -0.0961  0.8940 -0.2625
  583MOL0     O78628   5.741   8.585   5.546  0.2315  0.2259 -0.7321
  583MOL0     C78629   5.678   8.580   5.417 -0.1691 -0.3421 -0.2694
  583MOL0     C78630   5.768   8.505   5.320 -0.4356 -0.1190  0.0616
  583MOL0     C78631   5.902   8.563   5.278 -0.1958  0.4595 -1.4821
  583MOL0     C78632   5.983   8.488   5.176 -0.0766 -0.8898  0.2943
  583MOL0     C78633   5.934   8.532   5.043 -0.1426  0.6565 -0.1933
  583MOL0     C78634   5.881   8.583   4.943 -0.0597  0.5249  0.7612
  583MOL0     C78635   5.729   8.539   5.778 -0.8372 -0.2549  0.4940
  583MOL0     C78636   5.663   8.547   5.906 -0.7411 -0.6841  0.0305
  583MOL0     C78637   5.756   8.543   6.020  0.5768 -0.2120 -0.2583
  583MOL0     H78638   5.068   8.619   6.095 -2.3078 -3.2055  2.3599
  583MOL0     H78639   4.962   8.633   6.324 -0.9503  4.7701 -3.2751
  583MOL0     H78640   5.207   8.737   6.639  1.1250 -1.7297  0.5590
  583MOL0     H78641   5.055   8.698   6.726 -2.0934 -0.4441 -1.2893
  583MOL0     H78642   5.261   8.497   6.629 -1.9228 -0.6897 -0.7658
  583MOL0     H78643   5.124   8.465   6.728  0.3418  0.3884  1.6691
  583MOL0     H78644   5.296   8.467   6.889  5.4594  1.1336  0.3988
  583MOL0     H78645   5.205   8.618   6.895 -0.4412  0.7986 -0.9448
  583MOL0     H78646   5.475   8.587   6.731 -0.5241  1.8579 -0.5837
  583MOL0     H78647   5.392   8.733   6.783 -0.0384  1.0879  0.4871
  583MOL0     H78648   5.584   8.711   6.923 -1.7415  2.8370 -1.7449
  583MOL0     H78649   5.437   8.716   6.991  0.2841  2.3870 -1.8996
  583MOL0     H78650   5.602   8.563   7.109 -1.4045  0.3739  1.2179
  583MOL0     H78651   5.438   8.512   7.092  0.9169 -3.1954 -0.6464
  583MOL0     H78652   5.691   8.465   6.923 -1.4957  0.7044 -2.9681
  583MOL0     H78653   5.536   8.396   6.871  0.9960  0.7504 -0.4459
  583MOL0     H78654   5.608   8.207   6.970 -0.1829 -0.5758  0.8162
  583MOL0     H78655   5.724   8.294   7.079 -0.9438  1.1685  0.8527
  583MOL0     H78656   5.639   8.369   7.316  1.8836 -1.2189 -3.2110
  583MOL0     H78657   5.297   8.262   7.498 -1.1192  2.1066  0.9079
  583MOL0     H78658   5.465   8.281   7.559 -0.2401  6.0108  2.2379
  583MOL0     H78659   5.326   8.498   7.399  3.2831  0.5682 -0.8338
  583MOL0     H78660   5.306   8.478   7.574 -0.9244 -0.3506 -0.9100
  583MOL0     H78661   5.564   8.515   7.433  2.1514 -0.7584  1.9930
  583MOL0     H78662   5.562   8.478   7.601 -2.0841 -0.4943  2.1723
  583MOL0     H78663   5.446   8.688   7.656  0.2937 -1.2604  1.0012
  583MOL0     H78664   5.421   8.738   7.501 -0.0436 -1.6762  0.1192
  583MOL0     H78665   5.613   9.012   7.562 -0.5519 -2.5466  0.9512
  583MOL0     H78666   5.639   9.172   7.371  2.1753  0.5074 -2.4481
  583MOL0     H78667   5.662   9.470   7.168 -1.5865  0.9635  1.2488
  583MOL0     H78668   5.682   9.661   6.973  3.1470 -0.7900 -3.0962
  583MOL0     H78669   5.437   9.564   6.640  2.0011 -3.7713  1.6486
  583MOL0     H78670   5.480   9.725   6.600 -1.0987 -1.7351 -4.4103
  583MOL0     H78671   5.673   9.669   6.471  1.1570 -1.5940 -0.7776
  583MOL0     H78672   5.632   9.502   6.489  0.8562  0.4063  0.4152
  583MOL0     H78673   5.413   9.696   6.388  1.1799  1.0671  0.1113
  583MOL0     H78674   5.556   9.701   6.303  0.1434  2.4712  2.7906
  583MOL0     H78675   5.385   9.459   6.361  1.0413  0.9523  0.9363
  583MOL0     H78676   5.538   9.454   6.259  0.4012 -2.1322  1.2883
  583MOL0     H78677   5.286   9.614   6.198 -0.0092  1.1090 -2.2202
  583MOL0     H78678   5.299   9.449   6.137  0.0390 -0.6291  0.3392
  583MOL0     H78679   5.527   9.632   6.069  0.6128 -2.2230  4.9748
  583MOL0     H78680   5.469   9.493   5.982 -1.6942 -2.0420  0.7609
  583MOL0     H78681   5.399   9.764   5.914  2.8074 -1.1693 -0.2198
  583MOL0     H78682   5.247   9.675   5.953  0.1931  4.6117 -0.0428
  583MOL0     H78683   5.471   9.559   5.783  0.9669 -0.4833  0.9141
  583MOL0     H78684   5.311   9.494   5.795  1.4532 -0.8277 -1.9107
  583MOL0     H78685   5.541   9.355   6.701 -0.0802 -2.3969  1.3304
  583MOL0     H78686   5.553   9.195   6.861  2.1301 -0.6244  2.2118
  583MOL0     H78687   5.696   8.828   7.112 -2.0211  0.2405 -1.0309
  583MOL0     H78688   5.668   8.684   7.297 -0.1185 -1.5442  2.9068
  583MOL0     H78689   5.341   8.657   6.506  0.0336  0.1344  0.0549
  583MOL0     H78690   5.449   8.668   6.275  0.3892  1.2984 -0.3016
  583MOL0     H78691   5.349   8.630   5.791 -0.4825 -0.0322 -2.5652
  583MOL0     H78692   5.468   8.650   5.580  1.5387  5.0669  0.9180
  583MOL0     H78693   5.672   8.680   5.373  3.1346 -0.6781 -1.8040
  583MOL0     H78694   5.583   8.527   5.427 -1.3209  1.4648 -1.0837
  583MOL0     H78695   5.720   8.489   5.223 -2.1344  3.4926  0.1218
  583MOL0     H78696   5.799   8.410   5.363  1.2117  0.1306 -0.4807
  583MOL0     H78697   5.956   8.554   5.372 -1.1150 -1.7030 -1.1035
  583MOL0     H78698   5.884   8.664   5.239  0.2970 -0.0453 -3.0877
  583MOL0     H78699   6.088   8.518   5.182  0.0674 -1.4038  0.4027
  583MOL0     H78700   5.973   8.380   5.189  0.2267 -0.6515  3.2381
  583MOL0     H78701   5.835   8.628   4.857 -3.7199  3.5546  3.8815
  583MOL0     H78702   5.831   8.501   5.785 -0.7852  0.1755  2.5961
  583MOL0     H78703   5.859   8.544   5.981  0.2574  3.7349 -1.4654
  583MOL0     H78704   5.748   8.626   6.090  2.8341 -1.0332  1.1021
  583MOL0     H78705   5.743   8.455   6.084 -0.5364 -0.8955 -1.3602
  584MOL0     O78706   2.136   0.397   4.197  0.0313 -0.6245 -0.6347
  584MOL0     C78707   2.167   0.512   4.239 -0.0201  0.2604  0.1816
  584MOL0     O78708   2.147   0.557   4.363 -0.2030 -0.3915  0.2209
  584MOL0     C78709   2.099   0.468   4.465 -0.2226 -0.0367  0.7585
  584MOL0     C78710   2.162   0.347   4.487 -0.7330  1.6259 -0.4548
  584MOL0     C78711   2.116   0.276   4.602  0.2667 -0.2449 -0.3747
  584MOL0     C78712   2.005   0.311   4.682 -0.3977  0.7581 -0.2631
  584MOL0     O78713   1.960   0.236   4.782  0.0364  0.6159 -0.5370
  584MOL0     C78714   1.934   0.099   4.742 -0.5732 -0.3042  0.0144
  584MOL0     C78715   1.832   0.042   4.840  0.1798  0.5665  0.2940
  584MOL0     C78716   1.742  -0.037   4.742 -0.0451  0.7168  0.2297
  584MOL0     C78717   1.627  -0.127   4.794 -0.4784 -0.2350  1.0394
  584MOL0     C78718   1.558  -0.226   4.697 -0.7294 -0.0321  0.1841
  584MOL0     C78719   1.486  -0.197   4.563 -0.7403 -0.7878 -0.4625
  584MOL0     C78720   1.393  -0.066   4.570  0.1221 -1.1128  0.3808
  584MOL0     C78721   1.375  -0.002   4.431  0.5555 -0.0829  0.2789
  584MOL0     N78722   1.273   0.103   4.432 -0.1118 -0.2427  0.3544
  584MOL0     C78723   1.281   0.226   4.501 -0.3274  0.1000  1.0712
  584MOL0     C78724   1.191   0.307   4.436  0.0528  0.5401  1.3183
  584MOL0     C78725   1.146   0.448   4.478 -0.1462 -0.5399  0.2444
  584MOL0     C78726   1.168   0.556   4.376  0.3482  0.4181  0.4829
  584MOL0     C78727   1.302   0.592   4.340 -0.1225 -0.3568  0.1387
  584MOL0     C78728   1.298   0.729   4.270 -0.2736 -0.8600  0.4249
  584MOL0     O78729   1.437   0.758   4.246 -0.0257 -0.4965  0.4693
  584MOL0     C78730   1.463   0.879   4.183 -0.4862 -0.0640 -0.2152
  584MOL0     C78731   1.376   0.969   4.109  0.8650  0.2778  0.0816
  584MOL0     C78732   1.428   1.074   4.043 -0.8696 -0.2044 -0.6324
  584MOL0     C78733   1.567   1.099   4.048 -0.8170  0.3866 -0.3182
  584MOL0     C78734   1.631   1.204   3.970  0.3844 -0.4447 -0.4431
  584MOL0     O78735   1.544   1.293   3.919  0.3687 -0.4598 -0.1721
  584MOL0     C78736   1.574   1.416   3.862  0.2358  0.7732  0.0726
  584MOL0     C78737   1.469   1.465   3.782  0.5016  0.1883  0.0361
  584MOL0     C78738   1.488   1.582   3.714  0.2974 -0.3444  0.8513
  584MOL0     C78739   1.615   1.643   3.709  0.2658 -0.2733  0.8046
  584MOL0     O78740   1.627   1.758   3.631 -0.5534 -0.7882  0.2306
  584MOL0     C78741   1.611   1.878   3.707 -1.0481 -0.4420  0.6757
  584MOL0     C78742   1.554   1.985   3.607  0.1387  1.1541 -0.3975
  584MOL0     C78743   1.577   2.128   3.675 -0.4268  0.4342 -0.3216
  584MOL0     C78744   1.469   2.235   3.628  0.4692  0.6542  0.1786
  584MOL0     C78745   1.512   2.377   3.662 -0.3283  0.1507  0.3023
  584MOL0     C78746   1.413   2.482   3.616  0.4740  0.0597  0.0244
  584MOL0     C78747   1.291   2.492   3.706  0.7164  0.4225 -1.0259
  584MOL0     C78748   1.186   2.588   3.640 -0.3158 -0.3592 -0.2199
  584MOL0    Cl78749   1.138   2.545   3.471  0.6405  0.1501  0.0861
  584MOL0     C78750   1.727   1.583   3.770  0.3869  0.0951 -0.0142
  584MOL0     C78751   1.702   1.478   3.853  0.5148  0.1357  0.0886
  584MOL0     O78752   1.748   1.204   3.948 -0.5872  0.6543  0.0014
  584MOL0     C78753   1.651   1.013   4.124  0.1879 -0.3950 -0.6831
  584MOL0     C78754   1.595   0.906   4.191  0.1544 -0.1507  0.2451
  584MOL0     N78755   1.130   0.233   4.336 -0.2004  0.9196  0.3165
  584MOL0     N78756   1.183   0.121   4.336 -0.8710 -0.2971  0.7400
  584MOL0     C78757   1.945   0.434   4.651 -0.9858  0.1241 -1.2688
  584MOL0     C78758   2.001   0.518   4.560  1.0458  0.0482  0.1050
  584MOL0     C78759   2.221   0.614   4.143 -0.1926 -0.5904 -0.0288
  584MOL0     C78760   2.173   0.748   4.159  0.7469 -0.1664 -0.0012
  584MOL0     C78761   2.229   0.854   4.096  0.7608  0.2962  0.0196
  584MOL0     C78762   2.325   0.839   4.003 -0.6623  0.2986  0.6308
  584MOL0     O78763   2.374   0.954   3.950  1.0958  0.0050 -1.0537
  584MOL0     C78764   2.356   0.967   3.814  0.2293 -0.0507 -0.4845
  584MOL0     C78765   2.387   1.101   3.753  0.1807  0.1191 -0.5844
  584MOL0     C78766   2.537   1.112   3.734  0.1348  0.1789 -0.0975
  584MOL0     C78767   2.580   1.248   3.680 -0.6605  0.8782  0.1936
  584MOL0     C78768   2.598   1.247   3.534 -0.0197  0.0654  0.5436
  584MOL0     C78769   2.617   1.267   3.417 -0.2402 -0.6424  0.3036
  584MOL0     C78770   2.371   0.710   3.977  0.1884  0.6395 -0.1704
  584MOL0     C78771   2.319   0.591   4.048 -0.5350 -0.4867  0.9069
  584MOL0     C78772   2.376   0.449   4.035 -0.5683 -0.1905  0.1677
  584MOL0     H78773   2.232   0.315   4.411  0.6462 -1.3258  1.8617
  584MOL0     H78774   2.180   0.190   4.619  1.1696  0.4807 -0.0058
  584MOL0     H78775   1.903   0.103   4.637 -1.9289 -0.7158  0.3899
  584MOL0     H78776   2.022   0.033   4.738 -0.7993 -0.5732 -0.7238
  584MOL0     H78777   1.768   0.112   4.893 -1.2974 -0.5469  0.0263
  584MOL0     H78778   1.874  -0.032   4.909 -2.4608 -0.6329  0.7168
  584MOL0     H78779   1.804  -0.106   4.684  2.0595  2.5384  0.1750
  584MOL0     H78780   1.709   0.031   4.663 -0.2225 -1.7215 -1.9337
  584MOL0     H78781   1.669  -0.189   4.873  3.5570  0.0597 -0.6269
  584MOL0     H78782   1.545  -0.069   4.838  0.5227  1.4309  0.7920
  584MOL0     H78783   1.638  -0.293   4.665 -0.1516  0.2120  1.0916
  584MOL0     H78784   1.487  -0.280   4.761 -1.0434 -0.7224 -0.7212
  584MOL0     H78785   1.571  -0.179   4.496  1.3271  0.1968  2.1975
  584MOL0     H78786   1.420  -0.282   4.545  0.2176 -1.2117 -2.2031
  584MOL0     H78787   1.453   0.008   4.623 -2.8208  1.1600  0.7637
  584MOL0     H78788   1.307  -0.087   4.633  0.2318  1.0169  1.3069
  584MOL0     H78789   1.463   0.050   4.393  1.7868 -3.9244 -2.7349
  584MOL0     H78790   1.337  -0.075   4.359 -1.9735  2.8959 -1.6729
  584MOL0     H78791   1.345   0.246   4.586  1.6463  0.4920 -0.4287
  584MOL0     H78792   1.042   0.434   4.508  0.3048 -1.6064  1.3679
  584MOL0     H78793   1.213   0.470   4.561 -0.7588  0.3232  0.5259
  584MOL0     H78794   1.114   0.542   4.282 -0.8534 -2.9216  1.5122
  584MOL0     H78795   1.130   0.642   4.433 -0.2161  0.5645 -0.0970
  584MOL0     H78796   1.356   0.523   4.274 -1.1147  0.9223 -2.1276
  584MOL0     H78797   1.354   0.585   4.436 -0.9581  0.4473  0.6669
  584MOL0     H78798   1.249   0.796   4.340  0.5989 -1.7783  1.9671
  584MOL0     H78799   1.245   0.716   4.175 -0.4081 -0.7700  0.4878
  584MOL0     H78800   1.268   0.963   4.108  0.6521  2.7060 -2.4214
  584MOL0     H78801   1.365   1.141   3.984 -0.7113  1.5893  1.1438
  584MOL0     H78802   1.381   1.403   3.769  0.8133 -0.7182  1.9811
  584MOL0     H78803   1.415   1.626   3.646 -1.7619 -1.7534  2.0497
  584MOL0     H78804   1.538   1.853   3.785 -1.8003 -3.6787 -0.9000
  584MOL0     H78805   1.706   1.910   3.749 -1.0702 -1.5226  1.6045
  584MOL0     H78806   1.611   1.977   3.514 -0.9419 -2.4639 -0.8702
  584MOL0     H78807   1.448   1.972   3.584  0.1480  0.2822  0.0167
  584MOL0     H78808   1.576   2.135   3.784  0.9721  0.0450 -0.2726
  584MOL0     H78809   1.683   2.150   3.659 -0.2136  0.6751  1.2790
  584MOL0     H78810   1.378   2.215   3.685  0.5499  1.6888  0.6906
  584MOL0     H78811   1.443   2.242   3.521 -1.0314  1.6350  0.5758
  584MOL0     H78812   1.607   2.396   3.611  0.1754 -1.9018  0.3685
  584MOL0     H78813   1.527   2.401   3.768 -3.8853 -1.0748  1.2440
  584MOL0     H78814   1.458   2.582   3.617 -0.0810  0.3964  3.3044
  584MOL0     H78815   1.387   2.457   3.513 -1.0909 -1.8671  0.8214
  584MOL0     H78816   1.319   2.537   3.802  0.7129 -1.4885 -0.0787
  584MOL0     H78817   1.247   2.397   3.738 -1.5488  2.2150  1.6870
  584MOL0     H78818   1.093   2.596   3.696  1.0204 -0.6029  2.1551
  584MOL0     H78819   1.226   2.690   3.649  1.0669 -1.0507  3.1063
  584MOL0     H78820   1.826   1.626   3.761  0.0984  1.4583  2.4544
  584MOL0     H78821   1.779   1.426   3.909 -1.3338 -1.7860  1.0176
  584MOL0     H78822   1.758   1.032   4.118 -0.1509  2.1219  0.4020
  584MOL0     H78823   1.654   0.844   4.258  1.0791 -0.1625 -0.5607
  584MOL0     H78824   1.864   0.486   4.701  0.0392 -1.1349  1.9783
  584MOL0     H78825   1.945   0.610   4.544 -4.4598 -1.7907  5.2475
  584MOL0     H78826   2.094   0.785   4.223  1.5415  3.7227 -1.0541
  584MOL0     H78827   2.198   0.953   4.126 -1.4780  0.9109 -3.7305
  584MOL0     H78828   2.248   0.955   3.806 -0.0217  1.8873 -0.3604
  584MOL0     H78829   2.417   0.893   3.760 -0.5822 -0.1137 -1.3311
  584MOL0     H78830   2.343   1.189   3.801 -0.5166 -0.4982 -0.0703
  584MOL0     H78831   2.333   1.103   3.658 -2.0219 -3.3054  0.4298
  584MOL0     H78832   2.566   1.035   3.662  0.2223  0.8559 -0.8071
  584MOL0     H78833   2.579   1.088   3.832 -0.6813 -0.1226  0.1907
  584MOL0     H78834   2.505   1.322   3.711 -3.0644 -0.6097 -1.6673
  584MOL0     H78835   2.675   1.279   3.723  0.1465  0.9912 -1.5819
  584MOL0     H78836   2.626   1.294   3.314  0.7008  2.2553  1.0665
  584MOL0     H78837   2.459   0.698   3.914  1.3433  0.6023  1.3651
  584MOL0     H78838   2.452   0.436   3.958 -0.9804 -0.7171 -0.1640
  584MOL0     H78839   2.431   0.420   4.125  0.6193 -0.1956 -0.5543
  584MOL0     H78840   2.292   0.384   4.005 -0.1774 -0.6433  0.0444
  585MOL0     O78841  10.352   5.843   0.109  0.4794 -1.0364 -0.0561
  585MOL0     C78842  10.310   5.760   0.024  0.2392  0.2078 -0.8784
  585MOL0     O78843  10.197   5.681   0.036 -0.3795 -0.4923  0.0488
  585MOL0     C78844  10.117   5.709   0.147 -0.4385  0.1236  1.2164
  585MOL0     C78845  10.082   5.602   0.226 -0.3134  0.4112  0.0466
  585MOL0     C78846   9.984   5.609   0.332 -0.7611  1.0681  0.0811
  585MOL0     C78847   9.927   5.734   0.369  0.0035 -0.2612 -0.3567
  585MOL0     O78848   9.826   5.745   0.457  0.3197  0.3330  0.3137
  585MOL0     C78849   9.867   5.714   0.592  0.1543  0.2431  0.2561
  585MOL0     C78850   9.767   5.790   0.673  0.0496  0.1571 -0.1036
  585MOL0     C78851   9.787   5.762   0.820 -0.2352  0.4547 -0.1904
  585MOL0     C78852   9.660   5.745   0.903 -0.0981  0.1057 -0.3486
  585MOL0     C78853   9.700   5.697   1.047  0.3288 -0.5904  0.9624
  585MOL0     C78854   9.574   5.661   1.118  0.0945  1.5213 -0.2757
  585MOL0     C78855   9.592   5.624   1.261 -0.0861  0.5793 -0.0103
  585MOL0     C78856   9.631   5.742   1.343 -0.5461  0.0370 -0.1481
  585MOL0     N78857   9.644   5.696   1.486  0.5498 -0.5994 -0.5587
  585MOL0     C78858   9.551   5.736   1.579  0.4490 -0.9065 -0.5737
  585MOL0     C78859   9.604   5.687   1.702  0.3298 -0.4674  0.5902
  585MOL0     C78860   9.556   5.720   1.843 -0.5985  0.2440 -0.2033
  585MOL0     C78861   9.431   5.633   1.896 -0.4248  0.0222  0.0725
  585MOL0     C78862   9.446   5.599   2.044  0.7954  0.3300  0.4796
  585MOL0     C78863   9.555   5.497   2.082  0.0906 -0.3574  0.3935
  585MOL0     O78864   9.570   5.496   2.225 -0.3938 -0.0931 -0.2593
  585MOL0     C78865   9.466   5.457   2.303  0.0574  1.1213 -0.5916
  585MOL0     C78866   9.378   5.351   2.277 -0.0421  0.3194  0.2906
  585MOL0     C78867   9.292   5.291   2.366 -1.0210 -0.0462  0.0678
  585MOL0     C78868   9.293   5.332   2.505  0.7723 -0.1426 -0.6414
  585MOL0     C78869   9.207   5.282   2.611  0.8740  0.5801 -0.2036
  585MOL0     O78870   9.248   5.285   2.736  0.5208 -0.3431  0.7360
  585MOL0     C78871   9.171   5.253   2.841 -0.7396  0.0021 -0.7008
  585MOL0     C78872   9.031   5.249   2.856 -1.5017  0.4049  0.7558
  585MOL0     C78873   8.970   5.227   2.979  0.7158  0.3635 -0.1239
  585MOL0     C78874   9.048   5.206   3.094 -0.6856 -0.6067  0.2318
  585MOL0     O78875   8.999   5.168   3.212  0.0273 -0.4744  1.2586
  585MOL0     C78876   8.883   5.229   3.262 -0.2678  0.9366  0.6086
  585MOL0     C78877   8.750   5.151   3.228  0.5963  0.3186  0.4007
  585MOL0     C78878   8.644   5.165   3.331  0.8955  0.9827  0.2877
  585MOL0     C78879   8.521   5.071   3.309  0.1879 -0.0121  0.6337
  585MOL0     C78880   8.520   4.969   3.410  0.2483 -0.1559  0.5379
  585MOL0     C78881   8.400   4.862   3.412 -0.6664  0.0874  0.2072
  585MOL0     C78882   8.393   4.790   3.276 -1.6296 -0.2565  0.0422
  585MOL0     C78883   8.301   4.866   3.171 -0.3942  0.4637  0.1763
  585MOL0    Cl78884   8.336   4.823   3.010 -0.0598 -0.1431 -0.1313
  585MOL0     C78885   9.187   5.195   3.082  0.5876  0.8409 -0.6051
  585MOL0     C78886   9.249   5.234   2.969  0.7770  0.8840  0.2669
  585MOL0     O78887   9.106   5.218   2.578  0.5086  0.1658 -0.7934
  585MOL0     C78888   9.388   5.434   2.534  0.6907 -0.1983 -0.3784
  585MOL0     C78889   9.471   5.492   2.431  0.4778 -0.3592  0.2881
  585MOL0     N78890   9.723   5.615   1.672 -0.1985 -0.2788  0.3093
  585MOL0     N78891   9.746   5.625   1.544  0.9367 -0.2696 -0.2068
  585MOL0     C78892   9.947   5.834   0.273  0.3644 -0.1727  0.3200
  585MOL0     C78893  10.049   5.826   0.168 -0.0594 -0.1763  0.3425
  585MOL0     C78894  10.402   5.730  -0.087  0.5552 -0.0907 -0.4914
  585MOL0     C78895  10.390   5.613  -0.157 -0.5633 -0.5801  0.5807
  585MOL0     C78896  10.480   5.569  -0.256  0.4751  0.4769  0.0752
  585MOL0     C78897  10.573   5.659  -0.310  0.6967  0.1056  0.2648
  585MOL0     O78898  10.659   5.623  -0.415 -0.2808  0.0168  0.0948
  585MOL0     C78899  10.726   5.709  -0.508  0.6481  0.1719 -0.4826
  585MOL0     C78900  10.674   5.674  -0.650  0.3934 -0.2972 -0.2226
  585MOL0     C78901  10.722   5.548  -0.711  0.9853  0.2030 -1.1410
  585MOL0     C78902  10.650   5.507  -0.838  0.7334 -0.0363 -0.8398
  585MOL0     C78903  10.668   5.620  -0.935 -1.2673 -0.1353 -0.0824
  585MOL0     C78904  10.671   5.698  -1.035  0.0846  0.4073 -0.4583
  585MOL0     C78905  10.573   5.783  -0.257  1.1171  0.0018  0.5915
  585MOL0     C78906  10.499   5.817  -0.141 -0.1907 -0.6058 -0.1489
  585MOL0     C78907  10.515   5.953  -0.078 -0.0135 -0.5478 -0.3141
  585MOL0     H78908  10.129   5.505   0.217 -0.6537  0.2421  0.0460
  585MOL0     H78909   9.962   5.519   0.389 -1.4543  1.0648 -0.1893
  585MOL0     H78910   9.856   5.606   0.608 -0.1098  0.5624  2.4501
  585MOL0     H78911   9.968   5.742   0.621 -1.1045  4.2962  1.2922
  585MOL0     H78912   9.671   5.759   0.632  1.7150 -0.0873 -4.3277
  585MOL0     H78913   9.786   5.894   0.643 -1.0127 -0.5008 -3.5160
  585MOL0     H78914   9.842   5.843   0.869 -4.5592  3.2900  0.4400
  585MOL0     H78915   9.831   5.662   0.831 -3.6569 -1.2249 -0.5220
  585MOL0     H78916   9.603   5.837   0.915 -3.2076 -1.9266  2.1746
  585MOL0     H78917   9.592   5.673   0.856  1.4858 -0.7251 -1.5125
  585MOL0     H78918   9.762   5.607   1.047  0.5567 -0.4405 -0.1199
  585MOL0     H78919   9.763   5.779   1.084  0.6761 -0.4309  0.0273
  585MOL0     H78920   9.502   5.744   1.116  1.0764  2.3897 -2.4693
  585MOL0     H78921   9.528   5.581   1.059 -1.7928  2.9324 -0.8454
  585MOL0     H78922   9.682   5.562   1.268 -0.2145  0.5775  3.0960
  585MOL0     H78923   9.498   5.573   1.284  0.1413 -1.0960 -2.3505
  585MOL0     H78924   9.735   5.768   1.320  0.4098 -2.5041  0.8964
  585MOL0     H78925   9.562   5.825   1.332 -1.2003 -0.2728  1.4011
  585MOL0     H78926   9.468   5.805   1.568 -0.4775 -2.0129 -0.7161
  585MOL0     H78927   9.637   5.696   1.913 -0.1906 -1.0014 -1.0656
  585MOL0     H78928   9.532   5.826   1.852  1.8057  0.7319  1.2568
  585MOL0     H78929   9.344   5.692   1.867  0.4709  0.1332 -2.7952
  585MOL0     H78930   9.429   5.541   1.836 -1.9263  0.4843 -0.6225
  585MOL0     H78931   9.355   5.549   2.078 -0.6920  2.2864 -0.4208
  585MOL0     H78932   9.460   5.688   2.106 -1.5130  0.9179  0.2399
  585MOL0     H78933   9.650   5.516   2.029 -0.9600 -1.2469 -1.9505
  585MOL0     H78934   9.531   5.396   2.049  1.2744 -1.1025  1.6842
  585MOL0     H78935   9.400   5.308   2.180  0.3622  1.8145 -0.3058
  585MOL0     H78936   9.230   5.213   2.324 -1.9180  0.7174 -0.0530
  585MOL0     H78937   8.969   5.265   2.768  1.5522 -0.8322 -1.8113
  585MOL0     H78938   8.862   5.235   2.986  0.6655  0.8622 -1.2709
  585MOL0     H78939   8.896   5.243   3.369  2.5024 -0.7381  0.5692
  585MOL0     H78940   8.879   5.328   3.215  2.8748  0.5281 -0.7976
  585MOL0     H78941   8.715   5.193   3.134  2.7887  4.3120  1.1486
  585MOL0     H78942   8.769   5.044   3.214 -1.7546 -0.1131  0.0905
  585MOL0     H78943   8.682   5.148   3.432 -1.2369 -0.8619  0.8769
  585MOL0     H78944   8.616   5.268   3.306  0.2481  0.2336 -2.4888
  585MOL0     H78945   8.531   5.019   3.214 -1.2090  0.2452  0.3300
  585MOL0     H78946   8.435   5.138   3.314 -0.0256 -0.2623  0.3157
  585MOL0     H78947   8.524   5.007   3.513  1.6621 -0.6631  0.6887
  585MOL0     H78948   8.611   4.913   3.391  0.9358  1.5448 -1.5125
  585MOL0     H78949   8.427   4.795   3.495  0.8974  0.6398  0.1821
  585MOL0     H78950   8.311   4.920   3.437 -0.8235 -0.3204  0.6101
  585MOL0     H78951   8.344   4.694   3.289 -1.6092 -0.4659 -1.2420
  585MOL0     H78952   8.491   4.764   3.234 -0.2211 -1.7158  3.7921
  585MOL0     H78953   8.200   4.843   3.204 -0.8600  1.3967 -0.5691
  585MOL0     H78954   8.313   4.973   3.191  1.2841  0.2509  0.4765
  585MOL0     H78955   9.249   5.163   3.166  1.4160  0.1908 -1.4412
  585MOL0     H78956   9.357   5.245   2.974  0.7332  0.8335  4.0779
  585MOL0     H78957   9.400   5.469   2.636  2.1282  1.7160 -1.1589
  585MOL0     H78958   9.553   5.559   2.453  1.2076 -0.4327 -1.9219
  585MOL0     H78959   9.890   5.926   0.272  0.3978 -0.0834 -3.0397
  585MOL0     H78960  10.060   5.909   0.100  1.6712 -1.9284 -1.6440
  585MOL0     H78961  10.306   5.556  -0.119 -0.7083  1.1367  3.1088
  585MOL0     H78962  10.485   5.471  -0.303  2.8469  1.0717 -1.0926
  585MOL0     H78963  10.834   5.700  -0.488  0.7678  0.8778 -0.8027
  585MOL0     H78964  10.698   5.813  -0.496 -1.2222 -0.2497 -0.9261
  585MOL0     H78965  10.704   5.756  -0.715  2.5906 -0.3508  0.6359
  585MOL0     H78966  10.565   5.665  -0.654  0.4509 -0.6500 -3.5230
  585MOL0     H78967  10.715   5.476  -0.629 -2.3568 -0.0769 -1.5225
  585MOL0     H78968  10.828   5.565  -0.734  1.2778  0.7891  0.4587
  585MOL0     H78969  10.694   5.415  -0.877  0.0294 -0.8853  0.3206
  585MOL0     H78970  10.544   5.490  -0.818  0.6691  1.7795  0.6068
  585MOL0     H78971  10.677   5.767  -1.116 -1.1417  0.7024 -0.3141
  585MOL0     H78972  10.634   5.862  -0.302  0.1810  1.1350  1.2470
  585MOL0     H78973  10.574   5.952   0.014  0.7457 -0.3796 -0.7797
  585MOL0     H78974  10.573   6.016  -0.147  0.1272  0.5219  0.7464
  585MOL0     H78975  10.425   6.014  -0.073 -0.5143 -1.3318  0.4133
  586MOL0     O78976   8.994   9.463   5.033  0.2448 -0.7819 -0.2411
  586MOL0     C78977   8.891   9.507   5.080 -0.3318  0.5283 -0.6065
  586MOL0     O78978   8.854   9.489   5.206 -0.2404 -0.2665 -0.4842
  586MOL0     C78979   8.930   9.433   5.310  0.4654  0.2810  0.3843
  586MOL0     C78980   9.070   9.431   5.302  0.6490 -0.4299 -0.3535
  586MOL0     C78981   9.133   9.394   5.414  1.2789 -0.9359 -0.4358
  586MOL0     C78982   9.076   9.331   5.529  0.3923 -1.0304  0.4973
  586MOL0     O78983   9.139   9.301   5.647 -0.0667 -0.2785 -0.6100
  586MOL0     C78984   9.279   9.309   5.667 -0.0112 -0.0208 -0.0736
  586MOL0     C78985   9.333   9.240   5.794 -0.7907  0.0277  0.2695
  586MOL0     C78986   9.294   9.094   5.816  0.0068  0.8312  0.2502
  586MOL0     C78987   9.351   9.052   5.946 -0.0527  0.6376  0.6476
  586MOL0     C78988   9.273   9.098   6.068 -0.1803 -0.4393 -0.2849
  586MOL0     C78989   9.337   9.042   6.190 -0.6692 -0.8230 -0.0230
  586MOL0     C78990   9.239   9.079   6.308 -0.4023  0.7792  0.2002
  586MOL0     C78991   9.309   9.086   6.448 -0.1514  0.8397  0.1885
  586MOL0     N78992   9.365   8.953   6.484 -0.2989 -0.2555  0.5193
  586MOL0     C78993   9.485   8.900   6.441  0.2648 -0.8201 -0.3697
  586MOL0     C78994   9.491   8.767   6.484  0.5122 -0.2814 -0.4264
  586MOL0     C78995   9.592   8.659   6.457 -1.3569  0.4410  0.2422
  586MOL0     C78996   9.732   8.718   6.450  0.4010 -0.1152  0.9066
  586MOL0     C78997   9.844   8.630   6.405 -0.2761 -0.1484 -0.0735
  586MOL0     C78998   9.811   8.541   6.276  0.1788 -0.4048 -0.5119
  586MOL0     O78999   9.792   8.616   6.157 -0.1429 -0.9196  0.7861
  586MOL0     C79000   9.906   8.636   6.075 -0.5147  0.0554  0.3477
  586MOL0     C79001   9.977   8.521   6.031 -1.2887  0.0080 -0.4013
  586MOL0     C79002  10.081   8.540   5.933 -0.7572  0.2558 -0.9296
  586MOL0     C79003  10.139   8.670   5.909  0.1297  0.5104 -0.1649
  586MOL0     C79004  10.257   8.696   5.822  0.0701  0.8775 -0.1896
  586MOL0     O79005  10.331   8.580   5.786 -0.0115 -0.0922  0.1369
  586MOL0     C79006  10.461   8.584   5.723 -0.0227  0.4847  0.5475
  586MOL0     C79007  10.517   8.458   5.700  0.9805 -0.0656 -0.7844
  586MOL0     C79008  10.645   8.436   5.657  0.4010 -0.1050 -0.3466
  586MOL0     C79009  10.739   8.541   5.639 -0.3915  0.9394 -0.1671
  586MOL0     O79010  10.867   8.517   5.599  0.7725 -0.8411  0.0554
  586MOL0     C79011  10.885   8.397   5.522 -0.1194 -0.3447 -0.9851
  586MOL0     C79012  11.035   8.387   5.480  0.2938  0.5244 -0.8934
  586MOL0     C79013  11.121   8.411   5.612 -0.5765  1.3168  0.5660
  586MOL0     C79014  11.252   8.335   5.627  0.0306 -1.2908  0.5578
  586MOL0     C79015  11.362   8.392   5.538  0.5037  0.5162 -0.0679
  586MOL0     C79016  11.428   8.519   5.591  0.3376 -0.1562 -0.7809
  586MOL0     C79017  11.509   8.596   5.485 -0.2715 -0.3599  0.3352
  586MOL0     C79018  11.603   8.710   5.541  0.3934  0.6880  1.1609
  586MOL0    Cl79019  11.484   8.823   5.610  0.6070  0.1373 -0.2655
  586MOL0     C79020  10.689   8.674   5.669 -0.1962 -0.4372  0.7703
  586MOL0     C79021  10.556   8.690   5.703  0.3517  0.1872  0.0763
  586MOL0     O79022  10.292   8.809   5.799  0.3300  0.3616  0.2920
  586MOL0     C79023  10.066   8.779   5.955 -0.7787 -0.8536  0.5292
  586MOL0     C79024   9.951   8.767   6.038 -0.6502  1.1911  0.0132
  586MOL0     N79025   9.380   8.749   6.558  0.7586  0.6561  0.0292
  586MOL0     N79026   9.301   8.849   6.545  0.3419 -0.2442 -0.3917
  586MOL0     C79027   8.936   9.331   5.530  0.5866  0.1215  0.3816
  586MOL0     C79028   8.864   9.381   5.423  0.0946  1.3031  0.8655
  586MOL0     C79029   8.801   9.565   4.974  0.7907 -1.1465 -0.2253
  586MOL0     C79030   8.820   9.537   4.838 -0.1589  0.3434 -0.3145
  586MOL0     C79031   8.750   9.603   4.736  0.7387 -0.2984 -0.2223
  586MOL0     C79032   8.632   9.671   4.772 -0.9186  0.2032  0.5681
  586MOL0     O79033   8.548   9.715   4.671 -0.2191  0.1361  0.5882
  586MOL0     C79034   8.446   9.624   4.635  0.3986  0.8713  0.2216
  586MOL0     C79035   8.321   9.643   4.735  0.0169 -0.3043 -0.6187
  586MOL0     C79036   8.194   9.575   4.681  0.8950  0.1081  0.4440
  586MOL0     C79037   8.064   9.668   4.692 -0.2003  0.4959 -1.2544
  586MOL0     C79038   7.946   9.594   4.644  0.9212 -0.0039  0.2622
  586MOL0     C79039   7.840   9.541   4.611 -0.6391  0.9681 -0.3458
  586MOL0     C79040   8.595   9.686   4.905  0.2373 -0.3064  0.4540
  586MOL0     C79041   8.677   9.639   5.009  0.0277 -0.7681  0.4224
  586MOL0     C79042   8.618   9.658   5.148  0.7608 -0.1024  0.0773
  586MOL0     H79043   9.129   9.458   5.215  2.9168 -2.1023  0.5769
  586MOL0     H79044   9.241   9.402   5.403  1.0203  4.8868 -2.0909
  586MOL0     H79045   9.321   9.262   5.578 -1.0105  0.1039 -0.6229
  586MOL0     H79046   9.303   9.416   5.666 -3.1862  0.8230  1.0030
  586MOL0     H79047   9.315   9.304   5.881  0.4271 -0.6642  1.0524
  586MOL0     H79048   9.441   9.256   5.782 -0.9327 -0.5568 -2.3939
  586MOL0     H79049   9.334   9.027   5.740  2.3294 -0.2468  2.2604
  586MOL0     H79050   9.185   9.086   5.827  0.1088  0.7752  1.3997
  586MOL0     H79051   9.344   8.943   5.946 -0.5182  0.6648  0.8325
  586MOL0     H79052   9.457   9.078   5.960  0.5536 -0.9854 -0.6112
  586MOL0     H79053   9.271   9.207   6.060 -0.9489 -0.5833 -2.6406
  586MOL0     H79054   9.173   9.056   6.055 -2.7888  4.7633  0.6317
  586MOL0     H79055   9.355   8.934   6.181  2.9827 -0.3474  0.2089
  586MOL0     H79056   9.433   9.090   6.208 -0.6605 -0.5429 -0.7865
  586MOL0     H79057   9.171   8.994   6.324  0.0290  0.8763  3.0274
  586MOL0     H79058   9.184   9.170   6.282 -2.3467  0.5442  2.9616
  586MOL0     H79059   9.387   9.162   6.453 -0.8886  1.7213 -0.9787
  586MOL0     H79060   9.242   9.114   6.530  1.4528  0.9625  1.4885
  586MOL0     H79061   9.562   8.947   6.380 -0.6468  1.8132  0.4076
  586MOL0     H79062   9.582   8.576   6.528 -0.2449 -1.0703 -1.2773
  586MOL0     H79063   9.581   8.615   6.357 -0.1103 -0.2319  0.3728
  586MOL0     H79064   9.729   8.807   6.385  2.5636 -0.0748  0.7862
  586MOL0     H79065   9.758   8.769   6.543  2.3480  0.9079 -0.1215
  586MOL0     H79066   9.867   8.565   6.489 -1.7876 -0.0363  0.4672
  586MOL0     H79067   9.928   8.696   6.384 -1.5107  2.0628  1.4973
  586MOL0     H79068   9.725   8.476   6.296 -1.0245  0.5661 -2.2920
  586MOL0     H79069   9.891   8.469   6.259  1.9684  1.7959 -1.9313
  586MOL0     H79070   9.956   8.424   6.076 -2.5873  0.7662  0.7102
  586MOL0     H79071  10.143   8.459   5.896 -0.9688  0.5417 -1.9515
  586MOL0     H79072  10.455   8.370   5.712 -0.8864  1.3499  0.4179
  586MOL0     H79073  10.671   8.333   5.635 -1.0050 -0.1087 -2.2488
  586MOL0     H79074  10.875   8.317   5.596  1.6919  0.1520 -0.1595
  586MOL0     H79075  10.818   8.395   5.435 -0.2138  1.7817 -0.9933
  586MOL0     H79076  11.042   8.282   5.451  0.1817  0.0195  0.7861
  586MOL0     H79077  11.070   8.446   5.395 -2.4660 -0.3539 -2.7573
  586MOL0     H79078  11.147   8.515   5.632  1.6720  0.7732  0.6726
  586MOL0     H79079  11.055   8.383   5.696 -2.7215  4.6184  0.1786
  586MOL0     H79080  11.241   8.231   5.593  0.3425 -1.0759 -0.2257
  586MOL0     H79081  11.290   8.333   5.730  2.0531 -0.9185 -0.1326
  586MOL0     H79082  11.321   8.405   5.438  1.1121 -0.2609 -0.4241
  586MOL0     H79083  11.439   8.315   5.532  0.9958  0.9381  0.6390
  586MOL0     H79084  11.349   8.583   5.628 -0.7227 -0.5273 -2.3245
  586MOL0     H79085  11.481   8.471   5.674 -0.3299  2.7785  1.4962
  586MOL0     H79086  11.427   8.637   5.425 -0.7623 -0.2547  1.0687
  586MOL0     H79087  11.563   8.523   5.424 -1.8302 -1.8903  0.7010
  586MOL0     H79088  11.666   8.668   5.619  1.9939 -0.5344 -0.6781
  586MOL0     H79089  11.659   8.751   5.456 -1.5360  0.1751 -0.4171
  586MOL0     H79090  10.751   8.759   5.644  1.5462 -1.1871  2.2983
  586MOL0     H79091  10.523   8.792   5.723 -0.8024  0.3130 -2.2023
  586MOL0     H79092  10.096   8.881   5.935  0.1954 -1.2292 -0.0016
  586MOL0     H79093   9.900   8.853   6.080 -1.2156  0.5651  0.6318
  586MOL0     H79094   8.874   9.284   5.606 -0.6711  3.7099  1.7950
  586MOL0     H79095   8.756   9.367   5.417  0.4359 -0.9922 -1.1400
  586MOL0     H79096   8.912   9.489   4.805 -1.9948 -2.9048 -1.0975
  586MOL0     H79097   8.768   9.588   4.630  0.2515 -2.9397 -0.0136
  586MOL0     H79098   8.472   9.517   4.631 -1.7194  0.3442 -1.1259
  586MOL0     H79099   8.413   9.637   4.531 -0.0680  1.9430  0.4941
  586MOL0     H79100   8.295   9.745   4.763 -0.3114  0.6235 -3.8364
  586MOL0     H79101   8.354   9.596   4.828  0.2230  0.3113 -0.3792
  586MOL0     H79102   8.168   9.480   4.730  0.2923 -0.3221 -0.6695
  586MOL0     H79103   8.200   9.541   4.577  0.4376  0.7524  0.2024
  586MOL0     H79104   8.046   9.682   4.799  0.3353  0.4244 -1.1517
  586MOL0     H79105   8.073   9.762   4.636 -1.5609  0.5503 -1.4200
  586MOL0     H79106   7.746   9.490   4.603 -0.6854  0.9239  0.4354
  586MOL0     H79107   8.509   9.751   4.919  0.6994  0.4392 -0.0604
  586MOL0     H79108   8.682   9.692   5.230 -0.3238  1.1503  0.4355
  586MOL0     H79109   8.529   9.720   5.154 -1.6161 -3.3176  1.2538
  586MOL0     H79110   8.572   9.562   5.175 -1.0165  1.2766  2.2455
  587MOL0     O79111   4.203   2.872   7.131 -0.2702  0.3498  0.1242
  587MOL0     C79112   4.172   2.961   7.052  0.6788 -0.0467 -0.0641
  587MOL0     O79113   4.214   3.083   7.060 -0.3261  0.3768 -0.0930
  587MOL0     C79114   4.309   3.101   7.158  0.0656 -0.6084 -0.3965
  587MOL0     C79115   4.280   3.118   7.293 -0.1570  0.0570 -0.4324
  587MOL0     C79116   4.385   3.146   7.395 -0.0658 -1.1187  0.5262
  587MOL0     C79117   4.511   3.188   7.348 -0.3947 -0.1502  0.7848
  587MOL0     O79118   4.601   3.230   7.442 -0.2062  0.0228 -0.4171
  587MOL0     C79119   4.730   3.175   7.423 -0.6439  0.0348  0.3975
  587MOL0     C79120   4.821   3.239   7.530  0.7176  0.1766  0.6743
  587MOL0     C79121   4.837   3.395   7.513 -0.3297  0.0548  0.2704
  587MOL0     C79122   4.950   3.451   7.609 -0.1116  0.0981 -0.4394
  587MOL0     C79123   4.914   3.463   7.763 -0.1503  0.0195  0.2102
  587MOL0     C79124   5.018   3.529   7.844 -0.2576 -0.1470  0.1567
  587MOL0     C79125   5.149   3.437   7.861  0.0357 -0.0785  0.1210
  587MOL0     C79126   5.275   3.498   7.802  0.1269 -0.1842 -0.5199
  587MOL0     N79127   5.370   3.389   7.788  0.7600 -0.2656  0.2905
  587MOL0     C79128   5.448   3.350   7.894  0.0425 -0.5081 -0.0328
  587MOL0     C79129   5.540   3.262   7.845 -0.4345 -0.3638  0.4123
  587MOL0     C79130   5.651   3.192   7.909  0.4402 -0.0150 -0.6536
  587MOL0     C79131   5.783   3.283   7.924  0.8482  0.0993 -0.8276
  587MOL0     C79132   5.910   3.214   7.897 -0.7976  0.8170  0.0859
  587MOL0     C79133   6.029   3.307   7.882 -0.3201 -0.0893  0.3372
  587MOL0     O79134   6.035   3.398   7.996 -0.2809 -0.7825  0.1495
  587MOL0     C79135   6.147   3.440   8.042 -0.3684 -0.0785 -0.5514
  587MOL0     C79136   6.130   3.512   8.161 -1.1311  0.2361 -0.2559
  587MOL0     C79137   6.236   3.563   8.236  0.0410  0.8057  0.1740
  587MOL0     C79138   6.366   3.542   8.192 -0.3839  0.5122  1.1796
  587MOL0     C79139   6.487   3.583   8.273  0.6300 -0.0184  0.0130
  587MOL0     O79140   6.598   3.587   8.192 -0.1142 -0.9307  0.3206
  587MOL0     C79141   6.714   3.625   8.252  0.6121 -0.0514 -0.4688
  587MOL0     C79142   6.825   3.553   8.206 -0.0131  0.3310 -0.0220
  587MOL0     C79143   6.958   3.602   8.229 -0.2791 -0.4079  0.5116
  587MOL0     C79144   6.980   3.707   8.312 -1.5173 -0.1798 -0.2959
  587MOL0     O79145   7.107   3.751   8.346  0.2464  0.3658 -0.4481
  587MOL0     C79146   7.213   3.678   8.291  0.1000  0.5648  0.6536
  587MOL0     C79147   7.348   3.718   8.352 -0.5795  0.7136 -0.3697
  587MOL0     C79148   7.383   3.866   8.344 -0.0741 -0.6702 -0.5000
  587MOL0     C79149   7.497   3.899   8.447  0.6684  0.7490  0.7626
  587MOL0     C79150   7.561   4.037   8.421  0.4135 -0.6691  0.7144
  587MOL0     C79151   7.672   4.058   8.519  0.2721 -0.7436  1.0462
  587MOL0     C79152   7.765   4.176   8.484 -0.0469  0.3986 -0.0854
  587MOL0     C79153   7.873   4.122   8.374 -0.5960 -1.3808 -0.5237
  587MOL0    Cl79154   7.961   3.995   8.457  0.1454 -0.4981 -0.2138
  587MOL0     C79155   6.875   3.772   8.357  0.2886  0.6661 -0.8642
  587MOL0     C79156   6.740   3.744   8.325 -0.8305  0.4527  0.4151
  587MOL0     O79157   6.472   3.608   8.387 -0.3570 -0.4205  0.1191
  587MOL0     C79158   6.382   3.473   8.067  0.7345  0.5046  0.2019
  587MOL0     C79159   6.278   3.430   7.992 -0.2077  0.2573 -0.9742
  587MOL0     N79160   5.519   3.254   7.706 -0.2123  0.1871  0.0723
  587MOL0     N79161   5.421   3.326   7.678  0.9028 -0.3259 -0.0198
  587MOL0     C79162   4.535   3.183   7.207  0.3951 -0.6203  0.0696
  587MOL0     C79163   4.434   3.142   7.118  0.1095 -0.7278  0.0493
  587MOL0     C79164   4.066   2.922   6.956  0.8609  0.8310  0.3331
  587MOL0     C79165   4.051   3.002   6.845  0.3366  0.3416  0.3202
  587MOL0     C79166   3.961   2.984   6.750  0.5408 -0.6971 -0.4952
  587MOL0     C79167   3.876   2.875   6.744 -0.3584  0.0691  0.0106
  587MOL0     O79168   3.785   2.866   6.639  0.0373 -0.4870  0.6588
  587MOL0     C79169   3.659   2.818   6.682  0.8253 -0.1320  0.0745
  587MOL0     C79170   3.564   2.844   6.564 -0.2287 -0.1197 -0.3956
  587MOL0     C79171   3.565   2.725   6.468  0.0699 -0.0451 -0.9186
  587MOL0     C79172   3.491   2.749   6.335  0.4320 -0.1818 -0.0670
  587MOL0     C79173   3.578   2.826   6.236  0.1526  0.1837  0.1258
  587MOL0     C79174   3.650   2.896   6.163  0.3527  1.5494  1.0632
  587MOL0     C79175   3.892   2.787   6.845  0.8782  0.9220 -0.7468
  587MOL0     C79176   3.993   2.799   6.947 -0.0034  0.8074 -0.2452
  587MOL0     C79177   3.997   2.687   7.048 -0.2002  0.6214  0.8487
  587MOL0     H79178   4.179   3.099   7.328 -1.4189  1.8704 -2.7900
  587MOL0     H79179   4.365   3.146   7.501 -2.3552 -0.7736  0.1388
  587MOL0     H79180   4.722   3.066   7.421  1.4310 -0.1710  1.1982
  587MOL0     H79181   4.768   3.221   7.332  1.2396 -0.0838  1.0875
  587MOL0     H79182   4.918   3.190   7.539  0.2683 -1.1279 -0.9832
  587MOL0     H79183   4.771   3.225   7.626 -0.0817 -0.8909  0.1301
  587MOL0     H79184   4.738   3.441   7.523  0.4435  3.5774 -4.5186
  587MOL0     H79185   4.859   3.413   7.407 -0.2523  2.7346  0.6869
  587MOL0     H79186   5.044   3.396   7.594 -0.3032  0.2033 -2.3078
  587MOL0     H79187   4.978   3.554   7.583  0.1105 -0.2102 -1.4476
  587MOL0     H79188   4.822   3.522   7.772  1.3297  2.4017  0.7163
  587MOL0     H79189   4.889   3.366   7.806 -2.5863 -0.6138 -2.3641
  587MOL0     H79190   5.041   3.624   7.796 -1.2685 -0.2031 -0.4578
  587MOL0     H79191   4.970   3.549   7.940 -0.2172 -0.1805  0.1835
  587MOL0     H79192   5.141   3.341   7.810 -0.7651  0.8700 -1.6146
  587MOL0     H79193   5.169   3.431   7.969  0.9625  0.6649  0.0008
  587MOL0     H79194   5.266   3.529   7.698  0.1740 -1.3933 -0.8976
  587MOL0     H79195   5.324   3.565   7.874  1.6020 -0.6535 -1.0468
  587MOL0     H79196   5.435   3.356   8.002  2.9678 -1.4418  0.4686
  587MOL0     H79197   5.619   3.155   8.007 -1.2069  0.9290 -0.7963
  587MOL0     H79198   5.675   3.105   7.847  0.3913 -2.0086  1.9529
  587MOL0     H79199   5.762   3.366   7.856 -2.7178 -1.6000 -2.0366
  587MOL0     H79200   5.777   3.323   8.026 -1.9030 -2.1856  0.0424
  587MOL0     H79201   5.896   3.166   7.801 -0.5032  0.9337 -0.0172
  587MOL0     H79202   5.939   3.138   7.970  1.7954  1.9290  0.3288
  587MOL0     H79203   6.010   3.380   7.803  1.8779  1.3525  1.0324
  587MOL0     H79204   6.123   3.253   7.872  0.7836  1.6280  0.8653
  587MOL0     H79205   6.030   3.530   8.201 -0.6654 -0.9408  1.5411
  587MOL0     H79206   6.219   3.626   8.322 -0.3867  0.4005  0.3947
  587MOL0     H79207   6.819   3.460   8.151 -0.0633 -2.5682  4.3160
  587MOL0     H79208   7.030   3.545   8.172 -2.6357 -0.5272 -2.6349
  587MOL0     H79209   7.204   3.575   8.325  0.0710  1.0594  2.2190
  587MOL0     H79210   7.210   3.685   8.181 -1.6038  2.4896  0.7539
  587MOL0     H79211   7.331   3.690   8.457 -0.1599 -1.1913 -0.7787
  587MOL0     H79212   7.435   3.665   8.313  1.8047  1.8442  2.9507
  587MOL0     H79213   7.415   3.897   8.244 -1.2192  0.6062 -0.5017
  587MOL0     H79214   7.295   3.925   8.369  1.8553  1.0161  2.9681
  587MOL0     H79215   7.580   3.831   8.424 -1.4961 -0.8861 -3.3441
  587MOL0     H79216   7.445   3.893   8.543 -1.9001 -0.7829 -0.5838
  587MOL0     H79217   7.477   4.107   8.418  0.2921 -0.8098 -2.2733
  587MOL0     H79218   7.591   4.024   8.316 -1.6350 -1.6070  0.1760
  587MOL0     H79219   7.623   4.081   8.614  1.5049  3.7082  0.8178
  587MOL0     H79220   7.729   3.966   8.535 -2.3535 -2.8495 -0.7906
  587MOL0     H79221   7.817   4.205   8.575  2.5499 -0.9018 -1.0495
  587MOL0     H79222   7.706   4.263   8.451 -0.5277 -0.3607 -1.3234
  587MOL0     H79223   7.839   4.099   8.273  2.5130 -1.1252 -1.7581
  587MOL0     H79224   7.958   4.187   8.353  0.8352 -2.7374  0.7763
  587MOL0     H79225   6.887   3.861   8.417 -0.2970 -0.0006  0.2754
  587MOL0     H79226   6.649   3.796   8.353 -1.7681 -0.2311 -1.2269
  587MOL0     H79227   6.481   3.454   8.027  0.5589  2.2763 -1.2311
  587MOL0     H79228   6.298   3.378   7.899 -3.3129 -1.2971 -0.9133
  587MOL0     H79229   4.628   3.226   7.173 -0.7119  3.2333  1.4397
  587MOL0     H79230   4.449   3.143   7.011 -1.4311  0.6307 -0.1965
  587MOL0     H79231   4.123   3.083   6.834  1.4272 -0.5959  0.3837
  587MOL0     H79232   3.962   3.049   6.663  0.5727  2.0089  1.4139
  587MOL0     H79233   3.614   2.876   6.763 -1.6714 -1.8800  0.0566
  587MOL0     H79234   3.659   2.715   6.718  2.2894 -0.3053 -0.3469
  587MOL0     H79235   3.598   2.936   6.517 -0.6688  1.6488  2.4889
  587MOL0     H79236   3.464   2.863   6.605 -0.9512  0.0408 -2.1441
  587MOL0     H79237   3.516   2.647   6.526  1.3834  1.0594  1.8154
  587MOL0     H79238   3.667   2.702   6.433  0.2582 -0.2789 -0.2190
  587MOL0     H79239   3.473   2.651   6.290 -1.7005  0.8128 -1.5422
  587MOL0     H79240   3.388   2.781   6.354 -0.6296 -4.4772  3.1139
  587MOL0     H79241   3.713   2.956   6.101  1.3389 -1.8526 -1.5803
  587MOL0     H79242   3.835   2.694   6.845  2.2598  0.0250  0.3390
  587MOL0     H79243   3.987   2.728   7.149  0.9676  0.6471  0.9688
  587MOL0     H79244   3.909   2.623   7.034 -1.2655  2.6030 -2.9601
  587MOL0     H79245   4.083   2.621   7.034 -1.0546 -0.0383 -1.6890
  588MOL0     O79246   7.205   6.221   4.255  0.5138 -0.3490  0.4216
  588MOL0     C79247   7.195   6.096   4.242 -0.0037  0.4999 -0.4347
  588MOL0     O79248   7.158   6.025   4.130 -0.2677 -0.0112 -0.4766
  588MOL0     C79249   7.165   6.085   4.011 -0.2772 -0.6271  0.3585
  588MOL0     C79250   7.057   6.066   3.912 -1.3421 -0.2122  0.6897
  588MOL0     C79251   7.067   6.128   3.792  0.0422 -1.2205 -0.9437
  588MOL0     C79252   7.167   6.216   3.755 -0.6316  0.6720  0.4507
  588MOL0     O79253   7.161   6.259   3.632 -0.5881 -0.2927  0.0647
  588MOL0     C79254   7.269   6.346   3.597  0.0431  0.2909 -0.6553
  588MOL0     C79255   7.254   6.376   3.442 -0.7776 -1.0280  0.0447
  588MOL0     C79256   7.295   6.247   3.361  0.3203 -0.1930 -0.7260
  588MOL0     C79257   7.283   6.276   3.217 -0.3384 -1.2322  0.8284
  588MOL0     C79258   7.275   6.154   3.118 -0.0372 -0.0235  0.6291
  588MOL0     C79259   7.255   6.196   2.968 -0.5039 -0.5927  1.0229
  588MOL0     C79260   7.245   6.064   2.897  0.1704 -0.1429 -0.1419
  588MOL0     C79261   7.238   6.094   2.745  0.0582  0.0329  0.1879
  588MOL0     N79262   7.104   6.136   2.704 -0.9295 -0.9404  0.2683
  588MOL0     C79263   7.054   6.262   2.710 -0.2347 -0.3351  0.3688
  588MOL0     C79264   6.935   6.244   2.653 -0.5296  0.5916 -0.7527
  588MOL0     C79265   6.842   6.356   2.617 -0.3498 -0.6853 -0.2355
  588MOL0     C79266   6.756   6.351   2.487 -1.1079 -0.7647 -0.4882
  588MOL0     C79267   6.624   6.418   2.514  0.8794 -0.5649 -0.1472
  588MOL0     C79268   6.620   6.554   2.579 -0.3024 -0.2087  0.3247
  588MOL0     O79269   6.483   6.600   2.574  0.3585  0.3724  0.0658
  588MOL0     C79270   6.482   6.730   2.559  0.4073 -0.7575 -0.5046
  588MOL0     C79271   6.513   6.777   2.433 -0.2694 -0.3314 -0.0083
  588MOL0     C79272   6.534   6.912   2.417 -0.3643 -0.4322 -0.0761
  588MOL0     C79273   6.525   7.008   2.522  0.5958  0.4799 -0.3783
  588MOL0     C79274   6.530   7.148   2.494 -0.6446 -0.6065  0.2409
  588MOL0     O79275   6.593   7.197   2.389  1.1828 -1.1789 -0.7730
  588MOL0     C79276   6.619   7.333   2.391 -0.3544 -0.5204  0.6553
  588MOL0     C79277   6.514   7.434   2.404  0.0406  0.3878 -0.2500
  588MOL0     C79278   6.555   7.570   2.408 -0.6806  0.0469 -0.3614
  588MOL0     C79279   6.684   7.611   2.400 -0.4000  0.5136  0.9450
  588MOL0     O79280   6.721   7.739   2.409 -0.2199 -0.2602 -0.1296
  588MOL0     C79281   6.623   7.837   2.456 -1.1842  0.0616  0.6292
  588MOL0     C79282   6.691   7.948   2.539 -0.5341 -0.3422 -0.1472
  588MOL0     C79283   6.781   8.045   2.453 -1.1322 -0.6051  0.4527
  588MOL0     C79284   6.707   8.117   2.333  0.2315  0.0964  0.1309
  588MOL0     C79285   6.788   8.229   2.245  0.9886  0.7126 -0.1704
  588MOL0     C79286   6.917   8.184   2.185 -0.6257 -0.0476 -0.4386
  588MOL0     C79287   6.969   8.286   2.096 -0.8675  0.0504  0.2390
  588MOL0     C79288   7.099   8.236   2.039 -0.5809 -1.0667  0.8970
  588MOL0    Cl79289   7.083   8.127   1.897  0.1364  0.3131  0.3684
  588MOL0     C79290   6.778   7.511   2.361 -0.0183 -0.4315 -0.1312
  588MOL0     C79291   6.745   7.375   2.347 -0.0389  0.4373  0.4018
  588MOL0     O79292   6.458   7.207   2.571  0.3950 -0.2090  0.1818
  588MOL0     C79293   6.494   6.952   2.653 -0.9260 -0.3289  0.3131
  588MOL0     C79294   6.479   6.810   2.673  0.1531 -0.2534  0.9053
  588MOL0     N79295   6.920   6.107   2.610  0.4789 -0.1449 -0.4129
  588MOL0     N79296   7.017   6.044   2.651 -0.7492 -0.6293 -0.2938
  588MOL0     C79297   7.275   6.237   3.849  0.7044  0.8877 -0.3761
  588MOL0     C79298   7.278   6.164   3.973 -0.2735  0.3145  0.5837
  588MOL0     C79299   7.222   6.018   4.359 -0.5729 -0.2046 -0.0212
  588MOL0     C79300   7.331   5.931   4.365 -0.6740 -0.5693  0.7584
  588MOL0     C79301   7.356   5.841   4.474 -0.0678  0.0303  0.0420
  588MOL0     C79302   7.268   5.832   4.575 -0.6479 -0.2893 -0.4878
  588MOL0     O79303   7.301   5.742   4.667 -1.0199 -0.2231 -0.5483
  588MOL0     C79304   7.207   5.697   4.767  0.2219  0.1526  0.5895
  588MOL0     C79305   7.257   5.640   4.900 -0.4677 -0.0005  0.4482
  588MOL0     C79306   7.325   5.751   4.989  0.0194  0.6826 -1.0080
  588MOL0     C79307   7.415   5.691   5.095  0.6290  0.2644  0.1970
  588MOL0     C79308   7.501   5.786   5.163  0.6371  0.0200  0.0854
  588MOL0     C79309   7.600   5.846   5.194 -0.2470  0.4686  0.2629
  588MOL0     C79310   7.156   5.915   4.569  0.5665 -0.4278 -0.1865
  588MOL0     C79311   7.134   6.006   4.465  0.0676 -0.6056 -0.1059
  588MOL0     C79312   7.006   6.097   4.481 -0.0598 -0.2811 -0.3855
  588MOL0     H79313   6.972   6.002   3.934 -3.1349  1.3200 -1.3084
  588MOL0     H79314   6.984   6.118   3.722 -0.6784  0.3166 -0.3518
  588MOL0     H79315   7.257   6.446   3.640  1.1193 -0.5006  1.6143
  588MOL0     H79316   7.366   6.300   3.619  0.4457  2.2661  2.2001
  588MOL0     H79317   7.318   6.459   3.410 -2.2345 -0.2859 -1.0725
  588MOL0     H79318   7.153   6.415   3.422  1.6619  5.8938 -1.4968
  588MOL0     H79319   7.211   6.183   3.387 -0.2278  0.6069 -0.4640
  588MOL0     H79320   7.383   6.185   3.382 -0.7837 -1.9924 -1.2635
  588MOL0     H79321   7.190   6.331   3.200 -1.2435 -3.4086 -2.2012
  588MOL0     H79322   7.367   6.341   3.193 -1.2949 -0.4615 -0.5866
  588MOL0     H79323   7.370   6.101   3.116 -0.4949 -0.8455 -1.1094
  588MOL0     H79324   7.196   6.082   3.141 -1.1534 -0.8869 -4.5489
  588MOL0     H79325   7.165   6.255   2.948  0.0776 -0.7144 -2.4313
  588MOL0     H79326   7.350   6.239   2.937 -0.5882  0.2623  1.9006
  588MOL0     H79327   7.157   6.008   2.927  1.1123 -1.4956  0.1819
  588MOL0     H79328   7.338   6.006   2.903 -0.4123 -0.9865  1.3100
  588MOL0     H79329   7.312   6.168   2.713 -0.7186 -0.6068 -3.5706
  588MOL0     H79330   7.263   6.003   2.689 -2.2082  1.0320 -2.6779
  588MOL0     H79331   7.109   6.352   2.735  1.1976 -0.6100 -1.6073
  588MOL0     H79332   6.767   6.355   2.697 -2.0689 -0.4337 -1.7813
  588MOL0     H79333   6.886   6.456   2.614 -3.0796  0.6308  0.3908
  588MOL0     H79334   6.808   6.400   2.404  1.4025  1.9206  2.4236
  588MOL0     H79335   6.727   6.251   2.452 -0.9536 -0.4977 -1.3981
  588MOL0     H79336   6.562   6.350   2.574 -1.8134 -0.0803 -2.1486
  588MOL0     H79337   6.588   6.419   2.411  3.2677 -2.0480 -1.0839
  588MOL0     H79338   6.695   6.615   2.527  2.1590 -1.4338  2.2058
  588MOL0     H79339   6.659   6.546   2.681 -0.5539 -2.1886  0.3050
  588MOL0     H79340   6.511   6.714   2.344 -2.0575 -0.8468  0.3508
  588MOL0     H79341   6.553   6.942   2.314 -1.0146  3.4792  0.7658
  588MOL0     H79342   6.407   7.419   2.413 -0.0433  2.0095  2.3981
  588MOL0     H79343   6.473   7.640   2.421  0.2325  1.1671 -0.4788
  588MOL0     H79344   6.560   7.867   2.372 -0.6783 -0.4043  0.0773
  588MOL0     H79345   6.561   7.790   2.532 -0.5169 -2.3497 -0.2424
  588MOL0     H79346   6.615   8.005   2.594  1.5147  2.9115 -0.4050
  588MOL0     H79347   6.758   7.901   2.611 -1.7147 -1.3574  0.3232
  588MOL0     H79348   6.809   8.134   2.511 -0.0031 -0.0368 -0.9051
  588MOL0     H79349   6.873   7.993   2.425 -0.4453 -1.2298  3.5216
  588MOL0     H79350   6.612   8.159   2.369  0.7551  1.3058  0.1673
  588MOL0     H79351   6.683   8.032   2.269 -1.4158  1.2930 -0.9201
  588MOL0     H79352   6.795   8.328   2.289 -1.6552 -0.3542  3.0433
  588MOL0     H79353   6.723   8.230   2.157  0.4230 -2.2597  0.1109
  588MOL0     H79354   6.993   8.164   2.261  2.5150  1.8557 -2.8559
  588MOL0     H79355   6.896   8.094   2.127  0.5350  0.1105 -1.1343
  588MOL0     H79356   6.993   8.370   2.162  0.2471  0.8982 -1.1890
  588MOL0     H79357   6.906   8.325   2.015  0.5498  1.4991 -0.2195
  588MOL0     H79358   7.164   8.323   2.024 -0.5434 -0.6940  2.8931
  588MOL0     H79359   7.155   8.169   2.105  1.4039 -2.0223 -1.5693
  588MOL0     H79360   6.878   7.550   2.347  0.6593 -1.1085  2.3624
  588MOL0     H79361   6.827   7.312   2.315  1.0905  1.9392  0.2256
  588MOL0     H79362   6.509   7.005   2.746 -0.7644  0.8984 -0.3936
  588MOL0     H79363   6.455   6.755   2.763 -4.1846 -1.9134 -0.9935
  588MOL0     H79364   7.366   6.291   3.825  0.4262  1.9618  0.9019
  588MOL0     H79365   7.363   6.176   4.039  1.4764  2.0189 -1.7993
  588MOL0     H79366   7.401   5.930   4.283 -1.0680  0.6546  0.3776
  588MOL0     H79367   7.443   5.777   4.469  0.1391  0.2218  0.9130
  588MOL0     H79368   7.138   5.636   4.709  0.6531  2.2865 -2.4262
  588MOL0     H79369   7.151   5.782   4.808 -0.2958 -0.5742  1.4043
  588MOL0     H79370   7.328   5.560   4.877  1.0935  1.8328 -1.3613
  588MOL0     H79371   7.173   5.597   4.956 -1.4235  2.7044  1.2672
  588MOL0     H79372   7.261   5.820   5.044 -0.6169 -1.0169  0.4482
  588MOL0     H79373   7.389   5.815   4.926  0.0449  1.1141 -0.5498
  588MOL0     H79374   7.339   5.654   5.163 -1.3556  0.6989 -1.6865
  588MOL0     H79375   7.483   5.612   5.060  1.7604  0.9198  0.8420
  588MOL0     H79376   7.693   5.898   5.205 -0.8984  1.9078 -0.7099
  588MOL0     H79377   7.082   5.907   4.648  2.3703 -0.1201  1.6136
  588MOL0     H79378   7.012   6.205   4.463 -1.5285 -0.2071 -0.4929
  588MOL0     H79379   6.939   6.062   4.402  1.5697 -0.2812 -1.8543
  588MOL0     H79380   6.966   6.083   4.581  1.8100  0.6760  0.5389
  589MOL0     O79381   3.611   8.011   5.618 -0.0626 -0.4607 -0.4829
  589MOL0     C79382   3.613   8.133   5.596  0.1082 -0.6700 -0.5279
  589MOL0     O79383   3.715   8.216   5.573 -0.4510 -0.3534  0.1649
  589MOL0     C79384   3.845   8.181   5.617  1.0139  0.8243  0.3176
  589MOL0     C79385   3.898   8.050   5.614 -0.5525 -0.2075  0.8184
  589MOL0     C79386   4.030   8.023   5.640 -0.7000 -0.4841 -0.8173
  589MOL0     C79387   4.111   8.133   5.663  0.0971 -0.5391  0.4765
  589MOL0     O79388   4.239   8.089   5.690  0.3259 -0.3239 -0.1401
  589MOL0     C79389   4.271   8.125   5.829  0.1251  0.4285 -0.1618
  589MOL0     C79390   4.411   8.072   5.881 -0.2224 -0.1453 -0.5452
  589MOL0     C79391   4.418   7.926   5.909 -0.2418  0.2642  0.5235
  589MOL0     C79392   4.337   7.898   6.033 -0.1085  0.2472 -0.1287
  589MOL0     C79393   4.385   7.756   6.091  0.5608  0.3830 -0.2990
  589MOL0     C79394   4.527   7.769   6.158 -0.1315 -0.8291  0.8023
  589MOL0     C79395   4.560   7.642   6.233  0.2968  0.5583  0.1768
  589MOL0     C79396   4.702   7.629   6.296  0.0192 -0.5262  0.5003
  589MOL0     N79397   4.792   7.581   6.188 -0.5146 -0.5372 -0.1882
  589MOL0     C79398   4.843   7.662   6.085  0.8467 -0.0306 -0.6052
  589MOL0     C79399   4.912   7.576   6.008  0.4848 -0.4383  0.8395
  589MOL0     C79400   4.988   7.612   5.873 -0.5038 -1.2189  0.1162
  589MOL0     C79401   4.895   7.577   5.751  0.0569  0.5540  0.0453
  589MOL0     C79402   4.934   7.653   5.622 -0.1360  0.0318  0.1396
  589MOL0     C79403   5.075   7.633   5.559  0.0262 -0.6342  0.5638
  589MOL0     O79404   5.097   7.717   5.442  0.3854  0.2897 -0.9949
  589MOL0     C79405   5.217   7.710   5.381  0.6328 -0.5254  0.0116
  589MOL0     C79406   5.228   7.743   5.247  0.8165 -0.0096 -0.4538
  589MOL0     C79407   5.353   7.723   5.174  0.5277 -0.7717  1.4032
  589MOL0     C79408   5.462   7.675   5.233  0.2137  1.1812  0.6756
  589MOL0     C79409   5.587   7.650   5.157  0.0585 -0.5704  0.2886
  589MOL0     O79410   5.602   7.703   5.034 -0.5964  0.2687 -0.1986
  589MOL0     C79411   5.700   7.656   4.948 -0.1011  0.5018 -0.5530
  589MOL0     C79412   5.717   7.742   4.840 -0.7017 -0.4885 -0.1988
  589MOL0     C79413   5.824   7.731   4.751 -0.0113  0.6649 -0.3908
  589MOL0     C79414   5.917   7.625   4.759  0.4409  1.3470 -0.5971
  589MOL0     O79415   6.032   7.596   4.685 -0.1814  0.2650  0.0222
  589MOL0     C79416   6.096   7.703   4.620  0.0774 -0.0728  0.2282
  589MOL0     C79417   6.205   7.780   4.692 -0.1472 -0.9052  0.0699
  589MOL0     C79418   6.267   7.878   4.596 -0.7476  0.5526 -0.7375
  589MOL0     C79419   6.413   7.903   4.635  0.0469  0.1365  0.3069
  589MOL0     C79420   6.470   8.027   4.562  0.4540  0.0196 -1.1190
  589MOL0     C79421   6.607   8.072   4.604  0.3205  1.1473  1.0907
  589MOL0     C79422   6.728   7.992   4.538  0.3998 -0.1852  1.4937
  589MOL0     C79423   6.861   8.001   4.612  1.8083 -0.9485  0.9005
  589MOL0    Cl79424   6.831   7.959   4.781  0.1850 -0.4471  0.1001
  589MOL0     C79425   5.901   7.536   4.871 -0.4851  0.4488  0.4566
  589MOL0     C79426   5.790   7.548   4.957  0.0555  0.4123 -0.2146
  589MOL0     O79427   5.677   7.591   5.217 -0.2301  0.1189 -0.4963
  589MOL0     C79428   5.450   7.633   5.367  0.4175  0.7183 -0.4201
  589MOL0     C79429   5.330   7.655   5.440 -1.1101 -0.3914  0.2626
  589MOL0     N79430   4.895   7.445   6.058 -0.3737 -0.1763  0.4490
  589MOL0     N79431   4.823   7.441   6.160  0.0459  0.5528 -0.3903
  589MOL0     C79432   4.068   8.267   5.676 -0.1180 -0.6946  0.7158
  589MOL0     C79433   3.929   8.290   5.654 -0.9943  0.4194 -0.5377
  589MOL0     C79434   3.483   8.197   5.567  0.2354 -0.2912 -0.5199
  589MOL0     C79435   3.475   8.336   5.602  0.0644 -0.7381 -0.0592
  589MOL0     C79436   3.355   8.399   5.594 -0.3961  0.3107  0.0038
  589MOL0     C79437   3.234   8.324   5.569  1.0667 -0.2278  0.7406
  589MOL0     O79438   3.106   8.378   5.564 -0.3349  0.4878  0.2496
  589MOL0     C79439   3.080   8.508   5.615  0.3368 -0.0556 -0.6606
  589MOL0     C79440   2.944   8.560   5.573  0.0356  0.6482  0.7148
  589MOL0     C79441   2.891   8.515   5.438 -0.1853 -0.2102 -0.0673
  589MOL0     C79442   2.754   8.596   5.415 -0.2625  0.8212 -0.4235
  589MOL0     C79443   2.652   8.519   5.335 -0.2169  0.2880  0.4166
  589MOL0     C79444   2.568   8.452   5.285 -0.0759  0.5440 -0.0357
  589MOL0     C79445   3.240   8.192   5.527 -0.5446 -0.1512  0.2341
  589MOL0     C79446   3.363   8.122   5.522 -0.2615 -0.8285  0.1451
  589MOL0     C79447   3.356   7.979   5.480  0.1948 -0.1877  0.6225
  589MOL0     H79448   3.826   7.972   5.593 -0.1130 -0.5392  0.5249
  589MOL0     H79449   4.069   7.922   5.633  1.3407  0.2140 -0.3747
  589MOL0     H79450   4.287   8.232   5.842  0.0778  0.5509 -1.0333
  589MOL0     H79451   4.187   8.095   5.893 -0.8748  0.9991 -1.1541
  589MOL0     H79452   4.442   8.122   5.973 -1.9968 -0.3515  0.2035
  589MOL0     H79453   4.487   8.096   5.806 -1.3500  0.7954 -1.4486
  589MOL0     H79454   4.526   7.911   5.924  0.0232  1.7272  0.1840
  589MOL0     H79455   4.393   7.864   5.822  1.7766  0.0145  0.0729
  589MOL0     H79456   4.357   7.978   6.104 -0.3719  1.0311 -0.9246
  589MOL0     H79457   4.229   7.886   6.022  0.1647 -2.2966 -0.8564
  589MOL0     H79458   4.317   7.721   6.169 -0.3431  3.8500  0.6743
  589MOL0     H79459   4.387   7.684   6.008  2.1462 -2.2591  1.8624
  589MOL0     H79460   4.602   7.787   6.080 -1.0633 -2.1383 -0.4678
  589MOL0     H79461   4.520   7.858   6.221  0.5132 -0.9843  1.0977
  589MOL0     H79462   4.551   7.563   6.158  0.3154  3.2632 -2.8917
  589MOL0     H79463   4.488   7.631   6.314 -2.3963  3.9168 -1.4976
  589MOL0     H79464   4.730   7.719   6.352 -1.0014  1.4904 -2.0571
  589MOL0     H79465   4.699   7.547   6.369 -1.3233  1.3889  2.7532
  589MOL0     H79466   4.829   7.768   6.067 -1.8362 -0.1764  0.1644
  589MOL0     H79467   5.009   7.720   5.876 -0.5177 -1.1798 -0.9756
  589MOL0     H79468   5.086   7.564   5.874  1.4697  2.2179  4.3256
  589MOL0     H79469   4.892   7.470   5.726  4.9471  0.4028 -0.8774
  589MOL0     H79470   4.796   7.619   5.770  0.6057  1.6953  0.4575
  589MOL0     H79471   4.923   7.761   5.639 -1.6377 -0.1516  0.4544
  589MOL0     H79472   4.869   7.626   5.539  1.1011  1.2267 -1.2771
  589MOL0     H79473   5.099   7.528   5.541 -2.3323 -1.0871 -0.3313
  589MOL0     H79474   5.144   7.673   5.633 -0.2220 -1.2143  1.1252
  589MOL0     H79475   5.139   7.781   5.198  0.7243  2.4191  1.4488
  589MOL0     H79476   5.366   7.752   5.070  1.9428 -1.0820  1.4746
  589MOL0     H79477   5.660   7.832   4.823 -1.8189 -1.5670 -2.8166
  589MOL0     H79478   5.820   7.811   4.677 -0.8029 -0.6158 -1.7797
  589MOL0     H79479   6.137   7.662   4.527 -0.2481 -1.1302  0.5361
  589MOL0     H79480   6.024   7.779   4.590  1.0820  1.0423  0.5542
  589MOL0     H79481   6.158   7.819   4.783 -1.5130 -1.0259 -0.5765
  589MOL0     H79482   6.286   7.712   4.723  0.6535  0.5437  1.3072
  589MOL0     H79483   6.270   7.840   4.493  2.3187  0.7700 -0.8079
  589MOL0     H79484   6.221   7.977   4.606 -1.2806  0.6044 -3.1625
  589MOL0     H79485   6.476   7.819   4.603  2.0725  1.0387  1.7152
  589MOL0     H79486   6.417   7.919   4.743 -1.7548 -0.2049  0.4547
  589MOL0     H79487   6.396   8.105   4.584 -0.5440 -0.8659 -1.2701
  589MOL0     H79488   6.467   8.020   4.453  2.1867 -2.5184 -1.0822
  589MOL0     H79489   6.623   8.170   4.558  2.2576 -0.6955 -2.5909
  589MOL0     H79490   6.616   8.066   4.712  2.4661 -2.2758  0.8706
  589MOL0     H79491   6.739   8.034   4.438  0.9154 -3.1190  0.1901
  589MOL0     H79492   6.696   7.890   4.513 -2.3289  1.2116 -1.3794
  589MOL0     H79493   6.930   7.922   4.580  1.2203 -1.1960  0.1994
  589MOL0     H79494   6.904   8.099   4.585  3.8106 -2.5447 -2.4059
  589MOL0     H79495   5.974   7.456   4.883 -0.1263  0.9017  1.3924
  589MOL0     H79496   5.788   7.478   5.040 -1.0395 -1.7286 -1.9535
  589MOL0     H79497   5.532   7.594   5.427 -0.1387 -0.5149 -0.4218
  589MOL0     H79498   5.325   7.634   5.546  1.4615 -2.4727  0.0764
  589MOL0     H79499   4.138   8.348   5.691  3.1709 -2.8281 -1.8108
  589MOL0     H79500   3.892   8.390   5.637  1.7834  1.5128 -0.6338
  589MOL0     H79501   3.567   8.393   5.614  0.0450 -1.0356  1.8081
  589MOL0     H79502   3.346   8.506   5.606 -0.4706  0.3448 -0.3345
  589MOL0     H79503   3.156   8.575   5.574  0.5659  1.5038  2.0684
  589MOL0     H79504   3.077   8.510   5.724  1.6103 -2.3274 -0.5203
  589MOL0     H79505   2.940   8.669   5.585 -2.6757  0.7522 -0.4289
  589MOL0     H79506   2.876   8.532   5.654 -1.0956  2.0785  0.3000
  589MOL0     H79507   2.873   8.408   5.438  0.0119 -0.2545 -1.1387
  589MOL0     H79508   2.956   8.541   5.353  0.4556  1.1569  0.8081
  589MOL0     H79509   2.711   8.639   5.506 -1.1632  2.0352 -1.3962
  589MOL0     H79510   2.789   8.677   5.352 -5.1075  0.5752 -3.9546
  589MOL0     H79511   2.496   8.384   5.245  1.1958  1.5693 -4.6468
  589MOL0     H79512   3.148   8.144   5.495 -0.2159  0.5254 -1.8824
  589MOL0     H79513   3.309   7.912   5.553  0.0041  0.2065  0.8624
  589MOL0     H79514   3.293   8.006   5.395 -1.5932  3.7174  2.8605
  589MOL0     H79515   3.448   7.928   5.452 -0.6217 -1.5066  0.2499
  590MOL0     O79516   5.955   4.656   3.487  0.4225  0.0275 -0.3897
  590MOL0     C79517   5.926   4.537   3.474 -0.2119  0.3697  0.0847
  590MOL0     O79518   6.014   4.443   3.442  0.9484 -0.2221 -0.4320
  590MOL0     C79519   6.146   4.471   3.422  0.1150  0.0142  0.7450
  590MOL0     C79520   6.188   4.456   3.292  0.4321 -1.2854 -0.8496
  590MOL0     C79521   6.319   4.494   3.253  0.6220 -0.3759 -0.2026
  590MOL0     C79522   6.403   4.543   3.343  0.3298  0.0449  0.1952
  590MOL0     O79523   6.533   4.564   3.316  0.3607 -0.3181 -0.6096
  590MOL0     C79524   6.591   4.526   3.190  0.4629  0.3619 -0.6770
  590MOL0     C79525   6.740   4.502   3.207  0.0808  0.1966 -0.3078
  590MOL0     C79526   6.774   4.436   3.339 -0.0836 -0.5769 -1.2064
  590MOL0     C79527   6.919   4.444   3.369 -0.1798  0.3261  0.5748
  590MOL0     C79528   6.974   4.340   3.462  0.9778 -0.1107  0.1879
  590MOL0     C79529   6.933   4.378   3.608  0.9182  0.2695  0.2186
  590MOL0     C79530   6.967   4.266   3.705  0.1725  0.3971 -1.1424
  590MOL0     C79531   7.116   4.248   3.741  0.4699 -0.1141 -0.4173
  590MOL0     N79532   7.155   4.111   3.732 -0.1721  0.5905  0.6449
  590MOL0     C79533   7.230   4.056   3.631 -0.4454  0.7516  0.8147
  590MOL0     C79534   7.244   3.919   3.658  0.1716  0.8481  0.2300
  590MOL0     C79535   7.329   3.809   3.600  0.3586  0.1970  0.6381
  590MOL0     C79536   7.471   3.825   3.659  0.8114  0.9022 -0.0844
  590MOL0     C79537   7.469   3.751   3.797 -0.4696 -0.0989 -0.2979
  590MOL0     C79538   7.508   3.599   3.798 -0.7273 -0.2883  0.3148
  590MOL0     O79539   7.634   3.585   3.719  0.2104  0.4668 -0.3692
  590MOL0     C79540   7.728   3.505   3.773  0.1659 -0.1645  0.8613
  590MOL0     C79541   7.851   3.560   3.782 -0.0180  0.0248  0.3831
  590MOL0     C79542   7.941   3.493   3.862 -0.0166  0.7143 -0.3966
  590MOL0     C79543   7.908   3.365   3.921  0.4073 -0.4486 -0.1958
  590MOL0     C79544   8.013   3.291   4.004 -1.1620  0.8765  1.6115
  590MOL0     O79545   8.126   3.357   4.040  1.0070 -0.7874  0.1315
  590MOL0     C79546   8.227   3.306   4.110 -0.4985  0.8353 -0.1579
  590MOL0     C79547   8.285   3.175   4.077  0.3719 -0.7582 -0.0994
  590MOL0     C79548   8.399   3.124   4.150  1.0385  0.3164 -0.1065
  590MOL0     C79549   8.448   3.197   4.249 -0.4787 -0.2085 -0.3170
  590MOL0     O79550   8.552   3.138   4.319 -0.1682 -0.0632 -0.2915
  590MOL0     C79551   8.669   3.229   4.327  0.0750  0.2602 -0.0711
  590MOL0     C79552   8.761   3.152   4.426  0.7773 -0.5720  0.6794
  590MOL0     C79553   8.910   3.198   4.411  0.8278 -0.3882 -0.9882
  590MOL0     C79554   8.955   3.268   4.547 -0.2806  0.3310  0.6298
  590MOL0     C79555   9.091   3.329   4.529  0.2526  0.4712 -0.6553
  590MOL0     C79556   9.148   3.395   4.653 -0.7857  0.0706  0.1531
  590MOL0     C79557   9.093   3.534   4.664 -0.2808 -0.3878  0.2566
  590MOL0     C79558   9.200   3.641   4.669 -0.3168  0.1456  0.2929
  590MOL0    Cl79559   9.299   3.647   4.505 -0.1983 -0.5826  0.5660
  590MOL0     C79560   8.395   3.317   4.282 -0.1997  0.8777 -0.1165
  590MOL0     C79561   8.283   3.368   4.221 -0.3714 -0.0476  0.2523
  590MOL0     O79562   7.985   3.177   4.045 -0.2364  0.5206  0.1253
  590MOL0     C79563   7.782   3.311   3.902 -0.2188 -0.2469 -0.1574
  590MOL0     C79564   7.687   3.384   3.825  0.1407 -0.0269  0.3363
  590MOL0     N79565   7.157   3.903   3.771  0.1263 -0.0774  0.3855
  590MOL0     N79566   7.106   4.012   3.815 -0.2764  0.2090 -0.4454
  590MOL0     C79567   6.357   4.565   3.465  1.0564 -0.0015 -0.3618
  590MOL0     C79568   6.233   4.521   3.517  0.1355  0.8876  1.3024
  590MOL0     C79569   5.779   4.490   3.483 -0.2154 -0.5699 -0.3355
  590MOL0     C79570   5.751   4.357   3.508  1.0742 -0.1939  0.0553
  590MOL0     C79571   5.613   4.314   3.504  0.2929 -0.6853 -0.5509
  590MOL0     C79572   5.509   4.406   3.479  0.1167  0.7435  0.5228
  590MOL0     O79573   5.376   4.371   3.454 -0.0329 -0.9877  0.0831
  590MOL0     C79574   5.319   4.239   3.477 -0.1501  0.2773 -0.4041
  590MOL0     C79575   5.294   4.217   3.628  0.3568  0.1534  1.2106
  590MOL0     C79576   5.185   4.316   3.690  0.7233 -0.3470 -0.2970
  590MOL0     C79577   5.193   4.335   3.843  0.4077  0.2549  0.5116
  590MOL0     C79578   5.181   4.216   3.921 -0.2035 -0.6474 -0.4586
  590MOL0     C79579   5.156   4.130   3.992  1.0455  1.1104 -0.6117
  590MOL0     C79580   5.543   4.534   3.473  0.1179  0.8593 -0.0029
  590MOL0     C79581   5.667   4.581   3.478 -0.2920  0.0840 -0.7230
  590MOL0     C79582   5.680   4.726   3.465  0.3773 -0.1011 -0.9724
  590MOL0     H79583   6.115   4.424   3.218  1.7382 -1.0012 -2.3354
  590MOL0     H79584   6.342   4.471   3.149 -2.3791  1.6697 -1.4712
  590MOL0     H79585   6.549   4.433   3.151 -0.8624  0.0073  1.4040
  590MOL0     H79586   6.570   4.608   3.121 -0.2589  0.1560 -0.7074
  590MOL0     H79587   6.790   4.599   3.205 -0.1918  0.5259  3.0260
  590MOL0     H79588   6.777   4.444   3.121 -3.0248 -1.8494 -0.4250
  590MOL0     H79589   6.727   4.338   3.332  0.0770 -0.5557 -3.0365
  590MOL0     H79590   6.734   4.496   3.421  0.7457 -2.4112  0.6387
  590MOL0     H79591   6.969   4.411   3.277  1.2947  1.6053  0.8883
  590MOL0     H79592   6.944   4.548   3.390 -0.1657  0.5074 -0.2883
  590MOL0     H79593   6.926   4.243   3.446 -0.3646  0.0401  2.6953
  590MOL0     H79594   7.083   4.351   3.460  1.1551 -1.4315  1.2733
  590MOL0     H79595   6.988   4.470   3.632  3.0782 -0.3701 -1.8855
  590MOL0     H79596   6.826   4.399   3.617  0.5132 -0.5622 -2.0728
  590MOL0     H79597   6.933   4.169   3.667 -0.0878  0.3230 -0.7245
  590MOL0     H79598   6.913   4.289   3.796  1.9671 -2.0922  0.7016
  590MOL0     H79599   7.175   4.304   3.667  1.2150 -2.5136 -1.7626
  590MOL0     H79600   7.126   4.279   3.845 -1.9179  0.2564 -0.2410
  590MOL0     H79601   7.284   4.112   3.555 -2.3174  0.4051 -0.8250
  590MOL0     H79602   7.282   3.711   3.614  0.3291 -0.0522 -0.9870
  590MOL0     H79603   7.336   3.823   3.492  0.4125  3.4750  0.9764
  590MOL0     H79604   7.554   3.802   3.591  0.6454  0.5951 -0.1861
  590MOL0     H79605   7.493   3.931   3.675  0.4692  1.2985 -2.0292
  590MOL0     H79606   7.366   3.755   3.834 -0.3730 -1.8514  0.2875
  590MOL0     H79607   7.535   3.810   3.862 -0.2225  0.4654 -1.0464
  590MOL0     H79608   7.429   3.543   3.747 -0.6453  1.8503 -2.4234
  590MOL0     H79609   7.510   3.558   3.899 -3.9106 -0.9743  0.1938
  590MOL0     H79610   7.868   3.658   3.739 -1.1113  0.3135  0.5791
  590MOL0     H79611   8.040   3.538   3.870  0.3170  0.1641 -1.2816
  590MOL0     H79612   8.245   3.107   4.002  0.2458 -0.2667 -0.4823
  590MOL0     H79613   8.439   3.026   4.128  0.8655  0.9731 -3.9267
  590MOL0     H79614   8.726   3.236   4.234  0.1926  1.5414  0.0762
  590MOL0     H79615   8.662   3.333   4.360  2.5414  1.0512 -1.7136
  590MOL0     H79616   8.727   3.175   4.527  0.5950  0.0198  0.4843
  590MOL0     H79617   8.755   3.045   4.401  0.4843 -0.0322 -1.7846
  590MOL0     H79618   8.977   3.112   4.415  0.8421 -0.3562 -0.5476
  590MOL0     H79619   8.912   3.264   4.324 -0.8810 -0.5535 -1.1930
  590MOL0     H79620   8.963   3.192   4.625 -0.4924  0.9607  1.2799
  590MOL0     H79621   8.889   3.350   4.577  2.5026  2.1307  2.3030
  590MOL0     H79622   9.070   3.403   4.451 -1.5530  0.5483 -0.1404
  590MOL0     H79623   9.159   3.250   4.496 -0.4211 -0.1333 -0.6278
  590MOL0     H79624   9.131   3.331   4.740 -0.4430 -1.1839 -0.6668
  590MOL0     H79625   9.257   3.399   4.649 -0.8458  0.7387 -1.4972
  590MOL0     H79626   9.044   3.548   4.761 -0.4126 -0.1512  0.1564
  590MOL0     H79627   9.017   3.551   4.586 -0.4523  0.9780  0.6951
  590MOL0     H79628   9.151   3.739   4.679  0.2357  0.2939  1.8534
  590MOL0     H79629   9.263   3.628   4.758 -0.6151 -2.9442  0.1512
  590MOL0     H79630   8.440   3.373   4.364 -1.9681 -0.1647  1.6538
  590MOL0     H79631   8.259   3.469   4.255  1.9755  0.9642 -0.8726
  590MOL0     H79632   7.756   3.217   3.949 -0.2744  0.4363  1.2457
  590MOL0     H79633   7.588   3.340   3.832  0.0771  0.0779  0.1066
  590MOL0     H79634   6.420   4.614   3.539  1.1550 -3.0165  1.7654
  590MOL0     H79635   6.204   4.546   3.619  1.6175  0.2621  1.9126
  590MOL0     H79636   5.835   4.290   3.526  0.4918 -0.7332  0.8673
  590MOL0     H79637   5.607   4.211   3.537  4.0336 -0.5552  0.9195
  590MOL0     H79638   5.392   4.165   3.444 -2.2649 -2.1563  0.0768
  590MOL0     H79639   5.233   4.237   3.409  2.5881 -0.1757 -4.2380
  590MOL0     H79640   5.391   4.232   3.676  1.6155 -2.0898 -0.4034
  590MOL0     H79641   5.269   4.113   3.651  1.5707 -0.1987  1.0012
  590MOL0     H79642   5.091   4.271   3.659  2.6623 -2.6075 -3.5010
  590MOL0     H79643   5.207   4.414   3.645  0.9578 -0.0182  0.5276
  590MOL0     H79644   5.279   4.392   3.881 -0.2291  2.0556 -0.5915
  590MOL0     H79645   5.105   4.387   3.881 -0.2649  1.0937 -1.9656
  590MOL0     H79646   5.119   4.050   4.053 -0.7876 -0.8772 -3.9917
  590MOL0     H79647   5.460   4.602   3.455 -2.1369 -1.2842  1.6468
  590MOL0     H79648   5.760   4.745   3.394  0.7370 -1.5164 -0.9738
  590MOL0     H79649   5.581   4.766   3.441  0.2086  0.2305  0.1968
  590MOL0     H79650   5.708   4.768   3.562  0.2216 -1.9111 -0.1001
  591MOL0     O79651   6.279   5.952   5.840  0.0391 -0.6881  1.0086
  591MOL0     C79652   6.370   5.873   5.832 -0.0302 -0.9941  0.6867
  591MOL0     O79653   6.357   5.741   5.796  0.3029  0.9220 -0.3955
  591MOL0     C79654   6.238   5.670   5.774 -0.5747 -0.9729  0.3128
  591MOL0     C79655   6.237   5.582   5.662  0.8408  0.3277 -0.4376
  591MOL0     C79656   6.125   5.506   5.630  0.4393  0.4563  0.8499
  591MOL0     C79657   6.006   5.533   5.702 -0.4039 -0.7311 -0.1257
  591MOL0     O79658   5.883   5.464   5.692  0.7835  0.6002  0.1945
  591MOL0     C79659   5.849   5.409   5.555  0.0362 -0.3993  0.1075
  591MOL0     C79660   5.702   5.359   5.570  0.5938  0.4113 -0.0364
  591MOL0     C79661   5.599   5.480   5.563 -0.0764  0.2189  0.8262
  591MOL0     C79662   5.489   5.470   5.668  1.0890  0.5465 -0.5045
  591MOL0     C79663   5.449   5.593   5.730  0.8912 -0.2458 -0.0001
  591MOL0     C79664   5.557   5.672   5.801 -1.0186  0.1091  0.8013
  591MOL0     C79665   5.603   5.603   5.925  0.0242  0.6453 -0.0080
  591MOL0     C79666   5.643   5.697   6.034  0.2644 -0.6651 -0.3466
  591MOL0     N79667   5.539   5.734   6.130  0.4894  0.5001 -0.2001
  591MOL0     C79668   5.536   5.704   6.265 -0.4808 -0.5219  0.1674
  591MOL0     C79669   5.413   5.740   6.308 -0.4343  0.3650  1.7387
  591MOL0     C79670   5.355   5.726   6.445  0.4818 -0.1229  0.0897
  591MOL0     C79671   5.411   5.827   6.541  0.1917  0.8194  0.0014
  591MOL0     C79672   5.409   5.975   6.497 -0.8622  0.1747 -0.5876
  591MOL0     C79673   5.509   6.073   6.570  0.7263 -0.1687 -0.1159
  591MOL0     O79674   5.510   6.049   6.711  0.4307  0.2334 -0.2434
  591MOL0     C79675   5.626   6.051   6.776 -0.2776 -0.6017 -0.1754
  591MOL0     C79676   5.747   6.002   6.724 -0.1931  0.9040  0.3759
  591MOL0     C79677   5.872   6.027   6.792 -0.4447  0.0577 -0.1574
  591MOL0     C79678   5.869   6.079   6.918 -1.0467 -1.5363 -0.0567
  591MOL0     C79679   6.000   6.096   6.990  0.4251  0.0089 -0.3525
  591MOL0     O79680   6.109   6.061   6.916 -0.4496  0.7480 -0.4153
  591MOL0     C79681   6.241   6.081   6.963  1.0427  0.0271  0.4203
  591MOL0     C79682   6.292   5.976   7.041 -1.0681  0.9464 -1.4389
  591MOL0     C79683   6.425   5.987   7.101 -0.7221  0.0082  0.2323
  591MOL0     C79684   6.506   6.102   7.075 -0.0612 -0.8534 -0.7793
  591MOL0     O79685   6.635   6.094   7.111  0.4220 -0.1193 -0.0026
  591MOL0     C79686   6.730   6.194   7.072  0.1542 -0.4606  0.4309
  591MOL0     C79687   6.878   6.144   7.111 -0.2922  0.2566  0.0016
  591MOL0     C79688   6.899   6.148   7.261  0.1895 -0.1728  0.4121
  591MOL0     C79689   6.962   6.283   7.304 -0.0340  0.0031  0.7602
  591MOL0     C79690   6.949   6.307   7.453  0.5908  0.7833 -0.4263
  591MOL0     C79691   7.062   6.399   7.518 -0.3760  0.0592  1.9682
  591MOL0     C79692   7.059   6.411   7.669  0.6629  0.1290  0.1282
  591MOL0     C79693   7.102   6.287   7.738 -0.4996 -0.6017 -0.0986
  591MOL0    Cl79694   7.082   6.332   7.910 -0.3224  0.4528  0.5830
  591MOL0     C79695   6.452   6.208   7.004  0.2464  0.3616  0.2834
  591MOL0     C79696   6.325   6.189   6.947  0.5028  0.0746 -0.1650
  591MOL0     O79697   6.000   6.141   7.103 -0.5222  0.1982  0.3790
  591MOL0     C79698   5.746   6.117   6.969 -0.4240 -0.2616 -0.0939
  591MOL0     C79699   5.625   6.104   6.900  0.0093  0.6431  0.4825
  591MOL0     N79700   5.350   5.805   6.197  0.0901  0.5972  0.2844
  591MOL0     N79701   5.430   5.805   6.093 -0.5345 -0.1812  0.1064
  591MOL0     C79702   6.007   5.629   5.803 -0.5201  0.0858 -0.1705
  591MOL0     C79703   6.125   5.699   5.830  1.3038  0.1266 -0.0226
  591MOL0     C79704   6.505   5.939   5.843  0.3984 -0.4273 -0.1697
  591MOL0     C79705   6.549   6.059   5.781  0.0303  0.0644 -0.4496
  591MOL0     C79706   6.685   6.091   5.776 -0.0420  0.5066  0.2871
  591MOL0     C79707   6.778   6.015   5.848  0.1662 -0.8136  0.5541
  591MOL0     O79708   6.910   6.050   5.844 -1.0743  0.3089  0.3472
  591MOL0     C79709   6.955   6.126   5.964  0.1750  0.0538 -0.0541
  591MOL0     C79710   7.081   6.208   5.931  0.2420  0.0981 -0.8233
  591MOL0     C79711   7.041   6.322   5.835  0.0156 -0.2064  0.6705
  591MOL0     C79712   7.016   6.453   5.904 -0.7306 -1.2546 -0.1942
  591MOL0     C79713   6.897   6.466   5.991  0.0925  0.6718 -0.8279
  591MOL0     C79714   6.801   6.504   6.053  0.8590  0.0267  0.3822
  591MOL0     C79715   6.743   5.910   5.921  0.9251  0.0863  0.0000
  591MOL0     C79716   6.602   5.876   5.929  0.4768  1.0404  0.4360
  591MOL0     C79717   6.549   5.777   6.029 -0.1465  0.8754  0.3655
  591MOL0     H79718   6.335   5.565   5.619  1.6879  2.5966  0.4148
  591MOL0     H79719   6.134   5.418   5.568 -0.4176  0.0958  1.2208
  591MOL0     H79720   5.844   5.491   5.483  1.8478 -0.2043  0.1649
  591MOL0     H79721   5.921   5.333   5.522  0.2813 -1.6729  3.2774
  591MOL0     H79722   5.696   5.316   5.670  0.0445 -0.1731 -0.3163
  591MOL0     H79723   5.688   5.271   5.507  0.0581 -1.2940  2.3360
  591MOL0     H79724   5.551   5.460   5.467  2.0321 -1.7097  0.0664
  591MOL0     H79725   5.657   5.572   5.556  0.0465  0.3260  2.7874
  591MOL0     H79726   5.406   5.417   5.621  2.4423 -2.8969  0.6784
  591MOL0     H79727   5.519   5.413   5.756 -0.5120 -0.5304 -0.6120
  591MOL0     H79728   5.409   5.665   5.658 -0.2784 -0.9170 -0.0500
  591MOL0     H79729   5.367   5.565   5.798 -0.8219 -1.6513 -2.4715
  591MOL0     H79730   5.647   5.674   5.738 -0.2346 -5.2186  1.3066
  591MOL0     H79731   5.524   5.774   5.821  1.1351  0.3278  3.9418
  591MOL0     H79732   5.671   5.520   5.903 -2.3543 -0.7265 -2.9455
  591MOL0     H79733   5.524   5.536   5.961  2.0940 -0.9820  1.8483
  591MOL0     H79734   5.725   5.640   6.077 -1.4893 -2.4317  0.8202
  591MOL0     H79735   5.676   5.795   5.997  0.1542  0.3698  2.1250
  591MOL0     H79736   5.608   5.658   6.331 -0.6332 -0.1260  0.6112
  591MOL0     H79737   5.249   5.745   6.423  0.2255 -0.8291  0.6934
  591MOL0     H79738   5.355   5.623   6.481 -0.4979 -0.4029 -0.6537
  591MOL0     H79739   5.359   5.816   6.637  0.8176 -1.2192  0.1446
  591MOL0     H79740   5.515   5.800   6.557  0.6857  2.6205 -0.0006
  591MOL0     H79741   5.310   6.021   6.515  0.4769  2.5042  1.5626
  591MOL0     H79742   5.426   5.989   6.390  0.6473 -0.3514 -0.4347
  591MOL0     H79743   5.478   6.174   6.541 -0.5128 -0.8211 -1.1810
  591MOL0     H79744   5.606   6.052   6.524  1.2350  2.1280 -0.1975
  591MOL0     H79745   5.750   5.948   6.630  2.2318  0.9827  0.3505
  591MOL0     H79746   5.963   5.994   6.743  0.2551  1.1164  0.3850
  591MOL0     H79747   6.245   5.879   7.057  2.6708 -0.9701 -1.0368
  591MOL0     H79748   6.458   5.897   7.152 -1.1427 -1.9211 -2.6079
  591MOL0     H79749   6.736   6.202   6.963 -3.3164 -0.0747  0.1405
  591MOL0     H79750   6.702   6.295   7.105 -2.1857 -0.8751 -0.0865
  591MOL0     H79751   6.867   6.038   7.087 -0.9505  0.2317  0.4086
  591MOL0     H79752   6.948   6.212   7.061 -1.8055  2.0250  0.1607
  591MOL0     H79753   6.811   6.123   7.322 -0.2620  0.3381 -0.0277
  591MOL0     H79754   6.969   6.069   7.289 -1.9930 -2.8019 -1.0571
  591MOL0     H79755   6.928   6.355   7.229  0.8377  0.3783  0.7227
  591MOL0     H79756   7.068   6.289   7.281 -0.5737  0.4842 -1.8944
  591MOL0     H79757   6.953   6.210   7.503 -1.3010  0.6815 -0.4075
  591MOL0     H79758   6.849   6.351   7.457 -0.2395 -1.0523  0.5809
  591MOL0     H79759   7.158   6.358   7.487 -0.9343  0.2363 -0.1350
  591MOL0     H79760   7.042   6.501   7.481  0.4782  0.2660  2.0692
  591MOL0     H79761   6.953   6.431   7.691 -0.1039 -0.6751 -2.5037
  591MOL0     H79762   7.126   6.492   7.697  1.7356 -1.4097  2.3720
  591MOL0     H79763   7.050   6.196   7.704  0.9928 -1.6388  0.2818
  591MOL0     H79764   7.207   6.277   7.707 -1.0240  1.6444 -2.9621
  591MOL0     H79765   6.517   6.294   6.992 -1.5759  1.5019 -2.1817
  591MOL0     H79766   6.292   6.284   6.905  0.4759 -0.5906 -1.7135
  591MOL0     H79767   5.745   6.156   7.071  4.8968  2.0613 -0.5547
  591MOL0     H79768   5.529   6.131   6.943 -1.0072 -1.6597 -0.1990
  591MOL0     H79769   5.916   5.644   5.861 -0.7291  2.6492 -1.0173
  591MOL0     H79770   6.108   5.758   5.920  1.5591 -0.1533  0.2127
  591MOL0     H79771   6.484   6.119   5.719  1.2464  1.9897  0.0334
  591MOL0     H79772   6.719   6.181   5.726 -3.9490  0.4388 -2.9907
  591MOL0     H79773   6.979   6.044   6.033  3.0654 -1.2087 -2.3107
  591MOL0     H79774   6.875   6.184   6.012  0.5498 -0.7056  1.5864
  591MOL0     H79775   7.165   6.145   5.900  0.8412  0.7013 -0.4490
  591MOL0     H79776   7.114   6.239   6.031 -0.3699 -1.8203  0.0258
  591MOL0     H79777   6.958   6.290   5.770  0.6232  2.1687 -1.4745
  591MOL0     H79778   7.122   6.332   5.762 -0.0329  0.2147  0.6698
  591MOL0     H79779   7.106   6.478   5.961 -0.4363 -1.5295 -0.5359
  591MOL0     H79780   7.014   6.535   5.831 -0.5255 -0.0440  1.1142
  591MOL0     H79781   6.718   6.532   6.115  1.1618 -1.6059  1.5749
  591MOL0     H79782   6.814   5.868   5.991  0.7350  1.3413  0.9822
  591MOL0     H79783   6.491   5.694   5.986  0.3461  0.8042 -0.1707
  591MOL0     H79784   6.636   5.735   6.081  0.2597  1.2368 -0.0267
  591MOL0     H79785   6.478   5.824   6.098  0.1756  1.7871  0.0821
  592MOL0     O79786   6.857   9.812   8.712  0.2896  0.1618 -0.3497
  592MOL0     C79787   6.759   9.819   8.793  0.2934 -0.1744  0.2255
  592MOL0     O79788   6.756   9.863   8.920 -0.5852 -0.8490 -0.3819
  592MOL0     C79789   6.873   9.905   8.969  0.4073  1.3045 -0.9887
  592MOL0     C79790   6.956   9.812   9.039  0.7395 -0.0329  0.4263
  592MOL0     C79791   7.085   9.853   9.071  0.2077 -0.3707 -1.4763
  592MOL0     C79792   7.128   9.982   9.060  0.1538 -0.4554 -0.1264
  592MOL0     O79793   7.242  10.044   9.113 -0.0172 -0.3123  0.5304
  592MOL0     C79794   7.328   9.963   9.186  0.1941  0.4698 -0.6528
  592MOL0     C79795   7.473  10.006   9.164  0.0269  0.5382 -0.1278
  592MOL0     C79796   7.505  10.027   9.019 -0.6163  0.3759  1.0282
  592MOL0     C79797   7.657  10.046   8.996 -0.1095 -0.4092 -0.2224
  592MOL0     C79798   7.698  10.100   8.848  0.3682  0.1448 -0.3543
  592MOL0     C79799   7.838  10.157   8.853 -0.1410  0.5037  0.3706
  592MOL0     C79800   7.870  10.220   8.717  1.0433 -0.2904  0.3099
  592MOL0     C79801   7.930  10.361   8.737  0.3236  0.0614 -0.7826
  592MOL0     N79802   8.066  10.359   8.766  0.7720 -1.2901  0.5766
  592MOL0     C79803   8.165  10.347   8.672  0.7045  0.6300 -1.1376
  592MOL0     C79804   8.283  10.348   8.741 -0.3798  0.1976  0.2575
  592MOL0     C79805   8.428  10.341   8.689 -0.4735 -0.0437  0.7380
  592MOL0     C79806   8.535  10.386   8.796 -0.6363 -1.1555  0.5597
  592MOL0     C79807   8.666  10.411   8.726 -0.4072 -0.4300 -0.3586
  592MOL0     C79808   8.774  10.456   8.828  0.4752  0.8411 -0.3590
  592MOL0     O79809   8.813  10.340   8.907  0.6250 -0.0186 -0.5820
  592MOL0     C79810   8.882  10.339   9.014 -0.3383  0.0534 -0.6613
  592MOL0     C79811   8.905  10.204   9.065 -0.4553  0.4425 -0.1764
  592MOL0     C79812   8.975  10.200   9.184  0.4849 -0.0322  0.6256
  592MOL0     C79813   9.033  10.314   9.244 -0.3610 -0.1100 -0.0059
  592MOL0     C79814   9.105  10.312   9.371  0.2132 -1.2594  0.1565
  592MOL0     O79815   9.119  10.186   9.434 -0.7409 -0.7017  0.6441
  592MOL0     C79816   9.182  10.167   9.550  0.4132  0.0081 -0.4833
  592MOL0     C79817   9.120  10.143   9.668 -0.6925  0.6766 -0.2668
  592MOL0     C79818   9.187  10.141   9.794  0.1494  1.0842 -0.0943
  592MOL0     C79819   9.324  10.169   9.796  0.3707 -0.6502 -0.4927
  592MOL0     O79820   9.390  10.157   9.915  0.6242 -0.2763 -0.8570
  592MOL0     C79821   9.522  10.204   9.932 -0.7524  0.2833  0.9959
  592MOL0     C79822   9.555  10.167  10.073 -0.7467  0.3446 -0.1270
  592MOL0     C79823   9.685  10.222  10.133 -0.1725  0.4662  0.0031
  592MOL0     C79824   9.793  10.240  10.029 -0.3656  0.0572 -0.0742
  592MOL0     C79825   9.920  10.276  10.101 -0.2672  0.4877  0.6432
  592MOL0     C79826  10.011  10.155  10.155 -0.0871 -0.2450  0.0952
  592MOL0     C79827  10.101  10.205  10.277  0.1530 -0.0075 -0.9032
  592MOL0     C79828  10.217  10.298  10.245 -0.8867  0.3072 -0.1579
  592MOL0    Cl79829  10.356  10.204  10.203  0.0371  0.4169 -0.3420
  592MOL0     C79830   9.389  10.207   9.670 -0.0040  0.1319 -0.2148
  592MOL0     C79831   9.317  10.195   9.550 -0.3212 -0.1334  0.7932
  592MOL0     O79832   9.148  10.419   9.415  0.3399 -0.3274  0.0135
  592MOL0     C79833   9.028  10.442   9.185  0.4314  0.3942  0.4378
  592MOL0     C79834   8.951  10.452   9.067  0.7065 -0.0933 -0.6222
  592MOL0     N79835   8.252  10.348   8.874 -0.0668 -0.5679 -0.6196
  592MOL0     N79836   8.125  10.358   8.884  0.7310 -0.2315 -0.2929
  592MOL0     C79837   7.038  10.079   9.004 -0.3508  0.4116 -0.0396
  592MOL0     C79838   6.922  10.036   8.950 -0.2121  1.1007  0.0311
  592MOL0     C79839   6.630   9.758   8.733 -0.6014 -0.6389  0.1511
  592MOL0     C79840   6.537   9.717   8.831 -0.6665  0.0006  0.1608
  592MOL0     C79841   6.414   9.653   8.816 -1.0289 -0.4410  1.2388
  592MOL0     C79842   6.384   9.616   8.683 -0.4225  0.8390 -0.4543
  592MOL0     O79843   6.271   9.546   8.659  0.4445  0.4731 -0.5575
  592MOL0     C79844   6.223   9.447   8.747 -0.1689 -0.7633 -0.0907
  592MOL0     C79845   6.168   9.333   8.666  0.4225 -1.0639 -0.2996
  592MOL0     C79846   6.126   9.206   8.744 -0.5204 -0.5654 -0.0920
  592MOL0     C79847   6.233   9.094   8.749 -0.4787  0.1280  0.8586
  592MOL0     C79848   6.196   8.960   8.785  0.1277  0.9928 -0.4409
  592MOL0     C79849   6.163   8.842   8.800 -1.7377 -0.5815  0.0913
  592MOL0     C79850   6.473   9.644   8.579 -0.2695 -0.3400  0.7251
  592MOL0     C79851   6.597   9.720   8.602  0.2009  0.3434 -0.1766
  592MOL0     C79852   6.686   9.751   8.480  1.0830  0.7043 -1.3149
  592MOL0     H79853   6.923   9.709   9.034 -4.2696  1.3533  0.1561
  592MOL0     H79854   7.146   9.769   9.102 -2.6619 -1.7885  0.8433
  592MOL0     H79855   7.321   9.964   9.295  1.7936  2.6856 -0.4819
  592MOL0     H79856   7.328   9.860   9.149 -1.6247  0.6749 -1.3116
  592MOL0     H79857   7.536   9.930   9.211 -0.8132  0.5488  1.0540
  592MOL0     H79858   7.489  10.096   9.223 -2.1695 -0.0861  1.5645
  592MOL0     H79859   7.458  10.117   8.976 -1.4864  0.8979  2.9727
  592MOL0     H79860   7.475   9.935   8.968 -0.8049  0.4006  1.0900
  592MOL0     H79861   7.700  10.117   9.066 -0.0879  1.3247 -1.9213
  592MOL0     H79862   7.710   9.953   9.018  0.5420  0.2259  0.9977
  592MOL0     H79863   7.685  10.030   8.764 -2.4538  1.7350 -1.3825
  592MOL0     H79864   7.625  10.177   8.823  0.0733  0.4313  1.2948
  592MOL0     H79865   7.847  10.227   8.937  0.6716 -0.2237  0.8963
  592MOL0     H79866   7.910  10.077   8.872 -0.8107 -0.2974 -0.3670
  592MOL0     H79867   7.778  10.218   8.658  0.7593 -0.3218  0.7545
  592MOL0     H79868   7.950  10.165   8.666  1.9102  3.3063 -2.6962
  592MOL0     H79869   7.913  10.415   8.644 -0.3009  0.5170 -0.4137
  592MOL0     H79870   7.874  10.424   8.808  0.3684 -0.5749 -0.1687
  592MOL0     H79871   8.153  10.318   8.568 -3.5393  1.4082 -1.0467
  592MOL0     H79872   8.454  10.238   8.660 -1.3271 -0.8090  2.5166
  592MOL0     H79873   8.427  10.405   8.601 -0.4833  2.0753  2.2157
  592MOL0     H79874   8.493  10.473   8.848 -1.8095 -1.4825  0.1739
  592MOL0     H79875   8.542  10.310   8.875 -2.9460 -1.6407  0.3542
  592MOL0     H79876   8.653  10.486   8.648  3.5204 -1.9796 -2.7985
  592MOL0     H79877   8.708  10.322   8.679 -0.0040 -1.8787  2.5529
  592MOL0     H79878   8.714  10.523   8.891 -2.9680 -1.0703 -1.3424
  592MOL0     H79879   8.870  10.496   8.793  2.4232  0.1007  3.5978
  592MOL0     H79880   8.860  10.127   9.003 -0.8346  1.9911 -1.8766
  592MOL0     H79881   8.983  10.115   9.251 -0.3308  0.0279  0.8077
  592MOL0     H79882   9.015  10.116   9.663 -0.4477 -0.0559 -1.8696
  592MOL0     H79883   9.135  10.102   9.880 -0.0298  0.3189 -0.5350
  592MOL0     H79884   9.589  10.148   9.866 -1.5043 -0.6067  0.9649
  592MOL0     H79885   9.529  10.313   9.923  0.7345  0.1105 -0.4679
  592MOL0     H79886   9.472  10.201  10.136 -0.8393  1.3575 -0.7652
  592MOL0     H79887   9.579  10.060  10.075  0.0047  0.4740 -1.2065
  592MOL0     H79888   9.665  10.312  10.191 -0.2175  0.7287 -0.4108
  592MOL0     H79889   9.716  10.149  10.209  1.6560  3.2828  2.1441
  592MOL0     H79890   9.768  10.328   9.969 -1.3310  1.1046  1.7628
  592MOL0     H79891   9.793  10.146   9.974 -0.0999 -1.5600  2.5018
  592MOL0     H79892   9.901  10.340  10.187  2.0904 -0.7701  2.2323
  592MOL0     H79893   9.986  10.336  10.037 -0.1542  0.0858  0.3744
  592MOL0     H79894   9.948  10.072  10.189  2.3002 -1.4849  1.8154
  592MOL0     H79895  10.076  10.110  10.080 -1.2025 -3.2849  0.8026
  592MOL0     H79896  10.124  10.123  10.346  1.4406  1.4119  0.4292
  592MOL0     H79897  10.033  10.262  10.341 -0.9456  0.7778 -2.6964
  592MOL0     H79898  10.207  10.358  10.154  4.5463 -0.9153 -1.9386
  592MOL0     H79899  10.241  10.369  10.325 -1.0641  0.9447 -0.6543
  592MOL0     H79900   9.497  10.218   9.668  0.1241 -1.1177 -1.2109
  592MOL0     H79901   9.358  10.212   9.451  1.5313  0.7174  1.6580
  592MOL0     H79902   9.074  10.538   9.207  0.5173 -0.0020  2.1797
  592MOL0     H79903   8.928  10.551   9.028  0.1458  0.6756  1.5082
  592MOL0     H79904   7.062  10.184   9.001  0.8521  0.1346 -0.6741
  592MOL0     H79905   6.859  10.112   8.903  0.3507  1.0120 -0.9052
  592MOL0     H79906   6.555   9.746   8.934  1.8101  0.5321 -0.3502
  592MOL0     H79907   6.350   9.641   8.902  2.0262  0.4127  3.8393
  592MOL0     H79908   6.144   9.501   8.801  2.1182  2.6253  0.1981
  592MOL0     H79909   6.307   9.419   8.811 -1.8747 -0.6072  2.3835
  592MOL0     H79910   6.242   9.303   8.591  0.3023  1.3517 -1.4631
  592MOL0     H79911   6.082   9.370   8.610 -0.2921 -1.8580  0.2357
  592MOL0     H79912   6.034   9.177   8.691 -0.9779  0.2962  0.2021
  592MOL0     H79913   6.098   9.241   8.844  1.6836  1.2595 -0.0355
  592MOL0     H79914   6.265   9.085   8.645  1.0300 -1.6427  1.4261
  592MOL0     H79915   6.315   9.122   8.816  0.1370 -0.2010  0.2598
  592MOL0     H79916   6.129   8.740   8.802 -1.0805 -0.7994  1.9683
  592MOL0     H79917   6.445   9.599   8.485  0.1921  0.0663  0.3860
  592MOL0     H79918   6.786   9.722   8.514 -0.1047  0.7828  2.7722
  592MOL0     H79919   6.641   9.692   8.400 -2.5153  1.4383 -0.0100
  592MOL0     H79920   6.682   9.860   8.465 -2.1793  0.9074  0.2160
  593MOL0     O79921   4.730   2.045   7.386 -0.3092  0.4358  0.6555
  593MOL0     C79922   4.693   2.120   7.295  0.2920 -0.5923 -0.3676
  593MOL0     O79923   4.730   2.255   7.288  0.5438 -0.3655 -0.4991
  593MOL0     C79924   4.846   2.287   7.354 -0.2193  0.0180 -0.3298
  593MOL0     C79925   4.968   2.207   7.356 -0.4753 -0.0409  0.0737
  593MOL0     C79926   5.082   2.256   7.430  0.2690 -0.1081 -0.2361
  593MOL0     C79927   5.071   2.373   7.506  0.2416 -0.4292 -0.5983
  593MOL0     O79928   5.181   2.405   7.584  0.4575  0.0918  0.6791
  593MOL0     C79929   5.171   2.460   7.716  0.3657 -1.1799  0.4241
  593MOL0     C79930   5.292   2.429   7.801 -0.1715  0.2257 -0.8237
  593MOL0     C79931   5.278   2.520   7.923 -0.2389  0.1357 -0.6579
  593MOL0     C79932   5.388   2.482   8.022  0.6500 -0.1287 -0.3208
  593MOL0     C79933   5.396   2.599   8.117 -0.1958  0.6134 -0.1069
  593MOL0     C79934   5.481   2.701   8.048  0.0233 -0.2973  0.8416
  593MOL0     C79935   5.519   2.829   8.117  0.1007 -0.1518  0.2794
  593MOL0     C79936   5.389   2.891   8.180 -0.6867 -1.0095 -0.2897
  593MOL0     N79937   5.429   3.019   8.238  0.3156  0.8048 -0.7791
  593MOL0     C79938   5.514   3.028   8.341  0.1725  0.1134  0.7043
  593MOL0     C79939   5.530   3.158   8.367 -0.0736 -0.2351 -0.0791
  593MOL0     C79940   5.617   3.219   8.474 -0.1866 -0.5854 -0.6499
  593MOL0     C79941   5.769   3.180   8.473  0.2689 -0.5080  0.7357
  593MOL0     C79942   5.843   3.214   8.350  0.4335 -0.5465  0.9540
  593MOL0     C79943   5.987   3.198   8.352 -0.3245 -0.0953 -0.3156
  593MOL0     O79944   6.044   3.132   8.238 -0.8655  0.5658  0.9015
  593MOL0     C79945   6.180   3.143   8.207  0.3968  1.3489 -0.5891
  593MOL0     C79946   6.209   3.095   8.080  0.3411  0.2343  0.5064
  593MOL0     C79947   6.340   3.091   8.024  1.0556  0.4551  0.9067
  593MOL0     C79948   6.439   3.149   8.107 -0.4060  0.5447  0.2869
  593MOL0     C79949   6.577   3.180   8.054 -0.2090  0.1161  0.5067
  593MOL0     O79950   6.683   3.214   8.135  1.1577 -0.3051 -0.6023
  593MOL0     C79951   6.813   3.200   8.091 -0.5182 -0.0291  0.3858
  593MOL0     C79952   6.861   3.257   7.978  0.2803  0.1659  0.4272
  593MOL0     C79953   6.998   3.250   7.953  0.3963  0.2042 -1.7264
  593MOL0     C79954   7.084   3.167   8.035 -0.3902 -0.5273 -0.3512
  593MOL0     O79955   7.212   3.163   7.999 -0.3158  0.2853 -0.3687
  593MOL0     C79956   7.297   3.072   8.069  0.3667 -0.4616 -0.1801
  593MOL0     C79957   7.437   3.114   8.015 -0.2410 -0.1229 -0.2518
  593MOL0     C79958   7.541   3.012   8.075 -0.9665 -0.2045  0.1075
  593MOL0     C79959   7.512   2.873   8.039 -0.2842 -0.1418 -0.5300
  593MOL0     C79960   7.621   2.774   8.073 -0.5667  0.5839  0.6877
  593MOL0     C79961   7.666   2.787   8.216  0.0937  0.5109 -0.0911
  593MOL0     C79962   7.764   2.670   8.247  0.5920 -0.0945  0.2303
  593MOL0     C79963   7.692   2.534   8.256  0.2662 -0.7291 -0.0211
  593MOL0    Cl79964   7.800   2.428   8.354 -0.2967  0.0001  0.0384
  593MOL0     C79965   7.028   3.097   8.138 -0.0935 -0.8093 -0.8087
  593MOL0     C79966   6.895   3.112   8.164 -0.0613  1.0123  0.1119
  593MOL0     O79967   6.583   3.166   7.930 -1.3480 -0.1728  0.2670
  593MOL0     C79968   6.409   3.202   8.232  0.6743  0.2556  0.2151
  593MOL0     C79969   6.281   3.192   8.283 -0.5166  0.4594 -0.0198
  593MOL0     N79970   5.453   3.228   8.272  0.8246 -0.6148  0.5998
  593MOL0     N79971   5.394   3.146   8.186  0.7012 -0.3921 -0.9657
  593MOL0     C79972   4.952   2.448   7.503  0.2673  0.1964 -0.1145
  593MOL0     C79973   4.841   2.402   7.427  0.4512  0.7565  0.2157
  593MOL0     C79974   4.602   2.062   7.193 -0.0798 -0.5993 -0.3696
  593MOL0     C79975   4.563   2.140   7.088  0.0641  0.5459  0.8996
  593MOL0     C79976   4.491   2.098   6.975 -0.4956  0.1361  0.3024
  593MOL0     C79977   4.453   1.967   6.970  0.2788 -0.1742  0.3614
  593MOL0     O79978   4.370   1.932   6.870 -0.5134 -0.5073 -0.0706
  593MOL0     C79979   4.348   1.788   6.834  0.0290 -0.5452  0.0792
  593MOL0     C79980   4.216   1.795   6.759 -0.0025  0.1591  0.1624
  593MOL0     C79981   4.119   1.904   6.824  0.2181 -0.0242 -0.9204
  593MOL0     C79982   3.973   1.879   6.799 -0.4072 -0.1534  0.6094
  593MOL0     C79983   3.888   1.952   6.888 -0.2860 -0.1383 -0.8713
  593MOL0     C79984   3.830   2.022   6.970 -0.4936  0.1047 -0.0058
  593MOL0     C79985   4.481   1.885   7.081  0.6273  1.0575 -0.5002
  593MOL0     C79986   4.557   1.926   7.189 -0.3611 -1.0567  0.5622
  593MOL0     C79987   4.577   1.832   7.305  0.2027 -0.2445 -0.7018
  593MOL0     H79988   4.981   2.114   7.302 -2.4738 -0.6773  0.6222
  593MOL0     H79989   5.176   2.203   7.430  0.9139  0.9851 -1.4248
  593MOL0     H79990   5.174   2.569   7.706 -1.5130 -1.2546 -1.7070
  593MOL0     H79991   5.083   2.423   7.768  0.4646  0.2252  1.6607
  593MOL0     H79992   5.388   2.455   7.756 -0.2781 -0.3164 -1.3796
  593MOL0     H79993   5.289   2.323   7.827  0.0993  0.3407 -0.3093
  593MOL0     H79994   5.182   2.505   7.973  1.4575 -0.8592  2.6218
  593MOL0     H79995   5.278   2.625   7.894 -0.9436 -0.3112 -2.4409
  593MOL0     H79996   5.359   2.390   8.073  0.2846  0.8707  1.3492
  593MOL0     H79997   5.485   2.464   7.976  2.2431 -2.5467  3.5015
  593MOL0     H79998   5.298   2.635   8.150 -0.1428  1.3442 -0.7006
  593MOL0     H79999   5.449   2.549   8.199 -0.1496 -1.9186 -1.5697
  593MOL0     H80000   5.572   2.663   8.001  0.3681  1.0219  0.4134
  593MOL0     H80001   5.422   2.729   7.960 -2.7609 -3.0270  1.6388
  593MOL0     H80002   5.570   2.889   8.041 -2.4957  1.7166 -0.1098
  593MOL0     H80003   5.589   2.801   8.197  0.6973 -3.6035 -1.2815
  593MOL0     H80004   5.326   2.916   8.094  1.4320  0.1214 -1.5892
  593MOL0     H80005   5.337   2.823   8.249 -0.9608 -2.6605 -2.0459
  593MOL0     H80006   5.560   2.944   8.392 -1.4609 -1.1497  0.1648
  593MOL0     H80007   5.613   3.328   8.479  0.2973 -0.5772 -0.3263
  593MOL0     H80008   5.581   3.187   8.573 -2.6140 -0.4777 -1.4288
  593MOL0     H80009   5.821   3.239   8.549  1.0091  2.2954 -1.7785
  593MOL0     H80010   5.777   3.072   8.485 -2.5295 -0.8519  0.3779
  593MOL0     H80011   5.823   3.317   8.317 -1.2641 -0.5574  1.8466
  593MOL0     H80012   5.804   3.149   8.272 -1.1235  2.8421 -1.3322
  593MOL0     H80013   5.997   3.139   8.443 -1.6335 -1.5693 -1.0864
  593MOL0     H80014   6.030   3.297   8.371  0.9516 -0.8395  0.8975
  593MOL0     H80015   6.126   3.048   8.029  0.7021  1.2376 -1.0744
  593MOL0     H80016   6.365   3.047   7.927  1.9950 -1.6988  2.0522
  593MOL0     H80017   6.786   3.311   7.921  1.5715  0.6521 -0.8699
  593MOL0     H80018   7.032   3.292   7.859 -1.4593  3.9678 -0.9049
  593MOL0     H80019   7.296   3.089   8.177  0.3272  1.5724 -0.4458
  593MOL0     H80020   7.273   2.968   8.046 -0.5896 -0.0532 -1.1563
  593MOL0     H80021   7.446   3.128   7.906 -0.6630 -0.1639 -0.2920
  593MOL0     H80022   7.466   3.211   8.058  1.2102 -0.8408  0.4639
  593MOL0     H80023   7.638   3.048   8.040 -0.5458 -1.7615 -0.4101
  593MOL0     H80024   7.550   3.022   8.184 -0.6634 -1.8148  0.2581
  593MOL0     H80025   7.492   2.863   7.932 -1.4855 -1.6699 -0.2066
  593MOL0     H80026   7.422   2.829   8.083 -1.7832  1.2721 -2.0324
  593MOL0     H80027   7.715   2.789   8.020 -1.1560  0.3982 -0.4525
  593MOL0     H80028   7.586   2.672   8.055  0.5531  0.6360 -2.2376
  593MOL0     H80029   7.717   2.883   8.221  1.8168 -0.3708 -0.1371
  593MOL0     H80030   7.583   2.780   8.287  2.6273  0.3791  3.0703
  593MOL0     H80031   7.820   2.698   8.337  0.6862 -0.0468  0.1573
  593MOL0     H80032   7.829   2.670   8.159 -0.2398 -1.0991 -0.3986
  593MOL0     H80033   7.590   2.542   8.293 -0.5885 -0.0262 -2.3280
  593MOL0     H80034   7.689   2.491   8.156 -1.1141  0.9210 -0.7280
  593MOL0     H80035   7.078   3.036   8.213 -1.5013  2.3371  3.0027
  593MOL0     H80036   6.853   3.048   8.241 -0.7626 -1.9816 -2.5377
  593MOL0     H80037   6.488   3.245   8.293 -0.1735 -2.1947  3.3214
  593MOL0     H80038   6.250   3.228   8.381  1.8004 -2.4260  1.9282
  593MOL0     H80039   4.956   2.540   7.561 -1.7325  4.1999 -5.4724
  593MOL0     H80040   4.751   2.463   7.433  1.6108  2.5878 -0.1969
  593MOL0     H80041   4.612   2.236   7.088  0.8654  0.1441  0.8664
  593MOL0     H80042   4.475   2.183   6.909  1.8359  1.1817  0.9701
  593MOL0     H80043   4.337   1.716   6.916 -1.1857 -2.2598 -1.5076
  593MOL0     H80044   4.434   1.747   6.779  0.8008 -4.4312  3.6489
  593MOL0     H80045   4.162   1.700   6.768 -1.9112  1.1812 -0.1686
  593MOL0     H80046   4.243   1.811   6.654 -0.1605 -1.9498 -0.2409
  593MOL0     H80047   4.147   2.003   6.788 -3.0722  1.4683  0.2804
  593MOL0     H80048   4.125   1.901   6.933  0.9144 -1.6505 -0.9757
  593MOL0     H80049   3.943   1.914   6.700 -1.0412  1.3325  1.2962
  593MOL0     H80050   3.957   1.771   6.801 -1.5350 -0.1523 -2.5664
  593MOL0     H80051   3.761   2.065   7.040  0.6732  1.5501  0.3061
  593MOL0     H80052   4.431   1.789   7.091  1.5070  0.5527 -0.8872
  593MOL0     H80053   4.680   1.794   7.310  0.4060  0.4626  1.1036
  593MOL0     H80054   4.562   1.894   7.393  2.1286  0.3352 -0.7408
  593MOL0     H80055   4.504   1.750   7.306 -0.6639  0.5228  0.0815
  594MOL0     O80056   8.339   5.000   0.923  0.0726  0.9638  0.4748
  594MOL0     C80057   8.284   4.974   0.813  0.6859 -0.5894 -0.3664
  594MOL0     O80058   8.208   5.070   0.746  0.0876 -0.2113 -0.8272
  594MOL0     C80059   8.182   5.196   0.811 -1.0888  1.5845 -0.1095
  594MOL0     C80060   8.153   5.207   0.949  0.0033  0.0741 -0.2770
  594MOL0     C80061   8.132   5.336   1.007  0.3967  0.7998  0.2574
  594MOL0     C80062   8.163   5.452   0.926  0.0978  0.0957  0.6901
  594MOL0     O80063   8.155   5.582   0.990  0.1784  0.4515  0.9557
  594MOL0     C80064   8.216   5.584   1.129 -0.3583  0.4583 -0.0181
  594MOL0     C80065   8.266   5.730   1.147  0.8659 -0.0395  0.1708
  594MOL0     C80066   8.245   5.767   1.297 -1.0063 -0.2253  0.0901
  594MOL0     C80067   8.097   5.792   1.339  0.7438  0.9059 -0.5103
  594MOL0     C80068   8.075   5.808   1.489 -0.8713  0.0297  0.7483
  594MOL0     C80069   7.942   5.861   1.533  0.1295 -0.0393  0.7151
  594MOL0     C80070   7.940   5.914   1.670  0.2371 -0.1556  0.6393
  594MOL0     C80071   7.806   5.986   1.688  0.4957 -0.2249  0.6553
  594MOL0     N80072   7.765   6.003   1.835 -0.4232  0.4872 -0.3172
  594MOL0     C80073   7.660   6.074   1.892 -0.1541 -0.4524  0.9648
  594MOL0     C80074   7.673   6.065   2.025  0.1657  0.5622  0.1055
  594MOL0     C80075   7.564   6.117   2.109  0.0509  0.2567 -1.2175
  594MOL0     C80076   7.590   6.102   2.257 -0.0153 -0.2767  0.4005
  594MOL0     C80077   7.583   5.957   2.299 -0.6026  0.4467  0.0779
  594MOL0     C80078   7.582   5.927   2.448 -0.3859  0.0860  0.9293
  594MOL0     O80079   7.693   5.971   2.523  0.1504 -0.7827  0.0463
  594MOL0     C80080   7.681   6.060   2.625  0.6722 -0.3211 -0.2439
  594MOL0     C80081   7.680   6.198   2.607  0.5566  0.3583 -0.1582
  594MOL0     C80082   7.651   6.288   2.718  0.0707  0.5374  0.0744
  594MOL0     C80083   7.636   6.234   2.850  0.4897 -0.3199  0.8592
  594MOL0     C80084   7.610   6.329   2.970 -0.5148 -0.2967 -0.0280
  594MOL0     O80085   7.590   6.459   2.950 -0.7832 -1.0083  0.0641
  594MOL0     C80086   7.548   6.536   3.059 -0.1869  0.2805  0.4466
  594MOL0     C80087   7.632   6.591   3.157  0.0117  0.6860 -0.0421
  594MOL0     C80088   7.587   6.671   3.256  0.4272  0.1214  0.2792
  594MOL0     C80089   7.450   6.702   3.262  1.1041 -0.6770  0.5394
  594MOL0     O80090   7.400   6.786   3.364  0.4102 -0.3580 -0.0082
  594MOL0     C80091   7.259   6.790   3.382  1.1981  1.9309 -0.2246
  594MOL0     C80092   7.231   6.895   3.489 -0.0159 -1.4687 -0.3154
  594MOL0     C80093   7.110   6.846   3.565  0.3815 -0.3761  0.7275
  594MOL0     C80094   7.059   6.958   3.647 -0.8873 -0.2061  0.2418
  594MOL0     C80095   6.921   6.930   3.715 -1.1133 -0.0796  0.8392
  594MOL0     C80096   6.808   6.950   3.615  0.3673 -0.2834 -0.6221
  594MOL0     C80097   6.670   6.961   3.680 -0.0571 -0.7035 -1.2933
  594MOL0     C80098   6.554   6.944   3.575 -0.5871 -1.2006  1.1237
  594MOL0    Cl80099   6.403   6.958   3.657 -0.0435  0.3711  0.2592
  594MOL0     C80100   7.366   6.646   3.158  0.5131 -0.6124  0.0615
  594MOL0     C80101   7.418   6.571   3.055  0.2455 -0.0144  0.6247
  594MOL0     O80102   7.623   6.276   3.079 -0.1270 -0.0998  0.0293
  594MOL0     C80103   7.676   6.094   2.874 -0.2879  0.0947  0.0479
  594MOL0     C80104   7.685   6.009   2.755  0.7773  0.6755 -0.0681
  594MOL0     N80105   7.792   5.989   2.052 -0.5527  0.5982  0.1981
  594MOL0     N80106   7.836   5.946   1.935 -0.2472  0.2524 -0.3982
  594MOL0     C80107   8.195   5.439   0.791 -0.3740 -0.0109  0.0914
  594MOL0     C80108   8.200   5.315   0.734  1.0563  0.0224  0.2959
  594MOL0     C80109   8.277   4.835   0.755 -0.2151 -0.2730  0.0259
  594MOL0     C80110   8.158   4.782   0.700  0.8301  0.8665 -0.2362
  594MOL0     C80111   8.162   4.668   0.631  1.0289 -0.5219  0.1129
  594MOL0     C80112   8.276   4.588   0.611 -0.7290 -0.3837  1.0782
  594MOL0     O80113   8.270   4.478   0.525 -0.6764 -1.0535 -0.4114
  594MOL0     C80114   8.380   4.375   0.522 -0.3056 -0.7759  0.3964
  594MOL0     C80115   8.491   4.422   0.436  0.4549 -0.4628  0.4591
  594MOL0     C80116   8.630   4.365   0.476  0.1175  0.2126 -0.0439
  594MOL0     C80117   8.723   4.391   0.359  0.1625 -0.2112 -0.5498
  594MOL0     C80118   8.850   4.340   0.415 -0.1075 -0.2097 -0.0810
  594MOL0     C80119   8.950   4.286   0.454 -1.0505  0.7583 -0.7148
  594MOL0     C80120   8.391   4.634   0.673 -0.3022 -0.5865 -1.0929
  594MOL0     C80121   8.395   4.762   0.744  0.0885  1.2977  1.4967
  594MOL0     C80122   8.513   4.790   0.823  0.1288 -0.3413 -0.3619
  594MOL0     H80123   8.122   5.128   1.016 -2.9485  2.5162  1.5701
  594MOL0     H80124   8.094   5.340   1.109 -2.2926  1.3460 -0.6814
  594MOL0     H80125   8.157   5.550   1.214 -0.3406  1.8536  0.5815
  594MOL0     H80126   8.308   5.524   1.131 -0.6745 -0.0209  1.8628
  594MOL0     H80127   8.211   5.788   1.072  0.6217  1.0600  1.1738
  594MOL0     H80128   8.374   5.734   1.130  0.6006  1.2410 -1.4984
  594MOL0     H80129   8.316   5.845   1.326 -1.4386 -0.5015  1.9913
  594MOL0     H80130   8.282   5.680   1.352 -0.4262  0.9331  1.5968
  594MOL0     H80131   8.043   5.868   1.282 -1.3302  0.3462  0.5812
  594MOL0     H80132   8.033   5.708   1.311 -0.8421  1.7931  0.3208
  594MOL0     H80133   8.093   5.710   1.534 -0.3095 -0.5785 -0.7327
  594MOL0     H80134   8.155   5.874   1.523  3.9433 -3.5393 -2.2462
  594MOL0     H80135   7.917   5.941   1.461  2.7390  0.8094  0.6659
  594MOL0     H80136   7.871   5.778   1.535  0.0838 -0.0399 -0.2189
  594MOL0     H80137   8.011   5.998   1.683  0.2424  0.1928 -1.3976
  594MOL0     H80138   7.964   5.828   1.734  1.6443  0.9631  1.7151
  594MOL0     H80139   7.805   6.083   1.639 -1.9109 -0.8652 -0.7228
  594MOL0     H80140   7.729   5.931   1.633  1.4503  2.8873 -4.3780
  594MOL0     H80141   7.582   6.116   1.830  0.5617 -2.5505 -1.5497
  594MOL0     H80142   7.542   6.220   2.081  0.6069  0.8328  0.3702
  594MOL0     H80143   7.470   6.061   2.098 -0.3037 -0.1476  2.4724
  594MOL0     H80144   7.686   6.148   2.284  0.4243  0.0342 -1.5287
  594MOL0     H80145   7.520   6.163   2.314  1.8128  0.8949  1.5067
  594MOL0     H80146   7.663   5.910   2.241 -0.7295  2.5240 -1.9377
  594MOL0     H80147   7.488   5.911   2.273 -2.2445  1.4378  3.7047
  594MOL0     H80148   7.568   5.820   2.465 -5.8401  0.7293  2.6496
  594MOL0     H80149   7.491   5.966   2.495 -1.0777 -1.3502  0.8159
  594MOL0     H80150   7.676   6.227   2.503 -2.2926 -2.0053 -0.8248
  594MOL0     H80151   7.637   6.395   2.713  3.1908  1.0090 -0.3263
  594MOL0     H80152   7.739   6.577   3.166  0.0998  0.3644 -1.3729
  594MOL0     H80153   7.645   6.706   3.341  0.1885 -0.4084  0.6663
  594MOL0     H80154   7.207   6.821   3.290 -1.6335  0.6616  0.8433
  594MOL0     H80155   7.211   6.694   3.403  1.7913  1.8971  1.0504
  594MOL0     H80156   7.311   6.905   3.564  2.0885  1.5688 -2.6724
  594MOL0     H80157   7.216   6.996   3.451  1.8686 -0.1875  2.0369
  594MOL0     H80158   7.027   6.830   3.495  1.0954  0.4268 -0.3337
  594MOL0     H80159   7.123   6.753   3.621 -1.3009  0.1476  2.0875
  594MOL0     H80160   7.053   7.053   3.594  0.9697 -1.3890 -2.2887
  594MOL0     H80161   7.135   6.965   3.726  0.8907  0.1961 -1.4382
  594MOL0     H80162   6.905   7.001   3.796 -2.3620  0.8229 -0.1581
  594MOL0     H80163   6.913   6.829   3.755  1.7212 -0.5144  0.4832
  594MOL0     H80164   6.820   7.041   3.555 -0.6400  1.0839  1.1331
  594MOL0     H80165   6.808   6.862   3.550  0.3015  1.9071 -3.8152
  594MOL0     H80166   6.670   7.064   3.718 -1.9664  0.3165 -3.8188
  594MOL0     H80167   6.653   6.885   3.757 -1.0869  2.6770  2.1799
  594MOL0     H80168   6.555   7.021   3.499 -2.0914  0.2169  2.4627
  594MOL0     H80169   6.557   6.845   3.527 -3.4462  0.1013 -2.0645
  594MOL0     H80170   7.257   6.652   3.153  0.5662  0.1109 -0.5291
  594MOL0     H80171   7.350   6.540   2.977  1.4829 -1.7684  0.1607
  594MOL0     H80172   7.679   6.038   2.967 -2.6566 -3.6636 -1.8694
  594MOL0     H80173   7.702   5.902   2.757  1.2120  0.6222 -2.5611
  594MOL0     H80174   8.223   5.519   0.724  1.3485 -0.7582 -0.1512
  594MOL0     H80175   8.237   5.295   0.634 -1.5735  0.4762 -0.8641
  594MOL0     H80176   8.068   4.843   0.703  0.0062 -0.3064 -0.1989
  594MOL0     H80177   8.073   4.639   0.577  0.6482  0.0495  0.4283
  594MOL0     H80178   8.339   4.279   0.490 -0.5442 -0.6168  0.2226
  594MOL0     H80179   8.409   4.361   0.627 -1.7456  0.1195  0.9415
  594MOL0     H80180   8.485   4.531   0.435  1.5243 -0.3825  1.1534
  594MOL0     H80181   8.469   4.396   0.332 -0.7932  0.3268  0.5055
  594MOL0     H80182   8.615   4.259   0.498 -1.9003  0.2032 -1.2225
  594MOL0     H80183   8.662   4.409   0.570 -2.7715  0.4188  0.9395
  594MOL0     H80184   8.693   4.339   0.268  0.9699  0.3977 -1.1781
  594MOL0     H80185   8.730   4.499   0.342 -1.1251 -0.0201  0.0269
  594MOL0     H80186   9.029   4.214   0.465  0.5164  2.2144 -1.8311
  594MOL0     H80187   8.487   4.584   0.668 -0.7757 -1.5819 -0.5308
  594MOL0     H80188   8.566   4.877   0.782  0.5372 -0.2512  0.3333
  594MOL0     H80189   8.491   4.788   0.930  0.0252 -2.2823 -0.3968
  594MOL0     H80190   8.584   4.707   0.814  0.7426  0.2600 -1.2234
  595MOL0     O80191   9.979   3.737  10.356 -0.6589  0.1186  0.3004
  595MOL0     C80192   9.895   3.781  10.441 -0.1766 -0.1965  0.8186
  595MOL0     O80193   9.915   3.808  10.574 -0.4271  0.2866 -0.1166
  595MOL0     C80194  10.039   3.824  10.642  0.3367 -0.1679  0.2957
  595MOL0     C80195  10.169   3.803  10.585  0.9201  0.7384 -0.1432
  595MOL0     C80196  10.279   3.844  10.661  0.4356  0.0369  0.4187
  595MOL0     C80197  10.259   3.883  10.797 -0.4345 -0.3426 -0.2134
  595MOL0     O80198  10.374   3.927  10.860 -0.5811  0.2608  0.5351
  595MOL0     C80199  10.358   3.972  10.998 -0.6492 -0.8047 -0.6624
  595MOL0     C80200  10.488   3.972  11.086  0.2828 -0.8293 -0.1743
  595MOL0     C80201  10.608   4.067  11.039 -0.2328  0.1499 -0.2092
  595MOL0     C80202  10.729   4.057  11.137  0.4911  0.7910  0.8828
  595MOL0     C80203  10.845   4.149  11.085 -0.5331 -0.2470  0.3210
  595MOL0     C80204  10.828   4.297  11.076  0.6069 -0.1497 -0.5458
  595MOL0     C80205  10.970   4.365  11.074  0.3105 -0.4167 -0.7587
  595MOL0     C80206  11.008   4.425  11.209 -0.0675  0.6950  0.6665
  595MOL0     N80207  11.148   4.478  11.200 -0.5229 -0.2019 -0.5645
  595MOL0     C80208  11.179   4.610  11.204  0.0413 -0.3115 -0.5153
  595MOL0     C80209  11.314   4.610  11.219 -0.5256  0.1633  1.0125
  595MOL0     C80210  11.404   4.737  11.230  0.3027 -0.7426 -0.8284
  595MOL0     C80211  11.399   4.786  11.373 -0.0874  0.4993 -0.3355
  595MOL0     C80212  11.446   4.927  11.387 -0.1654  0.2688  0.5338
  595MOL0     C80213  11.460   4.958  11.538 -1.5427 -0.4322 -0.8021
  595MOL0     O80214  11.586   4.893  11.570 -0.3641 -0.5331 -0.0544
  595MOL0     C80215  11.679   4.968  11.636 -0.5443 -0.5291 -0.0640
  595MOL0     C80216  11.645   5.073  11.724  0.1407 -0.7907  0.3442
  595MOL0     C80217  11.740   5.150  11.789 -0.7816  0.6208 -0.9799
  595MOL0     C80218  11.883   5.131  11.781  0.5810 -0.1034  0.0124
  595MOL0     C80219  11.982   5.197  11.861  0.6438 -0.4448 -0.3509
  595MOL0     O80220  11.954   5.323  11.915  0.2291  0.2942 -0.0224
  595MOL0     C80221  12.062   5.380  11.974 -0.9536  0.2627 -0.3581
  595MOL0     C80222  12.104   5.341  12.098 -0.7281 -0.5143 -0.1712
  595MOL0     C80223  12.222   5.387  12.161  0.3702  0.0111  0.0059
  595MOL0     C80224  12.302   5.478  12.089  0.7057 -0.4959 -0.3051
  595MOL0     O80225  12.402   5.539  12.152 -0.5760 -1.0245 -0.1365
  595MOL0     C80226  12.534   5.568  12.094  0.8838 -0.4711 -0.4969
  595MOL0     C80227  12.627   5.581  12.203  0.4163  0.1798 -0.9739
  595MOL0     C80228  12.769   5.613  12.162  0.2148  0.4742  0.3983
  595MOL0     C80229  12.834   5.475  12.124  0.5615  0.4639 -0.9218
  595MOL0     C80230  12.982   5.505  12.089  0.4556  0.0973  1.0009
  595MOL0     C80231  13.032   5.367  12.049  0.3067  0.3035  0.3617
  595MOL0     C80232  13.183   5.367  12.020  0.3792  0.2199  0.1457
  595MOL0     C80233  13.237   5.223  12.035 -0.0871  0.7491  0.7966
  595MOL0    Cl80234  13.420   5.234  12.042  0.2296 -0.2727 -0.0040
  595MOL0     C80235  12.256   5.514  11.964 -0.2097 -0.1198  0.7299
  595MOL0     C80236  12.139   5.466  11.904  0.5314  0.4414 -0.0545
  595MOL0     O80237  12.083   5.132  11.883  0.0637 -0.0833  0.0433
  595MOL0     C80238  11.911   5.025  11.692  1.4081 -0.0270  0.1602
  595MOL0     C80239  11.814   4.941  11.627 -0.2848  0.5083 -0.7553
  595MOL0     N80240  11.360   4.477  11.232 -0.0073 -0.6488  0.8249
  595MOL0     N80241  11.260   4.401  11.220 -0.5310  0.1649  0.4281
  595MOL0     C80242  10.133   3.898  10.852 -0.3920  0.3229 -0.5226
  595MOL0     C80243  10.022   3.877  10.772  0.3393  1.2131 -0.0634
  595MOL0     C80244   9.760   3.817  10.392 -0.9599  0.5300 -0.5764
  595MOL0     C80245   9.714   3.939  10.440  0.8141 -0.6689 -0.1367
  595MOL0     C80246   9.593   3.985  10.395  0.0261 -0.6661  0.3138
  595MOL0     C80247   9.508   3.911  10.320  0.6154  0.4078  0.3152
  595MOL0     O80248   9.391   3.974  10.283 -0.4198  0.1054 -0.1475
  595MOL0     C80249   9.330   3.918  10.169  0.0045  0.6236 -0.4954
  595MOL0     C80250   9.204   3.999  10.135 -0.1409 -0.8889  0.0615
  595MOL0     C80251   9.110   3.936  10.030  0.3583  0.0861 -0.3431
  595MOL0     C80252   9.182   3.903   9.892  0.0600  0.3090  1.3448
  595MOL0     C80253   9.093   3.857   9.780 -0.2869  0.0885  0.3981
  595MOL0     C80254   9.025   3.830   9.684 -0.3001  0.5384  0.3492
  595MOL0     C80255   9.548   3.787  10.275 -1.2874  0.9267 -0.2385
  595MOL0     C80256   9.674   3.741  10.316  0.4906  0.6456 -0.8964
  595MOL0     C80257   9.719   3.596  10.287  0.5109  0.5314  0.1822
  595MOL0     H80258  10.190   3.757  10.489  1.0246 -0.5765  0.4906
  595MOL0     H80259  10.382   3.855  10.629  0.2282  0.9970  0.0520
  595MOL0     H80260  10.312   4.071  10.997  0.8511  0.0659  2.4629
  595MOL0     H80261  10.291   3.903  11.052  0.9539 -1.6218  0.3538
  595MOL0     H80262  10.524   3.869  11.080  0.1276 -0.9830  1.2776
  595MOL0     H80263  10.465   3.985  11.192 -0.8271 -0.5494 -0.4307
  595MOL0     H80264  10.561   4.166  11.040 -0.4157  0.1122 -2.0916
  595MOL0     H80265  10.636   4.046  10.935 -1.1616 -1.8955 -0.1007
  595MOL0     H80266  10.695   4.067  11.240  1.4023  3.7574  0.9868
  595MOL0     H80267  10.764   3.953  11.133  5.1988  2.2081 -0.9377
  595MOL0     H80268  10.921   4.133  11.162 -2.4062  1.5873  2.6918
  595MOL0     H80269  10.879   4.112  10.988  0.0191  2.0013 -0.4016
  595MOL0     H80270  10.774   4.312  10.982  3.2981  1.9376 -1.8907
  595MOL0     H80271  10.769   4.333  11.161 -2.8561  1.5510 -3.3762
  595MOL0     H80272  10.960   4.447  11.002 -3.1286  0.4489  0.4864
  595MOL0     H80273  11.040   4.295  11.029  0.2255 -2.2406  1.7205
  595MOL0     H80274  10.932   4.496  11.242 -1.0927  0.2083 -0.5461
  595MOL0     H80275  11.018   4.343  11.280 -0.3211  1.9996  2.2626
  595MOL0     H80276  11.118   4.697  11.186 -0.3734 -0.4384  0.2313
  595MOL0     H80277  11.510   4.714  11.214  1.1769  3.0794 -1.4011
  595MOL0     H80278  11.366   4.806  11.155  0.4513  1.7139  1.2172
  595MOL0     H80279  11.295   4.789  11.406 -0.4973  3.2977 -1.6265
  595MOL0     H80280  11.454   4.723  11.444  0.5492  2.9070  1.4158
  595MOL0     H80281  11.360   4.983  11.347 -0.7169  0.6424  2.1851
  595MOL0     H80282  11.534   4.946  11.325 -0.9013  0.7734 -0.3855
  595MOL0     H80283  11.375   4.915  11.593 -1.7364 -0.4333 -1.1010
  595MOL0     H80284  11.461   5.067  11.549  3.2572 -0.4180  0.8082
  595MOL0     H80285  11.540   5.093  11.739 -0.2761 -1.3997 -1.4628
  595MOL0     H80286  11.691   5.228  11.846 -2.0689 -0.9446  0.1575
  595MOL0     H80287  12.035   5.269  12.141  0.4505 -0.4081  2.0497
  595MOL0     H80288  12.257   5.349  12.257  2.8761  1.7182 -0.1331
  595MOL0     H80289  12.561   5.489  12.024  2.4857  0.0060 -0.4553
  595MOL0     H80290  12.529   5.660  12.035 -0.6009 -1.6746 -2.3474
  595MOL0     H80291  12.578   5.656  12.266 -1.7909 -1.1395 -1.0254
  595MOL0     H80292  12.637   5.486  12.257  2.7808  1.4175  0.9479
  595MOL0     H80293  12.769   5.677  12.073  0.2798  3.2454  2.2451
  595MOL0     H80294  12.826   5.656  12.245  0.7840 -1.5440  1.1154
  595MOL0     H80295  12.776   5.451  12.035  0.9423 -1.3502 -0.7095
  595MOL0     H80296  12.824   5.406  12.208 -2.7303 -0.5494 -2.0163
  595MOL0     H80297  13.043   5.547  12.169  1.0673  3.3379 -0.9883
  595MOL0     H80298  12.996   5.562  11.996  0.5945 -1.7374 -0.1706
  595MOL0     H80299  13.006   5.314  12.140 -2.3625  2.2600  0.8603
  595MOL0     H80300  12.970   5.336  11.965  2.6661 -2.0690 -0.6578
  595MOL0     H80301  13.237   5.428  12.093 -0.9176 -0.3193  1.6209
  595MOL0     H80302  13.195   5.408  11.920  3.4864 -2.1400 -0.6091
  595MOL0     H80303  13.206   5.181  12.131 -3.4455  2.9879  0.8459
  595MOL0     H80304  13.204   5.167  11.947  0.4622  0.5611  0.7074
  595MOL0     H80305  12.304   5.589  11.901  0.1456 -0.2824  0.8049
  595MOL0     H80306  12.107   5.504  11.808 -1.6619  0.7727  0.7409
  595MOL0     H80307  12.018   5.014  11.676  1.5827  3.0116 -1.4220
  595MOL0     H80308  11.853   4.859  11.569  1.9230 -1.0913  2.6284
  595MOL0     H80309  10.114   3.942  10.949  0.5942  0.0773 -0.2114
  595MOL0     H80310   9.922   3.898  10.808  0.6854  4.7123 -0.7854
  595MOL0     H80311   9.772   4.011  10.496 -3.4989  0.0708  3.9738
  595MOL0     H80312   9.566   4.084  10.431  2.7505  0.2944 -0.0492
  595MOL0     H80313   9.302   3.816  10.199  0.6176  0.4463 -0.5112
  595MOL0     H80314   9.400   3.911  10.085  0.3830 -0.4449 -0.1114
  595MOL0     H80315   9.234   4.100  10.107 -3.0458 -0.0959 -0.4990
  595MOL0     H80316   9.136   4.007  10.220 -0.7108  1.5283 -0.5306
  595MOL0     H80317   9.024   3.996   9.998  0.1106 -1.0575 -1.9615
  595MOL0     H80318   9.062   3.851  10.078  0.9622  0.9574  1.9521
  595MOL0     H80319   9.238   3.991   9.857 -0.5640  0.1878  0.0038
  595MOL0     H80320   9.259   3.828   9.912  1.3035  0.9478 -0.6612
  595MOL0     H80321   8.960   3.824   9.599  1.4291  0.0652 -0.9790
  595MOL0     H80322   9.480   3.727  10.215 -1.4911  2.1813 -1.3245
  595MOL0     H80323   9.633   3.543  10.246  3.2422 -1.8970 -2.9546
  595MOL0     H80324   9.797   3.589  10.210  2.4331 -3.0051  2.1624
  595MOL0     H80325   9.763   3.543  10.372  3.2290  1.7100 -0.3846
  596MOL0     O80326   2.004   9.879   5.927  0.2919  0.7359  0.6314
  596MOL0     C80327   2.028   9.929   6.038  0.9969  0.9831  0.5640
  596MOL0     O80328   2.144   9.966   6.086 -0.8383  0.5421  0.0369
  596MOL0     C80329   2.255   9.911   6.022  0.0930  1.0106 -0.6521
  596MOL0     C80330   2.326   9.834   6.100 -1.1173  0.7763 -0.4926
  596MOL0     C80331   2.431   9.766   6.048  0.0031 -0.0482 -0.0697
  596MOL0     C80332   2.471   9.776   5.915  0.3013  0.0653 -0.2217
  596MOL0     O80333   2.574   9.695   5.887 -0.4486 -0.0438  0.4197
  596MOL0     C80334   2.610   9.678   5.743  0.3859 -0.6881 -0.6011
  596MOL0     C80335   2.760   9.687   5.738 -0.7014  0.6649  0.3489
  596MOL0     C80336   2.813   9.817   5.788  0.3957 -0.6807 -0.5032
  596MOL0     C80337   2.769   9.940   5.698 -0.2619  0.5155  0.0452
  596MOL0     C80338   2.836  10.071   5.731  0.6097  0.2384 -0.2775
  596MOL0     C80339   2.793  10.116   5.869  0.1494 -0.7386  0.1096
  596MOL0     C80340   2.838  10.263   5.904  0.1679  0.9387  0.9071
  596MOL0     C80341   2.977  10.272   5.952  0.2083  0.1140  0.7179
  596MOL0     N80342   3.018  10.407   5.984  0.4919 -0.1817  0.3859
  596MOL0     C80343   3.119  10.473   5.919  1.1375  0.9025 -0.0306
  596MOL0     C80344   3.141  10.575   6.001  0.3603 -0.1846 -0.5873
  596MOL0     C80345   3.229  10.694   5.994  0.2328  0.3482  0.3863
  596MOL0     C80346   3.149  10.819   5.995 -0.6429 -0.0125 -0.0924
  596MOL0     C80347   3.234  10.948   5.996 -0.2401  0.3262  0.1535
  596MOL0     C80348   3.146  11.067   6.007  0.5674 -1.2133 -1.1855
  596MOL0     O80349   3.220  11.190   6.007  0.5935  1.0553 -0.2392
  596MOL0     C80350   3.161  11.304   6.028  0.1228 -0.5245  1.2232
  596MOL0     C80351   3.251  11.409   6.055 -0.5775  0.6989  1.0982
  596MOL0     C80352   3.197  11.538   6.075  1.1652 -0.2152 -0.4133
  596MOL0     C80353   3.060  11.562   6.085 -0.0528  0.8427  0.3454
  596MOL0     C80354   3.012  11.697   6.117 -0.3320  0.3328  0.4643
  596MOL0     O80355   3.099  11.771   6.201  0.8540  0.5854  0.6584
  596MOL0     C80356   3.061  11.898   6.236 -0.7898  0.1844 -0.6227
  596MOL0     C80357   2.941  11.963   6.235 -0.9215  0.5907 -0.5543
  596MOL0     C80358   2.919  12.092   6.281  0.4394 -1.6081  0.6965
  596MOL0     C80359   3.020  12.165   6.350 -0.1836  0.5599 -0.3716
  596MOL0     O80360   3.002  12.290   6.408 -0.0857 -0.5438  0.8919
  596MOL0     C80361   2.900  12.389   6.364 -0.9603  0.3884  0.0211
  596MOL0     C80362   2.844  12.478   6.477  0.3033  0.7479  0.2797
  596MOL0     C80363   2.754  12.413   6.578  0.4641  0.1227 -0.6484
  596MOL0     C80364   2.713  12.266   6.553 -0.4759 -0.0992 -0.3544
  596MOL0     C80365   2.642  12.193   6.669  0.7807 -0.0390 -0.1235
  596MOL0     C80366   2.578  12.062   6.614  1.1363  0.3259 -0.4550
  596MOL0     C80367   2.528  11.982   6.731 -0.8058 -0.5651 -0.1025
  596MOL0     C80368   2.435  11.870   6.683 -0.5574  0.1606 -0.4927
  596MOL0    Cl80369   2.394  11.766   6.839 -0.5481  0.3546  0.1858
  596MOL0     C80370   3.144  12.102   6.355  0.2510  0.3656  0.3593
  596MOL0     C80371   3.159  11.972   6.300 -0.1010 -0.1587 -1.3305
  596MOL0     O80372   2.914  11.740   6.062  0.0835 -0.7670 -0.1660
  596MOL0     C80373   2.970  11.454   6.061  0.4446  0.1869 -0.2749
  596MOL0     C80374   3.019  11.324   6.036 -0.4793  0.0151  0.9434
  596MOL0     N80375   3.054  10.565   6.117 -0.3655 -0.7677 -0.9113
  596MOL0     N80376   2.975  10.471   6.097  0.0770 -0.8490  0.4882
  596MOL0     C80377   2.395   9.871   5.836 -0.5042 -0.5119  0.3996
  596MOL0     C80378   2.296   9.947   5.894 -0.5913  0.1671  0.6450
  596MOL0     C80379   1.906   9.987   6.105  0.0683 -0.0173 -0.1605
  596MOL0     C80380   1.926  10.115   6.161  0.4068 -0.0025  0.7463
  596MOL0     C80381   1.826  10.178   6.244 -0.2213  0.4637  0.2613
  596MOL0     C80382   1.708  10.119   6.255 -0.1716  0.1239  0.6313
  596MOL0     O80383   1.603  10.175   6.321  0.4734 -0.0967  0.0895
  596MOL0     C80384   1.616  10.292   6.411  0.6074  0.0052  1.6641
  596MOL0     C80385   1.625  10.250   6.549 -0.7556  0.2527  0.3727
  596MOL0     C80386   1.741  10.146   6.581  0.5781  0.1276  0.4870
  596MOL0     C80387   1.735  10.064   6.706  0.4901 -0.2216 -0.7604
  596MOL0     C80388   1.763  10.147   6.820 -0.6752 -0.1483  0.4602
  596MOL0     C80389   1.791  10.212   6.916  0.3028 -0.7788  0.3383
  596MOL0     C80390   1.683   9.990   6.192  0.6464 -0.2101  0.5613
  596MOL0     C80391   1.783   9.920   6.116  0.0549 -1.8826 -1.0022
  596MOL0     C80392   1.736   9.807   6.042 -0.5464  0.7428 -0.1509
  596MOL0     H80393   2.298   9.838   6.205 -2.4720  0.2555 -0.8138
  596MOL0     H80394   2.491   9.706   6.115 -1.4374 -1.3574  0.0851
  596MOL0     H80395   2.579   9.577   5.717 -1.5213 -0.0941 -0.8188
  596MOL0     H80396   2.560   9.756   5.685  0.6238  0.6524  0.9134
  596MOL0     H80397   2.793   9.673   5.635  0.2426 -1.4748  0.8813
  596MOL0     H80398   2.804   9.602   5.792  0.8840  0.3681 -1.3283
  596MOL0     H80399   2.920   9.812   5.806  0.6654 -1.6761 -2.1949
  596MOL0     H80400   2.770   9.832   5.887 -1.4867 -1.7437 -1.1019
  596MOL0     H80401   2.799   9.929   5.593  1.5372  2.5443  0.2877
  596MOL0     H80402   2.662   9.945   5.720 -0.5060  0.8309 -1.1511
  596MOL0     H80403   2.945  10.063   5.733  0.6209 -0.2321  3.0395
  596MOL0     H80404   2.812  10.151   5.660 -0.6836  1.3530  1.3367
  596MOL0     H80405   2.684  10.120   5.876 -0.0293  3.5067 -2.0259
  596MOL0     H80406   2.834  10.048   5.945  0.4861 -1.1631 -0.4481
  596MOL0     H80407   2.771  10.298   5.984 -0.4531 -0.4046  0.9901
  596MOL0     H80408   2.812  10.322   5.815 -3.7313 -0.6804  0.7578
  596MOL0     H80409   3.014  10.204   6.030  4.4706  0.0629 -1.0465
  596MOL0     H80410   3.040  10.238   5.869  0.7583  1.5709  0.5174
  596MOL0     H80411   3.167  10.447   5.826  0.1680  0.4458 -0.4134
  596MOL0     H80412   3.292  10.709   6.081  1.0426  1.8366 -0.4293
  596MOL0     H80413   3.304  10.675   5.917  1.2860  2.3605  0.8530
  596MOL0     H80414   3.072  10.820   5.918 -1.8694 -0.1002  1.1052
  596MOL0     H80415   3.088  10.813   6.085 -1.3728  0.0449 -0.5798
  596MOL0     H80416   3.287  10.957   5.901  0.5054 -0.5374  0.4725
  596MOL0     H80417   3.317  10.943   6.068  1.5477 -1.0168 -1.8821
  596MOL0     H80418   3.077  11.071   6.092  1.4296  2.8145 -0.4681
  596MOL0     H80419   3.087  11.057   5.916 -2.3701  2.6132  0.0477
  596MOL0     H80420   3.358  11.395   6.064 -0.4923 -0.0372 -0.6635
  596MOL0     H80421   3.260  11.621   6.105  1.7728 -0.5008 -0.8632
  596MOL0     H80422   2.849  11.914   6.203 -1.0502  0.3246  0.2035
  596MOL0     H80423   2.821  12.134   6.258  1.6007 -0.3146 -2.5246
  596MOL0     H80424   2.941  12.457   6.288  2.5038  0.6856  1.9683
  596MOL0     H80425   2.814  12.341   6.317 -2.8169  1.8983  1.7261
  596MOL0     H80426   2.927  12.528   6.528  1.0925 -1.3571  1.1558
  596MOL0     H80427   2.794  12.568   6.441 -0.2576  0.2100 -0.2927
  596MOL0     H80428   2.813  12.421   6.669  1.5908  0.6658 -1.4080
  596MOL0     H80429   2.663  12.473   6.592  0.8347  0.1854  1.9318
  596MOL0     H80430   2.796  12.209   6.510 -0.1975  0.3392 -0.4053
  596MOL0     H80431   2.648  12.273   6.465  1.7011 -1.0096 -2.1455
  596MOL0     H80432   2.560  12.265   6.680  0.6842  0.2910 -2.4881
  596MOL0     H80433   2.697  12.180   6.763 -3.9350 -0.6380  2.9108
  596MOL0     H80434   2.491  12.094   6.557  0.5314  1.3548  0.9905
  596MOL0     H80435   2.645  11.997   6.556  0.2142  0.6345 -1.9239
  596MOL0     H80436   2.462  12.054   6.779 -1.0731  0.7386 -2.2985
  596MOL0     H80437   2.599  11.942   6.804  1.1995  0.4280 -1.4228
  596MOL0     H80438   2.342  11.919   6.652 -0.0860  2.0335  0.8299
  596MOL0     H80439   2.472  11.810   6.600  1.9658  1.0035 -0.0444
  596MOL0     H80440   3.207  12.152   6.428  0.6897  0.2893  0.0363
  596MOL0     H80441   3.249  11.924   6.337 -0.3245  0.3536 -0.0622
  596MOL0     H80442   2.866  11.480   6.077  0.4336 -0.1898  0.3456
  596MOL0     H80443   2.958  11.237   6.016 -1.2662  0.5884  0.7967
  596MOL0     H80444   2.396   9.877   5.728 -0.6593 -1.6236  0.3243
  596MOL0     H80445   2.242  10.024   5.839  1.1381  1.9561  1.3479
  596MOL0     H80446   2.017  10.171   6.145 -0.7335  1.8806  0.5997
  596MOL0     H80447   1.840  10.273   6.295  0.6595 -0.1448  1.1974
  596MOL0     H80448   1.526  10.354   6.400  1.2086  0.4877 -1.1993
  596MOL0     H80449   1.706  10.352   6.399  0.4495  0.3158  2.0126
  596MOL0     H80450   1.528  10.206   6.575  0.0507 -0.1391  3.1073
  596MOL0     H80451   1.634  10.338   6.614 -1.2182 -0.6395  1.6947
  596MOL0     H80452   1.841  10.189   6.574  1.7850 -2.3505  1.3488
  596MOL0     H80453   1.735  10.066   6.507  3.4648 -1.0001  1.3351
  596MOL0     H80454   1.632  10.026   6.713  1.2343 -2.4656 -1.0273
  596MOL0     H80455   1.792   9.971   6.695 -1.2092 -1.2242 -1.5295
  596MOL0     H80456   1.843  10.268   6.991  1.7298 -0.0694 -1.1326
  596MOL0     H80457   1.583   9.950   6.206  0.3162  0.5734  0.4758
  596MOL0     H80458   1.773   9.715   6.089  0.1649  1.3411  0.4902
  596MOL0     H80459   1.628   9.792   6.050 -1.2218  4.0433 -1.6405
  596MOL0     H80460   1.760   9.807   5.935 -0.4480  1.2128 -0.1292
  597MOL0     O80461   1.105   6.311   1.310  0.7144 -0.0057  0.4195
  597MOL0     C80462   1.136   6.295   1.190 -0.6833  0.1680 -0.0205
  597MOL0     O80463   1.257   6.243   1.150 -0.2548 -0.7886 -0.8819
  597MOL0     C80464   1.349   6.216   1.251 -0.2038 -0.8295  0.8726
  597MOL0     C80465   1.319   6.130   1.358  0.4209  0.1616  0.3427
  597MOL0     C80466   1.419   6.115   1.455 -0.2319 -0.3664 -0.6036
  597MOL0     C80467   1.546   6.164   1.445 -0.8794  0.0842 -1.1085
  597MOL0     O80468   1.643   6.121   1.534 -0.5420  0.1617 -0.0566
  597MOL0     C80469   1.611   6.088   1.673  0.4823  0.5500  0.9464
  597MOL0     C80470   1.741   6.111   1.748 -0.2774 -0.2603 -0.4190
  597MOL0     C80471   1.733   6.089   1.898  0.1961  0.5425  0.0928
  597MOL0     C80472   1.871   6.064   1.959  0.3058 -0.3148  1.2437
  597MOL0     C80473   1.868   6.051   2.117 -0.0667 -0.0119 -0.2185
  597MOL0     C80474   2.005   6.042   2.186 -0.6840 -0.1733 -0.3253
  597MOL0     C80475   2.091   5.940   2.126 -0.0458  0.3278 -0.8566
  597MOL0     C80476   2.222   5.919   2.206 -0.1993 -0.9339  0.3727
  597MOL0     N80477   2.300   5.814   2.149  0.1842  0.5280  0.6693
  597MOL0     C80478   2.397   5.828   2.051  0.0293 -0.5775 -1.5615
  597MOL0     C80479   2.436   5.701   2.026  0.4325 -0.1688  0.1126
  597MOL0     C80480   2.527   5.649   1.920 -0.5497 -0.2989 -0.3757
  597MOL0     C80481   2.675   5.649   1.965  0.3032 -0.3420  0.3516
  597MOL0     C80482   2.701   5.556   2.083 -1.1855  1.3205 -0.8962
  597MOL0     C80483   2.834   5.583   2.144 -0.4228  0.1473 -0.1957
  597MOL0     O80484   2.847   5.707   2.206  0.1746  0.3589  0.5587
  597MOL0     C80485   2.975   5.737   2.251  0.6521  0.1894 -0.3872
  597MOL0     C80486   3.091   5.683   2.206 -0.4677 -0.2069  0.0950
  597MOL0     C80487   3.212   5.730   2.261  0.0600  0.4002 -0.4030
  597MOL0     C80488   3.218   5.816   2.373  0.4887  0.5747 -0.0826
  597MOL0     C80489   3.348   5.844   2.429  1.2005 -0.8390 -1.2354
  597MOL0     O80490   3.348   5.964   2.492 -0.7657 -0.6832 -0.1236
  597MOL0     C80491   3.467   6.027   2.519 -0.1460 -0.2319 -0.1780
  597MOL0     C80492   3.575   6.014   2.435  0.7681 -0.5860 -0.3402
  597MOL0     C80493   3.693   6.073   2.460 -0.3658 -0.3823 -0.2674
  597MOL0     C80494   3.712   6.132   2.587 -0.4584 -0.5932 -0.4716
  597MOL0     O80495   3.836   6.176   2.646 -0.1871 -0.1411 -0.2676
  597MOL0     C80496   3.933   6.230   2.557  1.0780 -0.0306 -0.3473
  597MOL0     C80497   4.033   6.128   2.520  0.3115  0.2259 -0.5909
  597MOL0     C80498   4.149   6.171   2.421 -0.1542 -0.0631  0.2376
  597MOL0     C80499   4.233   6.290   2.474 -0.9436  0.9224 -0.3249
  597MOL0     C80500   4.374   6.298   2.408 -0.4891  1.3153 -0.1086
  597MOL0     C80501   4.470   6.395   2.481  0.7642 -0.3803 -0.4491
  597MOL0     C80502   4.621   6.382   2.436  0.5686 -0.0812 -0.7768
  597MOL0     C80503   4.656   6.404   2.286  1.1405  0.1366 -0.0313
  597MOL0    Cl80504   4.828   6.424   2.271  0.2226 -0.0279 -0.0967
  597MOL0     C80505   3.605   6.150   2.671  0.8332 -0.0688  0.1812
  597MOL0     C80506   3.487   6.092   2.642  0.5069  0.6660  1.1043
  597MOL0     O80507   3.438   5.764   2.413 -0.4936  0.1493  0.1841
  597MOL0     C80508   3.100   5.874   2.421 -0.3952 -0.1421 -0.2241
  597MOL0     C80509   2.983   5.834   2.354  0.2082 -0.2126  0.2727
  597MOL0     N80510   2.359   5.609   2.097  0.3790 -0.3912  0.3294
  597MOL0     N80511   2.279   5.683   2.165 -0.2919 -0.3779 -0.2400
  597MOL0     C80512   1.574   6.244   1.336 -0.1960  0.8103 -0.0387
  597MOL0     C80513   1.481   6.280   1.240  0.1199 -0.5792 -0.7531
  597MOL0     C80514   1.044   6.341   1.083 -0.2140 -1.1841  0.2472
  597MOL0     C80515   1.090   6.378   0.952 -0.9827 -0.6178  0.2812
  597MOL0     C80516   1.008   6.424   0.851  0.4298  0.0623 -0.2722
  597MOL0     C80517   0.871   6.437   0.875  0.2647 -0.2898 -0.6148
  597MOL0     O80518   0.801   6.492   0.773 -0.6975  0.0039 -0.3590
  597MOL0     C80519   0.660   6.509   0.772 -0.3777 -0.7466  0.0395
  597MOL0     C80520   0.629   6.647   0.838 -0.4186  0.2964 -0.6267
  597MOL0     C80521   0.639   6.766   0.745 -0.8023  0.3176  0.6856
  597MOL0     C80522   0.568   6.900   0.776 -0.2710 -0.5693  0.2604
  597MOL0     C80523   0.429   6.877   0.793 -0.1795 -0.1022  0.3391
  597MOL0     C80524   0.303   6.872   0.793  0.7929 -0.1581  0.6887
  597MOL0     C80525   0.825   6.411   1.005  0.5621 -0.0086  0.4086
  597MOL0     C80526   0.903   6.353   1.107 -0.3831 -0.3510  0.4027
  597MOL0     C80527   0.830   6.314   1.232 -0.0599  0.8449  0.7285
  597MOL0     H80528   1.225   6.081   1.381  1.6726 -2.3174  0.4464
  597MOL0     H80529   1.397   6.032   1.522  0.8699 -0.0393  0.1800
  597MOL0     H80530   1.528   6.152   1.706  1.1335  1.6106  0.5997
  597MOL0     H80531   1.577   5.984   1.678  2.9032 -0.3341  0.2682
  597MOL0     H80532   1.787   6.208   1.727 -2.1359  0.1559 -2.9503
  597MOL0     H80533   1.817   6.041   1.712  1.0583 -0.4271  2.4095
  597MOL0     H80534   1.674   5.999   1.915  0.8128 -0.5741 -2.9677
  597MOL0     H80535   1.692   6.166   1.964 -0.8994 -2.2419  2.9225
  597MOL0     H80536   1.913   5.969   1.925  0.7543  0.1270  0.5210
  597MOL0     H80537   1.928   6.150   1.924  2.2746 -1.5529  1.2458
  597MOL0     H80538   1.801   6.127   2.159  1.2577 -0.7799  3.6640
  597MOL0     H80539   1.817   5.958   2.140  0.0020 -0.0119 -0.0646
  597MOL0     H80540   2.050   6.142   2.181  1.9389 -1.2480  0.3245
  597MOL0     H80541   1.993   6.023   2.293  3.4708  1.4283  0.6123
  597MOL0     H80542   2.120   5.975   2.026 -0.3845  3.1209 -0.0574
  597MOL0     H80543   2.035   5.846   2.126  3.0359 -1.7180  1.9639
  597MOL0     H80544   2.287   6.007   2.209  1.3796 -2.0051 -0.7156
  597MOL0     H80545   2.189   5.891   2.307  0.4444  0.5759  1.0382
  597MOL0     H80546   2.425   5.914   1.992 -0.3731  1.3689  0.9108
  597MOL0     H80547   2.492   5.550   1.891 -3.7145  0.5650  0.1224
  597MOL0     H80548   2.514   5.716   1.834  1.1680 -0.1008 -0.5056
  597MOL0     H80549   2.737   5.622   1.878  0.1419 -0.4480  0.2693
  597MOL0     H80550   2.699   5.750   1.999 -0.5192  1.0012 -2.7130
  597MOL0     H80551   2.690   5.454   2.044  1.8140  1.5566 -2.6294
  597MOL0     H80552   2.634   5.573   2.168 -0.0173 -1.1111  0.6126
  597MOL0     H80553   2.904   5.566   2.062  0.1768  0.0438  0.3256
  597MOL0     H80554   2.843   5.507   2.222  0.1411  0.2710 -0.1386
  597MOL0     H80555   3.099   5.613   2.124  3.6680 -0.9033  0.8511
  597MOL0     H80556   3.292   5.674   2.215 -0.6473 -2.4240  1.5846
  597MOL0     H80557   3.569   5.950   2.347 -1.8746  2.5218 -2.6758
  597MOL0     H80558   3.776   6.058   2.391  0.7348 -0.9476  1.1272
  597MOL0     H80559   3.879   6.272   2.472 -2.5199 -4.0219 -0.4001
  597MOL0     H80560   3.989   6.311   2.604  2.0309  0.7925 -2.7325
  597MOL0     H80561   4.078   6.093   2.613 -2.6718 -5.5499 -0.8701
  597MOL0     H80562   3.977   6.041   2.484 -1.4216  0.3614  1.5361
  597MOL0     H80563   4.221   6.090   2.408 -1.1744 -0.9790  0.1418
  597MOL0     H80564   4.112   6.189   2.320  0.9722  3.3476  0.3033
  597MOL0     H80565   4.253   6.293   2.582  0.6996 -1.7414 -0.4538
  597MOL0     H80566   4.183   6.380   2.439 -1.5622 -0.1186 -2.2742
  597MOL0     H80567   4.364   6.321   2.301  0.6031 -2.0116 -1.0471
  597MOL0     H80568   4.417   6.198   2.422 -0.3215  1.7727  3.6197
  597MOL0     H80569   4.434   6.494   2.453  1.9517 -1.1474 -5.6286
  597MOL0     H80570   4.469   6.367   2.587  2.5613 -1.8192 -0.7535
  597MOL0     H80571   4.664   6.287   2.471  4.6612  0.9980 -2.3280
  597MOL0     H80572   4.678   6.461   2.486  1.6028  0.0860 -2.1669
  597MOL0     H80573   4.623   6.326   2.218  1.8079 -1.7290  1.6752
  597MOL0     H80574   4.598   6.493   2.261  0.5848  0.2612  1.5275
  597MOL0     H80575   3.606   6.204   2.765 -1.6540  0.7056 -0.1741
  597MOL0     H80576   3.401   6.093   2.708 -1.4391  1.8403 -1.3097
  597MOL0     H80577   3.109   5.944   2.503 -0.1938  0.0639 -0.4197
  597MOL0     H80578   2.887   5.876   2.380  0.4539  1.0413 -0.7348
  597MOL0     H80579   1.676   6.270   1.310  0.0829 -1.6281 -1.6788
  597MOL0     H80580   1.485   6.349   1.156 -0.6949 -0.4497 -0.6958
  597MOL0     H80581   1.197   6.391   0.940 -1.1493  2.4307  1.1618
  597MOL0     H80582   1.065   6.449   0.762  1.9552 -1.4981  0.2316
  597MOL0     H80583   0.617   6.425   0.827  0.3871  0.1717  2.1392
  597MOL0     H80584   0.631   6.517   0.667  0.5805 -0.5391 -0.2195
  597MOL0     H80585   0.681   6.660   0.933 -0.3633  0.2138 -0.6449
  597MOL0     H80586   0.522   6.644   0.861 -0.2884  3.0482  0.6741
  597MOL0     H80587   0.616   6.742   0.641  0.5089  3.2338 -0.3783
  597MOL0     H80588   0.743   6.797   0.739 -1.0222  0.9678  0.0609
  597MOL0     H80589   0.593   6.945   0.873  0.4483 -1.6215  0.5757
  597MOL0     H80590   0.599   6.973   0.701  0.2229  0.3880  1.3611
  597MOL0     H80591   0.197   6.882   0.785  1.1160  4.4062 -1.8616
  597MOL0     H80592   0.722   6.440   1.019  1.1195  2.0178  0.6096
  597MOL0     H80593   0.723   6.303   1.217  0.3522 -0.5747 -1.5270
  597MOL0     H80594   0.861   6.218   1.274 -0.1548  0.9769  1.1075
  597MOL0     H80595   0.865   6.393   1.299 -1.4279  1.1764  1.0710
  598MOL0     O80596   3.993   3.699   9.913  0.4288 -0.2130  0.3770
  598MOL0     C80597   3.921   3.636   9.989 -0.8186 -0.5635 -0.0001
  598MOL0     O80598   3.824   3.700  10.066 -0.1363  0.0355 -0.2253
  598MOL0     C80599   3.794   3.832  10.044 -0.5609  0.2382  0.0638
  598MOL0     C80600   3.746   3.905  10.151  0.0022  1.0393  0.4655
  598MOL0     C80601   3.734   4.039  10.148  0.2428  0.6827 -0.6222
  598MOL0     C80602   3.750   4.115  10.028  1.0561  0.7279  0.4587
  598MOL0     O80603   3.746   4.249  10.006 -0.0402 -0.1647 -0.2696
  598MOL0     C80604   3.693   4.332  10.117 -0.1621  0.5466 -0.3997
  598MOL0     C80605   3.806   4.355  10.224  0.4853  0.5349  0.0936
  598MOL0     C80606   3.751   4.451  10.338  0.1251  0.2553  0.2662
  598MOL0     C80607   3.865   4.486  10.430 -0.1234  1.0194  0.5445
  598MOL0     C80608   3.825   4.562  10.561 -0.0333  0.7624  0.3070
  598MOL0     C80609   3.746   4.696  10.541 -0.1906 -0.1170 -0.4001
  598MOL0     C80610   3.702   4.757  10.671  0.3937  0.6337 -0.5326
  598MOL0     C80611   3.671   4.908  10.658  1.5553  0.5657 -0.4805
  598MOL0     N80612   3.780   5.001  10.648 -0.2638  0.6119  0.7608
  598MOL0     C80613   3.855   5.039  10.756  0.1413 -0.5622  0.2586
  598MOL0     C80614   3.969   5.086  10.701 -0.1462 -0.5384  0.2718
  598MOL0     C80615   4.084   5.142  10.783  0.5881  0.4126 -0.3844
  598MOL0     C80616   4.141   5.279  10.754 -0.2284  0.1517 -0.8831
  598MOL0     C80617   4.086   5.394  10.821  0.2381  0.2274  0.1093
  598MOL0     C80618   4.163   5.525  10.793  0.2562  0.6401  0.3094
  598MOL0     O80619   4.287   5.510  10.874  0.1622 -0.0776  0.0637
  598MOL0     C80620   4.386   5.609  10.846  0.5032  0.2047  0.1369
  598MOL0     C80621   4.517   5.574  10.873 -0.0447 -0.1070  0.0199
  598MOL0     C80622   4.621   5.672  10.865 -0.2345 -0.5438 -0.8718
  598MOL0     C80623   4.608   5.801  10.808  0.3273 -0.1664  0.0511
  598MOL0     C80624   4.727   5.893  10.804 -0.4563  0.4167  0.5961
  598MOL0     O80625   4.834   5.842  10.885 -0.5926  0.1420  0.6421
  598MOL0     C80626   4.961   5.904  10.890  0.7215 -0.3893 -0.4816
  598MOL0     C80627   4.990   6.040  10.879 -0.6766 -0.1906  0.2149
  598MOL0     C80628   5.123   6.086  10.897 -1.0152 -0.5261 -1.0049
  598MOL0     C80629   5.229   5.987  10.913 -1.3864 -0.3303 -0.4188
  598MOL0     O80630   5.362   6.020  10.906  0.6173  0.2785  0.7112
  598MOL0     C80631   5.415   6.119  10.994 -0.8419  0.2598 -0.0279
  598MOL0     C80632   5.494   6.214  10.901  0.5810  0.0346  0.3284
  598MOL0     C80633   5.554   6.335  10.957  0.2427  0.1139 -0.3263
  598MOL0     C80634   5.656   6.337  11.072 -0.0391  0.2855  0.5305
  598MOL0     C80635   5.686   6.482  11.117 -0.5848  0.7869 -0.4765
  598MOL0     C80636   5.824   6.491  11.183 -0.4232 -0.8580  0.9160
  598MOL0     C80637   5.824   6.612  11.266  0.7768  0.3194 -0.0020
  598MOL0     C80638   5.961   6.623  11.325 -0.4011  0.1426  0.0114
  598MOL0    Cl80639   5.940   6.766  11.440 -0.3649  0.3296  0.1661
  598MOL0     C80640   5.199   5.855  10.928 -0.1023  0.0882  0.1565
  598MOL0     C80641   5.066   5.815  10.923 -0.4704 -0.4039 -0.4644
  598MOL0     O80642   4.730   5.999  10.746 -0.3039 -0.6435 -0.5974
  598MOL0     C80643   4.478   5.825  10.764  0.1799 -0.8356  0.4014
  598MOL0     C80644   4.366   5.738  10.793  0.1325 -0.2795 -0.1847
  598MOL0     N80645   3.960   5.078  10.566  0.6527  0.0937 -0.4646
  598MOL0     N80646   3.838   5.032  10.532  0.3613  0.0837 -0.7653
  598MOL0     C80647   3.781   4.037   9.913 -0.4395  0.5540  0.2362
  598MOL0     C80648   3.807   3.903   9.919 -0.4117  0.1030  0.3358
  598MOL0     C80649   3.896   3.500   9.978 -0.6410  0.8131  0.2240
  598MOL0     C80650   3.861   3.428  10.095  0.0625 -0.1781  0.2106
  598MOL0     C80651   3.844   3.292  10.092  0.9739  0.0311  0.3543
  598MOL0     C80652   3.851   3.226   9.974 -0.4338 -0.8760 -0.2538
  598MOL0     O80653   3.832   3.091   9.995 -0.0948  0.0744 -0.2711
  598MOL0     C80654   3.876   3.014   9.883  0.3327  0.3133  0.8628
  598MOL0     C80655   3.840   2.866   9.926  1.1295  0.1103 -0.1442
  598MOL0     C80656   3.691   2.823   9.910  1.3954  0.2153 -0.8078
  598MOL0     C80657   3.592   2.912   9.977  0.3175 -0.3023 -0.6489
  598MOL0     C80658   3.619   2.941  10.116  0.1070 -0.1145 -0.2334
  598MOL0     C80659   3.643   2.941  10.240 -0.4856  0.8167  0.8939
  598MOL0     C80660   3.889   3.284   9.858  0.2515 -1.3208  0.0304
  598MOL0     C80661   3.902   3.424   9.857  0.3026  0.4018  0.8038
  598MOL0     C80662   3.926   3.483   9.716 -0.6847  0.0534 -0.5717
  598MOL0     H80663   3.719   3.852  10.243 -1.7306 -0.7659 -0.9863
  598MOL0     H80664   3.700   4.088  10.239  1.0263  0.7072 -0.3396
  598MOL0     H80665   3.666   4.427  10.072  0.8743  0.4698 -1.2206
  598MOL0     H80666   3.604   4.285  10.159  0.6857  0.4331  1.3908
  598MOL0     H80667   3.894   4.403  10.179 -0.2379  1.8536  0.0501
  598MOL0     H80668   3.847   4.262  10.265  0.3079  0.4608  0.1042
  598MOL0     H80669   3.673   4.396  10.390  1.4214 -2.5832 -0.5848
  598MOL0     H80670   3.708   4.541  10.293 -0.2751 -1.0059 -2.0249
  598MOL0     H80671   3.914   4.399  10.475 -1.6908  1.4291  3.2778
  598MOL0     H80672   3.941   4.536  10.369  2.1912 -0.9862  1.6229
  598MOL0     H80673   3.780   4.482  10.620 -2.3252  0.4669 -1.7099
  598MOL0     H80674   3.922   4.595  10.601 -0.1271 -0.7918  1.9538
  598MOL0     H80675   3.804   4.758  10.473 -0.3492 -2.3876 -2.7522
  598MOL0     H80676   3.659   4.670  10.481 -0.9603  0.2275  0.5479
  598MOL0     H80677   3.780   4.742  10.746  1.2364  1.5013 -1.2034
  598MOL0     H80678   3.613   4.704  10.706 -0.2038  3.5565  2.8709
  598MOL0     H80679   3.601   4.913  10.575  0.1547  1.7357  0.7244
  598MOL0     H80680   3.605   4.939  10.740 -0.0014 -2.6850 -0.3579
  598MOL0     H80681   3.815   5.027  10.857 -1.4382  2.0698  0.0455
  598MOL0     H80682   4.053   5.150  10.887  4.4756 -1.1292  1.0835
  598MOL0     H80683   4.164   5.069  10.796 -1.1681 -1.4345  0.5491
  598MOL0     H80684   4.244   5.266  10.787  0.1168  0.8721 -1.6503
  598MOL0     H80685   4.125   5.305  10.649  0.4609  1.4086 -0.6956
  598MOL0     H80686   4.073   5.380  10.928 -0.3741 -0.7040 -0.0727
  598MOL0     H80687   3.985   5.409  10.780  1.3558  2.3089 -2.1644
  598MOL0     H80688   4.111   5.615  10.824 -0.2610 -0.2034  2.0045
  598MOL0     H80689   4.186   5.535  10.686  0.3726 -3.2643 -0.1957
  598MOL0     H80690   4.538   5.471  10.902  0.1727 -0.7221 -2.1487
  598MOL0     H80691   4.718   5.629  10.885 -0.3643 -0.5560 -0.2257
  598MOL0     H80692   4.923   6.123  10.860  1.8712  2.2002  1.0498
  598MOL0     H80693   5.154   6.189  10.894 -1.1812 -0.2568  2.4237
  598MOL0     H80694   5.341   6.179  11.048 -1.5637  0.5229 -1.2518
  598MOL0     H80695   5.478   6.077  11.073 -2.5058 -0.6203  0.8928
  598MOL0     H80696   5.576   6.152  10.862 -0.0525 -1.5346  1.3947
  598MOL0     H80697   5.423   6.246  10.824 -0.7723 -0.1348  1.4672
  598MOL0     H80698   5.604   6.380  10.871 -2.6334 -2.9089 -3.8913
  598MOL0     H80699   5.465   6.393  10.983 -0.0580 -1.3819  2.3282
  598MOL0     H80700   5.744   6.280  11.039 -1.6585 -1.8881 -0.2889
  598MOL0     H80701   5.621   6.274  11.155  1.5229 -1.0899  0.2089
  598MOL0     H80702   5.611   6.524  11.184 -0.0428 -0.8263  1.2015
  598MOL0     H80703   5.690   6.547  11.029 -0.0347 -2.1201 -2.7541
  598MOL0     H80704   5.851   6.418  11.260 -0.7428 -1.0698  0.8279
  598MOL0     H80705   5.899   6.501  11.103 -1.0792  2.1499  0.5577
  598MOL0     H80706   5.752   6.597  11.348  0.4448  1.8860  0.0172
  598MOL0     H80707   5.793   6.706  11.220 -2.8960 -0.5546  0.3277
  598MOL0     H80708   5.989   6.536  11.384 -3.6759 -1.9395 -1.2705
  598MOL0     H80709   6.042   6.638  11.253 -1.0583  0.9839 -0.5716
  598MOL0     H80710   5.285   5.790  10.941  1.2602  1.8028  0.1803
  598MOL0     H80711   5.042   5.714  10.954  0.7508 -0.4029  0.5739
  598MOL0     H80712   4.457   5.916  10.710 -0.6572 -1.2343  0.0391
  598MOL0     H80713   4.264   5.766  10.771  0.8852  1.9761 -1.0481
  598MOL0     H80714   3.801   4.079   9.815 -1.5534  0.0901 -0.2184
  598MOL0     H80715   3.838   3.847   9.832  2.8573  0.1307  1.3663
  598MOL0     H80716   3.840   3.478  10.189 -1.4877 -2.2967  1.0720
  598MOL0     H80717   3.839   3.234  10.183  4.3383 -1.7266 -0.4127
  598MOL0     H80718   3.985   3.018   9.876  0.5589  0.4788  3.4120
  598MOL0     H80719   3.827   3.043   9.790 -2.0321  0.7557  2.1537
  598MOL0     H80720   3.856   2.848  10.033 -1.9821 -2.6585  0.0301
  598MOL0     H80721   3.897   2.794   9.868  2.5574  0.9021  0.2417
  598MOL0     H80722   3.691   2.722   9.953  1.4089  0.6479  0.2343
  598MOL0     H80723   3.665   2.822   9.803 -1.8691  3.1641 -0.2326
  598MOL0     H80724   3.596   3.012   9.934 -1.6784  0.4325  0.7222
  598MOL0     H80725   3.490   2.874   9.967 -0.0694 -1.2113  4.1504
  598MOL0     H80726   3.654   2.935  10.347  4.4454  0.1760  0.5799
  598MOL0     H80727   3.886   3.238   9.759 -0.7893  1.8525 -1.5503
  598MOL0     H80728   3.874   3.579   9.706  1.1676  1.4603  1.9391
  598MOL0     H80729   4.034   3.503   9.716 -0.4892 -0.7183  1.6295
  598MOL0     H80730   3.894   3.409   9.643 -0.7007  0.3018 -0.8147
  599MOL0     O80731  10.494   6.271   5.256  0.5274 -0.9847 -0.3536
  599MOL0     C80732  10.538   6.237   5.366 -0.3816  0.6505 -0.7732
  599MOL0     O80733  10.619   6.317   5.447 -0.1903 -0.4055 -0.2559
  599MOL0     C80734  10.658   6.437   5.405 -0.2459  0.4761 -0.1451
  599MOL0     C80735  10.798   6.456   5.408 -0.1359 -0.1257 -0.1455
  599MOL0     C80736  10.858   6.563   5.343  0.1886 -0.5147 -0.0771
  599MOL0     C80737  10.777   6.656   5.279 -0.5789 -0.6357  1.4355
  599MOL0     O80738  10.826   6.767   5.209 -0.3570  0.3302 -0.0259
  599MOL0     C80739  10.962   6.797   5.211 -0.5212 -1.0365  0.3087
  599MOL0     C80740  10.989   6.936   5.163  0.7350 -0.0485 -0.4485
  599MOL0     C80741  11.128   6.965   5.139 -0.0708  0.2740  0.2352
  599MOL0     C80742  11.138   7.109   5.073  0.0202  0.0915  0.0368
  599MOL0     C80743  11.293   7.148   5.035  0.7271 -0.0918 -0.0894
  599MOL0     C80744  11.370   7.049   4.946  0.9359 -0.3470  0.3109
  599MOL0     C80745  11.516   7.096   4.917  0.2489 -0.0015  0.4771
  599MOL0     C80746  11.544   7.225   4.834  0.2761  0.7081 -0.2787
  599MOL0     N80747  11.672   7.277   4.870 -0.6858 -0.3024 -1.2945
  599MOL0     C80748  11.695   7.320   4.994  0.2381  0.1110 -0.4895
  599MOL0     C80749  11.814   7.379   4.998  0.1544  0.4844  0.2662
  599MOL0     C80750  11.893   7.448   5.110  0.5006  0.4810 -0.0639
  599MOL0     C80751  11.868   7.398   5.255  0.3623  0.1373 -0.2697
  599MOL0     C80752  11.968   7.454   5.356 -0.0190 -0.3517 -0.1816
  599MOL0     C80753  11.996   7.603   5.334 -0.3666  0.1710 -0.3429
  599MOL0     O80754  12.058   7.679   5.442 -0.6921 -0.6178  0.0655
  599MOL0     C80755  12.175   7.633   5.494 -0.2664  0.3105  0.2353
  599MOL0     C80756  12.212   7.641   5.628 -0.0892  0.1334  0.5935
  599MOL0     C80757  12.339   7.591   5.685  0.4541 -0.4628  0.0838
  599MOL0     C80758  12.416   7.515   5.603  0.3406  0.0567  0.7108
  599MOL0     C80759  12.530   7.455   5.666  0.0771  0.1797  0.2973
  599MOL0     O80760  12.555   7.476   5.795  0.1032 -0.3386  0.1909
  599MOL0     C80761  12.660   7.408   5.858  1.2801 -0.4329 -0.8803
  599MOL0     C80762  12.770   7.480   5.897 -0.5444  0.0603  0.5920
  599MOL0     C80763  12.876   7.418   5.954  0.2769  0.2655 -0.3575
  599MOL0     C80764  12.877   7.286   5.987  0.6276 -0.8358  0.1870
  599MOL0     O80765  12.992   7.235   6.043 -0.1053 -0.0440 -0.4732
  599MOL0     C80766  12.992   7.110   6.105 -1.1613 -0.3209 -0.6381
  599MOL0     C80767  13.109   7.108   6.208  0.5155 -0.1682 -0.5531
  599MOL0     C80768  13.095   7.203   6.329  0.0111 -0.6873 -0.4991
  599MOL0     C80769  13.212   7.192   6.439 -0.3171  0.9004 -0.1854
  599MOL0     C80770  13.279   7.060   6.471  0.3735 -0.8295  0.7927
  599MOL0     C80771  13.336   7.055   6.615  0.0289 -0.6704 -0.5932
  599MOL0     C80772  13.459   7.148   6.638 -0.4144 -0.1678 -0.3676
  599MOL0     C80773  13.523   7.119   6.780 -0.7979 -0.7916  0.6888
  599MOL0    Cl80774  13.678   7.212   6.801 -0.2544 -0.1575  0.1075
  599MOL0     C80775  12.764   7.206   5.951 -0.3475  0.2883  0.2802
  599MOL0     C80776  12.652   7.269   5.894 -0.0215 -0.0331 -0.1137
  599MOL0     O80777  12.604   7.394   5.591  0.2828  0.1095 -0.0817
  599MOL0     C80778  12.388   7.515   5.465 -0.4585 -0.7388  0.1960
  599MOL0     C80779  12.275   7.573   5.411  0.3374  0.7782 -0.2927
  599MOL0     N80780  11.861   7.360   4.869 -0.5700 -0.1826  0.6998
  599MOL0     N80781  11.775   7.298   4.797  0.6333  0.6155  0.0119
  599MOL0     C80782  10.638   6.645   5.285 -0.8571 -0.1630 -1.0690
  599MOL0     C80783  10.584   6.530   5.351  0.9778  0.2004 -0.3313
  599MOL0     C80784  10.480   6.105   5.413 -1.0194 -0.3015 -1.6798
  599MOL0     C80785  10.381   6.046   5.335 -0.1991 -0.3973  0.3755
  599MOL0     C80786  10.326   5.923   5.370 -0.1718  0.3936 -0.6510
  599MOL0     C80787  10.361   5.852   5.488  0.2592  0.1866 -0.3394
  599MOL0     O80788  10.317   5.720   5.495 -0.0224 -0.7533  0.5389
  599MOL0     C80789  10.303   5.648   5.625  0.2922  0.2141 -0.4692
  599MOL0     C80790  10.187   5.537   5.613 -1.2850  0.0029 -1.6360
  599MOL0     C80791  10.176   5.468   5.470  0.2751 -0.3318 -0.0969
  599MOL0     C80792  10.301   5.385   5.441 -0.3403 -0.4505  0.1189
  599MOL0     C80793  10.319   5.377   5.294 -0.6701 -0.0692 -0.3246
  599MOL0     C80794  10.320   5.371   5.170 -0.8966  0.3966 -0.8662
  599MOL0     C80795  10.451   5.913   5.576  0.5374 -0.0294 -0.5008
  599MOL0     C80796  10.518   6.034   5.547 -0.4343 -0.3675  0.3749
  599MOL0     C80797  10.605   6.098   5.653  0.6681  0.3462 -0.6850
  599MOL0     H80798  10.857   6.374   5.448  0.1091  0.5411  0.8768
  599MOL0     H80799  10.966   6.558   5.345  0.2202  0.2488  0.5774
  599MOL0     H80800  11.000   6.797   5.314 -0.6940  0.5509  0.3910
  599MOL0     H80801  11.017   6.724   5.151 -0.1414 -0.3229 -0.2119
  599MOL0     H80802  10.966   7.012   5.238  0.0658  0.2810 -0.9692
  599MOL0     H80803  10.935   6.963   5.072  0.6742 -0.4423 -0.5345
  599MOL0     H80804  11.153   6.892   5.061 -0.3998  2.1508 -1.6899
  599MOL0     H80805  11.189   6.963   5.230 -0.5763  0.9188  0.5917
  599MOL0     H80806  11.074   7.111   4.985  0.2078  0.1259 -0.1001
  599MOL0     H80807  11.100   7.186   5.140  2.6078  1.8496 -0.3828
  599MOL0     H80808  11.296   7.249   4.991  0.8487 -0.1481 -0.2092
  599MOL0     H80809  11.338   7.149   5.134 -1.4870  1.1339  0.9893
  599MOL0     H80810  11.366   6.950   4.992  2.5659 -1.5772 -2.0461
  599MOL0     H80811  11.297   7.045   4.865  1.2900 -0.3994 -0.0059
  599MOL0     H80812  11.555   7.012   4.860 -2.1213 -0.3713 -0.7481
  599MOL0     H80813  11.563   7.096   5.016 -0.3168  0.7766  0.7615
  599MOL0     H80814  11.548   7.211   4.726  2.6775  3.3689 -0.6642
  599MOL0     H80815  11.469   7.300   4.861 -2.5602 -2.1627  0.4191
  599MOL0     H80816  11.628   7.304   5.079  3.1616 -3.0057  1.4643
  599MOL0     H80817  11.996   7.434   5.076  0.6740  1.8293 -0.1473
  599MOL0     H80818  11.873   7.555   5.108 -2.1998  0.0791  1.2097
  599MOL0     H80819  11.773   7.448   5.275  0.3375 -0.0311  0.0374
  599MOL0     H80820  11.865   7.289   5.264  0.6336 -0.3210 -4.0137
  599MOL0     H80821  12.060   7.395   5.357  1.6289  2.0462 -0.5212
  599MOL0     H80822  11.919   7.442   5.453  2.1649  3.0268  1.5653
  599MOL0     H80823  11.894   7.637   5.312 -0.9801 -1.0202  0.5198
  599MOL0     H80824  12.061   7.619   5.248 -1.3065  4.8433 -0.4510
  599MOL0     H80825  12.148   7.692   5.699  0.6739 -0.2917  1.6047
  599MOL0     H80826  12.352   7.602   5.792  0.4482  1.6844 -0.0809
  599MOL0     H80827  12.778   7.585   5.873  0.6105 -0.6909 -2.9345
  599MOL0     H80828  12.959   7.480   5.987  2.3913 -2.0010 -1.0970
  599MOL0     H80829  12.903   7.113   6.169  1.5805  2.1350  3.5645
  599MOL0     H80830  12.994   7.033   6.028  1.6858 -3.5662  2.3515
  599MOL0     H80831  13.119   7.009   6.252 -0.2415  0.5399  1.3486
  599MOL0     H80832  13.198   7.139   6.152  2.5133  1.1806  3.0406
  599MOL0     H80833  13.088   7.306   6.293  0.1310  0.0628  1.4883
  599MOL0     H80834  13.002   7.179   6.381 -1.1878  1.7603 -1.3741
  599MOL0     H80835  13.166   7.230   6.531 -0.8537  1.9838 -0.8784
  599MOL0     H80836  13.308   7.239   6.415  0.8519 -2.2788 -2.4205
  599MOL0     H80837  13.370   7.044   6.412  1.0494 -1.6977  2.0313
  599MOL0     H80838  13.205   6.980   6.459  1.6974 -2.0385  0.3735
  599MOL0     H80839  13.257   7.063   6.690 -0.6025 -0.9558 -1.2181
  599MOL0     H80840  13.376   6.953   6.620  0.2427 -0.6434 -1.5748
  599MOL0     H80841  13.438   7.255   6.631  3.5962  0.9372  1.4684
  599MOL0     H80842  13.527   7.114   6.558 -1.4657 -0.1061 -1.3148
  599MOL0     H80843  13.450   7.144   6.857 -2.5087  1.4215 -1.4676
  599MOL0     H80844  13.543   7.012   6.790  2.1521 -0.2628  1.2150
  599MOL0     H80845  12.765   7.099   5.965 -0.0756  0.1716 -0.6073
  599MOL0     H80846  12.560   7.215   5.876 -0.3541  0.5379 -0.1505
  599MOL0     H80847  12.452   7.455   5.402 -0.5856 -1.2600  0.5595
  599MOL0     H80848  12.267   7.586   5.304  1.3880  0.5072 -0.4197
  599MOL0     H80849  10.575   6.719   5.237  0.7568  1.5728 -0.6232
  599MOL0     H80850  10.478   6.507   5.354  1.3991 -2.4018 -2.2884
  599MOL0     H80851  10.357   6.091   5.239 -1.1807  0.9738  1.2257
  599MOL0     H80852  10.267   5.872   5.295 -0.8685  0.4299 -0.1394
  599MOL0     H80853  10.266   5.719   5.700 -1.0315 -0.0303 -0.8611
  599MOL0     H80854  10.395   5.603   5.663 -0.9373 -0.9742  1.2472
  599MOL0     H80855  10.085   5.576   5.624 -0.4126  2.1540 -0.8285
  599MOL0     H80856  10.207   5.459   5.687  1.0460  1.4924 -0.5995
  599MOL0     H80857  10.180   5.559   5.411  2.6049  0.1461  0.6689
  599MOL0     H80858  10.084   5.414   5.448  1.4781 -2.0104 -1.3178
  599MOL0     H80859  10.391   5.411   5.498  0.9343  2.1783 -2.8164
  599MOL0     H80860  10.287   5.281   5.472 -1.5213  0.4572  2.9402
  599MOL0     H80861  10.306   5.367   5.064  1.1666  1.2557 -1.2228
  599MOL0     H80862  10.497   5.860   5.659  2.0596  1.1715 -0.5463
  599MOL0     H80863  10.695   6.140   5.607  0.6413 -0.1226 -1.1760
  599MOL0     H80864  10.549   6.175   5.707 -0.6381  0.6838 -2.4315
  599MOL0     H80865  10.642   6.022   5.723 -1.3428  0.6980  0.8738
  600MOL0     O80866   6.618  10.934   1.394 -0.4284  0.1891  0.0861
  600MOL0     C80867   6.712  11.003   1.414  0.1142 -0.1782 -0.4352
  600MOL0     O80868   6.742  11.064   1.538 -0.6479 -0.2051  0.1916
  600MOL0     C80869   6.732  10.995   1.656  1.2154  0.6385 -0.8117
  600MOL0     C80870   6.740  10.856   1.660 -0.3790  0.8414  1.0983
  600MOL0     C80871   6.716  10.787   1.777  0.4519  0.8003 -0.0065
  600MOL0     C80872   6.698  10.856   1.896  0.4729  0.1092 -0.3329
  600MOL0     O80873   6.693  10.812   2.030  0.0832 -0.3735  0.6934
  600MOL0     C80874   6.668  10.671   2.062 -1.2222  0.0033  0.1855
  600MOL0     C80875   6.534  10.626   2.003  0.2291 -0.3948  0.0800
  600MOL0     C80876   6.494  10.488   2.046 -0.0239 -0.2633  0.1526
  600MOL0     C80877   6.570  10.379   1.980  0.6697 -0.0549 -0.4023
  600MOL0     C80878   6.509  10.242   2.033 -0.5847  0.4770 -0.0988
  600MOL0     C80879   6.366  10.216   1.998  0.5030  0.6311  0.0847
  600MOL0     C80880   6.335  10.061   1.989  1.2323 -0.5168 -0.7779
  600MOL0     C80881   6.325   9.989   2.120  0.2081 -0.5637 -0.9737
  600MOL0     N80882   6.258   9.859   2.112  0.2362 -0.1571 -0.0655
  600MOL0     C80883   6.117   9.842   2.120 -0.1109 -0.5184 -0.6118
  600MOL0     C80884   6.094   9.711   2.116  0.8610 -0.2027  0.3046
  600MOL0     C80885   5.968   9.639   2.142 -0.4336  0.0102 -0.1057
  600MOL0     C80886   5.965   9.550   2.269 -0.0458  0.0387 -0.1074
  600MOL0     C80887   5.829   9.484   2.299  0.4229  0.5594  0.4401
  600MOL0     C80888   5.853   9.362   2.379 -0.0034  0.2953  0.1399
  600MOL0     O80889   5.723   9.293   2.386  0.7048 -0.4344 -0.5922
  600MOL0     C80890   5.706   9.172   2.457 -0.2199 -0.3892 -0.2209
  600MOL0     C80891   5.795   9.129   2.555 -0.3993 -0.3605 -0.2807
  600MOL0     C80892   5.771   9.011   2.630 -0.5336 -0.3595  0.4307
  600MOL0     C80893   5.662   8.933   2.604  0.1453  1.4341 -0.1632
  600MOL0     C80894   5.645   8.803   2.670 -0.4986  0.0295 -0.2730
  600MOL0     O80895   5.719   8.777   2.786 -0.0337 -0.6556 -0.5278
  600MOL0     C80896   5.663   8.804   2.906  0.6894  0.2841 -0.3770
  600MOL0     C80897   5.526   8.781   2.904  0.0809 -1.0789 -0.5709
  600MOL0     C80898   5.460   8.833   3.022  0.6096  0.4413 -0.1303
  600MOL0     C80899   5.523   8.888   3.137 -0.0982 -0.1429 -0.5769
  600MOL0     O80900   5.468   8.930   3.257  0.0251  0.4391  0.7735
  600MOL0     C80901   5.336   8.878   3.285 -0.5570  0.3953 -0.5080
  600MOL0     C80902   5.293   8.922   3.425 -0.1009 -0.3435  1.4270
  600MOL0     C80903   5.353   9.054   3.484 -0.5314  0.7236  1.2733
  600MOL0     C80904   5.300   9.082   3.621 -0.4451  0.0589 -0.2056
  600MOL0     C80905   5.393   9.020   3.731 -1.1257  0.0616  0.5530
  600MOL0     C80906   5.372   9.082   3.874 -0.0273  1.1376 -0.4477
  600MOL0     C80907   5.238   9.041   3.926  0.3282 -0.2363 -0.5088
  600MOL0     C80908   5.224   9.073   4.075 -0.1745  0.5718 -0.0323
  600MOL0    Cl80909   5.194   9.252   4.096 -0.1953 -0.1905  0.1904
  600MOL0     C80910   5.656   8.912   3.122  0.7944 -0.5129  0.9713
  600MOL0     C80911   5.731   8.867   3.009 -0.6837  0.2047  0.1457
  600MOL0     O80912   5.579   8.715   2.621  0.3680 -0.0776 -0.3986
  600MOL0     C80913   5.576   8.969   2.496  0.8677  0.5569  0.5860
  600MOL0     C80914   5.591   9.095   2.435 -0.5765  0.3695 -0.0256
  600MOL0     N80915   6.213   9.648   2.104 -0.5062  1.1931 -0.9814
  600MOL0     N80916   6.313   9.731   2.097 -0.9188 -0.0955 -0.0081
  600MOL0     C80917   6.702  10.998   1.897  0.0047  0.2923  0.3226
  600MOL0     C80918   6.705  11.068   1.778 -0.4465  0.2445  0.8402
  600MOL0     C80919   6.775  11.056   1.295  0.0260 -0.6643  0.3091
  600MOL0     C80920   6.775  11.203   1.273 -0.4066  1.0558  0.0157
  600MOL0     C80921   6.827  11.251   1.152  0.1447 -0.1592 -0.2714
  600MOL0     C80922   6.888  11.169   1.063  0.2568  1.0095 -0.1880
  600MOL0     O80923   6.961  11.213   0.949 -0.2201 -0.7212  0.1148
  600MOL0     C80924   7.100  11.253   0.971 -0.0332 -0.3030  0.3425
  600MOL0     C80925   7.160  11.260   0.828  0.4220  0.2332 -0.5372
  600MOL0     C80926   7.309  11.273   0.828 -0.7956 -0.3187 -0.2006
  600MOL0     C80927   7.352  11.397   0.910  0.4067 -0.1776 -0.5211
  600MOL0     C80928   7.494  11.424   0.875  0.1085  1.1673 -0.0171
  600MOL0     C80929   7.610  11.436   0.833 -0.1857  0.0647 -0.5676
  600MOL0     C80930   6.889  11.027   1.083  0.2394  0.6807  0.0570
  600MOL0     C80931   6.832  10.970   1.198 -0.4166  0.0316  0.4247
  600MOL0     C80932   6.826  10.822   1.194 -0.0066  0.3408 -1.3515
  600MOL0     H80933   6.756  10.799   1.569 -1.1007  3.4074 -0.7340
  600MOL0     H80934   6.717  10.680   1.764 -1.0139  0.9239 -1.4805
  600MOL0     H80935   6.752  10.608   2.033 -0.7130 -0.0354  1.6608
  600MOL0     H80936   6.652  10.655   2.169 -0.4559  1.0170  0.4690
  600MOL0     H80937   6.545  10.631   1.894 -1.2986 -0.7807 -0.1077
  600MOL0     H80938   6.450  10.690   2.031 -2.2590 -2.8769 -1.2471
  600MOL0     H80939   6.387  10.486   2.023  0.2193 -0.9240 -0.9486
  600MOL0     H80940   6.509  10.484   2.155 -3.0704  1.0800  0.7352
  600MOL0     H80941   6.544  10.383   1.874 -2.8690 -0.2826  0.3173
  600MOL0     H80942   6.677  10.390   1.997  1.0231 -1.4696 -1.5284
  600MOL0     H80943   6.570  10.164   1.988 -0.7755  0.9367 -1.1655
  600MOL0     H80944   6.515  10.232   2.142 -0.3578 -3.4938 -0.3270
  600MOL0     H80945   6.310  10.263   2.079 -0.9887  1.9156 -1.5988
  600MOL0     H80946   6.335  10.271   1.909  0.6374  1.5349  0.5780
  600MOL0     H80947   6.409  10.003   1.932  3.6553  0.4411  1.1791
  600MOL0     H80948   6.246  10.060   1.926  1.4167 -3.1196 -1.0939
  600MOL0     H80949   6.427   9.978   2.157  0.4675  0.0316 -1.4964
  600MOL0     H80950   6.266  10.044   2.195  0.5579 -0.4000 -0.8139
  600MOL0     H80951   6.046   9.920   2.145  1.7168  0.4614  1.9295
  600MOL0     H80952   5.888   9.713   2.154 -2.4655 -1.5912 -2.7888
  600MOL0     H80953   5.953   9.590   2.046  2.0430 -0.2212 -0.4305
  600MOL0     H80954   6.047   9.478   2.278  0.5067  0.8448  1.6294
  600MOL0     H80955   5.999   9.620   2.345 -0.9362  0.5255 -0.1434
  600MOL0     H80956   5.782   9.448   2.207 -0.6843 -2.4185  2.0548
  600MOL0     H80957   5.765   9.559   2.348 -1.8597  0.2393 -1.8398
  600MOL0     H80958   5.900   9.388   2.474  0.9498  1.7042 -0.6704
  600MOL0     H80959   5.928   9.301   2.328  1.9043  4.9069 -3.3567
  600MOL0     H80960   5.880   9.189   2.585  0.2656 -1.9962  1.2630
  600MOL0     H80961   5.854   8.995   2.698 -0.3964  2.2374  1.0065
  600MOL0     H80962   5.466   8.719   2.838 -0.0767 -0.8694 -0.6266
  600MOL0     H80963   5.354   8.812   3.033  0.8284  0.7401  3.7651
  600MOL0     H80964   5.261   8.929   3.224 -0.2290 -1.7778 -2.8877
  600MOL0     H80965   5.331   8.770   3.269 -2.3182  0.8476 -3.8278
  600MOL0     H80966   5.184   8.937   3.424 -0.2152 -0.9968  2.5280
  600MOL0     H80967   5.307   8.834   3.487 -0.9422 -0.7872  1.0098
  600MOL0     H80968   5.460   9.032   3.489 -0.8265 -0.5919  2.4151
  600MOL0     H80969   5.328   9.140   3.422 -3.2206  0.2786  1.6175
  600MOL0     H80970   5.206   9.027   3.635 -0.8163  1.0041  1.4057
  600MOL0     H80971   5.290   9.190   3.632 -1.4330  0.0327 -0.7228
  600MOL0     H80972   5.501   9.029   3.719 -0.9431 -0.8351  1.3635
  600MOL0     H80973   5.379   8.912   3.715 -2.5102  0.6715 -3.8446
  600MOL0     H80974   5.447   9.031   3.935  0.8430 -1.7907 -3.6383
  600MOL0     H80975   5.398   9.188   3.886  0.6774  0.6598  3.8428
  600MOL0     H80976   5.225   8.933   3.912  4.3216 -1.2421  1.9779
  600MOL0     H80977   5.160   9.093   3.870 -0.6032  0.1160  1.0520
  600MOL0     H80978   5.138   9.021   4.117 -0.9798 -0.9142 -3.1893
  600MOL0     H80979   5.316   9.043   4.127  0.6360  1.3489 -0.9614
  600MOL0     H80980   5.714   8.955   3.203 -0.8059  2.9765  0.4194
  600MOL0     H80981   5.838   8.876   2.995 -0.5085  1.2875  1.7961
  600MOL0     H80982   5.487   8.912   2.471 -1.0153  2.7180  2.0015
  600MOL0     H80983   5.527   9.114   2.350 -1.3803 -0.0503  0.4750
  600MOL0     H80984   6.717  11.062   1.983 -0.7214  0.0780  0.6155
  600MOL0     H80985   6.710  11.175   1.757 -0.1214  0.4268  1.7980
  600MOL0     H80986   6.720  11.269   1.340 -0.6866  1.7890 -0.9092
  600MOL0     H80987   6.825  11.359   1.140  0.9203  0.1031  1.6648
  600MOL0     H80988   7.152  11.183   1.037 -1.1341 -0.6976  0.8110
  600MOL0     H80989   7.098  11.343   1.034 -1.1477 -1.7688  2.5463
  600MOL0     H80990   7.093  11.338   0.790 -3.7735 -1.3310  2.7832
  600MOL0     H80991   7.143  11.169   0.771 -1.0474 -0.3692  0.7898
  600MOL0     H80992   7.342  11.275   0.723 -1.4361  1.0851 -0.4021
  600MOL0     H80993   7.355  11.187   0.877  2.9847  1.9618  0.6735
  600MOL0     H80994   7.287  11.477   0.875 -1.1196 -0.4527  1.4978
  600MOL0     H80995   7.342  11.395   1.019  1.4032 -1.2296 -0.4268
  600MOL0     H80996   7.715  11.430   0.813 -0.0118  4.5103 -2.0989
  600MOL0     H80997   6.928  10.966   1.002 -4.3816 -2.4306 -0.1840
  600MOL0     H80998   6.779  10.777   1.282  1.1523  2.3825  0.4387
  600MOL0     H80999   6.770  10.778   1.111  0.0857 -0.4763 -0.9894
  600MOL0     H81000   6.933  10.799   1.197  0.2257  0.9918 -3.3193
  601MOL0     O81001   9.604   6.408   2.892  0.0567 -0.2251  0.2528
  601MOL0     C81002   9.725   6.380   2.881 -0.1525 -1.1271  0.0267
  601MOL0     O81003   9.829   6.449   2.946  0.5681 -0.7549  1.1811
  601MOL0     C81004   9.809   6.569   3.006 -0.1616 -0.9564 -0.6748
  601MOL0     C81005   9.876   6.680   2.949 -0.7892 -0.2260 -0.4965
  601MOL0     C81006   9.854   6.804   3.008 -1.1256  0.3952  0.3119
  601MOL0     C81007   9.785   6.819   3.129 -0.1502  0.1883  0.0613
  601MOL0     O81008   9.788   6.951   3.166 -0.2873  0.0284 -0.3396
  601MOL0     C81009   9.783   6.991   3.297  0.2733 -0.4877 -0.1577
  601MOL0     C81010   9.738   7.137   3.306  0.1199 -0.2608  0.3183
  601MOL0     C81011   9.712   7.188   3.448 -0.0963 -0.3632  0.2984
  601MOL0     C81012   9.575   7.130   3.497 -0.7837 -0.0590  0.7403
  601MOL0     C81013   9.532   7.226   3.606 -0.1622 -0.2314 -0.0264
  601MOL0     C81014   9.384   7.207   3.636  0.0372  0.2806 -0.4860
  601MOL0     C81015   9.314   7.305   3.741 -0.3664 -0.5522  0.4976
  601MOL0     C81016   9.159   7.282   3.769 -0.6988 -0.1760 -0.7689
  601MOL0     N81017   9.126   7.359   3.890  0.5532 -0.1969  0.7101
  601MOL0     C81018   9.106   7.494   3.887  0.3393 -0.3372 -0.3205
  601MOL0     C81019   9.100   7.535   4.024  0.2261  0.8718  0.3449
  601MOL0     C81020   9.077   7.677   4.053  0.3524 -0.4466 -1.4566
  601MOL0     C81021   9.018   7.694   4.197  0.1408  0.2816  0.8763
  601MOL0     C81022   8.968   7.838   4.209 -0.5569 -0.2418  0.4797
  601MOL0     C81023   9.071   7.946   4.191  0.0885  0.2908  0.0455
  601MOL0     O81024   8.999   8.060   4.215  0.5910  0.1199  0.4099
  601MOL0     C81025   9.042   8.184   4.190 -0.1313  0.5779  0.2643
  601MOL0     C81026   8.945   8.283   4.197 -1.1507  0.4518 -0.4304
  601MOL0     C81027   8.977   8.414   4.154 -0.3228 -0.4777  0.1842
  601MOL0     C81028   9.113   8.458   4.133  0.7792 -0.9421 -0.3874
  601MOL0     C81029   9.146   8.589   4.098  0.9392 -0.8498  0.0863
  601MOL0     O81030   9.054   8.682   4.134  0.5134  0.8281 -0.9682
  601MOL0     C81031   9.076   8.808   4.095 -0.5698  1.5037 -0.6375
  601MOL0     C81032   9.021   8.854   3.979  0.4728 -0.6753 -0.0688
  601MOL0     C81033   9.027   8.993   3.957 -0.4425  0.1640 -0.2141
  601MOL0     C81034   9.086   9.087   4.035  0.1620 -0.2090 -0.1205
  601MOL0     O81035   9.076   9.219   4.013  0.3406 -0.0533  0.9269
  601MOL0     C81036   9.144   9.234   3.881 -0.3734  0.2209  0.5354
  601MOL0     C81037   9.230   9.355   3.873 -1.0900 -0.1567  0.6256
  601MOL0     C81038   9.142   9.482   3.897 -0.1673 -0.3643 -0.0812
  601MOL0     C81039   9.199   9.609   3.845  0.3926 -0.7044  0.8213
  601MOL0     C81040   9.142   9.672   3.714 -0.3054 -0.2763 -0.2033
  601MOL0     C81041   9.153   9.571   3.604  0.1099  0.6777  0.7192
  601MOL0     C81042   9.119   9.631   3.467 -0.6109 -0.0223 -0.3984
  601MOL0     C81043   9.153   9.536   3.350 -0.1333  0.7237 -0.2819
  601MOL0    Cl81044   9.064   9.582   3.202 -0.3318  0.1024 -0.1033
  601MOL0     C81045   9.139   9.042   4.158 -0.3124  0.4735  0.5692
  601MOL0     C81046   9.134   8.901   4.183 -0.4928 -0.0433  0.3757
  601MOL0     O81047   9.253   8.613   4.041 -0.0635 -0.2012  0.2715
  601MOL0     C81048   9.205   8.349   4.119 -0.4576 -0.1120 -0.1273
  601MOL0     C81049   9.165   8.215   4.146 -0.3376 -0.2666 -0.4115
  601MOL0     N81050   9.114   7.422   4.098 -0.1596  0.4583 -0.3652
  601MOL0     N81051   9.136   7.322   4.016 -0.6762 -0.6252  0.1523
  601MOL0     C81052   9.732   6.703   3.193 -0.5243  0.0720  0.2368
  601MOL0     C81053   9.735   6.582   3.122 -0.1505 -0.5812 -0.8181
  601MOL0     C81054   9.758   6.253   2.822  0.0320  0.3866 -0.1197
  601MOL0     C81055   9.663   6.150   2.809 -0.2710 -0.3030 -0.1982
  601MOL0     C81056   9.691   6.039   2.718 -1.4599 -0.3272 -0.0700
  601MOL0     C81057   9.814   6.028   2.646 -0.3496  0.5974 -0.1650
  601MOL0     O81058   9.822   5.918   2.567  0.1327 -0.1834 -0.1461
  601MOL0     C81059   9.948   5.850   2.556  0.5705  0.1023 -0.6892
  601MOL0     C81060   9.925   5.700   2.503  0.4364  0.0347  0.7879
  601MOL0     C81061  10.041   5.608   2.507  0.4364  0.2235 -0.2412
  601MOL0     C81062  10.024   5.479   2.431  0.6386 -0.1557 -0.3293
  601MOL0     C81063   9.911   5.394   2.473  0.9663  0.1292 -0.5579
  601MOL0     C81064   9.826   5.324   2.526 -0.9623  0.1848  0.5179
  601MOL0     C81065   9.913   6.108   2.693  0.0946 -0.5717 -0.5578
  601MOL0     C81066   9.884   6.227   2.764 -0.1450 -0.5365 -0.4550
  601MOL0     C81067  10.000   6.326   2.787  0.2287  0.3374 -0.1952
  601MOL0     H81068   9.942   6.675   2.863 -1.4913  1.0539 -1.1385
  601MOL0     H81069   9.914   6.884   2.967  0.9465 -1.8657 -1.3290
  601MOL0     H81070   9.718   6.938   3.367  0.0264  0.5109  0.3844
  601MOL0     H81071   9.887   6.997   3.332  0.8798 -0.7025 -1.8541
  601MOL0     H81072   9.643   7.151   3.253 -1.0617  1.9375  2.7688
  601MOL0     H81073   9.804   7.209   3.258 -1.6734  2.8607  2.1693
  601MOL0     H81074   9.710   7.296   3.430 -0.5632 -0.1779  1.4004
  601MOL0     H81075   9.790   7.168   3.522  1.0279 -1.9559 -1.2118
  601MOL0     H81076   9.497   7.105   3.424 -0.2314 -0.3503  0.2433
  601MOL0     H81077   9.590   7.033   3.544 -1.3291 -0.3019  0.4245
  601MOL0     H81078   9.601   7.220   3.692  0.8820  1.7670 -0.6578
  601MOL0     H81079   9.543   7.328   3.570  2.2602 -0.4286 -0.0477
  601MOL0     H81080   9.320   7.216   3.547 -0.9246  4.5833  0.4252
  601MOL0     H81081   9.360   7.105   3.668 -1.8348  1.4551  2.1890
  601MOL0     H81082   9.332   7.404   3.700  0.0153 -0.6099  0.5250
  601MOL0     H81083   9.372   7.293   3.833 -0.2533  0.0081  0.5042
  601MOL0     H81084   9.111   7.315   3.676 -0.4387 -1.6695 -1.4752
  601MOL0     H81085   9.133   7.175   3.769  1.3858 -0.7690 -3.1523
  601MOL0     H81086   9.105   7.567   3.807  1.9513  2.1198  1.7559
  601MOL0     H81087   9.159   7.748   4.048 -1.4109  1.7859 -0.3762
  601MOL0     H81088   9.002   7.703   3.978 -3.2766 -1.9833  1.3043
  601MOL0     H81089   8.931   7.628   4.193 -1.0832  1.8844 -0.6404
  601MOL0     H81090   9.090   7.666   4.274 -0.8590 -0.0602  1.7152
  601MOL0     H81091   8.923   7.849   4.308 -0.5394 -0.3223  0.4962
  601MOL0     H81092   8.885   7.854   4.139  0.6590  0.7577 -0.7941
  601MOL0     H81093   9.119   7.964   4.095 -0.5751  2.9996  0.1334
  601MOL0     H81094   9.156   7.931   4.259  1.3336  2.6049 -0.8704
  601MOL0     H81095   8.838   8.268   4.201 -1.6878  2.8840 -2.7366
  601MOL0     H81096   8.896   8.485   4.140  0.1276  0.1041  0.4647
  601MOL0     H81097   8.974   8.785   3.909  2.2685  0.3355 -2.4185
  601MOL0     H81098   8.975   9.024   3.867  0.0221  1.4093 -0.0735
  601MOL0     H81099   9.204   9.146   3.857  0.1594  0.4628  0.9530
  601MOL0     H81100   9.076   9.233   3.795  1.4737 -0.0688 -1.0004
  601MOL0     H81101   9.317   9.351   3.939  0.1390  2.1411 -0.7238
  601MOL0     H81102   9.272   9.366   3.772  0.1234 -1.3439  0.9771
  601MOL0     H81103   9.037   9.471   3.867  0.3109 -0.5469 -1.7814
  601MOL0     H81104   9.147   9.499   4.005 -1.8314 -3.1727  0.5459
  601MOL0     H81105   9.304   9.592   3.820 -0.2944 -1.2407 -2.0749
  601MOL0     H81106   9.182   9.688   3.919  1.1705 -2.3442  2.8453
  601MOL0     H81107   9.204   9.761   3.697  1.2450 -0.5675  3.2040
  601MOL0     H81108   9.041   9.712   3.726 -0.0207 -0.0172  1.6573
  601MOL0     H81109   9.259   9.545   3.597  0.1179  0.6176  1.0644
  601MOL0     H81110   9.099   9.479   3.626  1.8523 -1.1150 -1.9577
  601MOL0     H81111   9.174   9.725   3.453 -0.4751  0.0752  0.6766
  601MOL0     H81112   9.011   9.647   3.478 -1.0410 -2.8385  0.1381
  601MOL0     H81113   9.258   9.535   3.322 -0.8396 -1.0452 -3.2955
  601MOL0     H81114   9.128   9.432   3.375  2.1848 -0.4512 -2.3839
  601MOL0     H81115   9.176   9.112   4.233 -0.6788  0.0986  1.1063
  601MOL0     H81116   9.188   8.857   4.265  1.8766 -0.3663 -1.2453
  601MOL0     H81117   9.305   8.385   4.100 -0.0124 -1.0204  0.4266
  601MOL0     H81118   9.244   8.143   4.167 -1.4597 -0.9763  1.7077
  601MOL0     H81119   9.696   6.720   3.295  2.4309  0.8560  1.2522
  601MOL0     H81120   9.695   6.498   3.178 -0.1629 -0.1728 -0.2095
  601MOL0     H81121   9.572   6.152   2.869  1.4738 -0.8844  2.6686
  601MOL0     H81122   9.614   5.970   2.686 -2.3505  1.5977 -2.4827
  601MOL0     H81123  10.011   5.847   2.646  1.8377 -2.4386 -1.5688
  601MOL0     H81124  10.008   5.893   2.475  0.3588 -0.7708 -1.3169
  601MOL0     H81125   9.892   5.719   2.401 -0.6477  0.7214  1.2538
  601MOL0     H81126   9.852   5.639   2.557 -1.3469  0.7149 -0.7686
  601MOL0     H81127  10.079   5.590   2.608  2.9214  1.3249 -0.9093
  601MOL0     H81128  10.124   5.662   2.460  1.0025 -0.0398  0.4372
  601MOL0     H81129  10.017   5.517   2.328 -2.6154 -3.4924 -1.5803
  601MOL0     H81130  10.117   5.423   2.429  0.4742 -0.4809  0.5717
  601MOL0     H81131   9.761   5.245   2.557 -0.3428  0.6990  3.4402
  601MOL0     H81132  10.006   6.101   2.638  1.9944 -0.4258  2.4057
  601MOL0     H81133  10.049   6.342   2.883  4.5117  0.7382 -2.1775
  601MOL0     H81134  10.081   6.297   2.720 -1.6404 -0.2824 -2.3167
  601MOL0     H81135   9.976   6.426   2.749  0.0711  1.3486  2.3730
  602MOL0     O81136   2.945   1.043  10.900  0.2223  0.7046 -0.1434
  602MOL0     C81137   2.990   0.968  10.817 -0.5326  0.4281  0.3426
  602MOL0     O81138   2.983   0.831  10.824  1.0685 -0.0441 -0.2317
  602MOL0     C81139   3.005   0.784  10.954  0.0180  0.9069 -0.3502
  602MOL0     C81140   2.942   0.820  11.072  0.2317 -1.2537 -0.5187
  602MOL0     C81141   2.977   0.779  11.199  0.0756  0.2188  0.7920
  602MOL0     C81142   3.086   0.683  11.209  0.2282 -1.2285 -0.0238
  602MOL0     O81143   3.145   0.637  11.324 -0.5899 -0.4245 -0.5437
  602MOL0     C81144   3.181   0.755  11.416  1.0937  0.4305 -1.1859
  602MOL0     C81145   3.105   0.736  11.553  0.5559  0.3757  0.2684
  602MOL0     C81146   3.130   0.609  11.644  0.7195 -0.0390 -1.0035
  602MOL0     C81147   3.118   0.471  11.580 -0.6057  0.0471  0.2460
  602MOL0     C81148   3.110   0.348  11.666  0.0915  0.4430  0.4839
  602MOL0     C81149   3.246   0.338  11.740 -0.4094  0.6593  0.5020
  602MOL0     C81150   3.309   0.203  11.733 -0.0941 -0.6890 -0.9697
  602MOL0     C81151   3.438   0.196  11.815 -0.1948  0.0032  0.3092
  602MOL0     N81152   3.426   0.200  11.963 -0.9600  0.4439 -0.1318
  602MOL0     C81153   3.375   0.304  12.033  1.2064  0.1165 -0.6953
  602MOL0     C81154   3.319   0.239  12.135  0.9975 -0.1081  0.2102
  602MOL0     C81155   3.245   0.287  12.255  0.7270 -0.1876  0.1079
  602MOL0     C81156   3.349   0.286  12.364 -0.3034 -0.4560 -1.1617
  602MOL0     C81157   3.276   0.262  12.506  0.3091 -0.3172  0.6280
  602MOL0     C81158   3.306   0.119  12.565 -0.0899  0.0862  0.2356
  602MOL0     O81159   3.213   0.087  12.674  0.2551 -0.4483 -0.3858
  602MOL0     C81160   3.220   0.164  12.787 -0.3256 -0.2133 -0.6399
  602MOL0     C81161   3.118   0.169  12.879  0.3540  0.5407 -1.0815
  602MOL0     C81162   3.111   0.249  12.998 -0.3761 -0.4707  0.3950
  602MOL0     C81163   3.221   0.337  13.020  0.1901 -0.5283 -0.3824
  602MOL0     C81164   3.213   0.435  13.130  0.2673  0.0989 -0.2334
  602MOL0     O81165   3.095   0.484  13.167 -0.4050  0.7804 -0.4781
  602MOL0     C81166   3.088   0.570  13.278 -0.0765 -0.1451 -0.3135
  602MOL0     C81167   3.052   0.530  13.410 -0.5228 -0.7227 -0.2008
  602MOL0     C81168   3.062   0.633  13.518  0.4184  0.7648  1.2571
  602MOL0     C81169   3.093   0.763  13.498  1.1520  0.8428  0.7084
  602MOL0     O81170   3.117   0.844  13.607  0.7095 -0.4397  0.2204
  602MOL0     C81171   3.169   0.985  13.600 -0.0117  0.4195 -0.4058
  602MOL0     C81172   3.197   1.022  13.747 -0.0531  0.5057 -1.4153
  602MOL0     C81173   3.225   1.164  13.784 -0.3936 -0.2109  0.5399
  602MOL0     C81174   3.105   1.250  13.768  0.4122 -0.1604  0.6539
  602MOL0     C81175   3.074   1.359  13.874  0.7537 -0.6391  0.7308
  602MOL0     C81176   3.185   1.468  13.889  0.1821  0.4732  0.6493
  602MOL0     C81177   3.194   1.535  13.752 -1.0578 -0.1260 -0.4605
  602MOL0     C81178   3.160   1.677  13.755  1.1007  0.8355 -0.5630
  602MOL0    Cl81179   3.219   1.760  13.601  0.4258 -0.2423 -0.1934
  602MOL0     C81180   3.125   0.804  13.363  0.1337  0.0043 -0.4300
  602MOL0     C81181   3.121   0.713  13.258 -0.9215 -0.4231 -0.4366
  602MOL0     O81182   3.324   0.464  13.181  0.2810  0.2952 -0.6830
  602MOL0     C81183   3.333   0.321  12.941 -1.0206 -0.6107  0.3586
  602MOL0     C81184   3.335   0.241  12.828 -0.3526  0.0060  0.3515
  602MOL0     N81185   3.348   0.099  12.140 -0.0621 -0.2284  0.6914
  602MOL0     N81186   3.421   0.082  12.034  0.1312  0.2446  0.0114
  602MOL0     C81187   3.145   0.633  11.091  0.0542  0.1520 -1.5680
  602MOL0     C81188   3.096   0.678  10.968  0.0243 -0.2210 -0.1810
  602MOL0     C81189   3.050   1.026  10.695  1.0869 -0.2517 -0.7556
  602MOL0     C81190   3.075   0.936  10.589  0.5283 -0.5210 -0.2381
  602MOL0     C81191   3.155   0.987  10.476 -0.0823 -0.4167  0.0677
  602MOL0     C81192   3.186   1.122  10.466  0.0970  0.3792 -0.0485
  602MOL0     O81193   3.253   1.165  10.351 -0.6953  0.0531 -0.4784
  602MOL0     C81194   3.209   1.294  10.298 -0.4863  0.5083 -0.6971
  602MOL0     C81195   3.071   1.281  10.243  0.0269  0.7152  0.1471
  602MOL0     C81196   3.042   1.344  10.111 -0.6547  0.4149  0.9457
  602MOL0     C81197   3.102   1.489  10.107 -0.9175  0.4608  0.1235
  602MOL0     C81198   3.031   1.580  10.190 -0.3856 -0.4852  0.1351
  602MOL0     C81199   2.973   1.650  10.268 -1.3686  0.3971  0.1726
  602MOL0     C81200   3.163   1.206  10.576  0.0631  0.1903 -0.5462
  602MOL0     C81201   3.097   1.158  10.693 -0.1578  0.0044  0.5573
  602MOL0     C81202   3.073   1.261  10.793 -0.5484  0.3091 -1.3118
  602MOL0     H81203   2.857   0.887  11.079 -0.3841 -2.1214  0.7446
  602MOL0     H81204   2.926   0.815  11.288 -0.0305 -0.1029  0.8613
  602MOL0     H81205   3.286   0.752  11.448  0.7726 -3.3453  0.0315
  602MOL0     H81206   3.159   0.851  11.368  3.4232  0.3093 -2.6542
  602MOL0     H81207   2.998   0.750  11.531  0.0346  0.7051  2.7456
  602MOL0     H81208   3.128   0.827  11.609  2.6353 -0.2449  0.5165
  602MOL0     H81209   3.062   0.613  11.730  1.2974 -0.1012 -0.5403
  602MOL0     H81210   3.228   0.612  11.691 -0.5063  0.3848  1.7368
  602MOL0     H81211   3.030   0.466  11.515  0.9696  0.0385 -1.9921
  602MOL0     H81212   3.212   0.474  11.524 -0.6003  4.4391  0.1811
  602MOL0     H81213   3.042   0.355  11.752  1.3431 -0.2256  1.5577
  602MOL0     H81214   3.088   0.255  11.612 -0.8059  0.9161 -0.0022
  602MOL0     H81215   3.321   0.401  11.692  1.4533 -1.9745 -0.2660
  602MOL0     H81216   3.242   0.386  11.838  2.1533 -1.3189  1.6958
  602MOL0     H81217   3.328   0.183  11.627  1.9295  0.4864 -0.8935
  602MOL0     H81218   3.236   0.127  11.761  1.0736 -1.3915  0.3062
  602MOL0     H81219   3.491   0.104  11.790  1.0928  0.4672  1.2328
  602MOL0     H81220   3.510   0.274  11.788  0.6999 -0.0611  2.3298
  602MOL0     H81221   3.370   0.412  12.022  1.6516  1.1134  5.3721
  602MOL0     H81222   3.218   0.392  12.244 -0.3354 -0.2028  2.1901
  602MOL0     H81223   3.150   0.234  12.269  0.1078  1.2096  1.3753
  602MOL0     H81224   3.431   0.216  12.348 -2.0857 -2.7964 -0.5366
  602MOL0     H81225   3.403   0.380  12.378  0.3706 -1.1233  1.1500
  602MOL0     H81226   3.170   0.276  12.483  0.4743 -3.4853 -3.2141
  602MOL0     H81227   3.310   0.329  12.585 -0.1017 -0.2184  0.7238
  602MOL0     H81228   3.410   0.121  12.598 -0.4461 -0.4334  1.4442
  602MOL0     H81229   3.300   0.043  12.487 -2.4452  2.9974 -2.6819
  602MOL0     H81230   3.036   0.099  12.875 -0.5340  1.3056  1.7363
  602MOL0     H81231   3.024   0.251  13.063 -0.1338  0.0494  0.7108
  602MOL0     H81232   3.035   0.426  13.437 -2.6911  0.0636  1.8627
  602MOL0     H81233   3.046   0.607  13.621 -2.1205 -1.0426  0.4956
  602MOL0     H81234   3.253   0.984  13.531 -0.4711  1.0147 -0.9827
  602MOL0     H81235   3.094   1.055  13.563  1.1938  1.9146 -0.1276
  602MOL0     H81236   3.111   0.984  13.803  0.6567  1.2903  0.2793
  602MOL0     H81237   3.285   0.969  13.784 -1.6679 -1.4916 -0.2243
  602MOL0     H81238   3.249   1.161  13.890  0.7759  1.1496  0.3435
  602MOL0     H81239   3.311   1.201  13.727  1.8189 -2.1427  2.3994
  602MOL0     H81240   3.019   1.181  13.769  1.0091 -0.9402 -0.1826
  602MOL0     H81241   3.108   1.287  13.665  0.5182  0.7955  0.9985
  602MOL0     H81242   3.052   1.310  13.969  0.5626 -2.1227 -0.0463
  602MOL0     H81243   2.987   1.415  13.840  0.1959 -1.4675  0.7619
  602MOL0     H81244   3.158   1.547  13.960  0.3583  1.6616 -0.5585
  602MOL0     H81245   3.277   1.434  13.938  0.2053 -1.2779 -0.5290
  602MOL0     H81246   3.130   1.492  13.675 -0.8092  0.0897 -0.7913
  602MOL0     H81247   3.292   1.532  13.702 -1.8253  1.8050 -2.2471
  602MOL0     H81248   3.052   1.690  13.757  0.9915  0.0624 -0.9671
  602MOL0     H81249   3.187   1.738  13.841 -3.5385  3.3060 -0.5943
  602MOL0     H81250   3.166   0.903  13.350 -1.5278  1.2809  3.0701
  602MOL0     H81251   3.147   0.746  13.158 -1.6276  2.6552  0.3076
  602MOL0     H81252   3.423   0.378  12.960 -1.2181  2.0301 -4.8956
  602MOL0     H81253   3.431   0.226  12.780 -0.2394 -1.5864  1.0206
  602MOL0     H81254   3.231   0.568  11.081  1.4413  2.1155 -3.2065
  602MOL0     H81255   3.130   0.627  10.878  0.0413 -0.6328  0.0549
  602MOL0     H81256   3.040   0.834  10.598  0.1835 -0.4019 -0.2251
  602MOL0     H81257   3.163   0.914  10.396  0.8044 -1.4717  1.0800
  602MOL0     H81258   3.286   1.315  10.223  2.1303  0.7095  1.8785
  602MOL0     H81259   3.209   1.370  10.376  2.1576 -0.2756  0.1474
  602MOL0     H81260   3.000   1.329  10.311 -2.5766 -0.3168 -1.6836
  602MOL0     H81261   3.047   1.174  10.245  0.9685  0.4200 -2.0173
  602MOL0     H81262   2.937   1.343  10.079 -0.3623 -1.1051 -0.0617
  602MOL0     H81263   3.088   1.286  10.031 -0.0219  3.7056 -1.3234
  602MOL0     H81264   3.210   1.502  10.122 -1.1871  1.8131  1.0859
  602MOL0     H81265   3.069   1.521  10.008  0.8028  3.4603  0.3835
  602MOL0     H81266   2.919   1.706  10.342  0.7074  2.1277  0.4796
  602MOL0     H81267   3.200   1.309  10.577 -1.5106  0.7780  0.2661
  602MOL0     H81268   3.109   1.231  10.892  1.1823  1.6497 -1.5014
  602MOL0     H81269   3.123   1.353  10.762 -3.5119  1.5861 -2.7582
  602MOL0     H81270   2.966   1.279  10.808 -0.1420  2.6391 -0.8982
  603MOL0     O81271   5.611   2.239   9.613 -0.8174  0.3751  0.0727
  603MOL0     C81272   5.550   2.337   9.657  1.0098 -0.0026  0.9245
  603MOL0     O81273   5.557   2.460   9.596 -0.2596 -0.2321  0.0894
  603MOL0     C81274   5.631   2.477   9.483 -0.1376  0.3410 -0.3466
  603MOL0     C81275   5.677   2.610   9.462 -0.2864 -0.3379  0.2864
  603MOL0     C81276   5.734   2.644   9.342  0.5878 -0.3855  0.4639
  603MOL0     C81277   5.753   2.564   9.226  1.1347 -0.6457  0.5479
  603MOL0     O81278   5.802   2.601   9.102 -0.3961  0.0997 -0.5583
  603MOL0     C81279   5.926   2.673   9.118  0.2302  0.1806 -0.5105
  603MOL0     C81280   5.988   2.695   8.988  0.1508  0.2976  0.7967
  603MOL0     C81281   6.057   2.573   8.931 -1.0606  0.2959  0.6192
  603MOL0     C81282   6.165   2.599   8.820 -0.0205 -0.4142  0.6270
  603MOL0     C81283   6.115   2.626   8.683  0.1868  0.3128 -0.2344
  603MOL0     C81284   6.113   2.779   8.645  0.0915 -0.7024  0.5677
  603MOL0     C81285   6.091   2.794   8.495  0.2920 -0.0800 -0.2090
  603MOL0     C81286   5.944   2.815   8.479 -0.5168  0.6337  0.3486
  603MOL0     N81287   5.914   2.821   8.340 -0.0511 -0.1573  0.1882
  603MOL0     C81288   5.980   2.750   8.237 -0.1936 -0.2322 -0.1859
  603MOL0     C81289   5.901   2.779   8.132  0.9734 -0.8536  0.5026
  603MOL0     C81290   5.908   2.712   7.998 -0.7981  0.9713  0.5737
  603MOL0     C81291   5.936   2.807   7.882 -0.1245  0.8486 -0.4061
  603MOL0     C81292   5.945   2.732   7.749 -0.5018 -0.0706  0.2134
  603MOL0     C81293   5.911   2.821   7.631  0.2836 -1.7622  0.5093
  603MOL0     O81294   5.933   2.751   7.508 -0.0323 -0.4429 -0.5472
  603MOL0     C81295   6.055   2.725   7.461 -0.6549 -0.6477 -0.1699
  603MOL0     C81296   6.063   2.641   7.348 -0.2982  0.6072  0.0020
  603MOL0     C81297   6.183   2.603   7.290 -0.3811  0.7931  0.3218
  603MOL0     C81298   6.298   2.656   7.344  0.2393  0.4414 -0.2894
  603MOL0     C81299   6.421   2.628   7.280 -0.2282  0.8582 -0.1860
  603MOL0     O81300   6.543   2.669   7.345  0.0978 -0.1810 -0.7620
  603MOL0     C81301   6.658   2.677   7.273 -0.1051 -0.3070 -0.2237
  603MOL0     C81302   6.674   2.699   7.136  0.4395 -1.0393 -1.0637
  603MOL0     C81303   6.801   2.706   7.070  1.4293  0.1077  0.7780
  603MOL0     C81304   6.907   2.672   7.148 -0.5581 -0.5054  0.2389
  603MOL0     O81305   7.024   2.655   7.090  0.9339  0.3990 -0.8172
  603MOL0     C81306   7.085   2.765   7.015  0.4279  0.2437  0.3030
  603MOL0     C81307   7.181   2.839   7.106 -1.0370  1.0447  0.5771
  603MOL0     C81308   7.220   2.979   7.059 -0.2611 -0.5163 -0.5795
  603MOL0     C81309   7.357   3.038   7.113  0.3149 -0.2508  0.6866
  603MOL0     C81310   7.350   3.094   7.253 -0.5740  0.0899 -0.1646
  603MOL0     C81311   7.325   3.003   7.374  0.5620 -0.9912  0.5949
  603MOL0     C81312   7.354   3.075   7.511 -0.2065  0.5588  0.9883
  603MOL0     C81313   7.326   3.230   7.520 -0.1783  0.1587 -0.0109
  603MOL0    Cl81314   7.147   3.235   7.494  0.5384 -0.1924 -0.2890
  603MOL0     C81315   6.894   2.650   7.287 -0.2315  0.3611 -0.3356
  603MOL0     C81316   6.771   2.657   7.349 -0.3363 -0.0546  0.9575
  603MOL0     O81317   6.415   2.572   7.164  0.5542  0.1633 -0.1534
  603MOL0     C81318   6.297   2.735   7.456  0.9758  0.8875  0.0301
  603MOL0     C81319   6.173   2.776   7.514 -0.3087  0.8533 -0.4000
  603MOL0     N81320   5.812   2.884   8.161  0.3420 -0.3311  0.0752
  603MOL0     N81321   5.822   2.908   8.280  0.8116 -0.5566 -0.0486
  603MOL0     C81322   5.699   2.430   9.244 -0.1047 -0.0098 -0.8809
  603MOL0     C81323   5.645   2.389   9.365  0.5318 -0.8392  0.8127
  603MOL0     C81324   5.499   2.333   9.795  0.9864 -0.0355 -0.3745
  603MOL0     C81325   5.553   2.243   9.890  0.4157  0.0084 -0.1371
  603MOL0     C81326   5.525   2.252  10.028 -0.5208 -0.2749  0.2924
  603MOL0     C81327   5.438   2.351  10.072  0.4346  0.1986 -0.3495
  603MOL0     O81328   5.419   2.388  10.203 -0.3195  1.1869  0.1129
  603MOL0     C81329   5.496   2.497  10.241 -0.2289 -0.4549 -0.2926
  603MOL0     C81330   5.514   2.505  10.398 -0.2597  0.0663  0.5806
  603MOL0     C81331   5.380   2.526  10.467  0.1316  0.5930  0.6431
  603MOL0     C81332   5.368   2.475  10.608  0.2148 -0.0302 -0.0233
  603MOL0     C81333   5.432   2.563  10.712 -0.1291 -1.2850  0.1618
  603MOL0     C81334   5.463   2.648  10.799 -0.0976  0.0802 -0.6966
  603MOL0     C81335   5.364   2.419   9.978  0.7396 -0.8387 -0.7352
  603MOL0     C81336   5.391   2.415   9.841 -0.0261 -0.4406  0.5220
  603MOL0     C81337   5.309   2.499   9.748 -0.3518 -0.2861  0.0231
  603MOL0     H81338   5.672   2.680   9.545 -0.1091 -1.2738  1.1136
  603MOL0     H81339   5.751   2.749   9.319 -2.0682 -0.3416 -1.7946
  603MOL0     H81340   5.913   2.775   9.155  1.9759  0.3244 -0.2034
  603MOL0     H81341   5.995   2.624   9.187  1.2468  0.1648 -1.5104
  603MOL0     H81342   6.058   2.778   9.001 -1.8448  2.1565  0.2743
  603MOL0     H81343   5.917   2.720   8.909  0.9939 -0.4524 -0.2206
  603MOL0     H81344   5.980   2.513   8.882  0.6556  0.0722 -2.0357
  603MOL0     H81345   6.111   2.522   9.012  1.5226 -0.3816 -1.3951
  603MOL0     H81346   6.233   2.672   8.865 -1.4514  0.6994  1.0674
  603MOL0     H81347   6.215   2.504   8.799  0.3879 -0.1680  0.4826
  603MOL0     H81348   6.181   2.574   8.613 -2.4677  0.5804 -3.1548
  603MOL0     H81349   6.022   2.572   8.661  0.3340  0.0978 -0.3346
  603MOL0     H81350   6.040   2.830   8.707  0.5280  1.3676 -0.5529
  603MOL0     H81351   6.214   2.818   8.659 -0.4954  1.4686 -0.7803
  603MOL0     H81352   6.122   2.702   8.446  0.8380  0.2298 -0.4461
  603MOL0     H81353   6.147   2.877   8.451  3.3494 -2.1308 -0.5210
  603MOL0     H81354   5.876   2.746   8.529 -0.3929  1.0752  1.1461
  603MOL0     H81355   5.915   2.916   8.511 -0.4236  1.2244 -1.3281
  603MOL0     H81356   6.060   2.677   8.243 -1.2751 -1.3722  1.2270
  603MOL0     H81357   5.982   2.632   8.006 -0.2705  1.5158  1.2397
  603MOL0     H81358   5.812   2.665   7.976 -0.8391  0.6921  1.3454
  603MOL0     H81359   5.844   2.867   7.880 -1.1758 -0.1228  4.7132
  603MOL0     H81360   6.020   2.875   7.896  0.7606  0.0961 -1.7781
  603MOL0     H81361   5.885   2.641   7.745 -1.4750  0.5541  0.3862
  603MOL0     H81362   6.053   2.711   7.745 -0.5049 -0.1569  0.6176
  603MOL0     H81363   5.975   2.909   7.636 -1.3632 -0.6021  1.9850
  603MOL0     H81364   5.806   2.849   7.632  0.4734 -1.0003 -0.0518
  603MOL0     H81365   5.969   2.595   7.319 -0.0060  1.1392 -1.9205
  603MOL0     H81366   6.180   2.544   7.199  1.9138  1.4377 -0.2532
  603MOL0     H81367   6.594   2.722   7.066  2.5246  2.8662 -2.4595
  603MOL0     H81368   6.805   2.706   6.962 -0.9050  0.2267  0.6380
  603MOL0     H81369   7.140   2.719   6.933  0.1961  1.3596 -0.5047
  603MOL0     H81370   7.023   2.847   6.976  0.8373  0.4439  0.0769
  603MOL0     H81371   7.141   2.852   7.208  1.2501  3.2547  1.3014
  603MOL0     H81372   7.269   2.775   7.113  0.0036  2.5573  2.2321
  603MOL0     H81373   7.228   2.958   6.952  1.4994 -2.3982 -0.1550
  603MOL0     H81374   7.143   3.053   7.082 -1.4406 -1.3952 -1.5587
  603MOL0     H81375   7.375   3.121   7.044  1.5167 -0.4830  0.6990
  603MOL0     H81376   7.439   2.967   7.119  0.3130 -0.3296 -0.1590
  603MOL0     H81377   7.279   3.177   7.262 -1.6158 -0.6595 -1.1393
  603MOL0     H81378   7.449   3.137   7.270  0.4785 -2.2813  0.0781
  603MOL0     H81379   7.221   2.969   7.373  1.1953 -3.4140  3.1759
  603MOL0     H81380   7.379   2.908   7.369 -1.0778 -2.0813  2.0280
  603MOL0     H81381   7.462   3.059   7.516 -0.2513 -2.5831 -2.9213
  603MOL0     H81382   7.300   3.016   7.585  0.9530 -2.0519 -0.1272
  603MOL0     H81383   7.343   3.284   7.614  2.4491  0.1543 -0.4122
  603MOL0     H81384   7.377   3.285   7.441 -0.1608 -0.8232 -0.6945
  603MOL0     H81385   6.979   2.618   7.347  0.5275  0.6554 -1.2293
  603MOL0     H81386   6.760   2.662   7.457 -2.1816  1.8855  0.7633
  603MOL0     H81387   6.380   2.781   7.508 -0.5826  3.7059  0.2490
  603MOL0     H81388   6.174   2.846   7.597 -0.1800  2.6654 -1.8855
  603MOL0     H81389   5.713   2.354   9.168  0.6929 -0.7773  0.0066
  603MOL0     H81390   5.602   2.290   9.372  1.3651 -1.1993  1.0322
  603MOL0     H81391   5.629   2.180   9.847 -0.2988 -0.7559 -0.3103
  603MOL0     H81392   5.578   2.185  10.094  1.2561 -0.9207 -1.6729
  603MOL0     H81393   5.434   2.584  10.218 -0.5498 -0.3554  0.9009
  603MOL0     H81394   5.592   2.505  10.190  1.0216 -1.9764  1.6644
  603MOL0     H81395   5.592   2.580  10.416  0.6352 -0.6745 -0.0748
  603MOL0     H81396   5.564   2.413  10.431  1.1011  1.2478  1.9742
  603MOL0     H81397   5.305   2.473  10.407  0.6446 -0.9882  1.3228
  603MOL0     H81398   5.351   2.630  10.457 -5.1313 -0.7959 -2.1599
  603MOL0     H81399   5.261   2.478  10.633 -0.5388 -2.0759 -2.5140
  603MOL0     H81400   5.405   2.372  10.619  2.1151  0.7533  1.3510
  603MOL0     H81401   5.473   2.719  10.879 -0.3458 -1.1974  0.5247
  603MOL0     H81402   5.294   2.492  10.017  0.3202 -1.1672 -0.8606
  603MOL0     H81403   5.280   2.438   9.662 -0.5185 -0.7444  0.4019
  603MOL0     H81404   5.221   2.530   9.806 -0.1370 -0.0062  0.1985
  603MOL0     H81405   5.363   2.583   9.704 -0.5246 -0.7204 -1.0334
  604MOL0     O81406   9.762   0.299   1.595 -0.3463 -0.0591  0.0269
  604MOL0     C81407   9.816   0.191   1.625  0.3059  0.3630  0.4509
  604MOL0     O81408   9.941   0.154   1.589 -0.2235  0.0703  0.1229
  604MOL0     C81409  10.034   0.241   1.527  0.1421  0.6967 -0.0728
  604MOL0     C81410  10.041   0.376   1.552  0.3587  0.0785  0.5489
  604MOL0     C81411  10.146   0.448   1.502 -0.2714 -0.3599 -1.0339
  604MOL0     C81412  10.252   0.399   1.438  0.1574  0.6341 -0.4317
  604MOL0     O81413  10.351   0.488   1.393 -0.4562  0.2984  0.0950
  604MOL0     C81414  10.404   0.598   1.475  0.0853 -0.6228  0.2500
  604MOL0     C81415  10.552   0.639   1.436  0.1804  0.8434  0.0067
  604MOL0     C81416  10.638   0.528   1.484 -0.0123 -0.4939 -0.1733
  604MOL0     C81417  10.790   0.555   1.455 -0.1057 -0.7561 -0.3901
  604MOL0     C81418  10.832   0.586   1.310 -0.2142 -0.7846 -0.2018
  604MOL0     C81419  10.989   0.591   1.306 -0.7710 -0.4064  1.0139
  604MOL0     C81420  11.029   0.562   1.155 -0.8278 -0.0396  0.2572
  604MOL0     C81421  11.185   0.540   1.142 -0.2363  0.6025 -0.1800
  604MOL0     N81422  11.238   0.481   1.028  0.9688  0.0950  0.4189
  604MOL0     C81423  11.285   0.540   0.911 -1.0547  0.0758  0.3774
  604MOL0     C81424  11.313   0.445   0.820  0.3662  0.1345  1.1037
  604MOL0     C81425  11.388   0.461   0.691 -0.1099 -0.1154 -0.2146
  604MOL0     C81426  11.537   0.494   0.721 -0.3251 -0.3454  0.4519
  604MOL0     C81427  11.624   0.505   0.595 -0.7500  0.0410 -0.0308
  604MOL0     C81428  11.575   0.611   0.494  0.2630 -0.7089  1.0811
  604MOL0     O81429  11.502   0.721   0.557  0.3736  0.0240 -0.4703
  604MOL0     C81430  11.569   0.824   0.624 -0.4398  0.6682 -0.3523
  604MOL0     C81431  11.501   0.883   0.742 -0.5267 -0.8646 -0.8611
  604MOL0     C81432  11.574   0.972   0.826  0.5877  0.2558  0.0032
  604MOL0     C81433  11.708   1.003   0.785 -0.1643 -0.9530 -0.8515
  604MOL0     C81434  11.800   1.097   0.863 -0.4211 -0.0786  0.7572
  604MOL0     O81435  11.767   1.103   0.994  0.0709 -0.1919  0.6819
  604MOL0     C81436  11.822   1.204   1.065 -0.3444 -0.1857 -0.5507
  604MOL0     C81437  11.961   1.199   1.099  0.0710  0.3483  0.1993
  604MOL0     C81438  12.012   1.293   1.185  0.1791  0.6039 -0.1655
  604MOL0     C81439  11.929   1.400   1.226  0.0236  0.8632  0.0706
  604MOL0     O81440  11.999   1.502   1.297  0.5681 -0.6984 -0.4669
  604MOL0     C81441  12.113   1.478   1.390 -0.3183  0.4050  0.8953
  604MOL0     C81442  12.180   1.617   1.413  0.2803  0.6460 -0.0396
  604MOL0     C81443  12.295   1.605   1.510 -0.2723 -0.2531  0.2269
  604MOL0     C81444  12.402   1.520   1.459 -0.1471 -0.0437  0.3834
  604MOL0     C81445  12.523   1.532   1.548 -0.9043  0.0465  0.8714
  604MOL0     C81446  12.642   1.444   1.507  0.6430  0.5225 -0.7785
  604MOL0     C81447  12.741   1.465   1.623 -0.4841  0.0012 -0.4254
  604MOL0     C81448  12.876   1.393   1.608  0.1066 -0.3687  0.1064
  604MOL0    Cl81449  12.978   1.460   1.479  0.1434  0.1905 -0.1462
  604MOL0     C81450  11.788   1.406   1.187 -1.8547  0.1303 -0.7888
  604MOL0     C81451  11.735   1.305   1.110 -0.2801  0.1383  1.0542
  604MOL0     O81452  11.883   1.166   0.805 -0.3896  1.0171  0.7169
  604MOL0     C81453  11.762   0.955   0.666 -0.4687 -0.0428 -0.3041
  604MOL0     C81454  11.697   0.867   0.589 -0.2159  0.2920 -0.1671
  604MOL0     N81455  11.279   0.328   0.877 -0.6893 -0.8456  0.0692
  604MOL0     N81456  11.240   0.346   1.001  0.2953  0.7982 -0.5669
  604MOL0     C81457  10.254   0.264   1.414 -0.5422 -0.6195 -0.5308
  604MOL0     C81458  10.151   0.186   1.463  1.5912  1.1173 -0.2909
  604MOL0     C81459   9.736   0.080   1.684  0.0215 -0.6052  0.2256
  604MOL0     C81460   9.776  -0.051   1.673 -0.3110 -0.3310 -0.9413
  604MOL0     C81461   9.707  -0.153   1.742 -0.2527 -0.4257 -0.7907
  604MOL0     C81462   9.594  -0.135   1.819 -0.0501 -0.5176 -0.7898
  604MOL0     O81463   9.526  -0.224   1.893 -0.0734 -0.0456  0.2053
  604MOL0     C81464   9.572  -0.353   1.915 -0.1205  0.4882  0.5808
  604MOL0     C81465   9.668  -0.353   2.040  0.9929  0.0416  0.0818
  604MOL0     C81466   9.717  -0.494   2.067 -0.6114  0.2414 -0.3727
  604MOL0     C81467   9.804  -0.514   2.198  0.5617  0.1396 -0.5726
  604MOL0     C81468   9.926  -0.424   2.210 -1.0277  0.1784  0.3158
  604MOL0     C81469  10.022  -0.356   2.236  0.7412 -0.4382 -0.0718
  604MOL0     C81470   9.557  -0.007   1.828  0.6173 -0.6497 -0.0415
  604MOL0     C81471   9.622   0.108   1.769  0.2096 -0.4354 -0.8243
  604MOL0     C81472   9.562   0.240   1.801  0.3737  0.2928  0.7391
  604MOL0     H81473   9.971   0.436   1.609 -1.4658 -2.4118  1.1134
  604MOL0     H81474  10.148   0.553   1.531  0.6734 -0.7176  0.3110
  604MOL0     H81475  10.323   0.665   1.445 -0.4270 -0.5207  1.7581
  604MOL0     H81476  10.395   0.565   1.579 -3.1777  1.7242  0.8755
  604MOL0     H81477  10.589   0.738   1.465  1.4501  1.1319 -2.3547
  604MOL0     H81478  10.563   0.636   1.327  0.9068  0.1685  0.0890
  604MOL0     H81479  10.603   0.437   1.435 -1.1390  0.7477 -1.7618
  604MOL0     H81480  10.620   0.512   1.591 -3.2362 -0.1657 -0.5771
  604MOL0     H81481  10.814   0.641   1.519  0.6365 -1.1844 -0.0896
  604MOL0     H81482  10.850   0.480   1.506  1.3157  1.8269  2.0043
  604MOL0     H81483  10.799   0.501   1.249 -1.4991 -1.8808  1.9198
  604MOL0     H81484  10.790   0.682   1.280  0.4958 -0.6809 -0.9099
  604MOL0     H81485  11.020   0.692   1.335 -3.4889  0.8139  0.0755
  604MOL0     H81486  11.026   0.514   1.374  2.6243  0.5656  0.4089
  604MOL0     H81487  11.002   0.635   1.078 -1.1006 -0.0985  0.2962
  604MOL0     H81488  10.979   0.470   1.123  1.9175 -1.4924 -0.1806
  604MOL0     H81489  11.245   0.629   1.164 -0.1460  0.1526  1.5649
  604MOL0     H81490  11.206   0.471   1.224  2.2611  1.6748  0.1818
  604MOL0     H81491  11.307   0.645   0.897  1.1411 -0.4945 -0.9820
  604MOL0     H81492  11.370   0.372   0.629 -1.0335  0.6097 -1.0223
  604MOL0     H81493  11.345   0.541   0.630 -0.1239  0.2109  0.2204
  604MOL0     H81494  11.553   0.588   0.774 -2.3672  1.3659 -1.6962
  604MOL0     H81495  11.580   0.423   0.791 -0.7681  0.0283  1.1175
  604MOL0     H81496  11.621   0.405   0.551  2.9736 -0.6748  1.0407
  604MOL0     H81497  11.728   0.529   0.617 -0.2173  0.4256 -2.6426
  604MOL0     H81498  11.501   0.568   0.426  0.9491 -0.1688 -0.0382
  604MOL0     H81499  11.657   0.657   0.438 -1.1706  1.8330  0.9167
  604MOL0     H81500  11.395   0.864   0.760 -0.4803 -3.0883 -2.4722
  604MOL0     H81501  11.514   1.006   0.910 -0.5229  0.0408 -0.6821
  604MOL0     H81502  12.012   1.113   1.056  2.9838  0.6951  2.5633
  604MOL0     H81503  12.115   1.278   1.216 -0.4201 -1.1047  1.2140
  604MOL0     H81504  12.084   1.443   1.489 -0.8026  0.9423  0.9483
  604MOL0     H81505  12.183   1.414   1.335 -0.6503  1.5885 -1.0177
  604MOL0     H81506  12.207   1.649   1.312  0.2608  1.4008  0.1873
  604MOL0     H81507  12.110   1.696   1.443  1.1510  1.1442  0.7417
  604MOL0     H81508  12.320   1.711   1.515  0.3308 -0.2566 -1.8759
  604MOL0     H81509  12.260   1.579   1.611  0.8403  4.2299  1.9762
  604MOL0     H81510  12.430   1.551   1.358  2.2038 -0.3400  0.8844
  604MOL0     H81511  12.367   1.417   1.468 -0.7780  0.2017  0.7776
  604MOL0     H81512  12.501   1.501   1.651  1.1022 -5.3834  0.0202
  604MOL0     H81513  12.561   1.634   1.559 -0.1816  0.0359 -1.1706
  604MOL0     H81514  12.605   1.341   1.499 -0.7894  0.7301  1.8901
  604MOL0     H81515  12.684   1.461   1.408 -2.0735 -5.2128 -3.3874
  604MOL0     H81516  12.696   1.414   1.708  0.7731  0.7990  0.7589
  604MOL0     H81517  12.760   1.571   1.641 -0.8199  0.0701 -0.4650
  604MOL0     H81518  12.926   1.394   1.705  0.5650 -1.4981 -0.1009
  604MOL0     H81519  12.855   1.289   1.582 -1.6536 -0.3131  1.1527
  604MOL0     H81520  11.735   1.491   1.229 -0.2324  0.6251  0.3907
  604MOL0     H81521  11.632   1.301   1.075 -0.6647  2.1192  1.8398
  604MOL0     H81522  11.859   0.982   0.625  0.4544 -2.2971  0.2387
  604MOL0     H81523  11.748   0.834   0.499  0.3491 -2.8565  1.1441
  604MOL0     H81524  10.337   0.214   1.365 -0.4409 -1.4143  0.4194
  604MOL0     H81525  10.161   0.079   1.445 -1.6631  0.9005 -1.4642
  604MOL0     H81526   9.865  -0.082   1.621  0.1422 -2.7723  1.0904
  604MOL0     H81527   9.748  -0.253   1.734 -1.1571 -0.7507 -1.5047
  604MOL0     H81528   9.632  -0.400   1.836  1.1088  2.4395  0.2628
  604MOL0     H81529   9.485  -0.413   1.941 -2.1445  3.3498  0.8136
  604MOL0     H81530   9.614  -0.325   2.131  1.9246 -1.5092  1.1665
  604MOL0     H81531   9.748  -0.278   2.038  0.7116  0.4030  1.5530
  604MOL0     H81532   9.782  -0.523   1.984 -0.1405  0.4454 -0.0817
  604MOL0     H81533   9.632  -0.562   2.077 -1.2028  0.8565 -1.0477
  604MOL0     H81534   9.741  -0.499   2.286  0.2833 -0.0682 -0.7364
  604MOL0     H81535   9.838  -0.618   2.196  1.1706  0.3367 -0.7759
  604MOL0     H81536  10.105  -0.292   2.258  0.2436 -0.1335  0.9688
  604MOL0     H81537   9.469   0.023   1.884  0.6707  5.0007 -2.3151
  604MOL0     H81538   9.492   0.237   1.885  1.8501  3.4278  2.2688
  604MOL0     H81539   9.633   0.316   1.837  0.9256  0.1958 -0.1266
  604MOL0     H81540   9.522   0.287   1.711  0.6956 -1.9768 -0.6693
  605MOL0     O81541   9.861   9.243   8.493  0.3372 -0.3206 -0.9008
  605MOL0     C81542   9.900   9.148   8.560 -0.0198 -0.2497 -0.8746
  605MOL0     O81543   9.820   9.056   8.631 -0.1276  0.0859  0.3190
  605MOL0     C81544   9.680   9.043   8.615  0.3756 -0.3873 -0.0161
  605MOL0     C81545   9.632   8.911   8.634  0.8030  1.1214 -0.1321
  605MOL0     C81546   9.484   8.900   8.645  0.0003  1.4596 -0.6771
  605MOL0     C81547   9.390   9.003   8.625  0.1346 -0.9841  0.8700
  605MOL0     O81548   9.254   8.983   8.609 -0.9455  0.6086 -0.7433
  605MOL0     C81549   9.167   9.089   8.612  0.3713  0.6594 -0.6502
  605MOL0     C81550   9.137   9.147   8.479 -0.9272  0.0518 -0.2005
  605MOL0     C81551   9.032   9.259   8.470  0.4191  0.6635  0.7068
  605MOL0     C81552   9.089   9.390   8.529  0.1424 -0.1853 -0.7863
  605MOL0     C81553   8.996   9.506   8.513  1.0420  1.0548 -0.1348
  605MOL0     C81554   8.857   9.485   8.589  1.0803 -0.2253 -0.7297
  605MOL0     C81555   8.776   9.601   8.594  0.2907  0.2991 -0.0383
  605MOL0     C81556   8.636   9.581   8.656  0.4020 -0.1369  0.7564
  605MOL0     N81557   8.540   9.689   8.609  0.2044  0.6934  0.9817
  605MOL0     C81558   8.479   9.710   8.487 -0.9409 -0.3504 -0.8245
  605MOL0     C81559   8.418   9.826   8.490  0.3485 -0.0885 -0.3501
  605MOL0     C81560   8.357   9.904   8.378  0.0493  0.4569 -0.1535
  605MOL0     C81561   8.460   9.984   8.302  0.3249  1.1219 -0.7998
  605MOL0     C81562   8.479  10.128   8.347 -0.1394 -0.6663  0.8533
  605MOL0     C81563   8.600  10.183   8.273 -0.1025  0.2093 -0.1848
  605MOL0     O81564   8.670  10.280   8.336  0.4342 -0.3713  0.1087
  605MOL0     C81565   8.793  10.313   8.279 -0.2252 -0.2635  0.0913
  605MOL0     C81566   8.838  10.264   8.155 -0.0391 -0.0691  0.6457
  605MOL0     C81567   8.963  10.294   8.098  0.4702  0.1790 -0.3452
  605MOL0     C81568   9.051  10.369   8.181 -0.2125 -0.0208  0.1956
  605MOL0     C81569   9.186  10.396   8.129  0.2282  0.0943  0.1693
  605MOL0     O81570   9.285  10.408   8.225 -0.2127 -0.0405 -0.0835
  605MOL0     C81571   9.415  10.434   8.190  0.4159  0.4167  0.4583
  605MOL0     C81572   9.517  10.354   8.222 -0.0197 -0.0919  0.4435
  605MOL0     C81573   9.647  10.380   8.184 -0.9802  0.2275 -0.3821
  605MOL0     C81574   9.681  10.494   8.101  0.3930 -0.2229 -0.5037
  605MOL0     O81575   9.794  10.515   8.042  0.2310 -0.1873 -0.2525
  605MOL0     C81576   9.897  10.548   8.130  0.4871 -0.3761  0.9941
  605MOL0     C81577  10.037  10.509   8.098  0.0675 -0.4665  0.1542
  605MOL0     C81578  10.068  10.356   8.082 -0.6564 -0.0671 -0.0893
  605MOL0     C81579  10.032  10.315   7.939 -0.3881 -0.5071  0.1814
  605MOL0     C81580  10.048  10.167   7.915 -0.5157  0.3827 -0.2787
  605MOL0     C81581  10.017  10.123   7.772 -0.9418  1.0078 -0.0935
  605MOL0     C81582  10.037   9.975   7.765  0.5737  0.2521  0.0114
  605MOL0     C81583  10.077   9.929   7.626  0.3216 -0.1939 -0.2268
  605MOL0    Cl81584  10.170   9.775   7.626 -0.0171 -0.2555 -0.3935
  605MOL0     C81585   9.580  10.575   8.065 -0.7081 -0.7937  0.2443
  605MOL0     C81586   9.449  10.545   8.108 -0.4226 -0.2772  0.4571
  605MOL0     O81587   9.203  10.406   8.008 -0.0831 -0.0676  0.3980
  605MOL0     C81588   9.003  10.426   8.294 -0.2888 -0.3603 -0.0590
  605MOL0     C81589   8.879  10.401   8.349  1.4252 -0.4081 -0.5867
  605MOL0     N81590   8.444   9.875   8.619 -0.6950 -0.6181 -0.3582
  605MOL0     N81591   8.518   9.798   8.686  1.1681 -0.6534  0.0336
  605MOL0     C81592   9.454   9.125   8.592  0.6424 -0.1949 -1.1514
  605MOL0     C81593   9.592   9.148   8.586 -0.0489  0.2547  0.2059
  605MOL0     C81594  10.043   9.157   8.613 -0.4576 -0.2625 -0.4278
  605MOL0     C81595  10.124   9.042   8.619 -0.3838  0.1395  0.3211
  605MOL0     C81596  10.264   9.036   8.659  0.2906 -0.6285 -0.6244
  605MOL0     C81597  10.322   9.150   8.704 -0.1779  0.2091  0.3904
  605MOL0     O81598  10.447   9.160   8.748  0.5029  0.3341 -0.4255
  605MOL0     C81599  10.530   9.047   8.787 -0.0472 -0.0792 -1.6097
  605MOL0     C81600  10.647   9.105   8.866 -0.4818  0.2279 -0.8529
  605MOL0     C81601  10.740   9.185   8.780 -0.1145 -0.0887  0.0988
  605MOL0     C81602  10.843   9.265   8.864  0.0524 -0.3945  0.5819
  605MOL0     C81603  10.794   9.395   8.915  0.4397 -0.1756  0.9854
  605MOL0     C81604  10.758   9.499   8.956  0.2127 -0.4243 -0.1146
  605MOL0     C81605  10.245   9.267   8.691  0.3783  0.1996 -0.6391
  605MOL0     C81606  10.109   9.275   8.657  0.5066 -0.3914 -0.4971
  605MOL0     C81607  10.046   9.408   8.656 -0.1727 -0.6989 -0.3139
  605MOL0     H81608   9.695   8.825   8.655 -1.4279 -0.6390 -0.3247
  605MOL0     H81609   9.443   8.800   8.655  1.6505  0.7446 -0.6922
  605MOL0     H81610   9.074   9.048   8.654  0.7301 -0.7104 -1.1403
  605MOL0     H81611   9.195   9.158   8.692  1.5078  1.7997 -1.9886
  605MOL0     H81612   9.094   9.060   8.429 -2.4672 -1.3026  3.1716
  605MOL0     H81613   9.226   9.183   8.426 -0.6514  0.1043  0.2794
  605MOL0     H81614   8.938   9.230   8.518  1.1419 -1.6425  0.8590
  605MOL0     H81615   9.013   9.269   8.363  1.5224 -0.8864  0.3270
  605MOL0     H81616   9.093   9.378   8.638 -4.6888 -2.6076 -0.5977
  605MOL0     H81617   9.185   9.407   8.480  0.0910  0.7110 -0.5971
  605MOL0     H81618   9.048   9.598   8.543 -1.1177  2.8299 -1.4905
  605MOL0     H81619   8.968   9.522   8.408 -1.0650 -0.8683  0.0720
  605MOL0     H81620   8.802   9.408   8.536  0.1627 -1.4621  1.8322
  605MOL0     H81621   8.874   9.441   8.688 -0.7564  0.3221 -0.1289
  605MOL0     H81622   8.767   9.625   8.487  0.8365  1.2066  0.1163
  605MOL0     H81623   8.828   9.690   8.629  1.6419 -0.5010  0.0760
  605MOL0     H81624   8.597   9.480   8.641  0.2397  0.0013  0.2668
  605MOL0     H81625   8.654   9.594   8.764  4.4902 -1.6200  0.4592
  605MOL0     H81626   8.496   9.657   8.394 -1.0315  1.5199 -1.9527
  605MOL0     H81627   8.301   9.834   8.315 -0.5283 -1.3511  2.2102
  605MOL0     H81628   8.287   9.971   8.429  0.9497  1.3706 -0.1003
  605MOL0     H81629   8.561   9.945   8.317 -0.3416  0.4278  2.9345
  605MOL0     H81630   8.428   9.992   8.198  1.4417 -0.1186 -1.2722
  605MOL0     H81631   8.481  10.133   8.456  1.9594  1.3825  0.7907
  605MOL0     H81632   8.397  10.194   8.319 -1.4985 -1.7431  2.0921
  605MOL0     H81633   8.565  10.211   8.173 -1.9543 -4.0769 -0.9418
  605MOL0     H81634   8.671  10.101   8.256  3.3577  2.3541  2.4370
  605MOL0     H81635   8.778  10.190   8.102  2.1348 -1.8758  0.5516
  605MOL0     H81636   8.974  10.243   8.003 -3.2727  0.0520 -0.8718
  605MOL0     H81637   9.480  10.267   8.276 -2.4183 -0.5720 -1.7935
  605MOL0     H81638   9.732  10.319   8.213 -0.2072  0.7227 -1.5516
  605MOL0     H81639   9.902  10.657   8.124 -0.2653 -0.4321 -1.4183
  605MOL0     H81640   9.878  10.520   8.234  0.1313  1.4836  1.4773
  605MOL0     H81641  10.059  10.551   8.000 -1.0700 -0.9631 -0.3341
  605MOL0     H81642  10.084  10.556   8.185 -1.6161  1.5413  0.0803
  605MOL0     H81643  10.175  10.335   8.091 -0.8771 -0.5802  1.6651
  605MOL0     H81644  10.004  10.299   8.149 -0.5820 -0.3635 -0.2680
  605MOL0     H81645  10.094  10.379   7.875 -0.9176  1.8247  1.8774
  605MOL0     H81646   9.929  10.341   7.916 -0.2678  1.0198  1.2346
  605MOL0     H81647   9.981  10.115   7.984  2.2804 -3.5806 -0.2465
  605MOL0     H81648  10.150  10.142   7.946  0.3897  1.4171 -2.2542
  605MOL0     H81649   9.921  10.162   7.738 -1.1288 -0.2189 -1.0361
  605MOL0     H81650  10.090  10.178   7.712  0.2853  0.0934  0.5159
  605MOL0     H81651   9.936   9.942   7.792 -0.2263  1.6191 -1.1761
  605MOL0     H81652  10.120   9.952   7.832  2.7249  2.9077 -1.5166
  605MOL0     H81653   9.994   9.910   7.557  1.4839 -0.5855 -1.5630
  605MOL0     H81654  10.146  10.002   7.584 -1.5878  2.9069  1.6132
  605MOL0     H81655   9.601  10.672   8.021  0.0512 -0.3069  1.6050
  605MOL0     H81656   9.359  10.599   8.079 -0.6566 -0.5430  0.6855
  605MOL0     H81657   9.075  10.488   8.346  0.5712 -1.8841  0.6188
  605MOL0     H81658   8.843  10.451   8.439  0.0610  1.0708 -1.9031
  605MOL0     H81659   9.408   9.222   8.577 -2.6983 -0.9812  2.4242
  605MOL0     H81660   9.630   9.247   8.565 -1.8276  0.9162 -0.0789
  605MOL0     H81661  10.087   8.947   8.581 -0.4273  0.6062 -0.8393
  605MOL0     H81662  10.309   8.937   8.653 -0.1525 -0.9812  1.2790
  605MOL0     H81663  10.568   9.000   8.696  2.6988  0.4925 -0.8701
  605MOL0     H81664  10.483   8.976   8.854 -1.7678  1.3871 -1.1892
  605MOL0     H81665  10.707   9.024   8.907  0.5358  1.1814 -0.3897
  605MOL0     H81666  10.615   9.174   8.945  2.4827  0.7797 -0.0055
  605MOL0     H81667  10.684   9.253   8.715  0.6111 -0.0386 -0.4870
  605MOL0     H81668  10.791   9.115   8.713 -1.3285 -2.4638  1.5259
  605MOL0     H81669  10.889   9.209   8.946 -1.0780 -3.2197 -0.5891
  605MOL0     H81670  10.929   9.279   8.798  1.6525 -0.8246  2.4554
  605MOL0     H81671  10.707   9.587   8.990  0.9051 -0.4375  0.9727
  605MOL0     H81672  10.293   9.358   8.726 -0.9461 -0.2589  2.8044
  605MOL0     H81673  10.082   9.462   8.744 -0.3262 -2.7272  1.0626
  605MOL0     H81674  10.058   9.457   8.559  0.8092 -0.6544 -0.1869
  605MOL0     H81675   9.943   9.411   8.691 -0.1353  0.1684 -0.2701
  606MOL0     O81676   3.917   2.148   4.081  0.0218  1.1935  0.1455
  606MOL0     C81677   3.901   2.200   4.193 -0.0293 -0.0716 -0.0463
  606MOL0     O81678   3.823   2.146   4.286 -0.2380 -0.3443  0.1386
  606MOL0     C81679   3.735   2.044   4.257 -0.7133  0.1303 -0.5868
  606MOL0     C81680   3.744   1.937   4.337  0.1782  0.9236 -0.2160
  606MOL0     C81681   3.657   1.828   4.328 -0.0786 -0.8228  0.5454
  606MOL0     C81682   3.563   1.831   4.221 -0.0408 -1.4919  0.3172
  606MOL0     O81683   3.455   1.749   4.222 -0.1161  1.1058  0.6426
  606MOL0     C81684   3.455   1.628   4.301 -0.3833  1.2170 -0.4483
  606MOL0     C81685   3.319   1.552   4.303 -0.4657  0.7397 -0.0605
  606MOL0     C81686   3.325   1.409   4.359  0.4288 -0.5155  0.4568
  606MOL0     C81687   3.400   1.311   4.258  0.0222 -0.0379 -0.1646
  606MOL0     C81688   3.352   1.165   4.304  0.2884  0.4127  0.9320
  606MOL0     C81689   3.344   1.065   4.188 -0.0450  0.3252 -0.6183
  606MOL0     C81690   3.364   0.918   4.233 -0.3825  0.4620  0.4778
  606MOL0     C81691   3.502   0.864   4.280 -0.0023  0.0640  0.3611
  606MOL0     N81692   3.490   0.739   4.356  0.3905 -0.7680 -0.1255
  606MOL0     C81693   3.433   0.723   4.479  0.2664 -0.5412 -0.5185
  606MOL0     C81694   3.477   0.605   4.520  0.1395  0.0749  0.5917
  606MOL0     C81695   3.449   0.557   4.663 -0.6027 -0.2574  0.4479
  606MOL0     C81696   3.327   0.611   4.748 -0.5111  0.4751  0.3601
  606MOL0     C81697   3.306   0.530   4.878 -0.0131 -0.0071  0.7623
  606MOL0     C81698   3.427   0.537   4.977  0.4857  0.7073 -0.1079
  606MOL0     O81699   3.428   0.677   5.016  0.4377 -0.1028 -0.5731
  606MOL0     C81700   3.532   0.722   5.096  0.0379 -0.0956 -0.6456
  606MOL0     C81701   3.517   0.849   5.158 -0.5830 -0.0279  0.0262
  606MOL0     C81702   3.608   0.899   5.251  0.1380  0.8757  0.3059
  606MOL0     C81703   3.719   0.827   5.292  0.0047  0.1411 -0.7015
  606MOL0     C81704   3.810   0.894   5.395 -0.1373  0.5124  1.3380
  606MOL0     O81705   3.776   1.023   5.433 -0.6699  0.1154 -0.3034
  606MOL0     C81706   3.874   1.074   5.508  0.0141  0.7695  1.1657
  606MOL0     C81707   3.983   1.135   5.457 -0.1331 -0.7627 -0.2755
  606MOL0     C81708   4.084   1.195   5.540  0.0693 -0.3625 -0.6614
  606MOL0     C81709   4.073   1.179   5.681 -0.5606 -0.3705 -0.0641
  606MOL0     O81710   4.164   1.240   5.770  0.3978  0.3794  0.1293
  606MOL0     C81711   4.301   1.239   5.726 -0.2230  0.8280  0.1534
  606MOL0     C81712   4.384   1.232   5.844 -0.4041 -0.7100 -1.3187
  606MOL0     C81713   4.400   1.385   5.899  0.1237  0.0951  0.2280
  606MOL0     C81714   4.406   1.393   6.048  0.5633  0.4622  0.0266
  606MOL0     C81715   4.543   1.347   6.095  0.5476  1.0037 -0.6704
  606MOL0     C81716   4.567   1.353   6.247  1.1420  0.2265  1.0960
  606MOL0     C81717   4.693   1.290   6.292 -0.4004  0.1162  0.3985
  606MOL0     C81718   4.704   1.318   6.435  0.0673  0.3318 -0.7311
  606MOL0    Cl81719   4.601   1.212   6.536 -0.3327  0.0340  0.0942
  606MOL0     C81720   3.965   1.111   5.731  0.0722 -0.4433  0.0839
  606MOL0     C81721   3.869   1.056   5.644 -0.0332 -0.1209  0.5583
  606MOL0     O81722   3.907   0.829   5.426 -0.0792  0.2111  0.1550
  606MOL0     C81723   3.736   0.697   5.243 -0.3082 -0.2698  0.0532
  606MOL0     C81724   3.643   0.646   5.150 -0.0199  0.7610  0.3312
  606MOL0     N81725   3.569   0.553   4.422 -0.5434 -0.5555 -0.1747
  606MOL0     N81726   3.563   0.630   4.319  0.7183 -0.4694  0.2010
  606MOL0     C81727   3.559   1.942   4.129  0.2248  0.5952  0.1229
  606MOL0     C81728   3.651   2.044   4.151 -0.1109  0.6309  0.6129
  606MOL0     C81729   3.983   2.322   4.230  0.8615  0.6227  0.2921
  606MOL0     C81730   3.927   2.408   4.326  0.7507 -0.3696 -0.1768
  606MOL0     C81731   3.987   2.533   4.343 -0.7664  0.0176  0.9373
  606MOL0     C81732   4.114   2.569   4.286 -0.4861 -0.3738 -0.1051
  606MOL0     O81733   4.167   2.692   4.320 -0.8710 -0.1525 -0.3064
  606MOL0     C81734   4.288   2.743   4.259 -0.2265 -0.6256 -0.7291
  606MOL0     C81735   4.258   2.813   4.123 -0.1952  0.4101  0.7238
  606MOL0     C81736   4.156   2.933   4.131 -0.0653  0.5038 -0.3839
  606MOL0     C81737   4.204   3.071   4.182 -0.0325 -0.1550 -0.9871
  606MOL0     C81738   4.302   3.150   4.099 -0.3140  1.2941 -0.6176
  606MOL0     C81739   4.382   3.221   4.042  0.0319  0.9803  0.8953
  606MOL0     C81740   4.166   2.472   4.207  0.8409 -0.5059  0.2601
  606MOL0     C81741   4.109   2.349   4.170  0.7576 -0.3022 -0.2633
  606MOL0     C81742   4.176   2.263   4.064  1.4965  0.0683 -0.4959
  606MOL0     H81743   3.817   1.929   4.417  0.6462 -2.6264 -0.8166
  606MOL0     H81744   3.650   1.757   4.409 -0.9231  1.2178  2.3403
  606MOL0     H81745   3.531   1.558   4.267 -1.3095 -0.4868  0.8563
  606MOL0     H81746   3.470   1.647   4.408  1.2521 -1.6797 -0.0695
  606MOL0     H81747   3.268   1.542   4.207  0.6756 -1.3711 -0.5130
  606MOL0     H81748   3.252   1.602   4.373 -0.3434 -3.9985  3.9411
  606MOL0     H81749   3.222   1.374   4.370  0.4270 -0.6751 -0.0308
  606MOL0     H81750   3.372   1.383   4.454 -1.0031 -2.5830  0.6813
  606MOL0     H81751   3.363   1.332   4.157  0.1069 -1.4532 -0.5184
  606MOL0     H81752   3.507   1.333   4.256 -0.0449  0.2823 -2.2200
  606MOL0     H81753   3.417   1.132   4.386 -0.7817 -1.0110  1.2398
  606MOL0     H81754   3.261   1.175   4.364  0.7189  1.7409  1.4093
  606MOL0     H81755   3.250   1.077   4.133  0.3749  6.7358 -0.7154
  606MOL0     H81756   3.418   1.089   4.111  0.6961 -0.9389 -0.3244
  606MOL0     H81757   3.325   0.845   4.162  0.4931 -2.6084  2.9192
  606MOL0     H81758   3.288   0.901   4.309  0.1160 -2.2479  0.4613
  606MOL0     H81759   3.553   0.861   4.183 -1.0871  1.8320 -0.3222
  606MOL0     H81760   3.541   0.945   4.342 -2.2956  0.6512  1.1303
  606MOL0     H81761   3.390   0.802   4.541  1.9695 -0.1604  0.2377
  606MOL0     H81762   3.442   0.448   4.660 -0.8664 -0.2190 -1.4335
  606MOL0     H81763   3.539   0.593   4.714 -0.9275 -1.2053  1.7266
  606MOL0     H81764   3.344   0.716   4.773  1.7291  0.5043 -1.0858
  606MOL0     H81765   3.239   0.605   4.684 -0.1107 -0.9562 -0.0885
  606MOL0     H81766   3.286   0.425   4.854  2.7652 -0.6543  0.9928
  606MOL0     H81767   3.214   0.558   4.930 -1.1987 -1.2961 -0.5402
  606MOL0     H81768   3.521   0.498   4.935 -0.1912  1.8232 -2.8455
  606MOL0     H81769   3.403   0.468   5.059 -1.5932 -0.6719 -1.7800
  606MOL0     H81770   3.440   0.918   5.124 -0.8002  1.5861  3.3447
  606MOL0     H81771   3.591   1.001   5.283 -0.2156  0.7753  0.4468
  606MOL0     H81772   3.982   1.136   5.348  0.4821  1.7176 -0.3230
  606MOL0     H81773   4.159   1.258   5.493  1.1904  0.1353  1.6736
  606MOL0     H81774   4.333   1.159   5.659 -2.1713  0.0132  0.1244
  606MOL0     H81775   4.319   1.333   5.673  0.0008  1.2822  1.0153
  606MOL0     H81776   4.341   1.165   5.919 -0.6811 -1.1239 -1.8374
  606MOL0     H81777   4.485   1.194   5.826 -0.5474 -2.5192  1.1820
  606MOL0     H81778   4.496   1.425   5.865  1.0211 -0.0621  2.4471
  606MOL0     H81779   4.317   1.444   5.860  0.8058  0.7703 -0.2374
  606MOL0     H81780   4.329   1.328   6.091  0.6922 -1.3086 -2.1850
  606MOL0     H81781   4.394   1.497   6.078  3.5393  0.5136  1.3501
  606MOL0     H81782   4.629   1.395   6.048  3.6534 -2.8058  0.5772
  606MOL0     H81783   4.550   1.241   6.071  1.5985  0.7211  0.7255
  606MOL0     H81784   4.551   1.458   6.275 -0.6795 -0.1221  1.5356
  606MOL0     H81785   4.486   1.293   6.291  1.0100  0.0859  0.6663
  606MOL0     H81786   4.769   1.348   6.239  0.3525 -0.9493  0.2912
  606MOL0     H81787   4.702   1.185   6.263 -1.9090 -0.1101  0.6351
  606MOL0     H81788   4.802   1.286   6.470 -0.6229  1.5184  2.6524
  606MOL0     H81789   4.697   1.425   6.454  1.9341  0.2857  0.4563
  606MOL0     H81790   3.936   1.109   5.836 -0.1174  2.8199  0.2011
  606MOL0     H81791   3.792   0.999   5.694 -0.5008  1.0344  1.2022
  606MOL0     H81792   3.805   0.631   5.293  0.6074  1.4286  1.1463
  606MOL0     H81793   3.643   0.541   5.122  2.1099 -0.5909  4.5166
  606MOL0     H81794   3.481   1.958   4.056  0.1274  1.7125  0.4597
  606MOL0     H81795   3.651   2.117   4.070  0.3933  0.5228  0.5117
  606MOL0     H81796   3.838   2.383   4.382  0.5361 -0.1550 -0.4192
  606MOL0     H81797   3.927   2.604   4.399 -2.4879 -1.7979  1.5119
  606MOL0     H81798   4.375   2.676   4.255 -0.7098 -1.4699  1.3200
  606MOL0     H81799   4.324   2.832   4.312  3.0152 -2.0000 -0.3562
  606MOL0     H81800   4.212   2.742   4.053  1.3265 -0.3232  0.4162
  606MOL0     H81801   4.351   2.851   4.080 -0.1934 -0.4174 -0.0470
  606MOL0     H81802   4.071   2.893   4.186 -0.2546  1.2184 -0.1408
  606MOL0     H81803   4.116   2.951   4.031 -0.8721  0.2538 -0.1150
  606MOL0     H81804   4.113   3.130   4.194 -0.0303 -0.1088 -1.1935
  606MOL0     H81805   4.256   3.061   4.278 -2.0163  2.4803  0.4762
  606MOL0     H81806   4.465   3.283   4.017 -0.1210  0.3164 -1.4974
  606MOL0     H81807   4.252   2.500   4.147  3.2024 -4.0426  1.6934
  606MOL0     H81808   4.125   2.253   3.968 -1.8268 -1.9141  1.2930
  606MOL0     H81809   4.274   2.309   4.048 -0.6675  4.6683 -2.1723
  606MOL0     H81810   4.174   2.165   4.113  0.8053  1.0852  1.6748
  607MOL0     O81811   0.297   0.485  10.211  0.5008 -0.1238 -0.1825
  607MOL0     C81812   0.318   0.372  10.158  0.1943 -0.1685 -0.0904
  607MOL0     O81813   0.442   0.330  10.120 -0.1629 -0.4129  1.5169
  607MOL0     C81814   0.553   0.415  10.122 -0.7685 -0.1124  0.0356
  607MOL0     C81815   0.576   0.530  10.201 -0.9507  0.1642 -0.2372
  607MOL0     C81816   0.693   0.602  10.186  0.2465  0.0199 -0.1035
  607MOL0     C81817   0.793   0.573  10.092  0.3343  0.9153 -0.1044
  607MOL0     O81818   0.904   0.645  10.082  0.3895 -0.6978 -0.2669
  607MOL0     C81819   0.963   0.682   9.951  0.6135  0.0469  0.3833
  607MOL0     C81820   1.107   0.721   9.969  0.0928  0.1953 -0.0436
  607MOL0     C81821   1.182   0.766   9.845  0.7232 -0.4352 -0.1573
  607MOL0     C81822   1.320   0.818   9.897  0.4078  0.5230  0.0778
  607MOL0     C81823   1.431   0.865   9.800  0.2432  0.5667 -0.0191
  607MOL0     C81824   1.554   0.948   9.861 -0.3057  0.6734 -0.8653
  607MOL0     C81825   1.515   1.085   9.884 -0.4664  0.2910  0.3933
  607MOL0     C81826   1.644   1.164   9.931 -0.0756 -0.0990 -0.6783
  607MOL0     N81827   1.608   1.313   9.939 -0.5807 -0.7700 -0.9850
  607MOL0     C81828   1.546   1.368  10.054 -0.2274 -0.1983 -0.6399
  607MOL0     C81829   1.503   1.490  10.018  0.7614 -0.0678  0.3305
  607MOL0     C81830   1.439   1.596  10.107 -0.3580  0.3525  0.2300
  607MOL0     C81831   1.537   1.716  10.142 -0.6421 -0.5019  0.7205
  607MOL0     C81832   1.468   1.809  10.241 -0.3420 -0.5013  0.3462
  607MOL0     C81833   1.541   1.929  10.290 -0.9807  0.5559  0.0368
  607MOL0     O81834   1.677   1.901  10.311 -0.1632 -0.7095  0.4993
  607MOL0     C81835   1.751   1.985  10.393 -0.3169  0.1313 -0.8569
  607MOL0     C81836   1.873   1.931  10.447 -0.1534  0.7776 -0.6076
  607MOL0     C81837   1.970   1.997  10.523  0.2418  0.0786 -0.6657
  607MOL0     C81838   1.926   2.121  10.571 -0.6123  0.9703 -1.0034
  607MOL0     C81839   2.012   2.180  10.679 -0.2103 -0.0394  0.0895
  607MOL0     O81840   2.138   2.139  10.697 -0.6589 -0.2079 -0.7097
  607MOL0     C81841   2.237   2.207  10.762 -0.2063  0.2876  0.2733
  607MOL0     C81842   2.350   2.234  10.668  0.0679 -0.4183 -0.2628
  607MOL0     C81843   2.457   2.302  10.729 -0.9966 -0.6986  0.9361
  607MOL0     C81844   2.459   2.350  10.855 -0.8999  0.7417 -0.4701
  607MOL0     O81845   2.567   2.425  10.911 -0.5578 -0.6654  0.1958
  607MOL0     C81846   2.621   2.531  10.840  1.4296 -0.3296 -0.9627
  607MOL0     C81847   2.750   2.559  10.911  0.3535 -0.1370 -0.1107
  607MOL0     C81848   2.812   2.684  10.833 -0.9083 -0.6174 -0.6878
  607MOL0     C81849   2.957   2.725  10.871  0.8439 -0.3571  0.1100
  607MOL0     C81850   2.964   2.753  11.023 -0.2137  0.3720 -0.3559
  607MOL0     C81851   3.105   2.803  11.045  0.6538  0.0904 -0.8992
  607MOL0     C81852   3.133   2.866  11.187 -0.3735  0.2529 -0.4380
  607MOL0     C81853   3.279   2.859  11.239 -0.1307 -0.2483 -0.5724
  607MOL0    Cl81854   3.288   2.894  11.420  0.6301  0.7909 -0.1705
  607MOL0     C81855   2.354   2.321  10.942  0.4073  0.4269  0.3110
  607MOL0     C81856   2.245   2.250  10.896 -0.0579 -0.8127  1.1454
  607MOL0     O81857   1.970   2.286  10.730 -0.2587  0.6353  0.1663
  607MOL0     C81858   1.800   2.179  10.521 -1.2795 -0.2700 -0.9341
  607MOL0     C81859   1.727   2.115  10.425 -0.1401 -0.5350 -0.4332
  607MOL0     N81860   1.541   1.514   9.889 -1.1516  0.4304 -1.0293
  607MOL0     N81861   1.591   1.404   9.839  0.3582  0.1743  0.4344
  607MOL0     C81862   0.774   0.448  10.025 -0.0929 -0.2191 -0.1455
  607MOL0     C81863   0.656   0.374  10.034  0.2727 -0.2117 -1.1461
  607MOL0     C81864   0.201   0.276  10.160 -0.4305 -0.4631  0.3664
  607MOL0     C81865   0.225   0.144  10.158  0.3584 -0.0306  0.0317
  607MOL0     C81866   0.121   0.053  10.148 -0.1306 -0.0414 -0.0647
  607MOL0     C81867  -0.013   0.091  10.156 -0.5170  0.0788 -0.2187
  607MOL0     O81868  -0.113  -0.002  10.149 -1.1048 -0.8015  0.6521
  607MOL0     C81869  -0.096  -0.129  10.204 -0.1172 -0.1727 -0.1606
  607MOL0     C81870  -0.222  -0.207  10.196  0.2267  0.2533 -0.4736
  607MOL0     C81871  -0.303  -0.222  10.331 -0.7081  0.7572 -0.4032
  607MOL0     C81872  -0.238  -0.329  10.422 -0.3907  0.2677 -1.0246
  607MOL0     C81873  -0.244  -0.287  10.569 -0.0798 -0.7228 -0.9109
  607MOL0     C81874  -0.264  -0.231  10.674 -0.1085  0.2036  0.3786
  607MOL0     C81875  -0.033   0.224  10.165 -0.1569 -0.9292  0.1763
  607MOL0     C81876   0.067   0.323  10.163  0.8380 -0.2612  0.1636
  607MOL0     C81877   0.024   0.464  10.129 -0.0985  0.0795  0.4453
  607MOL0     H81878   0.497   0.557  10.272 -2.6073 -1.1623 -1.4882
  607MOL0     H81879   0.692   0.694  10.243 -1.3175  1.1902 -1.8736
  607MOL0     H81880   0.955   0.606   9.872 -2.2496 -1.0294  1.5722
  607MOL0     H81881   0.922   0.775   9.911 -1.9261 -1.0438  0.3090
  607MOL0     H81882   1.163   0.644  10.022 -0.2287  1.0373  1.6132
  607MOL0     H81883   1.093   0.804  10.039  1.4097  1.8353 -1.6446
  607MOL0     H81884   1.145   0.853   9.789 -0.0912  0.1538  1.2514
  607MOL0     H81885   1.189   0.682   9.774  0.4006 -1.4654  1.0011
  607MOL0     H81886   1.299   0.899   9.967  2.7219  2.4183 -1.2679
  607MOL0     H81887   1.367   0.738   9.955  1.9125  1.9659  0.9290
  607MOL0     H81888   1.465   0.774   9.749  2.7405 -0.6782  3.4801
  607MOL0     H81889   1.387   0.930   9.723  1.3154  2.0512  0.5912
  607MOL0     H81890   1.591   0.900   9.952 -3.2528 -5.8184 -2.4827
  607MOL0     H81891   1.629   0.939   9.783  1.0876 -1.3899  0.5794
  607MOL0     H81892   1.439   1.088   9.962  0.6365 -2.1858  1.6763
  607MOL0     H81893   1.485   1.137   9.792  0.3145 -0.9789 -0.6170
  607MOL0     H81894   1.678   1.139  10.032 -0.1801  0.2949 -0.5434
  607MOL0     H81895   1.723   1.152   9.856  1.2145  1.1899  0.4113
  607MOL0     H81896   1.537   1.317  10.149 -3.7022 -1.0144 -1.2824
  607MOL0     H81897   1.347   1.616  10.053  0.3459 -2.5836 -2.3003
  607MOL0     H81898   1.406   1.545  10.198  2.6565 -3.1243 -0.3501
  607MOL0     H81899   1.627   1.674  10.187 -2.2148 -0.1161  4.6493
  607MOL0     H81900   1.564   1.776  10.056 -3.5120 -0.2737 -0.1294
  607MOL0     H81901   1.460   1.750  10.333  0.7896  0.2211  0.9247
  607MOL0     H81902   1.370   1.833  10.198  0.4558 -1.1432 -1.9796
  607MOL0     H81903   1.494   1.969  10.381  0.1953  0.8446  0.5378
  607MOL0     H81904   1.529   2.006  10.214 -1.0028  0.2096 -0.3122
  607MOL0     H81905   1.899   1.835  10.403 -1.9204  0.7348 -1.6507
  607MOL0     H81906   2.060   1.950  10.561  0.0911  0.2196 -0.1199
  607MOL0     H81907   2.343   2.201  10.564 -1.8757 -0.4091 -0.1890
  607MOL0     H81908   2.539   2.328  10.663 -2.9430 -1.7162 -2.0713
  607MOL0     H81909   2.639   2.516  10.733  3.0731  1.0194 -0.9241
  607MOL0     H81910   2.556   2.618  10.855 -0.8119 -2.2949  1.8902
  607MOL0     H81911   2.726   2.596  11.011 -1.6082 -0.3000 -0.4888
  607MOL0     H81912   2.822   2.477  10.904 -0.1915 -0.6991  0.7532
  607MOL0     H81913   2.804   2.674  10.724 -1.6365 -3.2810 -0.4802
  607MOL0     H81914   2.746   2.768  10.856 -0.6764 -0.9310  1.2913
  607MOL0     H81915   3.001   2.809  10.817  0.5224  0.7430  1.4957
  607MOL0     H81916   3.027   2.641  10.860  2.9401  1.2445  0.5628
  607MOL0     H81917   2.951   2.659  11.077  1.3457 -0.0304 -0.6396
  607MOL0     H81918   2.889   2.824  11.058 -0.8821 -1.2362  1.6830
  607MOL0     H81919   3.178   2.722  11.033 -0.2941 -0.9396  0.0604
  607MOL0     H81920   3.133   2.879  10.971 -1.3284  4.2003  2.2097
  607MOL0     H81921   3.090   2.788  11.251 -1.3931  1.3845  0.2924
  607MOL0     H81922   3.093   2.966  11.202  1.1947  0.5518  2.6514
  607MOL0     H81923   3.327   2.766  11.210 -2.3758 -1.0825 -1.8140
  607MOL0     H81924   3.335   2.935  11.183 -2.3457  1.2998 -0.7993
  607MOL0     H81925   2.350   2.352  11.046 -1.7149 -0.0881  0.4368
  607MOL0     H81926   2.157   2.225  10.954  1.6598 -3.6203  2.7920
  607MOL0     H81927   1.777   2.278  10.559 -3.2505 -0.6002 -1.1469
  607MOL0     H81928   1.642   2.163  10.378  0.0299 -1.9304 -2.2499
  607MOL0     H81929   0.853   0.404   9.966 -0.6708  0.3809 -1.4036
  607MOL0     H81930   0.646   0.281   9.980  2.3497 -1.8952  1.1442
  607MOL0     H81931   0.321   0.100  10.131 -0.5871 -1.4331 -1.2532
  607MOL0     H81932   0.143  -0.053  10.141  0.2743  0.1159 -1.7493
  607MOL0     H81933  -0.063  -0.122  10.308 -0.0345 -0.6693 -0.1468
  607MOL0     H81934  -0.020  -0.194  10.159  0.4827 -0.0600  0.6660
  607MOL0     H81935  -0.197  -0.305  10.157 -0.1128 -2.1158  4.4736
  607MOL0     H81936  -0.278  -0.149  10.122 -0.4949 -0.9424 -0.8907
  607MOL0     H81937  -0.402  -0.259  10.304 -0.0141 -0.6312 -1.1297
  607MOL0     H81938  -0.297  -0.120  10.372  2.6949  0.1221  1.0108
  607MOL0     H81939  -0.295  -0.422  10.410 -1.9242  1.1346 -0.7228
  607MOL0     H81940  -0.136  -0.361  10.398  0.6104 -1.4423  4.2796
  607MOL0     H81941  -0.293  -0.181  10.764  0.0073  0.1577  0.4430
  607MOL0     H81942  -0.139   0.245  10.155 -0.2061 -0.3336  1.6451
  607MOL0     H81943   0.057   0.483  10.026  0.3353  2.5509  0.9881
  607MOL0     H81944  -0.085   0.475  10.131 -0.5430 -0.8185 -4.4810
  607MOL0     H81945   0.072   0.549  10.177 -0.2043  0.5991 -0.3586
  608MOL0     O81946   1.854   2.757   3.525 -0.0164  0.4064  0.3855
  608MOL0     C81947   1.764   2.680   3.502  0.4936 -0.1536  0.9351
  608MOL0     O81948   1.640   2.722   3.464 -0.0129 -0.3298  0.5975
  608MOL0     C81949   1.589   2.850   3.466  0.2899 -0.5132  0.1795
  608MOL0     C81950   1.617   2.940   3.566  0.3821 -0.4819 -0.3502
  608MOL0     C81951   1.543   3.060   3.571  0.4595  0.5596  0.1431
  608MOL0     C81952   1.443   3.088   3.482 -0.8208 -0.0942  0.2736
  608MOL0     O81953   1.354   3.196   3.493 -0.1832  0.2514 -0.5552
  608MOL0     C81954   1.380   3.300   3.577  0.1430 -0.4587  0.0186
  608MOL0     C81955   1.304   3.420   3.546 -0.2870 -0.2787  0.1033
  608MOL0     C81956   1.338   3.559   3.610 -0.3409  0.2666 -0.9270
  608MOL0     C81957   1.407   3.550   3.748 -0.3478 -0.2913 -0.7320
  608MOL0     C81958   1.426   3.691   3.811 -0.1624  0.0617  0.4602
  608MOL0     C81959   1.489   3.696   3.947 -0.2941 -0.1715  0.1408
  608MOL0     C81960   1.413   3.625   4.062 -0.0038  0.8805  0.0058
  608MOL0     C81961   1.498   3.607   4.183 -0.0263  0.3642 -0.0396
  608MOL0     N81962   1.437   3.533   4.293  0.4116 -0.4052 -0.2704
  608MOL0     C81963   1.314   3.547   4.340  1.0663  0.7098 -0.1848
  608MOL0     C81964   1.294   3.449   4.428  0.0034 -0.1228 -0.2600
  608MOL0     C81965   1.182   3.439   4.529  0.8723  0.7011  0.5060
  608MOL0     C81966   1.213   3.516   4.665 -0.1963 -0.0968  0.2434
  608MOL0     C81967   1.105   3.518   4.771 -0.7701 -0.2442 -0.1084
  608MOL0     C81968   0.991   3.617   4.726  0.1634  0.2530 -0.2913
  608MOL0     O81969   0.889   3.633   4.826  0.5211 -0.0359  0.6585
  608MOL0     C81970   0.803   3.739   4.819 -0.4005  0.5778  0.6623
  608MOL0     C81971   0.740   3.781   4.938  0.0081  0.0963  0.9728
  608MOL0     C81972   0.640   3.883   4.942 -0.0623 -0.8496  0.6033
  608MOL0     C81973   0.594   3.936   4.824 -0.7375  0.3683 -0.2509
  608MOL0     C81974   0.488   4.040   4.821 -0.1101  0.6922  0.0734
  608MOL0     O81975   0.428   4.073   4.699  0.1217 -0.0051  0.3187
  608MOL0     C81976   0.352   4.182   4.689 -0.0036 -0.2474 -0.8516
  608MOL0     C81977   0.236   4.203   4.772  0.5299 -0.1752  0.6144
  608MOL0     C81978   0.162   4.328   4.761 -0.3256 -0.1032  0.0959
  608MOL0     C81979   0.186   4.416   4.659 -0.1404  0.3405  0.6438
  608MOL0     O81980   0.118   4.540   4.661 -0.0755  0.2874 -0.0304
  608MOL0     C81981   0.017   4.567   4.565  0.4421 -0.2288 -0.4989
  608MOL0     C81982   0.003   4.719   4.552  0.1634 -0.6044 -0.6966
  608MOL0     C81983  -0.091   4.775   4.444  0.7542  0.6952 -0.1820
  608MOL0     C81984  -0.067   4.917   4.420  0.6732 -0.3630  0.4957
  608MOL0     C81985  -0.108   5.018   4.534 -0.3315  0.7182  0.5516
  608MOL0     C81986  -0.247   5.001   4.581  0.4639 -0.4059 -0.0218
  608MOL0     C81987  -0.293   5.120   4.672  0.0501  0.3768 -0.0161
  608MOL0     C81988  -0.443   5.114   4.658 -0.1232  0.1184 -0.9324
  608MOL0    Cl81989  -0.506   4.954   4.723  0.3700  0.7872 -0.0263
  608MOL0     C81990   0.279   4.381   4.561  0.0632  0.1609 -0.3066
  608MOL0     C81991   0.352   4.259   4.568  0.6042 -0.2317  0.3983
  608MOL0     O81992   0.452   4.082   4.929 -0.2624 -0.3535  0.5430
  608MOL0     C81993   0.644   3.890   4.701 -0.2123  0.4829  1.1667
  608MOL0     C81994   0.745   3.788   4.697 -0.5687 -0.2160  0.6680
  608MOL0     N81995   1.416   3.392   4.445 -0.2618  0.2243  0.2605
  608MOL0     N81996   1.501   3.439   4.360 -0.5216 -0.5083  1.2893
  608MOL0     C81997   1.416   2.997   3.374 -0.2717 -0.2081  0.3538
  608MOL0     C81998   1.491   2.876   3.373  0.2670 -0.8873  0.4345
  608MOL0     C81999   1.815   2.547   3.470 -0.2336 -0.3770  0.3822
  608MOL0     C82000   1.744   2.479   3.367 -0.5316  0.3419  0.4101
  608MOL0     C82001   1.783   2.354   3.328  1.6370 -0.5794  0.3503
  608MOL0     C82002   1.875   2.279   3.396 -0.4457  0.4940  0.4193
  608MOL0     O82003   1.924   2.154   3.367 -0.3299  0.1899 -0.2006
  608MOL0     C82004   1.920   2.117   3.232  0.2691 -0.6520  0.7663
  608MOL0     C82005   2.012   2.213   3.146 -0.0872 -1.1272  0.3239
  608MOL0     C82006   2.051   2.181   3.009  0.7747 -0.7278  0.0945
  608MOL0     C82007   2.108   2.314   2.942  0.3680 -0.1477  0.3681
  608MOL0     C82008   2.123   2.283   2.800 -0.7067  0.6323  0.5444
  608MOL0     C82009   2.157   2.274   2.690  1.0274  0.7629  0.6867
  608MOL0     C82010   1.948   2.348   3.493  0.1932  0.9533  0.7572
  608MOL0     C82011   1.919   2.475   3.535 -0.1069 -0.6065 -0.3282
  608MOL0     C82012   2.004   2.521   3.656  0.2917 -0.4274  0.2589
  608MOL0     H82013   1.682   2.921   3.650 -0.8759 -1.1731  0.5088
  608MOL0     H82014   1.559   3.127   3.655  0.8774 -0.3835  0.8378
  608MOL0     H82015   1.366   3.267   3.680 -0.1878 -1.7229 -0.4054
  608MOL0     H82016   1.483   3.338   3.576  0.0010 -0.0646 -0.5810
  608MOL0     H82017   1.203   3.384   3.569  0.0276 -1.4077 -0.2219
  608MOL0     H82018   1.293   3.441   3.439 -1.5375  1.2495  0.4925
  608MOL0     H82019   1.245   3.610   3.636 -1.4273 -2.6043  1.3970
  608MOL0     H82020   1.393   3.618   3.536  1.0814 -0.6430 -0.6440
  608MOL0     H82021   1.336   3.499   3.814  0.6810  2.3038  2.6232
  608MOL0     H82022   1.504   3.499   3.742 -0.7202 -0.8915 -2.0364
  608MOL0     H82023   1.482   3.763   3.750  0.2882 -1.2075 -0.6733
  608MOL0     H82024   1.321   3.714   3.835 -0.9185 -2.0281 -0.5663
  608MOL0     H82025   1.590   3.654   3.958 -0.5049 -0.1849  2.3697
  608MOL0     H82026   1.501   3.801   3.973 -0.2243  0.0188 -0.6359
  608MOL0     H82027   1.396   3.523   4.025 -0.0163  1.1691 -0.7955
  608MOL0     H82028   1.323   3.680   4.090 -0.2780  0.0209  0.8459
  608MOL0     H82029   1.590   3.559   4.150  0.6029  1.4589  0.0812
  608MOL0     H82030   1.538   3.703   4.218  0.6146  0.4947 -1.1001
  608MOL0     H82031   1.231   3.608   4.305  2.2148  1.4983 -1.6344
  608MOL0     H82032   1.088   3.461   4.478  0.6254 -1.0291  0.1612
  608MOL0     H82033   1.175   3.333   4.556 -0.3848  0.7240  0.2960
  608MOL0     H82034   1.306   3.476   4.706  0.0240  0.8969  0.7420
  608MOL0     H82035   1.227   3.617   4.624  1.4391 -1.8064 -4.0192
  608MOL0     H82036   1.148   3.555   4.865  1.7336 -0.1288 -1.2204
  608MOL0     H82037   1.063   3.418   4.785 -2.5198  0.5710  0.7579
  608MOL0     H82038   0.943   3.579   4.636 -1.1726 -2.1767  1.3413
  608MOL0     H82039   1.035   3.716   4.709 -2.8361  1.4715 -1.7487
  608MOL0     H82040   0.773   3.727   5.026  1.0087 -0.0739  0.5068
  608MOL0     H82041   0.599   3.930   5.031 -2.5591 -0.2041 -0.7907
  608MOL0     H82042   0.203   4.128   4.843 -2.4252  0.5390  0.1293
  608MOL0     H82043   0.095   4.346   4.845  0.0945 -1.1952  0.6872
  608MOL0     H82044   0.040   4.526   4.466  0.6139 -1.4693  0.0363
  608MOL0     H82045  -0.079   4.531   4.602  0.3670  0.3763 -0.0891
  608MOL0     H82046  -0.035   4.763   4.645  0.6180 -1.0096 -0.3080
  608MOL0     H82047   0.104   4.755   4.528  0.0354 -1.7720 -3.3181
  608MOL0     H82048  -0.066   4.721   4.352 -1.5506  0.5423 -0.7731
  608MOL0     H82049  -0.194   4.756   4.474  1.0313  0.9811  1.0010
  608MOL0     H82050  -0.109   4.934   4.321  1.1224 -0.4298  0.2914
  608MOL0     H82051   0.038   4.935   4.394  0.2571  2.3054  0.3806
  608MOL0     H82052  -0.088   5.119   4.498  2.8313  0.7208  1.9957
  608MOL0     H82053  -0.036   4.998   4.614 -2.0283 -2.5723  1.4534
  608MOL0     H82054  -0.310   4.993   4.493  0.3501 -1.1754  0.1216
  608MOL0     H82055  -0.265   4.911   4.640  0.9770 -0.2733  0.3412
  608MOL0     H82056  -0.252   5.215   4.638  1.8761 -0.0344  0.8989
  608MOL0     H82057  -0.260   5.116   4.777 -0.3530  1.3468  0.1583
  608MOL0     H82058  -0.484   5.194   4.720  1.5877 -0.7634  1.5134
  608MOL0     H82059  -0.475   5.130   4.555 -0.2017  0.1098 -0.9094
  608MOL0     H82060   0.283   4.455   4.482 -2.9662  1.0238  0.2237
  608MOL0     H82061   0.425   4.244   4.489 -2.5694 -0.2131 -2.7552
  608MOL0     H82062   0.623   3.928   4.601  2.8425 -2.0857 -0.6284
  608MOL0     H82063   0.791   3.750   4.606 -0.6138  0.7043  0.2497
  608MOL0     H82064   1.340   3.011   3.297  0.4111  0.5483 -0.1961
  608MOL0     H82065   1.459   2.800   3.303  1.7932  0.9897 -2.4991
  608MOL0     H82066   1.662   2.528   3.315  0.0323  0.8666  0.0031
  608MOL0     H82067   1.720   2.308   3.253  0.0416 -1.7459  2.3139
  608MOL0     H82068   1.816   2.119   3.198 -0.4769 -0.6432  2.8940
  608MOL0     H82069   1.962   2.017   3.222  0.1798 -0.8621  2.2944
  608MOL0     H82070   2.103   2.232   3.203 -1.0344 -0.1472  1.5602
  608MOL0     H82071   1.964   2.312   3.144  0.1418 -1.0036  0.7463
  608MOL0     H82072   1.965   2.148   2.951 -0.3159  0.7971  0.7582
  608MOL0     H82073   2.138   2.117   3.023  2.2859  0.8568 -1.5779
  608MOL0     H82074   2.025   2.386   2.945  1.5883  1.2656  1.6313
  608MOL0     H82075   2.199   2.356   2.986  0.7768 -0.0094 -0.5879
  608MOL0     H82076   2.195   2.238   2.597  1.7727 -4.2667  2.6071
  608MOL0     H82077   2.026   2.290   3.540 -4.3387 -2.0502  5.6922
  608MOL0     H82078   2.040   2.624   3.658  1.7182 -0.9033  0.8287
  608MOL0     H82079   1.941   2.503   3.743 -0.6447 -0.3135 -0.3833
  608MOL0     H82080   2.093   2.458   3.667 -1.3319 -2.6483  1.5944
  609MOL0     O82081  11.436   2.321   7.025 -0.3325 -0.5112  0.7450
  609MOL0     C82082  11.434   2.415   6.953 -0.3571  0.6229  0.1384
  609MOL0     O82083  11.342   2.422   6.850 -0.1505  0.3123  0.3879
  609MOL0     C82084  11.242   2.333   6.823 -0.8820 -0.3449 -0.1041
  609MOL0     C82085  11.122   2.387   6.775 -0.0113  0.0887 -0.9974
  609MOL0     C82086  11.016   2.301   6.727 -0.3888 -0.1815 -0.5747
  609MOL0     C82087  11.023   2.163   6.734 -0.4037 -0.3717 -0.0088
  609MOL0     O82088  10.923   2.074   6.702  0.4350 -0.0030 -0.2757
  609MOL0     C82089  10.809   2.139   6.642  1.5480  0.5360 -0.4824
  609MOL0     C82090  10.690   2.047   6.626  0.5429  0.7397  0.6771
  609MOL0     C82091  10.669   1.955   6.742 -0.8522  0.0836 -0.0294
  609MOL0     C82092  10.561   1.856   6.707  0.0628  1.0464  0.2349
  609MOL0     C82093  10.526   1.766   6.824  0.4049 -0.9133  0.2019
  609MOL0     C82094  10.430   1.824   6.921  0.3624  0.1465  0.5077
  609MOL0     C82095  10.285   1.842   6.864 -0.9433 -0.4947  1.4116
  609MOL0     C82096  10.185   1.733   6.925 -0.2795  0.0874  0.2343
  609MOL0     N82097  10.105   1.784   7.034 -0.0922  0.1613 -1.2004
  609MOL0     C82098  10.007   1.874   7.017 -0.6560  0.0075  0.7135
  609MOL0     C82099   9.968   1.914   7.139 -0.1355  0.0109  0.6693
  609MOL0     C82100   9.882   2.030   7.180  0.0935 -0.1678 -0.0676
  609MOL0     C82101   9.738   2.000   7.133 -0.0463 -0.2042 -0.2990
  609MOL0     C82102   9.678   1.882   7.199 -0.1794  0.5037  0.7414
  609MOL0     C82103   9.524   1.876   7.177 -0.4063 -0.5071  0.6415
  609MOL0     O82104   9.449   1.781   7.258  1.1375  0.2667 -0.5106
  609MOL0     C82105   9.315   1.770   7.236  0.0690  0.5688  0.8691
  609MOL0     C82106   9.230   1.801   7.340  0.1857  0.0532  0.3590
  609MOL0     C82107   9.091   1.791   7.325 -0.0898  0.1779  0.3693
  609MOL0     C82108   9.032   1.733   7.208 -0.5468  0.2700  0.5004
  609MOL0     C82109   8.892   1.715   7.204 -0.2511 -0.1011  0.1087
  609MOL0     O82110   8.834   1.683   7.092  0.4235  0.4071  0.1261
  609MOL0     C82111   8.714   1.616   7.093  0.5752  1.1932  0.1645
  609MOL0     C82112   8.705   1.485   7.130  0.5836  0.4668 -0.8171
  609MOL0     C82113   8.584   1.418   7.141  0.2931 -0.0774 -0.1528
  609MOL0     C82114   8.462   1.484   7.108 -0.3514 -1.2122 -0.5761
  609MOL0     O82115   8.349   1.411   7.108  0.3208 -0.5594  0.1379
  609MOL0     C82116   8.254   1.444   7.007 -0.2468 -0.5944 -0.2587
  609MOL0     C82117   8.173   1.320   6.969 -0.5463 -0.0684 -0.0174
  609MOL0     C82118   8.040   1.356   6.892  0.1040  0.1348 -0.9544
  609MOL0     C82119   7.938   1.429   6.987 -1.0100 -0.0463  0.4617
  609MOL0     C82120   7.815   1.498   6.920 -0.6513  0.3348  0.1298
  609MOL0     C82121   7.755   1.405   6.815 -1.0432  0.0607  0.3846
  609MOL0     C82122   7.614   1.455   6.763  0.1514  0.2168 -0.0079
  609MOL0     C82123   7.551   1.365   6.662  0.0192  2.4236  0.7712
  609MOL0    Cl82124   7.392   1.429   6.632  0.1345  0.1730 -0.3720
  609MOL0     C82125   8.474   1.619   7.069  1.1167  1.0653 -0.4118
  609MOL0     C82126   8.598   1.680   7.060 -0.7303  0.5441  0.4291
  609MOL0     O82127   8.844   1.709   7.318  0.3635 -0.6066 -0.1663
  609MOL0     C82128   9.118   1.714   7.096  0.0752 -0.1155  0.8261
  609MOL0     C82129   9.262   1.724   7.114 -0.4086  0.6163  0.8845
  609MOL0     N82130  10.047   1.828   7.227 -0.6382  0.4931  0.3252
  609MOL0     N82131  10.127   1.756   7.169 -0.2046  0.1195  0.6354
  609MOL0     C82132  11.138   2.108   6.783  0.0509 -0.0455 -0.1532
  609MOL0     C82133  11.250   2.188   6.831 -0.1988 -0.0845  0.0145
  609MOL0     C82134  11.511   2.539   6.980 -0.1984  0.2769  0.6195
  609MOL0     C82135  11.530   2.628   6.873 -0.1829  0.7991  0.2122
  609MOL0     C82136  11.602   2.753   6.885 -0.1049  0.1982  0.0549
  609MOL0     C82137  11.651   2.781   7.003  0.6790 -1.2037 -0.8873
  609MOL0     O82138  11.723   2.899   7.011  0.2724  0.4033 -0.1448
  609MOL0     C82139  11.775   2.950   7.134  0.3425 -0.3465 -0.5987
  609MOL0     C82140  11.809   3.103   7.123  0.6661  0.0213  0.6103
  609MOL0     C82141  11.683   3.193   7.128 -0.2859  0.6098 -0.6912
  609MOL0     C82142  11.588   3.176   7.012 -0.0167  0.6485  0.7961
  609MOL0     C82143  11.656   3.198   6.880  0.1385 -0.2888 -0.4125
  609MOL0     C82144  11.734   3.201   6.784  0.0818  0.6975  0.3402
  609MOL0     C82145  11.648   2.685   7.112  0.1062  0.8629 -0.1833
  609MOL0     C82146  11.585   2.557   7.092  0.1679 -1.2053 -0.1396
  609MOL0     C82147  11.602   2.457   7.202  0.1500 -0.6056  0.1762
  609MOL0     H82148  11.105   2.494   6.771 -0.4132  0.1755  1.3755
  609MOL0     H82149  10.928   2.339   6.676 -0.0609 -0.8609 -1.6591
  609MOL0     H82150  10.773   2.220   6.706 -1.3342  1.4892 -3.0840
  609MOL0     H82151  10.824   2.186   6.545  3.7490  0.9657  0.0022
  609MOL0     H82152  10.689   2.007   6.524 -1.0310 -1.1409  1.3731
  609MOL0     H82153  10.605   2.115   6.623  0.7225  0.9333 -0.2685
  609MOL0     H82154  10.639   2.008   6.832 -1.1721 -0.6066  0.2786
  609MOL0     H82155  10.763   1.902   6.759 -1.7240 -2.2363 -1.8131
  609MOL0     H82156  10.471   1.910   6.675 -1.9692 -1.5833  1.1328
  609MOL0     H82157  10.602   1.790   6.630  0.4309  1.0967  0.3863
  609MOL0     H82158  10.480   1.671   6.792 -1.4419 -0.0891  0.3129
  609MOL0     H82159  10.613   1.732   6.881  1.3817  0.5174 -0.3753
  609MOL0     H82160  10.426   1.768   7.015 -0.1637 -0.1544  0.3105
  609MOL0     H82161  10.484   1.919   6.931  0.2573  0.4065 -1.1074
  609MOL0     H82162  10.292   1.835   6.755  1.5444  0.8602  1.3958
  609MOL0     H82163  10.252   1.946   6.876  1.5692  0.6115 -0.3406
  609MOL0     H82164  10.119   1.695   6.847 -1.1306  1.4684  0.2481
  609MOL0     H82165  10.240   1.645   6.959 -2.0081 -0.8949  0.5972
  609MOL0     H82166   9.976   1.930   6.929 -1.1670  2.7621  2.4944
  609MOL0     H82167   9.895   2.043   7.288 -2.0876 -0.9402  0.3434
  609MOL0     H82168   9.914   2.119   7.125 -0.6127  2.2706  3.1272
  609MOL0     H82169   9.676   2.087   7.156  3.1518  2.6971 -1.6837
  609MOL0     H82170   9.747   1.984   7.025  2.0163 -1.2029 -0.0261
  609MOL0     H82171   9.700   1.893   7.306  4.3757 -1.1977  0.1729
  609MOL0     H82172   9.718   1.785   7.172  1.7600  0.6830  2.6720
  609MOL0     H82173   9.496   1.862   7.072 -2.2697 -3.3576  1.4056
  609MOL0     H82174   9.485   1.974   7.205 -1.2107 -0.9798  1.2322
  609MOL0     H82175   9.273   1.838   7.433  1.3180 -1.1589  0.3407
  609MOL0     H82176   9.049   1.812   7.422  1.0542  0.5081  0.8033
  609MOL0     H82177   8.795   1.425   7.143  0.8419  0.5861 -1.9002
  609MOL0     H82178   8.580   1.314   7.170  2.0319 -0.4198 -0.9990
  609MOL0     H82179   8.190   1.526   7.042 -2.2322 -1.3268 -2.0285
  609MOL0     H82180   8.303   1.493   6.922 -1.3632 -0.4469 -0.8346
  609MOL0     H82181   8.232   1.247   6.915  1.0782 -0.6531  2.3780
  609MOL0     H82182   8.145   1.272   7.064 -0.6425 -0.6786 -0.3565
  609MOL0     H82183   8.066   1.423   6.810  0.3522 -2.1068 -2.7969
  609MOL0     H82184   7.993   1.266   6.851 -0.9122  0.6349 -0.9325
  609MOL0     H82185   8.001   1.510   7.027  1.7251 -1.1647 -1.2518
  609MOL0     H82186   7.914   1.364   7.071  0.8597  0.0229  1.1143
  609MOL0     H82187   7.852   1.588   6.870 -0.7169  1.0619  1.3638
  609MOL0     H82188   7.749   1.523   7.003 -0.0739  2.3149  0.0266
  609MOL0     H82189   7.822   1.392   6.730 -0.7920 -0.3259  0.6394
  609MOL0     H82190   7.740   1.307   6.860  1.1156 -0.1034  0.8428
  609MOL0     H82191   7.636   1.547   6.709 -1.4184 -0.1152 -1.2866
  609MOL0     H82192   7.540   1.462   6.843  0.6424  0.0941  0.4676
  609MOL0     H82193   7.620   1.349   6.579  0.2755 -0.9942  1.5071
  609MOL0     H82194   7.526   1.267   6.704 -1.0176  1.6666 -1.4690
  609MOL0     H82195   8.376   1.662   7.050  0.5826  0.2814  0.4825
  609MOL0     H82196   8.599   1.784   7.028 -0.3256  0.9728  1.7532
  609MOL0     H82197   9.068   1.701   7.000 -1.7491  3.4886  1.0995
  609MOL0     H82198   9.319   1.712   7.023 -0.4003 -2.3132  1.1983
  609MOL0     H82199  11.149   2.000   6.777  1.1697  0.1040 -4.4230
  609MOL0     H82200  11.335   2.130   6.864  0.1024  0.5681  0.4075
  609MOL0     H82201  11.493   2.601   6.775 -0.7951  1.1899  0.3301
  609MOL0     H82202  11.626   2.819   6.802  0.0574 -0.7683 -0.6856
  609MOL0     H82203  11.862   2.889   7.160 -0.6912 -1.2846  0.7906
  609MOL0     H82204  11.706   2.948   7.219  0.2255  0.8313 -0.6517
  609MOL0     H82205  11.862   3.129   7.031 -1.4400 -0.4840 -0.8222
  609MOL0     H82206  11.877   3.129   7.204 -1.0328 -2.1831  2.8842
  609MOL0     H82207  11.716   3.297   7.118 -2.0097  0.9720 -4.2850
  609MOL0     H82208  11.637   3.187   7.227  2.0965  2.9950  0.6965
  609MOL0     H82209  11.538   3.079   7.020 -0.7141  1.0196  1.0755
  609MOL0     H82210  11.511   3.254   7.014  0.4204  1.0973  0.4202
  609MOL0     H82211  11.824   3.204   6.727  0.7482  1.8577  1.4015
  609MOL0     H82212  11.698   2.697   7.208  0.8998 -0.9889 -0.3069
  609MOL0     H82213  11.655   2.478   7.296 -2.0396  0.2498  1.2798
  609MOL0     H82214  11.506   2.417   7.235 -2.0020  1.9441 -2.5038
  609MOL0     H82215  11.656   2.370   7.162 -0.6273 -1.4062  0.8002
  610MOL0     O82216  11.396   9.689   7.943  0.0852 -0.3373  0.6294
  610MOL0     C82217  11.381   9.595   8.024 -0.4446  0.2029 -0.5569
  610MOL0     O82218  11.274   9.511   8.029  0.3847 -0.4388  0.1906
  610MOL0     C82219  11.188   9.509   7.928  0.4081  0.3982  0.6057
  610MOL0     C82220  11.055   9.522   7.949  0.9691  0.2686 -0.5927
  610MOL0     C82221  10.954   9.522   7.850 -0.5293  0.2447  0.3234
  610MOL0     C82222  11.000   9.519   7.717  0.0810 -0.1146 -0.2117
  610MOL0     O82223  10.911   9.536   7.606  0.1852 -0.5490 -1.0018
  610MOL0     C82224  10.919   9.464   7.484  0.5268  0.2948  0.7028
  610MOL0     C82225  10.783   9.470   7.415  0.7303  0.2657  0.6990
  610MOL0     C82226  10.666   9.434   7.512  0.2810 -0.2361 -0.6982
  610MOL0     C82227  10.533   9.429   7.441 -0.0305 -0.2255 -0.3188
  610MOL0     C82228  10.423   9.375   7.536  0.2329 -0.4749  0.9379
  610MOL0     C82229  10.296   9.340   7.458  0.1179 -0.2697 -0.4340
  610MOL0     C82230  10.185   9.295   7.559 -1.0470 -0.0002 -1.2746
  610MOL0     C82231  10.096   9.187   7.495  0.2133 -0.1229  0.3051
  610MOL0     N82232  10.022   9.110   7.600 -0.1231  1.1345 -0.4174
  610MOL0     C82233  10.007   9.132   7.737 -0.1173  0.8870 -0.1158
  610MOL0     C82234   9.983   9.012   7.789  0.8189  0.3221  0.4433
  610MOL0     C82235   9.937   9.005   7.929  0.6765 -0.4824  0.1515
  610MOL0     C82236  10.054   8.977   8.027  0.5996 -0.0195 -0.1854
  610MOL0     C82237  10.015   9.007   8.166  0.1348 -0.4724 -0.0772
  610MOL0     C82238   9.888   8.957   8.216  0.2400  0.1360  0.2773
  610MOL0     O82239   9.869   8.820   8.193  0.0612 -0.2694  0.0025
  610MOL0     C82240   9.741   8.772   8.215 -0.2600 -0.3129 -0.5778
  610MOL0     C82241   9.638   8.836   8.278 -0.0261 -0.0495 -0.4287
  610MOL0     C82242   9.513   8.776   8.287  0.8810  0.4701  0.0685
  610MOL0     C82243   9.495   8.640   8.246  0.3154  0.8511  0.5569
  610MOL0     C82244   9.368   8.562   8.264  0.3385  0.2277 -1.1919
  610MOL0     O82245   9.264   8.636   8.315 -0.0689  0.4051 -0.5435
  610MOL0     C82246   9.139   8.584   8.345  0.7668  0.4708 -0.8145
  610MOL0     C82247   9.062   8.498   8.271  1.3470 -0.1990 -0.3997
  610MOL0     C82248   8.924   8.478   8.317  0.7509 -0.5037 -0.0294
  610MOL0     C82249   8.866   8.531   8.433 -0.4396  0.5715 -0.0545
  610MOL0     O82250   8.735   8.509   8.470 -0.5416  0.4694  1.1740
  610MOL0     C82251   8.708   8.496   8.606 -0.7094 -0.0595 -0.8791
  610MOL0     C82252   8.607   8.380   8.596 -0.1986  0.1819 -0.3187
  610MOL0     C82253   8.465   8.433   8.563  0.0912  0.5568  0.0264
  610MOL0     C82254   8.358   8.325   8.566  0.6007  0.4767 -0.1260
  610MOL0     C82255   8.219   8.351   8.496  0.3315 -0.2704 -0.3025
  610MOL0     C82256   8.142   8.467   8.549  0.7609 -0.3700 -0.2479
  610MOL0     C82257   8.012   8.480   8.474 -0.6945  0.2659  0.2313
  610MOL0     C82258   7.928   8.588   8.538 -0.2756 -0.6347  0.4985
  610MOL0    Cl82259   8.006   8.744   8.490  0.2003  0.1585 -0.0004
  610MOL0     C82260   8.952   8.625   8.495 -0.6723 -0.2324 -0.0820
  610MOL0     C82261   9.076   8.656   8.454 -1.0369 -0.3704  0.2376
  610MOL0     O82262   9.371   8.433   8.257 -1.0976 -0.5821  0.3574
  610MOL0     C82263   9.604   8.580   8.171  0.6588  0.6597 -0.3886
  610MOL0     C82264   9.722   8.647   8.163 -0.1511  0.2670 -1.2637
  610MOL0     N82265   9.992   8.907   7.692 -0.2104 -0.4086  0.7424
  610MOL0     N82266  10.017   8.970   7.577 -1.0160  0.2390 -0.1229
  610MOL0     C82267  11.137   9.504   7.687  0.4927 -0.4353  0.3549
  610MOL0     C82268  11.230   9.498   7.790  0.6774  0.5144 -0.7548
  610MOL0     C82269  11.495   9.559   8.110  0.3269 -0.6315  0.5276
  610MOL0     C82270  11.550   9.431   8.107  0.1392  0.3084  0.8933
  610MOL0     C82271  11.681   9.406   8.150 -0.7093 -0.4128 -0.0104
  610MOL0     C82272  11.757   9.502   8.221  0.0666  0.4659 -0.5804
  610MOL0     O82273  11.884   9.471   8.261  0.5869 -0.0901  0.0523
  610MOL0     C82274  11.949   9.564   8.357 -0.3729  0.2964 -0.7003
  610MOL0     C82275  11.894   9.541   8.497 -0.4039 -0.3660 -0.9182
  610MOL0     C82276  11.887   9.405   8.562 -0.3530 -0.7020 -0.2975
  610MOL0     C82277  11.891   9.414   8.719 -0.3029  0.1422  0.4672
  610MOL0     C82278  11.784   9.480   8.781  1.0847  0.4700 -0.1494
  610MOL0     C82279  11.696   9.534   8.841  0.8033  0.5930  0.1064
  610MOL0     C82280  11.702   9.629   8.243  0.9846 -0.6503 -0.1663
  610MOL0     C82281  11.573   9.653   8.187  0.4916 -0.5286 -0.5632
  610MOL0     C82282  11.526   9.799   8.217  0.2154  0.3508 -0.0175
  610MOL0     H82283  11.013   9.526   8.049 -0.9687  0.0673 -1.3597
  610MOL0     H82284  10.850   9.528   7.882 -0.8472 -1.1674 -0.3725
  610MOL0     H82285  10.993   9.505   7.415  1.0792  0.0828  1.1662
  610MOL0     H82286  10.959   9.363   7.493  1.8042  0.6614 -0.4810
  610MOL0     H82287  10.781   9.405   7.327  0.0684 -2.5871  2.6657
  610MOL0     H82288  10.763   9.574   7.387 -1.4384 -0.4537 -0.7336
  610MOL0     H82289  10.665   9.508   7.592 -0.0550  0.8725 -1.7137
  610MOL0     H82290  10.678   9.329   7.543  1.8517 -0.8340 -3.0618
  610MOL0     H82291  10.498   9.526   7.404  0.3337  0.4517  1.0728
  610MOL0     H82292  10.552   9.372   7.350  0.9035  3.9633 -3.0557
  610MOL0     H82293  10.448   9.277   7.577  0.6024 -0.4963  0.6648
  610MOL0     H82294  10.396   9.445   7.616 -2.1070 -1.8831  1.5008
  610MOL0     H82295  10.259   9.419   7.392 -3.1111 -0.5535  0.8315
  610MOL0     H82296  10.322   9.264   7.384  1.3279  1.9977 -2.4757
  610MOL0     H82297  10.127   9.387   7.577  0.5781  0.4797  2.1371
  610MOL0     H82298  10.228   9.259   7.652 -0.9556 -1.9378 -2.0246
  610MOL0     H82299  10.019   9.230   7.430  0.2006 -0.9610 -0.2585
  610MOL0     H82300  10.165   9.120   7.443  2.3631  0.0772  2.6755
  610MOL0     H82301  10.010   9.227   7.789  1.0217  0.4480  0.6717
  610MOL0     H82302   9.886   9.099   7.954 -1.0468 -1.0245 -1.0958
  610MOL0     H82303   9.868   8.919   7.923 -0.4154  0.4612 -3.2322
  610MOL0     H82304  10.084   8.872   8.018  1.1557  0.2850 -2.1891
  610MOL0     H82305  10.143   9.037   8.010 -0.1724  0.7897 -1.5019
  610MOL0     H82306  10.029   9.116   8.172 -1.5388 -0.3001  1.5704
  610MOL0     H82307  10.094   8.954   8.220 -0.0266 -1.3513 -0.6906
  610MOL0     H82308   9.813   9.024   8.173 -0.5388  1.5264  3.4917
  610MOL0     H82309   9.891   8.969   8.325 -0.5030  3.2013  0.0716
  610MOL0     H82310   9.643   8.939   8.312 -2.6609 -0.3977  1.3346
  610MOL0     H82311   9.429   8.835   8.322  2.7965  1.8799  2.6304
  610MOL0     H82312   9.103   8.440   8.188  1.7907  1.3245 -1.2769
  610MOL0     H82313   8.865   8.422   8.245  0.2653  3.2463 -2.8844
  610MOL0     H82314   8.792   8.464   8.668 -1.9909 -0.4547  0.7284
  610MOL0     H82315   8.660   8.586   8.646  0.5746  0.5611 -0.6955
  610MOL0     H82316   8.646   8.306   8.526  2.1758  2.6362 -1.7408
  610MOL0     H82317   8.603   8.336   8.696  0.7012 -1.7601 -1.0889
  610MOL0     H82318   8.421   8.502   8.635 -2.8418 -1.9307  0.7905
  610MOL0     H82319   8.465   8.477   8.463  1.9511  1.3155  0.3143
  610MOL0     H82320   8.329   8.278   8.661 -3.2582 -2.8888 -2.6351
  610MOL0     H82321   8.388   8.239   8.507  1.1688  0.1778  0.5801
  610MOL0     H82322   8.152   8.266   8.508  0.9310 -0.7256 -0.1077
  610MOL0     H82323   8.248   8.356   8.391 -0.2157 -1.5400 -0.5307
  610MOL0     H82324   8.114   8.454   8.654 -1.6773  1.9787 -0.5142
  610MOL0     H82325   8.207   8.555   8.542  1.5534 -0.9868 -0.7806
  610MOL0     H82326   7.954   8.387   8.472 -1.3441  0.5971 -3.1766
  610MOL0     H82327   8.035   8.504   8.370  1.9056  1.6872  1.0533
  610MOL0     H82328   7.827   8.591   8.497 -0.0679 -0.1874  0.0008
  610MOL0     H82329   7.940   8.595   8.646 -1.1921  1.0724  0.5224
  610MOL0     H82330   8.917   8.686   8.577 -2.7342  0.7578 -1.6274
  610MOL0     H82331   9.140   8.730   8.500  0.7372  0.0520 -2.6271
  610MOL0     H82332   9.595   8.477   8.141  0.7489  0.6414 -0.3540
  610MOL0     H82333   9.801   8.608   8.098  0.3004 -0.7868 -0.1085
  610MOL0     H82334  11.160   9.478   7.584 -1.3420  0.7431 -0.4103
  610MOL0     H82335  11.335   9.474   7.773 -0.1655 -2.4136 -2.5015
  610MOL0     H82336  11.492   9.358   8.051  0.5891  2.1411 -2.1815
  610MOL0     H82337  11.731   9.309   8.149  0.7517  0.2888  0.9521
  610MOL0     H82338  11.952   9.670   8.332  0.0872  0.5688  0.4546
  610MOL0     H82339  12.053   9.536   8.374 -0.3826  1.5102  1.8538
  610MOL0     H82340  11.792   9.581   8.496 -0.4498 -0.4878 -1.1213
  610MOL0     H82341  11.953   9.600   8.568  0.6281  2.3162 -3.7461
  610MOL0     H82342  11.967   9.339   8.527  0.5753 -0.2780  0.9777
  610MOL0     H82343  11.803   9.349   8.519 -0.0380 -0.4630 -1.2608
  610MOL0     H82344  11.902   9.312   8.758 -1.9124  0.3640  1.5722
  610MOL0     H82345  11.987   9.459   8.746 -0.0501 -1.8615  3.4104
  610MOL0     H82346  11.619   9.586   8.893  2.0446  3.2001 -0.5141
  610MOL0     H82347  11.762   9.704   8.294 -0.6131 -0.0229  0.8845
  610MOL0     H82348  11.602   9.876   8.206  1.3662 -0.9294 -1.3841
  610MOL0     H82349  11.443   9.828   8.152  0.0430  0.2936  0.1746
  610MOL0     H82350  11.498   9.797   8.323 -0.8124 -2.1238 -0.2489
  611MOL0     O82351   5.987   5.225   6.367  0.4201 -0.3095  0.6233
  611MOL0     C82352   5.957   5.116   6.326 -0.2798 -0.5000  0.7625
  611MOL0     O82353   6.039   5.010   6.314 -0.0091  0.4494 -0.3071
  611MOL0     C82354   6.172   4.999   6.353  1.1986 -0.1072  0.4762
  611MOL0     C82355   6.253   5.109   6.373 -1.6988 -0.9978  0.5568
  611MOL0     C82356   6.380   5.083   6.430  0.5742 -0.4815  0.2928
  611MOL0     C82357   6.440   4.950   6.444  1.3424  0.0132  0.2341
  611MOL0     O82358   6.558   4.921   6.502 -0.1805  0.5744  0.4612
  611MOL0     C82359   6.624   5.026   6.579 -0.4882  0.0626 -0.1107
  611MOL0     C82360   6.759   4.963   6.605  0.4467 -0.1941 -0.2665
  611MOL0     C82361   6.763   4.812   6.653  0.5947 -0.2707  0.8262
  611MOL0     C82362   6.912   4.761   6.671  0.2295  0.3180  0.3622
  611MOL0     C82363   6.898   4.608   6.691 -0.3398  0.3926 -0.2723
  611MOL0     C82364   7.042   4.548   6.719  0.4685 -0.4420  0.2031
  611MOL0     C82365   7.039   4.401   6.739 -0.3044 -0.3497  0.1504
  611MOL0     C82366   7.179   4.374   6.791 -0.8544  0.3539 -0.2317
  611MOL0     N82367   7.202   4.235   6.827 -0.1242  0.6726  0.6335
  611MOL0     C82368   7.195   4.132   6.735  0.2142  0.4781 -0.7546
  611MOL0     C82369   7.199   4.023   6.814 -0.7555  0.1334 -0.0722
  611MOL0     C82370   7.202   3.881   6.758 -0.4955 -0.2901 -0.3588
  611MOL0     C82371   7.326   3.793   6.786 -0.3041 -0.8572 -0.0946
  611MOL0     C82372   7.438   3.820   6.692  0.0120  1.2889  0.1315
  611MOL0     C82373   7.573   3.776   6.740 -0.8343  0.3254  0.3889
  611MOL0     O82374   7.676   3.806   6.643 -0.5040  0.3821 -0.2960
  611MOL0     C82375   7.809   3.791   6.683 -0.1927  0.7205 -0.2419
  611MOL0     C82376   7.906   3.825   6.590  0.5801  0.1537  0.5485
  611MOL0     C82377   8.039   3.845   6.621  0.4333 -0.3973  0.9320
  611MOL0     C82378   8.082   3.817   6.746 -0.0490 -0.3824  0.1656
  611MOL0     C82379   8.223   3.810   6.780  0.5094  0.0323  0.3113
  611MOL0     O82380   8.307   3.806   6.679 -0.3902  0.0053 -0.3113
  611MOL0     C82381   8.440   3.780   6.710 -0.3894  0.0807  0.1740
  611MOL0     C82382   8.477   3.672   6.781 -0.4845  0.8351 -0.2633
  611MOL0     C82383   8.610   3.665   6.824 -0.1149  0.1934 -1.5170
  611MOL0     C82384   8.703   3.773   6.812  1.2067 -0.5587 -0.5058
  611MOL0     O82385   8.823   3.764   6.882 -0.6964  0.0602 -0.5144
  611MOL0     C82386   8.911   3.874   6.894  0.6081 -0.1457  0.2908
  611MOL0     C82387   9.035   3.825   6.951 -0.2355 -0.7417  0.0908
  611MOL0     C82388   9.135   3.946   6.961 -0.4877  0.0695 -0.2374
  611MOL0     C82389   9.272   3.911   7.020 -0.2350 -0.5608 -0.0898
  611MOL0     C82390   9.362   3.866   6.895 -0.8142  0.0882 -0.2142
  611MOL0     C82391   9.500   3.819   6.948  0.6277  0.3034  0.4280
  611MOL0     C82392   9.589   3.921   7.020  0.5054 -0.4463  0.5151
  611MOL0     C82393   9.597   4.045   6.936  1.0440  0.1796  1.0741
  611MOL0    Cl82394   9.733   4.136   6.987 -0.4137  0.5771 -0.2864
  611MOL0     C82395   8.651   3.890   6.752 -1.1478  0.0299 -0.3640
  611MOL0     C82396   8.523   3.892   6.696  0.0211 -0.6180  0.7525
  611MOL0     O82397   8.253   3.797   6.899 -1.0138  0.2693  0.4032
  611MOL0     C82398   7.986   3.782   6.845  0.4290  0.2164  0.2100
  611MOL0     C82399   7.848   3.768   6.818 -0.6705 -0.0750  0.3644
  611MOL0     N82400   7.200   4.065   6.943  0.0375 -0.6059 -0.6685
  611MOL0     N82401   7.195   4.195   6.954 -0.2389  0.7234  0.1517
  611MOL0     C82402   6.348   4.842   6.409  1.5422  0.3801  0.0415
  611MOL0     C82403   6.221   4.866   6.357  0.2011  0.3778 -0.1569
  611MOL0     C82404   5.809   5.070   6.312 -0.0285  0.9188  0.7764
  611MOL0     C82405   5.775   4.932   6.304  0.0047  0.2777  0.0042
  611MOL0     C82406   5.642   4.891   6.297 -0.4045  0.3207 -0.7898
  611MOL0     C82407   5.540   4.979   6.265 -0.0490 -0.4098  0.4654
  611MOL0     O82408   5.405   4.949   6.241  0.2442 -0.1353 -0.2132
  611MOL0     C82409   5.383   4.806   6.223 -0.2157 -0.9092 -0.1902
  611MOL0     C82410   5.235   4.774   6.192 -0.0545 -0.1153  0.1948
  611MOL0     C82411   5.137   4.819   6.293 -0.1593 -0.2951  0.2593
  611MOL0     C82412   5.003   4.830   6.223 -0.0688 -0.3057  0.0486
  611MOL0     C82413   4.911   4.885   6.315 -0.3237 -0.4283  0.0333
  611MOL0     C82414   4.840   4.931   6.399  0.2785 -0.4054  0.2090
  611MOL0     C82415   5.571   5.118   6.263 -0.2534  0.4649 -0.9356
  611MOL0     C82416   5.706   5.166   6.298  0.3360 -1.0840 -0.7683
  611MOL0     C82417   5.724   5.311   6.294 -0.0668 -0.0738  0.1764
  611MOL0     H82418   6.226   5.214   6.367  0.1763 -0.1621  3.9898
  611MOL0     H82419   6.453   5.157   6.460  0.1481 -0.3071  0.9138
  611MOL0     H82420   6.634   5.121   6.526 -1.0593  0.5792  0.6822
  611MOL0     H82421   6.560   5.045   6.666 -0.3834 -2.7574  0.6787
  611MOL0     H82422   6.820   5.014   6.679 -0.6896 -2.5385  2.4730
  611MOL0     H82423   6.820   4.967   6.514  0.2948 -0.5761 -0.3887
  611MOL0     H82424   6.706   4.751   6.583  1.4826 -0.4164  0.2114
  611MOL0     H82425   6.719   4.805   6.753 -1.1895 -1.9129 -0.0191
  611MOL0     H82426   6.983   4.769   6.587 -1.5006  0.5845 -1.1408
  611MOL0     H82427   6.957   4.817   6.754  1.6358 -1.6362  0.9936
  611MOL0     H82428   6.846   4.587   6.785 -1.5547  0.1523 -0.9754
  611MOL0     H82429   6.843   4.560   6.609 -2.0921 -2.2134  2.2285
  611MOL0     H82430   7.120   4.579   6.648  0.3786  2.2420  1.1408
  611MOL0     H82431   7.076   4.595   6.811  0.2103 -0.9808  0.5744
  611MOL0     H82432   7.031   4.351   6.642  0.7965 -0.6812  0.2077
  611MOL0     H82433   6.968   4.359   6.811 -2.2904  0.5259 -1.2280
  611MOL0     H82434   7.249   4.406   6.714 -1.1659  0.4648 -0.4721
  611MOL0     H82435   7.188   4.437   6.880  0.1065  0.8877 -0.6930
  611MOL0     H82436   7.192   4.130   6.627 -1.3710  1.5231 -0.7562
  611MOL0     H82437   7.124   3.820   6.805  1.1240 -2.2689 -0.0916
  611MOL0     H82438   7.186   3.887   6.650  0.5288 -2.5072 -0.6699
  611MOL0     H82439   7.351   3.811   6.891 -2.6213 -2.7729  0.8690
  611MOL0     H82440   7.296   3.688   6.793  1.7497 -1.3724  3.4563
  611MOL0     H82441   7.453   3.926   6.670  1.6261  0.9761 -0.4064
  611MOL0     H82442   7.422   3.776   6.593 -1.2040  2.6759 -0.3158
  611MOL0     H82443   7.572   3.667   6.742  3.9661  0.0538 -0.3857
  611MOL0     H82444   7.593   3.815   6.840  2.3113 -4.0264  1.7593
  611MOL0     H82445   7.868   3.854   6.492 -1.0384  1.6353  1.5565
  611MOL0     H82446   8.109   3.883   6.547 -1.4086  3.5505  0.9773
  611MOL0     H82447   8.403   3.595   6.800  0.6085  0.0463  0.9560
  611MOL0     H82448   8.632   3.576   6.882  0.5357  1.7073  0.7248
  611MOL0     H82449   8.913   3.922   6.796  0.6315 -1.7389 -0.5204
  611MOL0     H82450   8.860   3.941   6.964 -2.1204 -2.5151  0.8053
  611MOL0     H82451   9.029   3.780   7.051  3.6635  2.6636  2.1653
  611MOL0     H82452   9.074   3.752   6.880 -3.4756 -2.5808  0.0127
  611MOL0     H82453   9.133   3.997   6.864 -0.6947 -0.6343 -0.6082
  611MOL0     H82454   9.081   4.011   7.030  0.2384  1.4593 -0.9365
  611MOL0     H82455   9.267   3.825   7.087  0.6291 -2.0380 -1.8366
  611MOL0     H82456   9.312   4.000   7.068  2.5668 -1.0646 -1.3210
  611MOL0     H82457   9.387   3.943   6.821  2.9310  1.0190  1.7644
  611MOL0     H82458   9.313   3.777   6.856 -0.7844 -0.4947  1.0383
  611MOL0     H82459   9.478   3.724   6.996 -2.5804 -0.0760 -1.5057
  611MOL0     H82460   9.559   3.794   6.860  0.6782 -1.0947  0.8317
  611MOL0     H82461   9.688   3.877   7.010  1.6497  1.3582  2.7909
  611MOL0     H82462   9.552   3.945   7.121 -1.1625  1.5822 -0.5007
  611MOL0     H82463   9.593   4.027   6.828  0.7983  0.6858  0.9969
  611MOL0     H82464   9.509   4.104   6.965  2.0336  1.7815  0.9703
  611MOL0     H82465   8.720   3.974   6.757 -0.4780 -0.3988 -1.8020
  611MOL0     H82466   8.495   3.987   6.652  0.3979 -0.9691 -0.2799
  611MOL0     H82467   8.024   3.760   6.944  1.4574 -1.2583 -0.4682
  611MOL0     H82468   7.780   3.755   6.901 -0.9052  3.2021  0.8114
  611MOL0     H82469   6.378   4.738   6.413  1.2930  0.2318 -1.4000
  611MOL0     H82470   6.158   4.782   6.329 -0.1666  1.1285 -1.7364
  611MOL0     H82471   5.846   4.849   6.308 -2.4913 -2.1865 -2.6673
  611MOL0     H82472   5.619   4.786   6.309  0.9863  0.0157 -0.5552
  611MOL0     H82473   5.412   4.750   6.313  0.3688 -0.8422 -0.3294
  611MOL0     H82474   5.440   4.766   6.138 -1.9169  0.0463 -1.8548
  611MOL0     H82475   5.230   4.667   6.170 -0.4168 -0.5282  2.0971
  611MOL0     H82476   5.213   4.819   6.095  0.5711 -2.7922 -1.2957
  611MOL0     H82477   5.174   4.917   6.326  2.7785 -1.8073  1.8877
  611MOL0     H82478   5.126   4.747   6.374 -1.0855  0.5282  0.8936
  611MOL0     H82479   5.019   4.905   6.145  0.3597  2.6662  2.7870
  611MOL0     H82480   4.970   4.730   6.190  2.1660 -1.8678  2.1670
  611MOL0     H82481   4.769   4.976   6.465 -3.0294 -2.8836 -1.3484
  611MOL0     H82482   5.485   5.182   6.256  0.5977  1.9157  0.9096
  611MOL0     H82483   5.634   5.357   6.252  0.8470  1.3071 -0.3277
  611MOL0     H82484   5.722   5.353   6.395  0.3492 -0.1179  0.2042
  611MOL0     H82485   5.813   5.341   6.238  0.9580 -2.6506  0.2773
  612MOL0     O82486   1.774   5.683   8.349 -0.0482  0.4612  0.0808
  612MOL0     C82487   1.829   5.791   8.320 -0.0784 -0.2607 -0.0332
  612MOL0     O82488   1.948   5.846   8.381  0.3743 -0.0816 -0.6139
  612MOL0     C82489   2.019   5.774   8.475 -0.6998  0.4626  0.3992
  612MOL0     C82490   2.083   5.847   8.576 -1.1096 -0.6331 -0.8479
  612MOL0     C82491   2.149   5.779   8.684 -0.3564 -0.2708  0.0447
  612MOL0     C82492   2.170   5.643   8.678 -0.1425 -0.0746  0.2163
  612MOL0     O82493   2.207   5.580   8.797  0.5000 -0.5946 -0.3220
  612MOL0     C82494   2.284   5.657   8.896  0.3406 -0.3030  1.4630
  612MOL0     C82495   2.381   5.580   8.976 -0.5885 -0.0163  0.3189
  612MOL0     C82496   2.318   5.506   9.099 -0.2585  0.3421 -0.4205
  612MOL0     C82497   2.417   5.514   9.216 -0.5562 -0.1809 -0.4966
  612MOL0     C82498   2.371   5.432   9.336 -0.2348 -0.0895  0.0806
  612MOL0     C82499   2.481   5.399   9.429  0.0418  0.3039 -0.1098
  612MOL0     C82500   2.518   5.516   9.514 -0.6228 -0.5446 -0.3401
  612MOL0     C82501   2.646   5.482   9.604  0.5422  0.5235  0.5099
  612MOL0     N82502   2.771   5.465   9.528 -0.6380  0.5027 -0.3691
  612MOL0     C82503   2.853   5.360   9.539  0.4021  0.1470  1.3000
  612MOL0     C82504   2.970   5.389   9.477 -0.6942  0.3912 -0.9958
  612MOL0     C82505   3.087   5.288   9.473  0.5755 -0.4586  0.1042
  612MOL0     C82506   3.037   5.181   9.370 -0.7928  0.7110 -0.5994
  612MOL0     C82507   3.146   5.088   9.318  1.2598  0.0179  0.6803
  612MOL0     C82508   3.237   5.143   9.207 -1.1886  0.2129  0.0710
  612MOL0     O82509   3.155   5.201   9.104  0.3232  0.5374  0.2043
  612MOL0     C82510   3.216   5.241   8.988 -0.1298 -0.2263  0.6499
  612MOL0     C82511   3.133   5.273   8.883 -0.1388  0.1781 -0.3025
  612MOL0     C82512   3.184   5.315   8.761 -0.1288 -0.7521  0.3884
  612MOL0     C82513   3.321   5.340   8.743  0.1836  0.0387  0.4209
  612MOL0     C82514   3.377   5.406   8.619 -0.8720  0.4086  0.1533
  612MOL0     O82515   3.516   5.409   8.608 -0.1833  0.4228 -0.4109
  612MOL0     C82516   3.571   5.493   8.522 -0.3939  1.0104  0.3326
  612MOL0     C82517   3.690   5.460   8.456  1.3173 -0.1483  0.0924
  612MOL0     C82518   3.765   5.554   8.390 -0.7404 -0.1997 -0.2078
  612MOL0     C82519   3.744   5.696   8.393 -0.1474  0.6952 -0.1129
  612MOL0     O82520   3.826   5.787   8.337 -0.4475 -0.0410  0.6226
  612MOL0     C82521   3.964   5.776   8.358 -0.7279  0.4277  0.1843
  612MOL0     C82522   4.040   5.899   8.311  0.3475 -0.0806 -0.7592
  612MOL0     C82523   4.039   6.005   8.426  0.1038 -0.3726 -0.7979
  612MOL0     C82524   4.118   6.131   8.393  0.3871 -0.2768 -0.7166
  612MOL0     C82525   4.122   6.225   8.517  1.0069 -0.5531  0.3649
  612MOL0     C82526   4.214   6.339   8.484 -0.5860 -0.3023 -0.1249
  612MOL0     C82527   4.226   6.440   8.594  0.3515 -0.1740 -0.7283
  612MOL0     C82528   4.306   6.562   8.574 -0.4857 -1.0679  0.7169
  612MOL0    Cl82529   4.484   6.519   8.563  0.5318  0.3518 -0.3453
  612MOL0     C82530   3.621   5.722   8.446 -1.0258  0.5598 -0.3307
  612MOL0     C82531   3.531   5.628   8.506 -0.6948 -0.9037  0.5819
  612MOL0     O82532   3.303   5.467   8.548  1.1027 -0.5276  0.1476
  612MOL0     C82533   3.404   5.297   8.844 -0.1921 -0.4010 -0.0278
  612MOL0     C82534   3.357   5.255   8.970  0.0883 -0.1038 -1.0120
  612MOL0     N82535   2.945   5.509   9.419 -0.2028 -0.4368 -0.1312
  612MOL0     N82536   2.844   5.561   9.459  0.0358  0.5969 -0.0866
  612MOL0     C82537   2.110   5.570   8.572  0.2691  1.1935 -0.0377
  612MOL0     C82538   2.036   5.632   8.471 -0.7590 -0.2135 -0.9253
  612MOL0     C82539   1.754   5.864   8.209 -0.6265 -0.1713 -1.1359
  612MOL0     C82540   1.614   5.851   8.195  1.2088 -0.6215  0.1881
  612MOL0     C82541   1.539   5.922   8.094 -0.6230 -0.4368 -0.6840
  612MOL0     C82542   1.614   5.995   7.997 -0.5170  0.6744 -0.9343
  612MOL0     O82543   1.554   6.046   7.886 -0.1929 -0.7235  0.5010
  612MOL0     C82544   1.430   5.998   7.838  0.1287  0.5817 -0.3336
  612MOL0     C82545   1.313   6.079   7.911 -0.0435  0.5413  0.5001
  612MOL0     C82546   1.182   6.056   7.846  0.6184 -0.7649  0.5447
  612MOL0     C82547   1.072   6.097   7.945 -0.7767  0.4711  0.4206
  612MOL0     C82548   1.059   5.985   8.037 -0.0018  0.1512 -0.4209
  612MOL0     C82549   1.037   5.900   8.123 -0.3479 -0.5814  0.0989
  612MOL0     C82550   1.746   6.008   8.009 -0.6475 -0.0058  0.4300
  612MOL0     C82551   1.817   5.949   8.116 -0.0626 -0.3485 -0.5922
  612MOL0     C82552   1.963   5.991   8.136 -0.0251  0.5252  0.3417
  612MOL0     H82553   2.065   5.955   8.578 -5.0119 -1.1383 -0.6731
  612MOL0     H82554   2.190   5.844   8.759 -0.3423 -1.7006  1.3230
  612MOL0     H82555   2.345   5.719   8.828 -0.4454  2.0344  2.7627
  612MOL0     H82556   2.219   5.722   8.955 -0.0282  1.8195 -1.0742
  612MOL0     H82557   2.464   5.642   9.012  0.4347 -2.2185  1.9959
  612MOL0     H82558   2.427   5.505   8.910 -0.8608  0.0504  0.0525
  612MOL0     H82559   2.296   5.400   9.083  1.4367  0.2449 -2.4106
  612MOL0     H82560   2.234   5.570   9.128  1.7162  2.6547  0.5149
  612MOL0     H82561   2.517   5.483   9.183 -0.6759 -0.1825 -0.8626
  612MOL0     H82562   2.418   5.622   9.238  0.2853 -0.4938  1.1109
  612MOL0     H82563   2.285   5.477   9.386  0.6283 -1.1918  2.7318
  612MOL0     H82564   2.334   5.337   9.296  2.9988 -1.1485 -0.7220
  612MOL0     H82565   2.450   5.311   9.486 -0.0007 -0.2236 -0.9253
  612MOL0     H82566   2.574   5.370   9.379  1.5738  2.1691  1.5196
  612MOL0     H82567   2.437   5.555   9.576 -0.8340  0.8226 -1.4183
  612MOL0     H82568   2.559   5.602   9.460  2.7752 -0.1038  2.5802
  612MOL0     H82569   2.649   5.562   9.678 -2.7017 -0.3451  1.7547
  612MOL0     H82570   2.630   5.382   9.648 -0.6128  0.1931 -0.5972
  612MOL0     H82571   2.830   5.258   9.570  2.2898  0.3332  3.6071
  612MOL0     H82572   3.175   5.336   9.430  1.6897 -1.9119  0.6817
  612MOL0     H82573   3.099   5.245   9.572  0.4832  2.4727  1.5044
  612MOL0     H82574   2.963   5.118   9.419 -1.6969  1.4363 -1.0009
  612MOL0     H82575   2.993   5.232   9.284 -0.5194 -0.1872 -1.2967
  612MOL0     H82576   3.093   4.998   9.284  3.6785 -0.8948 -0.9109
  612MOL0     H82577   3.208   5.050   9.400  0.9879 -2.0329 -0.0118
  612MOL0     H82578   3.306   5.061   9.186  1.3565  2.2840 -0.2128
  612MOL0     H82579   3.299   5.221   9.251  0.5695 -0.4114 -1.1566
  612MOL0     H82580   3.027   5.256   8.898 -0.1688  1.2639  0.9310
  612MOL0     H82581   3.126   5.317   8.669 -0.7802 -0.9273  0.7905
  612MOL0     H82582   3.709   5.354   8.443  1.5772 -0.0296 -0.5234
  612MOL0     H82583   3.850   5.505   8.345 -0.5843  0.4742 -0.6580
  612MOL0     H82584   3.993   5.754   8.461  1.1420  1.6906 -0.0361
  612MOL0     H82585   3.990   5.704   8.280 -2.0155 -0.2059  0.3099
  612MOL0     H82586   4.144   5.879   8.284  0.4637 -1.7490  0.7345
  612MOL0     H82587   3.994   5.942   8.222  0.9414 -0.7003 -1.3798
  612MOL0     H82588   3.943   6.041   8.463  1.2934  3.7796 -1.3065
  612MOL0     H82589   4.087   5.943   8.502  1.2561  0.0997 -1.1275
  612MOL0     H82590   4.071   6.190   8.314  1.1478 -0.7786 -1.5534
  612MOL0     H82591   4.222   6.110   8.367 -0.5377 -3.1146 -2.6105
  612MOL0     H82592   4.162   6.182   8.608  1.2511 -1.2040 -0.0447
  612MOL0     H82593   4.017   6.253   8.531  0.4024 -2.0000 -0.9674
  612MOL0     H82594   4.313   6.297   8.463 -0.8379 -1.0943  0.2393
  612MOL0     H82595   4.169   6.384   8.395  0.3481 -1.5905 -1.2824
  612MOL0     H82596   4.271   6.400   8.686  1.1330 -1.6697 -1.7166
  612MOL0     H82597   4.126   6.477   8.618 -0.0508 -2.3059  1.2384
  612MOL0     H82598   4.263   6.604   8.483 -0.7654 -1.7838  0.5173
  612MOL0     H82599   4.286   6.633   8.655 -2.3420  0.3451 -0.8792
  612MOL0     H82600   3.597   5.826   8.427 -0.2126  0.6444 -0.9504
  612MOL0     H82601   3.437   5.660   8.549 -0.7584  0.5874 -0.5558
  612MOL0     H82602   3.511   5.312   8.831 -0.0915 -2.3261 -2.2036
  612MOL0     H82603   3.435   5.228   9.039 -0.6257 -3.4352 -1.3465
  612MOL0     H82604   2.119   5.462   8.569  1.3849  1.3016 -1.5663
  612MOL0     H82605   1.979   5.582   8.393  0.2143  0.7908 -2.3281
  612MOL0     H82606   1.555   5.789   8.262  1.0033 -1.9205 -1.1273
  612MOL0     H82607   1.431   5.913   8.086 -0.9308  0.0033  1.9296
  612MOL0     H82608   1.402   5.894   7.853 -3.9887  0.9312 -3.6765
  612MOL0     H82609   1.432   6.009   7.729 -1.1475  1.6780 -0.2873
  612MOL0     H82610   1.322   6.187   7.897  0.3099  0.6536  1.4906
  612MOL0     H82611   1.308   6.071   8.020 -1.4756  0.4803  0.4509
  612MOL0     H82612   1.184   5.949   7.824  4.3601 -0.5702 -0.6272
  612MOL0     H82613   1.169   6.111   7.752 -0.7182  1.0461  1.7104
  612MOL0     H82614   1.096   6.189   7.999  0.6298  3.1235 -4.1742
  612MOL0     H82615   0.976   6.101   7.894 -0.5812 -0.4119 -0.0363
  612MOL0     H82616   1.017   5.813   8.184 -0.8904 -2.1372 -2.1651
  612MOL0     H82617   1.800   6.075   7.943 -2.3136 -0.6184 -1.6406
  612MOL0     H82618   1.980   6.026   8.238  0.6598 -1.9071  1.1424
  612MOL0     H82619   2.022   5.902   8.111 -3.7553 -2.8628  2.3090
  612MOL0     H82620   1.981   6.073   8.067 -2.0064  0.8129  0.1098
  613MOL0     O82621   5.017   7.930   7.588 -0.0701  0.8163  0.0036
  613MOL0     C82622   5.005   8.027   7.521 -0.2237 -0.2959 -0.0557
  613MOL0     O82623   5.015   8.026   7.385  0.1607  0.8249  0.0199
  613MOL0     C82624   5.046   7.902   7.334 -0.2703 -0.2836  0.2872
  613MOL0     C82625   5.177   7.877   7.285 -0.1859 -0.7881  0.5829
  613MOL0     C82626   5.198   7.763   7.202  0.5223 -1.2112 -0.0864
  613MOL0     C82627   5.096   7.662   7.201 -0.7621 -1.3114  0.1306
  613MOL0     O82628   5.128   7.543   7.142  0.8663 -0.0238  0.5084
  613MOL0     C82629   5.100   7.425   7.221 -0.6723 -0.5421  0.0449
  613MOL0     C82630   5.130   7.303   7.142  0.1034 -0.2257  0.9811
  613MOL0     C82631   5.121   7.171   7.220  0.7853  0.2688 -0.3083
  613MOL0     C82632   5.064   7.050   7.148 -0.3053 -0.2229 -0.1987
  613MOL0     C82633   5.080   6.925   7.226  0.9047 -0.4367  0.7785
  613MOL0     C82634   4.997   6.914   7.356 -0.7755 -0.4165 -0.8049
  613MOL0     C82635   4.853   6.956   7.358  0.6607  1.2316 -0.1139
  613MOL0     C82636   4.800   6.963   7.497  0.4698 -0.2048  0.1159
  613MOL0     N82637   4.672   7.037   7.517 -0.0964  0.4733  0.4741
  613MOL0     C82638   4.550   6.995   7.460 -0.0305 -0.0608 -0.4684
  613MOL0     C82639   4.465   7.093   7.496  1.0867 -0.3835 -1.0298
  613MOL0     C82640   4.321   7.101   7.458 -0.4609  0.5016 -0.3043
  613MOL0     C82641   4.236   7.225   7.481 -0.0869  0.6894  0.3141
  613MOL0     C82642   4.240   7.351   7.397  0.6488  0.1185 -0.4110
  613MOL0     C82643   4.343   7.453   7.447  0.5469  0.1473  0.5362
  613MOL0     O82644   4.335   7.582   7.375  0.6270  0.1704  0.9613
  613MOL0     C82645   4.389   7.579   7.242 -0.1858 -0.1320 -0.7112
  613MOL0     C82646   4.317   7.584   7.126 -0.1777  0.7404 -0.0165
  613MOL0     C82647   4.382   7.590   7.003 -0.2474 -0.2753 -1.2378
  613MOL0     C82648   4.519   7.597   7.007  0.2627  0.5528  0.7436
  613MOL0     C82649   4.585   7.571   6.875 -0.1517 -0.5378  0.0297
  613MOL0     O82650   4.529   7.479   6.805  0.4197  0.6042 -0.2219
  613MOL0     C82651   4.592   7.416   6.699  0.4388 -0.3253 -0.6834
  613MOL0     C82652   4.501   7.382   6.591  0.5523 -0.3108  0.0966
  613MOL0     C82653   4.548   7.314   6.478  0.5418  0.2067  0.0308
  613MOL0     C82654   4.685   7.282   6.470 -0.4670 -0.8251 -0.3355
  613MOL0     O82655   4.726   7.209   6.361  0.1017 -0.0460  0.3395
  613MOL0     C82656   4.837   7.113   6.366  0.2178 -0.2375 -0.3549
  613MOL0     C82657   4.789   6.984   6.431  0.0525 -0.3753 -0.2683
  613MOL0     C82658   4.913   6.896   6.451  0.0682  1.4670  1.4505
  613MOL0     C82659   4.879   6.753   6.505 -0.0187  0.4160  0.5824
  613MOL0     C82660   5.005   6.661   6.485  0.1829 -0.1709 -0.5670
  613MOL0     C82661   4.996   6.513   6.451  0.7037  0.2857 -0.0640
  613MOL0     C82662   4.923   6.438   6.562  0.0367  0.9167  0.6318
  613MOL0     C82663   4.915   6.283   6.541  0.0164 -0.5924  0.3791
  613MOL0    Cl82664   5.077   6.212   6.514 -0.0323 -0.1281 -0.1545
  613MOL0     C82665   4.780   7.324   6.572 -0.5071  0.1084  0.6176
  613MOL0     C82666   4.733   7.398   6.680  0.6030 -0.0482  0.3713
  613MOL0     O82667   4.691   7.621   6.854  0.0238  0.4490  0.0101
  613MOL0     C82668   4.588   7.621   7.121 -0.1985  0.1748  0.5154
  613MOL0     C82669   4.528   7.605   7.242 -0.7240  0.4119  0.4479
  613MOL0     N82670   4.532   7.194   7.568 -1.0054  0.7326 -0.3640
  613MOL0     N82671   4.662   7.163   7.568 -0.6529 -0.5876  0.2894
  613MOL0     C82672   4.972   7.691   7.251  1.1013 -0.0510 -1.3617
  613MOL0     C82673   4.939   7.805   7.317 -0.9183 -0.4403 -0.3740
  613MOL0     C82674   4.967   8.151   7.594  0.3738  0.0811  0.1485
  613MOL0     C82675   4.983   8.161   7.733  0.7477  0.0297 -0.2596
  613MOL0     C82676   4.952   8.277   7.804 -0.3479 -0.6121 -0.3605
  613MOL0     C82677   4.911   8.389   7.752 -0.4743 -0.2072  0.0165
  613MOL0     O82678   4.875   8.501   7.832  0.3638 -0.0423  0.2976
  613MOL0     C82679   4.942   8.519   7.956 -0.7554  0.0776 -0.6502
  613MOL0     C82680   4.881   8.643   8.030  0.9819 -0.0060 -0.0515
  613MOL0     C82681   4.920   8.656   8.179 -0.7179  0.2291 -0.9071
  613MOL0     C82682   5.065   8.717   8.196  0.8138  0.4733  0.9295
  613MOL0     C82683   5.090   8.727   8.346 -0.0353  0.3910 -0.5940
  613MOL0     C82684   5.126   8.725   8.462 -0.6740 -0.2306 -0.4045
  613MOL0     C82685   4.901   8.396   7.615  0.9368  1.2004 -0.1484
  613MOL0     C82686   4.925   8.275   7.537  0.1991 -0.6437  0.1350
  613MOL0     C82687   4.910   8.295   7.384 -0.3555  0.2622  0.0636
  613MOL0     H82688   5.226   7.973   7.297 -1.3024  0.1979 -1.9044
  613MOL0     H82689   5.288   7.757   7.141  1.9027  0.0297  1.7338
  613MOL0     H82690   5.159   7.430   7.313  0.7944 -1.5452 -0.7923
  613MOL0     H82691   4.994   7.429   7.247 -0.9680  1.4806 -1.2421
  613MOL0     H82692   5.222   7.308   7.082 -1.6154  1.0267 -1.7962
  613MOL0     H82693   5.060   7.301   7.057 -1.3205  0.1406  2.1190
  613MOL0     H82694   5.045   7.190   7.296 -0.8423 -1.9015 -1.2948
  613MOL0     H82695   5.220   7.147   7.260  1.4791 -1.0340 -2.5989
  613MOL0     H82696   4.959   7.068   7.125  0.1275  0.8160 -1.5516
  613MOL0     H82697   5.102   7.033   7.046 -1.3918 -1.7187 -0.3798
  613MOL0     H82698   5.055   6.838   7.164  0.6516  1.5670 -2.0629
  613MOL0     H82699   5.189   6.922   7.235  1.0393  0.1486 -0.5380
  613MOL0     H82700   5.009   6.809   7.385 -2.2330  0.5812  4.4305
  613MOL0     H82701   5.048   6.981   7.425 -0.6604  1.1447 -2.3486
  613MOL0     H82702   4.789   6.890   7.299 -1.4111  3.2980 -0.3078
  613MOL0     H82703   4.839   7.059   7.322 -1.2108  1.0327 -0.0401
  613MOL0     H82704   4.787   6.858   7.527  2.3832 -0.5386 -0.1077
  613MOL0     H82705   4.880   7.001   7.561 -0.5648 -0.8006  1.8451
  613MOL0     H82706   4.537   6.900   7.409  0.5373 -0.5542  0.2776
  613MOL0     H82707   4.312   7.090   7.349  2.3172  0.4913 -0.6238
  613MOL0     H82708   4.278   7.016   7.511  0.9257  1.6560  2.8872
  613MOL0     H82709   4.134   7.185   7.474  0.3792 -0.6795  0.9978
  613MOL0     H82710   4.255   7.252   7.585  0.6844 -3.3357  1.3764
  613MOL0     H82711   4.146   7.406   7.390  2.9359  4.1716 -2.5629
  613MOL0     H82712   4.242   7.327   7.290  0.5293  1.2994 -0.6873
  613MOL0     H82713   4.438   7.402   7.426 -1.2859 -2.0183 -3.6796
  613MOL0     H82714   4.333   7.490   7.550 -0.6339  2.9528 -0.4960
  613MOL0     H82715   4.209   7.573   7.122 -0.2212  1.3645 -0.9502
  613MOL0     H82716   4.323   7.590   6.912 -1.3064 -0.9814 -0.5756
  613MOL0     H82717   4.395   7.401   6.601  0.4690 -0.9472  0.5428
  613MOL0     H82718   4.482   7.267   6.406  0.5109 -0.8673  0.7350
  613MOL0     H82719   4.873   7.095   6.264  1.1318  1.8636 -0.4644
  613MOL0     H82720   4.930   7.150   6.411 -0.6427  1.3480  0.2023
  613MOL0     H82721   4.740   7.012   6.524 -0.0892  1.2213 -0.7949
  613MOL0     H82722   4.710   6.939   6.370 -1.3678  2.1234 -0.4059
  613MOL0     H82723   4.958   6.882   6.352 -1.2057 -3.5943  1.2912
  613MOL0     H82724   4.981   6.947   6.519  1.3326 -0.8601  2.0274
  613MOL0     H82725   4.808   6.712   6.433  1.9044 -0.1001 -1.1282
  613MOL0     H82726   4.826   6.756   6.600 -1.6733 -5.8235  0.2895
  613MOL0     H82727   5.057   6.678   6.580  0.0172  2.1795 -0.8559
  613MOL0     H82728   5.074   6.707   6.414  2.9125  0.6277  2.3496
  613MOL0     H82729   4.940   6.500   6.358  3.3515  2.1587 -2.0732
  613MOL0     H82730   5.096   6.475   6.428 -0.3527 -0.8340 -3.4129
  613MOL0     H82731   4.822   6.478   6.573 -0.0726  1.2151 -1.1179
  613MOL0     H82732   4.974   6.455   6.657  1.9121  0.8662 -0.3076
  613MOL0     H82733   4.864   6.242   6.628  2.4695 -0.6391  1.8992
  613MOL0     H82734   4.851   6.266   6.453  0.4042 -0.9446  0.1595
  613MOL0     H82735   4.886   7.313   6.552 -1.0747 -2.2180 -1.6361
  613MOL0     H82736   4.812   7.434   6.745 -1.0640  3.5865  0.6557
  613MOL0     H82737   4.693   7.642   7.107 -0.7528  1.6419 -2.0847
  613MOL0     H82738   4.593   7.622   7.328  1.3206 -1.3020 -0.6859
  613MOL0     H82739   4.890   7.627   7.219  1.4613 -0.4177 -1.5619
  613MOL0     H82740   4.841   7.829   7.357 -0.4915  0.6117  0.0762
  613MOL0     H82741   5.014   8.080   7.798  2.5451  1.2980  0.5698
  613MOL0     H82742   4.960   8.265   7.912 -4.7927 -0.9487  0.1343
  613MOL0     H82743   5.046   8.544   7.933 -0.3869 -1.7250 -1.0533
  613MOL0     H82744   4.951   8.443   8.033 -0.4742  1.0628  0.3155
  613MOL0     H82745   4.772   8.634   8.025  0.7742  1.0772  1.7096
  613MOL0     H82746   4.921   8.735   7.987  2.3043 -0.8612 -0.7168
  613MOL0     H82747   4.917   8.566   8.241  1.6698 -0.2965 -1.4539
  613MOL0     H82748   4.854   8.721   8.237  1.7738 -0.0200  2.5117
  613MOL0     H82749   5.142   8.652   8.152 -0.9470 -2.9555  2.5401
  613MOL0     H82750   5.062   8.813   8.144  5.1033 -0.0413 -0.7140
  613MOL0     H82751   5.162   8.709   8.562  0.0422  0.9269 -0.4621
  613MOL0     H82752   4.854   8.479   7.563 -2.1662 -1.0914 -1.3805
  613MOL0     H82753   4.868   8.391   7.354 -1.5367 -0.4777 -0.7783
  613MOL0     H82754   5.004   8.279   7.331  0.5712  0.2793  1.6307
  613MOL0     H82755   4.843   8.218   7.343 -0.0154  0.8679 -1.7066
  614MOL0     O82756   7.750   1.608   7.497 -0.5062 -0.1619  0.6241
  614MOL0     C82757   7.716   1.668   7.388 -0.0142 -0.2119  0.2239
  614MOL0     O82758   7.812   1.740   7.307  0.7140 -1.2420  0.0760
  614MOL0     C82759   7.936   1.746   7.353 -0.5179 -0.4677 -1.0722
  614MOL0     C82760   8.019   1.640   7.341  0.9104 -0.3580  0.5438
  614MOL0     C82761   8.151   1.645   7.374 -0.1238  0.0995 -0.1846
  614MOL0     C82762   8.202   1.772   7.424  0.4594  0.8264  0.0371
  614MOL0     O82763   8.333   1.798   7.450 -0.3112  0.6430  0.3475
  614MOL0     C82764   8.420   1.690   7.454  0.2990  0.4215 -0.1585
  614MOL0     C82765   8.565   1.743   7.453  1.0301  0.6070 -1.6140
  614MOL0     C82766   8.587   1.827   7.581 -0.5938  0.2480  0.6658
  614MOL0     C82767   8.742   1.843   7.601  0.6599  1.0203  0.1115
  614MOL0     C82768   8.775   1.939   7.711  0.4457  0.6542  0.4358
  614MOL0     C82769   8.792   1.856   7.836  0.2721 -0.5636 -0.2238
  614MOL0     C82770   8.869   1.935   7.949  0.3076 -0.4542 -0.4883
  614MOL0     C82771   8.767   2.048   7.996  0.5461  0.1963  0.4722
  614MOL0     N82772   8.843   2.143   8.085 -0.1244 -1.1239 -0.3379
  614MOL0     C82773   8.900   2.120   8.204 -0.3686 -0.6940  0.7330
  614MOL0     C82774   8.956   2.235   8.248  0.5634 -0.7516 -0.0674
  614MOL0     C82775   9.045   2.255   8.373 -0.5036  0.0127 -0.6837
  614MOL0     C82776   9.190   2.258   8.337 -0.1613 -0.8825  0.0439
  614MOL0     C82777   9.266   2.315   8.456 -0.4842  0.3587  0.5426
  614MOL0     C82778   9.379   2.406   8.416  0.0876 -0.3506  0.7480
  614MOL0     O82779   9.499   2.340   8.419 -0.0646  0.0777 -0.3346
  614MOL0     C82780   9.613   2.391   8.359 -0.1250  0.2211  0.2928
  614MOL0     C82781   9.625   2.523   8.307  0.7823  0.9073 -0.0188
  614MOL0     C82782   9.760   2.555   8.253  0.5009  1.4833 -0.4567
  614MOL0     C82783   9.857   2.449   8.244 -0.1425  0.8771 -0.8738
  614MOL0     C82784   9.988   2.487   8.203 -0.5560 -0.5125 -0.0623
  614MOL0     O82785  10.004   2.628   8.180 -0.3471 -0.8823  0.6195
  614MOL0     C82786  10.117   2.688   8.129  0.2758 -0.1949 -0.1128
  614MOL0     C82787  10.242   2.637   8.119  0.1111  0.4116 -0.2643
  614MOL0     C82788  10.343   2.716   8.074 -0.1821 -0.6500 -0.5457
  614MOL0     C82789  10.319   2.846   8.021  0.0910  0.3970 -0.3400
  614MOL0     O82790  10.416   2.924   7.974 -0.2046 -0.3011 -0.2329
  614MOL0     C82791  10.549   2.882   7.923  0.5284  0.2060 -0.0943
  614MOL0     C82792  10.650   2.999   7.926  0.0636 -0.5164  0.7069
  614MOL0     C82793  10.762   2.967   7.812  0.0491 -0.8091 -0.8455
  614MOL0     C82794  10.721   3.020   7.670  0.7136  0.1537 -0.0068
  614MOL0     C82795  10.827   3.015   7.559 -0.3129  0.1840 -0.1153
  614MOL0     C82796  10.781   3.082   7.430 -0.0646  0.2399  0.2851
  614MOL0     C82797  10.883   3.056   7.325 -0.3484 -0.1106  1.3463
  614MOL0     C82798  10.888   3.159   7.202  0.0029  0.2619  0.6845
  614MOL0    Cl82799  10.741   3.142   7.104  0.1486 -0.2850  0.4681
  614MOL0     C82800  10.188   2.893   8.035 -0.0501  0.7142 -0.0306
  614MOL0     C82801  10.089   2.814   8.089  0.0230 -0.3310 -0.7234
  614MOL0     O82802  10.065   2.397   8.182 -0.3242 -0.1516  1.0950
  614MOL0     C82803   9.834   2.324   8.304 -0.0668 -0.1189  0.1821
  614MOL0     C82804   9.716   2.292   8.363 -0.3870 -0.1435  0.2349
  614MOL0     N82805   8.943   2.322   8.140 -0.4001 -0.9746  0.0166
  614MOL0     N82806   8.866   2.274   8.054  0.2861  0.9395 -0.6151
  614MOL0     C82807   8.118   1.883   7.432  0.6506 -0.1814  0.3851
  614MOL0     C82808   7.987   1.868   7.395  0.0366  0.3427  0.1063
  614MOL0     C82809   7.573   1.668   7.341 -0.5908  0.1333 -0.3184
  614MOL0     C82810   7.550   1.713   7.207  0.1263 -1.0206  0.4247
  614MOL0     C82811   7.420   1.717   7.164  0.3422 -0.3028 -0.1582
  614MOL0     C82812   7.312   1.673   7.240 -0.1939 -0.7653 -0.1601
  614MOL0     O82813   7.177   1.684   7.197 -0.3282  0.0560 -0.3674
  614MOL0     C82814   7.128   1.819   7.219  0.6046 -0.1382  0.5798
  614MOL0     C82815   6.966   1.822   7.208  0.0021  0.6506 -1.2571
  614MOL0     C82816   6.907   1.730   7.325 -0.6762  1.5094 -0.8385
  614MOL0     C82817   6.922   1.770   7.475  0.1982 -0.8708 -0.1260
  614MOL0     C82818   6.870   1.900   7.512  0.4806  0.0315  0.0097
  614MOL0     C82819   6.833   2.014   7.539  0.5116  0.5619  0.3651
  614MOL0     C82820   7.337   1.628   7.367  0.1585  0.3226  0.5052
  614MOL0     C82821   7.468   1.615   7.416 -0.3242 -0.3752  0.0931
  614MOL0     C82822   7.485   1.570   7.558  0.2155 -0.6474 -0.2160
  614MOL0     H82823   7.981   1.549   7.295 -0.0700  1.9132 -3.7220
  614MOL0     H82824   8.216   1.560   7.353 -1.1390 -0.5968 -0.6397
  614MOL0     H82825   8.400   1.618   7.534  0.5665  0.2403 -0.2539
  614MOL0     H82826   8.414   1.638   7.358  1.0280 -0.1276  0.0830
  614MOL0     H82827   8.589   1.797   7.361  1.7464  2.7195 -0.2666
  614MOL0     H82828   8.628   1.656   7.473 -1.2842 -0.6695  0.8464
  614MOL0     H82829   8.543   1.782   7.671 -2.3140 -2.2277 -1.2918
  614MOL0     H82830   8.543   1.924   7.558 -0.6451  0.5817  2.0682
  614MOL0     H82831   8.792   1.747   7.615  0.4145  0.6596 -1.2844
  614MOL0     H82832   8.782   1.877   7.505 -0.0553 -0.0005 -0.5715
  614MOL0     H82833   8.868   1.989   7.682  0.8852  1.0168  2.3947
  614MOL0     H82834   8.704   2.022   7.714  1.0821  1.2328 -0.1841
  614MOL0     H82835   8.697   1.817   7.873 -0.2862  0.1481 -0.8972
  614MOL0     H82836   8.853   1.769   7.806 -0.9253 -1.1008 -1.1756
  614MOL0     H82837   8.963   1.977   7.911  1.3899 -1.7251  0.6630
  614MOL0     H82838   8.891   1.876   8.038  1.4114  0.0540 -0.4030
  614MOL0     H82839   8.716   2.094   7.910 -2.6430 -0.8729  1.6427
  614MOL0     H82840   8.679   2.013   8.052 -0.4528 -0.7597 -1.5982
  614MOL0     H82841   8.896   2.026   8.259 -1.3935 -1.9321 -1.3230
  614MOL0     H82842   9.016   2.347   8.424  0.2914  0.5619 -1.1899
  614MOL0     H82843   9.031   2.174   8.446  0.0174 -2.7153 -3.3806
  614MOL0     H82844   9.233   2.164   8.301 -0.9819 -1.0662 -0.4796
  614MOL0     H82845   9.195   2.325   8.251 -0.1321 -1.4119 -0.3725
  614MOL0     H82846   9.312   2.237   8.518 -1.7560 -1.4842 -0.7028
  614MOL0     H82847   9.197   2.363   8.526 -1.2153 -1.2053  0.9530
  614MOL0     H82848   9.391   2.490   8.485 -1.4658 -1.2220  2.1451
  614MOL0     H82849   9.359   2.438   8.313 -2.0329 -1.3970  0.7869
  614MOL0     H82850   9.541   2.591   8.312  1.6166  1.8572  1.7046
  614MOL0     H82851   9.770   2.659   8.224 -0.5413  1.5397 -0.6555
  614MOL0     H82852  10.274   2.540   8.156  0.6483  0.9071  0.6026
  614MOL0     H82853  10.444   2.679   8.059  0.3728  0.8012 -0.5420
  614MOL0     H82854  10.596   2.795   7.970  1.5539  0.6487 -0.2599
  614MOL0     H82855  10.516   2.848   7.825 -4.9889  1.0534  1.1289
  614MOL0     H82856  10.598   3.094   7.906 -1.7763 -1.9372 -1.8518
  614MOL0     H82857  10.702   3.008   8.022  1.6560  3.4106 -0.3138
  614MOL0     H82858  10.838   3.033   7.856 -0.3695 -1.9851  1.8357
  614MOL0     H82859  10.796   2.863   7.819 -0.0430 -0.8384 -0.8400
  614MOL0     H82860  10.705   3.127   7.687  0.9441  0.0687  0.7805
  614MOL0     H82861  10.629   2.979   7.628  0.5971 -1.4488  1.7371
  614MOL0     H82862  10.862   2.918   7.521 -0.9633 -0.1243  0.0574
  614MOL0     H82863  10.915   3.067   7.597  0.8048 -2.7074  1.5392
  614MOL0     H82864  10.682   3.042   7.405 -0.6750  0.0128  2.7804
  614MOL0     H82865  10.759   3.188   7.443  1.0724  0.1810  3.3425
  614MOL0     H82866  10.865   2.957   7.280  4.0531 -0.8455  0.7845
  614MOL0     H82867  10.986   3.066   7.360  0.2272  2.3822 -0.7561
  614MOL0     H82868  10.896   3.263   7.236 -0.6248  0.0734  1.4637
  614MOL0     H82869  10.984   3.138   7.155  1.4761  2.6255  2.3694
  614MOL0     H82870  10.168   2.998   8.018  2.0711  1.3608  1.0755
  614MOL0     H82871   9.990   2.859   8.095 -0.5620 -1.7868  1.9125
  614MOL0     H82872   9.908   2.246   8.294 -0.0239 -0.0678  0.0938
  614MOL0     H82873   9.710   2.198   8.417  3.5330  0.6098  2.3709
  614MOL0     H82874   8.157   1.977   7.470 -1.1998  0.7682  0.0952
  614MOL0     H82875   7.908   1.942   7.404 -0.5632 -0.4543  1.9693
  614MOL0     H82876   7.625   1.774   7.158 -0.5394 -0.4788  0.0571
  614MOL0     H82877   7.391   1.749   7.065 -0.4435  0.0813  0.1884
  614MOL0     H82878   7.160   1.898   7.150 -0.6316  2.0585  2.3568
  614MOL0     H82879   7.161   1.862   7.315 -2.6596  1.3403  1.1882
  614MOL0     H82880   6.928   1.783   7.113  0.2603  1.4856 -1.7076
  614MOL0     H82881   6.928   1.924   7.216 -0.6944  0.2545  3.4485
  614MOL0     H82882   6.948   1.629   7.316 -3.4587 -0.0764  2.1262
  614MOL0     H82883   6.801   1.710   7.311 -0.7567 -0.0113  1.3173
  614MOL0     H82884   6.864   1.703   7.538 -1.0067  1.5401  1.4605
  614MOL0     H82885   7.024   1.767   7.514 -0.4043 -0.2589  1.5804
  614MOL0     H82886   6.804   2.114   7.561 -0.5183  0.6718 -1.3458
  614MOL0     H82887   7.254   1.613   7.435  0.5497 -0.6064  0.7913
  614MOL0     H82888   7.382   1.578   7.594  0.4618  0.5369  0.2501
  614MOL0     H82889   7.515   1.465   7.560 -1.1967 -1.0672  0.7752
  614MOL0     H82890   7.541   1.644   7.616 -1.1760  0.0228  0.3213
  615MOL0     O82891   9.678  10.811   9.178  0.1061  0.5327  0.3470
  615MOL0     C82892   9.602  10.891   9.228 -0.2342 -0.4697  0.2848
  615MOL0     O82893   9.613  11.028   9.210 -0.7901 -0.1983  0.2703
  615MOL0     C82894   9.703  11.072   9.114 -1.0771  0.3982  0.5313
  615MOL0     C82895   9.806  11.154   9.159 -0.5177  0.3135  0.0129
  615MOL0     C82896   9.912  11.197   9.074  0.8188 -0.5565 -0.4450
  615MOL0     C82897   9.910  11.169   8.937 -0.9692 -0.1447 -0.5323
  615MOL0     O82898  10.013  11.223   8.863  1.0311 -0.2468  0.0490
  615MOL0     C82899  10.036  11.172   8.725  0.4341 -0.2241  0.6010
  615MOL0     C82900  10.138  11.257   8.651  0.1368  0.3419 -0.6806
  615MOL0     C82901  10.267  11.304   8.741 -0.4264  0.1254 -0.1344
  615MOL0     C82902  10.360  11.176   8.760  0.1397 -0.8359  0.3344
  615MOL0     C82903  10.492  11.204   8.839 -0.1561  0.3026  0.0084
  615MOL0     C82904  10.606  11.277   8.762 -0.0521  0.0607  0.4468
  615MOL0     C82905  10.700  11.336   8.872 -1.1329  0.0263  0.3220
  615MOL0     C82906  10.852  11.327   8.831  0.4016 -0.3042 -0.5899
  615MOL0     N82907  10.905  11.436   8.743  0.2744 -0.6346 -0.6835
  615MOL0     C82908  10.941  11.554   8.790 -0.3793 -0.3763 -0.2507
  615MOL0     C82909  10.990  11.622   8.684 -0.1334 -0.9940  0.3446
  615MOL0     C82910  11.059  11.756   8.682  0.1943  0.0419 -0.4075
  615MOL0     C82911  10.971  11.865   8.708 -0.1344 -0.1465 -0.2281
  615MOL0     C82912  11.036  11.989   8.724 -0.5654 -0.6578  0.1243
  615MOL0     C82913  10.934  12.088   8.798 -0.2210 -0.3359 -0.7539
  615MOL0     O82914  10.829  12.138   8.726 -0.0616  0.3410  0.1166
  615MOL0     C82915  10.777  12.255   8.774 -0.4713  0.1268 -0.6272
  615MOL0     C82916  10.666  12.304   8.704  0.6251 -0.2449  0.3361
  615MOL0     C82917  10.595  12.406   8.754  0.0355  0.0966  0.5308
  615MOL0     C82918  10.621  12.464   8.875 -1.0775 -0.2193  0.3913
  615MOL0     C82919  10.525  12.563   8.938 -0.1783 -0.4058  0.1801
  615MOL0     O82920  10.574  12.655   9.031  0.0926  0.5086 -0.2491
  615MOL0     C82921  10.491  12.741   9.099  1.0941  0.3205 -0.6059
  615MOL0     C82922  10.362  12.708   9.144 -0.9271 -0.0747 -1.7545
  615MOL0     C82923  10.270  12.798   9.209  0.2842 -0.5238  0.4525
  615MOL0     C82924  10.307  12.940   9.209 -0.4860  0.2157  0.3822
  615MOL0     O82925  10.223  13.037   9.259 -0.2359 -0.5556 -0.8691
  615MOL0     C82926  10.122  13.077   9.164  0.7163 -0.3437  0.3331
  615MOL0     C82927  10.172  13.130   9.026  0.8870 -0.0353  0.4327
  615MOL0     C82928  10.052  13.181   8.936  0.1448 -0.5975  0.1693
  615MOL0     C82929  10.053  13.123   8.789  0.4940 -0.1334 -0.3287
  615MOL0     C82930   9.907  13.134   8.741  0.3600  0.2040 -0.0602
  615MOL0     C82931   9.862  13.073   8.602  0.8745 -0.2134 -0.7502
  615MOL0     C82932   9.710  13.085   8.565 -0.4694 -0.5420  0.2507
  615MOL0     C82933   9.627  12.990   8.661  0.1570 -0.0649 -0.2924
  615MOL0    Cl82934   9.689  12.820   8.651 -0.1221 -0.3042  0.3563
  615MOL0     C82935  10.445  12.971   9.181 -0.3829 -0.6204 -0.5488
  615MOL0     C82936  10.530  12.874   9.116 -0.6037 -1.0977 -0.0121
  615MOL0     O82937  10.411  12.571   8.893  0.0409  0.4124  0.2881
  615MOL0     C82938  10.731  12.416   8.947 -0.1712 -0.5331  0.6125
  615MOL0     C82939  10.806  12.308   8.901  0.1630 -0.7163 -0.8562
  615MOL0     N82940  10.976  11.547   8.570 -1.1514  0.7369 -0.4212
  615MOL0     N82941  10.927  11.434   8.604  1.0499 -0.3379 -0.5897
  615MOL0     C82942   9.813  11.099   8.887  1.3043  0.1198  0.2572
  615MOL0     C82943   9.713  11.048   8.977 -0.0602  0.7786 -0.2665
  615MOL0     C82944   9.510  10.859   9.344  0.5305 -0.0492 -0.1102
  615MOL0     C82945   9.419  10.957   9.393  0.4374 -1.0205  0.2041
  615MOL0     C82946   9.330  10.942   9.502  0.2352  0.2198 -0.1009
  615MOL0     C82947   9.344  10.822   9.572 -0.4950 -0.7095  0.3862
  615MOL0     O82948   9.249  10.795   9.672  0.8802 -0.3497 -0.0112
  615MOL0     C82949   9.204  10.653   9.696 -0.6772  0.2515 -0.5136
  615MOL0     C82950   9.069  10.664   9.750 -0.9980  0.6040 -0.1672
  615MOL0     C82951   8.974  10.717   9.646  0.2395 -0.7424 -0.0242
  615MOL0     C82952   8.839  10.727   9.704 -0.0312  0.6335 -0.1105
  615MOL0     C82953   8.743  10.783   9.615 -0.3852 -0.3551  0.2387
  615MOL0     C82954   8.677  10.858   9.545  0.3574  0.1842  0.2362
  615MOL0     C82955   9.439  10.729   9.541  0.0486  0.9264  0.4916
  615MOL0     C82956   9.519  10.747   9.428 -1.1212 -0.0926 -0.5487
  615MOL0     C82957   9.613  10.636   9.403 -0.2727  0.7875 -0.1296
  615MOL0     H82958   9.828  11.181   9.262  4.5789 -2.2705 -0.0948
  615MOL0     H82959   9.986  11.269   9.105  1.2402  0.2455 -3.0495
  615MOL0     H82960  10.076  11.073   8.748 -0.1354  0.0179  2.9717
  615MOL0     H82961   9.948  11.167   8.659 -0.9691  0.6040  2.2966
  615MOL0     H82962  10.073  11.342   8.626 -2.9949 -0.4820  3.5562
  615MOL0     H82963  10.169  11.203   8.561  1.4289 -1.0345  0.5638
  615MOL0     H82964  10.232  11.344   8.837  0.5338 -0.4969  0.4916
  615MOL0     H82965  10.323  11.380   8.686 -3.3804  1.2426 -1.8393
  615MOL0     H82966  10.305  11.104   8.822 -0.7069  1.4805  2.4792
  615MOL0     H82967  10.397  11.135   8.666  1.0793  1.3507 -0.3015
  615MOL0     H82968  10.468  11.267   8.925 -1.7658 -2.2163  1.5157
  615MOL0     H82969  10.528  11.107   8.876 -3.8180 -2.1202 -2.0889
  615MOL0     H82970  10.651  11.197   8.703  1.5697  0.7498  0.7003
  615MOL0     H82971  10.585  11.360   8.695  0.8788  1.1488  1.4425
  615MOL0     H82972  10.688  11.284   8.968  2.2975 -1.7106 -0.0415
  615MOL0     H82973  10.686  11.444   8.885  0.1013  0.6811 -2.7918
  615MOL0     H82974  10.920  11.326   8.917  1.5130  3.1859 -1.2457
  615MOL0     H82975  10.873  11.231   8.783  0.5009  0.1135 -1.4091
  615MOL0     H82976  10.922  11.592   8.890 -0.3131  1.8964 -1.0249
  615MOL0     H82977  11.128  11.761   8.767  0.4386  3.9541 -0.6395
  615MOL0     H82978  11.119  11.772   8.592 -0.6622 -1.4488 -1.2719
  615MOL0     H82979  10.911  11.878   8.617  1.5867  0.8837 -1.2797
  615MOL0     H82980  10.911  11.847   8.797  0.0323 -0.1164 -0.1078
  615MOL0     H82981  11.072  12.041   8.635 -1.5695  1.3783  0.8602
  615MOL0     H82982  11.125  11.975   8.787 -0.0453 -2.6541 -0.9502
  615MOL0     H82983  10.994  12.178   8.810 -1.9929  0.5056  5.7038
  615MOL0     H82984  10.916  12.051   8.899 -0.0810 -0.3849 -0.7460
  615MOL0     H82985  10.634  12.275   8.605 -1.8892  2.0553  0.3546
  615MOL0     H82986  10.516  12.455   8.698 -1.1925 -0.2976  1.8456
  615MOL0     H82987  10.326  12.606   9.141  0.6215 -0.8860  1.8957
  615MOL0     H82988  10.166  12.770   9.218 -0.4443  0.2395 -3.5361
  615MOL0     H82989  10.050  13.000   9.138  2.9376 -1.2705 -4.2603
  615MOL0     H82990  10.075  13.162   9.213 -0.0586  1.7737 -3.6398
  615MOL0     H82991  10.237  13.214   9.051  0.6354 -0.6107  3.4011
  615MOL0     H82992  10.225  13.052   8.971 -3.8083 -2.9100 -0.6580
  615MOL0     H82993   9.953  13.176   8.982  0.1422  2.8977  0.7941
  615MOL0     H82994  10.071  13.287   8.919  1.7025 -0.9346 -0.3952
  615MOL0     H82995  10.078  13.016   8.794  0.7946 -0.0061  1.2806
  615MOL0     H82996  10.127  13.159   8.717  1.9816 -3.3070 -0.5968
  615MOL0     H82997   9.885  13.241   8.730  0.7772  0.3733  0.6472
  615MOL0     H82998   9.838  13.096   8.816  1.0093 -2.7208 -0.8384
  615MOL0     H82999   9.905  13.130   8.520 -0.5924  2.6494  0.3339
  615MOL0     H83000   9.900  12.970   8.596  1.8538 -0.4811  4.4673
  615MOL0     H83001   9.700  13.053   8.461  0.3616 -0.8581  0.2624
  615MOL0     H83002   9.682  13.191   8.574 -0.6763 -0.5780  0.0386
  615MOL0     H83003   9.644  13.030   8.762  0.5270 -0.9951  0.0294
  615MOL0     H83004   9.521  12.983   8.635  0.7239  0.6791 -3.1065
  615MOL0     H83005  10.478  13.074   9.174  0.7873 -0.6986  2.3842
  615MOL0     H83006  10.619  12.902   9.061 -0.7427  2.9065  1.4457
  615MOL0     H83007  10.760  12.472   9.035  1.2342  0.1350 -0.2499
  615MOL0     H83008  10.881  12.267   8.968  0.1524  1.0524  0.2980
  615MOL0     H83009   9.800  11.076   8.782 -2.1296  1.1713  0.3351
  615MOL0     H83010   9.636  10.986   8.931 -0.1366  2.2870 -2.2625
  615MOL0     H83011   9.420  11.054   9.344 -0.3518 -0.0122  2.0814
  615MOL0     H83012   9.256  11.018   9.523  2.9231  2.3769  2.4516
  615MOL0     H83013   9.284  10.605   9.754 -0.4233  1.7647  0.4309
  615MOL0     H83014   9.209  10.586   9.609  0.5200 -2.1765  1.3015
  615MOL0     H83015   9.067  10.720   9.844  2.4429 -0.0880  0.4377
  615MOL0     H83016   9.045  10.561   9.776  0.5562  0.0186 -1.0111
  615MOL0     H83017   8.968  10.649   9.560 -0.0641  0.4733 -0.9955
  615MOL0     H83018   9.000  10.817   9.608 -0.0028 -0.6187  0.1348
  615MOL0     H83019   8.808  10.626   9.731  3.4774 -1.3185 -2.4811
  615MOL0     H83020   8.852  10.797   9.787  0.4111 -0.9490  1.2041
  615MOL0     H83021   8.619  10.900   9.465 -1.9149  2.0849  2.7188
  615MOL0     H83022   9.445  10.633   9.591 -2.2453  0.4009 -0.1148
  615MOL0     H83023   9.715  10.677   9.401 -0.0228  0.2024  0.4933
  615MOL0     H83024   9.621  10.565   9.486  2.2299  1.6653  0.4874
  615MOL0     H83025   9.582  10.579   9.315 -0.1994 -0.3428  0.5557
  616MOL0     O83026   3.821   6.169   3.737  0.4324 -0.1381 -0.7047
  616MOL0     C83027   3.880   6.265   3.695 -0.4232 -1.8222 -0.1978
  616MOL0     O83028   3.982   6.251   3.612 -0.1887  0.1467 -0.2940
  616MOL0     C83029   4.007   6.132   3.543 -0.3149  0.2457 -0.5662
  616MOL0     C83030   3.909   6.053   3.486  1.0575  0.5043 -0.8723
  616MOL0     C83031   3.939   5.922   3.437  0.2716  0.4077 -0.3020
  616MOL0     C83032   4.076   5.898   3.407  0.0889 -0.0536  0.0561
  616MOL0     O83033   4.107   5.779   3.364 -0.0430  0.0903  0.5133
  616MOL0     C83034   4.032   5.714   3.256 -0.2284 -0.2231 -0.6789
  616MOL0     C83035   4.103   5.580   3.243 -0.2828 -0.1386  0.2323
  616MOL0     C83036   4.237   5.592   3.158  0.2238 -0.1452 -0.4030
  616MOL0     C83037   4.286   5.458   3.104 -0.5041  0.0009 -0.4861
  616MOL0     C83038   4.419   5.460   3.036  0.4409 -0.1246 -0.2898
  616MOL0     C83039   4.445   5.357   2.935 -0.8542  0.9593  0.8224
  616MOL0     C83040   4.600   5.336   2.915 -1.1532 -0.4908  0.2909
  616MOL0     C83041   4.689   5.409   2.809 -0.9313 -0.1233 -0.5506
  616MOL0     N83042   4.620   5.414   2.685 -0.5148 -0.3976  0.1252
  616MOL0     C83043   4.593   5.534   2.627  0.2375  0.0406  0.0921
  616MOL0     C83044   4.536   5.497   2.505 -0.2671 -0.5343  0.0441
  616MOL0     C83045   4.538   5.591   2.383  0.6449 -0.3267  0.1229
  616MOL0     C83046   4.402   5.607   2.309  0.6265  0.1557  0.3381
  616MOL0     C83047   4.277   5.639   2.404  0.0492  0.0142 -0.5294
  616MOL0     C83048   4.252   5.784   2.414 -0.3193  0.5956 -0.2387
  616MOL0     O83049   4.363   5.867   2.453  0.6972  0.1215 -1.1783
  616MOL0     C83050   4.413   5.841   2.585  0.5755 -0.0289  0.4231
  616MOL0     C83051   4.528   5.912   2.612 -0.5179  0.8376  0.3945
  616MOL0     C83052   4.583   5.915   2.735  0.0150 -0.3560  0.1092
  616MOL0     C83053   4.516   5.866   2.846 -0.6324  0.4970  0.2464
  616MOL0     C83054   4.580   5.852   2.979  0.2632  0.3117  0.2094
  616MOL0     O83055   4.521   5.761   3.072  1.2856 -0.5781 -0.5490
  616MOL0     C83056   4.570   5.744   3.201  0.0716 -0.2112  0.1574
  616MOL0     C83057   4.496   5.791   3.314 -1.0534  0.4143  0.0516
  616MOL0     C83058   4.544   5.757   3.447  0.0784  0.4904 -0.0879
  616MOL0     C83059   4.663   5.684   3.459 -0.2550 -0.0479 -0.5078
  616MOL0     O83060   4.703   5.642   3.583  0.7550 -0.6438 -0.2361
  616MOL0     C83061   4.841   5.664   3.613 -0.1295 -0.2904  1.0767
  616MOL0     C83062   4.899   5.582   3.731 -0.2064  0.1294  0.7720
  616MOL0     C83063   4.820   5.580   3.858  0.4455  0.6345 -0.1341
  616MOL0     C83064   4.722   5.456   3.867 -0.7839 -0.2110  0.3697
  616MOL0     C83065   4.666   5.450   4.010 -0.0153 -0.0300 -0.6090
  616MOL0     C83066   4.519   5.477   4.004  0.1429  0.1106 -0.2140
  616MOL0     C83067   4.463   5.484   4.142 -0.0902  0.4319 -0.5536
  616MOL0     C83068   4.328   5.544   4.144 -1.4796 -0.4270  0.3014
  616MOL0    Cl83069   4.325   5.698   4.064 -0.1915  0.0071 -0.5535
  616MOL0     C83070   4.731   5.630   3.342  0.1791  0.2674 -1.1711
  616MOL0     C83071   4.677   5.665   3.216  0.2454 -0.8242  0.5413
  616MOL0     O83072   4.666   5.928   3.011  0.9063  0.1183 -0.0949
  616MOL0     C83073   4.391   5.796   2.821  0.5447  0.3937  0.6788
  616MOL0     C83074   4.346   5.780   2.691 -0.2080  0.3256  0.1264
  616MOL0     N83075   4.513   5.363   2.495 -0.0765  0.6294 -1.0434
  616MOL0     N83076   4.573   5.311   2.606 -0.1798 -0.3109 -0.1363
  616MOL0     C83077   4.169   5.987   3.467  0.1081  0.6861  0.3735
  616MOL0     C83078   4.137   6.104   3.531  0.1648 -0.0415  0.2411
  616MOL0     C83079   3.871   6.401   3.754  1.1443  0.9650 -1.0236
  616MOL0     C83080   3.761   6.430   3.839 -0.0237 -0.1507  0.0993
  616MOL0     C83081   3.748   6.544   3.911  0.2840  0.3171  0.2565
  616MOL0     C83082   3.840   6.638   3.903 -0.5659  0.1628 -0.3040
  616MOL0     O83083   3.830   6.747   3.984  0.6204 -0.5386 -0.0816
  616MOL0     C83084   3.742   6.754   4.101  0.4429 -0.0382 -0.1586
  616MOL0     C83085   3.605   6.814   4.071  0.2725 -0.2421  0.8025
  616MOL0     C83086   3.609   6.957   4.006 -0.1465  0.5202 -0.2982
  616MOL0     C83087   3.468   7.010   4.004  0.3090 -0.1505 -0.3511
  616MOL0     C83088   3.415   7.049   4.142 -0.1379 -0.1430 -0.8433
  616MOL0     C83089   3.356   7.081   4.253  0.2266 -0.1680  0.1980
  616MOL0     C83090   3.955   6.612   3.831  0.2252 -0.7102  0.1198
  616MOL0     C83091   3.966   6.504   3.746 -0.5964  0.4952 -0.2036
  616MOL0     C83092   4.088   6.494   3.660  1.1983 -0.5897 -0.2519
  616MOL0     H83093   3.812   6.094   3.512  1.2337 -1.2235  3.2907
  616MOL0     H83094   3.858   5.856   3.409  0.2083  0.2845  0.1639
  616MOL0     H83095   3.935   5.694   3.302 -2.6601  0.2493 -5.0426
  616MOL0     H83096   4.023   5.771   3.163 -1.1456  1.6697  0.5089
  616MOL0     H83097   4.029   5.517   3.192 -0.4291 -0.3220  0.6683
  616MOL0     H83098   4.127   5.543   3.343 -2.1691 -0.2207  0.7012
  616MOL0     H83099   4.309   5.644   3.222 -0.0723  2.4775 -2.0614
  616MOL0     H83100   4.214   5.665   3.080 -1.9891  1.7155  1.7904
  616MOL0     H83101   4.290   5.387   3.186  1.7072  1.0790  0.4213
  616MOL0     H83102   4.210   5.424   3.033 -0.9538  0.8137 -0.4069
  616MOL0     H83103   4.427   5.552   2.976  1.5567  0.5072  0.7980
  616MOL0     H83104   4.495   5.453   3.113  2.2872 -1.2710 -2.1258
  616MOL0     H83105   4.409   5.260   2.973  1.8001  0.6750  3.0098
  616MOL0     H83106   4.392   5.367   2.841 -3.2801  0.0611  2.0041
  616MOL0     H83107   4.615   5.230   2.891  0.3195 -0.0755 -0.8207
  616MOL0     H83108   4.643   5.344   3.016 -0.1581 -3.3507  0.1734
  616MOL0     H83109   4.711   5.510   2.845 -0.8952 -0.4975  0.5426
  616MOL0     H83110   4.786   5.359   2.813 -0.8853  0.0272  0.5354
  616MOL0     H83111   4.614   5.638   2.650  0.0097 -0.1211  1.1046
  616MOL0     H83112   4.579   5.690   2.403  1.2550 -0.3371 -1.0152
  616MOL0     H83113   4.594   5.543   2.303 -0.3482 -0.8046 -0.3049
  616MOL0     H83114   4.415   5.689   2.239 -0.3669  0.3096  0.3226
  616MOL0     H83115   4.378   5.517   2.251 -2.1795  0.6677  0.5542
  616MOL0     H83116   4.288   5.595   2.504 -0.7022 -1.4683 -1.0695
  616MOL0     H83117   4.188   5.592   2.361  1.1695 -1.8454 -0.9259
  616MOL0     H83118   4.177   5.811   2.490 -0.1862  0.8471 -0.1965
  616MOL0     H83119   4.233   5.814   2.311  2.7020  0.4535 -0.9080
  616MOL0     H83120   4.576   5.967   2.532 -1.9123 -0.5650 -1.4944
  616MOL0     H83121   4.683   5.956   2.743  0.4352 -1.2682 -0.3915
  616MOL0     H83122   4.401   5.843   3.309 -1.1271  0.1695 -1.5314
  616MOL0     H83123   4.469   5.766   3.526 -1.5071 -0.9683 -1.3572
  616MOL0     H83124   4.901   5.640   3.525  1.9639  1.2148  2.0228
  616MOL0     H83125   4.846   5.772   3.629  0.0674 -0.2729  0.9044
  616MOL0     H83126   4.915   5.482   3.688 -3.3353  0.3453 -1.2108
  616MOL0     H83127   4.990   5.638   3.754  1.2300 -0.7936 -2.1379
  616MOL0     H83128   4.884   5.566   3.945  0.3529  0.3145 -0.1143
  616MOL0     H83129   4.774   5.674   3.889  1.3559 -0.3017  4.9261
  616MOL0     H83130   4.778   5.362   3.861  2.3459  1.4534  0.9768
  616MOL0     H83131   4.646   5.454   3.788  0.4869  0.1120 -0.9136
  616MOL0     H83132   4.718   5.522   4.073  1.2667 -1.3432 -0.1150
  616MOL0     H83133   4.682   5.351   4.054 -1.0247  0.2007  0.3241
  616MOL0     H83134   4.496   5.566   3.945 -1.2884  1.7985  2.6795
  616MOL0     H83135   4.477   5.393   3.948  0.2895 -0.0052 -0.1533
  616MOL0     H83136   4.531   5.543   4.203 -0.3939  1.0141 -0.7682
  616MOL0     H83137   4.453   5.382   4.181  4.7167  0.0037  0.1337
  616MOL0     H83138   4.267   5.475   4.085  0.1114 -1.6776  0.0637
  616MOL0     H83139   4.288   5.552   4.245 -0.7123  2.9197  0.4585
  616MOL0     H83140   4.817   5.565   3.350 -1.5219 -1.9226  2.7864
  616MOL0     H83141   4.718   5.617   3.128  0.2251  3.4485 -2.1006
  616MOL0     H83142   4.336   5.749   2.901  0.0592 -2.0953 -0.9922
  616MOL0     H83143   4.249   5.735   2.675 -0.5967  0.5861  1.6275
  616MOL0     H83144   4.274   5.961   3.459 -0.6035 -2.1497 -1.3302
  616MOL0     H83145   4.218   6.167   3.567 -0.0431  0.7559 -0.6448
  616MOL0     H83146   3.688   6.352   3.858 -1.1565  1.1052  1.1490
  616MOL0     H83147   3.652   6.544   3.962 -0.4014 -1.6241 -0.9356
  616MOL0     H83148   3.795   6.822   4.167  0.4191 -0.4821  0.3213
  616MOL0     H83149   3.746   6.655   4.148 -1.2042 -0.3911 -0.7022
  616MOL0     H83150   3.558   6.816   4.170 -4.2876 -1.3576 -1.0842
  616MOL0     H83151   3.553   6.739   4.011  1.4752 -0.0436 -0.5323
  616MOL0     H83152   3.652   6.942   3.906  1.7795 -1.3217  0.7268
  616MOL0     H83153   3.682   7.026   4.050 -1.2282  0.7507  1.1902
  616MOL0     H83154   3.463   7.097   3.938 -0.0465 -1.3632 -1.9872
  616MOL0     H83155   3.421   6.926   3.952  0.6771 -1.1626  0.9020
  616MOL0     H83156   3.299   7.110   4.339  1.4192  0.1856  0.8899
  616MOL0     H83157   4.033   6.686   3.832 -0.9288  0.5525  1.3685
  616MOL0     H83158   4.053   6.463   3.561 -1.3971 -1.3969  0.8341
  616MOL0     H83159   4.138   6.590   3.640  0.9297 -0.4682 -0.3442
  616MOL0     H83160   4.157   6.421   3.702  2.4302  0.3318 -0.6077
  617MOL0     O83161   9.915   3.050  10.299 -0.2836 -0.5454 -0.2128
  617MOL0     C83162   9.930   3.173  10.330  0.6844  0.1122  0.4003
  617MOL0     O83163   9.853   3.271  10.279 -0.8531 -0.1886  0.3160
  617MOL0     C83164   9.748   3.236  10.201  0.3452 -0.7989 -0.3831
  617MOL0     C83165   9.620   3.273  10.251  0.6075 -0.3130 -0.5536
  617MOL0     C83166   9.498   3.249  10.188  0.3147  0.5354  0.4045
  617MOL0     C83167   9.503   3.177  10.070  0.8368  0.3989  1.0169
  617MOL0     O83168   9.390   3.122  10.011  0.3713 -0.2337 -0.8834
  617MOL0     C83169   9.283   3.064  10.088  0.1386  0.3289  1.1767
  617MOL0     C83170   9.295   2.911  10.091 -0.0460 -0.3155 -0.1364
  617MOL0     C83171   9.394   2.867  10.201 -0.4186  0.3160 -0.0690
  617MOL0     C83172   9.339   2.874  10.345 -1.1291 -0.7328  0.4189
  617MOL0     C83173   9.461   2.888  10.444 -0.3227  0.2384 -0.1450
  617MOL0     C83174   9.516   3.031  10.437 -0.1495 -1.2950  0.6161
  617MOL0     C83175   9.627   3.077  10.543  0.6725  0.5555 -0.9529
  617MOL0     C83176   9.579   3.050  10.682 -0.1211  0.7121 -1.1140
  617MOL0     N83177   9.700   3.072  10.765  0.4089 -0.0266  0.7374
  617MOL0     C83178   9.797   2.986  10.783 -0.5131  0.0451 -0.2488
  617MOL0     C83179   9.877   3.051  10.875  0.1901 -0.0555 -0.3202
  617MOL0     C83180  10.008   3.008  10.942 -0.6021 -0.2991  1.2193
  617MOL0     C83181  10.083   2.900  10.867  0.4652  0.1817  0.8161
  617MOL0     C83182  10.237   2.927  10.880 -0.6374 -0.0964  1.3426
  617MOL0     C83183  10.293   2.913  11.016  0.5890  0.3302 -0.7767
  617MOL0     O83184  10.299   3.037  11.097  0.4005 -0.1072 -0.3417
  617MOL0     C83185  10.415   3.109  11.089 -0.3999  0.4386  0.0177
  617MOL0     C83186  10.429   3.237  11.024 -0.0690  0.7482 -0.5804
  617MOL0     C83187  10.551   3.303  11.028 -0.6189 -0.5659 -0.6207
  617MOL0     C83188  10.657   3.250  11.103  0.7407 -0.8591  0.3420
  617MOL0     C83189  10.790   3.318  11.100  0.0573  0.0859  0.0304
  617MOL0     O83190  10.793   3.430  11.020 -0.2074 -0.5715  0.1964
  617MOL0     C83191  10.885   3.532  11.053  0.6685  0.7516  0.5352
  617MOL0     C83192  11.019   3.540  10.999 -0.5417  0.0188 -0.0482
  617MOL0     C83193  11.115   3.624  11.049  0.2546 -0.0258 -0.2529
  617MOL0     C83194  11.088   3.716  11.152  0.0069 -0.6335 -0.4296
  617MOL0     O83195  11.188   3.803  11.206  0.3140 -0.1233 -0.3536
  617MOL0     C83196  11.305   3.825  11.138  0.0832 -0.3555 -0.6921
  617MOL0     C83197  11.347   3.976  11.163  0.1667  0.3266  0.4783
  617MOL0     C83198  11.491   3.998  11.152  0.3706  0.8171 -0.7300
  617MOL0     C83199  11.526   4.143  11.154 -0.2105 -0.6973 -0.4274
  617MOL0     C83200  11.673   4.180  11.151  0.0948 -0.5192  0.4181
  617MOL0     C83201  11.696   4.327  11.122  0.3994 -0.2160  0.5158
  617MOL0     C83202  11.837   4.377  11.118  0.0868 -0.3497  0.7328
  617MOL0     C83203  11.907   4.361  10.986  0.7731  0.1712 -0.3879
  617MOL0    Cl83204  12.070   4.427  10.983  0.5779  0.1708  0.0225
  617MOL0     C83205  10.951   3.711  11.201  0.3584 -0.6741 -0.5815
  617MOL0     C83206  10.854   3.615  11.158 -0.0626  0.5383 -0.4222
  617MOL0     O83207  10.886   3.281  11.168 -0.1061  0.4062  0.3507
  617MOL0     C83208  10.635   3.129  11.166 -0.0608 -0.1862 -0.8684
  617MOL0     C83209  10.522   3.066  11.161  0.6452  0.3251  0.1513
  617MOL0     N83210   9.820   3.178  10.902 -0.5649  0.2057  0.5843
  617MOL0     N83211   9.715   3.191  10.838 -0.0581  0.1747 -0.6626
  617MOL0     C83212   9.630   3.155  10.016 -0.6957 -0.5436  0.4419
  617MOL0     C83213   9.755   3.188  10.074 -0.9528  0.4314 -0.1534
  617MOL0     C83214  10.037   3.220  10.428  0.0013  0.0289  1.1359
  617MOL0     C83215  10.041   3.355  10.453 -0.0964 -0.4479 -0.1581
  617MOL0     C83216  10.126   3.412  10.548  0.0935 -0.2062  0.4925
  617MOL0     C83217  10.220   3.332  10.605  0.6479 -0.5120 -0.4814
  617MOL0     O83218  10.329   3.388  10.673  0.0869 -0.4971 -0.3411
  617MOL0     C83219  10.413   3.468  10.591  0.3774 -1.0286  0.0771
  617MOL0     C83220  10.491   3.533  10.705  0.4452 -0.6268 -0.1429
  617MOL0     C83221  10.591   3.634  10.643 -0.8108  0.5959 -0.6915
  617MOL0     C83222  10.667   3.697  10.766  0.0095  0.2919  0.5422
  617MOL0     C83223  10.735   3.822  10.711  0.6773  0.0499 -0.4820
  617MOL0     C83224  10.788   3.924  10.672 -0.4676  0.7897 -0.8264
  617MOL0     C83225  10.224   3.189  10.582  0.0691 -0.6365  0.3459
  617MOL0     C83226  10.135   3.136  10.494  0.7874 -0.6213  0.3261
  617MOL0     C83227  10.135   2.990  10.489 -0.2178  0.8170 -0.2319
  617MOL0     H83228   9.613   3.320  10.349  1.0226  1.4915 -1.3544
  617MOL0     H83229   9.401   3.265  10.234 -2.0835 -2.5041 -2.9827
  617MOL0     H83230   9.280   3.109  10.188 -1.1748  1.4518  0.6768
  617MOL0     H83231   9.194   3.096  10.032 -0.0346 -2.4062 -0.2678
  617MOL0     H83232   9.321   2.880   9.990 -2.0190 -1.5902 -0.3165
  617MOL0     H83233   9.193   2.872  10.105 -0.2293 -0.6928 -2.2115
  617MOL0     H83234   9.490   2.914  10.180  0.3509 -2.0840 -2.4967
  617MOL0     H83235   9.405   2.759  10.185  1.7890 -0.1660  3.5759
  617MOL0     H83236   9.280   2.965  10.360 -1.1398 -0.8886  1.3787
  617MOL0     H83237   9.273   2.787  10.354 -0.8891 -0.9626  0.0017
  617MOL0     H83238   9.420   2.874  10.544 -1.5696  0.9824 -0.5392
  617MOL0     H83239   9.541   2.814  10.434 -0.2080 -0.0759  2.4824
  617MOL0     H83240   9.560   3.041  10.338  2.9207  0.2044  1.9958
  617MOL0     H83241   9.432   3.097  10.459 -1.9624 -2.8069 -1.3711
  617MOL0     H83242   9.636   3.186  10.533 -1.2942  0.7627 -0.9453
  617MOL0     H83243   9.726   3.041  10.515  2.1107  3.5447 -0.2037
  617MOL0     H83244   9.499   3.124  10.695  0.0175  1.2404 -2.9994
  617MOL0     H83245   9.530   2.954  10.699  1.2368  0.4241  1.7946
  617MOL0     H83246   9.790   2.884  10.746 -1.9530  0.4667 -1.2506
  617MOL0     H83247  10.076   3.093  10.940 -1.9101  0.8191  2.5608
  617MOL0     H83248   9.992   2.978  11.046  0.4425 -1.0301  1.1797
  617MOL0     H83249  10.055   2.803  10.907 -2.1581  0.0761 -0.9843
  617MOL0     H83250  10.054   2.905  10.761  0.0479  4.6611  0.9275
  617MOL0     H83251  10.266   3.023  10.837 -1.9715 -0.5110 -0.6150
  617MOL0     H83252  10.290   2.844  10.832 -2.0333 -0.5042  0.4712
  617MOL0     H83253  10.392   2.868  11.006  0.0074 -1.8078  2.0196
  617MOL0     H83254  10.240   2.843  11.080  0.6039  1.2718  0.3018
  617MOL0     H83255  10.348   3.276  10.964  0.2824  1.4835 -0.5941
  617MOL0     H83256  10.568   3.398  10.979 -1.2735  0.7071  1.5285
  617MOL0     H83257  11.049   3.470  10.921 -2.5159 -1.5915  0.5437
  617MOL0     H83258  11.211   3.614  10.998  0.3622 -1.4827  0.1849
  617MOL0     H83259  11.385   3.765  11.184  0.2145  2.3253  3.0096
  617MOL0     H83260  11.303   3.801  11.031  3.0091  0.4216 -1.0304
  617MOL0     H83261  11.293   4.036  11.089  1.4674  0.6707 -0.2220
  617MOL0     H83262  11.311   4.015  11.259  1.1925  2.3420  0.0906
  617MOL0     H83263  11.531   3.956  11.245 -2.6417  0.7386  0.6443
  617MOL0     H83264  11.529   3.936  11.070  3.2311 -1.4645  2.0650
  617MOL0     H83265  11.485   4.192  11.243 -1.4053 -0.4986 -1.0688
  617MOL0     H83266  11.483   4.184  11.062  1.3950  0.7801 -0.5621
  617MOL0     H83267  11.708   4.122  11.066 -2.3630 -1.9278  0.2481
  617MOL0     H83268  11.731   4.136  11.233 -2.9218 -2.7823  1.5510
  617MOL0     H83269  11.646   4.344  11.026 -0.8534 -2.1546  0.7662
  617MOL0     H83270  11.635   4.390  11.186  0.3752  2.3677 -1.8466
  617MOL0     H83271  11.897   4.334  11.199  2.7239  0.5267 -0.6400
  617MOL0     H83272  11.851   4.484  11.135  1.2296 -0.5038  0.8240
  617MOL0     H83273  11.916   4.255  10.961 -0.4482 -0.8501  2.9876
  617MOL0     H83274  11.847   4.414  10.911  2.3509  0.9045 -1.1885
  617MOL0     H83275  10.926   3.784  11.277 -0.2984 -0.6773 -0.7816
  617MOL0     H83276  10.768   3.603  11.223  0.8963 -0.8896  0.6175
  617MOL0     H83277  10.705   3.074  11.227 -3.1508 -2.8745  0.6067
  617MOL0     H83278  10.491   2.975  11.212  0.0149 -1.4053 -3.0486
  617MOL0     H83279   9.625   3.100   9.923  0.3410 -0.0817  0.1008
  617MOL0     H83280   9.844   3.158  10.021 -0.4634  0.0596  0.8579
  617MOL0     H83281   9.970   3.432  10.425 -0.8840  1.1258  5.0474
  617MOL0     H83282  10.117   3.516  10.579  1.4635  0.5850 -1.5890
  617MOL0     H83283  10.362   3.545  10.533  0.1766 -0.8630  0.4715
  617MOL0     H83284  10.484   3.420  10.522  0.2081  0.2059 -1.0036
  617MOL0     H83285  10.546   3.454  10.756 -0.3485 -1.0258  0.1231
  617MOL0     H83286  10.422   3.581  10.776 -0.9437  1.7430 -2.8550
  617MOL0     H83287  10.526   3.699  10.583  0.1861 -0.0720 -2.5875
  617MOL0     H83288  10.664   3.603  10.568  1.6987  2.4040  0.8185
  617MOL0     H83289  10.612   3.718  10.858 -2.5544  2.1136 -1.2769
  617MOL0     H83290  10.747   3.633  10.805  1.5135  2.3575  1.0328
  617MOL0     H83291  10.829   4.015  10.632  1.2393  1.3066  1.8553
  617MOL0     H83292  10.290   3.135  10.649 -2.1528 -1.9829  1.5842
  617MOL0     H83293  10.047   2.938  10.528  0.3484 -0.2544 -0.3394
  617MOL0     H83294  10.152   2.971  10.383  2.2321  1.7183 -0.0629
  617MOL0     H83295  10.225   2.948  10.538  1.1899  2.4481 -1.3180
  618MOL0     O83296   1.488   3.575   9.674 -0.1568  0.4655 -0.9828
  618MOL0     C83297   1.545   3.603   9.566 -0.8121  0.1159 -0.0106
  618MOL0     O83298   1.683   3.629   9.556  0.1488 -0.8138 -0.0762
  618MOL0     C83299   1.781   3.620   9.659  0.3393  0.6400  0.6614
  618MOL0     C83300   1.905   3.663   9.625  0.0383 -0.3806  0.1459
  618MOL0     C83301   2.014   3.658   9.716  0.3902 -0.0240  0.6778
  618MOL0     C83302   1.994   3.609   9.847  0.0741 -0.1594 -0.9122
  618MOL0     O83303   2.102   3.608   9.933  0.2516  0.0208  0.8777
  618MOL0     C83304   2.090   3.545  10.069 -0.5688 -0.1617  0.1429
  618MOL0     C83305   2.225   3.574  10.144 -1.1542  0.5621  0.3613
  618MOL0     C83306   2.243   3.720  10.182 -0.2878 -0.0375 -0.4059
  618MOL0     C83307   2.341   3.734  10.306  0.4777 -0.2946  0.4105
  618MOL0     C83308   2.363   3.887  10.330 -0.8872  0.3467 -0.2984
  618MOL0     C83309   2.420   3.906  10.473 -0.0984  0.5184 -0.5106
  618MOL0     C83310   2.458   4.047  10.516 -0.5544  0.2098 -0.2496
  618MOL0     C83311   2.446   4.059  10.668 -0.3088 -0.6408 -0.3937
  618MOL0     N83312   2.507   4.188  10.713 -0.1810  0.1067  0.2356
  618MOL0     C83313   2.447   4.307  10.703 -0.1894 -0.4145  0.0722
  618MOL0     C83314   2.514   4.403  10.775  0.6982 -0.5638  0.2563
  618MOL0     C83315   2.465   4.542  10.813 -1.0638 -0.3010 -0.9111
  618MOL0     C83316   2.487   4.634  10.693 -0.1151  0.0666 -0.5667
  618MOL0     C83317   2.404   4.752  10.704 -0.9153 -0.2477 -0.2284
  618MOL0     C83318   2.423   4.848  10.829  0.0409  0.0994 -0.5973
  618MOL0     O83319   2.562   4.885  10.846 -0.6956  0.0108 -0.4177
  618MOL0     C83320   2.626   4.974  10.765  0.4875 -0.2901 -0.1250
  618MOL0     C83321   2.762   4.996  10.781  0.5714  0.2618 -0.9099
  618MOL0     C83322   2.843   5.053  10.684 -0.1037  0.3009  0.1057
  618MOL0     C83323   2.778   5.127  10.581 -0.9865 -0.0804  0.1171
  618MOL0     C83324   2.849   5.209  10.481  1.1159 -0.8297 -0.0972
  618MOL0     O83325   2.757   5.305  10.426 -0.8066 -0.2857 -0.1466
  618MOL0     C83326   2.812   5.382  10.321  0.3225 -0.3838 -0.4583
  618MOL0     C83327   2.852   5.308  10.206 -0.9463  0.4863  0.0408
  618MOL0     C83328   2.886   5.386  10.091 -0.2164  0.0767  0.5560
  618MOL0     C83329   2.858   5.523  10.079 -0.3991 -0.1018  0.0703
  618MOL0     O83330   2.893   5.596   9.969 -0.5597  0.6568 -0.2621
  618MOL0     C83331   3.005   5.553   9.883  0.7453 -0.0828  0.6211
  618MOL0     C83332   3.019   5.646   9.754 -1.3830  0.1121 -0.4982
  618MOL0     C83333   3.091   5.779   9.785  0.0028  0.6794  0.0550
  618MOL0     C83334   3.048   5.902   9.692  0.1338 -0.0074 -0.5060
  618MOL0     C83335   3.092   6.038   9.763 -0.6934 -0.9884 -0.2144
  618MOL0     C83336   2.989   6.091   9.863 -0.0800 -0.6590 -0.4228
  618MOL0     C83337   3.022   6.217   9.946 -0.5929  0.6973  0.1029
  618MOL0     C83338   2.899   6.267  10.010  0.1820 -0.5389  0.0904
  618MOL0    Cl83339   2.788   6.335   9.881  0.4956 -0.2675 -0.5072
  618MOL0     C83340   2.810   5.588  10.198  0.0693 -0.7819  0.0546
  618MOL0     C83341   2.799   5.524  10.319 -0.0911  0.5505  0.7962
  618MOL0     O83342   2.963   5.195  10.456  0.3067  0.9743  0.1572
  618MOL0     C83343   2.637   5.121  10.571  0.9566 -0.4364  0.7080
  618MOL0     C83344   2.567   5.038  10.660  0.5147  1.0821  0.5132
  618MOL0     N83345   2.626   4.331  10.824  0.9000 -0.4190  0.9564
  618MOL0     N83346   2.618   4.207  10.787 -0.4805 -0.2796  0.6284
  618MOL0     C83347   1.869   3.558   9.879 -0.0366 -0.2236 -0.0360
  618MOL0     C83348   1.760   3.565   9.789 -0.0435  0.4120  0.3521
  618MOL0     C83349   1.475   3.607   9.424 -0.5076 -0.8046  0.6456
  618MOL0     C83350   1.551   3.569   9.310 -0.7103  0.7059  1.0952
  618MOL0     C83351   1.490   3.563   9.183  0.6774  0.9893 -0.0305
  618MOL0     C83352   1.351   3.585   9.180  0.8604  0.0692 -0.3610
  618MOL0     O83353   1.271   3.583   9.072 -0.4430 -0.1364  0.1377
  618MOL0     C83354   1.339   3.561   8.944  0.4985 -0.3819 -0.0667
  618MOL0     C83355   1.388   3.692   8.882  0.6962 -1.1146  0.4143
  618MOL0     C83356   1.282   3.765   8.804 -1.0258  0.0918  0.4202
  618MOL0     C83357   1.181   3.826   8.891  0.8411 -0.7109  0.4642
  618MOL0     C83358   1.236   3.944   8.957 -0.1873 -0.0364  0.2312
  618MOL0     C83359   1.278   4.031   9.031  0.0652 -0.0694 -0.4769
  618MOL0     C83360   1.271   3.599   9.293 -0.4904 -0.9613  0.0982
  618MOL0     C83361   1.333   3.614   9.415  0.4907 -0.1984  0.2317
  618MOL0     C83362   1.239   3.618   9.533 -0.1339  0.0723 -0.9761
  618MOL0     H83363   1.934   3.686   9.523  0.2622 -1.2751 -0.0037
  618MOL0     H83364   2.101   3.712   9.680  0.7644 -1.0183  0.0560
  618MOL0     H83365   2.002   3.577  10.125 -2.0039 -3.9162  0.3119
  618MOL0     H83366   2.083   3.439  10.043 -0.9016  0.4802 -2.8009
  618MOL0     H83367   2.315   3.534  10.097 -1.6330  0.5911 -0.6059
  618MOL0     H83368   2.212   3.523  10.240  0.3159 -1.1044 -0.2734
  618MOL0     H83369   2.144   3.761  10.205 -0.4273  0.0938 -1.2126
  618MOL0     H83370   2.288   3.772  10.097  1.3855  0.8958  0.9693
  618MOL0     H83371   2.292   3.686  10.391  0.4517 -0.4710  0.2975
  618MOL0     H83372   2.433   3.678  10.286  1.1356 -0.2087  2.9270
  618MOL0     H83373   2.428   3.918  10.247  0.7083 -0.8406  0.4585
  618MOL0     H83374   2.271   3.943  10.316  0.5965  2.2407 -3.7363
  618MOL0     H83375   2.333   3.877  10.534 -0.4306 -1.7384 -1.9121
  618MOL0     H83376   2.498   3.835  10.500  1.8728  3.4338  2.1613
  618MOL0     H83377   2.398   4.128  10.473 -0.2216  0.0545 -1.0246
  618MOL0     H83378   2.559   4.072  10.482 -0.8150 -0.3150 -1.4289
  618MOL0     H83379   2.341   4.054  10.696 -0.6535 -0.6782 -1.6115
  618MOL0     H83380   2.486   3.970  10.718 -0.6717 -0.8147 -0.4127
  618MOL0     H83381   2.362   4.313  10.636  0.3026  0.2762 -0.5031
  618MOL0     H83382   2.359   4.539  10.841 -1.2419 -0.0287 -1.5246
  618MOL0     H83383   2.518   4.577  10.902 -1.5785  1.7826 -1.3731
  618MOL0     H83384   2.586   4.670  10.666 -0.3051  2.5091  1.6573
  618MOL0     H83385   2.449   4.584  10.603  0.1169 -0.9244 -0.1327
  618MOL0     H83386   2.298   4.730  10.692 -1.6466  2.0768  1.3489
  618MOL0     H83387   2.427   4.820  10.621 -0.0348  1.5939  1.4495
  618MOL0     H83388   2.391   4.800  10.922 -1.8251  0.2064 -1.1531
  618MOL0     H83389   2.367   4.942  10.822  1.0915  0.7162 -1.0268
  618MOL0     H83390   2.800   4.944  10.868 -4.9001 -1.4184  0.8674
  618MOL0     H83391   2.951   5.044  10.689 -0.1477 -0.7579 -0.5421
  618MOL0     H83392   2.852   5.201  10.224  2.4280  0.8431  3.2661
  618MOL0     H83393   2.917   5.323  10.008 -0.1258  0.8979 -0.0447
  618MOL0     H83394   3.097   5.563   9.942  2.9845 -2.3065 -2.1852
  618MOL0     H83395   3.010   5.451   9.844 -0.7709 -0.2738  0.8627
  618MOL0     H83396   3.080   5.598   9.677  1.8134  2.0039  0.6387
  618MOL0     H83397   2.924   5.680   9.712 -0.2438  1.8566 -1.8447
  618MOL0     H83398   3.084   5.804   9.891 -1.1283 -1.5096  0.5565
  618MOL0     H83399   3.199   5.762   9.780  0.2554  1.7412  1.5043
  618MOL0     H83400   2.940   5.907   9.680  0.2036 -0.8792 -1.6729
  618MOL0     H83401   3.098   5.903   9.595  1.1180 -0.8817 -0.0264
  618MOL0     H83402   3.101   6.114   9.686 -1.3548 -0.4768  0.2050
  618MOL0     H83403   3.185   6.024   9.819  1.4845  0.1860 -3.2521
  618MOL0     H83404   2.893   6.109   9.814  1.5922  2.0733 -3.0588
  618MOL0     H83405   2.977   6.012   9.938 -2.9772  1.1903  1.2300
  618MOL0     H83406   3.073   6.286   9.879 -0.3161  0.6178  0.2304
  618MOL0     H83407   3.087   6.182  10.027  1.1498 -2.2274 -2.3541
  618MOL0     H83408   2.851   6.184  10.062 -1.1142 -1.1668 -1.9734
  618MOL0     H83409   2.924   6.348  10.080 -3.6471 -0.2594  1.3603
  618MOL0     H83410   2.800   5.697  10.199  1.7677 -0.5939  0.9823
  618MOL0     H83411   2.756   5.589  10.394 -2.6396  0.6998 -0.6524
  618MOL0     H83412   2.573   5.166  10.496  2.8055  0.8178 -0.1823
  618MOL0     H83413   2.461   5.023  10.638  0.0197  3.0715  1.3828
  618MOL0     H83414   1.853   3.511   9.976  1.5725 -3.0728 -1.0651
  618MOL0     H83415   1.680   3.502   9.827 -0.2463 -0.7199 -1.7986
  618MOL0     H83416   1.657   3.548   9.315 -0.4758  1.5143 -0.0545
  618MOL0     H83417   1.540   3.537   9.090  2.1931 -1.0782  1.2768
  618MOL0     H83418   1.263   3.521   8.876 -0.2197  0.5885  0.1501
  618MOL0     H83419   1.418   3.485   8.942 -0.2660 -1.1815 -0.9139
  618MOL0     H83420   1.466   3.660   8.812 -2.7834 -4.3214 -2.4432
  618MOL0     H83421   1.436   3.754   8.959  0.5696  1.3216 -1.3384
  618MOL0     H83422   1.229   3.694   8.740  1.7666 -2.3095  0.5379
  618MOL0     H83423   1.327   3.834   8.731  1.4196 -0.8234  0.9484
  618MOL0     H83424   1.095   3.859   8.831 -0.9504  1.0190  3.7289
  618MOL0     H83425   1.133   3.757   8.960 -0.8625 -0.3998 -0.3349
  618MOL0     H83426   1.325   4.099   9.100  0.0694 -1.1981  0.6760
  618MOL0     H83427   1.164   3.588   9.287 -0.6661 -0.8147  2.2477
  618MOL0     H83428   1.260   3.556   9.621 -0.2181 -2.0017 -2.3622
  618MOL0     H83429   1.235   3.718   9.577  3.9652 -0.8353  2.0579
  618MOL0     H83430   1.139   3.591   9.497 -0.0743  2.6305 -3.4003
  619MOL0     O83431   9.160   0.336   8.145  0.6682  1.1760 -0.0413
  619MOL0     C83432   9.280   0.318   8.137 -0.2083 -0.8779  0.2095
  619MOL0     O83433   9.347   0.256   8.035  0.0897 -0.4284  0.8858
  619MOL0     C83434   9.279   0.193   7.931 -0.0857  0.2560  1.7467
  619MOL0     C83435   9.354   0.188   7.805  0.1432 -0.3392  0.3265
  619MOL0     C83436   9.294   0.155   7.687 -0.3848  0.6272 -0.3505
  619MOL0     C83437   9.159   0.127   7.672 -0.1266 -0.4087 -0.3297
  619MOL0     O83438   9.099   0.063   7.567  0.2124  0.1175  0.1741
  619MOL0     C83439   9.092   0.129   7.442  0.4830 -1.0421 -0.2347
  619MOL0     C83440   9.050   0.039   7.322 -0.4098 -0.0195 -0.2427
  619MOL0     C83441   9.010   0.121   7.199 -0.7855 -0.5755 -0.4186
  619MOL0     C83442   8.939   0.034   7.092 -0.0823 -0.3005  0.6811
  619MOL0     C83443   8.964   0.111   6.964  0.5656  0.3550 -0.1752
  619MOL0     C83444   8.898   0.036   6.850  0.7259  0.2710 -0.1974
  619MOL0     C83445   8.975  -0.094   6.817 -0.7028  0.8439  0.9574
  619MOL0     C83446   9.023  -0.099   6.668 -0.4928 -0.0223  0.6452
  619MOL0     N83447   8.902  -0.102   6.580  0.1551 -0.2250 -0.2310
  619MOL0     C83448   8.857  -0.218   6.521 -0.8575  0.1326 -1.1766
  619MOL0     C83449   8.754  -0.180   6.442 -0.0988 -0.3580 -1.6491
  619MOL0     C83450   8.675  -0.286   6.366 -0.6163  0.0555  0.6312
  619MOL0     C83451   8.630  -0.411   6.451  0.2363 -1.6400  0.5550
  619MOL0     C83452   8.514  -0.368   6.557 -0.6112 -0.2026  0.6767
  619MOL0     C83453   8.462  -0.484   6.647 -0.5544 -1.2391 -0.0893
  619MOL0     O83454   8.363  -0.560   6.588 -0.4404 -0.4344 -0.4333
  619MOL0     C83455   8.246  -0.505   6.555 -0.0612  0.1797  0.4830
  619MOL0     C83456   8.188  -0.564   6.445  0.1333 -0.1717  0.0393
  619MOL0     C83457   8.075  -0.501   6.391 -0.2176  0.6378  0.2658
  619MOL0     C83458   8.015  -0.390   6.452 -0.7076  0.1978  0.7693
  619MOL0     C83459   7.878  -0.356   6.415 -2.2167 -0.3371 -0.6343
  619MOL0     O83460   7.800  -0.427   6.336  0.7916 -0.0679 -0.0540
  619MOL0     C83461   7.665  -0.404   6.338 -0.1948 -0.0155  0.2375
  619MOL0     C83462   7.603  -0.397   6.202  0.1476 -0.5574  0.1789
  619MOL0     C83463   7.473  -0.355   6.185  0.3887 -0.0343 -1.0278
  619MOL0     C83464   7.391  -0.335   6.303  0.8649  0.4737  0.4867
  619MOL0     O83465   7.260  -0.295   6.290 -0.3255  0.8602 -0.0423
  619MOL0     C83466   7.158  -0.372   6.362 -0.2023 -0.7272 -0.5984
  619MOL0     C83467   7.022  -0.351   6.301 -0.0931  0.1555 -0.1084
  619MOL0     C83468   7.025  -0.349   6.149 -0.5440 -0.0238 -0.0045
  619MOL0     C83469   7.061  -0.494   6.090  0.5112  0.1041 -0.1000
  619MOL0     C83470   7.112  -0.492   5.943  0.4722 -0.1518 -0.0767
  619MOL0     C83471   7.081  -0.627   5.868 -0.0818 -0.2247  0.0160
  619MOL0     C83472   7.110  -0.613   5.715  0.1759  0.7892 -0.4241
  619MOL0     C83473   7.024  -0.713   5.636 -0.7173 -0.3749 -0.8175
  619MOL0    Cl83474   7.054  -0.688   5.458  0.3077 -0.1353 -0.4161
  619MOL0     C83475   7.438  -0.366   6.432 -0.2682  0.4186 -0.7470
  619MOL0     C83476   7.576  -0.397   6.449  0.2235  0.0687  0.4609
  619MOL0     O83477   7.847  -0.242   6.462 -0.5784  0.6082 -1.4721
  619MOL0     C83478   8.066  -0.339   6.570 -0.9587 -0.4052 -1.2738
  619MOL0     C83479   8.186  -0.398   6.627 -0.4853  0.0100  0.9437
  619MOL0     N83480   8.725  -0.046   6.469 -0.8022 -0.0703 -0.0385
  619MOL0     N83481   8.816  -0.000   6.556 -0.2173  0.3553 -0.1666
  619MOL0     C83482   9.085   0.127   7.793 -0.7628 -0.7519 -0.4047
  619MOL0     C83483   9.143   0.164   7.917  0.3184 -0.3607 -0.2586
  619MOL0     C83484   9.364   0.377   8.251  0.8265 -1.8141  0.6055
  619MOL0     C83485   9.502   0.345   8.254 -0.1006 -0.0626 -0.6525
  619MOL0     C83486   9.588   0.418   8.335 -0.2621 -0.0872  0.6898
  619MOL0     C83487   9.544   0.490   8.444  0.4942 -0.9675  0.5986
  619MOL0     O83488   9.650   0.539   8.519 -0.5311 -0.4976 -0.1890
  619MOL0     C83489   9.616   0.654   8.602 -0.2263  0.9692 -0.1654
  619MOL0     C83490   9.598   0.779   8.518  0.5243 -0.5090 -0.1676
  619MOL0     C83491   9.603   0.906   8.590 -0.9137  0.2173 -0.0076
  619MOL0     C83492   9.592   1.015   8.483  0.0146 -0.0583  0.2377
  619MOL0     C83493   9.457   1.027   8.429 -0.4699  0.2419  0.1499
  619MOL0     C83494   9.349   1.032   8.388  0.8264  0.1828  0.4370
  619MOL0     C83495   9.407   0.502   8.464  0.6115  0.1884  0.4201
  619MOL0     C83496   9.314   0.457   8.366 -0.9385  0.0842 -0.0455
  619MOL0     C83497   9.169   0.490   8.373  0.3854  0.3293 -0.5675
  619MOL0     H83498   9.461   0.210   7.812 -0.0102  1.2382 -1.4676
  619MOL0     H83499   9.358   0.151   7.599  1.3276 -2.8659  0.8799
  619MOL0     H83500   9.038   0.223   7.459  2.9272  0.4066 -0.0470
  619MOL0     H83501   9.193   0.164   7.419  0.2441  0.4355  0.7590
  619MOL0     H83502   8.961  -0.016   7.353  0.8426 -1.3491  1.1739
  619MOL0     H83503   9.129  -0.031   7.293  0.5098  1.1681 -0.6580
  619MOL0     H83504   9.101   0.168   7.163  0.2723 -2.0152  0.2417
  619MOL0     H83505   8.937   0.194   7.236 -0.9941 -1.0353  0.1030
  619MOL0     H83506   8.999  -0.058   7.099  0.8371  0.3224  1.3363
  619MOL0     H83507   8.834   0.013   7.113  0.2127 -1.5853  0.9810
  619MOL0     H83508   8.913   0.207   6.971  0.5395  0.3758 -0.6500
  619MOL0     H83509   9.063   0.144   6.933 -0.4574  1.0223 -2.9573
  619MOL0     H83510   8.802  -0.006   6.881 -0.0109  0.0108 -2.5973
  619MOL0     H83511   8.894   0.101   6.762  2.4002  1.1508  0.3311
  619MOL0     H83512   8.904  -0.175   6.829 -0.9435  1.1709  1.7658
  619MOL0     H83513   9.061  -0.121   6.879  0.3084 -2.3578 -1.5680
  619MOL0     H83514   9.073  -0.006   6.637 -0.2842 -0.8858 -1.8173
  619MOL0     H83515   9.087  -0.185   6.650  1.1405  1.2832 -0.0106
  619MOL0     H83516   8.905  -0.315   6.527 -0.0476  0.5598 -0.6506
  619MOL0     H83517   8.586  -0.246   6.316  0.0675 -3.2022 -3.8225
  619MOL0     H83518   8.738  -0.328   6.287 -1.0009  1.8704 -0.7051
  619MOL0     H83519   8.599  -0.488   6.380  0.1311 -1.3728  0.3091
  619MOL0     H83520   8.710  -0.463   6.505  1.1745 -0.3743  0.4535
  619MOL0     H83521   8.430  -0.316   6.510  0.8722 -0.3196 -2.2774
  619MOL0     H83522   8.559  -0.291   6.620  1.9925  0.4953 -1.8357
  619MOL0     H83523   8.432  -0.443   6.744  0.1050  3.1633 -1.5257
  619MOL0     H83524   8.549  -0.543   6.679  0.3505  0.7325  1.2792
  619MOL0     H83525   8.222  -0.650   6.389  0.0732  0.0628 -0.3652
  619MOL0     H83526   8.033  -0.540   6.299  1.3980  3.0377 -1.6292
  619MOL0     H83527   7.673  -0.412   6.120 -0.4787 -0.0004 -0.4703
  619MOL0     H83528   7.435  -0.359   6.084 -2.1108  0.2776 -0.1728
  619MOL0     H83529   7.183  -0.477   6.381  2.5993  0.1616  1.3528
  619MOL0     H83530   7.156  -0.342   6.468 -0.6147  0.1984 -0.8661
  619MOL0     H83531   6.956  -0.427   6.345  1.2923 -1.3460 -0.5312
  619MOL0     H83532   6.980  -0.255   6.333  0.5813  0.3823  0.1078
  619MOL0     H83533   6.931  -0.316   6.104 -1.8416 -3.0926  0.1959
  619MOL0     H83534   7.097  -0.278   6.109 -3.7364  1.5983 -3.5959
  619MOL0     H83535   6.970  -0.554   6.104  0.4026  0.0080 -1.1220
  619MOL0     H83536   7.148  -0.533   6.144 -1.5934 -2.0998  1.9413
  619MOL0     H83537   7.218  -0.464   5.945 -0.0254  2.0369 -1.4635
  619MOL0     H83538   7.053  -0.421   5.884 -0.2318 -1.6101 -1.2157
  619MOL0     H83539   7.141  -0.710   5.907 -1.7566 -0.9521  1.1667
  619MOL0     H83540   6.977  -0.651   5.888  0.1320 -1.4901 -0.3149
  619MOL0     H83541   7.218  -0.629   5.707  0.4064  1.5878  0.7954
  619MOL0     H83542   7.071  -0.518   5.679 -2.3505 -0.2313 -0.6266
  619MOL0     H83543   7.038  -0.818   5.664  1.5204 -0.1895 -1.0951
  619MOL0     H83544   6.918  -0.698   5.660  0.2077  0.3126  3.7267
  619MOL0     H83545   7.371  -0.361   6.518 -0.6268 -0.4764 -0.9649
  619MOL0     H83546   7.620  -0.409   6.548 -0.6865  2.6208  1.2597
  619MOL0     H83547   8.025  -0.256   6.627 -1.4541 -0.5563 -1.4079
  619MOL0     H83548   8.241  -0.353   6.710  1.4447  1.1938 -0.8709
  619MOL0     H83549   8.981   0.095   7.794 -1.8076  2.2374 -0.0465
  619MOL0     H83550   9.080   0.160   8.004 -1.8542  1.9850 -1.5912
  619MOL0     H83551   9.548   0.278   8.182  1.3271 -0.9852  1.0334
  619MOL0     H83552   9.697   0.412   8.329 -0.2915  0.7131 -0.9122
  619MOL0     H83553   9.701   0.676   8.668 -0.6832  2.2676  0.0104
  619MOL0     H83554   9.528   0.646   8.666 -1.6825 -0.9185 -2.2445
  619MOL0     H83555   9.500   0.773   8.470 -0.5257 -1.3506  1.9314
  619MOL0     H83556   9.684   0.780   8.449  2.1855 -1.2131  1.7897
  619MOL0     H83557   9.708   0.915   8.621 -0.1171 -0.1049 -2.3590
  619MOL0     H83558   9.531   0.922   8.671 -1.1205  1.6726 -0.4389
  619MOL0     H83559   9.625   1.112   8.520 -0.7093 -0.9675  3.6075
  619MOL0     H83560   9.657   0.993   8.397  2.4520 -2.2361  2.4886
  619MOL0     H83561   9.248   1.042   8.355 -0.1076 -2.5598  2.1359
  619MOL0     H83562   9.369   0.559   8.549  0.4391  2.8007 -1.2888
  619MOL0     H83563   9.133   0.530   8.278 -1.6623  2.7389  1.0568
  619MOL0     H83564   9.107   0.409   8.412 -1.5543  2.0286  0.0663
  619MOL0     H83565   9.154   0.571   8.445  3.2510  1.2862 -0.9198
  620MOL0     O83566   1.672   1.443   2.076  0.5825 -0.3543  0.0947
  620MOL0     C83567   1.548   1.423   2.086  1.3144  0.2060  0.4207
  620MOL0     O83568   1.491   1.317   2.153 -0.2681 -0.4932 -0.7466
  620MOL0     C83569   1.583   1.242   2.214  0.5370  0.4900  0.1966
  620MOL0     C83570   1.577   1.244   2.355 -1.4557  0.2000 -0.3708
  620MOL0     C83571   1.677   1.181   2.424 -0.6142 -0.3395 -0.3120
  620MOL0     C83572   1.776   1.112   2.357 -0.3783 -0.0971  0.8662
  620MOL0     O83573   1.877   1.054   2.434 -0.5956  0.2118  0.6836
  620MOL0     C83574   1.974   0.973   2.359  0.5027 -0.1293  0.1182
  620MOL0     C83575   2.084   0.926   2.460  0.1107  0.4500  0.2029
  620MOL0     C83576   2.032   0.830   2.567  0.2397 -0.6746 -0.6623
  620MOL0     C83577   2.017   0.683   2.527  0.6126 -0.1463  0.3845
  620MOL0     C83578   1.944   0.599   2.635 -0.1505  0.5138 -0.1331
  620MOL0     C83579   1.963   0.453   2.604 -1.0493 -0.2714 -0.0891
  620MOL0     C83580   1.893   0.366   2.707 -0.9414  0.4851 -0.5321
  620MOL0     C83581   1.741   0.354   2.691  0.7405  0.8436  0.2937
  620MOL0     N83582   1.690   0.232   2.764 -0.5958 -0.2158 -0.5522
  620MOL0     C83583   1.650   0.109   2.715  0.2167  0.0096 -0.3083
  620MOL0     C83584   1.632   0.030   2.822 -0.0461  0.6169  0.4639
  620MOL0     C83585   1.575  -0.111   2.811  0.4950  0.0108  0.0001
  620MOL0     C83586   1.611  -0.196   2.924 -0.3177  0.6344 -0.5532
  620MOL0     C83587   1.538  -0.330   2.920  0.1483  0.0144 -0.2790
  620MOL0     C83588   1.617  -0.446   2.993  0.0841 -0.3893 -0.1508
  620MOL0     O83589   1.696  -0.406   3.106  0.2992 -0.7418 -1.1339
  620MOL0     C83590   1.731  -0.502   3.205 -0.5090  0.3044  0.2791
  620MOL0     C83591   1.797  -0.460   3.313 -0.2332  0.1241  0.6558
  620MOL0     C83592   1.829  -0.548   3.417 -0.0129 -0.3080  0.4265
  620MOL0     C83593   1.795  -0.686   3.413 -0.0839 -0.3725 -0.2997
  620MOL0     C83594   1.822  -0.774   3.533 -0.2929  0.5539  0.4661
  620MOL0     O83595   1.789  -0.902   3.526  0.3305  0.3228 -0.4745
  620MOL0     C83596   1.822  -0.966   3.637  0.5377 -0.3546 -0.2564
  620MOL0     C83597   1.948  -1.024   3.669 -0.4695  0.1559  0.4473
  620MOL0     C83598   1.948  -1.089   3.796  0.0078  0.4908 -0.0405
  620MOL0     C83599   1.837  -1.128   3.874 -0.2584 -0.0486 -0.4757
  620MOL0     O83600   1.869  -1.206   3.986 -0.0866 -0.1345  0.3874
  620MOL0     C83601   1.768  -1.268   4.063  0.3742  0.0234  0.5357
  620MOL0     C83602   1.742  -1.410   4.000 -0.5474  0.5110 -0.0793
  620MOL0     C83603   1.654  -1.504   4.076 -0.8894 -0.2189  0.6127
  620MOL0     C83604   1.513  -1.439   4.099 -0.7232  0.1322 -0.0197
  620MOL0     C83605   1.403  -1.545   4.128 -0.4459  0.1552  0.5595
  620MOL0     C83606   1.272  -1.468   4.152  0.5267 -0.5196 -0.8550
  620MOL0     C83607   1.167  -1.563   4.211  0.1703  0.2479  0.7207
  620MOL0     C83608   1.035  -1.495   4.234  1.1389  0.7245 -0.8628
  620MOL0    Cl83609   0.925  -1.566   4.362 -0.2577  0.0231  0.5257
  620MOL0     C83610   1.711  -1.071   3.831 -0.5882  0.0354 -1.0119
  620MOL0     C83611   1.712  -0.990   3.714 -1.3534 -0.0731 -0.4427
  620MOL0     O83612   1.879  -0.716   3.624 -0.0015 -0.6749 -0.1175
  620MOL0     C83613   1.732  -0.727   3.298  0.7748  0.7918  0.3465
  620MOL0     C83614   1.702  -0.641   3.193 -0.2156 -0.3180 -1.0246
  620MOL0     N83615   1.658   0.100   2.941  0.7933 -0.2079  0.2221
  620MOL0     N83616   1.692   0.221   2.905 -0.3443  0.4493  0.5246
  620MOL0     C83617   1.767   1.099   2.217  0.6295  1.1444  0.1439
  620MOL0     C83618   1.669   1.161   2.143 -0.2256  0.9268  0.0853
  620MOL0     C83619   1.448   1.509   2.012 -0.0638  0.9132 -0.1393
  620MOL0     C83620   1.319   1.465   2.015  0.4809  0.3974 -1.0549
  620MOL0     C83621   1.217   1.555   1.975 -1.3971 -0.6355  0.6966
  620MOL0     C83622   1.250   1.679   1.914  0.3469 -0.2169  0.5368
  620MOL0     O83623   1.133   1.747   1.869  0.4034  0.5016 -0.4166
  620MOL0     C83624   1.128   1.885   1.903 -0.9727 -0.2974 -0.1423
  620MOL0     C83625   1.109   1.970   1.773  0.7432 -0.0662 -0.2989
  620MOL0     C83626   1.081   2.116   1.800  0.2596  0.0557 -0.6662
  620MOL0     C83627   1.128   2.181   1.930  0.1980 -0.4178 -0.4698
  620MOL0     C83628   1.276   2.174   1.932 -0.0514  0.3678  0.6698
  620MOL0     C83629   1.392   2.166   1.935  0.3572 -0.0692  0.4107
  620MOL0     C83630   1.378   1.709   1.888 -0.0654  0.1257 -0.2570
  620MOL0     C83631   1.479   1.620   1.935 -0.2178  0.1855 -0.2520
  620MOL0     C83632   1.617   1.669   1.906  0.6969  0.8933 -0.0498
  620MOL0     H83633   1.514   1.318   2.404 -3.2505  1.1747 -3.7978
  620MOL0     H83634   1.679   1.193   2.532 -2.7940 -0.1452 -0.2395
  620MOL0     H83635   1.932   0.883   2.313  1.5556  0.4293 -2.0832
  620MOL0     H83636   2.023   1.031   2.280  3.6473  0.8096  2.5301
  620MOL0     H83637   2.139   1.000   2.520  0.9353  0.7445 -0.8767
  620MOL0     H83638   2.163   0.872   2.407  0.0102  0.3842  0.1197
  620MOL0     H83639   1.937   0.862   2.608  0.5350 -2.5309  1.6924
  620MOL0     H83640   2.105   0.831   2.648  2.0988  3.3693 -2.1536
  620MOL0     H83641   1.961   0.669   2.434  0.3724  0.2088  0.4740
  620MOL0     H83642   2.122   0.654   2.516  1.0749  1.4280  0.3691
  620MOL0     H83643   1.993   0.618   2.731  0.5680 -1.5546 -0.0275
  620MOL0     H83644   1.836   0.619   2.633 -0.0800  0.8209 -1.4922
  620MOL0     H83645   1.941   0.428   2.499  0.4993 -1.9584 -0.0598
  620MOL0     H83646   2.070   0.433   2.614 -1.1974 -1.0324  0.0457
  620MOL0     H83647   1.913   0.396   2.810 -1.1826 -3.4178  0.8366
  620MOL0     H83648   1.932   0.264   2.705  1.8919  1.4198  1.2418
  620MOL0     H83649   1.695   0.446   2.730 -0.7753  0.5345 -0.6842
  620MOL0     H83650   1.709   0.333   2.589 -1.7551 -0.6306  1.2702
  620MOL0     H83651   1.631   0.086   2.611  2.2578  0.2764 -0.7749
  620MOL0     H83652   1.466  -0.100   2.811  0.6356  1.6484 -1.1875
  620MOL0     H83653   1.605  -0.148   2.712 -2.6313 -1.1518 -0.6486
  620MOL0     H83654   1.719  -0.218   2.925  0.0043  2.0342  1.4537
  620MOL0     H83655   1.593  -0.136   3.013 -0.1152  1.6362 -1.1671
  620MOL0     H83656   1.530  -0.362   2.815  1.3556  0.2795 -0.4626
  620MOL0     H83657   1.439  -0.317   2.965  0.4622 -1.1436  0.7928
  620MOL0     H83658   1.684  -0.492   2.919  1.3388 -2.6995  2.2642
  620MOL0     H83659   1.544  -0.522   3.025  0.4909 -0.7025  0.0348
  620MOL0     H83660   1.813  -0.353   3.326 -2.1613  0.2449  2.5532
  620MOL0     H83661   1.889  -0.508   3.498 -0.4602  0.3680  0.4327
  620MOL0     H83662   2.035  -1.009   3.606 -1.2004  0.8832 -0.4293
  620MOL0     H83663   2.044  -1.128   3.828 -0.3229 -0.0255  0.3303
  620MOL0     H83664   1.794  -1.281   4.168 -0.6565 -2.8334  0.5230
  620MOL0     H83665   1.676  -1.209   4.058 -0.2753 -0.9779  0.4351
  620MOL0     H83666   1.700  -1.394   3.901 -0.8944  1.8000  0.2575
  620MOL0     H83667   1.835  -1.467   3.991 -1.4925 -1.0554 -0.3073
  620MOL0     H83668   1.646  -1.604   4.032  1.0912 -0.9080  1.6856
  620MOL0     H83669   1.698  -1.525   4.174 -0.4543  4.1912  1.5299
  620MOL0     H83670   1.484  -1.384   4.009  0.1764  1.7091  0.6008
  620MOL0     H83671   1.521  -1.360   4.176  1.7038  0.5826 -0.6360
  620MOL0     H83672   1.432  -1.587   4.225 -1.8141 -0.6616  0.6406
  620MOL0     H83673   1.397  -1.628   4.057  1.2546 -0.5512  1.1768
  620MOL0     H83674   1.294  -1.397   4.232 -1.1040 -3.1403  2.1437
  620MOL0     H83675   1.246  -1.419   4.058  0.3756  0.6030 -0.2389
  620MOL0     H83676   1.201  -1.589   4.312 -2.4059 -1.0085  1.3524
  620MOL0     H83677   1.141  -1.649   4.149  0.7246  0.7926 -0.2928
  620MOL0     H83678   1.056  -1.392   4.266  1.4327  0.1385  0.9794
  620MOL0     H83679   0.970  -1.500   4.146  1.1002  1.6815 -0.9068
  620MOL0     H83680   1.621  -1.088   3.890  0.6357  0.0684  0.9873
  620MOL0     H83681   1.619  -0.955   3.672 -0.5503  0.8150 -1.5545
  620MOL0     H83682   1.704  -0.831   3.285  0.8432  0.2893  3.5215
  620MOL0     H83683   1.655  -0.675   3.101 -5.0290  1.8761  0.2900
  620MOL0     H83684   1.836   1.039   2.158 -0.1761 -2.2601  2.3406
  620MOL0     H83685   1.681   1.151   2.036  1.5624  3.7111 -0.0716
  620MOL0     H83686   1.281   1.378   2.067 -1.1309  0.7422 -1.5865
  620MOL0     H83687   1.113   1.532   1.995 -2.2634  0.2124 -2.2737
  620MOL0     H83688   1.215   1.917   1.961 -1.0835 -0.0268 -0.1235
  620MOL0     H83689   1.042   1.907   1.968 -0.3501 -0.9630  0.9244
  620MOL0     H83690   1.032   1.926   1.708 -2.7468  3.4120  1.0210
  620MOL0     H83691   1.203   1.966   1.718  1.3881 -0.3183  0.8092
  620MOL0     H83692   0.973   2.137   1.804  0.7311  2.6615  1.2626
  620MOL0     H83693   1.100   2.176   1.711  1.2573 -0.8626 -1.0835
  620MOL0     H83694   1.102   2.286   1.951  1.6557  0.3353 -2.1268
  620MOL0     H83695   1.079   2.127   2.011 -1.9160 -0.1658 -1.5147
  620MOL0     H83696   1.499   2.171   1.928  0.4559  0.0470  1.7383
  620MOL0     H83697   1.407   1.786   1.817  1.0423 -0.1536 -0.1389
  620MOL0     H83698   1.675   1.677   1.999  3.4346 -1.0717 -1.4266
  620MOL0     H83699   1.670   1.592   1.849  2.9741  1.8445  0.6378
  620MOL0     H83700   1.634   1.759   1.847  1.4173  0.2153 -0.9098
  621MOL0     O83701   9.931   1.872   3.820 -0.4474 -0.3107 -0.1935
  621MOL0     C83702   9.914   1.840   3.938  0.7560 -0.0170 -0.8695
  621MOL0     O83703   9.798   1.811   3.986 -0.3149 -0.3105  0.2930
  621MOL0     C83704   9.677   1.825   3.916  0.6649  0.6825 -0.3274
  621MOL0     C83705   9.571   1.915   3.951  0.2770  0.9577  0.4744
  621MOL0     C83706   9.462   1.929   3.869 -0.7784  0.1323 -0.5901
  621MOL0     C83707   9.453   1.860   3.745  0.4158 -0.4838 -0.4293
  621MOL0     O83708   9.331   1.870   3.676  1.2687  0.7443 -0.6478
  621MOL0     C83709   9.268   1.744   3.648  0.1150  0.2197 -0.0215
  621MOL0     C83710   9.174   1.692   3.763  0.6496 -0.6002 -0.2695
  621MOL0     C83711   9.068   1.576   3.720 -0.3250  0.2877 -0.8954
  621MOL0     C83712   8.963   1.617   3.623  0.5859  0.8305 -0.5522
  621MOL0     C83713   8.916   1.492   3.533 -0.1656  0.2261 -0.6665
  621MOL0     C83714   8.774   1.515   3.482 -0.1831  0.6349 -0.4634
  621MOL0     C83715   8.726   1.404   3.393  0.3000  0.4892  0.3247
  621MOL0     C83716   8.590   1.443   3.328  0.3093 -0.7497 -0.2919
  621MOL0     N83717   8.470   1.456   3.414  0.7675 -1.0034 -0.1600
  621MOL0     C83718   8.347   1.513   3.383  0.3873  0.1064  0.5474
  621MOL0     C83719   8.260   1.478   3.483 -0.9163 -0.2430  0.1818
  621MOL0     C83720   8.109   1.512   3.492  0.6788  0.9593 -0.9618
  621MOL0     C83721   8.008   1.427   3.407 -0.7934 -0.0049 -0.1961
  621MOL0     C83722   8.011   1.455   3.256 -0.4827 -0.8361  0.6485
  621MOL0     C83723   7.886   1.427   3.184 -0.0492 -0.6680  0.5221
  621MOL0     O83724   7.827   1.300   3.222  0.5466 -0.3193 -0.3263
  621MOL0     C83725   7.707   1.274   3.174  0.7309  0.4480 -0.5229
  621MOL0     C83726   7.641   1.341   3.067 -0.5487 -1.0790  0.2969
  621MOL0     C83727   7.528   1.279   3.010  0.0637  0.1656  0.0561
  621MOL0     C83728   7.479   1.158   3.065  1.1334  0.7016 -0.5036
  621MOL0     C83729   7.349   1.108   3.012 -0.3581 -0.2666 -0.3330
  621MOL0     O83730   7.268   1.196   2.955  0.0812 -1.2923 -0.5684
  621MOL0     C83731   7.138   1.166   2.916 -0.0665  0.2498  0.8271
  621MOL0     C83732   7.109   1.114   2.788 -0.0257 -0.2518  0.1231
  621MOL0     C83733   6.987   1.075   2.755 -0.3854  0.1002 -0.0112
  621MOL0     C83734   6.880   1.089   2.849 -1.5224 -1.2632 -0.5873
  621MOL0     O83735   6.742   1.085   2.816 -0.1983 -0.0106  0.5864
  621MOL0     C83736   6.697   1.043   2.690 -0.1658 -0.9033  0.3677
  621MOL0     C83737   6.560   1.098   2.665  0.2542 -0.7888 -0.4932
  621MOL0     C83738   6.499   1.030   2.537  0.4787 -1.2451  0.1588
  621MOL0     C83739   6.381   1.119   2.484 -0.2890 -0.2804  0.5013
  621MOL0     C83740   6.265   1.025   2.428 -0.6028 -0.1181 -1.0386
  621MOL0     C83741   6.280   0.984   2.282  0.8992  0.1880 -0.1905
  621MOL0     C83742   6.178   0.879   2.247  0.4872 -0.4090  0.8776
  621MOL0     C83743   6.038   0.899   2.291  0.8690  0.1239  0.7458
  621MOL0    Cl83744   5.982   1.066   2.237  0.0974 -0.1879 -0.0086
  621MOL0     C83745   6.912   1.147   2.976 -1.0434  0.8817 -0.3700
  621MOL0     C83746   7.042   1.176   3.008 -0.5156 -0.0067 -0.6148
  621MOL0     O83747   7.324   0.986   3.030 -0.0428 -0.3454 -0.0504
  621MOL0     C83748   7.536   1.102   3.175 -0.3547  0.0379 -0.0612
  621MOL0     C83749   7.650   1.152   3.226  0.0632 -0.2385  0.7888
  621MOL0     N83750   8.328   1.378   3.559 -0.0901 -0.1443  0.1358
  621MOL0     N83751   8.449   1.377   3.522 -0.0656 -0.1419  1.0338
  621MOL0     C83752   9.559   1.783   3.708 -0.4180  0.5980 -1.0768
  621MOL0     C83753   9.669   1.756   3.790  0.1955  0.0944  0.6125
  621MOL0     C83754  10.029   1.860   4.029  0.6369 -0.2446  0.1603
  621MOL0     C83755   9.989   1.897   4.162  0.0456 -0.7703  1.2973
  621MOL0     C83756  10.089   1.919   4.254 -0.2054 -0.0729  0.1056
  621MOL0     C83757  10.224   1.894   4.226 -0.0263 -0.4271  0.5850
  621MOL0     O83758  10.313   1.925   4.331 -0.4129 -0.1472 -0.2654
  621MOL0     C83759  10.448   1.926   4.289 -0.0139  0.9445  0.0294
  621MOL0     C83760  10.522   2.014   4.398 -0.6599  0.4713  0.2103
  621MOL0     C83761  10.515   1.946   4.530 -0.0023  0.0226  0.1381
  621MOL0     C83762  10.627   1.989   4.621  0.6095  0.2849  0.8752
  621MOL0     C83763  10.666   1.897   4.720  0.4978  0.5136  1.7754
  621MOL0     C83764  10.720   1.818   4.797  1.6064  0.1519 -0.2311
  621MOL0     C83765  10.265   1.845   4.103  0.8523  1.0323 -0.6048
  621MOL0     C83766  10.168   1.829   3.997  0.2249 -1.2973  0.0343
  621MOL0     C83767  10.224   1.790   3.859  0.3094  0.5162  0.1031
  621MOL0     H83768   9.578   1.981   4.037 -0.6765  0.4621  0.9558
  621MOL0     H83769   9.389   1.999   3.908  1.0800  0.1334  3.3327
  621MOL0     H83770   9.209   1.753   3.556 -0.9456 -1.2299  0.4919
  621MOL0     H83771   9.354   1.681   3.624  0.9999  1.6307 -0.7372
  621MOL0     H83772   9.118   1.775   3.806  1.4137  0.5915 -1.5043
  621MOL0     H83773   9.237   1.638   3.834 -0.9479 -1.2718  0.6899
  621MOL0     H83774   9.005   1.536   3.801 -1.9144  0.9600 -1.7406
  621MOL0     H83775   9.124   1.492   3.678  0.3503  0.2031  0.1421
  621MOL0     H83776   8.884   1.671   3.675  0.4516  1.4315 -1.3657
  621MOL0     H83777   9.004   1.694   3.557 -2.1288  1.3486 -1.7551
  621MOL0     H83778   8.988   1.477   3.452 -0.7581  3.3340 -1.9343
  621MOL0     H83779   8.913   1.402   3.594 -3.7552  1.0312  0.5947
  621MOL0     H83780   8.710   1.531   3.569 -1.4768 -2.9179 -0.5936
  621MOL0     H83781   8.786   1.611   3.430 -2.1470  2.0323  1.5156
  621MOL0     H83782   8.707   1.307   3.439  1.2294  1.1254  2.1247
  621MOL0     H83783   8.800   1.395   3.313 -2.6361  0.6909 -2.6469
  621MOL0     H83784   8.613   1.536   3.274 -0.4950 -0.1615  0.3515
  621MOL0     H83785   8.573   1.359   3.261 -1.3246 -1.9805  1.5485
  621MOL0     H83786   8.314   1.557   3.289  0.6876  0.2331  0.5012
  621MOL0     H83787   8.078   1.492   3.595  1.0996  2.5364 -0.5146
  621MOL0     H83788   8.080   1.615   3.470 -2.1849  0.4622  0.0125
  621MOL0     H83789   8.027   1.322   3.431 -3.2702 -0.3260  0.6899
  621MOL0     H83790   7.911   1.450   3.452  1.1122  2.0170  3.3175
  621MOL0     H83791   8.078   1.383   3.209 -0.3498 -1.4144  1.6866
  621MOL0     H83792   8.052   1.553   3.229  1.9070 -1.7672  0.7110
  621MOL0     H83793   7.916   1.428   3.078 -1.4236 -1.3084  0.1115
  621MOL0     H83794   7.825   1.516   3.202  0.1609  1.0483 -5.1273
  621MOL0     H83795   7.680   1.434   3.026 -0.6372 -0.4476  1.6109
  621MOL0     H83796   7.466   1.333   2.940 -2.6843 -1.0530  1.4096
  621MOL0     H83797   7.187   1.127   2.714  0.0679  2.8385  0.6039
  621MOL0     H83798   6.965   1.058   2.650 -5.3333  1.9723  0.4760
  621MOL0     H83799   6.763   1.078   2.611 -0.7234  1.2798  0.8061
  621MOL0     H83800   6.695   0.934   2.699  1.7765 -0.9650  0.3728
  621MOL0     H83801   6.502   1.070   2.754  1.5200 -2.5814 -0.1713
  621MOL0     H83802   6.573   1.207   2.665  1.9041 -0.9393  1.0585
  621MOL0     H83803   6.572   1.019   2.456  0.6372 -2.4832  0.4565
  621MOL0     H83804   6.456   0.930   2.546 -2.9193 -0.0887 -1.1686
  621MOL0     H83805   6.431   1.172   2.402 -0.7797 -0.5089  0.0466
  621MOL0     H83806   6.339   1.179   2.564 -0.6140 -2.9512  2.4508
  621MOL0     H83807   6.176   1.088   2.442 -0.1020  0.3855  0.0048
  621MOL0     H83808   6.266   0.936   2.492 -1.8847  1.3073  1.1049
  621MOL0     H83809   6.283   1.068   2.212  0.9482 -0.4300 -0.9298
  621MOL0     H83810   6.374   0.930   2.277 -1.6238 -4.9202  0.9201
  621MOL0     H83811   6.204   0.782   2.291 -2.8603 -0.8153  2.2726
  621MOL0     H83812   6.175   0.880   2.138 -1.5977  1.5575  0.8817
  621MOL0     H83813   5.985   0.822   2.234  1.6185  0.4028 -0.3628
  621MOL0     H83814   6.027   0.868   2.395 -0.9255 -2.0641 -0.0247
  621MOL0     H83815   6.841   1.166   3.055  1.0109  1.1092  1.5173
  621MOL0     H83816   7.062   1.208   3.110 -2.5451 -1.3711  0.2635
  621MOL0     H83817   7.496   1.008   3.212  1.5863 -0.1425  1.8404
  621MOL0     H83818   7.693   1.104   3.313  0.5704  0.2890  0.8350
  621MOL0     H83819   9.562   1.731   3.613  1.1992 -0.3200 -0.5548
  621MOL0     H83820   9.754   1.695   3.762 -1.0611 -0.7392 -1.5760
  621MOL0     H83821   9.883   1.907   4.185 -0.2914  3.9299 -0.9503
  621MOL0     H83822  10.066   1.949   4.356 -1.8021  0.1578 -0.2912
  621MOL0     H83823  10.471   1.967   4.190 -0.8068 -0.8505 -0.9311
  621MOL0     H83824  10.489   1.825   4.286 -0.0003  0.7655  3.1659
  621MOL0     H83825  10.467   2.108   4.413 -0.5277  0.2864  2.0223
  621MOL0     H83826  10.625   2.027   4.362  0.7159 -1.3345  3.1576
  621MOL0     H83827  10.524   1.837   4.525 -2.4351 -0.3076  1.4862
  621MOL0     H83828  10.415   1.967   4.570 -1.5574  0.5083 -3.5843
  621MOL0     H83829  10.720   2.006   4.565 -1.2950  0.3578 -2.5403
  621MOL0     H83830  10.595   2.078   4.676  0.9076  1.8834 -1.3893
  621MOL0     H83831  10.757   1.741   4.861  1.9530  0.8656  0.4417
  621MOL0     H83832  10.358   1.804   4.064 -0.7724 -2.0378 -1.5196
  621MOL0     H83833  10.280   1.876   3.822  0.2340  0.8395  0.7360
  621MOL0     H83834  10.278   1.696   3.875 -2.3579 -0.9741  0.9540
  621MOL0     H83835  10.140   1.763   3.795  0.2803  0.9817 -0.0539
  622MOL0     O83836   2.988   0.595   3.051  0.0066 -0.5387  0.1776
  622MOL0     C83837   2.872   0.554   3.050  0.1408  0.9017 -0.0177
  622MOL0     O83838   2.793   0.534   3.160 -0.0483 -0.6497  0.9530
  622MOL0     C83839   2.846   0.540   3.288  0.2862  0.1321  0.9061
  622MOL0     C83840   2.946   0.615   3.333 -0.5720 -0.2413  0.0764
  622MOL0     C83841   2.972   0.606   3.470  0.3440 -0.3781  0.0281
  622MOL0     C83842   2.903   0.517   3.550  0.3055 -0.1411  0.7466
  622MOL0     O83843   2.938   0.506   3.681 -0.5650  0.2597 -0.0299
  622MOL0     C83844   2.824   0.483   3.770  0.6830 -0.1327 -0.0467
  622MOL0     C83845   2.833   0.334   3.809  0.2991  0.7729 -0.0450
  622MOL0     C83846   2.709   0.281   3.887 -0.3968 -0.3546  0.7212
  622MOL0     C83847   2.720   0.134   3.902  0.4742 -0.2018  0.1364
  622MOL0     C83848   2.578   0.065   3.947 -0.0870 -0.0274 -0.6693
  622MOL0     C83849   2.536   0.093   4.096  0.4539  0.0281 -0.0104
  622MOL0     C83850   2.389   0.047   4.131  0.2103 -0.0625 -0.4091
  622MOL0     C83851   2.381   0.075   4.282 -0.0610  0.8699 -0.2338
  622MOL0     N83852   2.260   0.029   4.342 -0.0447 -0.6109  1.0269
  622MOL0     C83853   2.136   0.049   4.289 -0.2976 -0.8222 -1.0998
  622MOL0     C83854   2.057  -0.002   4.372  0.6200  0.5595 -1.3612
  622MOL0     C83855   1.903  -0.010   4.362 -0.1484  0.4814  0.1527
  622MOL0     C83856   1.847  -0.085   4.237 -0.6470  0.0066 -0.9733
  622MOL0     C83857   1.698  -0.072   4.232  0.2422  0.6009  0.2736
  622MOL0     C83858   1.650  -0.161   4.128  0.2671 -0.2637 -0.5032
  622MOL0     O83859   1.511  -0.188   4.146 -0.7631 -0.0850  0.0584
  622MOL0     C83860   1.465  -0.316   4.135 -0.0185  0.0786 -0.8281
  622MOL0     C83861   1.532  -0.425   4.184  0.5665  0.1789 -0.2960
  622MOL0     C83862   1.469  -0.546   4.172  0.3851 -0.3127  0.0998
  622MOL0     C83863   1.350  -0.564   4.108 -0.1803 -0.4107 -0.1386
  622MOL0     C83864   1.297  -0.697   4.087  0.4856  0.8936  0.5067
  622MOL0     O83865   1.380  -0.803   4.108  0.0207  0.1925 -1.1952
  622MOL0     C83866   1.347  -0.916   4.044  0.9106  0.0657 -0.2679
  622MOL0     C83867   1.383  -0.918   3.909 -0.5632 -0.6459 -0.6990
  622MOL0     C83868   1.340  -1.031   3.838 -0.8009 -0.7152 -0.1736
  622MOL0     C83869   1.279  -1.134   3.895 -0.3851  0.5760 -1.1542
  622MOL0     O83870   1.259  -1.259   3.834 -0.6592  0.7130 -0.1439
  622MOL0     C83871   1.138  -1.258   3.750  0.6068  0.2572  0.1265
  622MOL0     C83872   1.133  -1.386   3.665  0.2682  0.4803 -0.7682
  622MOL0     C83873   1.265  -1.409   3.584  1.2632 -0.7200 -0.7289
  622MOL0     C83874   1.280  -1.307   3.475  0.1273  0.1932  0.2941
  622MOL0     C83875   1.425  -1.261   3.460  0.9361 -0.3276  0.7533
  622MOL0     C83876   1.420  -1.149   3.356 -0.7949  0.3078  0.1558
  622MOL0     C83877   1.547  -1.079   3.313 -0.3773 -0.2640 -0.6307
  622MOL0     C83878   1.645  -1.156   3.221 -0.2951  0.3438  0.5829
  622MOL0    Cl83879   1.749  -1.048   3.128 -0.2895  0.2470  0.2756
  622MOL0     C83880   1.254  -1.129   4.039  0.0876  0.9792 -0.4774
  622MOL0     C83881   1.293  -1.023   4.113  0.2680 -0.5920 -0.7911
  622MOL0     O83882   1.175  -0.705   4.072  0.5578 -0.3609 -0.3304
  622MOL0     C83883   1.283  -0.456   4.065  0.0621 -0.6031 -0.3360
  622MOL0     C83884   1.344  -0.326   4.077 -1.2102 -0.0700  0.2044
  622MOL0     N83885   2.123  -0.070   4.475 -0.6537  0.0558  0.4615
  622MOL0     N83886   2.248  -0.050   4.447  0.7499  0.2276  0.1736
  622MOL0     C83887   2.809   0.436   3.489 -0.0970  0.8239  0.6527
  622MOL0     C83888   2.784   0.445   3.358  0.1219  0.2770 -1.3359
  622MOL0     C83889   2.818   0.545   2.917 -1.1871  0.3400 -0.2007
  622MOL0     C83890   2.897   0.579   2.803 -0.5021  0.3378 -0.2756
  622MOL0     C83891   2.845   0.581   2.676 -0.0885  1.4870 -0.2263
  622MOL0     C83892   2.712   0.544   2.646 -0.3610 -0.2173  0.4143
  622MOL0     O83893   2.652   0.544   2.524 -0.2062 -0.3292  0.6102
  622MOL0     C83894   2.722   0.576   2.400  0.0111  0.4308 -0.3728
  622MOL0     C83895   2.746   0.426   2.337 -0.7719  0.3771  0.1006
  622MOL0     C83896   2.895   0.379   2.381  0.1827 -0.2465 -0.2479
  622MOL0     C83897   2.933   0.242   2.324  0.0502 -0.3776 -0.3649
  622MOL0     C83898   2.868   0.135   2.403  0.5853 -0.7061 -0.7397
  622MOL0     C83899   2.813   0.041   2.461  0.5660  0.2018 -0.8473
  622MOL0     C83900   2.632   0.518   2.759  1.3613  0.0515 -0.4926
  622MOL0     C83901   2.677   0.507   2.888 -0.6829 -0.3873  1.5868
  622MOL0     C83902   2.585   0.463   3.000 -0.2391 -0.9197 -0.7058
  622MOL0     H83903   3.007   0.687   3.279 -0.2861 -0.4651  0.0947
  622MOL0     H83904   3.044   0.665   3.526 -1.0244  0.9580  0.4566
  622MOL0     H83905   2.843   0.538   3.862  1.4331  0.9566 -0.8262
  622MOL0     H83906   2.729   0.519   3.730  1.5146  0.2449 -1.7976
  622MOL0     H83907   2.924   0.333   3.869  1.9438  0.3748 -2.4150
  622MOL0     H83908   2.836   0.282   3.712 -3.7925  0.1013 -0.0103
  622MOL0     H83909   2.618   0.310   3.834  0.7873  0.0629 -1.2024
  622MOL0     H83910   2.713   0.327   3.986 -0.9536 -0.5589  0.8391
  622MOL0     H83911   2.753   0.096   3.805  0.8499  0.8025 -0.1320
  622MOL0     H83912   2.797   0.118   3.978 -2.0339 -0.7505  2.7542
  622MOL0     H83913   2.500   0.106   3.883 -0.0520  3.3140  1.2330
  622MOL0     H83914   2.584  -0.043   3.925  6.1098  0.0124 -1.1757
  622MOL0     H83915   2.602   0.033   4.159  1.5600  0.5727 -0.6236
  622MOL0     H83916   2.550   0.200   4.115 -1.1427 -0.1004  2.3033
  622MOL0     H83917   2.367  -0.059   4.115 -0.2872 -0.0807  0.3194
  622MOL0     H83918   2.315   0.109   4.079  1.7351  0.1099 -2.4929
  622MOL0     H83919   2.476   0.041   4.324  0.8473 -0.1658 -2.9421
  622MOL0     H83920   2.383   0.184   4.290  0.8142  0.8154  0.5083
  622MOL0     H83921   2.108   0.101   4.199 -3.2135 -0.3781 -0.0418
  622MOL0     H83922   1.869  -0.068   4.449  5.0934 -2.8294  0.4370
  622MOL0     H83923   1.867   0.093   4.369  1.3775  0.9504  1.5012
  622MOL0     H83924   1.901  -0.057   4.146  1.7654  1.1396  0.6994
  622MOL0     H83925   1.873  -0.190   4.254 -1.2694 -0.3316 -2.0876
  622MOL0     H83926   1.666   0.032   4.222 -0.0509  0.6203  1.3062
  622MOL0     H83927   1.666  -0.103   4.332 -0.7415  1.4201  0.2234
  622MOL0     H83928   1.709  -0.251   4.109 -0.5183 -0.7540 -0.6738
  622MOL0     H83929   1.665  -0.108   4.034  2.6777 -2.8395 -1.7039
  622MOL0     H83930   1.623  -0.428   4.242 -0.3735 -4.6076  1.4163
  622MOL0     H83931   1.513  -0.634   4.218 -1.8933 -1.4857  0.1771
  622MOL0     H83932   1.434  -0.842   3.851 -3.0395  0.1746 -1.9425
  622MOL0     H83933   1.355  -1.047   3.732 -0.5310 -0.8960 -0.1098
  622MOL0     H83934   1.048  -1.270   3.811  0.7570 -1.3340  0.0709
  622MOL0     H83935   1.131  -1.170   3.685 -3.7566 -0.4743 -0.6889
  622MOL0     H83936   1.129  -1.482   3.717  3.1236  0.2641 -0.7691
  622MOL0     H83937   1.051  -1.398   3.593  0.2056 -0.2093 -0.5879
  622MOL0     H83938   1.352  -1.395   3.649 -1.1642 -1.0698  2.9405
  622MOL0     H83939   1.276  -1.515   3.558  2.2908 -1.4390  2.1843
  622MOL0     H83940   1.210  -1.224   3.491 -2.7622 -2.1295  0.7531
  622MOL0     H83941   1.262  -1.355   3.379 -0.6233 -0.8236  0.9171
  622MOL0     H83942   1.497  -1.339   3.434  2.4279  1.8224 -2.0296
  622MOL0     H83943   1.455  -1.208   3.550  0.3822  4.5388 -1.6097
  622MOL0     H83944   1.370  -1.183   3.265 -2.3888  2.0029  0.3225
  622MOL0     H83945   1.347  -1.073   3.387 -0.8615  0.4572 -0.3467
  622MOL0     H83946   1.602  -1.043   3.400 -2.5026  0.7600  0.3720
  622MOL0     H83947   1.512  -0.990   3.260 -1.2891  1.0334  1.9887
  622MOL0     H83948   1.704  -1.227   3.279  0.7140  1.6416  1.2100
  622MOL0     H83949   1.585  -1.206   3.144 -0.0048 -0.5779  0.9462
  622MOL0     H83950   1.204  -1.214   4.084 -0.9804  2.3394  1.0056
  622MOL0     H83951   1.284  -1.006   4.220 -0.2449  3.0376 -1.2946
  622MOL0     H83952   1.185  -0.454   4.018  0.6014 -0.4603 -1.4860
  622MOL0     H83953   1.299  -0.233   4.043  2.6422  2.0485  0.3846
  622MOL0     H83954   2.750   0.359   3.538 -0.4308  1.0663  0.6393
  622MOL0     H83955   2.711   0.374   3.318 -0.4115 -0.9007  1.4739
  622MOL0     H83956   2.999   0.612   2.816 -0.0266  0.0550 -2.8176
  622MOL0     H83957   2.921   0.593   2.599  2.1361  1.9167  1.8996
  622MOL0     H83958   2.811   0.639   2.410 -0.8450  1.7443 -0.7310
  622MOL0     H83959   2.654   0.637   2.340 -0.1688 -1.0768 -1.7507
  622MOL0     H83960   2.754   0.436   2.228  1.0815 -0.8184  0.0722
  622MOL0     H83961   2.665   0.363   2.373  0.6373 -1.2014  0.6765
  622MOL0     H83962   2.898   0.374   2.491 -1.3461  4.5565  0.2681
  622MOL0     H83963   2.959   0.461   2.348  0.4648 -0.1281  0.5588
  622MOL0     H83964   2.925   0.231   2.215  1.0476  1.5285 -0.6680
  622MOL0     H83965   3.038   0.239   2.353  0.1904  1.8040 -0.4523
  622MOL0     H83966   2.753  -0.036   2.505  0.4252  0.8525  0.1358
  622MOL0     H83967   2.525   0.499   2.752  1.5405 -1.4632  0.5217
  622MOL0     H83968   2.636   0.382   3.053  1.5944 -0.2054 -1.3016
  622MOL0     H83969   2.556   0.537   3.075  0.2207 -0.3600 -1.0683
  622MOL0     H83970   2.498   0.423   2.947 -1.3324  0.5302 -0.0756
  623MOL0     O83971  11.215   1.847   5.372  0.2546  0.3451  0.7783
  623MOL0     C83972  11.278   1.748   5.403  0.2034  0.3993  0.1493
  623MOL0     O83973  11.248   1.618   5.377  0.7414  0.1518  0.3033
  623MOL0     C83974  11.139   1.576   5.312 -0.1967 -0.6315  0.8727
  623MOL0     C83975  11.012   1.632   5.306  0.5100 -0.8547 -0.0845
  623MOL0     C83976  10.901   1.561   5.245  0.4450 -0.6350 -0.0046
  623MOL0     C83977  10.925   1.434   5.189 -1.5829  0.1245  0.3450
  623MOL0     O83978  10.816   1.370   5.143 -0.8106  0.4239  0.0266
  623MOL0     C83979  10.756   1.410   5.023 -0.3959  0.4330  0.0989
  623MOL0     C83980  10.601   1.421   5.027 -0.7029  1.0226  0.3698
  623MOL0     C83981  10.542   1.471   4.897  0.0106 -0.4794  0.9852
  623MOL0     C83982  10.582   1.401   4.768 -0.6594  1.2657  0.0736
  623MOL0     C83983  10.479   1.417   4.653 -0.6062 -0.7044 -0.5340
  623MOL0     C83984  10.481   1.564   4.618  0.8408 -0.0455  1.2363
  623MOL0     C83985  10.379   1.589   4.500  0.8578  0.1623 -0.9756
  623MOL0     C83986  10.262   1.674   4.551  0.3777  0.2011  0.4907
  623MOL0     N83987  10.204   1.611   4.673  0.1847 -0.2387  0.5514
  623MOL0     C83988  10.187   1.679   4.788  0.0900 -0.1024  0.0661
  623MOL0     C83989  10.120   1.583   4.869  1.3125 -0.2418 -0.1452
  623MOL0     C83990  10.086   1.609   5.012 -0.4368  0.7870 -0.7284
  623MOL0     C83991   9.941   1.557   5.051 -1.3386  0.7345  0.4380
  623MOL0     C83992   9.885   1.620   5.181 -0.9653 -0.2659  0.5784
  623MOL0     C83993   9.975   1.606   5.310 -0.8392 -0.8130  0.8624
  623MOL0     O83994  10.079   1.705   5.333  0.6690  0.5956 -0.4482
  623MOL0     C83995  10.186   1.660   5.400 -0.3759 -0.6084  0.8197
  623MOL0     C83996  10.318   1.680   5.349 -0.1342 -0.6297  0.4203
  623MOL0     C83997  10.428   1.629   5.420  0.2082  0.1230 -0.4101
  623MOL0     C83998  10.410   1.575   5.553  0.1775 -0.5407 -0.0141
  623MOL0     C83999  10.529   1.516   5.629 -1.0598  0.6625  0.5200
  623MOL0     O84000  10.653   1.546   5.595  0.5148  0.3190  1.5688
  623MOL0     C84001  10.761   1.513   5.667 -0.0544  0.2026 -0.2359
  623MOL0     C84002  10.877   1.462   5.611 -0.2233 -0.1657 -0.3192
  623MOL0     C84003  10.989   1.444   5.691  0.0706  0.2368 -0.7278
  623MOL0     C84004  10.992   1.494   5.822 -0.3774 -0.1590 -0.2000
  623MOL0     O84005  11.112   1.478   5.887 -0.1653  0.3925  0.9596
  623MOL0     C84006  11.130   1.550   6.010  0.9781 -0.4924 -0.6606
  623MOL0     C84007  11.273   1.559   6.065  0.4891  0.9898  0.3677
  623MOL0     C84008  11.319   1.699   6.117  0.1209 -0.4502 -0.3081
  623MOL0     C84009  11.448   1.712   6.200 -0.8033  0.7599 -0.0524
  623MOL0     C84010  11.571   1.670   6.116 -0.2434  0.9255 -0.0360
  623MOL0     C84011  11.693   1.703   6.202 -0.3258 -0.4187 -0.0136
  623MOL0     C84012  11.730   1.846   6.208  1.6135 -1.0410  0.0576
  623MOL0     C84013  11.806   1.858   6.327  0.3353  0.9273 -0.1347
  623MOL0    Cl84014  11.900   2.010   6.355  0.1847  0.2697  0.1697
  623MOL0     C84015  10.874   1.549   5.880 -1.2944 -0.2523 -0.1140
  623MOL0     C84016  10.756   1.555   5.802 -0.5263 -0.8132  0.0284
  623MOL0     O84017  10.498   1.439   5.720  0.6881  0.2250 -0.5990
  623MOL0     C84018  10.281   1.565   5.599 -0.8481  1.5662  0.1878
  623MOL0     C84019  10.172   1.592   5.521  0.0780  0.4965  1.3654
  623MOL0     N84020  10.091   1.468   4.798  0.3002 -0.1436  0.2894
  623MOL0     N84021  10.145   1.482   4.677  0.5244 -0.6330 -0.5799
  623MOL0     C84022  11.053   1.373   5.199  0.3356 -0.6521  0.4222
  623MOL0     C84023  11.160   1.445   5.252  0.7695  0.1299  0.7396
  623MOL0     C84024  11.394   1.775   5.485 -1.0335  0.3715 -0.2297
  623MOL0     C84025  11.488   1.865   5.433  0.2808 -0.6363  0.1917
  623MOL0     C84026  11.595   1.905   5.507  0.1110 -0.3132 -0.2741
  623MOL0     C84027  11.624   1.840   5.630 -1.1239 -0.9483  0.6858
  623MOL0     O84028  11.741   1.873   5.713  0.3961  0.9576  0.5949
  623MOL0     C84029  11.814   1.987   5.680 -0.1436 -0.8571 -0.8386
  623MOL0     C84030  11.943   1.990   5.769  0.7166  1.1993 -0.2470
  623MOL0     C84031  12.017   2.115   5.748  0.5118 -0.1495 -0.2414
  623MOL0     C84032  12.146   2.140   5.828 -1.1352 -0.4411  0.6956
  623MOL0     C84033  12.239   2.033   5.786 -0.4998  0.0074  0.1350
  623MOL0     C84034  12.322   1.951   5.751  0.0732 -0.0903  0.7871
  623MOL0     C84035  11.537   1.747   5.687 -0.2412 -1.1540  0.2708
  623MOL0     C84036  11.426   1.708   5.612  0.8217 -0.1977 -0.6000
  623MOL0     C84037  11.323   1.617   5.670 -0.6214 -1.4282 -0.6378
  623MOL0     H84038  10.997   1.717   5.372  0.6481 -1.3231  0.5598
  623MOL0     H84039  10.799   1.593   5.263  1.5039  1.0655  4.0909
  623MOL0     H84040  10.804   1.507   5.005  2.6606 -0.8199  0.9883
  623MOL0     H84041  10.781   1.350   4.935 -0.9802 -0.5671  0.5971
  623MOL0     H84042  10.567   1.483   5.111 -1.8094 -1.6573  2.0471
  623MOL0     H84043  10.564   1.320   5.047  1.9623  0.0609  0.8429
  623MOL0     H84044  10.570   1.574   4.872 -1.0843 -1.0282 -3.3712
  623MOL0     H84045  10.435   1.472   4.915 -0.0371  2.8910  1.0949
  623MOL0     H84046  10.679   1.441   4.740  0.8478 -2.5597 -0.8230
  623MOL0     H84047  10.592   1.296   4.797 -0.4566  1.9580  2.8759
  623MOL0     H84048  10.512   1.359   4.567  1.8040  4.3740 -3.4707
  623MOL0     H84049  10.377   1.398   4.689 -1.1216  2.8495  0.3184
  623MOL0     H84050  10.445   1.623   4.703 -2.0103  0.7877 -0.4232
  623MOL0     H84051  10.579   1.593   4.577 -0.1180  2.7032  0.6598
  623MOL0     H84052  10.338   1.493   4.468 -0.8615 -0.2416  2.0196
  623MOL0     H84053  10.428   1.647   4.421 -0.6280  0.5897 -1.6282
  623MOL0     H84054  10.288   1.779   4.571 -1.2223  0.3418  2.0469
  623MOL0     H84055  10.179   1.662   4.482 -0.3025 -0.6301  1.4183
  623MOL0     H84056  10.219   1.781   4.808  0.1340 -0.0030 -0.4954
  623MOL0     H84057  10.168   1.558   5.064  0.0592  0.6047 -1.6658
  623MOL0     H84058  10.089   1.716   5.035 -1.4880  1.0907 -1.8752
  623MOL0     H84059   9.881   1.566   4.960 -1.7411  2.1949  0.8297
  623MOL0     H84060   9.951   1.448   5.064 -1.0961  0.5483 -1.1099
  623MOL0     H84061   9.797   1.568   5.220  0.0302 -1.0521  1.8841
  623MOL0     H84062   9.867   1.724   5.152  1.6048 -0.1627 -0.9475
  623MOL0     H84063  10.019   1.506   5.303 -2.0433 -1.4183  1.5423
  623MOL0     H84064   9.904   1.615   5.393 -0.4873  0.8260  1.0174
  623MOL0     H84065  10.345   1.735   5.260  2.2823  1.2584  2.1830
  623MOL0     H84066  10.529   1.643   5.385  1.3062  2.2822  3.0674
  623MOL0     H84067  10.892   1.429   5.509  0.2569 -2.2204  0.3757
  623MOL0     H84068  11.083   1.398   5.663  0.6586  0.4921  0.7222
  623MOL0     H84069  11.089   1.651   5.997 -1.1079 -1.1383  0.4886
  623MOL0     H84070  11.073   1.518   6.098  1.2954  0.8862  0.0891
  623MOL0     H84071  11.273   1.481   6.141 -2.7409  1.9941  1.5195
  623MOL0     H84072  11.348   1.543   5.986 -0.4753  0.6851 -0.5105
  623MOL0     H84073  11.322   1.769   6.033 -1.9373  1.6254  1.1956
  623MOL0     H84074  11.243   1.736   6.187  1.5677  2.4140 -0.1186
  623MOL0     H84075  11.435   1.654   6.292 -4.1182  2.0514  0.4554
  623MOL0     H84076  11.455   1.817   6.232  0.2296  0.9501 -0.8843
  623MOL0     H84077  11.572   1.732   6.026 -0.5376  1.0858  0.0701
  623MOL0     H84078  11.575   1.565   6.084  0.1870  0.5427  1.2293
  623MOL0     H84079  11.673   1.668   6.304 -2.5915 -1.1585 -0.6748
  623MOL0     H84080  11.785   1.657   6.163  0.7297  2.3921 -1.0605
  623MOL0     H84081  11.640   1.909   6.215  1.0859 -1.4402 -2.1214
  623MOL0     H84082  11.785   1.890   6.124  2.0443  0.3679  1.0522
  623MOL0     H84083  11.754   1.837   6.421  1.5815  1.7897  0.7831
  623MOL0     H84084  11.889   1.788   6.313 -1.5206 -1.3828 -0.3126
  623MOL0     H84085  10.866   1.559   5.987  0.5137 -1.5909  0.1824
  623MOL0     H84086  10.677   1.606   5.857  0.8623 -0.3479  1.6739
  623MOL0     H84087  10.260   1.495   5.679 -2.4565  1.2320 -0.4781
  623MOL0     H84088  10.072   1.563   5.551 -0.1242 -0.4006 -0.0438
  623MOL0     H84089  11.069   1.273   5.160  2.4051 -0.5785  0.9396
  623MOL0     H84090  11.255   1.397   5.272  0.1824 -0.9529  1.0550
  623MOL0     H84091  11.466   1.908   5.335 -0.3936  1.2365  1.1083
  623MOL0     H84092  11.664   1.982   5.475 -0.0503 -1.3927 -3.6589
  623MOL0     H84093  11.766   2.083   5.696  3.0931  0.9436 -1.1371
  623MOL0     H84094  11.852   1.968   5.579  0.2480 -0.8530 -0.6911
  623MOL0     H84095  12.001   1.899   5.750 -0.1066  0.4191  0.8736
  623MOL0     H84096  11.910   1.989   5.873  3.2969 -0.2261  0.6707
  623MOL0     H84097  11.953   2.199   5.774 -1.2641 -1.7626  0.8902
  623MOL0     H84098  12.035   2.113   5.640 -1.4851  1.0353 -0.6346
  623MOL0     H84099  12.181   2.239   5.797 -0.5049 -1.2232 -1.2166
  623MOL0     H84100  12.115   2.146   5.933 -2.2273  0.4828  0.3336
  623MOL0     H84101  12.397   1.888   5.708  0.6638  1.5100 -0.6221
  623MOL0     H84102  11.550   1.729   5.793 -1.7705  0.1682  0.7018
  623MOL0     H84103  11.273   1.539   5.612 -1.5141 -1.6576  0.3977
  623MOL0     H84104  11.377   1.569   5.752 -2.5902 -0.1500  1.5284
  623MOL0     H84105  11.243   1.673   5.718  1.4782  0.7753  0.5201
  624MOL0     O84106   3.088   1.516   7.428  0.1500 -0.9576  0.8548
  624MOL0     C84107   3.173   1.448   7.379 -0.4952 -0.6632 -1.0674
  624MOL0     O84108   3.227   1.475   7.255 -0.4104 -0.0156 -0.0585
  624MOL0     C84109   3.166   1.566   7.168  0.8779 -0.9635  0.0308
  624MOL0     C84110   3.122   1.541   7.033 -0.1936  1.0994 -0.5190
  624MOL0     C84111   3.048   1.636   6.968  0.2971 -0.5851 -0.5605
  624MOL0     C84112   3.006   1.751   7.025  0.1017 -0.9424 -0.1404
  624MOL0     O84113   2.912   1.824   6.955 -0.2914  0.5395  0.4808
  624MOL0     C84114   2.811   1.896   7.011 -0.1146 -0.7919 -0.8331
  624MOL0     C84115   2.774   2.015   6.922  0.5129 -0.1242 -0.7319
  624MOL0     C84116   2.702   1.983   6.788  0.0607 -0.6637 -0.2912
  624MOL0     C84117   2.645   1.840   6.778 -0.0095  0.4140  0.3263
  624MOL0     C84118   2.556   1.815   6.648  0.5251  0.7509 -0.0667
  624MOL0     C84119   2.426   1.883   6.651 -0.5953  0.7196 -0.8051
  624MOL0     C84120   2.362   1.868   6.516 -1.2786  1.1645  0.6663
  624MOL0     C84121   2.235   1.942   6.493  0.8416 -0.3747  0.6098
  624MOL0     N84122   2.256   2.080   6.447 -0.8015 -0.1051  0.3118
  624MOL0     C84123   2.212   2.190   6.511  0.3469  0.2783 -0.0821
  624MOL0     C84124   2.209   2.291   6.424 -0.3899 -0.4686 -0.2411
  624MOL0     C84125   2.151   2.424   6.467 -1.0361  0.8193  0.6117
  624MOL0     C84126   2.105   2.511   6.347 -0.5108  0.5078 -0.9627
  624MOL0     C84127   2.206   2.548   6.233  0.0586  0.2413 -0.3173
  624MOL0     C84128   2.334   2.598   6.305  0.0420  0.2486  1.0193
  624MOL0     O84129   2.318   2.722   6.380 -0.2642 -0.5633  0.6948
  624MOL0     C84130   2.421   2.745   6.471 -0.1726  0.1876  0.2773
  624MOL0     C84131   2.384   2.842   6.567 -0.0006  0.4198 -0.4852
  624MOL0     C84132   2.472   2.865   6.676  0.3836 -0.0160  0.3065
  624MOL0     C84133   2.600   2.806   6.689 -0.1308  0.3998  0.2880
  624MOL0     C84134   2.689   2.835   6.791 -0.7846 -0.2122 -0.5459
  624MOL0     O84135   2.789   2.746   6.810  0.1496  0.1460  0.0648
  624MOL0     C84136   2.866   2.740   6.927  0.0550 -0.2252  0.0317
  624MOL0     C84137   2.799   2.720   7.053 -0.1368 -0.3543  0.4514
  624MOL0     C84138   2.868   2.701   7.167 -0.6108 -0.4153 -0.7671
  624MOL0     C84139   3.008   2.663   7.165  0.6778  0.1660 -0.7049
  624MOL0     O84140   3.049   2.613   7.287 -0.9395 -0.3380 -0.0133
  624MOL0     C84141   3.171   2.540   7.303 -0.9131  0.3621 -0.2617
  624MOL0     C84142   3.181   2.485   7.456 -0.9503  0.3236  0.2637
  624MOL0     C84143   3.309   2.530   7.528  0.4080 -0.1374  0.0927
  624MOL0     C84144   3.433   2.468   7.487  0.1345  0.1962 -0.0739
  624MOL0     C84145   3.558   2.520   7.564  0.2536  0.6276 -1.1507
  624MOL0     C84146   3.685   2.445   7.519 -0.6759 -0.0753  0.0449
  624MOL0     C84147   3.751   2.520   7.404  0.3372 -1.1297 -0.1900
  624MOL0     C84148   3.868   2.456   7.332 -0.0651  0.0369  0.2746
  624MOL0    Cl84149   3.803   2.308   7.250 -0.3799 -0.1783  0.3251
  624MOL0     C84150   3.072   2.667   7.036 -0.6335  0.4382  0.1395
  624MOL0     C84151   2.996   2.710   6.923 -0.6067  0.2446  0.6116
  624MOL0     O84152   2.665   2.924   6.875  0.4192  0.4609  0.7525
  624MOL0     C84153   2.628   2.711   6.589 -0.3563  0.3857 -0.3678
  624MOL0     C84154   2.548   2.682   6.483  0.2787  0.3550  0.5817
  624MOL0     N84155   2.275   2.240   6.305 -0.1986  0.5440 -0.3328
  624MOL0     N84156   2.291   2.111   6.320 -0.0126  0.0054 -0.4813
  624MOL0     C84157   3.061   1.800   7.150 -0.0039 -0.0996 -0.4417
  624MOL0     C84158   3.138   1.701   7.218  0.2531  1.2963  1.0601
  624MOL0     C84159   3.205   1.326   7.456  0.5567  0.3195  0.0640
  624MOL0     C84160   3.208   1.201   7.389 -0.2793  0.2419  0.1398
  624MOL0     C84161   3.235   1.085   7.453  0.4067 -0.2361 -0.0514
  624MOL0     C84162   3.277   1.089   7.591 -0.0415 -0.1278  0.3773
  624MOL0     O84163   3.326   0.980   7.653  0.3250 -0.5522 -0.3559
  624MOL0     C84164   3.399   0.885   7.584 -1.0530  0.1256  0.7594
  624MOL0     C84165   3.460   0.783   7.682 -0.5327 -0.8198 -0.4645
  624MOL0     C84166   3.583   0.706   7.629 -0.0241  0.4035 -0.0047
  624MOL0     C84167   3.553   0.625   7.502 -0.0096  0.0230 -0.0369
  624MOL0     C84168   3.438   0.528   7.535  0.2185 -0.1705  0.2822
  624MOL0     C84169   3.352   0.454   7.570  0.1783 -0.1461  0.7698
  624MOL0     C84170   3.272   1.212   7.661  0.2664  0.5675  0.3690
  624MOL0     C84171   3.242   1.332   7.595  0.3371 -0.4979  0.1330
  624MOL0     C84172   3.248   1.460   7.676 -0.6371 -0.0968 -0.2237
  624MOL0     H84173   3.147   1.446   6.986  0.9941  1.8119 -1.3906
  624MOL0     H84174   3.006   1.621   6.869 -0.0674 -1.2615 -0.3139
  624MOL0     H84175   2.725   1.829   7.020  0.9732 -2.1387  0.1839
  624MOL0     H84176   2.829   1.935   7.112  0.4013  1.5578 -1.7659
  624MOL0     H84177   2.872   2.055   6.893  1.4477 -0.8781  1.2428
  624MOL0     H84178   2.727   2.094   6.981  1.4718 -0.7836  0.9792
  624MOL0     H84179   2.786   1.988   6.718  2.9545 -2.8297  2.6504
  624MOL0     H84180   2.635   2.067   6.767 -1.3983 -0.2531  4.6805
  624MOL0     H84181   2.729   1.770   6.776 -1.8118 -1.8745  0.5344
  624MOL0     H84182   2.582   1.824   6.866 -1.8416  2.4786 -0.5335
  624MOL0     H84183   2.613   1.852   6.562 -0.1399 -0.5727 -1.1134
  624MOL0     H84184   2.550   1.707   6.633  3.7478  0.2627  1.3640
  624MOL0     H84185   2.355   1.839   6.723  0.5059  0.3947  0.1118
  624MOL0     H84186   2.440   1.989   6.673  1.4226  0.4218 -0.5014
  624MOL0     H84187   2.354   1.764   6.483 -0.1012  2.2639 -3.7212
  624MOL0     H84188   2.439   1.906   6.448  1.1057 -2.4665  1.0254
  624MOL0     H84189   2.170   1.894   6.419 -0.8883  0.0077  1.8342
  624MOL0     H84190   2.174   1.945   6.583  0.8490  0.5132  0.5900
  624MOL0     H84191   2.182   2.200   6.615 -0.4471  3.5980 -0.5156
  624MOL0     H84192   2.069   2.417   6.540  0.7766  1.3745  2.8371
  624MOL0     H84193   2.220   2.473   6.537 -2.4802  2.3365  1.0657
  624MOL0     H84194   2.023   2.456   6.300 -1.6588  1.9125 -0.6772
  624MOL0     H84195   2.052   2.597   6.390 -1.9078 -0.9938  0.4480
  624MOL0     H84196   2.175   2.634   6.173  2.2284  2.8522  2.0191
  624MOL0     H84197   2.211   2.458   6.171 -2.1712  0.6309 -1.1223
  624MOL0     H84198   2.407   2.613   6.225 -2.9906  2.1731 -1.6107
  624MOL0     H84199   2.368   2.512   6.364 -2.5155 -0.4219  1.6433
  624MOL0     H84200   2.287   2.891   6.573 -1.1787 -1.8416 -0.0436
  624MOL0     H84201   2.435   2.937   6.748  0.3099  0.4487 -0.1848
  624MOL0     H84202   2.691   2.728   7.054 -0.1872  0.1209 -2.2118
  624MOL0     H84203   2.810   2.679   7.256 -1.5470  0.3550 -1.1721
  624MOL0     H84204   3.169   2.455   7.235  2.8431  0.0517 -0.2312
  624MOL0     H84205   3.250   2.609   7.273  0.1112 -1.0679 -0.9481
  624MOL0     H84206   3.084   2.507   7.502 -1.3782 -1.5754  0.3586
  624MOL0     H84207   3.196   2.377   7.451 -0.1125  0.4054  0.8519
  624MOL0     H84208   3.316   2.638   7.512  1.1988 -0.5363 -3.1879
  624MOL0     H84209   3.298   2.502   7.633 -0.8910 -0.3731 -0.0875
  624MOL0     H84210   3.442   2.487   7.380 -1.3021  0.4406 -0.1756
  624MOL0     H84211   3.441   2.359   7.484 -0.3073  0.1721 -0.4941
  624MOL0     H84212   3.535   2.496   7.668 -1.9987 -1.4568 -2.0500
  624MOL0     H84213   3.577   2.626   7.548  4.5140 -0.1339 -2.3667
  624MOL0     H84214   3.754   2.454   7.604 -1.3777 -0.0233  0.6200
  624MOL0     H84215   3.675   2.339   7.493  0.6907 -0.0025 -0.8935
  624MOL0     H84216   3.793   2.614   7.442  0.7598  0.2291 -3.6560
  624MOL0     H84217   3.684   2.553   7.324  1.1407  0.2716 -0.3239
  624MOL0     H84218   3.921   2.513   7.256 -2.1193  0.8228 -0.6393
  624MOL0     H84219   3.938   2.436   7.413  0.9716  0.8566 -0.4003
  624MOL0     H84220   3.177   2.639   7.041  0.0886  3.0811  1.7718
  624MOL0     H84221   3.035   2.710   6.822 -0.3498  1.4700  0.6984
  624MOL0     H84222   2.728   2.670   6.586 -0.0034  1.1872 -0.0279
  624MOL0     H84223   2.575   2.615   6.402  0.7399  0.5422  0.5825
  624MOL0     H84224   3.037   1.886   7.213  0.6842  0.6493 -1.1880
  624MOL0     H84225   3.189   1.735   7.308 -3.6088  2.8592  2.9036
  624MOL0     H84226   3.198   1.192   7.281 -3.2968  1.2143  0.2283
  624MOL0     H84227   3.235   0.998   7.388  2.6879 -0.6002  0.3682
  624MOL0     H84228   3.476   0.948   7.540 -3.7005  1.9000 -1.6624
  624MOL0     H84229   3.348   0.836   7.500 -1.5397  0.1342  1.0474
  624MOL0     H84230   3.380   0.712   7.705 -0.2691 -1.4752 -1.4635
  624MOL0     H84231   3.480   0.832   7.777 -0.6738  0.3062 -1.0070
  624MOL0     H84232   3.626   0.647   7.710  0.6973  0.6234 -0.2218
  624MOL0     H84233   3.669   0.764   7.595  0.8752 -0.3735  0.9040
  624MOL0     H84234   3.518   0.698   7.428  1.0449  0.4809 -0.1018
  624MOL0     H84235   3.645   0.577   7.469  1.0581  0.2209  2.4092
  624MOL0     H84236   3.284   0.371   7.575  0.6593 -0.6009 -0.0695
  624MOL0     H84237   3.294   1.216   7.767 -2.2889  1.2389  0.9448
  624MOL0     H84238   3.323   1.533   7.643  0.4853 -0.1551  2.0375
  624MOL0     H84239   3.152   1.512   7.679  0.3462  1.9164 -1.3961
  624MOL0     H84240   3.280   1.435   7.778 -0.0146 -1.0491 -0.6326
  625MOL0     O84241  10.265   2.783   9.291 -0.2809  0.1186  0.1037
  625MOL0     C84242  10.217   2.672   9.324  0.3592  0.4452 -0.6045
  625MOL0     O84243  10.177   2.641   9.450 -0.0157 -0.2113  0.0558
  625MOL0     C84244  10.199   2.735   9.542 -0.4686  0.5862  0.2172
  625MOL0     C84245  10.114   2.847   9.553 -0.6244  0.2192 -0.4120
  625MOL0     C84246  10.133   2.934   9.665  0.2216 -0.1116 -1.1048
  625MOL0     C84247  10.222   2.892   9.767  1.1657  0.6914  0.4836
  625MOL0     O84248  10.224   2.982   9.868 -0.1751 -0.8035 -0.7547
  625MOL0     C84249  10.307   2.944   9.983  0.1182 -0.1946 -0.5916
  625MOL0     C84250  10.306   3.037  10.093 -0.2489  0.9652 -0.5271
  625MOL0     C84251  10.388   3.165  10.073  0.1735  0.4724 -0.5466
  625MOL0     C84252  10.349   3.268  10.193 -0.6266  0.5838  0.2760
  625MOL0     C84253  10.220   3.354  10.171  1.4885  1.0840 -0.6297
  625MOL0     C84254  10.241   3.474  10.078 -0.0364 -0.0389 -0.6365
  625MOL0     C84255  10.106   3.545  10.057 -0.6695 -0.4157  1.3946
  625MOL0     C84256  10.130   3.675   9.970  0.2329 -0.2138  0.3514
  625MOL0     N84257  10.008   3.750   9.948 -0.6324  0.8666 -0.5674
  625MOL0     C84258   9.970   3.845  10.039 -0.2348 -0.2560 -0.3981
  625MOL0     C84259   9.837   3.862   9.999  0.2631  0.1118 -0.6862
  625MOL0     C84260   9.749   3.974  10.041 -0.0057  0.6171 -0.1153
  625MOL0     C84261   9.748   4.077   9.925  0.2950 -0.5469 -0.6836
  625MOL0     C84262   9.619   4.131   9.856 -1.0017 -0.1391  0.6959
  625MOL0     C84263   9.543   4.031   9.774  0.4684  0.0615  1.0485
  625MOL0     O84264   9.608   4.011   9.647 -0.2135  0.3167  0.1366
  625MOL0     C84265   9.568   3.900   9.581  0.4126  0.3876  0.1152
  625MOL0     C84266   9.442   3.883   9.533  1.1152 -0.6658  1.0490
  625MOL0     C84267   9.408   3.760   9.465  0.6886 -0.7485  1.0902
  625MOL0     C84268   9.503   3.662   9.442  0.0076  0.8693 -0.2261
  625MOL0     C84269   9.471   3.541   9.363  0.6607 -0.4904  0.3545
  625MOL0     O84270   9.356   3.541   9.295 -0.1356  0.8619  0.1618
  625MOL0     C84271   9.351   3.433   9.207  0.4102 -0.1039 -0.6440
  625MOL0     C84272   9.309   3.313   9.255  0.2717  0.4233  0.1914
  625MOL0     C84273   9.328   3.197   9.169 -0.0166 -0.2600  0.1859
  625MOL0     C84274   9.362   3.209   9.036 -0.8326 -0.2764 -0.0814
  625MOL0     O84275   9.358   3.102   8.952  0.5851  0.0957  0.0790
  625MOL0     C84276   9.221   3.070   8.927 -0.1845 -0.2442  0.0100
  625MOL0     C84277   9.234   2.967   8.819  0.5517  0.3522 -0.6828
  625MOL0     C84278   9.089   2.954   8.769 -0.1057 -0.7639 -1.0990
  625MOL0     C84279   9.085   2.863   8.643  0.1168 -0.0836 -0.6114
  625MOL0     C84280   8.935   2.833   8.606 -0.9401  0.1732 -1.0621
  625MOL0     C84281   8.861   2.952   8.565 -0.1227 -0.2612 -0.4611
  625MOL0     C84282   8.903   3.008   8.431 -0.0543  0.5461 -0.0524
  625MOL0     C84283   8.790   3.092   8.363  0.2831 -0.2062 -0.8445
  625MOL0    Cl84284   8.655   2.999   8.317 -0.4322 -0.0770  0.6024
  625MOL0     C84285   9.383   3.342   8.981  0.2164  0.5794 -0.1945
  625MOL0     C84286   9.381   3.448   9.068  0.0496  0.6369 -0.2325
  625MOL0     O84287   9.548   3.448   9.380  0.4441 -0.4169 -0.2982
  625MOL0     C84288   9.629   3.677   9.498 -1.1863  0.3802 -0.2068
  625MOL0     C84289   9.658   3.796   9.560 -0.9813 -0.5693  0.0234
  625MOL0     N84290   9.808   3.785   9.882  0.0860  0.2254 -0.7823
  625MOL0     N84291   9.901   3.709   9.866 -0.1430 -0.3676  0.4490
  625MOL0     C84292  10.306   2.779   9.750  0.5740 -1.1503  0.2314
  625MOL0     C84293  10.298   2.709   9.634 -0.2233  0.0534  0.0496
  625MOL0     C84294  10.179   2.573   9.222  0.2677  0.4925  0.1408
  625MOL0     C84295  10.073   2.484   9.250  0.3929  0.9415  0.8638
  625MOL0     C84296  10.022   2.405   9.147 -0.0536  0.5283 -0.3928
  625MOL0     C84297  10.089   2.383   9.028 -0.0950 -0.9427 -0.8418
  625MOL0     O84298  10.037   2.288   8.936 -0.0214 -0.0530 -0.4603
  625MOL0     C84299  10.082   2.295   8.801  0.2136 -0.4651 -0.2009
  625MOL0     C84300   9.994   2.212   8.707  0.6519  0.2485  1.1849
  625MOL0     C84301  10.020   2.060   8.706 -0.4618  0.4701 -0.2388
  625MOL0     C84302   9.972   2.000   8.568 -0.5532  0.4214 -0.1906
  625MOL0     C84303  10.045   2.037   8.452  0.0646 -0.1549 -0.0449
  625MOL0     C84304  10.104   2.072   8.356  0.8096 -1.4745 -0.6637
  625MOL0     C84305  10.200   2.468   9.003  0.9022  0.3736 -0.0856
  625MOL0     C84306  10.252   2.556   9.101 -0.5863  0.9254  0.4865
  625MOL0     C84307  10.386   2.610   9.065 -0.6317  0.4165 -0.2498
  625MOL0     H84308  10.029   2.854   9.487 -2.8843 -1.4886  2.0933
  625MOL0     H84309  10.072   3.022   9.686  1.7747  1.1333 -1.5751
  625MOL0     H84310  10.263   2.850  10.019 -2.9403  0.3069 -2.6037
  625MOL0     H84311  10.410   2.926   9.952  0.7193  1.3518  0.3949
  625MOL0     H84312  10.343   2.987  10.184 -0.2518  3.0094  0.6486
  625MOL0     H84313  10.211   3.071  10.134 -0.0181  2.8778 -1.4663
  625MOL0     H84314  10.354   3.200   9.975 -1.0296 -0.1465 -0.3760
  625MOL0     H84315  10.495   3.146  10.066 -0.3847 -4.0051  0.0768
  625MOL0     H84316  10.349   3.204  10.282  0.4109 -0.2015 -0.2662
  625MOL0     H84317  10.435   3.332  10.216 -0.3169  0.0632  0.5819
  625MOL0     H84318  10.142   3.286  10.134  2.0561 -1.3798  2.2578
  625MOL0     H84319  10.184   3.397  10.265 -3.1740 -1.6279 -0.8468
  625MOL0     H84320  10.315   3.543  10.120  1.2064 -0.7294 -1.6186
  625MOL0     H84321  10.279   3.435   9.983  1.6523  0.3636 -0.1645
  625MOL0     H84322  10.058   3.583  10.148  0.8690  4.1509  0.5557
  625MOL0     H84323  10.040   3.470  10.012  0.9706  0.6256 -3.3379
  625MOL0     H84324  10.196   3.745  10.020 -3.1914  2.5245  1.4580
  625MOL0     H84325  10.170   3.652   9.871 -0.2514  0.2455  0.0424
  625MOL0     H84326  10.030   3.893  10.116  0.3891 -1.5613 -0.0375
  625MOL0     H84327   9.647   3.935  10.037 -2.2368  5.7076 -1.4005
  625MOL0     H84328   9.781   4.018  10.136  1.3330  1.9162 -1.1227
  625MOL0     H84329   9.804   4.167   9.953 -3.6190  1.6109  1.0569
  625MOL0     H84330   9.802   4.031   9.842 -0.4154 -1.8514 -0.4499
  625MOL0     H84331   9.647   4.217   9.793 -2.4148  0.0675  0.2902
  625MOL0     H84332   9.548   4.165   9.932  0.9530  0.6441  2.2373
  625MOL0     H84333   9.446   4.077   9.754  0.3285 -1.1039 -1.2893
  625MOL0     H84334   9.533   3.935   9.824  1.0852 -1.0610 -0.8752
  625MOL0     H84335   9.368   3.962   9.535  2.8636  1.0590  2.5620
  625MOL0     H84336   9.311   3.734   9.423 -0.0533  0.3832  2.0155
  625MOL0     H84337   9.290   3.303   9.361  1.6879  2.0417  0.6416
  625MOL0     H84338   9.318   3.101   9.218  0.0584  0.4487  1.6621
  625MOL0     H84339   9.164   3.035   9.013  0.2153  5.1915  2.8919
  625MOL0     H84340   9.180   3.167   8.897  1.3670  1.0132  1.7439
  625MOL0     H84341   9.307   2.999   8.744  0.6072  0.8908 -0.4036
  625MOL0     H84342   9.270   2.869   8.849 -0.6129  0.7771  2.4412
  625MOL0     H84343   9.021   2.935   8.852 -0.9369  3.3779 -0.5779
  625MOL0     H84344   9.074   3.061   8.751  4.1605  0.1858 -0.0864
  625MOL0     H84345   9.132   2.768   8.669  0.1686  0.5951  2.0848
  625MOL0     H84346   9.134   2.900   8.552 -0.1383  1.0010 -0.3220
  625MOL0     H84347   8.889   2.785   8.693  1.2576 -1.7080 -0.8284
  625MOL0     H84348   8.924   2.749   8.536  1.2822 -0.6733 -0.4764
  625MOL0     H84349   8.755   2.925   8.564 -0.0955 -0.4112  0.0946
  625MOL0     H84350   8.866   3.034   8.638 -5.8433 -0.9500  1.2041
  625MOL0     H84351   8.925   2.931   8.356  1.6677  2.5419 -1.7427
  625MOL0     H84352   8.993   3.070   8.431  1.1067 -0.9413 -2.6619
  625MOL0     H84353   8.759   3.183   8.414  1.4167  0.6488 -1.6231
  625MOL0     H84354   8.818   3.135   8.266  2.6368  4.2301  1.4806
  625MOL0     H84355   9.396   3.342   8.873 -1.8538 -1.3709 -0.5249
  625MOL0     H84356   9.404   3.543   9.020 -0.7566 -0.8590 -3.9477
  625MOL0     H84357   9.704   3.599   9.496  0.4665  1.8628  0.7464
  625MOL0     H84358   9.760   3.814   9.595 -0.1817 -1.8276 -1.5089
  625MOL0     H84359  10.383   2.743   9.818  0.8145  1.0312  1.1987
  625MOL0     H84360  10.354   2.617   9.621 -0.5006  0.0324 -1.1135
  625MOL0     H84361  10.005   2.513   9.330  3.1097  2.7378  2.6699
  625MOL0     H84362   9.925   2.358   9.155  1.0109 -2.0517 -1.4958
  625MOL0     H84363  10.187   2.263   8.794  1.1753  2.7036 -3.6546
  625MOL0     H84364  10.074   2.400   8.771  2.0910  0.1310  1.1686
  625MOL0     H84365  10.026   2.244   8.608 -0.7681 -0.1849  0.5604
  625MOL0     H84366   9.889   2.239   8.720  0.2431 -1.1550  0.9710
  625MOL0     H84367   9.963   2.011   8.786 -2.5414  0.8273 -1.4443
  625MOL0     H84368  10.129   2.049   8.715 -0.2960  2.9957  2.0649
  625MOL0     H84369   9.984   1.892   8.579 -0.8646  0.5733  2.1113
  625MOL0     H84370   9.864   2.011   8.554 -0.6943  0.7510  1.0343
  625MOL0     H84371  10.158   2.106   8.270  0.6503 -1.4906 -0.7692
  625MOL0     H84372  10.254   2.449   8.911  4.0190  0.5871  1.5569
  625MOL0     H84373  10.439   2.548   8.993 -0.1917  0.5820 -0.0752
  625MOL0     H84374  10.370   2.716   9.040 -2.1362  0.9198  2.3901
  625MOL0     H84375  10.445   2.611   9.158  0.4290  0.0566 -0.9067
  626MOL0     O84376   1.761   8.328  10.122  0.3088 -0.8843 -0.5958
  626MOL0     C84377   1.847   8.419  10.101 -0.2058 -0.0825 -0.1567
  626MOL0     O84378   1.950   8.415  10.006 -0.2142  0.1351 -0.0160
  626MOL0     C84379   1.987   8.295   9.941 -1.1305 -0.2448 -0.4389
  626MOL0     C84380   1.893   8.220   9.863 -0.8017 -0.7607 -0.1523
  626MOL0     C84381   1.937   8.122   9.780  0.4717  0.8046  0.1474
  626MOL0     C84382   2.066   8.075   9.769  0.3699  0.2867  0.5691
  626MOL0     O84383   2.106   7.977   9.673  0.2225 -0.1290  0.1520
  626MOL0     C84384   2.173   7.868   9.735  0.1899 -0.0329 -1.2889
  626MOL0     C84385   2.158   7.746   9.658 -0.5209  0.7803  0.1589
  626MOL0     C84386   2.009   7.709   9.675 -0.7627 -0.1494 -0.1395
  626MOL0     C84387   1.989   7.571   9.603 -0.3534 -0.0538  0.6944
  626MOL0     C84388   1.835   7.538   9.597 -0.6421  0.1855 -0.0913
  626MOL0     C84389   1.824   7.419   9.501  0.3360  0.3739 -0.0581
  626MOL0     C84390   1.676   7.362   9.500  0.5207 -0.1794 -0.0249
  626MOL0     C84391   1.656   7.264   9.386 -1.3509 -0.0995 -0.3533
  626MOL0     N84392   1.529   7.195   9.392 -0.3252 -0.0681 -0.3788
  626MOL0     C84393   1.460   7.138   9.283 -0.1679 -0.3826 -0.4196
  626MOL0     C84394   1.351   7.083   9.327 -0.2893  1.1312  0.7026
  626MOL0     C84395   1.249   7.017   9.234 -0.1727 -0.3304 -0.2690
  626MOL0     C84396   1.100   7.051   9.261 -0.7096 -0.0173  0.3342
  626MOL0     C84397   1.062   7.195   9.248  0.4939  0.6495  0.3417
  626MOL0     C84398   0.926   7.222   9.329  0.5708 -0.2431  0.0414
  626MOL0     O84399   0.825   7.146   9.268  0.2400 -0.0422 -0.4361
  626MOL0     C84400   0.697   7.175   9.314 -1.0354 -0.5134  0.7998
  626MOL0     C84401   0.665   7.237   9.441 -0.5818  0.2432  0.8221
  626MOL0     C84402   0.534   7.260   9.483  0.8344  1.2825  0.4992
  626MOL0     C84403   0.425   7.213   9.404  0.0758  0.3282  1.1818
  626MOL0     C84404   0.283   7.222   9.445 -0.2743  0.5195 -0.2865
  626MOL0     O84405   0.172   7.185   9.367 -0.6988 -0.0916  0.4709
  626MOL0     C84406   0.046   7.203   9.405  0.5655 -0.2576 -0.3491
  626MOL0     C84407  -0.047   7.145   9.315  0.0556 -0.6684 -0.1150
  626MOL0     C84408  -0.186   7.148   9.350 -0.2044  0.3772  0.9748
  626MOL0     C84409  -0.229   7.227   9.456  0.0028  0.6137 -0.7351
  626MOL0     O84410  -0.357   7.239   9.486 -0.1154 -0.1425 -0.7746
  626MOL0     C84411  -0.420   7.323   9.395  0.2404  0.5517  0.3085
  626MOL0     C84412  -0.571   7.344   9.440  0.0608  0.7020 -0.3593
  626MOL0     C84413  -0.609   7.356   9.590 -0.0193  0.1856 -0.1551
  626MOL0     C84414  -0.762   7.370   9.606 -0.1879  0.0931  0.0022
  626MOL0     C84415  -0.818   7.474   9.510 -0.5809 -0.2231  0.2769
  626MOL0     C84416  -0.946   7.522   9.561  0.2692 -0.3945  0.4078
  626MOL0     C84417  -1.008   7.629   9.467  0.4334  0.4902 -1.0543
  626MOL0     C84418  -1.165   7.618   9.465 -0.8092 -0.1467 -0.1028
  626MOL0    Cl84419  -1.245   7.599   9.624  0.3680 -0.0873  0.2302
  626MOL0     C84420  -0.136   7.305   9.522  0.2646 -0.0056 -0.5215
  626MOL0     C84421   0.003   7.293   9.504  1.0390 -0.3611 -0.8352
  626MOL0     O84422   0.278   7.267   9.567  0.4825 -0.0349  0.2263
  626MOL0     C84423   0.458   7.152   9.278 -0.5430 -0.0566 -0.1394
  626MOL0     C84424   0.586   7.132   9.242 -0.2044 -0.8036 -0.0356
  626MOL0     N84425   1.373   7.081   9.464  0.1953 -0.6053 -0.0538
  626MOL0     N84426   1.488   7.134   9.502  0.3039 -0.0096 -0.0664
  626MOL0     C84427   2.157   8.131   9.856  0.3960  0.6462 -0.5904
  626MOL0     C84428   2.116   8.241   9.938 -1.0597  0.4890  0.9437
  626MOL0     C84429   1.859   8.539  10.196  0.6860  0.4781  0.5712
  626MOL0     C84430   1.965   8.627  10.168 -0.6551  0.1644  0.0503
  626MOL0     C84431   1.990   8.739  10.241  0.2563 -1.3556  0.4568
  626MOL0     C84432   1.904   8.770  10.351  0.1814  1.1501 -0.1857
  626MOL0     O84433   1.919   8.867  10.446  0.1924 -0.0866 -0.6141
  626MOL0     C84434   2.014   8.966  10.414  0.1995  0.5020  0.1256
  626MOL0     C84435   2.018   9.074  10.526  0.5786 -0.2181 -0.7186
  626MOL0     C84436   1.874   9.131  10.561 -1.4149 -0.4996  0.2212
  626MOL0     C84437   1.861   9.273  10.625 -0.6509 -0.7457 -0.5368
  626MOL0     C84438   1.712   9.296  10.646  0.4658 -0.1184  0.0676
  626MOL0     C84439   1.595   9.316  10.664 -0.1649 -0.4342 -0.0869
  626MOL0     C84440   1.786   8.691  10.376 -1.5053 -0.0192  1.1354
  626MOL0     C84441   1.765   8.571  10.299 -1.0212 -0.2964  0.1904
  626MOL0     C84442   1.637   8.498  10.325  0.8770  0.2404  0.2463
  626MOL0     H84443   1.790   8.253   9.865 -0.0501  1.8090  2.8538
  626MOL0     H84444   1.863   8.078   9.714  1.7701 -1.0597 -0.1609
  626MOL0     H84445   2.281   7.887   9.740  0.0906  0.2838  0.7058
  626MOL0     H84446   2.133   7.863   9.837 -1.4631  2.2605 -1.7575
  626MOL0     H84447   2.213   7.661   9.699  1.2565  1.5320 -0.5710
  626MOL0     H84448   2.181   7.754   9.552 -1.1504  1.8811  0.0870
  626MOL0     H84449   1.956   7.789   9.622  1.2994 -0.4933 -2.9116
  626MOL0     H84450   1.981   7.687   9.779  0.1027 -2.9982 -0.4204
  626MOL0     H84451   2.033   7.560   9.504 -0.4713  0.3996  0.5886
  626MOL0     H84452   2.042   7.498   9.665  2.3721  3.1292  2.4430
  626MOL0     H84453   1.798   7.506   9.695 -0.7917 -0.9936 -0.5087
  626MOL0     H84454   1.787   7.631   9.565  4.2355  2.3886 -2.1083
  626MOL0     H84455   1.856   7.457   9.403  1.8124 -1.9945 -0.5699
  626MOL0     H84456   1.897   7.341   9.524  0.4558  0.2522 -0.8255
  626MOL0     H84457   1.612   7.450   9.490  0.5278 -0.0536  0.9147
  626MOL0     H84458   1.650   7.307   9.591 -2.9758  2.2231  0.6330
  626MOL0     H84459   1.666   7.323   9.294  3.2250  0.1699  0.0975
  626MOL0     H84460   1.733   7.187   9.381 -0.1253  0.9989  0.9149
  626MOL0     H84461   1.483   7.143   9.177 -0.1217  1.0907 -0.3688
  626MOL0     H84462   1.284   7.056   9.138 -1.5138  0.2518 -0.5555
  626MOL0     H84463   1.257   6.908   9.232 -2.1634 -0.5536  1.0021
  626MOL0     H84464   1.045   6.993   9.187 -0.6489  3.1871 -2.4578
  626MOL0     H84465   1.081   7.012   9.362  0.3247 -2.4253 -0.3314
  626MOL0     H84466   1.050   7.219   9.142  1.6874  1.9688  0.4636
  626MOL0     H84467   1.141   7.251   9.299  2.1818 -0.1840 -1.2483
  626MOL0     H84468   0.895   7.327   9.325 -0.3138 -0.4829  0.2128
  626MOL0     H84469   0.936   7.196   9.435 -2.3061  5.4660  2.1235
  626MOL0     H84470   0.747   7.280   9.499  3.0332 -1.6940 -2.3522
  626MOL0     H84471   0.525   7.307   9.581 -0.2940  1.2315  0.4270
  626MOL0     H84472  -0.018   7.091   9.226  1.3898  0.4253 -0.3817
  626MOL0     H84473  -0.245   7.081   9.289  2.1182 -1.1025  0.2097
  626MOL0     H84474  -0.364   7.414   9.373 -0.3413  0.1507 -3.5765
  626MOL0     H84475  -0.413   7.264   9.303  2.1573 -0.3739  0.9952
  626MOL0     H84476  -0.595   7.439   9.392 -0.2020 -0.2177 -2.1079
  626MOL0     H84477  -0.635   7.264   9.401  1.3170  0.2481 -1.5426
  626MOL0     H84478  -0.576   7.263   9.636  0.7331  1.8971  3.0685
  626MOL0     H84479  -0.550   7.436   9.636 -0.6648 -0.6232  2.2364
  626MOL0     H84480  -0.786   7.393   9.711 -1.6095  0.7903 -0.4478
  626MOL0     H84481  -0.806   7.273   9.582  0.4088  0.6169 -3.7253
  626MOL0     H84482  -0.840   7.415   9.420  0.4411 -0.3399  0.0895
  626MOL0     H84483  -0.742   7.549   9.486  2.1345 -1.9325  2.8324
  626MOL0     H84484  -1.017   7.440   9.559 -1.0073  0.6901 -0.7823
  626MOL0     H84485  -0.944   7.566   9.661 -0.7587 -0.7883  0.6104
  626MOL0     H84486  -0.965   7.619   9.367  3.3329  0.6340  0.0866
  626MOL0     H84487  -0.983   7.732   9.496  3.6874 -0.5800  0.3710
  626MOL0     H84488  -1.208   7.703   9.411  1.5210  1.9173  1.0835
  626MOL0     H84489  -1.173   7.524   9.408  3.3471 -1.1585  0.6235
  626MOL0     H84490  -0.167   7.377   9.597  1.1096 -2.6835  2.6628
  626MOL0     H84491   0.068   7.370   9.546  0.9179 -0.2680 -0.8169
  626MOL0     H84492   0.382   7.132   9.203 -1.3844  1.0160  0.4059
  626MOL0     H84493   0.615   7.101   9.142  2.9573  2.1120 -0.2262
  626MOL0     H84494   2.259   8.096   9.843 -0.4731 -2.4844  0.1410
  626MOL0     H84495   2.189   8.307   9.985  1.8017 -1.7494 -0.0927
  626MOL0     H84496   2.038   8.612  10.089  2.0307  0.8615  2.2411
  626MOL0     H84497   2.079   8.795  10.215  0.8972 -2.8988 -0.8603
  626MOL0     H84498   1.985   9.010  10.318  0.3702  0.1978 -0.0669
  626MOL0     H84499   2.114   8.923  10.401  1.2587  2.8687 -0.1914
  626MOL0     H84500   2.084   9.154  10.491  1.3086 -2.4910 -5.3238
  626MOL0     H84501   2.057   9.023  10.615 -0.2022 -1.1931 -0.9264
  626MOL0     H84502   1.830   9.055  10.626 -1.2468  1.2494  2.5247
  626MOL0     H84503   1.822   9.135  10.464  0.1453 -2.5130 -0.7651
  626MOL0     H84504   1.898   9.264  10.727  1.0544 -0.3468 -1.0891
  626MOL0     H84505   1.920   9.353  10.579  2.9848 -2.3837  0.8746
  626MOL0     H84506   1.492   9.330  10.689 -0.2539  0.4991 -0.8984
  626MOL0     H84507   1.717   8.733  10.448 -3.6479 -0.9657 -0.2702
  626MOL0     H84508   1.559   8.509  10.249  0.5826  3.4098  0.8498
  626MOL0     H84509   1.666   8.394  10.339 -1.9755 -0.3187  3.2756
  626MOL0     H84510   1.604   8.540  10.421  0.7267  1.3445 -0.2681
  627MOL0     O84511   3.735   4.678   2.611 -0.0871 -0.0969  0.0542
  627MOL0     C84512   3.628   4.746   2.626  0.1257  0.3793  0.3499
  627MOL0     O84513   3.549   4.775   2.523 -0.5745 -0.2397 -0.1587
  627MOL0     C84514   3.599   4.776   2.397  0.1126  0.9211  0.9967
  627MOL0     C84515   3.534   4.696   2.299 -0.8209 -0.9628 -0.5513
  627MOL0     C84516   3.571   4.700   2.166 -0.4454 -0.8996 -0.2287
  627MOL0     C84517   3.686   4.777   2.128  0.3361  0.8724 -0.7042
  627MOL0     O84518   3.733   4.766   1.999 -0.2521  0.5161  0.6040
  627MOL0     C84519   3.840   4.853   1.961 -0.2688 -0.6163  0.8274
  627MOL0     C84520   3.844   4.858   1.808  0.2284  0.1483 -0.5711
  627MOL0     C84521   3.895   4.732   1.738 -0.6691  0.5396  0.0816
  627MOL0     C84522   3.897   4.739   1.581 -0.5871  0.9598  0.3409
  627MOL0     C84523   3.957   4.609   1.516  0.2306 -0.5686  0.3980
  627MOL0     C84524   4.107   4.587   1.562  0.2274  0.9486 -0.0307
  627MOL0     C84525   4.146   4.442   1.522  0.6523 -0.0766  0.7264
  627MOL0     C84526   4.163   4.410   1.370  0.3295  0.4179  1.0088
  627MOL0     N84527   4.043   4.370   1.293  0.5657  0.6668 -0.1269
  627MOL0     C84528   3.956   4.286   1.345 -0.0501  0.7506  0.5946
  627MOL0     C84529   3.845   4.284   1.263  0.3072  0.1867 -0.4675
  627MOL0     C84530   3.723   4.208   1.289  0.7411 -0.1974  1.1363
  627MOL0     C84531   3.604   4.271   1.206 -0.2656  0.7327 -0.7007
  627MOL0     C84532   3.577   4.410   1.262 -0.7490  0.1344  0.2600
  627MOL0     C84533   3.471   4.486   1.176 -0.7494 -0.7006  1.0991
  627MOL0     O84534   3.431   4.596   1.251  0.4978  0.1848  0.0971
  627MOL0     C84535   3.322   4.672   1.204  0.0516  0.3702  0.1382
  627MOL0     C84536   3.335   4.808   1.241 -0.3228 -0.0905  0.0940
  627MOL0     C84537   3.252   4.907   1.190 -0.0800  0.1700  0.2568
  627MOL0     C84538   3.139   4.877   1.117 -0.6270  0.1568 -0.3399
  627MOL0     C84539   3.048   4.986   1.069 -0.9067 -0.3276  0.7197
  627MOL0     O84540   2.926   4.950   1.022 -0.3667  0.9192 -0.1332
  627MOL0     C84541   2.840   5.044   0.966  0.1956  0.0437  0.1883
  627MOL0     C84542   2.727   5.073   1.033 -0.0037  0.0093  0.0287
  627MOL0     C84543   2.637   5.158   0.978 -1.3813 -0.5575  0.4896
  627MOL0     C84544   2.653   5.192   0.841  0.2274 -0.1676 -0.5150
  627MOL0     O84545   2.557   5.273   0.783 -0.8436  0.5495  0.4580
  627MOL0     C84546   2.420   5.225   0.790  0.2296 -0.2786 -0.5182
  627MOL0     C84547   2.320   5.279   0.685 -0.2574  0.1213  0.0710
  627MOL0     C84548   2.371   5.259   0.540  0.1869  0.0950  0.6865
  627MOL0     C84549   2.281   5.318   0.434 -0.2341 -0.2610 -0.4072
  627MOL0     C84550   2.341   5.290   0.295 -0.1187  0.9315 -0.8712
  627MOL0     C84551   2.257   5.358   0.190  1.1844 -0.1326 -0.5757
  627MOL0     C84552   2.295   5.317   0.045 -0.1583  1.2701  0.2822
  627MOL0     C84553   2.218   5.400  -0.055  0.6405  0.3848  1.0373
  627MOL0    Cl84554   2.179   5.297  -0.195  0.3318  0.3983 -0.4210
  627MOL0     C84555   2.756   5.143   0.769  0.2262  0.9469  0.1431
  627MOL0     C84556   2.852   5.071   0.833  0.9888 -0.0699 -0.6764
  627MOL0     O84557   3.098   5.096   1.044  1.0205 -0.1011  0.9564
  627MOL0     C84558   3.136   4.747   1.068  0.3747  0.7269  0.4466
  627MOL0     C84559   3.227   4.648   1.104  0.5095 -0.5524 -0.2924
  627MOL0     N84560   3.870   4.369   1.154  0.0936 -0.6133 -0.4393
  627MOL0     N84561   3.989   4.418   1.172 -0.0591  0.2098  0.2173
  627MOL0     C84562   3.750   4.856   2.225 -0.3220 -0.9132 -0.0220
  627MOL0     C84563   3.704   4.858   2.356 -0.2477  0.8930  0.3690
  627MOL0     C84564   3.582   4.800   2.757  0.8774  0.8724 -0.0209
  627MOL0     C84565   3.473   4.896   2.745  0.0719 -0.3387 -0.7289
  627MOL0     C84566   3.407   4.939   2.857  0.1727 -0.1790 -0.9666
  627MOL0     C84567   3.446   4.912   2.988  0.0334  1.4196  0.0248
  627MOL0     O84568   3.375   4.959   3.094 -0.0525  0.3780 -0.0064
  627MOL0     C84569   3.396   4.910   3.231  0.3129 -0.0973 -0.4394
  627MOL0     C84570   3.317   4.980   3.339  0.7620 -0.4757  0.6042
  627MOL0     C84571   3.166   4.950   3.344  0.2003 -0.0742 -0.2160
  627MOL0     C84572   3.079   5.065   3.405 -0.0863  0.1037 -0.5900
  627MOL0     C84573   3.099   5.107   3.543 -0.6692  0.9762  0.0727
  627MOL0     C84574   3.116   5.143   3.657 -0.1190 -0.6814  0.4955
  627MOL0     C84575   3.564   4.839   2.997  0.0657 -0.6612  0.4564
  627MOL0     C84576   3.628   4.776   2.885 -0.4665  0.6628 -1.0805
  627MOL0     C84577   3.754   4.704   2.914 -0.8542 -0.0993  0.2093
  627MOL0     H84578   3.446   4.640   2.328 -1.5799 -0.0250 -0.9890
  627MOL0     H84579   3.519   4.639   2.092 -4.2675  0.7842  0.8518
  627MOL0     H84580   3.822   4.953   2.002 -0.1074 -1.2825  2.6229
  627MOL0     H84581   3.935   4.823   2.006  0.2344 -2.6888 -1.4054
  627MOL0     H84582   3.909   4.941   1.779 -1.6030  3.2756  3.3201
  627MOL0     H84583   3.743   4.886   1.776 -0.2968  0.2348  1.0761
  627MOL0     H84584   3.837   4.643   1.765  0.0362  0.0144 -0.1093
  627MOL0     H84585   3.990   4.705   1.783 -1.8521 -1.7377  1.4048
  627MOL0     H84586   3.797   4.759   1.541 -1.1400  0.8192  1.5828
  627MOL0     H84587   3.951   4.830   1.554 -2.0711  1.3646 -1.4455
  627MOL0     H84588   3.895   4.524   1.546 -0.9591 -0.3148 -1.1442
  627MOL0     H84589   3.950   4.618   1.407  3.6371 -0.0591  0.1237
  627MOL0     H84590   4.175   4.658   1.514 -0.6511  2.2781  0.6297
  627MOL0     H84591   4.129   4.590   1.670  0.8936  0.9683 -0.1609
  627MOL0     H84592   4.075   4.374   1.570 -0.9542  0.3090 -0.9557
  627MOL0     H84593   4.247   4.424   1.560  1.1420 -1.9055 -1.2201
  627MOL0     H84594   4.207   4.497   1.320 -1.1130  0.6221  0.0300
  627MOL0     H84595   4.225   4.321   1.360 -1.0382 -1.1594  4.7923
  627MOL0     H84596   3.964   4.219   1.430 -0.0227 -2.7177 -1.9242
  627MOL0     H84597   3.736   4.103   1.262  3.7334  0.4219 -0.2627
  627MOL0     H84598   3.703   4.227   1.395 -2.1049  4.8943  0.0387
  627MOL0     H84599   3.622   4.274   1.099  4.5578 -0.1838 -0.1318
  627MOL0     H84600   3.512   4.214   1.218 -0.3372  0.5892 -1.8514
  627MOL0     H84601   3.656   4.484   1.276 -0.7587  0.0063  1.0732
  627MOL0     H84602   3.541   4.393   1.364 -2.0478 -0.4790 -0.2710
  627MOL0     H84603   3.385   4.422   1.156  0.3346 -1.9901  0.3867
  627MOL0     H84604   3.515   4.522   1.082  0.3661 -1.4832  1.3036
  627MOL0     H84605   3.420   4.827   1.306 -1.6258  2.2031  1.2503
  627MOL0     H84606   3.270   5.009   1.220  0.0161  0.1375  0.3086
  627MOL0     H84607   2.704   5.039   1.134 -0.5268  0.8162  0.1861
  627MOL0     H84608   2.541   5.182   1.022 -1.2930  3.9724 -1.2604
  627MOL0     H84609   2.422   5.116   0.780  5.3313 -1.0016  3.5566
  627MOL0     H84610   2.372   5.248   0.886 -0.0954  0.4817 -0.8544
  627MOL0     H84611   2.224   5.226   0.688 -0.9222  1.3353  1.8311
  627MOL0     H84612   2.302   5.385   0.702 -0.0049  0.4342 -1.4843
  627MOL0     H84613   2.471   5.302   0.525  0.6994 -0.9679  0.8984
  627MOL0     H84614   2.375   5.152   0.517  3.0754  0.3700 -0.5801
  627MOL0     H84615   2.267   5.423   0.461 -1.9198 -1.3770  4.1127
  627MOL0     H84616   2.180   5.275   0.435 -0.4362  0.1803 -1.1700
  627MOL0     H84617   2.340   5.181   0.280  1.1396  0.7589  0.1466
  627MOL0     H84618   2.444   5.321   0.274  0.3048  1.3349  1.5233
  627MOL0     H84619   2.150   5.340   0.206  1.6430 -2.9275 -0.1297
  627MOL0     H84620   2.260   5.467   0.197 -2.6437  0.0545  4.5201
  627MOL0     H84621   2.267   5.212   0.036  1.7592  0.8226 -1.0439
  627MOL0     H84622   2.403   5.330   0.030  0.5150 -1.5257  2.0072
  627MOL0     H84623   2.127   5.435  -0.006  1.0402  1.4765  1.0154
  627MOL0     H84624   2.277   5.487  -0.084  1.8689 -0.5055  0.7395
  627MOL0     H84625   2.763   5.160   0.662  0.1137 -0.8012 -0.1687
  627MOL0     H84626   2.927   5.040   0.760  1.2767 -1.4954  0.1937
  627MOL0     H84627   3.048   4.714   1.015  2.7139 -1.9123 -2.1303
  627MOL0     H84628   3.209   4.548   1.063  1.3430 -0.4425 -0.9466
  627MOL0     H84629   3.840   4.913   2.203 -1.4500  1.9070  2.1235
  627MOL0     H84630   3.759   4.933   2.412 -1.1673  2.8415 -1.2393
  627MOL0     H84631   3.429   4.940   2.656 -0.5169  0.5133 -0.0295
  627MOL0     H84632   3.324   5.002   2.826 -0.0146  1.6044  2.6315
  627MOL0     H84633   3.501   4.925   3.256  0.3038 -1.5852  0.6160
  627MOL0     H84634   3.366   4.806   3.245  3.0831 -0.9393 -0.1862
  627MOL0     H84635   3.325   5.087   3.316 -2.6169 -0.5037 -1.1375
  627MOL0     H84636   3.354   4.966   3.442 -0.6277 -2.4943  0.8684
  627MOL0     H84637   3.143   4.855   3.393 -3.3541 -1.2074 -3.5630
  627MOL0     H84638   3.136   4.946   3.239  1.8408 -1.3969 -0.6703
  627MOL0     H84639   3.099   5.146   3.334  2.0153 -0.9732 -1.3366
  627MOL0     H84640   2.976   5.030   3.402 -0.5208  1.3783 -1.1276
  627MOL0     H84641   3.146   5.168   3.757 -0.5888 -0.9473  0.7080
  627MOL0     H84642   3.609   4.832   3.095  0.1644 -2.7096  0.3117
  627MOL0     H84643   3.759   4.722   3.021 -5.1805 -0.8742  0.7211
  627MOL0     H84644   3.750   4.595   2.899 -2.1320 -0.0585  0.1694
  627MOL0     H84645   3.828   4.754   2.850 -1.3380  0.2294 -0.0974
  628MOL0     O84646   2.553   8.264   0.846  0.4847 -0.0874  0.3176
  628MOL0     C84647   2.658   8.222   0.795  0.5609 -0.4570  0.5765
  628MOL0     O84648   2.707   8.254   0.668  0.2169  0.1048 -0.3014
  628MOL0     C84649   2.643   8.316   0.561 -0.7051 -1.2081 -0.2227
  628MOL0     C84650   2.511   8.367   0.564 -0.2686 -0.0026  0.0474
  628MOL0     C84651   2.459   8.438   0.457 -1.0319 -0.0612 -0.4198
  628MOL0     C84652   2.532   8.446   0.339  0.7387 -0.2404 -0.4883
  628MOL0     O84653   2.489   8.512   0.227  0.3987 -1.0513 -0.5065
  628MOL0     C84654   2.357   8.580   0.246  0.4342 -0.5604  0.1297
  628MOL0     C84655   2.319   8.646   0.118  1.2999  0.0252 -1.0839
  628MOL0     C84656   2.219   8.760   0.135 -0.0621 -0.0361 -0.3227
  628MOL0     C84657   2.157   8.802  -0.007 -0.2002  0.6858  0.1565
  628MOL0     C84658   2.042   8.901  -0.010  0.2328 -0.7235 -0.4555
  628MOL0     C84659   2.072   9.040   0.049 -0.7530 -0.2338  0.7412
  628MOL0     C84660   2.005   9.160  -0.023 -0.2368 -0.6278 -0.8459
  628MOL0     C84661   1.863   9.136  -0.019  0.4455  0.4537 -0.2990
  628MOL0     N84662   1.786   9.247  -0.075 -0.2290  0.4074 -0.1365
  628MOL0     C84663   1.789   9.375  -0.032 -0.2339 -1.5577  0.2493
  628MOL0     C84664   1.728   9.435  -0.137 -0.0292 -0.1224  0.1256
  628MOL0     C84665   1.709   9.581  -0.153 -0.7915 -0.4257  0.3447
  628MOL0     C84666   1.809   9.633  -0.255 -0.4689 -0.3620 -0.2746
  628MOL0     C84667   1.867   9.775  -0.222  0.9526 -1.2703  0.6760
  628MOL0     C84668   1.965   9.828  -0.325  1.2203 -0.1723 -0.8845
  628MOL0     O84669   2.097   9.766  -0.328 -0.6246 -0.2405  0.1934
  628MOL0     C84670   2.188   9.814  -0.425  0.0917 -0.0709 -0.6253
  628MOL0     C84671   2.233   9.944  -0.434 -0.2196  0.0405  0.4680
  628MOL0     C84672   2.334   9.975  -0.526  0.4502 -0.6634 -0.3938
  628MOL0     C84673   2.383   9.878  -0.617 -0.7446 -0.3486  0.6975
  628MOL0     C84674   2.486   9.913  -0.719 -0.6960  0.1025  0.0862
  628MOL0     O84675   2.451  10.019  -0.797 -0.9930  0.3732  0.1131
  628MOL0     C84676   2.544  10.074  -0.892 -0.3169  0.2313 -0.5918
  628MOL0     C84677   2.543  10.031  -1.028  0.1310  0.6799 -0.7839
  628MOL0     C84678   2.617  10.093  -1.122 -2.0450  0.9516 -0.4748
  628MOL0     C84679   2.709  10.197  -1.083 -0.0529 -0.2419  0.3881
  628MOL0     O84680   2.793  10.269  -1.167  0.6516 -0.0602  0.2155
  628MOL0     C84681   2.792  10.255  -1.309  0.9182 -0.2745  0.1563
  628MOL0     C84682   2.904  10.332  -1.376  0.1859  0.3883  0.4215
  628MOL0     C84683   2.906  10.303  -1.530  0.1243  0.7588 -0.6742
  628MOL0     C84684   2.993  10.408  -1.603 -1.1650 -0.8722  1.2368
  628MOL0     C84685   3.014  10.386  -1.749  0.0027 -0.0947 -0.6190
  628MOL0     C84686   3.083  10.505  -1.814 -0.8014 -0.2420 -0.6865
  628MOL0     C84687   3.086  10.490  -1.968  0.4628 -0.4495 -0.8903
  628MOL0     C84688   3.183  10.593  -2.044 -0.0328 -0.5280 -0.1538
  628MOL0    Cl84689   3.163  10.615  -2.219 -0.1685  0.4631 -0.2397
  628MOL0     C84690   2.730  10.231  -0.948  0.9182 -0.1465  0.1667
  628MOL0     C84691   2.646  10.168  -0.851 -1.3243 -0.0775  0.0435
  628MOL0     O84692   2.599   9.855  -0.714  0.1821  0.0452  0.9579
  628MOL0     C84693   2.327   9.749  -0.607  0.4614  0.0690  0.4597
  628MOL0     C84694   2.233   9.714  -0.510  0.4529 -0.1730  0.1461
  628MOL0     N84695   1.686   9.349  -0.233 -0.3034  0.3723  0.2848
  628MOL0     N84696   1.719   9.227  -0.195 -0.7705  0.3199  0.1700
  628MOL0     C84697   2.655   8.388   0.326 -0.2714  0.1755 -1.4723
  628MOL0     C84698   2.711   8.316   0.436  1.0879 -0.5092  0.4777
  628MOL0     C84699   2.760   8.159   0.881  0.4507  0.0491  0.7252
  628MOL0     C84700   2.837   8.060   0.825  0.5369 -0.1240 -0.3645
  628MOL0     C84701   2.910   7.973   0.918  0.1844 -1.2734 -0.3963
  628MOL0     C84702   2.905   7.987   1.059 -0.0551  0.0875  0.1204
  628MOL0     O84703   2.980   7.888   1.124 -0.1549 -0.1131  0.3325
  628MOL0     C84704   3.062   7.931   1.242 -0.4351  0.3387 -0.1072
  628MOL0     C84705   3.124   7.797   1.290 -0.1482 -0.0053 -1.4344
  628MOL0     C84706   3.243   7.817   1.390 -0.3778 -0.2339 -0.4300
  628MOL0     C84707   3.267   7.695   1.470  0.6710 -0.0122  0.2501
  628MOL0     C84708   3.402   7.701   1.531  0.1007  0.0531 -0.0614
  628MOL0     C84709   3.505   7.692   1.590  0.7605 -0.4442 -0.1947
  628MOL0     C84710   2.830   8.099   1.112 -0.2621 -0.8299  0.2705
  628MOL0     C84711   2.767   8.189   1.018  0.2074  1.2649 -0.0537
  628MOL0     C84712   2.686   8.300   1.083  0.0894 -0.9701 -0.0684
  628MOL0     H84713   2.461   8.372   0.660  2.2029  2.1595  1.3406
  628MOL0     H84714   2.364   8.487   0.472 -0.4817  0.5064  1.3779
  628MOL0     H84715   2.271   8.519   0.277  0.5539 -0.9301 -0.2599
  628MOL0     H84716   2.380   8.653   0.323  1.6593  0.9670 -1.5932
  628MOL0     H84717   2.279   8.573   0.048  0.4731 -3.6288  2.7762
  628MOL0     H84718   2.410   8.687   0.075  0.2493  1.0756 -2.3683
  628MOL0     H84719   2.282   8.844   0.166  1.9062 -1.2578 -0.8631
  628MOL0     H84720   2.143   8.741   0.212  0.4824 -1.4013 -0.0871
  628MOL0     H84721   2.232   8.848  -0.072  2.9120 -2.1641  1.4467
  628MOL0     H84722   2.117   8.716  -0.062  1.4714  0.5364 -0.8732
  628MOL0     H84723   2.024   8.908  -0.117  1.3352  4.0009 -0.5535
  628MOL0     H84724   1.962   8.858   0.051 -1.2963  0.2920 -1.6761
  628MOL0     H84725   2.056   9.046   0.157 -0.6250 -2.7165  0.9574
  628MOL0     H84726   2.180   9.053   0.039 -0.9647 -0.3264 -2.6939
  628MOL0     H84727   2.033   9.168  -0.129 -1.1092  3.0145 -0.9275
  628MOL0     H84728   2.031   9.251   0.032 -3.6677  0.4560 -0.8020
  628MOL0     H84729   1.838   9.044  -0.072 -0.3855  0.0271  0.8074
  628MOL0     H84730   1.838   9.116   0.085  0.0235 -5.7960 -1.2045
  628MOL0     H84731   1.815   9.422   0.063 -1.3640 -0.6725  0.1402
  628MOL0     H84732   1.608   9.613  -0.181 -0.0937  4.5227  2.4478
  628MOL0     H84733   1.721   9.638  -0.060 -0.7648  0.0645  0.0453
  628MOL0     H84734   1.891   9.561  -0.253  0.0078  0.1729  1.9653
  628MOL0     H84735   1.763   9.641  -0.354 -0.3617 -1.7701 -0.4561
  628MOL0     H84736   1.910   9.765  -0.122 -2.3951 -2.1945  2.1957
  628MOL0     H84737   1.784   9.847  -0.214  0.1710 -2.1284  0.4548
  628MOL0     H84738   1.979   9.929  -0.286  1.0309 -1.1786  1.9676
  628MOL0     H84739   1.924   9.830  -0.427  1.2598 -0.8436 -0.9223
  628MOL0     H84740   2.198  10.020  -0.365  0.3408  1.4802 -0.7872
  628MOL0     H84741   2.371  10.076  -0.517 -0.9401 -0.1888  0.3551
  628MOL0     H84742   2.470   9.955  -1.055 -0.0158 -0.8519  3.1808
  628MOL0     H84743   2.606  10.063  -1.226  2.3679 -1.8512 -0.4119
  628MOL0     H84744   2.803  10.148  -1.332 -1.8073 -0.6965  0.4497
  628MOL0     H84745   2.687  10.268  -1.336  0.7846 -0.6488  0.4693
  628MOL0     H84746   2.897  10.439  -1.355  0.8988  0.1136  2.2408
  628MOL0     H84747   3.004  10.303  -1.343  0.9484 -0.9624 -2.6635
  628MOL0     H84748   2.948  10.204  -1.549  1.5995  1.4789 -1.3079
  628MOL0     H84749   2.805  10.318  -1.568 -0.7181  0.2838  1.2369
  628MOL0     H84750   3.092  10.416  -1.557  0.5703 -0.7899 -2.1554
  628MOL0     H84751   2.948  10.507  -1.609  2.8242  1.1197  0.4176
  628MOL0     H84752   2.918  10.376  -1.802  0.8481  1.7489 -2.6614
  628MOL0     H84753   3.072  10.299  -1.779  0.6254  0.1815 -0.2246
  628MOL0     H84754   3.051  10.606  -1.786  1.7796 -0.5455  4.6050
  628MOL0     H84755   3.184  10.506  -1.773 -0.9960 -3.4847  0.1899
  628MOL0     H84756   2.984  10.509  -2.004  0.8551  2.8245 -0.5858
  628MOL0     H84757   3.126  10.390  -1.989 -3.9989 -2.2750 -1.9167
  628MOL0     H84758   3.178  10.693  -2.000  3.5479 -0.5333  0.6017
  628MOL0     H84759   3.282  10.552  -2.021  0.7297  2.1372  2.0087
  628MOL0     H84760   2.808  10.295  -0.907 -0.7269 -0.0022  3.3470
  628MOL0     H84761   2.648  10.202  -0.748 -2.8720  2.2314 -0.5873
  628MOL0     H84762   2.371   9.675  -0.673  0.3913  0.3893  0.0473
  628MOL0     H84763   2.198   9.613  -0.492 -1.4658  0.8363  2.7848
  628MOL0     H84764   2.700   8.381   0.227 -0.1540  1.7105 -1.5400
  628MOL0     H84765   2.806   8.265   0.420  1.4581  0.3772 -0.2425
  628MOL0     H84766   2.855   8.044   0.720  1.7103  2.0067 -0.5309
  628MOL0     H84767   2.973   7.898   0.872  1.8311 -0.3057  0.1519
  628MOL0     H84768   2.999   7.987   1.313  0.6824  2.3306 -0.6060
  628MOL0     H84769   3.139   8.003   1.213  3.7210 -2.8813  1.9374
  628MOL0     H84770   3.161   7.732   1.210 -1.6651 -1.5820 -0.9391
  628MOL0     H84771   3.058   7.738   1.355  1.1332 -0.0231 -0.0866
  628MOL0     H84772   3.227   7.905   1.454 -1.0433  0.5493 -1.6308
  628MOL0     H84773   3.332   7.835   1.331  0.5569 -1.4929  0.5346
  628MOL0     H84774   3.189   7.680   1.545  0.2271 -2.1025 -0.5681
  628MOL0     H84775   3.270   7.608   1.404 -0.3529  0.4533 -0.4257
  628MOL0     H84776   3.595   7.714   1.645  1.0890 -2.8379  0.3286
  628MOL0     H84777   2.827   8.111   1.220  2.7346  1.3862  0.2342
  628MOL0     H84778   2.725   8.343   1.175 -2.1265 -0.6654  0.7961
  628MOL0     H84779   2.673   8.381   1.010 -1.5691 -2.1410 -1.1594
  628MOL0     H84780   2.583   8.269   1.103 -0.4152  1.7376  2.0772
  629MOL0     O84781   3.069   5.037   7.558 -1.2959  0.0185  0.1152
  629MOL0     C84782   2.959   4.991   7.567  0.5386  0.4620  0.4399
  629MOL0     O84783   2.916   4.892   7.492 -0.4379 -0.1239  0.7094
  629MOL0     C84784   3.001   4.869   7.376 -0.4925  0.7120 -0.2456
  629MOL0     C84785   2.966   4.922   7.254 -0.1599 -0.2613  0.0593
  629MOL0     C84786   3.031   4.882   7.140 -0.1679 -0.6682 -0.1971
  629MOL0     C84787   3.126   4.776   7.151  0.1506  0.4542 -0.0659
  629MOL0     O84788   3.172   4.729   7.029 -0.9458  0.0272  0.0061
  629MOL0     C84789   3.279   4.620   7.027  0.1562 -0.0624  0.4454
  629MOL0     C84790   3.417   4.682   7.037 -0.5783  1.2762  0.1621
  629MOL0     C84791   3.525   4.572   7.029  0.1224  0.8267  0.9868
  629MOL0     C84792   3.653   4.623   7.070 -1.1162  0.0277 -0.2388
  629MOL0     C84793   3.766   4.524   7.031  0.8425  0.3455  0.7639
  629MOL0     C84794   3.910   4.546   7.078 -0.7723 -0.3987 -0.2815
  629MOL0     C84795   4.003   4.440   7.021  0.3099 -0.0064 -0.4250
  629MOL0     C84796   4.131   4.458   7.092 -0.0149  0.9726  0.4535
  629MOL0     N84797   4.243   4.379   7.038 -0.4320 -0.3678  0.2043
  629MOL0     C84798   4.243   4.248   7.028 -0.7873  1.0324 -1.8955
  629MOL0     C84799   4.363   4.207   7.016 -0.0193 -0.1907  1.1728
  629MOL0     C84800   4.414   4.057   7.003  0.0884  0.1468 -1.2194
  629MOL0     C84801   4.418   4.019   6.854  0.1477 -0.1178  0.2313
  629MOL0     C84802   4.528   3.917   6.824  0.4498  0.1870  0.1051
  629MOL0     C84803   4.497   3.850   6.688 -0.3001 -0.8614  0.7928
  629MOL0     O84804   4.377   3.771   6.688  0.5248  0.7920 -0.3569
  629MOL0     C84805   4.381   3.651   6.626  0.4267 -0.1349  0.1029
  629MOL0     C84806   4.264   3.575   6.640  1.0506  0.6724 -0.5878
  629MOL0     C84807   4.243   3.456   6.576 -0.5923  0.0309  0.2217
  629MOL0     C84808   4.350   3.400   6.515  0.1781 -0.2396  0.0118
  629MOL0     C84809   4.349   3.269   6.454 -0.7404  0.6247  0.2255
  629MOL0     O84810   4.435   3.254   6.340  0.6895  0.4065 -0.5967
  629MOL0     C84811   4.463   3.128   6.296 -0.2176  1.1720  0.2395
  629MOL0     C84812   4.570   3.052   6.352  0.1580  0.2523  0.0864
  629MOL0     C84813   4.611   2.924   6.305  0.6109 -0.5966  0.5396
  629MOL0     C84814   4.538   2.881   6.192  0.1798  0.4386  0.2244
  629MOL0     O84815   4.561   2.750   6.133  0.5045 -0.0525 -1.1065
  629MOL0     C84816   4.678   2.686   6.167  0.2447  0.4947 -0.2019
  629MOL0     C84817   4.691   2.548   6.093  0.2296 -0.2882 -0.7242
  629MOL0     C84818   4.658   2.431   6.197 -0.6092  0.3974 -0.0771
  629MOL0     C84819   4.511   2.449   6.218  0.7465  0.0103  0.9008
  629MOL0     C84820   4.484   2.377   6.347  0.0173 -0.0731  0.3135
  629MOL0     C84821   4.332   2.351   6.380 -0.2259  0.1130 -0.1955
  629MOL0     C84822   4.241   2.277   6.279  0.6291  0.1213  0.3731
  629MOL0     C84823   4.109   2.249   6.347 -0.3947  0.2660  1.5171
  629MOL0    Cl84824   4.124   2.134   6.481 -0.0551 -0.2374 -0.1131
  629MOL0     C84825   4.433   2.959   6.139 -0.0266 -0.2726  0.2491
  629MOL0     C84826   4.395   3.079   6.188  0.3540 -0.3274  0.9192
  629MOL0     O84827   4.299   3.171   6.514 -0.4665 -0.2330  0.1354
  629MOL0     C84828   4.469   3.477   6.496  1.0860 -0.4239  1.8357
  629MOL0     C84829   4.482   3.603   6.546  0.3291  0.4960  0.1168
  629MOL0     N84830   4.445   4.317   7.023 -0.6567 -0.6939 -0.4320
  629MOL0     N84831   4.373   4.420   7.044 -0.8479 -0.7254  0.4016
  629MOL0     C84832   3.169   4.732   7.274 -0.2448  0.0283 -0.6151
  629MOL0     C84833   3.100   4.776   7.387  0.0991  0.5200 -0.4870
  629MOL0     C84834   2.872   5.045   7.679  1.3804 -0.3406  0.2796
  629MOL0     C84835   2.931   5.124   7.780 -0.3856  0.2895 -0.7614
  629MOL0     C84836   2.854   5.166   7.894  0.3549  0.5637 -0.7649
  629MOL0     C84837   2.717   5.134   7.901 -0.3531 -0.3405  0.1499
  629MOL0     O84838   2.639   5.169   8.010 -0.0490 -0.4390  0.8376
  629MOL0     C84839   2.700   5.228   8.127  0.2048  0.2806  0.5954
  629MOL0     C84840   2.596   5.277   8.221  0.4847 -0.0848  0.6009
  629MOL0     C84841   2.507   5.160   8.259  0.0257  0.0371  1.1654
  629MOL0     C84842   2.377   5.187   8.333 -0.0067  0.1354  0.4155
  629MOL0     C84843   2.400   5.213   8.477 -0.3810 -0.5037 -0.0131
  629MOL0     C84844   2.401   5.232   8.598  0.2290  0.3468  0.1712
  629MOL0     C84845   2.664   5.054   7.804 -0.1143  0.6129  0.6356
  629MOL0     C84846   2.736   5.017   7.686  0.2598 -0.1297 -0.4470
  629MOL0     C84847   2.658   4.922   7.593 -0.2632  0.1092 -0.7287
  629MOL0     H84848   2.894   5.004   7.257  2.8472  2.8261 -3.1025
  629MOL0     H84849   3.000   4.940   7.054  0.6991 -0.2381 -0.2293
  629MOL0     H84850   3.264   4.551   7.112  0.6960  1.1116  1.5244
  629MOL0     H84851   3.277   4.559   6.937  2.1180  2.1717 -1.2207
  629MOL0     H84852   3.411   4.736   7.132 -0.2614 -2.3585  2.4476
  629MOL0     H84853   3.442   4.749   6.954 -0.3024  0.1585 -0.6848
  629MOL0     H84854   3.526   4.547   6.923 -2.3655  4.5142 -0.1036
  629MOL0     H84855   3.493   4.483   7.084  0.4321 -1.1669 -1.8577
  629MOL0     H84856   3.675   4.711   7.009 -2.2853 -1.0993 -2.4176
  629MOL0     H84857   3.651   4.653   7.175  3.3867  2.0089 -0.5084
  629MOL0     H84858   3.736   4.423   7.057  0.4231 -0.6979 -3.1954
  629MOL0     H84859   3.767   4.526   6.921 -3.4280  1.9442  0.5549
  629MOL0     H84860   3.948   4.644   7.051  0.9351 -0.4462  1.6588
  629MOL0     H84861   3.907   4.537   7.187  0.7730 -2.2519 -0.3393
  629MOL0     H84862   4.019   4.452   6.913  2.7367 -0.9453 -0.2406
  629MOL0     H84863   3.953   4.344   7.036 -2.3925  1.3082 -0.3831
  629MOL0     H84864   4.159   4.564   7.094  1.3929  0.6230  2.3681
  629MOL0     H84865   4.112   4.420   7.193 -1.0358 -1.6026 -0.6354
  629MOL0     H84866   4.157   4.182   7.030  0.7068 -1.0458 -2.7445
  629MOL0     H84867   4.513   4.052   7.050 -0.1387 -0.6913 -0.8082
  629MOL0     H84868   4.346   3.985   7.049  0.2521 -2.0656 -4.1401
  629MOL0     H84869   4.322   3.989   6.811 -0.8759 -0.3648  2.5515
  629MOL0     H84870   4.448   4.108   6.799  2.8836  0.2575  2.1255
  629MOL0     H84871   4.530   3.838   6.900  0.5029  0.0808 -0.0063
  629MOL0     H84872   4.625   3.963   6.804  0.7594 -1.0119 -1.3553
  629MOL0     H84873   4.585   3.787   6.670  0.4554  0.2046  0.6388
  629MOL0     H84874   4.488   3.924   6.608  1.1282  1.7506  2.8881
  629MOL0     H84875   4.194   3.625   6.706  0.5238 -2.4286  1.4461
  629MOL0     H84876   4.144   3.413   6.588  1.3622 -5.1269  0.3398
  629MOL0     H84877   4.635   3.096   6.427  2.5779  1.6646 -2.6266
  629MOL0     H84878   4.692   2.865   6.346  0.4168 -0.7675  0.6782
  629MOL0     H84879   4.757   2.752   6.130 -0.3512  2.0555  1.1505
  629MOL0     H84880   4.690   2.670   6.275 -3.1840  0.0485  0.2341
  629MOL0     H84881   4.625   2.544   6.006  0.0462  1.7963 -0.7287
  629MOL0     H84882   4.795   2.522   6.070  0.3717  0.6287 -1.1790
  629MOL0     H84883   4.681   2.327   6.172 -1.2142 -0.3869  2.3553
  629MOL0     H84884   4.727   2.450   6.280 -0.0554 -1.4878 -0.0452
  629MOL0     H84885   4.461   2.399   6.135  0.8149 -3.0370  2.5252
  629MOL0     H84886   4.468   2.547   6.241  0.2601 -0.6930  3.3834
  629MOL0     H84887   4.525   2.439   6.427 -0.3833  0.2599  0.2655
  629MOL0     H84888   4.535   2.281   6.340  1.0782  0.5694 -1.3733
  629MOL0     H84889   4.318   2.310   6.480 -2.9405  0.0429 -0.5260
  629MOL0     H84890   4.299   2.456   6.377  1.4096  0.8987  3.7437
  629MOL0     H84891   4.290   2.193   6.229  4.1040  1.1493  1.7237
  629MOL0     H84892   4.223   2.352   6.202 -0.6638  0.3671  0.8983
  629MOL0     H84893   4.067   2.349   6.364  0.1215  0.2871  2.7613
  629MOL0     H84894   4.028   2.204   6.289  0.4012 -1.5403  1.7504
  629MOL0     H84895   4.380   2.908   6.060 -0.8599  0.5373  0.2687
  629MOL0     H84896   4.313   3.142   6.153  1.6116 -0.3010 -2.3613
  629MOL0     H84897   4.554   3.445   6.436  1.3439  3.8607 -0.4305
  629MOL0     H84898   4.566   3.659   6.507 -0.4796  0.5197 -1.6996
  629MOL0     H84899   3.243   4.656   7.297 -0.3456  0.1453  0.1459
  629MOL0     H84900   3.128   4.756   7.489  2.8094  1.9430 -0.8530
  629MOL0     H84901   3.036   5.153   7.778  0.1431 -1.4146  0.0042
  629MOL0     H84902   2.910   5.241   7.950  1.2878 -1.8840  1.8110
  629MOL0     H84903   2.763   5.310   8.092 -2.2845  1.0648 -2.5488
  629MOL0     H84904   2.766   5.162   8.184 -0.4042  1.4640  2.7806
  629MOL0     H84905   2.532   5.350   8.171  0.6696 -0.8828 -0.8835
  629MOL0     H84906   2.635   5.329   8.308  3.6703 -4.2811  2.0278
  629MOL0     H84907   2.564   5.082   8.309 -0.9039 -0.1915  1.9024
  629MOL0     H84908   2.458   5.120   8.170 -0.3590  0.2122  1.2939
  629MOL0     H84909   2.322   5.262   8.274  2.7891  0.2320 -2.3369
  629MOL0     H84910   2.310   5.101   8.329  1.5070 -1.0394 -1.6907
  629MOL0     H84911   2.393   5.245   8.704 -1.8191 -1.0138  0.2312
  629MOL0     H84912   2.558   5.031   7.805  0.2122 -1.4239 -1.6906
  629MOL0     H84913   2.553   4.926   7.624 -0.5200 -2.4948 -1.0270
  629MOL0     H84914   2.658   4.949   7.487 -0.4555  0.5495 -0.6205
  629MOL0     H84915   2.688   4.817   7.590 -2.1021 -0.5382  1.0109
  630MOL0     O84916  10.251   2.842   5.201  0.6961  0.5085 -0.3100
  630MOL0     C84917  10.188   2.743   5.201  0.8352  0.6347  0.4412
  630MOL0     O84918  10.155   2.666   5.307  0.5894 -0.2577  1.2194
  630MOL0     C84919  10.202   2.708   5.422  0.3627 -0.8262  0.2773
  630MOL0     C84920  10.300   2.634   5.479  0.2839 -0.5685 -0.8057
  630MOL0     C84921  10.357   2.662   5.601 -0.3867  0.4251  0.1667
  630MOL0     C84922  10.310   2.781   5.675 -0.1199  0.2391 -0.7113
  630MOL0     O84923  10.344   2.809   5.806  0.2986 -0.9146 -1.2706
  630MOL0     C84924  10.410   2.713   5.892 -0.6925  0.7621 -1.4247
  630MOL0     C84925  10.440   2.765   6.037  0.8960 -0.2955  0.4504
  630MOL0     C84926  10.306   2.818   6.104 -0.4358 -0.1370  0.1274
  630MOL0     C84927  10.278   2.964   6.080  0.6627  0.6923  0.0958
  630MOL0     C84928  10.136   3.008   6.135 -0.6063  0.7539  0.3748
  630MOL0     C84929  10.158   3.065   6.277 -0.4114 -0.3642 -0.3165
  630MOL0     C84930  10.025   3.115   6.335  0.9248 -0.1805  0.5661
  630MOL0     C84931  10.034   3.221   6.442  0.5891 -0.5735  0.5340
  630MOL0     N84932   9.908   3.274   6.485 -1.6212  0.0819 -0.8870
  630MOL0     C84933   9.849   3.379   6.426 -0.3863 -0.2108  0.2142
  630MOL0     C84934   9.739   3.398   6.505 -0.0123  0.2339  0.3536
  630MOL0     C84935   9.654   3.513   6.477  0.3298 -0.6543 -0.1216
  630MOL0     C84936   9.713   3.651   6.511 -0.2265 -0.3153  0.5420
  630MOL0     C84937   9.683   3.692   6.657  0.0913  0.5935 -0.0575
  630MOL0     C84938   9.775   3.633   6.768  0.9158  0.0236  0.4264
  630MOL0     O84939   9.834   3.738   6.847 -0.1100 -0.1332 -0.2415
  630MOL0     C84940   9.942   3.822   6.805  0.4903  0.0834  1.0764
  630MOL0     C84941  10.017   3.896   6.892  0.1001  0.1819 -0.9590
  630MOL0     C84942  10.121   3.978   6.857  0.8994 -0.2844  0.8859
  630MOL0     C84943  10.165   3.980   6.725  0.0369  0.7580  0.0310
  630MOL0     C84944  10.287   4.041   6.696 -0.3095  0.2500  0.2663
  630MOL0     O84945  10.389   4.033   6.780 -0.2946  0.0042 -0.6184
  630MOL0     C84946  10.510   4.095   6.760  0.7849 -0.9512 -0.0974
  630MOL0     C84947  10.544   4.230   6.788 -0.1997 -0.2224 -0.8809
  630MOL0     C84948  10.672   4.281   6.754 -0.2635  0.4549  0.2769
  630MOL0     C84949  10.755   4.193   6.679  0.3886 -0.0017 -0.0131
  630MOL0     O84950  10.875   4.224   6.634  0.5499  0.4641 -0.1261
  630MOL0     C84951  10.901   4.361   6.600  0.4929 -0.8556 -0.7627
  630MOL0     C84952  10.972   4.430   6.715 -1.1514  0.3010  0.4986
  630MOL0     C84953  11.121   4.386   6.714 -0.1892 -0.2084 -0.2024
  630MOL0     C84954  11.203   4.444   6.829 -0.3265 -0.0491 -0.6701
  630MOL0     C84955  11.358   4.408   6.832  1.4325  0.2482  0.1300
  630MOL0     C84956  11.436   4.504   6.917  0.0598 -0.0612  0.2718
  630MOL0     C84957  11.441   4.447   7.051  0.5036  0.5403  0.8047
  630MOL0     C84958  11.494   4.536   7.157  0.5660  0.5037 -0.2455
  630MOL0    Cl84959  11.519   4.451   7.318 -0.3098 -0.0109  0.3261
  630MOL0     C84960  10.714   4.069   6.645 -0.1178 -0.3027  0.5752
  630MOL0     C84961  10.594   4.015   6.687  0.5705 -0.5929 -0.5147
  630MOL0     O84962  10.297   4.090   6.585 -0.9389  0.3378 -0.5105
  630MOL0     C84963  10.085   3.922   6.627 -0.3114  0.3711 -0.0905
  630MOL0     C84964   9.968   3.848   6.665 -0.3722  0.2865 -0.3208
  630MOL0     N84965   9.730   3.304   6.605  0.2674 -0.4695  0.1883
  630MOL0     N84966   9.834   3.227   6.597 -0.3239 -0.3938 -0.5978
  630MOL0     C84967  10.217   2.856   5.616  0.7944  0.0043  1.4921
  630MOL0     C84968  10.162   2.824   5.483 -0.8421 -1.2762 -0.1716
  630MOL0     C84969  10.155   2.690   5.066 -0.5600 -0.4288  0.6661
  630MOL0     C84970  10.121   2.791   4.974  0.5525 -0.0288  1.4365
  630MOL0     C84971  10.078   2.760   4.842  0.1529 -0.5461 -0.1159
  630MOL0     C84972  10.073   2.622   4.806  0.1030 -1.4925  0.9908
  630MOL0     O84973  10.029   2.584   4.681 -0.3900 -0.8637  0.0997
  630MOL0     C84974   9.994   2.664   4.572  0.1297 -0.4061 -0.2562
  630MOL0     C84975  10.112   2.701   4.486  0.4135  0.5416 -0.0491
  630MOL0     C84976  10.072   2.766   4.351 -0.5832  0.5708 -0.3684
  630MOL0     C84977   9.990   2.895   4.354  0.4072 -0.4307 -0.2342
  630MOL0     C84978  10.059   2.997   4.434 -0.6181 -0.1946 -0.2646
  630MOL0     C84979  10.144   3.063   4.490  0.0159 -0.3481 -0.4592
  630MOL0     C84980  10.101   2.519   4.897 -0.9923  0.5294 -1.1318
  630MOL0     C84981  10.143   2.552   5.027  0.0658 -0.2132 -0.4421
  630MOL0     C84982  10.166   2.436   5.121 -0.0407  0.7642  0.7512
  630MOL0     H84983  10.336   2.550   5.421 -0.1600 -0.8058 -0.7428
  630MOL0     H84984  10.432   2.597   5.647 -1.0294 -0.9182 -0.6053
  630MOL0     H84985  10.354   2.619   5.900  3.8889 -2.0865  2.7529
  630MOL0     H84986  10.506   2.677   5.855 -1.1434 -2.1986 -0.0087
  630MOL0     H84987  10.504   2.853   6.028 -0.7318  0.6869 -3.0815
  630MOL0     H84988  10.473   2.680   6.097 -0.6754 -2.1459 -1.1953
  630MOL0     H84989  10.297   2.804   6.212 -5.8340 -2.6647 -0.3370
  630MOL0     H84990  10.226   2.753   6.066  0.1527 -0.1532 -1.1403
  630MOL0     H84991  10.356   3.024   6.128  2.1050 -0.9988 -0.0275
  630MOL0     H84992  10.285   2.985   5.973 -3.3813 -1.3867 -0.7736
  630MOL0     H84993  10.093   3.082   6.067  0.3824  1.2076  0.2344
  630MOL0     H84994  10.069   2.921   6.139 -0.4333  0.6327  0.7149
  630MOL0     H84995  10.201   2.991   6.344 -1.6015 -1.1283 -0.3649
  630MOL0     H84996  10.224   3.151   6.261 -1.0113  0.6853  2.3483
  630MOL0     H84997   9.958   3.038   6.374 -1.6899  0.9233 -1.4268
  630MOL0     H84998   9.968   3.164   6.255  0.0407 -1.8791  0.0878
  630MOL0     H84999  10.070   3.166   6.530 -1.0601  2.2546  3.1500
  630MOL0     H85000  10.099   3.308   6.433 -1.0946  0.8517  1.5252
  630MOL0     H85001   9.890   3.450   6.355 -1.4648  1.8810  1.5741
  630MOL0     H85002   9.620   3.519   6.373 -2.2552  0.2222  0.6784
  630MOL0     H85003   9.561   3.513   6.535  0.2366  2.4629 -0.1046
  630MOL0     H85004   9.822   3.649   6.504 -0.2697 -0.7059 -0.1716
  630MOL0     H85005   9.668   3.725   6.444 -1.2307  2.8299  4.2961
  630MOL0     H85006   9.582   3.653   6.674 -0.4935  1.1358 -2.0363
  630MOL0     H85007   9.676   3.800   6.673 -0.5288  0.2632  2.2265
  630MOL0     H85008   9.856   3.573   6.725  0.4388 -0.8242  0.7047
  630MOL0     H85009   9.717   3.579   6.843 -0.3994  0.5377 -0.1815
  630MOL0     H85010  10.002   3.876   6.997  0.6661 -3.3330 -1.4310
  630MOL0     H85011  10.176   4.040   6.927 -1.5897  0.9857  1.8198
  630MOL0     H85012  10.469   4.292   6.836 -0.7828  0.4541 -2.5863
  630MOL0     H85013  10.688   4.384   6.784  0.6452  0.4484 -0.1664
  630MOL0     H85014  10.955   4.371   6.505  2.9369 -1.3227  0.4860
  630MOL0     H85015  10.808   4.412   6.575 -0.2537 -2.9616 -2.7119
  630MOL0     H85016  10.955   4.537   6.697  2.2634  1.0584  1.1306
  630MOL0     H85017  10.915   4.395   6.801 -0.2262 -1.3942  0.4681
  630MOL0     H85018  11.115   4.277   6.717 -1.9903 -0.1488 -0.3378
  630MOL0     H85019  11.159   4.431   6.622 -2.2405 -0.1583 -1.0864
  630MOL0     H85020  11.160   4.410   6.924 -1.0763  1.1105 -0.5655
  630MOL0     H85021  11.192   4.553   6.825  0.0951  0.0077 -0.2582
  630MOL0     H85022  11.384   4.410   6.726  1.0318 -1.7482 -0.0380
  630MOL0     H85023  11.370   4.307   6.871 -1.2598 -0.0243  0.4735
  630MOL0     H85024  11.532   4.519   6.868 -0.3533  1.7043 -0.0628
  630MOL0     H85025  11.393   4.604   6.924 -1.2499 -0.5339 -0.5498
  630MOL0     H85026  11.511   4.362   7.049  1.2772  1.1585  1.2025
  630MOL0     H85027  11.338   4.419   7.076  0.4837  1.0030  1.2543
  630MOL0     H85028  11.592   4.579   7.134  1.9081 -1.4734  1.4203
  630MOL0     H85029  11.428   4.622   7.172 -0.2123  0.0420 -0.9423
  630MOL0     H85030  10.775   3.988   6.606 -1.8453 -1.8709  0.9348
  630MOL0     H85031  10.566   3.913   6.659 -0.1892  0.0613 -2.2953
  630MOL0     H85032  10.106   3.936   6.522 -1.0330 -0.4041 -0.3516
  630MOL0     H85033   9.904   3.799   6.593 -2.0068 -0.4896  1.5560
  630MOL0     H85034  10.186   2.939   5.679  0.0905  1.9138 -1.2033
  630MOL0     H85035  10.089   2.886   5.434  0.9839 -0.6784 -2.2892
  630MOL0     H85036  10.156   2.891   4.996 -1.2551  1.0018 -0.0567
  630MOL0     H85037  10.061   2.841   4.772  1.0619 -0.0753  0.2010
  630MOL0     H85038   9.936   2.748   4.610  2.0583 -0.2669  2.7617
  630MOL0     H85039   9.929   2.600   4.513 -0.9936  2.4983 -2.4225
  630MOL0     H85040  10.166   2.608   4.470  1.2298  0.2791  3.4837
  630MOL0     H85041  10.183   2.766   4.538 -2.0043  2.7620  0.7222
  630MOL0     H85042  10.002   2.703   4.296  1.4653 -0.8789 -1.4490
  630MOL0     H85043  10.163   2.794   4.297 -2.9395  1.6894 -4.1233
  630MOL0     H85044   9.974   2.928   4.251 -1.1708  3.4011  1.0554
  630MOL0     H85045   9.891   2.875   4.396  0.6864 -2.1793 -0.3184
  630MOL0     H85046  10.228   3.114   4.533  1.6917 -1.4053 -2.3310
  630MOL0     H85047  10.071   2.426   4.849 -1.9843  1.0170 -1.4947
  630MOL0     H85048  10.167   2.338   5.072 -0.5023  2.4761 -2.9786
  630MOL0     H85049  10.268   2.444   5.160 -0.3144  1.3443  1.3567
  630MOL0     H85050  10.083   2.437   5.192 -0.6709  3.0484  0.0540
  631MOL0     O85051  10.100   0.089   2.275  0.1950 -0.2411 -0.1860
  631MOL0     C85052  10.065   0.034   2.170  0.1185  0.2319 -0.5347
  631MOL0     O85053   9.933   0.024   2.130  0.5082 -0.1258  0.6743
  631MOL0     C85054   9.839   0.111   2.178  0.8384 -0.1660 -0.0416
  631MOL0     C85055   9.698   0.082   2.149 -0.0718 -0.9086 -0.0518
  631MOL0     C85056   9.594   0.170   2.185  0.1520  0.7935 -1.2332
  631MOL0     C85057   9.613   0.294   2.246  0.2694 -0.6807  0.1664
  631MOL0     O85058   9.508   0.378   2.297 -0.2014 -0.3401  0.1638
  631MOL0     C85059   9.520   0.510   2.241  0.5723  0.4260  0.1886
  631MOL0     C85060   9.459   0.520   2.099 -0.0887 -0.4614 -0.1496
  631MOL0     C85061   9.305   0.507   2.108  1.5051 -0.7996  0.5785
  631MOL0     C85062   9.239   0.537   1.970 -0.4288  0.0016 -1.0984
  631MOL0     C85063   9.084   0.558   1.986  0.2046 -1.0173 -0.7513
  631MOL0     C85064   9.016   0.508   1.868 -0.1085 -0.3638  0.5978
  631MOL0     C85065   8.855   0.525   1.876 -0.3180 -0.5292 -0.3875
  631MOL0     C85066   8.782   0.429   1.794  0.6272  0.1976  0.2829
  631MOL0     N85067   8.643   0.429   1.826  1.0592 -1.1598 -0.5939
  631MOL0     C85068   8.583   0.410   1.947 -0.2157  0.7464 -0.4527
  631MOL0     C85069   8.451   0.435   1.924  0.5128  0.7545 -0.3719
  631MOL0     C85070   8.342   0.442   2.033 -0.1835 -0.4104  0.5926
  631MOL0     C85071   8.223   0.364   1.982  0.5295  0.3799  0.7630
  631MOL0     C85072   8.259   0.217   1.977  0.6856  0.3298  0.5067
  631MOL0     C85073   8.135   0.141   1.919 -0.3523  0.4595 -0.9787
  631MOL0     O85074   8.036   0.111   2.024  0.7722  0.1376  0.4683
  631MOL0     C85075   8.071   0.046   2.132  0.6164  0.4917 -0.0360
  631MOL0     C85076   8.109  -0.090   2.119 -0.9240 -0.4805  0.4348
  631MOL0     C85077   8.145  -0.152   2.237 -0.4801 -0.9010 -0.3466
  631MOL0     C85078   8.141  -0.096   2.365 -0.4410  0.6101 -0.1804
  631MOL0     C85079   8.197  -0.184   2.479  0.4709  0.3493  0.3464
  631MOL0     O85080   8.204  -0.121   2.604  0.0761 -0.6667 -0.1622
  631MOL0     C85081   8.276  -0.176   2.704  0.4874  0.5664 -0.1721
  631MOL0     C85082   8.410  -0.201   2.686  0.0317 -0.2951 -1.0149
  631MOL0     C85083   8.483  -0.250   2.792  0.7500 -0.1733  0.2092
  631MOL0     C85084   8.425  -0.282   2.918  0.5117 -0.8474  0.3384
  631MOL0     O85085   8.512  -0.324   3.012 -0.1364  0.9585  0.4053
  631MOL0     C85086   8.458  -0.441   3.086  0.5379 -0.2266  0.3093
  631MOL0     C85087   8.469  -0.571   3.006 -0.8219  0.5576 -0.8023
  631MOL0     C85088   8.478  -0.696   3.095 -0.4741 -0.2171  0.1773
  631MOL0     C85089   8.432  -0.814   3.004 -0.3721  0.5446 -0.5107
  631MOL0     C85090   8.417  -0.940   3.094  0.1317  0.5601  0.1241
  631MOL0     C85091   8.373  -1.063   3.011 -0.1722 -0.0238  0.5428
  631MOL0     C85092   8.327  -1.175   3.101  0.2494  0.0085  0.5790
  631MOL0     C85093   8.275  -1.304   3.034  0.1856 -0.8086 -0.4568
  631MOL0    Cl85094   8.413  -1.379   2.948  0.0654  0.1820  0.1769
  631MOL0     C85095   8.283  -0.279   2.937  1.0742 -0.1758  0.5791
  631MOL0     C85096   8.215  -0.223   2.822 -0.3156  0.4068 -1.1229
  631MOL0     O85097   8.247  -0.292   2.455 -0.3619  0.4566  0.0534
  631MOL0     C85098   8.083   0.032   2.376  0.7751 -0.5304 -0.4848
  631MOL0     C85099   8.055   0.109   2.257  0.1496 -0.2880 -0.9580
  631MOL0     N85100   8.438   0.460   1.785 -0.5098  0.3036  0.5034
  631MOL0     N85101   8.554   0.462   1.731  1.3919  0.4282  0.2291
  631MOL0     C85102   9.751   0.324   2.268  0.6412  0.2852 -0.2417
  631MOL0     C85103   9.853   0.239   2.232 -0.1992  0.2226  0.0295
  631MOL0     C85104  10.174  -0.016   2.084 -0.0866  0.0635 -0.0632
  631MOL0     C85105  10.139  -0.064   1.958 -1.1234  0.3173  0.6278
  631MOL0     C85106  10.233  -0.108   1.866  0.6576  0.3331 -0.2288
  631MOL0     C85107  10.371  -0.115   1.899 -0.4248 -0.6893 -0.2069
  631MOL0     O85108  10.477  -0.138   1.813 -0.2144 -0.6196  0.0365
  631MOL0     C85109  10.455  -0.216   1.703 -0.0608  0.5051 -0.4656
  631MOL0     C85110  10.534  -0.345   1.679  0.4939 -0.5662 -0.4910
  631MOL0     C85111  10.662  -0.330   1.595  0.4772 -0.0702 -0.3709
  631MOL0     C85112  10.736  -0.211   1.632  0.2354  0.1975  0.0984
  631MOL0     C85113  10.862  -0.225   1.557 -0.1119  0.0105 -1.1234
  631MOL0     C85114  10.968  -0.256   1.503  0.7545  0.1865 -0.2192
  631MOL0     C85115  10.409  -0.068   2.028  0.6822 -0.4723  0.0693
  631MOL0     C85116  10.310  -0.022   2.121 -0.0554 -0.2854  1.0137
  631MOL0     C85117  10.371   0.036   2.256 -0.4636  0.6609 -0.1157
  631MOL0     H85118   9.675  -0.016   2.110 -1.9451  0.0669 -1.5838
  631MOL0     H85119   9.492   0.134   2.183 -0.8761  3.1776  1.5159
  631MOL0     H85120   9.466   0.579   2.306 -1.7412 -0.6761 -0.4549
  631MOL0     H85121   9.626   0.534   2.230  1.0734 -1.8180 -0.4579
  631MOL0     H85122   9.500   0.436   2.043  1.7260  1.7252 -2.3192
  631MOL0     H85123   9.471   0.608   2.035 -0.1835  0.2309  0.7559
  631MOL0     H85124   9.270   0.568   2.191  1.7948  0.8775 -0.4954
  631MOL0     H85125   9.272   0.405   2.131 -0.2019 -0.9345 -1.9793
  631MOL0     H85126   9.299   0.617   1.926  0.2343  0.2895  0.2960
  631MOL0     H85127   9.261   0.442   1.921 -0.5917  0.7454 -2.6786
  631MOL0     H85128   9.045   0.506   2.074 -1.5943  0.6993 -0.4526
  631MOL0     H85129   9.053   0.662   2.003 -1.6616 -1.0914 -3.2065
  631MOL0     H85130   9.053   0.570   1.786 -1.5102  0.9283  0.9047
  631MOL0     H85131   9.042   0.404   1.843  0.3242  0.1458 -1.2219
  631MOL0     H85132   8.832   0.630   1.858  0.8747 -0.2381 -0.2827
  631MOL0     H85133   8.832   0.519   1.983 -0.5443  3.1337 -0.1073
  631MOL0     H85134   8.793   0.452   1.687  3.2372  1.3095  0.7198
  631MOL0     H85135   8.831   0.334   1.817  0.8125 -0.7461 -3.3493
  631MOL0     H85136   8.627   0.388   2.043  1.6664 -0.3475 -1.5274
  631MOL0     H85137   8.376   0.401   2.128  1.4661 -0.3142  0.0788
  631MOL0     H85138   8.310   0.547   2.029  1.1486  0.0144  0.3316
  631MOL0     H85139   8.144   0.378   2.057 -2.0802 -0.8195 -1.5750
  631MOL0     H85140   8.193   0.404   1.885  1.0079  0.8368  0.8054
  631MOL0     H85141   8.288   0.179   2.075  1.6939 -2.4783 -0.7543
  631MOL0     H85142   8.339   0.201   1.904 -1.0633 -4.4609 -0.8037
  631MOL0     H85143   8.169   0.046   1.876  0.0960  0.3343 -0.3703
  631MOL0     H85144   8.108   0.210   1.839  0.2626  3.8160  1.5042
  631MOL0     H85145   8.098  -0.131   2.019 -0.5503  1.3923 -0.4430
  631MOL0     H85146   8.180  -0.253   2.221  0.2394 -0.6918 -0.1592
  631MOL0     H85147   8.453  -0.164   2.594 -0.1653  4.5828  0.5692
  631MOL0     H85148   8.589  -0.273   2.788  0.9793 -0.4316  4.0332
  631MOL0     H85149   8.515  -0.447   3.179 -0.6380 -0.4588  1.0335
  631MOL0     H85150   8.355  -0.426   3.119  0.3210  1.7851 -1.0915
  631MOL0     H85151   8.378  -0.573   2.944 -0.5337 -2.5429 -1.3003
  631MOL0     H85152   8.554  -0.558   2.940  1.5771 -0.1540  1.9428
  631MOL0     H85153   8.580  -0.698   3.136  0.3305  4.1645 -1.0912
  631MOL0     H85154   8.406  -0.702   3.177 -1.5034 -3.7542 -0.8092
  631MOL0     H85155   8.505  -0.841   2.927  2.3039  3.2800  0.8617
  631MOL0     H85156   8.330  -0.794   2.971  0.0926  2.0959 -1.0698
  631MOL0     H85157   8.333  -0.920   3.162 -0.1481 -0.0820 -0.0288
  631MOL0     H85158   8.507  -0.950   3.156  0.8175  0.1519 -0.9257
  631MOL0     H85159   8.305  -1.035   2.931 -1.7042 -0.8789  1.4990
  631MOL0     H85160   8.461  -1.105   2.960  0.4701 -0.7823  2.1887
  631MOL0     H85161   8.243  -1.151   3.166 -2.0088 -1.3242 -1.6778
  631MOL0     H85162   8.412  -1.197   3.167  1.2809  1.7074 -0.1258
  631MOL0     H85163   8.222  -1.374   3.100 -0.4363 -0.9860 -1.1298
  631MOL0     H85164   8.197  -1.291   2.958 -0.1244  1.4085  0.1499
  631MOL0     H85165   8.230  -0.301   3.029 -0.2493  1.6625  0.3097
  631MOL0     H85166   8.109  -0.218   2.847  0.4008 -1.4819  3.0503
  631MOL0     H85167   8.072   0.073   2.476  1.8971  2.1850 -1.3825
  631MOL0     H85168   8.016   0.210   2.260  1.1833  0.1122  0.9672
  631MOL0     H85169   9.775   0.419   2.313 -0.0220  0.6741 -0.6934
  631MOL0     H85170   9.959   0.259   2.241 -0.0070 -0.7164 -0.0242
  631MOL0     H85171  10.033  -0.058   1.934 -1.1989 -2.6066 -0.0807
  631MOL0     H85172  10.205  -0.134   1.765 -1.0139 -1.1716  0.5764
  631MOL0     H85173  10.455  -0.147   1.618 -1.7046  1.5343  0.3140
  631MOL0     H85174  10.354  -0.258   1.707  0.9482 -2.0534  0.5838
  631MOL0     H85175  10.477  -0.420   1.624  2.1563 -1.2686 -1.2934
  631MOL0     H85176  10.568  -0.376   1.778  1.7189  1.3115 -0.2553
  631MOL0     H85177  10.634  -0.324   1.489  1.3070  2.3080 -0.5117
  631MOL0     H85178  10.713  -0.425   1.608  0.3964 -0.4194 -2.2378
  631MOL0     H85179  10.684  -0.121   1.596  0.6226 -0.5200 -2.5119
  631MOL0     H85180  10.770  -0.201   1.735  2.3950  2.9435 -0.7466
  631MOL0     H85181  11.058  -0.286   1.453  1.9380 -0.1647  1.9793
  631MOL0     H85182  10.515  -0.055   2.045  0.8799 -2.0365  0.1703
  631MOL0     H85183  10.327  -0.009   2.346  1.0878 -2.2013 -0.6620
  631MOL0     H85184  10.475   0.006   2.269 -0.6680  0.4243  1.0985
  631MOL0     H85185  10.367   0.145   2.267 -0.1216  1.2141 -4.1132
  632MOL0     O85186   5.955   7.642   9.090 -0.0128  0.0117 -0.5778
  632MOL0     C85187   6.015   7.548   9.145 -0.4183  0.1147 -0.4682
  632MOL0     O85188   6.030   7.532   9.278  0.0490  0.2885 -0.1633
  632MOL0     C85189   5.999   7.632   9.371  0.3414  0.4582 -0.3334
  632MOL0     C85190   5.874   7.684   9.386  0.2256 -0.3554  0.0342
  632MOL0     C85191   5.845   7.787   9.470 -0.4512 -0.4105  0.1128
  632MOL0     C85192   5.941   7.848   9.554 -0.1316  0.4361 -0.4857
  632MOL0     O85193   5.910   7.955   9.629 -0.1151 -0.1677  0.4484
  632MOL0     C85194   5.985   7.981   9.753  0.1020 -0.4724  0.0397
  632MOL0     C85195   5.891   8.057   9.855  0.6957 -0.2641  1.5418
  632MOL0     C85196   5.768   7.978   9.886 -0.3612 -0.9922  0.7093
  632MOL0     C85197   5.654   8.036   9.797 -0.2922  0.6403 -0.5999
  632MOL0     C85198   5.521   7.968   9.837 -0.8987  1.4310 -1.0551
  632MOL0     C85199   5.505   7.825   9.784 -0.1330 -0.2884  0.3358
  632MOL0     C85200   5.371   7.767   9.807  0.5881  0.0608 -0.4845
  632MOL0     C85201   5.336   7.648   9.724 -0.0072 -0.6708  0.3927
  632MOL0     N85202   5.438   7.546   9.730  0.5373 -0.0682  0.4695
  632MOL0     C85203   5.543   7.538   9.639  0.5607  0.0421 -0.3459
  632MOL0     C85204   5.606   7.421   9.666  1.3601  0.4141  0.7810
  632MOL0     C85205   5.733   7.363   9.604  0.4084 -0.5475 -0.8972
  632MOL0     C85206   5.709   7.250   9.508 -0.1037 -0.5436  0.9375
  632MOL0     C85207   5.838   7.193   9.458 -1.4080  0.4454 -0.9941
  632MOL0     C85208   5.819   7.058   9.379  0.0800 -0.4601  0.6250
  632MOL0     O85209   5.720   7.087   9.273 -0.4184 -0.2952  0.5421
  632MOL0     C85210   5.633   6.986   9.240 -0.2448  0.6897 -1.0503
  632MOL0     C85211   5.665   6.845   9.233 -0.0475 -0.0220  1.0873
  632MOL0     C85212   5.562   6.762   9.179  0.4188  0.1534  0.1102
  632MOL0     C85213   5.434   6.809   9.123 -0.3464 -1.2286  0.5901
  632MOL0     C85214   5.321   6.722   9.080  0.6689  0.5121 -0.2051
  632MOL0     O85215   5.195   6.782   9.041 -0.2822 -0.4500 -1.0453
  632MOL0     C85216   5.082   6.707   9.044  0.2674  0.4317 -0.0751
  632MOL0     C85217   5.038   6.629   9.149 -0.3062  0.7095 -0.0973
  632MOL0     C85218   4.925   6.537   9.143  0.8599 -0.8314 -0.0950
  632MOL0     C85219   4.846   6.541   9.025  0.1585  0.8667 -0.2956
  632MOL0     O85220   4.732   6.464   9.021  0.4906  0.1582  0.0249
  632MOL0     C85221   4.630   6.465   8.920  1.4010  0.6289  0.1005
  632MOL0     C85222   4.557   6.327   8.933  0.5743  0.4125  0.4898
  632MOL0     C85223   4.649   6.206   8.907  0.3955  0.0140 -0.6786
  632MOL0     C85224   4.663   6.181   8.753  0.4212  0.3305  0.3333
  632MOL0     C85225   4.544   6.124   8.680  0.4094  0.1377  0.2931
  632MOL0     C85226   4.568   6.113   8.528 -1.0067 -0.2194 -0.7863
  632MOL0     C85227   4.464   6.031   8.458  0.3645  0.1560  0.1629
  632MOL0     C85228   4.508   5.885   8.436  0.4958 -0.3173  0.1624
  632MOL0    Cl85229   4.661   5.885   8.343  0.5209 -0.0586  0.0308
  632MOL0     C85230   4.877   6.627   8.921 -0.5687 -0.0100 -0.3268
  632MOL0     C85231   5.004   6.703   8.926  0.3103  0.6854 -0.6051
  632MOL0     O85232   5.343   6.594   9.079 -0.3175  0.5429 -0.7192
  632MOL0     C85233   5.416   6.945   9.132  2.0113 -1.2443 -0.9982
  632MOL0     C85234   5.509   7.033   9.190  0.3778 -0.5254  0.1401
  632MOL0     N85235   5.530   7.361   9.772  0.4406 -0.4822 -0.6078
  632MOL0     N85236   5.428   7.446   9.816 -0.7132  0.2298 -0.2606
  632MOL0     C85237   6.075   7.791   9.552 -0.4603  0.2453  0.3550
  632MOL0     C85238   6.092   7.683   9.463 -0.6040 -0.3031 -0.5049
  632MOL0     C85239   6.093   7.456   9.052 -0.1604  0.7037  0.6310
  632MOL0     C85240   6.040   7.433   8.919  1.3695 -0.0522 -0.1100
  632MOL0     C85241   6.108   7.356   8.821  0.1542 -0.5621  0.3397
  632MOL0     C85242   6.231   7.296   8.856 -0.2715  0.1957 -0.3451
  632MOL0     O85243   6.291   7.209   8.766  0.1276  0.1589 -0.1031
  632MOL0     C85244   6.209   7.105   8.712 -0.2743 -0.5863 -0.2430
  632MOL0     C85245   6.283   7.012   8.616 -1.4792 -0.0624 -1.3994
  632MOL0     C85246   6.386   6.938   8.704 -0.3154  0.8124 -0.5551
  632MOL0     C85247   6.473   6.846   8.618  0.4076 -0.0979  0.0829
  632MOL0     C85248   6.541   6.908   8.505 -0.5256  0.0874 -0.3290
  632MOL0     C85249   6.609   6.967   8.428  0.1553 -0.5854 -0.0780
  632MOL0     C85250   6.285   7.319   8.976  0.1136  1.1509  0.5932
  632MOL0     C85251   6.226   7.408   9.071  0.4595  0.1071 -0.7395
  632MOL0     C85252   6.304   7.428   9.203 -0.1095 -1.0468  0.9849
  632MOL0     H85253   5.799   7.658   9.312 -0.9742 -1.1213  1.4573
  632MOL0     H85254   5.745   7.828   9.474 -0.8741 -1.3650 -0.4904
  632MOL0     H85255   6.027   7.896   9.807 -0.9533  0.5438  2.6152
  632MOL0     H85256   6.073   8.042   9.735  0.0640 -0.8592 -1.6375
  632MOL0     H85257   5.865   8.155   9.816  1.4276  0.0421  1.8138
  632MOL0     H85258   5.953   8.067   9.944  2.9178  0.4827 -0.0145
  632MOL0     H85259   5.737   7.995   9.990  0.9835 -0.4431  1.0353
  632MOL0     H85260   5.794   7.872   9.875 -0.0987 -0.7029 -1.9151
  632MOL0     H85261   5.630   8.141   9.814  0.9009  0.6227  1.5911
  632MOL0     H85262   5.677   8.014   9.692 -0.9277 -0.9621 -0.4272
  632MOL0     H85263   5.523   7.954   9.945 -0.9060 -1.8576 -1.3963
  632MOL0     H85264   5.445   8.038   9.800  0.5872  2.7535 -1.7635
  632MOL0     H85265   5.533   7.823   9.678  4.2649 -0.9823  1.3212
  632MOL0     H85266   5.575   7.752   9.826  0.2548 -0.7623 -1.0855
  632MOL0     H85267   5.285   7.831   9.788  0.2821  0.6254  2.3198
  632MOL0     H85268   5.365   7.740   9.913 -0.6953  0.9686 -0.3018
  632MOL0     H85269   5.243   7.598   9.753 -0.6721 -0.8228 -1.8526
  632MOL0     H85270   5.322   7.679   9.620  3.5710  0.3773  0.0909
  632MOL0     H85271   5.572   7.608   9.561 -1.6220  0.2949 -0.9920
  632MOL0     H85272   5.798   7.442   9.565  1.3325 -1.0671 -0.4427
  632MOL0     H85273   5.775   7.327   9.699 -0.9853  0.7923  0.2823
  632MOL0     H85274   5.650   7.184   9.573  0.1971 -0.1393  1.6322
  632MOL0     H85275   5.637   7.289   9.435  0.0457  2.3529  2.1931
  632MOL0     H85276   5.911   7.161   9.533 -2.1963 -1.0049 -0.7990
  632MOL0     H85277   5.886   7.270   9.397  0.7143 -0.0791 -0.0900
  632MOL0     H85278   5.785   6.976   9.442  0.3774 -0.3973  0.8746
  632MOL0     H85279   5.911   7.022   9.331 -1.7093 -2.4691 -1.5108
  632MOL0     H85280   5.755   6.820   9.287  0.9315 -1.8300 -1.2357
  632MOL0     H85281   5.580   6.656   9.167  1.6142  0.5925 -2.5751
  632MOL0     H85282   5.098   6.630   9.239  0.8521  1.8700 -0.8531
  632MOL0     H85283   4.898   6.472   9.227 -2.5957 -2.4715 -2.2373
  632MOL0     H85284   4.560   6.546   8.943 -2.0735 -2.0129 -0.4098
  632MOL0     H85285   4.668   6.482   8.819 -2.3085  1.3694 -1.3434
  632MOL0     H85286   4.525   6.322   9.038 -1.6577 -0.1114 -0.1672
  632MOL0     H85287   4.471   6.321   8.866  1.6887 -1.0041 -0.8949
  632MOL0     H85288   4.747   6.223   8.952 -0.1779 -2.7783  1.9665
  632MOL0     H85289   4.614   6.114   8.954  3.9986 -0.9943  0.3301
  632MOL0     H85290   4.747   6.111   8.752  0.7910  0.6548  2.5045
  632MOL0     H85291   4.686   6.271   8.695 -1.0416  1.6870  1.7596
  632MOL0     H85292   4.457   6.184   8.711  0.5876 -1.5678  4.9030
  632MOL0     H85293   4.525   6.022   8.715 -1.2766 -0.0181 -0.9273
  632MOL0     H85294   4.558   6.211   8.482  0.9504 -0.4786 -1.8644
  632MOL0     H85295   4.672   6.078   8.518 -1.2488 -0.7109 -1.7138
  632MOL0     H85296   4.445   6.069   8.357 -3.7028  0.6245  0.9333
  632MOL0     H85297   4.368   6.052   8.507 -0.7006  1.6760 -2.3832
  632MOL0     H85298   4.525   5.826   8.527  0.8649 -2.6476 -1.3187
  632MOL0     H85299   4.427   5.825   8.392 -0.6866  1.1743  0.2022
  632MOL0     H85300   4.808   6.655   8.841  1.6936 -0.0325 -2.3865
  632MOL0     H85301   5.032   6.769   8.845  0.0906  0.3928 -0.9199
  632MOL0     H85302   5.323   6.989   9.098  2.3069  0.8132  0.6852
  632MOL0     H85303   5.491   7.140   9.201 -0.7224 -0.9035  2.5616
  632MOL0     H85304   6.152   7.827   9.618 -0.1672  0.9539 -0.3439
  632MOL0     H85305   6.197   7.659   9.452 -0.7066 -1.6531  1.1073
  632MOL0     H85306   5.951   7.479   8.878  0.7506 -1.4924 -0.4590
  632MOL0     H85307   6.052   7.345   8.729 -0.0693 -1.4687  0.5658
  632MOL0     H85308   6.132   7.143   8.644 -1.1991 -2.1568 -0.1141
  632MOL0     H85309   6.153   7.058   8.794  0.3389 -1.9250 -0.5794
  632MOL0     H85310   6.350   7.069   8.550  0.5082 -1.4775 -0.7028
  632MOL0     H85311   6.220   6.953   8.549 -2.4377  0.7436 -1.2320
  632MOL0     H85312   6.326   6.879   8.773 -0.3067  0.4111 -0.8816
  632MOL0     H85313   6.447   7.001   8.769 -0.6571 -1.4610  2.1906
  632MOL0     H85314   6.534   6.793   8.692 -0.0204  1.0303  1.3090
  632MOL0     H85315   6.400   6.773   8.581  1.1353 -1.5988  1.4649
  632MOL0     H85316   6.659   7.024   8.353 -0.4684 -0.5059 -0.4400
  632MOL0     H85317   6.379   7.271   8.999 -0.5597 -1.3317 -1.4297
  632MOL0     H85318   6.246   7.397   9.290 -2.3408  1.0520  0.3565
  632MOL0     H85319   6.402   7.380   9.205 -0.0938 -0.9851  2.8679
  632MOL0     H85320   6.319   7.536   9.204  2.0290 -1.1630 -2.1687
  633MOL0     O85321  11.248   3.335   7.674 -0.3480 -0.4306  0.6891
  633MOL0     C85322  11.192   3.264   7.593  0.4190  1.3203 -0.3462
  633MOL0     O85323  11.125   3.307   7.480  0.1694 -0.2328  0.5418
  633MOL0     C85324  11.077   3.438   7.490  0.6952  0.1995  0.4915
  633MOL0     C85325  11.099   3.521   7.379  1.0002 -1.2634 -0.8711
  633MOL0     C85326  11.024   3.635   7.365 -0.8372 -1.0127 -0.1687
  633MOL0     C85327  10.931   3.665   7.463  0.1919  0.2502  0.2402
  633MOL0     O85328  10.846   3.775   7.437  1.0266  0.3754  0.3438
  633MOL0     C85329  10.723   3.803   7.508 -0.1157  0.0497  0.2185
  633MOL0     C85330  10.748   3.876   7.644 -0.2964  0.1285 -0.4543
  633MOL0     C85331  10.763   4.030   7.603  0.3489 -0.0465  0.3199
  633MOL0     C85332  10.753   4.124   7.712 -0.5184 -0.0962 -0.1794
  633MOL0     C85333  10.619   4.190   7.728 -0.1672  0.0471 -0.0163
  633MOL0     C85334  10.527   4.103   7.803  0.5979 -0.2325  0.1869
  633MOL0     C85335  10.382   4.167   7.804 -0.7169 -0.3704  0.4453
  633MOL0     C85336  10.281   4.058   7.821  0.5495  0.2551 -1.0647
  633MOL0     N85337  10.276   4.026   7.969 -0.1619  1.0140  0.3619
  633MOL0     C85338  10.342   3.916   8.017  0.4283 -0.1004 -0.1008
  633MOL0     C85339  10.307   3.920   8.151 -0.6476 -0.4164  0.4288
  633MOL0     C85340  10.340   3.821   8.260 -0.4649  0.4797 -0.4716
  633MOL0     C85341  10.270   3.696   8.229 -0.1762  0.5330 -0.2907
  633MOL0     C85342  10.118   3.698   8.262 -0.2354  0.5982 -0.7187
  633MOL0     C85343  10.074   3.550   8.257 -0.0241 -0.0531  0.8662
  633MOL0     O85344   9.933   3.529   8.272  0.3902  0.2422 -0.4236
  633MOL0     C85345   9.886   3.396   8.276  0.5281 -0.4107 -0.0953
  633MOL0     C85346   9.756   3.370   8.270  0.0020  0.4769  0.1101
  633MOL0     C85347   9.703   3.241   8.262  0.1550 -0.4783  0.7803
  633MOL0     C85348   9.787   3.137   8.263 -0.8979 -0.6596  0.5559
  633MOL0     C85349   9.742   2.989   8.244  0.0771  0.9313 -0.6355
  633MOL0     O85350   9.633   2.973   8.160 -0.5461  0.2491 -0.0068
  633MOL0     C85351   9.522   2.892   8.204 -0.5385 -0.5333 -0.1328
  633MOL0     C85352   9.447   2.820   8.109 -0.2307  0.2291 -0.2911
  633MOL0     C85353   9.334   2.754   8.148 -0.8583  0.4986  0.4268
  633MOL0     C85354   9.288   2.752   8.285 -0.5930 -1.4078  0.1013
  633MOL0     O85355   9.177   2.688   8.344  0.2861  0.8969 -0.2414
  633MOL0     C85356   9.077   2.618   8.265 -0.1359 -0.4023  0.0983
  633MOL0     C85357   9.014   2.724   8.164  0.0249 -0.3369 -0.1494
  633MOL0     C85358   8.873   2.699   8.158 -0.3195 -0.0571 -0.9073
  633MOL0     C85359   8.790   2.780   8.064 -0.7485 -0.4954  0.3549
  633MOL0     C85360   8.648   2.727   8.077 -0.2366  0.5633 -0.4131
  633MOL0     C85361   8.548   2.794   7.982 -0.2500 -0.2715  0.4504
  633MOL0     C85362   8.418   2.704   7.962 -0.2983  0.1382 -0.6230
  633MOL0     C85363   8.318   2.772   7.865  0.2535 -0.8989  0.5476
  633MOL0    Cl85364   8.176   2.667   7.857  0.1319  0.1222  0.1592
  633MOL0     C85365   9.366   2.820   8.377  0.1556  0.0865 -0.5214
  633MOL0     C85366   9.481   2.896   8.342 -0.4029  0.0574  1.2684
  633MOL0     O85367   9.797   2.901   8.311 -0.2329 -0.3129 -0.2933
  633MOL0     C85368   9.928   3.157   8.286 -0.1521  0.2552  0.2941
  633MOL0     C85369   9.978   3.282   8.278 -0.1355  0.1346 -1.2560
  633MOL0     N85370  10.201   4.014   8.169 -0.2502  0.1263 -0.3490
  633MOL0     N85371  10.197   4.085   8.064  0.0733  0.3494  0.6470
  633MOL0     C85372  10.908   3.583   7.576  0.2729  0.4967 -0.7577
  633MOL0     C85373  10.986   3.473   7.593  0.0553 -0.2171 -0.2402
  633MOL0     C85374  11.192   3.115   7.614  0.0818 -1.2779 -0.1197
  633MOL0     C85375  11.171   3.030   7.504  0.3525  0.1743  0.3667
  633MOL0     C85376  11.168   2.890   7.521 -0.3988 -0.0558  0.3019
  633MOL0     C85377  11.159   2.828   7.647  0.0149 -0.0775  0.6711
  633MOL0     O85378  11.129   2.693   7.662 -0.4626  0.8402 -0.2917
  633MOL0     C85379  11.133   2.589   7.562 -0.2624 -0.7881  0.1902
  633MOL0     C85380  11.151   2.446   7.617  0.3864 -0.4244 -0.9000
  633MOL0     C85381  11.034   2.416   7.714 -0.7713  0.1451  0.7360
  633MOL0     C85382  11.060   2.464   7.858 -0.3611 -0.2533  0.0433
  633MOL0     C85383  11.143   2.364   7.934 -0.1711 -0.6053  0.2550
  633MOL0     C85384  11.204   2.287   8.010 -0.2478  0.1258  0.3218
  633MOL0     C85385  11.171   2.914   7.756  0.1637  0.2924  0.6634
  633MOL0     C85386  11.193   3.050   7.743  0.8026  0.2362  0.1003
  633MOL0     C85387  11.211   3.133   7.871 -0.1899 -0.5399 -0.0371
  633MOL0     H85388  11.176   3.486   7.311  3.0146 -0.2112  0.7405
  633MOL0     H85389  11.052   3.699   7.282  1.2085 -1.4906  0.0954
  633MOL0     H85390  10.656   3.861   7.444 -0.4246 -0.9352 -0.3787
  633MOL0     H85391  10.678   3.706   7.532 -0.0481  0.2993  1.4002
  633MOL0     H85392  10.830   3.825   7.696  0.3697  0.4511 -1.1547
  633MOL0     H85393  10.664   3.857   7.711  1.6374 -1.0358  1.7764
  633MOL0     H85394  10.673   4.050   7.544  0.1863  3.1964  1.4824
  633MOL0     H85395  10.852   4.041   7.540  0.7636 -5.0237 -0.3385
  633MOL0     H85396  10.775   4.066   7.802 -1.8362 -1.2874 -0.5877
  633MOL0     H85397  10.829   4.203   7.705  0.1713 -0.4955  2.0382
  633MOL0     H85398  10.619   4.287   7.779  1.1278 -0.0206  0.1539
  633MOL0     H85399  10.578   4.200   7.627 -1.3480  2.4818  0.6336
  633MOL0     H85400  10.526   3.996   7.777  1.6594 -1.3378  4.0576
  633MOL0     H85401  10.547   4.110   7.910  2.3882  0.9902 -0.1789
  633MOL0     H85402  10.378   4.199   7.699  2.5206 -1.9748 -0.3039
  633MOL0     H85403  10.348   4.252   7.864 -1.4993 -1.7985  2.1146
  633MOL0     H85404  10.181   4.094   7.792  0.2272  2.3729  2.1862
  633MOL0     H85405  10.303   3.962   7.772  0.8780 -1.2024  1.7253
  633MOL0     H85406  10.419   3.859   7.965  1.2188  2.4759 -1.9250
  633MOL0     H85407  10.449   3.813   8.256 -0.2353  1.9834  1.4846
  633MOL0     H85408  10.299   3.848   8.358 -0.3241  0.9511 -0.5407
  633MOL0     H85409  10.295   3.654   8.131 -1.2747  1.3202 -0.9400
  633MOL0     H85410  10.304   3.622   8.302 -0.9182 -0.4172 -0.8927
  633MOL0     H85411  10.068   3.752   8.181 -1.3320 -0.7158 -0.9342
  633MOL0     H85412  10.095   3.734   8.362 -0.8709 -5.6584  1.8230
  633MOL0     H85413  10.131   3.503   8.337  1.9772 -2.3835 -1.7359
  633MOL0     H85414  10.118   3.505   8.168  3.9228  1.3461  1.9020
  633MOL0     H85415   9.690   3.457   8.279  0.2109  0.5639  0.8109
  633MOL0     H85416   9.597   3.219   8.253 -0.0694  1.0835 -1.1873
  633MOL0     H85417   9.479   2.809   8.006  1.2682 -1.2490  0.2781
  633MOL0     H85418   9.279   2.701   8.071  1.0818 -0.2647 -0.5019
  633MOL0     H85419   9.119   2.532   8.213  0.6079  1.2165 -2.1414
  633MOL0     H85420   9.005   2.574   8.335  0.1230 -2.3255 -0.7823
  633MOL0     H85421   9.033   2.824   8.204  1.5626 -0.2289 -1.0732
  633MOL0     H85422   9.056   2.709   8.064  0.4117 -0.0567 -0.0305
  633MOL0     H85423   8.858   2.598   8.118 -2.0451 -1.3967  2.6722
  633MOL0     H85424   8.833   2.712   8.259  5.0857 -1.6531  1.8614
  633MOL0     H85425   8.833   2.753   7.968 -0.4548 -2.3637  0.9794
  633MOL0     H85426   8.790   2.889   8.074 -1.2882 -0.2082 -2.1229
  633MOL0     H85427   8.598   2.735   8.174 -1.6374 -2.5131 -0.7368
  633MOL0     H85428   8.663   2.620   8.059 -1.8898  0.0498  1.0517
  633MOL0     H85429   8.520   2.890   8.027  1.2925  1.6099 -2.2567
  633MOL0     H85430   8.594   2.810   7.884  0.8797 -4.0024  0.2239
  633MOL0     H85431   8.380   2.673   8.060  2.9919 -1.2585  0.3714
  633MOL0     H85432   8.458   2.610   7.922  5.0400  0.6503  2.5389
  633MOL0     H85433   8.301   2.875   7.897  3.6915 -0.5535  1.6321
  633MOL0     H85434   8.375   2.768   7.772  2.3669 -4.6548  1.7728
  633MOL0     H85435   9.336   2.821   8.482 -3.5841 -0.2915 -1.4502
  633MOL0     H85436   9.547   2.941   8.415  1.0956 -0.4767  0.2885
  633MOL0     H85437   9.990   3.070   8.303 -1.2754 -0.3510  1.4685
  633MOL0     H85438  10.085   3.296   8.294 -0.1197 -0.9273 -0.2707
  633MOL0     H85439  10.832   3.602   7.651  0.3487 -1.7058 -0.0521
  633MOL0     H85440  10.986   3.415   7.685 -1.1550  1.2020  0.7089
  633MOL0     H85441  11.176   3.065   7.402 -1.0800  0.5151  0.4002
  633MOL0     H85442  11.149   2.823   7.437 -3.4864  0.1178  0.7367
  633MOL0     H85443  11.218   2.614   7.496 -0.6240  0.8578  0.3070
  633MOL0     H85444  11.039   2.595   7.506 -2.2808 -0.8932  3.3439
  633MOL0     H85445  11.245   2.421   7.667  0.7460 -5.7607 -3.5135
  633MOL0     H85446  11.145   2.370   7.539  0.0730 -1.5661  0.2088
  633MOL0     H85447  11.018   2.308   7.723 -2.9387  0.4235  0.8916
  633MOL0     H85448  10.950   2.470   7.669  1.0488  1.8372 -0.7387
  633MOL0     H85449  11.105   2.563   7.851 -3.4937  1.2057 -0.9490
  633MOL0     H85450  10.969   2.481   7.915 -0.5222  2.4064 -0.8651
  633MOL0     H85451  11.222   2.209   8.081  0.8830  0.2478  0.1942
  633MOL0     H85452  11.168   2.870   7.855  1.1322  0.9473  1.0021
  633MOL0     H85453  11.225   3.063   7.954  2.4139  0.4003  0.4123
  633MOL0     H85454  11.305   3.188   7.881  0.2825 -1.7683  5.2444
  633MOL0     H85455  11.131   3.208   7.874 -0.5061 -0.6204 -3.2799
  634MOL0     O85456   0.658   8.528   3.326 -0.2186  0.1680  0.5313
  634MOL0     C85457   0.576   8.434   3.326 -0.4988  0.6934  0.2369
  634MOL0     O85458   0.594   8.316   3.397  0.5134 -0.1478  0.2480
  634MOL0     C85459   0.720   8.304   3.450 -0.8831 -0.1998 -0.7086
  634MOL0     C85460   0.749   8.378   3.572 -0.2559 -0.4479 -0.0156
  634MOL0     C85461   0.869   8.365   3.635  0.3318  0.0968 -0.5216
  634MOL0     C85462   0.966   8.274   3.599 -0.1686 -1.0815  0.7207
  634MOL0     O85463   1.068   8.269   3.695 -0.2114  0.5216 -0.4051
  634MOL0     C85464   1.181   8.191   3.660 -0.1480 -0.1282 -0.0407
  634MOL0     C85465   1.293   8.178   3.781 -0.4447  0.3314  0.2302
  634MOL0     C85466   1.259   8.057   3.863 -0.6762  0.5602 -0.2265
  634MOL0     C85467   1.344   7.948   3.809  0.9509  0.2641  1.0489
  634MOL0     C85468   1.293   7.818   3.880  0.0695  0.9542 -0.0533
  634MOL0     C85469   1.186   7.737   3.813  0.0592  0.1051  0.5899
  634MOL0     C85470   1.227   7.600   3.756 -0.1259 -0.8897  0.3116
  634MOL0     C85471   1.106   7.526   3.701 -0.4200  1.0403 -0.3700
  634MOL0     N85472   1.145   7.410   3.620  0.1157 -0.0846  0.0189
  634MOL0     C85473   1.263   7.393   3.560 -0.6509  0.8693  0.2250
  634MOL0     C85474   1.246   7.269   3.508 -1.2052  0.5288 -0.3194
  634MOL0     C85475   1.351   7.197   3.434  0.0940 -0.7248  0.4659
  634MOL0     C85476   1.324   7.195   3.282  0.2270 -0.4387 -0.5903
  634MOL0     C85477   1.222   7.089   3.248 -0.1872  0.0315 -0.0107
  634MOL0     C85478   1.198   7.071   3.096 -0.3258 -0.8759  0.0526
  634MOL0     O85479   1.145   7.189   3.037 -0.0458  0.0611  0.0568
  634MOL0     C85480   1.167   7.206   2.904  0.4705  0.3615 -0.3014
  634MOL0     C85481   1.206   7.326   2.847 -0.8551 -0.1118  0.6804
  634MOL0     C85482   1.236   7.341   2.709  0.1678  0.5496 -0.1684
  634MOL0     C85483   1.220   7.220   2.628  0.2963 -0.0889 -0.0680
  634MOL0     C85484   1.243   7.222   2.478  0.1995  0.0669 -0.2153
  634MOL0     O85485   1.221   7.106   2.403 -0.7660 -0.0409  0.6332
  634MOL0     C85486   1.215   7.119   2.267  0.0600  0.3450  0.0144
  634MOL0     C85487   1.113   7.174   2.201  0.4468 -1.4015 -1.4955
  634MOL0     C85488   1.114   7.184   2.059 -0.2138 -0.1050 -0.3607
  634MOL0     C85489   1.214   7.120   1.987  0.0516  0.5391 -0.5263
  634MOL0     O85490   1.224   7.117   1.851  0.0430 -0.2441  0.1723
  634MOL0     C85491   1.104   7.108   1.774 -0.2324 -0.6469  0.5481
  634MOL0     C85492   1.136   7.057   1.632  0.2896 -0.0205 -0.3374
  634MOL0     C85493   1.227   7.156   1.552 -0.3840  0.0631 -0.6522
  634MOL0     C85494   1.254   7.119   1.407  1.1133 -0.3540 -0.1907
  634MOL0     C85495   1.144   7.200   1.315 -0.0009  1.3570  0.4005
  634MOL0     C85496   1.164   7.155   1.172 -0.9954 -0.1998  0.2269
  634MOL0     C85497   1.295   7.199   1.110  0.7233 -0.3219 -0.0445
  634MOL0     C85498   1.306   7.134   0.967  0.9289 -0.0545  0.5160
  634MOL0    Cl85499   1.460   7.160   0.876  0.0503  0.2309 -0.1164
  634MOL0     C85500   1.314   7.052   2.051 -0.0837  0.5319 -0.8799
  634MOL0     C85501   1.310   7.054   2.188  0.3923  0.1230 -0.0740
  634MOL0     O85502   1.263   7.335   2.427  0.1446 -0.4301  0.0912
  634MOL0     C85503   1.168   7.112   2.675 -0.2256 -0.4274 -1.2298
  634MOL0     C85504   1.140   7.105   2.811 -0.0817  0.0264 -0.0939
  634MOL0     N85505   1.127   7.217   3.549 -0.2529  0.3795  0.5106
  634MOL0     N85506   1.063   7.299   3.615  0.4683 -0.4782  0.1875
  634MOL0     C85507   0.950   8.204   3.476  0.4304  0.3801  0.3660
  634MOL0     C85508   0.826   8.220   3.400  0.9467 -0.5225 -0.1099
  634MOL0     C85509   0.464   8.434   3.232 -0.3629  0.2226  0.8140
  634MOL0     C85510   0.442   8.311   3.170 -0.2946 -0.1034 -0.7238
  634MOL0     C85511   0.343   8.299   3.069 -0.0897 -0.3146  0.4275
  634MOL0     C85512   0.272   8.411   3.037  0.0946 -0.3943 -0.1450
  634MOL0     O85513   0.175   8.420   2.944 -0.1205 -0.3511  0.3030
  634MOL0     C85514   0.113   8.305   2.882  0.1098  0.2720  0.1370
  634MOL0     C85515   0.197   8.250   2.765 -0.2452  0.3197 -0.4020
  634MOL0     C85516   0.253   8.351   2.667  0.2740 -0.4218  0.1270
  634MOL0     C85517   0.342   8.280   2.559 -0.9048 -1.1870 -0.0016
  634MOL0     C85518   0.263   8.204   2.462  0.9133  0.3176 -0.2560
  634MOL0     C85519   0.209   8.150   2.369 -0.2132  0.3680 -0.1769
  634MOL0     C85520   0.292   8.529   3.100 -0.7422 -0.3517 -0.9278
  634MOL0     C85521   0.389   8.552   3.194 -0.8780 -0.5997  0.0128
  634MOL0     C85522   0.404   8.682   3.266 -0.0099  0.1827 -0.2023
  634MOL0     H85523   0.678   8.445   3.620  0.1820 -0.0242  0.0425
  634MOL0     H85524   0.886   8.411   3.732  2.3691  0.4101 -0.9659
  634MOL0     H85525   1.143   8.089   3.644 -0.0850  0.0313 -1.2643
  634MOL0     H85526   1.224   8.225   3.566 -0.9794 -2.1060 -1.2235
  634MOL0     H85527   1.286   8.269   3.842  2.1717 -0.0598  1.2219
  634MOL0     H85528   1.396   8.176   3.746  0.8818  0.8116  3.7408
  634MOL0     H85529   1.156   8.020   3.861 -0.0786 -1.3350  0.9140
  634MOL0     H85530   1.290   8.073   3.967  1.4870 -0.6607 -0.6391
  634MOL0     H85531   1.347   7.944   3.699 -1.6763 -0.8472  0.9253
  634MOL0     H85532   1.446   7.974   3.837  1.0898  1.7076 -0.6193
  634MOL0     H85533   1.379   7.750   3.887 -1.0191 -0.2823  1.8799
  634MOL0     H85534   1.259   7.841   3.981 -0.1707 -1.4328  0.4697
  634MOL0     H85535   1.105   7.731   3.886 -1.0042  0.8684 -0.4983
  634MOL0     H85536   1.150   7.796   3.728 -1.4613 -3.5682 -1.5157
  634MOL0     H85537   1.271   7.541   3.836  1.3171 -1.0683 -0.5838
  634MOL0     H85538   1.305   7.622   3.682  1.7075  1.0231  2.6449
  634MOL0     H85539   1.039   7.502   3.784 -3.6997 -0.0607 -3.1226
  634MOL0     H85540   1.046   7.583   3.629 -1.6826 -1.5057 -1.4606
  634MOL0     H85541   1.353   7.454   3.556  0.2692 -0.4667 -0.1284
  634MOL0     H85542   1.449   7.243   3.444  0.2193  0.0848 -3.1220
  634MOL0     H85543   1.363   7.098   3.480  0.8041 -0.7542  0.2256
  634MOL0     H85544   1.289   7.290   3.243  0.2524  0.2953  1.1080
  634MOL0     H85545   1.422   7.164   3.245 -0.2054  0.0535 -2.2514
  634MOL0     H85546   1.129   7.114   3.300  0.3230  2.1797 -0.0242
  634MOL0     H85547   1.262   6.997   3.292  1.6472  1.0680  0.5877
  634MOL0     H85548   1.136   6.984   3.075 -1.0621 -0.3207 -0.1212
  634MOL0     H85549   1.295   7.039   3.056  2.2148  1.9634  3.3589
  634MOL0     H85550   1.232   7.416   2.903  0.6214 -1.8498  2.9547
  634MOL0     H85551   1.258   7.433   2.655  1.9142  0.2648 -0.0131
  634MOL0     H85552   1.033   7.232   2.245  1.4393  1.1941 -2.9157
  634MOL0     H85553   1.026   7.223   2.008  0.3488  2.5298  0.5311
  634MOL0     H85554   1.023   7.046   1.814 -3.4259  1.6323 -1.8416
  634MOL0     H85555   1.065   7.210   1.774 -0.1896 -0.6274  1.4275
  634MOL0     H85556   1.176   6.956   1.645 -1.4266 -0.4769  2.2127
  634MOL0     H85557   1.041   7.043   1.579 -0.9332 -1.7834  2.0501
  634MOL0     H85558   1.185   7.257   1.559 -0.0324  0.1069  2.2263
  634MOL0     H85559   1.324   7.166   1.603  0.6405  0.1453 -2.5357
  634MOL0     H85560   1.242   7.010   1.405 -1.9196 -0.4961  5.4834
  634MOL0     H85561   1.357   7.148   1.382  1.3228 -0.3928  0.6022
  634MOL0     H85562   1.168   7.306   1.326  2.1888  1.0730 -0.9912
  634MOL0     H85563   1.046   7.186   1.361 -0.1842  0.0194 -0.3584
  634MOL0     H85564   1.170   7.045   1.177 -0.5757 -0.1424  1.2653
  634MOL0     H85565   1.088   7.203   1.110 -1.8580 -2.1646 -0.3218
  634MOL0     H85566   1.382   7.174   1.172  0.6670  1.5912  0.8689
  634MOL0     H85567   1.304   7.308   1.106  2.0328 -0.2393  2.9288
  634MOL0     H85568   1.287   7.026   0.970  0.7703 -0.0359  0.2543
  634MOL0     H85569   1.226   7.172   0.902  1.3518 -1.9931 -1.2351
  634MOL0     H85570   1.388   6.989   2.004  0.4241 -0.1591  0.7848
  634MOL0     H85571   1.382   6.998   2.247 -0.0411 -0.0617  0.2761
  634MOL0     H85572   1.144   7.025   2.615  0.3678  0.5497 -2.9409
  634MOL0     H85573   1.083   7.020   2.847 -1.6221  0.7516 -0.7029
  634MOL0     H85574   1.006   8.124   3.428 -1.0705 -0.4298 -0.0897
  634MOL0     H85575   0.808   8.165   3.308 -1.4990  0.3261 -0.2290
  634MOL0     H85576   0.512   8.233   3.198  1.6636  1.0124 -2.3025
  634MOL0     H85577   0.329   8.204   3.018 -1.5241 -0.9033  1.8314
  634MOL0     H85578   0.020   8.335   2.834 -0.1171  0.1850  0.5248
  634MOL0     H85579   0.092   8.233   2.961 -2.3735 -0.5283 -1.1765
  634MOL0     H85580   0.129   8.175   2.725  1.4127 -1.3741 -0.2102
  634MOL0     H85581   0.285   8.192   2.795 -0.7024  0.4615  1.3709
  634MOL0     H85582   0.315   8.424   2.720  0.5009 -0.0933 -0.5786
  634MOL0     H85583   0.164   8.395   2.622 -2.9264 -5.1404  1.1613
  634MOL0     H85584   0.403   8.345   2.497 -1.0665 -0.9270  0.1088
  634MOL0     H85585   0.408   8.208   2.608 -0.1503  1.5480  3.3707
  634MOL0     H85586   0.182   8.092   2.284  4.1001 -0.8192 -0.9572
  634MOL0     H85587   0.236   8.619   3.074  0.6623  0.5272 -0.9701
  634MOL0     H85588   0.303   8.722   3.282  0.9587  2.3900  0.8755
  634MOL0     H85589   0.444   8.662   3.365  0.2586  4.0751  0.6333
  634MOL0     H85590   0.468   8.760   3.222 -1.4385  2.2047  1.1155
  635MOL0     O85591  11.468   7.241   4.422 -0.0275  0.1109 -0.4043
  635MOL0     C85592  11.395   7.167   4.485  0.3039  0.3315  0.1039
  635MOL0     O85593  11.414   7.038   4.497 -0.6396  0.4769  0.4770
  635MOL0     C85594  11.506   6.975   4.423  0.2570  0.0171 -0.3670
  635MOL0     C85595  11.475   6.932   4.286 -0.4749 -0.0383 -1.1786
  635MOL0     C85596  11.567   6.844   4.231 -0.7154 -1.1652 -0.1172
  635MOL0     C85597  11.697   6.821   4.284  0.9450  1.0437 -0.0581
  635MOL0     O85598  11.782   6.737   4.215 -0.1377  0.0694  0.4173
  635MOL0     C85599  11.921   6.744   4.255  0.0923  0.3249 -0.3145
  635MOL0     C85600  12.016   6.673   4.165 -1.3245 -0.5578 -0.0948
  635MOL0     C85601  12.073   6.751   4.045 -0.5638  0.6813  0.0080
  635MOL0     C85602  11.960   6.810   3.954 -0.2227  1.1447 -0.2108
  635MOL0     C85603  11.991   6.889   3.825  0.7402 -0.6055  0.6556
  635MOL0     C85604  12.068   6.805   3.722  0.1600 -0.5173  0.1586
  635MOL0     C85605  12.115   6.874   3.594  0.3481 -0.3019 -0.3093
  635MOL0     C85606  12.008   6.917   3.498 -0.2319 -0.6807 -0.1301
  635MOL0     N85607  11.939   6.806   3.443  0.4535 -0.1709 -0.4091
  635MOL0     C85608  11.808   6.770   3.475 -0.4397  0.5579 -0.4735
  635MOL0     C85609  11.769   6.701   3.370  0.2045 -0.1530 -0.3341
  635MOL0     C85610  11.632   6.639   3.357 -0.1204  0.7330 -0.0883
  635MOL0     C85611  11.653   6.483   3.367 -0.0564 -0.4860  0.2332
  635MOL0     C85612  11.523   6.426   3.416  0.2422  0.2380 -1.0221
  635MOL0     C85613  11.399   6.466   3.328 -0.1418 -0.0300  0.9404
  635MOL0     O85614  11.297   6.369   3.330 -0.2112 -0.1285  0.5789
  635MOL0     C85615  11.210   6.379   3.438 -0.1619 -0.5774  0.2437
  635MOL0     C85616  11.223   6.472   3.544  0.1436  0.0404 -0.3250
  635MOL0     C85617  11.143   6.473   3.656 -0.4596 -0.4517  0.2882
  635MOL0     C85618  11.037   6.379   3.666 -0.5751 -0.3832 -0.4161
  635MOL0     C85619  10.943   6.371   3.780 -0.1642 -0.5542 -0.1968
  635MOL0     O85620  10.989   6.426   3.897  0.7424 -0.1268 -0.7752
  635MOL0     C85621  10.904   6.439   4.004  0.7876 -1.0903 -0.6983
  635MOL0     C85622  10.778   6.496   3.990  0.1176 -0.7122  0.7147
  635MOL0     C85623  10.709   6.529   4.107  0.0499  0.0545 -0.5321
  635MOL0     C85624  10.761   6.512   4.238  0.4074  0.2659 -0.3477
  635MOL0     O85625  10.698   6.545   4.360 -0.5213  0.1312  0.0760
  635MOL0     C85626  10.569   6.610   4.372 -0.0892  0.0435  0.6587
  635MOL0     C85627  10.447   6.536   4.320 -0.3617 -0.1102 -0.7075
  635MOL0     C85628  10.437   6.385   4.355  1.0535  0.9703 -0.1706
  635MOL0     C85629  10.314   6.322   4.295 -1.0818 -0.1686  0.1271
  635MOL0     C85630  10.201   6.319   4.397 -1.2235  0.8147  0.8478
  635MOL0     C85631  10.067   6.300   4.325 -0.9535  0.4084 -0.1208
  635MOL0     C85632   9.954   6.287   4.434 -0.8305 -0.3035  0.0367
  635MOL0     C85633   9.821   6.241   4.373  0.2922 -0.2068  0.5147
  635MOL0    Cl85634   9.751   6.376   4.269  0.0396  0.1228 -0.1031
  635MOL0     C85635  10.878   6.438   4.249  0.2887 -0.5881  0.6360
  635MOL0     C85636  10.952   6.408   4.135 -0.1788  0.4232 -0.5800
  635MOL0     O85637  10.839   6.304   3.775  0.5165  0.2973  0.7332
  635MOL0     C85638  11.024   6.289   3.558 -0.8093 -0.3510 -0.5324
  635MOL0     C85639  11.108   6.291   3.446  1.0178  0.0368 -0.3535
  635MOL0     N85640  11.872   6.682   3.281  0.2397  0.1598  0.5589
  635MOL0     N85641  11.978   6.748   3.325 -0.0709  0.4169 -0.0366
  635MOL0     C85642  11.735   6.889   4.412  0.9543  0.1578  0.9420
  635MOL0     C85643  11.632   6.950   4.483  0.6908 -0.9356  0.2272
  635MOL0     C85644  11.283   7.232   4.560  0.0411  1.2854 -0.7817
  635MOL0     C85645  11.181   7.145   4.603 -0.1377  0.0373 -0.1221
  635MOL0     C85646  11.076   7.193   4.684 -0.5815 -0.4043  0.3823
  635MOL0     C85647  11.066   7.333   4.712  0.5873 -0.2017 -0.2759
  635MOL0     O85648  10.960   7.375   4.795 -0.6063  0.1200  0.4493
  635MOL0     C85649  10.968   7.496   4.872 -0.3849 -0.2298  0.4767
  635MOL0     C85650  10.848   7.499   4.960 -0.4260 -0.8236 -0.1434
  635MOL0     C85651  10.823   7.643   5.024  0.4827  0.6535 -0.1501
  635MOL0     C85652  10.683   7.636   5.100  0.7748 -0.0564 -0.2987
  635MOL0     C85653  10.646   7.503   5.165  0.3338 -0.3733 -0.5474
  635MOL0     C85654  10.619   7.399   5.210 -1.0371 -0.1518 -0.6841
  635MOL0     C85655  11.167   7.418   4.671 -0.0247 -0.4152 -0.6029
  635MOL0     C85656  11.272   7.369   4.595 -0.6712  0.7231  0.0754
  635MOL0     C85657  11.368   7.482   4.562  0.0098  0.6526  0.8959
  635MOL0     H85658  11.376   6.949   4.245 -0.9359  0.8193  0.1958
  635MOL0     H85659  11.553   6.789   4.139 -0.7446 -1.5081  0.0906
  635MOL0     H85660  11.943   6.851   4.262 -0.5636  0.6036 -1.9646
  635MOL0     H85661  11.937   6.703   4.355  0.1009 -3.1798 -1.6144
  635MOL0     H85662  11.999   6.567   4.142  3.5343 -1.7043  0.4821
  635MOL0     H85663  12.108   6.657   4.222 -1.6433 -0.1460  0.5500
  635MOL0     H85664  12.137   6.679   3.993  0.0911 -0.2733  2.0504
  635MOL0     H85665  12.140   6.832   4.077  1.0188  0.0166 -1.4341
  635MOL0     H85666  11.876   6.742   3.937 -0.4216  1.8954 -2.4790
  635MOL0     H85667  11.920   6.886   4.021  1.1723  0.7618  1.1338
  635MOL0     H85668  11.897   6.929   3.785 -1.0370 -1.6494  3.4862
  635MOL0     H85669  12.049   6.978   3.850 -0.6398  0.2450  0.9580
  635MOL0     H85670  12.159   6.767   3.769  0.3149  1.6585  1.7803
  635MOL0     H85671  12.004   6.719   3.700 -1.6891  0.3807  1.6774
  635MOL0     H85672  12.176   6.805   3.534 -2.2680 -0.9871 -2.3885
  635MOL0     H85673  12.160   6.967   3.630 -0.9688 -0.4014  1.7744
  635MOL0     H85674  11.947   6.995   3.544  2.3855  0.4143  1.6827
  635MOL0     H85675  12.058   6.950   3.406  0.8251 -3.6326 -0.7252
  635MOL0     H85676  11.745   6.799   3.559 -1.4398  0.2927 -1.1093
  635MOL0     H85677  11.566   6.684   3.432 -0.0315  1.6586 -0.5572
  635MOL0     H85678  11.604   6.653   3.252  0.1688 -2.7310 -0.7461
  635MOL0     H85679  11.677   6.443   3.268 -0.6810 -0.4751  0.0730
  635MOL0     H85680  11.738   6.454   3.429  0.2397 -1.2830 -0.5269
  635MOL0     H85681  11.504   6.469   3.514 -3.1356  0.1042 -1.5077
  635MOL0     H85682  11.535   6.318   3.429  1.3542  0.4071 -0.4936
  635MOL0     H85683  11.432   6.469   3.223 -4.1006  1.7002 -0.4141
  635MOL0     H85684  11.362   6.563   3.361  0.8577  0.2490  1.2849
  635MOL0     H85685  11.310   6.536   3.546  2.0200 -2.2258 -2.5294
  635MOL0     H85686  11.170   6.545   3.732 -1.7579  1.7097 -1.1789
  635MOL0     H85687  10.746   6.521   3.889  0.8382  1.7607  1.0305
  635MOL0     H85688  10.609   6.566   4.094 -0.8788 -2.4591 -1.1945
  635MOL0     H85689  10.549   6.616   4.479  0.9279 -0.4845  0.8993
  635MOL0     H85690  10.572   6.710   4.330 -1.8357 -0.8801 -1.8788
  635MOL0     H85691  10.363   6.584   4.370 -0.9709 -2.0292  0.1922
  635MOL0     H85692  10.440   6.554   4.212 -1.4727  0.3557 -0.5670
  635MOL0     H85693  10.530   6.339   4.319  0.7817  1.3337 -1.3684
  635MOL0     H85694  10.434   6.366   4.462  1.0564  1.5484 -0.0659
  635MOL0     H85695  10.344   6.227   4.248 -3.6706 -0.8366 -0.3288
  635MOL0     H85696  10.289   6.386   4.209  2.8248  0.1886 -0.9450
  635MOL0     H85697  10.188   6.417   4.445 -2.4400 -0.5998  3.6178
  635MOL0     H85698  10.216   6.244   4.474 -2.0848  0.3468  0.5758
  635MOL0     H85699  10.043   6.387   4.264  1.5558  2.4015  1.5365
  635MOL0     H85700  10.075   6.206   4.270  3.4564  0.5647 -0.1150
  635MOL0     H85701   9.941   6.388   4.475 -1.3441 -0.3728  0.0462
  635MOL0     H85702   9.980   6.218   4.514  2.0576  0.8965  0.2578
  635MOL0     H85703   9.834   6.151   4.312  2.2900 -0.3150  1.0146
  635MOL0     H85704   9.752   6.225   4.457  2.0298 -0.1572  2.0195
  635MOL0     H85705  10.904   6.397   4.346 -1.5821  0.6437  1.7355
  635MOL0     H85706  11.047   6.359   4.151 -0.4974 -0.2440 -0.6924
  635MOL0     H85707  10.942   6.218   3.553 -0.4292 -1.0319  1.8720
  635MOL0     H85708  11.101   6.209   3.376 -2.7101  0.6895 -0.9659
  635MOL0     H85709  11.833   6.873   4.455  1.8235 -0.6483 -1.1565
  635MOL0     H85710  11.654   6.984   4.584  2.9344  1.2596 -0.8813
  635MOL0     H85711  11.183   7.038   4.587 -1.6978  0.0825 -0.8545
  635MOL0     H85712  11.008   7.120   4.729  0.1345 -0.4610  1.4192
  635MOL0     H85713  10.967   7.586   4.809 -0.3446 -0.0804  0.6849
  635MOL0     H85714  11.061   7.496   4.929  0.3887  0.4905 -0.7240
  635MOL0     H85715  10.867   7.417   5.029  2.8966  0.2072  0.3369
  635MOL0     H85716  10.759   7.482   4.900  1.1477 -0.5394 -2.6928
  635MOL0     H85717  10.823   7.717   4.943 -0.5148  1.6632  0.7365
  635MOL0     H85718  10.907   7.659   5.092  0.4045  0.3522  0.0176
  635MOL0     H85719  10.692   7.704   5.186 -1.5273  0.5753 -0.4799
  635MOL0     H85720  10.606   7.677   5.034  0.9933  2.6129  0.9507
  635MOL0     H85721  10.598   7.307   5.261  2.7361 -2.7722 -3.3369
  635MOL0     H85722  11.176   7.523   4.695  1.4231 -0.8697  1.1029
  635MOL0     H85723  11.369   7.506   4.456  0.6303  1.6176  1.1072
  635MOL0     H85724  11.337   7.577   4.608 -1.2458  1.9316 -2.3366
  635MOL0     H85725  11.472   7.450   4.574 -0.5770 -2.2217 -0.8507
  636MOL0     O85726   1.763  10.411   5.900 -0.9889 -0.1884 -0.2881
  636MOL0     C85727   1.795  10.291   5.886  0.0452 -0.7216  0.3950
  636MOL0     O85728   1.918  10.240   5.862 -0.1300 -0.5825 -0.1143
  636MOL0     C85729   2.026  10.318   5.840  0.1860  0.4922  0.1135
  636MOL0     C85730   2.075  10.401   5.947 -0.4483 -0.4549 -1.0028
  636MOL0     C85731   2.191  10.484   5.946  0.0956  0.3554  0.3588
  636MOL0     C85732   2.276  10.476   5.829 -0.4519 -0.1415 -0.0772
  636MOL0     O85733   2.390  10.553   5.824  0.4517  0.6826 -0.7784
  636MOL0     C85734   2.447  10.584   5.697  0.3708  0.2031 -0.4225
  636MOL0     C85735   2.550  10.691   5.727 -0.3423 -0.2268 -0.2756
  636MOL0     C85736   2.667  10.645   5.824  0.5336 -0.3038  0.3868
  636MOL0     C85737   2.772  10.760   5.846  0.5644 -0.4312  1.1188
  636MOL0     C85738   2.725  10.883   5.915 -0.3077  0.4496  0.0686
  636MOL0     C85739   2.722  10.847   6.066  0.7657 -0.5708  0.4314
  636MOL0     C85740   2.680  10.986   6.126  0.4216 -0.5629 -0.2521
  636MOL0     C85741   2.636  10.984   6.271  0.3554  0.3220  0.1226
  636MOL0     N85742   2.510  10.905   6.272 -0.1988  0.1445  0.3304
  636MOL0     C85743   2.505  10.774   6.326  0.1004 -0.5715  0.6497
  636MOL0     C85744   2.383  10.729   6.297 -0.7348 -0.2984 -0.0195
  636MOL0     C85745   2.327  10.604   6.336  0.3588 -0.0249  1.1881
  636MOL0     C85746   2.414  10.494   6.280  0.6444  0.9275 -0.2268
  636MOL0     C85747   2.356  10.356   6.316 -0.2366 -0.7901 -0.5323
  636MOL0     C85748   2.445  10.250   6.246  0.2161 -0.7311 -0.4507
  636MOL0     O85749   2.572  10.243   6.313 -0.8517  0.0136 -0.0983
  636MOL0     C85750   2.669  10.155   6.270  0.5228  0.2776  0.1054
  636MOL0     C85751   2.794  10.160   6.336  0.2398  0.1146 -0.0404
  636MOL0     C85752   2.891  10.068   6.298 -0.0039  0.2475  0.7961
  636MOL0     C85753   2.851   9.952   6.214  0.1481 -0.2416  0.3569
  636MOL0     C85754   2.946   9.839   6.188 -0.1659 -0.2273  0.2479
  636MOL0     O85755   2.909   9.722   6.240 -0.5406 -0.0860 -0.4480
  636MOL0     C85756   3.006   9.622   6.230  0.1339  0.4249 -0.0648
  636MOL0     C85757   3.010   9.544   6.111 -0.3828  0.2647  0.4451
  636MOL0     C85758   3.077   9.422   6.105  1.1314  0.4929 -0.4835
  636MOL0     C85759   3.143   9.377   6.227 -0.4767  0.3884  1.1410
  636MOL0     O85760   3.213   9.252   6.223  0.4153  0.5791 -0.7210
  636MOL0     C85761   3.254   9.196   6.348 -0.5478 -0.3051  0.6993
  636MOL0     C85762   3.294   9.052   6.320  0.0292 -0.8572 -0.3421
  636MOL0     C85763   3.402   8.989   6.417 -0.3091  0.6894  0.0889
  636MOL0     C85764   3.545   9.012   6.376  0.1894 -0.0255 -0.1931
  636MOL0     C85765   3.644   8.956   6.481  0.8546  0.3369  0.2884
  636MOL0     C85766   3.604   8.812   6.524 -0.2742  0.3481 -1.3915
  636MOL0     C85767   3.599   8.699   6.428  0.6322  0.0269  1.2715
  636MOL0     C85768   3.465   8.646   6.359  0.0764 -0.2990 -1.0579
  636MOL0    Cl85769   3.478   8.474   6.296  0.2717  0.2970  0.5346
  636MOL0     C85770   3.150   9.463   6.341 -0.1634  0.2224  0.2855
  636MOL0     C85771   3.069   9.580   6.342  0.0287  0.7328  0.1515
  636MOL0     O85772   3.048   9.856   6.116 -0.5107  0.1244  0.0252
  636MOL0     C85773   2.728   9.951   6.148  0.4335 -0.5719 -0.9407
  636MOL0     C85774   2.635  10.055   6.172 -0.1993 -0.0585 -0.3609
  636MOL0     N85775   2.320  10.833   6.233  0.0595  0.0424  0.5138
  636MOL0     N85776   2.391  10.936   6.214  0.2042  0.0126 -0.2576
  636MOL0     C85777   2.248  10.374   5.730  0.1233  0.7681 -0.6872
  636MOL0     C85778   2.122  10.309   5.740  0.1294 -0.2572  0.1421
  636MOL0     C85779   1.685  10.202   5.875  0.5864  0.7177 -0.3247
  636MOL0     C85780   1.696  10.088   5.792  0.3343 -0.6001  0.7424
  636MOL0     C85781   1.598   9.995   5.772  0.0221 -0.3124  0.6755
  636MOL0     C85782   1.476   9.995   5.845 -1.5385 -0.5559  0.4436
  636MOL0     O85783   1.383   9.897   5.832 -0.6398  0.0447 -0.1809
  636MOL0     C85784   1.427   9.772   5.769 -0.3091 -0.3080  0.2452
  636MOL0     C85785   1.304   9.685   5.781  0.0649  0.5035  0.5402
  636MOL0     C85786   1.224   9.682   5.916 -0.2574 -0.2800 -0.2225
  636MOL0     C85787   1.313   9.615   6.028  0.1548 -1.1415 -0.4998
  636MOL0     C85788   1.226   9.557   6.128 -0.0690  0.3565 -0.8782
  636MOL0     C85789   1.162   9.512   6.213  0.0600 -0.1408 -0.6872
  636MOL0     C85790   1.465  10.109   5.936  0.0528  0.5937  0.1177
  636MOL0     C85791   1.563  10.200   5.951 -0.0610 -1.0726 -0.5468
  636MOL0     C85792   1.528  10.309   6.042 -0.3119  0.1069  0.1711
  636MOL0     H85793   2.010  10.402   6.034  0.0138  2.7342 -0.5878
  636MOL0     H85794   2.221  10.550   6.027 -0.7136 -2.7994  3.5280
  636MOL0     H85795   2.499  10.500   5.649 -0.4523 -1.4426  1.4109
  636MOL0     H85796   2.367  10.610   5.627  1.9640 -1.7247 -3.1728
  636MOL0     H85797   2.493  10.778   5.760 -0.4503 -0.6381  0.6646
  636MOL0     H85798   2.591  10.716   5.629  0.7429  0.0381  0.2319
  636MOL0     H85799   2.722  10.568   5.769 -1.2992 -0.1900 -1.7853
  636MOL0     H85800   2.634  10.603   5.920 -0.9345  1.5201  0.7248
  636MOL0     H85801   2.853  10.713   5.903  0.6117 -0.3591  1.1109
  636MOL0     H85802   2.813  10.782   5.748  0.3691  1.4969  1.4391
  636MOL0     H85803   2.790  10.971   5.915 -2.8766  2.4697  1.1181
  636MOL0     H85804   2.627  10.906   5.870  0.4311  3.6875 -0.1209
  636MOL0     H85805   2.650  10.767   6.084  0.9059 -0.7630  0.1455
  636MOL0     H85806   2.810  10.815   6.123  1.1598  1.3939  0.9859
  636MOL0     H85807   2.602  11.044   6.076 -2.0887 -0.6862  3.1947
  636MOL0     H85808   2.774  11.042   6.128 -0.3827  1.0191  4.2555
  636MOL0     H85809   2.722  10.932   6.314  1.0191 -0.3013 -1.8574
  636MOL0     H85810   2.621  11.085   6.310 -0.3225  1.1244 -2.0813
  636MOL0     H85811   2.589  10.728   6.377  1.4818  1.6654  0.5251
  636MOL0     H85812   2.329  10.587   6.444 -0.6321 -1.7707  0.9790
  636MOL0     H85813   2.225  10.602   6.297  1.4489 -0.4528 -2.0261
  636MOL0     H85814   2.422  10.501   6.171 -1.6749  4.1222 -0.3282
  636MOL0     H85815   2.514  10.495   6.325  1.4268 -0.3223 -1.8365
  636MOL0     H85816   2.251  10.342   6.288  0.0730 -2.9970 -0.7771
  636MOL0     H85817   2.358  10.344   6.424 -0.7022 -0.0353 -0.4292
  636MOL0     H85818   2.453  10.265   6.138 -2.6423  0.8537 -0.5356
  636MOL0     H85819   2.395  10.154   6.265 -2.4925  0.6453 -0.0850
  636MOL0     H85820   2.815  10.238   6.408 -0.3179  0.3640 -0.1418
  636MOL0     H85821   2.985  10.060   6.352  0.1560 -3.2504  0.2264
  636MOL0     H85822   2.949   9.571   6.025 -1.0435 -2.1940  0.0683
  636MOL0     H85823   3.077   9.361   6.015 -0.5963  2.0633 -1.5912
  636MOL0     H85824   3.340   9.250   6.389  0.4624  0.8681 -2.6837
  636MOL0     H85825   3.178   9.192   6.427  0.5949 -2.2372  1.7906
  636MOL0     H85826   3.206   8.990   6.300  2.7647 -4.4127 -2.8455
  636MOL0     H85827   3.333   9.050   6.217 -0.4483 -1.5463 -0.5230
  636MOL0     H85828   3.372   9.023   6.516 -0.6741  0.6288 -0.0023
  636MOL0     H85829   3.379   8.882   6.419 -0.6991  0.7893  1.1191
  636MOL0     H85830   3.560   9.118   6.356 -0.4831  0.2223  0.5402
  636MOL0     H85831   3.572   8.950   6.290  0.9420 -2.4693  1.7027
  636MOL0     H85832   3.639   9.024   6.567 -4.1461 -3.5486  3.7074
  636MOL0     H85833   3.748   8.945   6.449  0.9011  0.0103  0.5432
  636MOL0     H85834   3.675   8.787   6.604 -0.8836 -2.2538 -1.5610
  636MOL0     H85835   3.510   8.823   6.579  0.9025 -3.1473  1.7305
  636MOL0     H85836   3.672   8.623   6.458  1.2127  0.3481  0.6919
  636MOL0     H85837   3.649   8.744   6.342 -2.6105  0.4838 -0.5272
  636MOL0     H85838   3.377   8.645   6.424  0.8773  2.4378  0.2519
  636MOL0     H85839   3.435   8.718   6.282 -1.5310 -2.2010 -2.2704
  636MOL0     H85840   3.196   9.440   6.436 -0.3706  0.0042  0.3328
  636MOL0     H85841   3.069   9.640   6.432  3.3669 -1.1498  1.5625
  636MOL0     H85842   2.699   9.860   6.097  1.4368 -0.3940 -1.8595
  636MOL0     H85843   2.540  10.052   6.121 -0.1397  1.8516 -0.6507
  636MOL0     H85844   2.323  10.343   5.658 -0.4268  0.6092 -1.2014
  636MOL0     H85845   2.111  10.241   5.656  2.2426  0.3355 -0.6600
  636MOL0     H85846   1.775  10.072   5.719 -2.9754 -1.0447 -3.0867
  636MOL0     H85847   1.622   9.921   5.697 -1.9843  0.0184 -0.3472
  636MOL0     H85848   1.506   9.725   5.830  1.3658 -0.8694 -2.2206
  636MOL0     H85849   1.461   9.782   5.666  1.2918  0.5663  0.8177
  636MOL0     H85850   1.332   9.583   5.751  1.3207  1.0997 -0.4219
  636MOL0     H85851   1.242   9.724   5.700 -1.0260 -0.7097  0.7420
  636MOL0     H85852   1.124   9.638   5.922 -1.6155  2.6610  3.7694
  636MOL0     H85853   1.201   9.786   5.942 -0.5087 -0.1006 -1.1235
  636MOL0     H85854   1.376   9.544   5.975 -0.2847  0.5296 -3.4790
  636MOL0     H85855   1.370   9.699   6.069  2.0325 -2.0986 -1.0647
  636MOL0     H85856   1.090   9.471   6.281  1.9427 -2.4629  0.0597
  636MOL0     H85857   1.370  10.111   5.988 -1.1342 -0.6099 -1.8978
  636MOL0     H85858   1.449  10.291   6.115 -0.2919  1.6082  0.5965
  636MOL0     H85859   1.618  10.332   6.100 -0.4819  3.5384 -0.6971
  636MOL0     H85860   1.510  10.400   5.985  0.4817 -0.3244 -0.8128
  637MOL0     O85861   5.003   0.134  10.881  0.4733  0.1126  0.4554
  637MOL0     C85862   4.882   0.145  10.902 -0.0107 -0.2000 -0.1129
  637MOL0     O85863   4.805   0.046  10.957  0.1266 -0.7841 -0.0049
  637MOL0     C85864   4.854  -0.062  11.013 -0.2949 -0.5196  0.1069
  637MOL0     C85865   4.815  -0.097  11.143 -0.2738  0.6959  0.0015
  637MOL0     C85866   4.863  -0.221  11.187 -0.4194  1.2743 -0.4202
  637MOL0     C85867   4.950  -0.311  11.113  1.3976 -0.2513  0.3048
  637MOL0     O85868   4.992  -0.433  11.156 -0.1788  0.4722 -0.0709
  637MOL0     C85869   4.893  -0.520  11.195  0.4713  0.2442 -0.8896
  637MOL0     C85870   4.940  -0.620  11.299  0.1557 -0.1379  0.0231
  637MOL0     C85871   5.040  -0.717  11.228 -0.1988  0.1353 -0.8935
  637MOL0     C85872   5.072  -0.828  11.340  0.4122 -0.5253  0.3168
  637MOL0     C85873   5.187  -0.922  11.302  0.7334 -1.3156 -0.0461
  637MOL0     C85874   5.166  -0.980  11.163  0.0526 -0.3964  1.2037
  637MOL0     C85875   5.288  -1.057  11.112  0.0310  0.2450  0.6314
  637MOL0     C85876   5.348  -1.160  11.221 -0.1410  0.2166  0.6626
  637MOL0     N85877   5.452  -1.250  11.160  0.0693 -0.0427  0.6165
  637MOL0     C85878   5.507  -1.355  11.221 -1.5673  0.4256 -0.3668
  637MOL0     C85879   5.592  -1.413  11.130 -0.8915 -1.0585  0.1541
  637MOL0     C85880   5.622  -1.561  11.123  0.2251 -0.2296 -0.6967
  637MOL0     C85881   5.751  -1.594  11.047 -0.1487  0.6625  0.3085
  637MOL0     C85882   5.760  -1.747  11.047  0.3118 -0.3378 -0.0425
  637MOL0     C85883   5.895  -1.795  10.992  0.4142  0.2178  0.8232
  637MOL0     O85884   5.992  -1.813  11.099 -0.6795 -0.3628 -0.0507
  637MOL0     C85885   6.115  -1.851  11.063 -0.4931 -0.4250 -0.4350
  637MOL0     C85886   6.192  -1.895  11.172 -0.5128 -0.5184  0.0045
  637MOL0     C85887   6.321  -1.957  11.150 -0.1156 -0.2935  0.1786
  637MOL0     C85888   6.374  -1.974  11.024  0.0405 -0.8306 -1.2647
  637MOL0     C85889   6.513  -2.025  11.005  0.1545 -0.0477  0.2656
  637MOL0     O85890   6.516  -2.143  10.938 -0.5172 -1.3457  0.8227
  637MOL0     C85891   6.632  -2.194  10.905  0.5898  1.2995 -0.3546
  637MOL0     C85892   6.680  -2.196  10.772  0.5796 -0.8347 -0.7391
  637MOL0     C85893   6.807  -2.243  10.741 -0.5453  0.2733  0.4579
  637MOL0     C85894   6.887  -2.299  10.845 -0.0837 -1.1588 -0.3746
  637MOL0     O85895   7.011  -2.354  10.845 -0.1701  0.1285 -0.5959
  637MOL0     C85896   7.115  -2.281  10.780  1.0382 -0.9716  0.8298
  637MOL0     C85897   7.237  -2.354  10.790 -0.3768  1.1280 -1.1050
  637MOL0     C85898   7.224  -2.497  10.717 -0.4548  0.5255 -0.3704
  637MOL0     C85899   7.362  -2.557  10.684  0.2559 -0.2627 -0.7527
  637MOL0     C85900   7.330  -2.694  10.619 -0.1623 -0.5506 -0.6386
  637MOL0     C85901   7.455  -2.789  10.623  0.2603 -0.1533  1.0038
  637MOL0     C85902   7.570  -2.723  10.547 -0.2920 -0.0396  0.4414
  637MOL0     C85903   7.689  -2.810  10.539  0.6560  0.1829 -0.8406
  637MOL0    Cl85904   7.651  -2.935  10.436 -0.2640 -0.2742 -0.5298
  637MOL0     C85905   6.822  -2.320  10.976  0.0565  0.4190  0.7182
  637MOL0     C85906   6.700  -2.265  11.002  0.6405  0.1555 -0.0278
  637MOL0     O85907   6.605  -1.960  11.063 -0.2940  0.9801  0.8123
  637MOL0     C85908   6.300  -1.912  10.915 -0.2617  0.0002 -0.1697
  637MOL0     C85909   6.169  -1.856  10.935  0.2467  0.2698 -0.3775
  637MOL0     N85910   5.589  -1.335  11.013  0.4313  0.0315 -0.3550
  637MOL0     N85911   5.509  -1.237  11.038  0.2925 -0.2522 -0.7116
  637MOL0     C85912   4.981  -0.265  10.987  0.0304  0.4112 -1.0410
  637MOL0     C85913   4.938  -0.144  10.932  0.5137  0.2006 -0.5294
  637MOL0     C85914   4.811   0.262  10.848  0.4513  0.5338  0.4541
  637MOL0     C85915   4.877   0.339  10.744 -0.2843 -0.0662  0.2565
  637MOL0     C85916   4.837   0.474  10.710  0.0719  0.0567 -0.0489
  637MOL0     C85917   4.714   0.529  10.748  0.7325 -0.2108 -0.5393
  637MOL0     O85918   4.672   0.650  10.697  0.3104  0.9583  0.2887
  637MOL0     C85919   4.533   0.668  10.678  0.6221  0.8430 -0.5069
  637MOL0     C85920   4.474   0.568  10.582 -0.3289 -1.7478  0.4338
  637MOL0     C85921   4.506   0.613  10.433 -0.4094  0.0282  0.6509
  637MOL0     C85922   4.438   0.531  10.320  0.3723 -0.9431 -0.3269
  637MOL0     C85923   4.293   0.565  10.318 -0.8835 -0.4762 -0.4586
  637MOL0     C85924   4.168   0.569  10.330 -0.6500 -0.7691 -0.2013
  637MOL0     C85925   4.647   0.449  10.853  0.6089 -0.3419  0.1667
  637MOL0     C85926   4.697   0.325  10.905 -0.8961 -0.3222 -0.0299
  637MOL0     C85927   4.625   0.270  11.025 -0.2141 -0.1365 -0.3809
  637MOL0     H85928   4.747  -0.040  11.206 -0.4313  2.5674 -1.7932
  637MOL0     H85929   4.843  -0.249  11.290 -0.0605  2.8717  0.1122
  637MOL0     H85930   4.807  -0.476  11.246  0.1474  0.2240 -1.4074
  637MOL0     H85931   4.856  -0.571  11.105  1.2406 -0.3684 -0.8743
  637MOL0     H85932   4.849  -0.670  11.335 -0.3509  0.0517 -0.9480
  637MOL0     H85933   4.983  -0.559  11.379 -0.1551  2.0817 -1.4134
  637MOL0     H85934   5.134  -0.670  11.198 -0.8442  2.7266  0.7914
  637MOL0     H85935   4.991  -0.761  11.141  1.0106  2.6204 -2.9695
  637MOL0     H85936   5.084  -0.786  11.441  1.0211 -1.3671  0.6051
  637MOL0     H85937   4.987  -0.896  11.344  0.2076 -0.2547  3.7002
  637MOL0     H85938   5.278  -0.864  11.284  0.0519 -0.9204 -2.6104
  637MOL0     H85939   5.197  -0.995  11.383  1.9122 -0.7814  0.3082
  637MOL0     H85940   5.071  -1.033  11.151 -0.9329  1.5906 -0.2711
  637MOL0     H85941   5.160  -0.894  11.096 -1.9645 -0.1638  1.6277
  637MOL0     H85942   5.362  -0.982  11.082  0.1731 -0.8198 -1.8605
  637MOL0     H85943   5.260  -1.108  11.020  0.5256 -1.8958  1.5979
  637MOL0     H85944   5.396  -1.108  11.305  0.8466 -1.4805  1.1876
  637MOL0     H85945   5.263  -1.222  11.250 -0.1760 -1.3538 -2.4433
  637MOL0     H85946   5.455  -1.402  11.304 -3.2193 -1.2353 -2.2585
  637MOL0     H85947   5.625  -1.605  11.223  3.2380  1.2409 -0.0022
  637MOL0     H85948   5.533  -1.606  11.078  0.1272 -0.0427 -0.6915
  637MOL0     H85949   5.747  -1.567  10.941 -1.5218 -1.8632 -0.3511
  637MOL0     H85950   5.843  -1.557  11.095  0.2315 -0.0626  0.1468
  637MOL0     H85951   5.675  -1.796  10.999  0.9118 -1.6914  0.2333
  637MOL0     H85952   5.751  -1.787  11.148  2.4425 -2.0318 -0.4396
  637MOL0     H85953   5.918  -1.728  10.909  1.5948  0.4868  1.3569
  637MOL0     H85954   5.886  -1.896  10.950  0.0321  0.2050  0.9314
  637MOL0     H85955   6.148  -1.901  11.271 -1.5226  1.2188 -0.2961
  637MOL0     H85956   6.375  -1.996  11.236 -1.3599  0.3936  1.3022
  637MOL0     H85957   6.622  -2.151  10.693  0.6733 -2.1152 -1.5733
  637MOL0     H85958   6.840  -2.236  10.638  0.2938  0.9295  0.7501
  637MOL0     H85959   7.076  -2.252  10.682 -0.9665 -1.1394  1.5185
  637MOL0     H85960   7.126  -2.182  10.825 -0.0170 -0.7933  0.7301
  637MOL0     H85961   7.298  -2.283  10.733  3.1665  0.5246  1.5644
  637MOL0     H85962   7.280  -2.359  10.890  0.6269 -1.6906 -1.5817
  637MOL0     H85963   7.178  -2.571  10.784  1.5562  2.1640  3.1220
  637MOL0     H85964   7.171  -2.487  10.623 -0.1803  1.3271 -0.4477
  637MOL0     H85965   7.419  -2.554  10.777 -0.0191 -3.3023 -0.4084
  637MOL0     H85966   7.412  -2.489  10.613 -0.0684  2.9671  1.8764
  637MOL0     H85967   7.296  -2.677  10.517 -0.9876  1.1679 -0.1165
  637MOL0     H85968   7.254  -2.750  10.674  1.2506 -1.4620  0.4750
  637MOL0     H85969   7.480  -2.818  10.726  1.1091 -2.7892  0.1448
  637MOL0     H85970   7.427  -2.881  10.571  0.3923 -0.3740  1.3182
  637MOL0     H85971   7.598  -2.623  10.581  2.4044 -0.8529  0.8485
  637MOL0     H85972   7.537  -2.703  10.445 -2.3526 -1.3090  0.7903
  637MOL0     H85973   7.772  -2.754  10.495 -0.2249 -0.2966 -3.2640
  637MOL0     H85974   7.723  -2.861  10.630 -0.5186 -2.9773 -2.0263
  637MOL0     H85975   6.860  -2.398  11.042  0.7082  0.2779  0.1891
  637MOL0     H85976   6.661  -2.289  11.100  2.4762 -2.4968  0.1594
  637MOL0     H85977   6.356  -1.904  10.823  1.1500 -0.1890  0.6507
  637MOL0     H85978   6.109  -1.816  10.855 -1.5274  1.5829  1.5184
  637MOL0     H85979   5.056  -0.328  10.941  2.1768 -0.3119  3.0307
  637MOL0     H85980   4.978  -0.117  10.835 -0.8268 -0.2057 -1.2293
  637MOL0     H85981   4.955   0.283  10.695  0.7042  1.3788  0.1069
  637MOL0     H85982   4.889   0.523  10.628  1.8168 -0.0130  0.9902
  637MOL0     H85983   4.507   0.766  10.639  1.3370  0.5220 -1.8660
  637MOL0     H85984   4.474   0.664  10.770  0.1858  0.2667 -0.8032
  637MOL0     H85985   4.366   0.571  10.599 -0.7109  1.3228 -1.6835
  637MOL0     H85986   4.500   0.465  10.609  2.3754 -1.8611 -2.1263
  637MOL0     H85987   4.614   0.613  10.419 -0.6207  1.6496 -1.6426
  637MOL0     H85988   4.460   0.712  10.419 -1.7463 -0.7415 -0.6501
  637MOL0     H85989   4.482   0.570  10.227 -0.3088  1.0340  0.1231
  637MOL0     H85990   4.448   0.426  10.347 -3.0481 -1.1408  0.5525
  637MOL0     H85991   4.063   0.558  10.312 -0.2796 -0.2257 -3.1004
  637MOL0     H85992   4.573   0.504  10.911 -0.2467  2.4562 -3.1646
  637MOL0     H85993   4.570   0.184  10.984 -1.4471  0.4478 -0.0174
  637MOL0     H85994   4.706   0.241  11.092  1.0985  1.1824 -1.3531
  637MOL0     H85995   4.557   0.345  11.065 -0.0299 -0.2044  0.0615
  638MOL0     O85996   0.134   6.992   3.626  0.1616 -0.2216  0.6612
  638MOL0     C85997   0.070   7.095   3.616  0.3355  0.7727 -0.1017
  638MOL0     O85998   0.010   7.131   3.495 -0.0408  0.3049 -0.0125
  638MOL0     C85999   0.037   7.068   3.376 -0.1463 -1.9934 -0.5981
  638MOL0     C86000  -0.070   7.019   3.301  0.1265  0.0920  1.6059
  638MOL0     C86001  -0.048   6.975   3.164  0.1024  0.0342 -0.1435
  638MOL0     C86002   0.082   6.941   3.129  0.2965 -0.2986  0.1193
  638MOL0     O86003   0.097   6.873   3.007  0.1222 -1.0608 -1.0126
  638MOL0     C86004   0.204   6.915   2.920 -0.4666  1.2090  0.0646
  638MOL0     C86005   0.310   6.809   2.911  0.8028 -0.4983 -0.0942
  638MOL0     C86006   0.421   6.849   2.815  0.0295 -0.6882 -0.7655
  638MOL0     C86007   0.387   6.832   2.663  1.5636 -0.4521 -0.4079
  638MOL0     C86008   0.499   6.859   2.562  0.5884 -1.6116  0.3308
  638MOL0     C86009   0.576   6.989   2.593 -0.1828  0.5560  0.5095
  638MOL0     C86010   0.494   7.115   2.584  0.9272 -0.4482  0.2262
  638MOL0     C86011   0.464   7.150   2.434 -0.3125  0.1516 -0.2176
  638MOL0     N86012   0.382   7.278   2.419  0.1980 -0.5292 -0.0465
  638MOL0     C86013   0.421   7.412   2.436  0.2334  0.4874 -0.3166
  638MOL0     C86014   0.308   7.490   2.435 -0.3463  0.2728  0.7601
  638MOL0     C86015   0.303   7.647   2.429  0.3078  0.1534  0.9790
  638MOL0     C86016   0.305   7.716   2.290  0.4408  0.7194  0.4803
  638MOL0     C86017   0.180   7.688   2.211  0.4420  0.0795  0.7302
  638MOL0     C86018   0.164   7.789   2.098  0.4405 -0.0001 -0.5759
  638MOL0     O86019   0.274   7.799   2.011 -0.7944  0.5795  0.1899
  638MOL0     C86020   0.291   7.727   1.896  1.2568 -0.5342  0.9121
  638MOL0     C86021   0.219   7.617   1.844  0.2595 -0.4762  0.1026
  638MOL0     C86022   0.252   7.572   1.714  0.4907  0.0543 -0.2899
  638MOL0     C86023   0.358   7.626   1.638  0.1533 -0.3469  0.1558
  638MOL0     C86024   0.406   7.556   1.517 -0.1958 -0.3830  0.0062
  638MOL0     O86025   0.528   7.597   1.468 -0.1884  0.3660 -0.2213
  638MOL0     C86026   0.575   7.545   1.349  0.4630  0.0644 -0.9673
  638MOL0     C86027   0.697   7.492   1.339 -1.0558  0.3230 -0.0453
  638MOL0     C86028   0.759   7.448   1.218  0.4458 -0.1185  0.7357
  638MOL0     C86029   0.690   7.460   1.100 -0.4191 -0.2266 -0.1106
  638MOL0     O86030   0.743   7.395   0.990 -0.2820  1.2137  0.7688
  638MOL0     C86031   0.702   7.450   0.865 -0.3775  0.0914 -0.5106
  638MOL0     C86032   0.795   7.381   0.768 -0.1635  0.5636  0.0763
  638MOL0     C86033   0.810   7.233   0.791 -0.0012  0.9791  0.2238
  638MOL0     C86034   0.904   7.161   0.697 -0.2313  0.2168  0.0076
  638MOL0     C86035   0.977   7.049   0.781  0.8975  1.2205  0.3063
  638MOL0     C86036   1.076   6.968   0.680 -0.0202  0.2577 -0.9448
  638MOL0     C86037   1.111   6.825   0.721  0.1241  0.0201 -0.2248
  638MOL0     C86038   1.213   6.771   0.623  0.2923 -0.0922 -0.3603
  638MOL0    Cl86039   1.370   6.858   0.627  0.9803 -0.1642  0.2873
  638MOL0     C86040   0.558   7.521   1.110  0.4597  0.5472 -0.8891
  638MOL0     C86041   0.501   7.565   1.227 -0.8570  0.3384  0.8610
  638MOL0     O86042   0.337   7.480   1.468  1.0405  0.8036 -0.1714
  638MOL0     C86043   0.427   7.736   1.690 -0.2425 -0.2578  0.3971
  638MOL0     C86044   0.396   7.782   1.819 -0.6388 -0.1103  0.1541
  638MOL0     N86045   0.200   7.404   2.405  0.1744  0.1351  0.0472
  638MOL0     N86046   0.244   7.282   2.397  0.0526  0.8981 -0.3936
  638MOL0     C86047   0.182   6.978   3.212  0.2661 -0.0446 -0.2867
  638MOL0     C86048   0.165   7.043   3.334  0.5603 -0.6396 -0.3616
  638MOL0     C86049   0.077   7.193   3.729  0.5851  0.5725  0.7982
  638MOL0     C86050   0.045   7.321   3.686 -0.0092 -0.6876 -0.5807
  638MOL0     C86051   0.041   7.423   3.778 -0.7725 -0.6758  0.3166
  638MOL0     C86052   0.064   7.399   3.910 -0.0304 -0.5627  0.4672
  638MOL0     O86053   0.055   7.511   3.997  0.2588  0.0264  0.3286
  638MOL0     C86054   0.089   7.518   4.138 -0.6538 -0.2117  0.3802
  638MOL0     C86055   0.239   7.527   4.153  0.0505 -0.0529  0.4134
  638MOL0     C86056   0.278   7.590   4.299  0.3746 -0.2598  0.2911
  638MOL0     C86057   0.231   7.498   4.414  0.3655 -0.1623  0.0357
  638MOL0     C86058   0.276   7.551   4.545 -0.7426  0.9855  1.4990
  638MOL0     C86059   0.301   7.610   4.646  0.5719  1.1940 -0.1365
  638MOL0     C86060   0.097   7.272   3.959  0.9508  0.3851  0.5046
  638MOL0     C86061   0.110   7.168   3.864  0.1618 -0.0610  0.7048
  638MOL0     C86062   0.142   7.031   3.908  0.4471  0.5134 -0.1075
  638MOL0     H86063  -0.170   7.027   3.344 -1.4375 -1.1381 -1.4583
  638MOL0     H86064  -0.139   6.959   3.106 -0.7044  1.9197  0.5170
  638MOL0     H86065   0.140   6.924   2.832 -1.0386  1.2961  0.4830
  638MOL0     H86066   0.253   7.011   2.940  1.8239 -0.4353  3.3240
  638MOL0     H86067   0.267   6.715   2.877 -3.4475  0.7913  1.0876
  638MOL0     H86068   0.366   6.804   3.006  3.9830 -1.4727 -1.8512
  638MOL0     H86069   0.512   6.789   2.821  0.4363 -0.0368 -0.3170
  638MOL0     H86070   0.457   6.949   2.843  4.2519 -2.1458 -0.3293
  638MOL0     H86071   0.348   6.730   2.657  2.5341 -0.7657 -1.9469
  638MOL0     H86072   0.300   6.896   2.644  0.3127 -0.8556  3.1939
  638MOL0     H86073   0.581   6.786   2.565  1.7717 -0.3410  3.2903
  638MOL0     H86074   0.458   6.869   2.461 -1.1529 -3.8773  0.7276
  638MOL0     H86075   0.629   6.990   2.689  0.6629 -0.4888  0.0631
  638MOL0     H86076   0.663   6.990   2.528 -0.1999 -1.5322  0.4118
  638MOL0     H86077   0.550   7.190   2.641 -1.6754 -0.0181  2.4374
  638MOL0     H86078   0.401   7.114   2.642 -0.6598  1.5118 -2.1033
  638MOL0     H86079   0.561   7.158   2.384 -1.5034  0.7744 -2.6030
  638MOL0     H86080   0.406   7.074   2.382 -0.4263 -1.1831  1.7865
  638MOL0     H86081   0.521   7.451   2.451 -1.0950  4.8579 -1.4560
  638MOL0     H86082   0.213   7.690   2.473 -2.4234 -0.6399 -3.3409
  638MOL0     H86083   0.395   7.687   2.474  0.7063  0.6692 -0.2465
  638MOL0     H86084   0.319   7.824   2.291 -0.5532  0.9122 -1.2944
  638MOL0     H86085   0.386   7.661   2.242 -0.5494 -1.9098  1.6062
  638MOL0     H86086   0.085   7.689   2.265  0.0271 -0.0260  0.0207
  638MOL0     H86087   0.181   7.593   2.156  3.6850 -2.4746  4.5958
  638MOL0     H86088   0.146   7.885   2.148  1.0559  0.3392 -0.9942
  638MOL0     H86089   0.078   7.757   2.039  0.5013 -3.6802  1.0601
  638MOL0     H86090   0.130   7.578   1.892 -0.1093  2.2393  1.8150
  638MOL0     H86091   0.193   7.490   1.674  0.8884  0.2581 -1.3369
  638MOL0     H86092   0.768   7.500   1.420 -0.0608  2.2793 -1.0460
  638MOL0     H86093   0.858   7.404   1.212 -0.2016 -1.4663 -2.1993
  638MOL0     H86094   0.600   7.420   0.836 -0.6200 -1.5151  1.7059
  638MOL0     H86095   0.704   7.559   0.867  3.0906  0.1055  0.8305
  638MOL0     H86096   0.750   7.390   0.668  1.8308 -1.8695 -1.1792
  638MOL0     H86097   0.896   7.424   0.766 -0.9759  2.6822  1.5489
  638MOL0     H86098   0.834   7.211   0.896  3.9046 -1.1165 -0.8919
  638MOL0     H86099   0.716   7.180   0.775  0.1321  1.3983 -2.4118
  638MOL0     H86100   0.982   7.228   0.660 -0.0213  0.4857  0.8972
  638MOL0     H86101   0.857   7.114   0.610 -1.7720  1.0017  0.3783
  638MOL0     H86102   0.902   6.977   0.815  2.5707 -1.2607 -0.9344
  638MOL0     H86103   1.032   7.086   0.868  0.5876  1.2875  0.4754
  638MOL0     H86104   1.024   6.943   0.588 -1.5307  2.5794 -0.7975
  638MOL0     H86105   1.167   7.024   0.659  1.1953 -1.2281  0.0898
  638MOL0     H86106   1.020   6.764   0.725 -0.8799  1.4513 -0.4615
  638MOL0     H86107   1.156   6.831   0.821  0.6685  0.4944 -0.4928
  638MOL0     H86108   1.233   6.665   0.640  0.6262 -0.1719 -1.1889
  638MOL0     H86109   1.176   6.783   0.520  1.5686  1.3369 -0.6911
  638MOL0     H86110   0.488   7.523   1.026 -2.1607 -3.2206  0.9076
  638MOL0     H86111   0.395   7.586   1.214 -0.2515  2.1586 -1.9331
  638MOL0     H86112   0.510   7.783   1.638 -1.0477  0.1894 -0.5183
  638MOL0     H86113   0.463   7.854   1.865  3.2062 -2.6204 -1.0769
  638MOL0     H86114   0.283   6.945   3.193 -0.1552 -2.5317  1.3218
  638MOL0     H86115   0.248   7.069   3.399 -1.2027  2.7692  0.7751
  638MOL0     H86116   0.016   7.348   3.585  1.3750  1.0230 -0.5854
  638MOL0     H86117   0.019   7.526   3.750  1.1678 -0.5217 -0.8290
  638MOL0     H86118   0.053   7.435   4.199  0.4524  0.3233  1.7851
  638MOL0     H86119   0.036   7.607   4.174  0.7710  1.4536 -1.3870
  638MOL0     H86120   0.269   7.597   4.075 -2.9015  3.0238  1.7444
  638MOL0     H86121   0.296   7.438   4.129  0.5510  0.0954  1.0186
  638MOL0     H86122   0.218   7.682   4.303 -2.1315 -1.7697 -0.3109
  638MOL0     H86123   0.382   7.624   4.308  0.4285 -0.3532  0.0213
  638MOL0     H86124   0.122   7.504   4.413  0.3124 -0.7230 -2.2483
  638MOL0     H86125   0.251   7.393   4.394  2.0722 -0.2557  1.9444
  638MOL0     H86126   0.297   7.680   4.728  1.6251  0.8987  0.1790
  638MOL0     H86127   0.110   7.261   4.066  1.4339 -0.8541  0.3378
  638MOL0     H86128   0.177   7.044   4.011 -2.6058 -1.4076  1.3228
  638MOL0     H86129   0.056   6.965   3.922 -0.7175  2.3663  1.9725
  638MOL0     H86130   0.223   6.992   3.845 -0.2595  1.0803 -1.4056
  639MOL0     O86131   2.675   3.707  10.290 -1.0978  0.0515 -0.4284
  639MOL0     C86132   2.783   3.689  10.353  0.2660 -0.4553 -0.0656
  639MOL0     O86133   2.886   3.611  10.318 -0.6270  0.5931 -0.4537
  639MOL0     C86134   2.871   3.530  10.202  0.1176  0.3421  0.4997
  639MOL0     C86135   2.816   3.404  10.221  0.2913  0.6138 -0.1709
  639MOL0     C86136   2.793   3.316  10.115 -0.2969  0.4485 -0.6741
  639MOL0     C86137   2.828   3.363   9.982 -0.0758 -0.1962 -0.5821
  639MOL0     O86138   2.798   3.285   9.872  0.2214 -0.1975 -0.4891
  639MOL0     C86139   2.757   3.143   9.890  0.6209  0.3013 -0.8736
  639MOL0     C86140   2.736   3.080   9.752  0.2729 -0.4247  0.6647
  639MOL0     C86141   2.725   2.930   9.745 -0.9730  0.1683  0.4280
  639MOL0     C86142   2.736   2.876   9.606  0.0694 -0.5025  0.3955
  639MOL0     C86143   2.610   2.907   9.517 -0.1732 -0.7423  0.2049
  639MOL0     C86144   2.628   3.030   9.427  0.7185 -0.1690 -0.0641
  639MOL0     C86145   2.494   3.094   9.402 -0.4344 -0.3418  1.3273
  639MOL0     C86146   2.411   2.995   9.326 -0.1763 -0.2522  0.5277
  639MOL0     N86147   2.399   3.035   9.183 -1.1255  1.2162  0.0014
  639MOL0     C86148   2.282   3.088   9.146 -0.9213 -0.5254  0.2444
  639MOL0     C86149   2.311   3.147   9.024 -0.9681  0.0845 -0.5181
  639MOL0     C86150   2.207   3.217   8.941  0.5798 -0.5260  0.0473
  639MOL0     C86151   2.233   3.225   8.798 -0.2847  0.6334 -0.8962
  639MOL0     C86152   2.192   3.102   8.718  0.2834 -0.1113 -0.5025
  639MOL0     C86153   2.173   3.128   8.567 -0.2146 -0.6142 -0.1940
  639MOL0     O86154   2.087   3.239   8.534  0.2799 -0.2823  0.5706
  639MOL0     C86155   2.052   3.245   8.403  0.4103 -0.1502  0.2599
  639MOL0     C86156   2.102   3.158   8.302  0.6739  0.3335  0.4269
  639MOL0     C86157   2.044   3.153   8.178 -0.3830 -0.2624  0.0229
  639MOL0     C86158   1.936   3.234   8.138  0.5908 -0.1247  0.3281
  639MOL0     C86159   1.881   3.229   8.007  0.5547 -0.7818 -0.4827
  639MOL0     O86160   1.924   3.130   7.931 -0.6579 -0.9270 -0.4575
  639MOL0     C86161   1.871   3.109   7.804  0.6652 -0.2070  0.4100
  639MOL0     C86162   1.879   3.208   7.712 -0.7144 -0.4553 -0.9912
  639MOL0     C86163   1.844   3.187   7.582  0.2015  0.1074 -0.1425
  639MOL0     C86164   1.801   3.063   7.541  0.1545 -0.7333  0.2832
  639MOL0     O86165   1.774   3.061   7.406  0.0225 -1.2668 -0.1738
  639MOL0     C86166   1.651   2.990   7.375  0.2652 -0.5779 -0.3921
  639MOL0     C86167   1.582   3.051   7.244  0.0955 -0.0001 -1.1328
  639MOL0     C86168   1.548   3.199   7.263  0.0961 -0.6413  0.3955
  639MOL0     C86169   1.475   3.266   7.141 -1.3102  0.6850  0.0109
  639MOL0     C86170   1.459   3.413   7.185  0.6321 -0.1735  0.3238
  639MOL0     C86171   1.428   3.494   7.049 -0.0010 -0.0312  0.3012
  639MOL0     C86172   1.380   3.640   7.071  0.2679  0.9138 -0.0592
  639MOL0     C86173   1.368   3.731   6.939 -0.5314 -0.4339  0.2188
  639MOL0    Cl86174   1.279   3.647   6.801  0.3397  0.3478 -0.0901
  639MOL0     C86175   1.794   2.962   7.632  0.1091 -0.0061  0.9987
  639MOL0     C86176   1.817   2.988   7.767  0.3913 -0.0165  0.5761
  639MOL0     O86177   1.805   3.328   7.963 -0.3887  0.1626 -0.3166
  639MOL0     C86178   1.887   3.314   8.238  0.5057 -0.1537 -0.1927
  639MOL0     C86179   1.940   3.326   8.369  0.3163  0.0790 -0.2238
  639MOL0     N86180   2.439   3.137   8.999 -0.3038  0.0647  0.2246
  639MOL0     N86181   2.495   3.066   9.087 -0.4744  0.2134 -0.3737
  639MOL0     C86182   2.884   3.492   9.965 -1.8501 -0.0163 -0.1178
  639MOL0     C86183   2.902   3.575  10.080  0.4716  0.5025 -0.4590
  639MOL0     C86184   2.783   3.753  10.490 -1.0544 -0.9716 -0.4285
  639MOL0     C86185   2.751   3.674  10.599 -0.4348  0.0128 -0.5312
  639MOL0     C86186   2.737   3.736  10.725 -0.2329 -0.2921  0.1175
  639MOL0     C86187   2.750   3.880  10.740  0.5458 -0.0487  0.1655
  639MOL0     O86188   2.726   3.949  10.856 -0.0784  0.2445  1.2313
  639MOL0     C86189   2.844   3.950  10.938 -0.3806  0.5218  0.1535
  639MOL0     C86190   2.902   4.092  10.948  0.0950 -1.1634 -0.8184
  639MOL0     C86191   3.015   4.097  11.055  0.0533 -0.3960  0.2170
  639MOL0     C86192   2.983   4.049  11.188  0.1690  0.4746  0.0522
  639MOL0     C86193   3.060   3.927  11.229  1.0511 -0.4950  0.4555
  639MOL0     C86194   3.104   3.822  11.268  0.6204 -0.2060 -0.9954
  639MOL0     C86195   2.782   3.952  10.623  0.0617 -1.1208 -0.1499
  639MOL0     C86196   2.793   3.896  10.496  0.1432  0.3805 -0.1970
  639MOL0     C86197   2.820   3.985  10.379 -0.0300 -0.7363 -0.0236
  639MOL0     H86198   2.801   3.373  10.324  3.8345  1.4502  0.7110
  639MOL0     H86199   2.745   3.220  10.128  1.1189 -0.7806 -3.6954
  639MOL0     H86200   2.839   3.099   9.948  2.1727  1.5753 -2.0246
  639MOL0     H86201   2.663   3.127   9.944  1.8530  0.5392  1.4635
  639MOL0     H86202   2.825   3.104   9.693 -0.0471 -0.3064  0.2280
  639MOL0     H86203   2.645   3.118   9.704  0.3526 -2.0212 -0.8670
  639MOL0     H86204   2.634   2.891   9.792 -0.8445  0.4540  0.9301
  639MOL0     H86205   2.817   2.897   9.796  1.1535  2.4031 -1.6827
  639MOL0     H86206   2.827   2.917   9.561  0.1096 -1.3251 -0.3066
  639MOL0     H86207   2.745   2.768   9.617 -1.3377 -0.7456 -0.6548
  639MOL0     H86208   2.602   2.810   9.467 -0.5861 -0.8420  0.4570
  639MOL0     H86209   2.525   2.926   9.583  0.4895  0.9903  0.6184
  639MOL0     H86210   2.691   3.096   9.488  2.9816 -2.2911  0.0110
  639MOL0     H86211   2.676   3.008   9.331 -0.3808  4.5551 -2.0014
  639MOL0     H86212   2.507   3.181   9.337 -0.6115 -1.3270 -0.0662
  639MOL0     H86213   2.453   3.129   9.497 -0.8504  2.6346  0.1648
  639MOL0     H86214   2.436   2.889   9.329  1.3370  0.0722 -0.0278
  639MOL0     H86215   2.308   2.992   9.363 -0.6457 -1.1725 -0.7405
  639MOL0     H86216   2.186   3.080   9.197 -2.2201 -0.6602 -2.0809
  639MOL0     H86217   2.111   3.165   8.951  0.2796 -0.5608 -2.4751
  639MOL0     H86218   2.203   3.314   8.990  0.9811 -3.5823  7.3825
  639MOL0     H86219   2.179   3.311   8.756  0.9689  2.3442  0.8307
  639MOL0     H86220   2.341   3.230   8.781 -0.3805 -0.5891 -2.0221
  639MOL0     H86221   2.092   3.071   8.749  0.3139  2.1853  2.2905
  639MOL0     H86222   2.266   3.021   8.723 -0.0586 -0.4509 -0.8299
  639MOL0     H86223   2.129   3.033   8.534 -0.6211 -1.5593  2.7842
  639MOL0     H86224   2.272   3.134   8.520 -0.4038 -2.7352 -0.9821
  639MOL0     H86225   2.179   3.083   8.317  1.8911  0.9976 -1.9349
  639MOL0     H86226   2.068   3.071   8.113  1.7946  0.4869 -0.1914
  639MOL0     H86227   1.920   3.304   7.742  3.1926 -1.9686 -0.8683
  639MOL0     H86228   1.836   3.270   7.513  0.8546  2.2186  2.1675
  639MOL0     H86229   1.669   2.884   7.352 -2.2580 -0.5743 -2.8205
  639MOL0     H86230   1.580   2.990   7.459  2.0023 -0.7656  1.1528
  639MOL0     H86231   1.640   3.036   7.152 -0.1301  0.1713 -1.3046
  639MOL0     H86232   1.494   2.989   7.225  2.0286 -3.1940 -0.4197
  639MOL0     H86233   1.478   3.209   7.347  0.3411 -0.2436  0.5550
  639MOL0     H86234   1.638   3.255   7.287  0.0892 -1.0938  1.5957
  639MOL0     H86235   1.379   3.221   7.114 -0.5244 -1.7421  0.9905
  639MOL0     H86236   1.537   3.273   7.051 -2.7665  0.6388 -1.0352
  639MOL0     H86237   1.546   3.457   7.234  1.6503 -0.8518 -0.8088
  639MOL0     H86238   1.375   3.419   7.255  1.8744 -2.0930  2.1050
  639MOL0     H86239   1.525   3.506   6.998  1.6484  0.2934  3.3169
  639MOL0     H86240   1.357   3.434   6.991  1.9017 -2.2870  0.1382
  639MOL0     H86241   1.454   3.683   7.139  3.4716 -2.8325 -0.8474
  639MOL0     H86242   1.290   3.625   7.132  0.4280 -1.0924 -0.2482
  639MOL0     H86243   1.319   3.827   6.958  0.0542  0.2356 -1.4692
  639MOL0     H86244   1.472   3.753   6.911 -0.1579  1.0916  2.5697
  639MOL0     H86245   1.747   2.874   7.590 -0.0045  0.2293  0.6302
  639MOL0     H86246   1.805   2.910   7.841 -0.2060 -0.6613 -0.1796
  639MOL0     H86247   1.816   3.390   8.208  2.4948  0.3740 -4.3584
  639MOL0     H86248   1.902   3.390   8.448 -0.9976  0.1224 -0.8689
  639MOL0     H86249   2.911   3.514   9.862  1.0943 -1.1819  0.2832
  639MOL0     H86250   2.945   3.674  10.071 -1.7740  1.4769 -1.3721
  639MOL0     H86251   2.718   3.572  10.586  2.4069 -0.8941 -1.5384
  639MOL0     H86252   2.713   3.678  10.813 -0.7167 -0.1224  0.0989
  639MOL0     H86253   2.923   3.884  10.902 -1.2442 -0.4074 -0.0745
  639MOL0     H86254   2.825   3.913  11.039 -0.2874 -0.3194 -0.1298
  639MOL0     H86255   2.823   4.156  10.988 -0.0087 -1.9864  0.3217
  639MOL0     H86256   2.936   4.137  10.854  2.4085 -0.6561  0.2009
  639MOL0     H86257   3.040   4.203  11.065 -1.3490 -0.1569  1.7609
  639MOL0     H86258   3.105   4.053  11.012  0.4161 -0.4857  1.0450
  639MOL0     H86259   3.014   4.134  11.249  1.9384 -0.3229  0.3341
  639MOL0     H86260   2.876   4.038  11.203 -0.1312  1.9778 -0.7539
  639MOL0     H86261   3.150   3.736  11.313  0.3072 -0.3467 -0.9403
  639MOL0     H86262   2.795   4.060  10.626  3.9144 -1.3560 -1.9487
  639MOL0     H86263   2.723   4.003  10.330 -0.8730  1.4662  2.2555
  639MOL0     H86264   2.866   4.081  10.402 -0.0178 -0.3340 -1.6178
  639MOL0     H86265   2.879   3.934  10.303 -0.2315 -1.0852  0.0520
  640MOL0     O86266   0.740   0.041   9.022  0.0558  0.3080  0.2215
  640MOL0     C86267   0.778   0.152   8.981 -0.5821  0.0620  0.8112
  640MOL0     O86268   0.726   0.213   8.875  0.0995  0.0509 -0.2321
  640MOL0     C86269   0.625   0.155   8.798 -0.9061  0.1829  0.7292
  640MOL0     C86270   0.500   0.217   8.789  0.3354  0.9805 -0.4377
  640MOL0     C86271   0.400   0.168   8.705  0.3377  0.2644 -0.3845
  640MOL0     C86272   0.435   0.060   8.613  0.8317  0.2652  0.1843
  640MOL0     O86273   0.349  -0.009   8.526 -0.4781  0.3851 -0.2453
  640MOL0     C86274   0.209  -0.016   8.581  0.0905 -0.1778 -0.2326
  640MOL0     C86275   0.118  -0.108   8.488  0.3823 -0.8831 -0.1739
  640MOL0     C86276  -0.013  -0.154   8.555  0.3053 -0.5718  1.6835
  640MOL0     C86277  -0.098  -0.237   8.459 -0.5803 -0.0495 -0.3479
  640MOL0     C86278  -0.238  -0.276   8.517 -0.4010  0.2932  0.1055
  640MOL0     C86279  -0.320  -0.356   8.414 -0.0365 -0.5686 -0.0682
  640MOL0     C86280  -0.450  -0.401   8.478  1.0462 -0.9071 -0.1326
  640MOL0     C86281  -0.424  -0.496   8.597 -0.1730  0.4239  0.4601
  640MOL0     N86282  -0.554  -0.568   8.627 -0.9219 -0.2644 -0.3007
  640MOL0     C86283  -0.577  -0.693   8.576 -1.5124  0.2753 -1.1386
  640MOL0     C86284  -0.692  -0.726   8.629  0.1722 -0.1664  0.8829
  640MOL0     C86285  -0.774  -0.846   8.604 -0.7953  0.1598 -0.3307
  640MOL0     C86286  -0.703  -0.970   8.645 -0.3434 -0.0015 -0.6403
  640MOL0     C86287  -0.786  -1.092   8.616 -0.2532 -1.0444 -0.3013
  640MOL0     C86288  -0.697  -1.209   8.667  0.2328  0.3835  0.0488
  640MOL0     O86289  -0.758  -1.333   8.659  0.6487  0.1838  0.6819
  640MOL0     C86290  -0.673  -1.438   8.666 -0.5046  0.0603 -0.3345
  640MOL0     C86291  -0.714  -1.566   8.612 -0.1397 -0.2446 -0.2990
  640MOL0     C86292  -0.635  -1.684   8.629  0.2612 -1.1013  0.1460
  640MOL0     C86293  -0.510  -1.684   8.693 -0.1205  0.4657 -0.2509
  640MOL0     C86294  -0.430  -1.808   8.706 -0.2670  0.2357 -0.8066
  640MOL0     O86295  -0.306  -1.801   8.767 -0.3569  0.5149  0.4595
  640MOL0     C86296  -0.235  -1.917   8.797  0.1480 -0.1505  0.3135
  640MOL0     C86297  -0.259  -1.969   8.924  0.1469  0.7223  0.0154
  640MOL0     C86298  -0.213  -2.094   8.966  0.6004 -0.4503  0.0590
  640MOL0     C86299  -0.150  -2.169   8.869 -0.8519 -0.5884 -0.6453
  640MOL0     O86300  -0.111  -2.294   8.902 -0.5980 -0.2102  0.5886
  640MOL0     C86301   0.004  -2.352   8.834  0.9438 -0.2637 -0.8715
  640MOL0     C86302   0.038  -2.484   8.881 -0.2393  0.3214 -0.7292
  640MOL0     C86303  -0.080  -2.580   8.863  0.3388  1.0489 -0.5581
  640MOL0     C86304  -0.043  -2.713   8.932  0.2474  0.7199  0.5992
  640MOL0     C86305  -0.138  -2.820   8.871 -0.0493  0.9114  0.8748
  640MOL0     C86306  -0.109  -2.962   8.924  0.0537 -0.6518 -0.4997
  640MOL0     C86307  -0.170  -2.986   9.071 -0.5451  0.6343 -0.1975
  640MOL0     C86308  -0.101  -3.094   9.150 -0.9273  0.8557 -0.1758
  640MOL0    Cl86309  -0.205  -3.109   9.288 -0.2359  0.2772 -0.6470
  640MOL0     C86310  -0.130  -2.127   8.740 -0.2436 -0.0388 -0.3528
  640MOL0     C86311  -0.168  -1.996   8.701 -1.0141 -0.1052  0.0945
  640MOL0     O86312  -0.474  -1.916   8.663  0.2790 -0.3505  0.5366
  640MOL0     C86313  -0.470  -1.555   8.746  0.0648  1.5144  0.5316
  640MOL0     C86314  -0.556  -1.442   8.743 -1.0374  0.1902 -0.9835
  640MOL0     N86315  -0.740  -0.620   8.705 -0.6558  0.0452 -0.0337
  640MOL0     N86316  -0.647  -0.524   8.718 -0.1105  0.2504  0.0568
  640MOL0     C86317   0.564   0.016   8.606 -0.0169 -1.2090 -0.3851
  640MOL0     C86318   0.665   0.066   8.702 -0.6716 -0.3022 -0.1842
  640MOL0     C86319   0.905   0.201   9.050  0.3899 -0.3027  0.3892
  640MOL0     C86320   0.995   0.115   9.110 -0.0953 -0.1694 -0.6842
  640MOL0     C86321   1.117   0.152   9.175 -0.0191 -0.7487 -0.5962
  640MOL0     C86322   1.162   0.286   9.164 -1.1720  0.1236 -0.0830
  640MOL0     O86323   1.286   0.347   9.197 -0.1828  0.0806 -0.0582
  640MOL0     C86324   1.377   0.270   9.280  0.6413 -0.2454  0.3716
  640MOL0     C86325   1.478   0.375   9.330 -0.5797 -0.2670 -0.3083
  640MOL0     C86326   1.583   0.299   9.418 -0.1893 -0.0507  0.5953
  640MOL0     C86327   1.694   0.384   9.469  0.4718  0.6656 -0.7353
  640MOL0     C86328   1.797   0.323   9.549  0.2443 -1.0138 -0.5466
  640MOL0     C86329   1.889   0.270   9.596  0.2087 -0.0893 -0.0366
  640MOL0     C86330   1.070   0.377   9.107  0.1063  1.6802  0.1645
  640MOL0     C86331   0.941   0.337   9.047 -0.6191 -0.3938 -0.6813
  640MOL0     C86332   0.862   0.448   8.985 -0.9547  0.1900 -0.4626
  640MOL0     H86333   0.475   0.295   8.860 -0.8878  1.7943 -1.7008
  640MOL0     H86334   0.297   0.199   8.722 -0.7191 -2.2872 -1.5623
  640MOL0     H86335   0.215  -0.054   8.683  1.0969  0.3626 -0.0823
  640MOL0     H86336   0.155   0.080   8.584 -2.4030 -1.3647 -2.5099
  640MOL0     H86337   0.184  -0.195   8.496  0.4875 -0.6538  2.3410
  640MOL0     H86338   0.095  -0.066   8.390 -2.6919 -1.8144  0.0345
  640MOL0     H86339  -0.080  -0.070   8.576 -2.4790 -2.0928 -0.5438
  640MOL0     H86340   0.015  -0.196   8.652 -0.4837 -2.5845  1.0787
  640MOL0     H86341  -0.119  -0.178   8.369  1.6480  1.2427 -0.0854
  640MOL0     H86342  -0.048  -0.327   8.424  0.8638 -0.0262  1.5125
  640MOL0     H86343  -0.226  -0.335   8.609 -2.3509  2.1698  1.7036
  640MOL0     H86344  -0.285  -0.178   8.532 -0.8455  0.5237 -2.4240
  640MOL0     H86345  -0.334  -0.312   8.315 -1.4483 -1.5210 -0.3311
  640MOL0     H86346  -0.264  -0.446   8.386  0.8502  0.0106 -0.1630
  640MOL0     H86347  -0.501  -0.464   8.404  0.7761 -2.3969  1.2608
  640MOL0     H86348  -0.507  -0.312   8.507  3.6237  0.6416  0.5811
  640MOL0     H86349  -0.348  -0.568   8.567 -1.2278 -0.7607  0.5429
  640MOL0     H86350  -0.387  -0.426   8.672  0.6650  2.2217 -1.5122
  640MOL0     H86351  -0.504  -0.739   8.511  1.9345  3.8044 -0.1853
  640MOL0     H86352  -0.865  -0.838   8.664 -1.0315  0.8179 -0.7638
  640MOL0     H86353  -0.808  -0.859   8.501 -2.3482  1.7095 -0.0727
  640MOL0     H86354  -0.612  -0.974   8.585  0.3789  0.1625  0.4251
  640MOL0     H86355  -0.691  -0.963   8.753 -0.5650 -0.1308 -0.6064
  640MOL0     H86356  -0.819  -1.100   8.512 -4.4981 -1.0724  0.8583
  640MOL0     H86357  -0.880  -1.093   8.672 -1.6249 -0.9816 -2.4721
  640MOL0     H86358  -0.670  -1.191   8.771 -0.4247  0.0140  0.2905
  640MOL0     H86359  -0.607  -1.215   8.606  1.2741 -1.7005  1.6654
  640MOL0     H86360  -0.814  -1.568   8.570  0.2658  2.3884 -1.5657
  640MOL0     H86361  -0.682  -1.774   8.592 -1.6334 -0.5721  1.1718
  640MOL0     H86362  -0.313  -1.906   8.994  2.1571 -0.4847  2.8521
  640MOL0     H86363  -0.226  -2.116   9.072 -0.3630  2.8983  0.7598
  640MOL0     H86364  -0.021  -2.356   8.727 -3.0457  1.5129 -0.1705
  640MOL0     H86365   0.087  -2.284   8.858 -0.0196  0.0538  1.7848
  640MOL0     H86366   0.124  -2.517   8.822  0.6979 -2.0903  1.7600
  640MOL0     H86367   0.078  -2.490   8.983 -1.0838  0.4240 -0.3838
  640MOL0     H86368  -0.165  -2.546   8.923  0.4371 -2.3006  1.7203
  640MOL0     H86369  -0.099  -2.586   8.755  0.0251  4.8075 -0.8637
  640MOL0     H86370  -0.049  -2.704   9.041 -0.4627 -0.3213  0.6642
  640MOL0     H86371   0.063  -2.736   8.926 -0.0511 -0.5697 -0.2111
  640MOL0     H86372  -0.125  -2.818   8.762 -2.0537 -0.6643  0.5371
  640MOL0     H86373  -0.245  -2.802   8.888  0.3101  3.9034  0.4912
  640MOL0     H86374  -0.152  -3.037   8.857  2.4058 -1.7642 -0.8741
  640MOL0     H86375  -0.000  -2.968   8.919  0.3028  2.1607  0.1346
  640MOL0     H86376  -0.274  -3.012   9.052 -0.3340 -0.9455  0.6928
  640MOL0     H86377  -0.155  -2.897   9.133  2.7487 -0.6177  1.0453
  640MOL0     H86378  -0.093  -3.191   9.101  2.7028  0.3168  1.1372
  640MOL0     H86379  -0.000  -3.073   9.188 -1.8387  2.8343  1.3101
  640MOL0     H86380  -0.090  -2.185   8.657  1.1377  2.5504 -1.6185
  640MOL0     H86381  -0.158  -1.955   8.601  2.6286 -0.3494  0.2309
  640MOL0     H86382  -0.383  -1.557   8.811 -0.9533 -0.1991  1.9496
  640MOL0     H86383  -0.525  -1.359   8.805 -0.7532 -0.9050  0.3847
  640MOL0     H86384   0.596  -0.064   8.541  1.8888 -0.9084  0.1335
  640MOL0     H86385   0.764   0.024   8.712 -1.5702 -3.1637 -2.1785
  640MOL0     H86386   0.985   0.007   9.123  0.9679 -0.0655  1.5851
  640MOL0     H86387   1.185   0.074   9.207  3.8347  1.2556 -3.1582
  640MOL0     H86388   1.421   0.189   9.222 -0.8028  0.2396 -1.4974
  640MOL0     H86389   1.322   0.225   9.364 -1.5245 -0.7108 -1.2040
  640MOL0     H86390   1.423   0.450   9.388  1.2026  0.4422  0.5176
  640MOL0     H86391   1.536   0.399   9.241 -0.6221 -1.3837 -0.6584
  640MOL0     H86392   1.630   0.226   9.351  0.3349 -0.4680  1.4010
  640MOL0     H86393   1.534   0.245   9.501  1.0488  0.1076  1.4508
  640MOL0     H86394   1.739   0.433   9.383  0.2988 -0.1059 -1.2722
  640MOL0     H86395   1.648   0.461   9.532  0.2991  1.1928 -1.4966
  640MOL0     H86396   1.968   0.220   9.647  1.4715  0.7663 -1.1112
  640MOL0     H86397   1.103   0.478   9.085  1.9122  1.0342 -0.3248
  640MOL0     H86398   0.914   0.544   8.997 -1.0055  0.1066  0.4880
  640MOL0     H86399   0.838   0.419   8.883  1.3210 -0.4625 -0.8516
  640MOL0     H86400   0.769   0.471   9.039 -1.8839 -1.2095 -1.4022
  641MOL0     O86401   8.835   9.860   8.187  0.7561  0.0548 -0.4270
  641MOL0     C86402   8.896   9.863   8.085  0.5627 -0.5422 -0.0354
  641MOL0     O86403   8.845   9.841   7.953 -0.0360 -0.0939 -0.2615
  641MOL0     C86404   8.722   9.781   7.950  0.2634  0.2356  0.1359
  641MOL0     C86405   8.696   9.646   7.966 -0.4771  1.5080  1.1483
  641MOL0     C86406   8.563   9.597   7.973  0.7361 -0.3994 -0.0470
  641MOL0     C86407   8.455   9.685   7.958 -0.1335 -0.1527  0.2516
  641MOL0     O86408   8.324   9.659   7.965  0.0356 -0.4530 -0.0912
  641MOL0     C86409   8.276   9.527   7.985  0.3032 -0.1649  0.4379
  641MOL0     C86410   8.114   9.528   7.976  0.5240 -0.0671  0.0230
  641MOL0     C86411   8.027   9.583   8.091 -0.3572 -0.2896 -0.8010
  641MOL0     C86412   8.100   9.612   8.220 -0.6158  0.8492 -0.0573
  641MOL0     C86413   8.036   9.699   8.327 -0.6863 -0.8307 -0.2573
  641MOL0     C86414   7.988   9.839   8.284 -0.3680  0.4856 -0.2668
  641MOL0     C86415   7.928   9.914   8.404 -0.3274 -0.2558  0.3755
  641MOL0     C86416   7.879  10.048   8.358 -0.2343 -0.3726  0.8169
  641MOL0     N86417   7.993  10.124   8.303 -0.0856 -0.4304  0.0895
  641MOL0     C86418   7.991  10.188   8.180  0.5938  0.8615  0.4061
  641MOL0     C86419   8.103  10.255   8.175  0.5642  0.4815 -0.5705
  641MOL0     C86420   8.143  10.343   8.063  0.0503 -0.6561 -0.0187
  641MOL0     C86421   8.228  10.270   7.966  0.0940  0.0883  0.1123
  641MOL0     C86422   8.281  10.367   7.858 -0.0725 -1.2638 -0.3985
  641MOL0     C86423   8.374  10.472   7.902 -0.9447 -0.2994 -0.1797
  641MOL0     O86424   8.481  10.413   7.976  0.2965 -0.1935 -0.3382
  641MOL0     C86425   8.600  10.440   7.929 -0.2733  1.0076  0.4799
  641MOL0     C86426   8.680  10.513   8.012 -0.3227 -0.8881 -0.0481
  641MOL0     C86427   8.805  10.548   7.965 -0.6396  0.3786  0.6849
  641MOL0     C86428   8.853  10.521   7.838 -0.3195  0.5732 -0.7551
  641MOL0     C86429   8.979  10.580   7.799  0.4581 -0.2730 -0.2785
  641MOL0     O86430   9.009  10.690   7.862  0.1475 -0.2988  0.4554
  641MOL0     C86431   9.125  10.756   7.853  0.1214 -0.8181 -0.0892
  641MOL0     C86432   9.121  10.894   7.882  0.2510 -0.3241  0.3597
  641MOL0     C86433   9.227  10.971   7.852  0.2325 -0.0294 -0.5990
  641MOL0     C86434   9.345  10.915   7.815  0.1611  0.1323 -0.8066
  641MOL0     O86435   9.453  11.002   7.805  0.2593  0.7669  0.1961
  641MOL0     C86436   9.547  10.991   7.912 -0.0354  0.6743 -1.1533
  641MOL0     C86437   9.640  11.102   7.908  0.4702 -0.7522  0.5880
  641MOL0     C86438   9.758  11.051   7.818 -0.9404  0.0091 -0.1992
  641MOL0     C86439   9.871  10.983   7.906 -0.7334  0.5342  0.0361
  641MOL0     C86440   9.979  10.933   7.825 -0.3166 -0.3692  0.1310
  641MOL0     C86441   9.948  10.811   7.739 -0.2015  0.0183 -0.5447
  641MOL0     C86442  10.059  10.782   7.638 -0.3844 -0.4670  0.5675
  641MOL0     C86443  10.191  10.729   7.713  0.2100  0.6788  0.2616
  641MOL0    Cl86444  10.297  10.865   7.787 -0.1284  0.2102  0.3227
  641MOL0     C86445   9.363  10.780   7.810 -0.4276  0.5367 -0.7544
  641MOL0     C86446   9.256  10.696   7.821 -0.2207 -0.1324 -0.1204
  641MOL0     O86447   9.037  10.536   7.703  0.9864 -0.4289 -0.1223
  641MOL0     C86448   8.774  10.456   7.751 -0.6537  1.0163  0.7487
  641MOL0     C86449   8.646  10.410   7.800  0.5358  0.4342  0.2907
  641MOL0     N86450   8.159  10.256   8.298 -0.2486 -0.8887  1.1974
  641MOL0     N86451   8.092  10.178   8.373 -0.3045 -0.1250 -0.3595
  641MOL0     C86452   8.492   9.818   7.934  0.1959 -0.8380  0.6636
  641MOL0     C86453   8.619   9.867   7.927 -1.0560 -0.2190  0.8951
  641MOL0     C86454   9.021   9.935   8.078 -0.4153 -0.3159 -0.1209
  641MOL0     C86455   9.085   9.955   7.959 -0.6568  0.0686  0.0728
  641MOL0     C86456   9.214  10.014   7.945 -0.0179 -0.6564 -0.4087
  641MOL0     C86457   9.281  10.060   8.065 -0.0155  0.8075  0.8956
  641MOL0     O86458   9.409  10.109   8.075  0.1549  0.2134  0.0969
  641MOL0     C86459   9.503  10.112   7.959 -0.2599  0.2546  0.0385
  641MOL0     C86460   9.470  10.230   7.874 -0.5361 -0.1899 -0.9896
  641MOL0     C86461   9.558  10.234   7.746  0.5821  0.3028 -0.3312
  641MOL0     C86462   9.534  10.369   7.676  0.3476  1.0136 -0.1302
  641MOL0     C86463   9.653  10.445   7.693 -0.0746  0.7971  0.6032
  641MOL0     C86464   9.765  10.493   7.697 -0.0597  0.6127  0.3896
  641MOL0     C86465   9.213  10.036   8.182 -0.5566 -0.4587  0.1938
  641MOL0     C86466   9.084   9.978   8.194 -0.4680  0.4879  0.6217
  641MOL0     C86467   9.039   9.944   8.337  0.5850  0.7451 -0.0135
  641MOL0     H86468   8.792   9.596   7.976  0.6912  1.5833 -5.4772
  641MOL0     H86469   8.553   9.492   7.998 -1.1190 -0.8628 -2.3618
  641MOL0     H86470   8.318   9.450   7.920 -1.4611 -1.8545  1.1819
  641MOL0     H86471   8.302   9.487   8.084 -2.3131 -0.8774  0.9220
  641MOL0     H86472   8.084   9.423   7.971  0.8731 -0.1177 -1.1437
  641MOL0     H86473   8.074   9.576   7.887  2.7058  0.0109 -0.9853
  641MOL0     H86474   7.953   9.504   8.106  0.0128 -0.6675 -0.9282
  641MOL0     H86475   7.966   9.669   8.062 -1.2294  0.3374  2.5069
  641MOL0     H86476   8.126   9.524   8.280 -1.3826  0.6168 -0.0479
  641MOL0     H86477   8.198   9.656   8.199  1.7150 -4.2684 -1.6052
  641MOL0     H86478   7.956   9.646   8.381 -0.6349  1.8508  2.7534
  641MOL0     H86479   8.109   9.731   8.402 -0.9595  2.1447 -1.1544
  641MOL0     H86480   8.072   9.888   8.235  1.3068  0.7857  2.7183
  641MOL0     H86481   7.923   9.825   8.197 -0.8720 -3.5966  0.5937
  641MOL0     H86482   7.998   9.934   8.485 -1.0182  0.0416  0.9103
  641MOL0     H86483   7.841   9.856   8.437  0.6930 -1.9917  0.1216
  641MOL0     H86484   7.807  10.044   8.275  1.2800 -0.9358 -0.5256
  641MOL0     H86485   7.837  10.114   8.434 -0.1231  0.3517  0.2646
  641MOL0     H86486   7.915  10.185   8.103  2.0024 -0.8797 -0.9916
  641MOL0     H86487   8.066  10.396   8.006 -0.7028  2.5389  3.5635
  641MOL0     H86488   8.204  10.419   8.113 -0.2157 -0.0573 -0.5716
  641MOL0     H86489   8.312  10.212   8.005 -2.4081 -4.3424 -0.4029
  641MOL0     H86490   8.166  10.193   7.919 -3.2580  1.0515  2.5699
  641MOL0     H86491   8.188  10.417   7.828 -1.2433 -2.0429  1.6546
  641MOL0     H86492   8.324  10.299   7.784  0.7963 -0.1972 -0.8897
  641MOL0     H86493   8.331  10.544   7.972  2.4913 -0.7668  2.6678
  641MOL0     H86494   8.418  10.529   7.819 -1.7323 -1.5891 -1.5418
  641MOL0     H86495   8.650  10.542   8.112 -0.2576  1.5870 -0.6732
  641MOL0     H86496   8.868  10.611   8.027  1.9022 -0.9370 -0.4361
  641MOL0     H86497   9.027  10.927   7.925  0.7709  1.3939  0.2402
  641MOL0     H86498   9.228  11.079   7.848 -1.5891  0.0388 -0.0655
  641MOL0     H86499   9.493  10.983   8.007 -0.0525 -0.7220 -1.2607
  641MOL0     H86500   9.597  10.894   7.903  4.1266  2.3678  0.6569
  641MOL0     H86501   9.597  11.191   7.860  1.7659 -1.0817 -1.3093
  641MOL0     H86502   9.670  11.133   8.008 -1.2313  0.0922  0.8765
  641MOL0     H86503   9.721  10.969   7.754 -2.9040 -0.4339  1.3896
  641MOL0     H86504   9.794  11.138   7.763 -0.5971  1.4723  2.1825
  641MOL0     H86505   9.831  10.895   7.957  0.5837  0.2709  0.6629
  641MOL0     H86506   9.905  11.056   7.980  1.2917  0.9398 -1.2140
  641MOL0     H86507  10.067  10.910   7.885  0.7413  0.7589 -0.9271
  641MOL0     H86508  10.011  11.019   7.766 -1.6847  1.3002  1.7177
  641MOL0     H86509   9.925  10.726   7.804 -1.5998  0.4671 -0.4129
  641MOL0     H86510   9.866  10.837   7.672 -1.7872  0.1636  1.3546
  641MOL0     H86511  10.081  10.875   7.584 -0.4585 -0.9858 -0.3773
  641MOL0     H86512  10.027  10.707   7.566  0.2880 -2.9159  2.6790
  641MOL0     H86513  10.168  10.655   7.791  0.3270 -1.2976 -1.4885
  641MOL0     H86514  10.255  10.676   7.643 -0.0682 -0.3789  0.7877
  641MOL0     H86515   9.465  10.742   7.801 -0.9217 -1.0521 -0.0919
  641MOL0     H86516   9.274  10.589   7.816 -1.6048 -0.3750 -0.3977
  641MOL0     H86517   8.811  10.435   7.651 -0.4517 -0.0828  1.0454
  641MOL0     H86518   8.582  10.357   7.731  3.1921 -1.7784 -0.6640
  641MOL0     H86519   8.421   9.893   7.901  1.1103 -0.9380 -1.6804
  641MOL0     H86520   8.627   9.971   7.899 -0.5584 -0.0580  1.5855
  641MOL0     H86521   9.033   9.919   7.871 -0.6933  1.5233 -0.5210
  641MOL0     H86522   9.256  10.010   7.845 -0.5093 -1.6480 -0.5859
  641MOL0     H86523   9.504  10.018   7.903 -4.1179  1.0454 -1.6586
  641MOL0     H86524   9.605  10.115   7.997 -0.1234 -0.8550 -0.2076
  641MOL0     H86525   9.477  10.326   7.926 -1.2130  0.4990 -2.1335
  641MOL0     H86526   9.369  10.219   7.834 -1.2464 -0.3776  0.7843
  641MOL0     H86527   9.515  10.160   7.677  2.1918 -0.6705 -0.3458
  641MOL0     H86528   9.659  10.200   7.770  0.3782  0.0653  0.2091
  641MOL0     H86529   9.511  10.349   7.571 -1.5450 -2.5824  0.8015
  641MOL0     H86530   9.450  10.427   7.715 -1.6193 -2.2221  0.9188
  641MOL0     H86531   9.869  10.520   7.700 -0.0689  0.6491  2.7038
  641MOL0     H86532   9.268  10.068   8.270 -2.0446  1.7831  0.3644
  641MOL0     H86533   8.950  10.003   8.362 -0.4397 -0.8853  0.3647
  641MOL0     H86534   9.027   9.836   8.352 -0.4025  0.5351 -1.9558
  641MOL0     H86535   9.113   9.977   8.410  2.6226  0.6623 -1.9418
  642MOL0     O86536   8.556  10.122  10.788  0.1055 -0.0491  0.6434
  642MOL0     C86537   8.565  10.091  10.911 -0.2189  0.4066  0.2280
  642MOL0     O86538   8.554  10.179  11.016  0.0855  0.5053 -0.4482
  642MOL0     C86539   8.547  10.315  10.982  0.2571 -0.0937  0.3594
  642MOL0     C86540   8.660  10.395  10.955 -0.8221  0.3086  0.4630
  642MOL0     C86541   8.643  10.534  10.931  0.2078  0.3822 -0.4502
  642MOL0     C86542   8.515  10.592  10.920  0.0650  0.2730  0.1007
  642MOL0     O86543   8.488  10.722  10.886  0.3958  0.9093  0.0833
  642MOL0     C86544   8.583  10.811  10.851 -0.6918 -0.2025  0.3588
  642MOL0     C86545   8.649  10.786  10.708  1.0727 -0.4000 -0.0791
  642MOL0     C86546   8.722  10.906  10.655  0.1420 -0.1162  0.7609
  642MOL0     C86547   8.771  10.877  10.519 -0.0439 -0.4260  0.3723
  642MOL0     C86548   8.835  11.013  10.448  0.8225 -0.6561 -0.0561
  642MOL0     C86549   8.963  11.072  10.510 -0.6921 -0.3148  0.3258
  642MOL0     C86550   9.084  10.983  10.459 -0.2079 -0.1646 -0.7081
  642MOL0     C86551   9.217  11.041  10.509 -0.3102 -0.7447  0.7150
  642MOL0     N86552   9.319  10.947  10.461 -0.2473 -0.3571  0.3461
  642MOL0     C86553   9.395  10.962  10.349  0.3706 -0.2774  1.3344
  642MOL0     C86554   9.497  10.876  10.369 -0.4860  0.2024  0.5002
  642MOL0     C86555   9.600  10.849  10.271  1.1590  0.8477  0.4387
  642MOL0     C86556   9.724  10.778  10.323  0.1448 -0.4154 -0.6551
  642MOL0     C86557   9.825  10.744  10.210 -0.3750 -1.2418 -0.0807
  642MOL0     C86558   9.918  10.639  10.249 -0.1345  0.2313 -0.0394
  642MOL0     O86559   9.984  10.657  10.382 -0.1430 -0.6642 -0.4278
  642MOL0     C86560  10.095  10.740  10.386  0.8109  0.3095  0.1836
  642MOL0     C86561  10.210  10.692  10.325  0.1717  0.9737 -0.0478
  642MOL0     C86562  10.329  10.760  10.331  0.1018 -0.4876  0.3803
  642MOL0     C86563  10.327  10.883  10.390 -0.0747  0.4403  0.5785
  642MOL0     C86564  10.446  10.969  10.390 -0.4845 -0.1429 -0.2677
  642MOL0     O86565  10.546  10.924  10.466 -1.0029  0.3969 -0.2988
  642MOL0     C86566  10.628  11.024  10.506  0.1508 -0.3607 -0.6027
  642MOL0     C86567  10.575  11.122  10.595  0.5781 -0.4092 -0.1567
  642MOL0     C86568  10.652  11.232  10.637 -1.0082  0.0076 -0.0132
  642MOL0     C86569  10.788  11.247  10.588 -0.0971 -0.1812 -0.6362
  642MOL0     O86570  10.875  11.333  10.641 -0.0138  0.2006  0.3343
  642MOL0     C86571  10.823  11.448  10.712  0.0180  0.2040 -0.0749
  642MOL0     C86572  10.932  11.534  10.768  0.5205 -0.5730  0.1689
  642MOL0     C86573  10.997  11.623  10.662  0.4740 -0.1773  1.0918
  642MOL0     C86574  11.139  11.678  10.697 -0.0236  0.3463 -1.0743
  642MOL0     C86575  11.210  11.730  10.569  0.4056  0.8322  0.0417
  642MOL0     C86576  11.340  11.794  10.620  1.1621 -0.2808  0.2104
  642MOL0     C86577  11.438  11.778  10.502  0.1059 -0.6732 -0.3969
  642MOL0     C86578  11.524  11.906  10.486  0.2810 -1.0492 -0.1805
  642MOL0    Cl86579  11.612  11.936  10.636  0.1145  0.3615 -0.1410
  642MOL0     C86580  10.838  11.148  10.503 -0.0748  0.1268  0.8700
  642MOL0     C86581  10.753  11.042  10.452 -0.5688 -0.4238  0.4753
  642MOL0     O86582  10.451  11.079  10.329  0.5646 -0.4137 -0.5018
  642MOL0     C86583  10.215  10.930  10.466 -0.6072 -1.3004  0.4581
  642MOL0     C86584  10.099  10.859  10.468  0.0710 -0.0993  0.6204
  642MOL0     N86585   9.474  10.798  10.474  0.1217  0.0644 -0.2351
  642MOL0     N86586   9.366  10.843  10.536 -0.4028 -0.8125 -0.0542
  642MOL0     C86587   8.408  10.504  10.938 -1.0902  0.2223 -0.7234
  642MOL0     C86588   8.422  10.373  10.979  0.6408 -0.1897 -0.2847
  642MOL0     C86589   8.578   9.945  10.936  0.8731 -0.5232  0.9572
  642MOL0     C86590   8.697   9.906  10.981  0.5267 -0.4092  0.0708
  642MOL0     C86591   8.720   9.766  11.006  0.3771 -0.8924  1.2393
  642MOL0     C86592   8.621   9.667  10.978  0.5722 -0.0299  0.8397
  642MOL0     O86593   8.610   9.532  10.989 -0.5962  0.4848  0.3180
  642MOL0     C86594   8.681   9.471  11.106 -0.1277  0.0276  0.1638
  642MOL0     C86595   8.614   9.339  11.142 -0.3178 -0.2140  0.9597
  642MOL0     C86596   8.618   9.241  11.017 -0.0562  0.5343 -0.0207
  642MOL0     C86597   8.606   9.096  11.034  0.2487  0.0798  0.2287
  642MOL0     C86598   8.618   9.010  10.909 -0.3427 -1.0266  0.3991
  642MOL0     C86599   8.629   8.949  10.805 -0.1675 -0.7368  1.0693
  642MOL0     C86600   8.500   9.714  10.912 -0.7843  0.6043  0.2118
  642MOL0     C86601   8.477   9.851  10.898 -0.0719  0.2783  0.9194
  642MOL0     C86602   8.338   9.880  10.844 -0.9332 -0.5001 -0.3713
  642MOL0     H86603   8.758  10.356  10.980  0.2012  2.5767  0.1831
  642MOL0     H86604   8.732  10.596  10.929  1.8340 -1.7967  0.7137
  642MOL0     H86605   8.545  10.913  10.842 -1.3603 -0.6094 -3.7916
  642MOL0     H86606   8.668  10.812  10.919 -0.1335 -0.5993 -0.3202
  642MOL0     H86607   8.570  10.761  10.638  2.4224 -4.7960 -0.3697
  642MOL0     H86608   8.723  10.706  10.704  1.0472 -0.3996 -0.6396
  642MOL0     H86609   8.812  10.924  10.714  2.6240 -0.4975 -2.6304
  642MOL0     H86610   8.657  10.994  10.645 -0.7319 -0.8738 -0.4497
  642MOL0     H86611   8.848  10.799  10.518 -0.4521 -0.8374  0.3148
  642MOL0     H86612   8.692  10.835  10.456  1.0789  0.4772 -1.7503
  642MOL0     H86613   8.861  10.992  10.344  1.2322  0.0202 -0.0958
  642MOL0     H86614   8.763  11.096  10.449  0.9611 -0.5473  0.8588
  642MOL0     H86615   8.970  11.176  10.475  1.3766  1.6791  5.5440
  642MOL0     H86616   8.964  11.083  10.619 -0.2941 -2.6998  0.6233
  642MOL0     H86617   9.101  10.978  10.351  0.2400 -0.6851 -0.6167
  642MOL0     H86618   9.071  10.881  10.494  0.5560  0.8678  3.0369
  642MOL0     H86619   9.228  11.139  10.463 -0.8323 -0.9531  0.1251
  642MOL0     H86620   9.225  11.049  10.618  0.6496  1.6666  0.5180
  642MOL0     H86621   9.375  11.023  10.262 -2.1114  0.7426  2.5045
  642MOL0     H86622   9.547  10.789  10.196  0.5213  2.2182 -0.2386
  642MOL0     H86623   9.623  10.942  10.219  0.8908  0.8194  0.2724
  642MOL0     H86624   9.772  10.850  10.389 -3.3591  0.8839  0.6818
  642MOL0     H86625   9.697  10.689  10.379  2.2959  0.7055  2.4347
  642MOL0     H86626   9.881  10.834  10.184 -0.3713 -1.4867 -0.9613
  642MOL0     H86627   9.779  10.724  10.113  0.2675 -4.6406  0.1960
  642MOL0     H86628   9.986  10.627  10.164 -0.2951 -2.9794  0.1725
  642MOL0     H86629   9.864  10.545  10.263 -1.4996  1.1931  1.4228
  642MOL0     H86630  10.199  10.593  10.281  1.6458 -2.0350  5.4856
  642MOL0     H86631  10.426  10.726  10.297  0.3355  1.8702 -1.6015
  642MOL0     H86632  10.469  11.116  10.621  0.6913  1.7267  1.1006
  642MOL0     H86633  10.600  11.295  10.707  1.1892 -0.2952  2.0018
  642MOL0     H86634  10.766  11.511  10.642  1.1219  0.2227 -0.9917
  642MOL0     H86635  10.770  11.420  10.803  1.4193 -2.1158  0.1062
  642MOL0     H86636  10.876  11.593  10.841 -2.0089  0.5239 -2.4600
  642MOL0     H86637  11.001  11.463  10.814  0.9995 -0.4494 -0.3444
  642MOL0     H86638  11.006  11.563  10.571 -3.6998  0.6731 -0.1004
  642MOL0     H86639  10.938  11.709  10.627 -0.4907 -1.3971 -0.3904
  642MOL0     H86640  11.195  11.603  10.755  0.4279  3.0773  2.3859
  642MOL0     H86641  11.124  11.765  10.762  1.1771  1.1437 -1.8358
  642MOL0     H86642  11.143  11.796  10.513 -2.1590 -0.3559  1.5138
  642MOL0     H86643  11.241  11.643  10.511 -2.4812 -1.1608  1.2651
  642MOL0     H86644  11.312  11.900  10.630  0.1125 -0.5631  0.4435
  642MOL0     H86645  11.388  11.764  10.713  1.0923 -1.1871 -0.0409
  642MOL0     H86646  11.384  11.746  10.412  1.0326 -1.6632 -0.6216
  642MOL0     H86647  11.502  11.693  10.528 -0.0844 -1.0744 -1.2139
  642MOL0     H86648  11.600  11.906  10.408  0.3073 -0.3683 -0.1569
  642MOL0     H86649  11.449  11.985  10.478  1.2191 -0.2741 -1.6206
  642MOL0     H86650  10.944  11.151  10.478 -0.5588 -1.1039 -1.6730
  642MOL0     H86651  10.799  10.959  10.400  4.7339  0.8669  2.4707
  642MOL0     H86652  10.221  11.021  10.525  2.3071 -1.1953  0.1455
  642MOL0     H86653  10.010  10.887  10.524 -0.4385  1.5785 -0.9506
  642MOL0     H86654   8.308  10.545  10.929 -1.1958  0.0650 -0.3101
  642MOL0     H86655   8.340  10.306  11.000 -0.6111  1.9045  2.0084
  642MOL0     H86656   8.770   9.982  11.006  0.6435 -0.7840  0.9047
  642MOL0     H86657   8.814   9.738  11.054 -0.0058 -0.2139  2.4379
  642MOL0     H86658   8.677   9.539  11.192  0.2437 -0.4079  0.5311
  642MOL0     H86659   8.789   9.465  11.093 -0.0328 -2.5955  1.5011
  642MOL0     H86660   8.512   9.362  11.173 -0.1999  3.4010 -0.7893
  642MOL0     H86661   8.669   9.281  11.217  3.0482 -0.2501 -1.3242
  642MOL0     H86662   8.714   9.255  10.966 -0.4582 -0.6173 -1.1353
  642MOL0     H86663   8.547   9.275  10.941  1.1248 -0.7228 -1.7658
  642MOL0     H86664   8.678   9.061  11.109  1.1406  1.4953  0.0939
  642MOL0     H86665   8.508   9.086  11.080 -0.2099  0.3773 -0.6656
  642MOL0     H86666   8.628   8.898  10.711 -2.2060  0.7834  0.1902
  642MOL0     H86667   8.415   9.648  10.899 -0.1070 -0.7405  2.2264
  642MOL0     H86668   8.266   9.807  10.879  1.1049 -2.2074  0.4703
  642MOL0     H86669   8.300   9.977  10.878 -4.7335 -1.4025 -1.5784
  642MOL0     H86670   8.343   9.891  10.735 -3.2287  0.7627 -0.4070
  643MOL0     O86671   5.912   6.852   2.329  0.1961  0.4125 -0.3916
  643MOL0     C86672   6.021   6.790   2.295  0.9641 -0.3877  0.0580
  643MOL0     O86673   6.134   6.842   2.267 -0.3448 -0.3360  0.1276
  643MOL0     C86674   6.152   6.981   2.269  0.5219 -0.4470  0.3500
  643MOL0     C86675   6.121   7.059   2.379  0.3468  0.3159 -0.7194
  643MOL0     C86676   6.136   7.200   2.375  0.7466 -0.5627  0.2802
  643MOL0     C86677   6.185   7.266   2.261 -0.1899 -0.0669  0.6304
  643MOL0     O86678   6.185   7.407   2.253 -0.1695 -0.5129  0.2584
  643MOL0     C86679   6.186   7.464   2.118  0.5935  0.2320 -0.4574
  643MOL0     C86680   6.169   7.615   2.100  0.0360 -1.0675  0.1060
  643MOL0     C86681   6.239   7.703   2.209 -0.1456  0.0479 -0.0629
  643MOL0     C86682   6.199   7.856   2.189 -0.5142  0.1112  0.8823
  643MOL0     C86683   6.216   7.901   2.033 -0.0965  0.1981 -0.4704
  643MOL0     C86684   6.143   8.030   2.027 -0.2968  0.3121  0.2095
  643MOL0     C86685   6.137   8.072   1.874 -0.0565 -0.1965  0.3040
  643MOL0     C86686   6.269   8.151   1.837  0.0934  1.1348  0.3851
  643MOL0     N86687   6.286   8.281   1.913 -0.3377  1.4425  0.0574
  643MOL0     C86688   6.207   8.394   1.930 -0.2630 -0.2943  0.8242
  643MOL0     C86689   6.294   8.476   1.988  0.6745 -0.8544 -0.7155
  643MOL0     C86690   6.260   8.613   2.029 -0.3657 -0.2668 -0.1622
  643MOL0     C86691   6.332   8.717   1.946 -0.8851  0.2308 -0.3219
  643MOL0     C86692   6.342   8.844   2.031 -0.9648 -0.3257 -0.3235
  643MOL0     C86693   6.440   8.951   1.995  0.5045  0.5428  0.2860
  643MOL0     O86694   6.571   8.911   2.036  0.5641 -0.1210  0.1652
  643MOL0     C86695   6.673   8.942   1.947 -0.8058 -0.2423 -0.1880
  643MOL0     C86696   6.778   8.845   1.943  0.3828  0.2508  0.2893
  643MOL0     C86697   6.897   8.860   1.867  0.8956 -0.9104  0.6217
  643MOL0     C86698   6.901   8.977   1.780  0.3516  0.8451  0.4802
  643MOL0     C86699   7.002   8.980   1.681 -0.0027 -0.0044  0.4014
  643MOL0     O86700   7.058   8.857   1.653  0.1366 -0.6555  0.5030
  643MOL0     C86701   7.171   8.849   1.571  0.9283  0.5226 -0.1619
  643MOL0     C86702   7.230   8.935   1.476 -0.0716  0.4667 -0.4605
  643MOL0     C86703   7.353   8.898   1.411  0.4155  0.1823 -0.7465
  643MOL0     C86704   7.419   8.781   1.437  0.7690  0.5910  1.0192
  643MOL0     O86705   7.533   8.726   1.377 -0.5494 -0.4427  0.2522
  643MOL0     C86706   7.593   8.823   1.294  0.5792  0.0947 -1.2079
  643MOL0     C86707   7.716   8.778   1.209  0.4597 -1.0068  0.2630
  643MOL0     C86708   7.827   8.721   1.310 -0.7018 -0.8434  0.5578
  643MOL0     C86709   7.923   8.633   1.221  0.0734  0.0015  0.6223
  643MOL0     C86710   8.022   8.556   1.312  0.6066  0.4126  1.1251
  643MOL0     C86711   8.121   8.484   1.213  0.8764 -0.5998 -0.5739
  643MOL0     C86712   8.191   8.365   1.277  0.2403  0.7145 -0.3161
  643MOL0     C86713   8.302   8.399   1.372 -0.2517 -0.1914  0.3082
  643MOL0    Cl86714   8.253   8.385   1.537 -0.3194 -0.3310  0.0499
  643MOL0     C86715   7.361   8.692   1.533  0.4899 -0.8431 -0.1202
  643MOL0     C86716   7.236   8.725   1.606 -0.5856  0.4044 -0.7530
  643MOL0     O86717   7.020   9.085   1.624  0.1583 -0.1756  0.9171
  643MOL0     C86718   6.795   9.072   1.790 -0.8516  0.7924  0.4471
  643MOL0     C86719   6.685   9.060   1.871 -0.3083  0.2455  0.0821
  643MOL0     N86720   6.411   8.418   2.014 -0.0883  0.2179 -0.5659
  643MOL0     N86721   6.408   8.301   1.975  0.7851  0.8958 -0.0923
  643MOL0     C86722   6.214   7.181   2.152 -0.6191 -0.3639  0.6026
  643MOL0     C86723   6.189   7.047   2.155 -0.9850  0.3320 -0.1520
  643MOL0     C86724   5.999   6.646   2.281  0.2743  0.5620  0.1399
  643MOL0     C86725   5.889   6.584   2.341  0.1322 -0.6719  0.3163
  643MOL0     C86726   5.860   6.446   2.328 -0.4190 -0.3258 -0.9963
  643MOL0     C86727   5.941   6.361   2.251 -0.7535  1.0140 -0.3483
  643MOL0     O86728   5.927   6.220   2.233  0.0656 -1.2220  0.4145
  643MOL0     C86729   5.871   6.155   2.341  0.6270  0.6215  0.5981
  643MOL0     C86730   5.908   6.001   2.341  0.4735  0.4198 -0.8525
  643MOL0     C86731   5.834   5.913   2.244 -0.0468  0.1039  0.8126
  643MOL0     C86732   5.855   5.767   2.274  0.1885 -0.0262  1.1850
  643MOL0     C86733   5.748   5.705   2.195 -0.5766 -1.4574 -0.5060
  643MOL0     C86734   5.667   5.647   2.122 -0.0659 -0.6657 -1.1057
  643MOL0     C86735   6.062   6.412   2.203 -0.9286 -0.0154  0.1699
  643MOL0     C86736   6.093   6.555   2.218 -0.6375 -0.5644  0.7787
  643MOL0     C86737   6.213   6.604   2.145 -0.1241  0.7875 -0.1681
  643MOL0     H86738   6.080   7.016   2.469  0.8355  0.3327 -0.4880
  643MOL0     H86739   6.089   7.252   2.458 -0.5234 -0.2395 -0.6158
  643MOL0     H86740   6.286   7.444   2.078  0.5353  1.8830 -1.5305
  643MOL0     H86741   6.114   7.416   2.051  0.9944  0.8293 -1.3441
  643MOL0     H86742   6.063   7.641   2.098 -0.4401 -2.9112 -1.0899
  643MOL0     H86743   6.220   7.642   2.007  1.1067  1.4123  1.2899
  643MOL0     H86744   6.348   7.695   2.201 -0.2417  0.2426 -2.8230
  643MOL0     H86745   6.212   7.673   2.310 -0.1867  0.7528  0.1393
  643MOL0     H86746   6.094   7.871   2.213 -0.3563 -0.2522  1.8775
  643MOL0     H86747   6.261   7.915   2.258 -3.7018  0.9892  3.2484
  643MOL0     H86748   6.322   7.905   2.007 -0.6455 -2.3841 -3.7026
  643MOL0     H86749   6.173   7.829   1.963 -0.6998 -1.7381  1.7546
  643MOL0     H86750   6.041   8.009   2.059 -1.2835  2.0558 -1.5921
  643MOL0     H86751   6.189   8.109   2.087  1.2095 -0.6813  0.4287
  643MOL0     H86752   6.058   8.146   1.859  0.5187  0.3971  0.1611
  643MOL0     H86753   6.120   7.986   1.808 -1.4921 -0.5399  1.0757
  643MOL0     H86754   6.359   8.088   1.833 -0.5764  0.2351 -2.4822
  643MOL0     H86755   6.258   8.191   1.736  1.1805  3.3658  1.0812
  643MOL0     H86756   6.107   8.406   1.890  0.1468  1.4448  0.2514
  643MOL0     H86757   6.151   8.623   2.027 -0.2873  1.5536  1.4882
  643MOL0     H86758   6.290   8.621   2.133  0.9238  1.6517 -0.6165
  643MOL0     H86759   6.431   8.676   1.922 -1.8289 -1.2304 -1.9750
  643MOL0     H86760   6.285   8.734   1.849 -0.5445 -0.7130 -0.6623
  643MOL0     H86761   6.374   8.812   2.131  0.2728  0.4941 -0.4351
  643MOL0     H86762   6.244   8.890   2.041  0.4183  2.7395  0.1734
  643MOL0     H86763   6.417   9.045   2.046  0.2827 -1.4109  4.1355
  643MOL0     H86764   6.435   8.949   1.885  1.6791 -4.2920  0.0887
  643MOL0     H86765   6.775   8.756   2.005  4.3810 -2.0782 -2.3514
  643MOL0     H86766   6.981   8.792   1.867  2.4071  0.8824  1.1007
  643MOL0     H86767   7.182   9.021   1.432 -0.0500  0.7907  0.1338
  643MOL0     H86768   7.389   8.970   1.339 -2.6047  0.6604 -1.9142
  643MOL0     H86769   7.514   8.858   1.228 -0.8810  1.3664  1.0650
  643MOL0     H86770   7.621   8.907   1.359 -0.3893 -1.6911  1.7347
  643MOL0     H86771   7.692   8.711   1.125  1.0718 -2.1976  1.0017
  643MOL0     H86772   7.753   8.871   1.166 -0.2597 -1.1509 -0.7117
  643MOL0     H86773   7.886   8.804   1.350 -2.6471  1.9635 -1.9991
  643MOL0     H86774   7.765   8.675   1.388  0.0566  0.7313  2.1430
  643MOL0     H86775   7.978   8.705   1.159 -2.7977  1.1569 -0.7946
  643MOL0     H86776   7.860   8.575   1.152  1.4486  0.1990 -0.8569
  643MOL0     H86777   7.968   8.474   1.360 -0.5796  0.1508 -0.5918
  643MOL0     H86778   8.075   8.619   1.385  1.4410  0.9132  0.1233
  643MOL0     H86779   8.062   8.449   1.128  0.9104  0.2184 -0.9462
  643MOL0     H86780   8.196   8.562   1.193  0.9572 -0.2312  1.0189
  643MOL0     H86781   8.232   8.316   1.188 -0.4329  2.1440 -1.4604
  643MOL0     H86782   8.113   8.301   1.319 -0.3948  0.6055 -1.5850
  643MOL0     H86783   8.393   8.340   1.358  0.4916  0.4466  2.1596
  643MOL0     H86784   8.332   8.502   1.353  0.6556 -0.7887 -1.7882
  643MOL0     H86785   7.397   8.591   1.550 -1.5030 -1.0307  4.2338
  643MOL0     H86786   7.196   8.653   1.677  1.7518 -1.9812 -1.6974
  643MOL0     H86787   6.794   9.161   1.728  0.3469  1.7331  1.7333
  643MOL0     H86788   6.616   9.143   1.883  2.0128  2.1253  1.4120
  643MOL0     H86789   6.251   7.223   2.060 -2.3916  0.1494  0.0911
  643MOL0     H86790   6.204   6.983   2.068 -1.6572  0.3744 -0.3067
  643MOL0     H86791   5.824   6.644   2.404 -0.4963 -1.4221  0.4042
  643MOL0     H86792   5.769   6.393   2.355  0.0204 -0.7257 -0.2696
  643MOL0     H86793   5.763   6.161   2.352  0.4993 -2.5266  2.0519
  643MOL0     H86794   5.918   6.187   2.434  1.3994 -0.7232  0.7036
  643MOL0     H86795   5.888   5.956   2.438 -3.9324  1.5347 -1.0655
  643MOL0     H86796   6.015   5.985   2.320  0.8018  0.6887  0.5672
  643MOL0     H86797   5.864   5.947   2.144  1.6888  3.4693  2.3117
  643MOL0     H86798   5.725   5.926   2.244  0.0251  0.7481  0.3854
  643MOL0     H86799   5.950   5.724   2.242 -1.1913 -3.8973  1.7324
  643MOL0     H86800   5.837   5.724   2.373 -2.3828 -4.7493 -0.9801
  643MOL0     H86801   5.600   5.591   2.059 -2.3382  1.7789 -1.0435
  643MOL0     H86802   6.132   6.341   2.159  1.0751  0.2742  2.6344
  643MOL0     H86803   6.245   6.531   2.071  0.0341 -1.2423  1.7876
  643MOL0     H86804   6.174   6.669   2.066 -3.2141 -2.8332 -1.9307
  643MOL0     H86805   6.292   6.638   2.213  0.8724 -0.1179 -0.8499
  644MOL0     O86806   7.878   9.940   7.135  0.1385 -0.1460 -0.4746
  644MOL0     C86807   7.876   9.847   7.216  0.8146 -0.6858 -0.8186
  644MOL0     O86808   7.982   9.801   7.269  0.0836 -0.1412  0.4814
  644MOL0     C86809   8.115   9.838   7.239  0.2896 -0.2141 -0.8385
  644MOL0     C86810   8.161   9.843   7.105 -0.1622  0.4678 -0.3735
  644MOL0     C86811   8.289   9.880   7.074  0.4431 -0.1136 -0.5741
  644MOL0     C86812   8.380   9.913   7.186 -0.5516  0.1081  0.2972
  644MOL0     O86813   8.512   9.949   7.161 -0.5035 -0.3524  0.6299
  644MOL0     C86814   8.542  10.027   7.039 -0.1079  0.4588  0.0851
  644MOL0     C86815   8.584  10.172   7.078 -0.5970  0.5151 -0.1277
  644MOL0     C86816   8.653  10.243   6.965  1.2194  0.5156 -1.0638
  644MOL0     C86817   8.773  10.318   7.026 -0.0295  0.8645  0.5421
  644MOL0     C86818   8.814  10.440   6.940 -0.6869  1.0940  0.0188
  644MOL0     C86819   8.874  10.405   6.806  0.0311 -0.8458 -0.0094
  644MOL0     C86820   8.943  10.523   6.729 -0.4495  0.4682 -0.3512
  644MOL0     C86821   9.015  10.474   6.604  0.4087 -0.3044 -0.1245
  644MOL0     N86822   9.117  10.371   6.627 -0.7805  0.1833 -0.4833
  644MOL0     C86823   9.212  10.381   6.729  0.1479  0.1133 -0.1466
  644MOL0     C86824   9.274  10.260   6.731 -1.2193  0.8067  0.9558
  644MOL0     C86825   9.378  10.214   6.826 -0.5687  0.4416  0.1481
  644MOL0     C86826   9.507  10.293   6.827 -0.1908 -0.3127 -0.5890
  644MOL0     C86827   9.560  10.318   6.684 -0.0473  0.8818 -0.1404
  644MOL0     C86828   9.714  10.351   6.676  0.0706  0.2421 -0.5402
  644MOL0     O86829   9.774  10.368   6.812 -1.0270 -1.1544  0.4132
  644MOL0     C86830   9.910  10.381   6.827  0.0029 -0.2943 -0.2847
  644MOL0     C86831  10.010  10.337   6.735  0.8273 -0.4884 -0.6469
  644MOL0     C86832  10.149  10.374   6.755 -0.3138 -0.7160  0.5359
  644MOL0     C86833  10.190  10.443   6.865  0.2445 -0.0796 -0.6761
  644MOL0     C86834  10.336  10.450   6.891 -0.4862  0.0147 -0.3460
  644MOL0     O86835  10.422  10.490   6.785 -0.0485 -0.4208 -0.3125
  644MOL0     C86836  10.548  10.528   6.812 -0.5710  0.8533 -1.0179
  644MOL0     C86837  10.581  10.665   6.787 -0.5636  0.2749  0.2914
  644MOL0     C86838  10.715  10.706   6.825  0.0347  1.0240 -0.2062
  644MOL0     C86839  10.813  10.618   6.864 -0.8769 -0.0454 -0.7860
  644MOL0     O86840  10.935  10.672   6.882 -0.6365 -0.3977  0.4204
  644MOL0     C86841  11.004  10.619   7.002  0.1303  0.5582  0.4139
  644MOL0     C86842  11.103  10.714   7.056 -0.1465  0.2792  0.3707
  644MOL0     C86843  11.214  10.731   6.951  0.1682 -0.4946 -0.1059
  644MOL0     C86844  11.320  10.833   7.012 -0.6207  0.5969  1.3182
  644MOL0     C86845  11.436  10.857   6.909  0.1975 -0.3273  0.7335
  644MOL0     C86846  11.558  10.928   6.964 -0.8653  0.5097 -0.1753
  644MOL0     C86847  11.663  10.839   7.044  1.2460  0.4102 -0.3872
  644MOL0     C86848  11.789  10.837   6.958  0.0081  0.6414  0.3117
  644MOL0    Cl86849  11.920  10.738   7.035 -0.5337  0.1705 -0.2026
  644MOL0     C86850  10.780  10.475   6.881  0.6056 -0.5721 -0.0785
  644MOL0     C86851  10.647  10.438   6.855  0.1309  0.8314 -0.3021
  644MOL0     O86852  10.375  10.434   7.007 -0.0106 -0.4026 -0.1361
  644MOL0     C86853  10.090  10.459   6.969 -0.4805 -0.0470 -0.2368
  644MOL0     C86854   9.952  10.439   6.948 -1.2027 -0.6328  0.3951
  644MOL0     N86855   9.210  10.179   6.635 -0.0486  1.2192  0.5916
  644MOL0     N86856   9.113  10.252   6.577 -0.3278  0.9973 -0.0518
  644MOL0     C86857   8.340   9.911   7.315  0.5981  1.0684 -1.2716
  644MOL0     C86858   8.206   9.878   7.346  0.2815  0.0907  0.5168
  644MOL0     C86859   7.748   9.814   7.277 -0.8370  0.7789  0.2572
  644MOL0     C86860   7.630   9.828   7.201 -0.1608  1.0149 -0.4840
  644MOL0     C86861   7.500   9.832   7.266 -0.0967  0.3251  0.3502
  644MOL0     C86862   7.489   9.798   7.398  0.2959 -1.5152 -0.1684
  644MOL0     O86863   7.372   9.785   7.476 -0.3702 -0.0899  0.5922
  644MOL0     C86864   7.244   9.789   7.403  0.0043 -0.1328  0.8858
  644MOL0     C86865   7.137   9.758   7.508  0.3946 -0.1941 -0.0744
  644MOL0     C86866   6.994   9.744   7.449  1.3848  0.3399 -0.5250
  644MOL0     C86867   6.904   9.664   7.550 -0.4221 -0.4338 -0.0320
  644MOL0     C86868   6.765   9.692   7.516 -0.1961 -0.1625 -0.4252
  644MOL0     C86869   6.647   9.700   7.492  0.0179  0.3583 -1.1943
  644MOL0     C86870   7.613   9.766   7.460  0.4596  0.0975  0.5370
  644MOL0     C86871   7.740   9.771   7.412  0.6205 -0.8372 -0.0693
  644MOL0     C86872   7.854   9.739   7.511  0.3411 -0.1829 -0.7980
  644MOL0     H86873   8.097   9.816   7.022 -2.8176 -2.0121  2.2270
  644MOL0     H86874   8.326   9.886   6.973 -0.4169 -0.6906 -0.9386
  644MOL0     H86875   8.630   9.977   6.998 -0.5172  0.6373 -1.0498
  644MOL0     H86876   8.464  10.031   6.963  1.0070 -0.6259 -1.1773
  644MOL0     H86877   8.646  10.156   7.167 -2.0843  0.4250  0.9406
  644MOL0     H86878   8.501  10.232   7.117  1.4993  3.3710  0.2922
  644MOL0     H86879   8.583  10.319   6.928  2.3694  1.3656 -1.5357
  644MOL0     H86880   8.676  10.166   6.891 -1.0491  0.2557 -1.5646
  644MOL0     H86881   8.744  10.366   7.120 -1.9682  1.3925 -0.2749
  644MOL0     H86882   8.855  10.248   7.043 -0.9156 -1.0115 -2.3111
  644MOL0     H86883   8.740  10.519   6.924 -2.7659 -1.2655 -3.2720
  644MOL0     H86884   8.891  10.486   7.003  0.3824  3.4800 -2.8025
  644MOL0     H86885   8.950  10.328   6.819  3.6576  2.1443 -1.7134
  644MOL0     H86886   8.791  10.362   6.749 -1.4921  1.4604  0.3161
  644MOL0     H86887   9.015  10.551   6.807 -2.9424  2.0140  1.5483
  644MOL0     H86888   8.864  10.596   6.709 -2.2838 -1.8933 -2.2597
  644MOL0     H86889   8.935  10.428   6.545  0.6575  0.6508 -1.2290
  644MOL0     H86890   9.060  10.560   6.554 -0.5233  0.0079 -0.4453
  644MOL0     H86891   9.243  10.467   6.788 -3.0759  1.1845  0.1726
  644MOL0     H86892   9.329  10.217   6.923 -1.3958 -0.8495 -0.1916
  644MOL0     H86893   9.412  10.115   6.792  3.9393  1.2792  1.5515
  644MOL0     H86894   9.503  10.386   6.884  3.0487  0.6955 -1.7483
  644MOL0     H86895   9.576  10.230   6.884  1.6046 -0.4741 -2.7889
  644MOL0     H86896   9.498  10.404   6.655 -2.2893 -0.3043  0.8632
  644MOL0     H86897   9.530  10.231   6.624  0.4866 -1.3390  2.6346
  644MOL0     H86898   9.723  10.443   6.618 -1.9947  1.2145  0.6004
  644MOL0     H86899   9.761  10.264   6.629 -0.5762 -1.5315  1.8616
  644MOL0     H86900   9.975  10.284   6.647 -0.1333  0.3249 -0.7715
  644MOL0     H86901  10.219  10.328   6.686 -0.9003 -1.0181  0.1302
  644MOL0     H86902  10.505  10.738   6.765  0.7288  1.6548  0.2535
  644MOL0     H86903  10.757  10.805   6.810  0.2623  0.8087 -1.0220
  644MOL0     H86904  10.937  10.582   7.080  0.2601 -1.5901 -0.4240
  644MOL0     H86905  11.056  10.525   6.982 -1.2986 -0.2821  0.5185
  644MOL0     H86906  11.063  10.811   7.087 -3.1815 -0.9167  0.5109
  644MOL0     H86907  11.133  10.666   7.150 -0.9914 -4.0825 -1.3376
  644MOL0     H86908  11.252  10.637   6.908 -3.2890 -2.4043  0.6010
  644MOL0     H86909  11.158  10.774   6.868 -1.7656 -0.2375  1.2597
  644MOL0     H86910  11.380  10.784   7.090 -2.6144 -3.4687  0.5859
  644MOL0     H86911  11.284  10.926   7.056 -2.0695  0.2662  0.9013
  644MOL0     H86912  11.400  10.912   6.821 -3.8577 -2.3956  0.8973
  644MOL0     H86913  11.469  10.761   6.870 -0.0813 -0.5936  1.1530
  644MOL0     H86914  11.607  10.982   6.882 -0.7093 -3.6801 -3.1387
  644MOL0     H86915  11.525  11.001   7.038  2.4211  2.1410 -0.1451
  644MOL0     H86916  11.635  10.734   7.057  1.7393  0.0901 -1.7135
  644MOL0     H86917  11.676  10.878   7.145 -0.5202 -2.1778  0.9671
  644MOL0     H86918  11.774  10.807   6.854  0.9776  0.7414  0.1302
  644MOL0     H86919  11.833  10.938   6.951  0.4963  0.3337 -1.8576
  644MOL0     H86920  10.837  10.389   6.916 -0.8167 -1.2524  0.6237
  644MOL0     H86921  10.624  10.334   6.875  1.6702  0.7064  1.0356
  644MOL0     H86922  10.109  10.493   7.070  0.7571  0.3722 -0.5829
  644MOL0     H86923   9.880  10.453   7.028  1.0830 -0.6243  2.5596
  644MOL0     H86924   8.418   9.925   7.388  1.6801 -0.7918 -2.0124
  644MOL0     H86925   8.180   9.850   7.447 -0.8478  0.6710  0.3989
  644MOL0     H86926   7.634   9.837   7.093  0.9755  2.8464 -0.3243
  644MOL0     H86927   7.417   9.854   7.200  0.9525  1.4127 -0.6540
  644MOL0     H86928   7.255   9.719   7.319 -0.8300  1.1705 -0.3452
  644MOL0     H86929   7.222   9.885   7.356  0.0987 -0.9661 -0.9649
  644MOL0     H86930   7.126   9.833   7.587 -2.2208  1.2414 -1.6346
  644MOL0     H86931   7.159   9.669   7.567  2.0912  0.6770  0.6777
  644MOL0     H86932   6.996   9.694   7.352 -1.0476  0.0163 -0.4707
  644MOL0     H86933   6.957   9.845   7.429 -0.8145 -0.4254 -0.6109
  644MOL0     H86934   6.924   9.557   7.559 -1.4199 -0.6913 -0.6952
  644MOL0     H86935   6.910   9.701   7.653 -1.3636 -0.8694  0.1946
  644MOL0     H86936   6.541   9.704   7.476  0.0842  1.4086 -1.4616
  644MOL0     H86937   7.592   9.736   7.562 -0.9241  0.5846  0.4197
  644MOL0     H86938   7.901   9.824   7.563 -2.0246  0.0019  1.1849
  644MOL0     H86939   7.810   9.686   7.595 -1.6395  3.0733  0.4350
  644MOL0     H86940   7.926   9.669   7.467  1.3350  0.4858 -0.2820
  645MOL0     O86941   0.753  11.395   5.319 -0.1337 -0.4418  0.3536
  645MOL0     C86942   0.864  11.452   5.311 -0.0704 -0.6712  0.3857
  645MOL0     O86943   0.942  11.480   5.194 -0.2106 -0.5052  0.2519
  645MOL0     C86944   0.889  11.467   5.068 -0.1010  0.9000 -0.8541
  645MOL0     C86945   0.752  11.479   5.041  0.7040  0.5718  1.1888
  645MOL0     C86946   0.701  11.450   4.911  0.0396 -0.0387  0.3066
  645MOL0     C86947   0.797  11.436   4.804  0.3845  0.5308  0.1418
  645MOL0     O86948   0.763  11.433   4.670  0.4262  0.4420 -0.3292
  645MOL0     C86949   0.630  11.433   4.628  0.5962 -0.1331  0.5959
  645MOL0     C86950   0.620  11.443   4.471  0.6149 -0.3087  0.1105
  645MOL0     C86951   0.713  11.553   4.427 -0.6414  0.3226  0.2942
  645MOL0     C86952   0.684  11.581   4.280  1.1046  0.9764 -0.5099
  645MOL0     C86953   0.788  11.652   4.205  0.3009 -0.6629 -0.4208
  645MOL0     C86954   0.781  11.795   4.275  0.4000 -0.2326  0.0345
  645MOL0     C86955   0.815  11.904   4.168 -0.1964  0.1146  0.3933
  645MOL0     C86956   0.764  12.045   4.203  0.5578  0.3162 -1.1004
  645MOL0     N86957   0.813  12.147   4.109 -0.1886 -0.1411  0.2217
  645MOL0     C86958   0.762  12.178   3.992  0.8951  0.0774 -0.1569
  645MOL0     C86959   0.835  12.271   3.941  1.8068 -0.7688 -0.0101
  645MOL0     C86960   0.816  12.336   3.804 -1.0816  0.8227  0.0816
  645MOL0     C86961   0.780  12.481   3.809  0.7135 -0.0237  0.5046
  645MOL0     C86962   0.743  12.524   3.665 -1.8371  0.9025 -0.8584
  645MOL0     C86963   0.729  12.679   3.650  0.3238  0.1259  1.6954
  645MOL0     O86964   0.704  12.712   3.514 -0.1584 -0.3384  0.4096
  645MOL0     C86965   0.668  12.840   3.484  1.2272 -0.0143 -0.3497
  645MOL0     C86966   0.661  12.841   3.344 -0.1352 -0.3501  0.3236
  645MOL0     C86967   0.633  12.963   3.282 -0.8494  0.1258  0.4869
  645MOL0     C86968   0.622  13.083   3.361  0.4644 -0.3994  0.1155
  645MOL0     C86969   0.599  13.215   3.309  0.4970 -0.0387  0.3517
  645MOL0     O86970   0.584  13.220   3.176 -0.6665  0.9001 -0.1742
  645MOL0     C86971   0.527  13.336   3.116 -0.4616 -0.4301  0.3013
  645MOL0     C86972   0.407  13.396   3.147  1.4258 -0.3386 -0.1715
  645MOL0     C86973   0.350  13.505   3.071 -0.4427 -0.1824 -0.5362
  645MOL0     C86974   0.433  13.568   2.977 -0.8465 -1.5971  0.2498
  645MOL0     O86975   0.382  13.674   2.897 -0.3410  1.1406  0.1299
  645MOL0     C86976   0.466  13.767   2.831 -0.5742  0.1230 -1.1909
  645MOL0     C86977   0.533  13.709   2.703 -0.0643  0.3790  1.2215
  645MOL0     C86978   0.461  13.783   2.586 -0.7215  0.8187  0.3479
  645MOL0     C86979   0.542  13.899   2.528 -0.4879 -0.0236 -1.0179
  645MOL0     C86980   0.472  13.976   2.422  0.5165  0.1354 -0.3457
  645MOL0     C86981   0.481  13.902   2.282 -0.4238 -0.9132  0.1910
  645MOL0     C86982   0.441  14.001   2.169  0.0328 -0.3323  0.2203
  645MOL0     C86983   0.437  13.928   2.037  0.5697 -0.5005 -0.0979
  645MOL0    Cl86984   0.296  13.805   2.025 -0.2565  0.4440  0.3071
  645MOL0     C86985   0.563  13.522   2.967 -0.1919  0.4150  0.5758
  645MOL0     C86986   0.606  13.403   3.027 -0.6432  0.1505 -0.5131
  645MOL0     O86987   0.583  13.309   3.383  0.4019 -0.1976 -0.0172
  645MOL0     C86988   0.625  13.072   3.502  0.0383  0.0342 -0.8124
  645MOL0     C86989   0.653  12.950   3.564  0.4739 -0.0534 -0.2230
  645MOL0     N86990   0.933  12.298   4.036 -0.7340  0.4665 -0.4136
  645MOL0     N86991   0.915  12.234   4.145 -0.2009 -0.0910 -0.2526
  645MOL0     C86992   0.930  11.424   4.838  1.3391 -0.8840  0.0067
  645MOL0     C86993   0.973  11.443   4.966 -1.0071  0.2361 -0.1369
  645MOL0     C86994   0.946  11.488   5.435  1.3655 -0.7454 -0.0729
  645MOL0     C86995   1.085  11.485   5.420 -0.4410 -0.1153  0.0064
  645MOL0     C86996   1.169  11.497   5.538 -0.1168  0.9928 -0.0855
  645MOL0     C86997   1.118  11.509   5.664  0.3552 -0.5333  0.9129
  645MOL0     O86998   1.206  11.508   5.769 -0.0225 -0.0161 -0.1385
  645MOL0     C86999   1.198  11.616   5.864 -0.0342  0.8277 -0.6796
  645MOL0     C87000   1.217  11.551   6.007 -0.5548  0.4739  0.2360
  645MOL0     C87001   1.184  11.644   6.116  0.0629 -0.2340  0.2557
  645MOL0     C87002   1.272  11.775   6.151 -0.1715 -0.6746 -0.5716
  645MOL0     C87003   1.199  11.862   6.243 -0.0661  0.2553  0.5730
  645MOL0     C87004   1.145  11.917   6.333  0.0972  1.8278  0.3266
  645MOL0     C87005   0.975  11.521   5.681 -0.3227  0.2126  0.6809
  645MOL0     C87006   0.887  11.512   5.562  1.3120 -0.6334 -0.5158
  645MOL0     C87007   0.734  11.506   5.590  0.2578  0.3170  0.3833
  645MOL0     H87008   0.674  11.511   5.110  1.5641  3.0397  1.1267
  645MOL0     H87009   0.594  11.446   4.898  0.2072 -0.2837 -1.0726
  645MOL0     H87010   0.581  11.339   4.656 -3.1846  0.4336 -3.0673
  645MOL0     H87011   0.571  11.516   4.668 -1.8601 -1.7364  0.5467
  645MOL0     H87012   0.520  11.475   4.442  2.3190  4.6757 -1.3369
  645MOL0     H87013   0.639  11.346   4.425 -3.1833 -0.4433 -1.5288
  645MOL0     H87014   0.813  11.511   4.439 -0.5577  0.3285 -0.3282
  645MOL0     H87015   0.703  11.645   4.485  2.0712  0.7175  0.2453
  645MOL0     H87016   0.668  11.481   4.237  0.4067  0.2601  1.3131
  645MOL0     H87017   0.587  11.631   4.278 -0.0215 -1.0855 -2.7653
  645MOL0     H87018   0.884  11.603   4.226 -1.1296 -2.0388  4.0627
  645MOL0     H87019   0.784  11.656   4.096 -0.2160 -0.8080 -0.4101
  645MOL0     H87020   0.685  11.829   4.316  0.5623 -1.3747  1.4472
  645MOL0     H87021   0.854  11.803   4.355  1.9097  1.2723 -1.4265
  645MOL0     H87022   0.770  11.876   4.073 -0.2274  0.7248  0.2249
  645MOL0     H87023   0.922  11.915   4.148 -0.5917 -0.0736 -2.1890
  645MOL0     H87024   0.655  12.041   4.216  0.5004 -1.5258 -1.7573
  645MOL0     H87025   0.804  12.063   4.303 -0.9525 -1.3610 -0.1115
  645MOL0     H87026   0.679  12.124   3.949 -1.4451  3.6080 -0.5171
  645MOL0     H87027   0.910  12.321   3.751 -0.7169  0.5476  0.7952
  645MOL0     H87028   0.735  12.281   3.755  0.0091  0.6532 -1.5925
  645MOL0     H87029   0.715  12.516   3.890 -1.4095  1.5166 -1.6894
  645MOL0     H87030   0.878  12.527   3.820  0.3992  1.5733 -2.3659
  645MOL0     H87031   0.640  12.494   3.644 -2.1265  2.4262 -1.7325
  645MOL0     H87032   0.827  12.493   3.602 -1.9460  1.7359 -1.4207
  645MOL0     H87033   0.823  12.729   3.680  1.9353  0.1157 -2.6217
  645MOL0     H87034   0.644  12.716   3.708 -2.2728  0.3767 -1.9746
  645MOL0     H87035   0.688  12.753   3.286 -2.6918 -0.9344 -0.1086
  645MOL0     H87036   0.639  12.962   3.173 -0.1306  1.0609  0.5050
  645MOL0     H87037   0.348  13.356   3.230 -0.3063  2.3348  0.0130
  645MOL0     H87038   0.251  13.540   3.099 -0.5985  0.4642 -1.8127
  645MOL0     H87039   0.403  13.855   2.816 -0.0422  0.6576 -0.3745
  645MOL0     H87040   0.541  13.794   2.905 -0.0670 -1.8712 -0.9140
  645MOL0     H87041   0.640  13.730   2.703  0.1361 -0.6029  1.7381
  645MOL0     H87042   0.525  13.600   2.695 -3.0034  0.6485 -2.7820
  645MOL0     H87043   0.463  13.713   2.502 -0.1433 -0.3420  1.2932
  645MOL0     H87044   0.360  13.815   2.612 -2.0055 -2.4889 -0.1551
  645MOL0     H87045   0.638  13.856   2.500 -1.0029 -1.3411 -0.8635
  645MOL0     H87046   0.554  13.964   2.615  0.4009  0.8494 -1.7701
  645MOL0     H87047   0.530  14.068   2.413  2.6167 -1.1017 -0.1209
  645MOL0     H87048   0.368  13.981   2.455  1.2123  1.3116  1.8453
  645MOL0     H87049   0.578  13.857   2.259 -0.7865  0.4281 -5.3170
  645MOL0     H87050   0.409  13.820   2.279 -0.9711 -0.3994 -2.3027
  645MOL0     H87051   0.517  14.079   2.159  0.3335 -0.6941 -0.3994
  645MOL0     H87052   0.343  14.042   2.195 -0.3287 -2.0266  1.7279
  645MOL0     H87053   0.424  13.986   1.946  1.5092 -1.2897 -0.7458
  645MOL0     H87054   0.536  13.883   2.027  1.0908  0.9970 -2.2017
  645MOL0     H87055   0.629  13.565   2.892  0.7954  0.1983  1.2994
  645MOL0     H87056   0.707  13.364   3.014  0.3579  2.4313 -0.0594
  645MOL0     H87057   0.625  13.164   3.560  1.2855 -1.3113  1.4665
  645MOL0     H87058   0.681  12.954   3.669  3.1796  3.4655 -0.9160
  645MOL0     H87059   0.991  11.400   4.752  1.7655 -0.4960  0.1950
  645MOL0     H87060   1.080  11.429   4.977 -0.2105 -0.8637 -5.9738
  645MOL0     H87061   1.146  11.476   5.331  2.0896  1.7863  1.4295
  645MOL0     H87062   1.276  11.485   5.532 -0.0667  0.6427  1.1276
  645MOL0     H87063   1.103  11.670   5.863 -2.3695 -2.9304 -1.9348
  645MOL0     H87064   1.278  11.687   5.840  3.2218 -1.9975  0.8831
  645MOL0     H87065   1.320  11.517   6.022 -1.4069 -2.7638 -0.3707
  645MOL0     H87066   1.155  11.462   6.017  2.0715 -1.3534  1.5326
  645MOL0     H87067   1.191  11.576   6.201 -0.2253 -1.4632 -0.6610
  645MOL0     H87068   1.083  11.683   6.107  1.3607  3.3585 -0.4039
  645MOL0     H87069   1.366  11.738   6.193  0.7410  1.4965 -0.5835
  645MOL0     H87070   1.289  11.823   6.054 -0.2974 -2.4763 -1.5231
  645MOL0     H87071   1.078  11.962   6.404  0.4000 -2.5369  3.7826
  645MOL0     H87072   0.931  11.527   5.780  0.3257 -2.7542  1.2506
  645MOL0     H87073   0.703  11.411   5.635 -2.6773  0.9898 -0.0207
  645MOL0     H87074   0.692  11.573   5.664  1.9956  2.3887 -0.3867
  645MOL0     H87075   0.676  11.516   5.498  1.4502 -1.4488 -0.6264
  646MOL0     O87076   3.585   2.404   0.816  0.6680  0.2772 -0.0631
  646MOL0     C87077   3.559   2.335   0.718  0.4365  0.3720 -0.1073
  646MOL0     O87078   3.647   2.314   0.611 -0.2128  0.3611 -0.5150
  646MOL0     C87079   3.726   2.421   0.578 -0.6465  0.1616 -0.9289
  646MOL0     C87080   3.704   2.470   0.454  0.1571 -0.2457  0.2303
  646MOL0     C87081   3.779   2.571   0.414 -0.6204 -0.5383  0.6135
  646MOL0     C87082   3.896   2.623   0.483  0.0901 -0.3622  0.0632
  646MOL0     O87083   3.982   2.714   0.418  0.2182  0.7087 -0.3583
  646MOL0     C87084   4.126   2.706   0.441  0.1740  0.0364 -0.7469
  646MOL0     C87085   4.187   2.604   0.336  0.5713  0.2569  0.2583
  646MOL0     C87086   4.332   2.638   0.299 -0.5862  0.6244 -0.2448
  646MOL0     C87087   4.421   2.581   0.408  0.2545 -0.5521  0.6225
  646MOL0     C87088   4.561   2.641   0.386 -0.1052  0.5334 -0.1949
  646MOL0     C87089   4.631   2.558   0.275  1.1033  0.7799  0.5696
  646MOL0     C87090   4.718   2.663   0.207  0.2467 -0.5755  0.2246
  646MOL0     C87091   4.817   2.607   0.100 -0.3403  0.4312  0.6890
  646MOL0     N87092   4.924   2.509   0.132 -0.0078  0.2496  0.1207
  646MOL0     C87093   4.995   2.430   0.046 -0.3237  0.2186 -0.2408
  646MOL0     C87094   5.102   2.381   0.115 -0.1131  0.2059 -0.5045
  646MOL0     C87095   5.215   2.290   0.059  0.3824 -0.8690  0.0438
  646MOL0     C87096   5.297   2.226   0.171 -0.2039  0.7036  0.9326
  646MOL0     C87097   5.210   2.139   0.261 -1.0298  0.8571  0.4297
  646MOL0     C87098   5.122   2.030   0.203  0.6209 -0.5146 -0.6186
  646MOL0     O87099   5.073   1.946   0.313  0.0126 -0.8347  0.6749
  646MOL0     C87100   4.961   1.876   0.278 -0.3329  0.0424  0.7772
  646MOL0     C87101   4.878   1.839   0.380 -0.3746 -0.3946  0.1947
  646MOL0     C87102   4.774   1.749   0.355 -0.5115  0.3725  0.1688
  646MOL0     C87103   4.753   1.688   0.229  0.2764  0.3725 -0.4583
  646MOL0     C87104   4.643   1.595   0.198 -0.1802  0.0006 -0.5937
  646MOL0     O87105   4.651   1.522   0.085 -0.5472 -0.4076  0.9481
  646MOL0     C87106   4.549   1.440   0.042 -0.5595  0.3706 -0.3790
  646MOL0     C87107   4.570   1.306   0.043  0.7969  0.8353  0.2469
  646MOL0     C87108   4.461   1.217   0.019 -0.7201 -0.7118 -0.2577
  646MOL0     C87109   4.339   1.261  -0.018 -0.5754 -0.0337  0.2233
  646MOL0     O87110   4.264   1.152  -0.060 -0.1770 -0.1466 -0.2246
  646MOL0     C87111   4.121   1.174  -0.048 -0.3524  0.0365 -0.8665
  646MOL0     C87112   4.073   1.183   0.103 -0.4096 -0.3585  0.1004
  646MOL0     C87113   4.136   1.068   0.190  0.0691  0.2479 -0.4638
  646MOL0     C87114   4.032   1.010   0.292 -0.1793  0.1632 -0.0081
  646MOL0     C87115   4.106   0.906   0.386  0.5378  0.4874 -0.8915
  646MOL0     C87116   4.001   0.834   0.473 -0.3161  1.0025 -0.5514
  646MOL0     C87117   4.058   0.738   0.585 -0.7674  0.7243  0.1234
  646MOL0     C87118   4.185   0.777   0.666 -0.4426 -0.5933  0.0239
  646MOL0    Cl87119   4.142   0.898   0.793  0.4285 -0.1379 -0.2745
  646MOL0     C87120   4.322   1.400  -0.031  1.4313  0.6471  0.6609
  646MOL0     C87121   4.425   1.491  -0.001  0.7854  0.1150  0.1639
  646MOL0     O87122   4.542   1.606   0.276  0.2598 -0.1238  0.3905
  646MOL0     C87123   4.842   1.726   0.124  0.1984 -0.6553  0.7485
  646MOL0     C87124   4.942   1.818   0.153  1.0312 -0.8652  0.1350
  646MOL0     N87125   5.080   2.434   0.238 -0.0403 -0.0320 -0.1435
  646MOL0     N87126   4.976   2.502   0.248 -0.4976  0.3955  0.5448
  646MOL0     C87127   3.920   2.566   0.613  0.0986  0.2629  0.3617
  646MOL0     C87128   3.839   2.466   0.660  0.6917  0.8632 -0.4299
  646MOL0     C87129   3.433   2.243   0.719  0.4754 -0.4497 -0.9151
  646MOL0     C87130   3.411   2.163   0.608 -0.5164 -0.7370 -1.2120
  646MOL0     C87131   3.296   2.091   0.592  0.3457 -1.0456  0.5697
  646MOL0     C87132   3.195   2.092   0.684 -0.7953  0.4147 -0.1585
  646MOL0     O87133   3.074   2.037   0.648 -0.6463  0.5100 -0.2966
  646MOL0     C87134   2.957   2.089   0.719  0.4956  0.4652  1.0293
  646MOL0     C87135   2.917   2.225   0.656  0.4621  0.3688 -0.1661
  646MOL0     C87136   2.907   2.222   0.504 -0.3767  0.5180 -0.2227
  646MOL0     C87137   2.825   2.098   0.462 -1.1392  0.8160  0.1409
  646MOL0     C87138   2.803   2.116   0.315  0.2348  0.5108 -0.7396
  646MOL0     C87139   2.786   2.123   0.194  0.4854 -0.3866 -0.0937
  646MOL0     C87140   3.224   2.156   0.808 -0.0805  0.0835  0.3606
  646MOL0     C87141   3.347   2.226   0.829 -0.8534  0.2226  0.8564
  646MOL0     C87142   3.365   2.281   0.972  0.2962 -0.5143  0.2878
  646MOL0     H87143   3.615   2.440   0.398  0.1675  1.3424 -0.7231
  646MOL0     H87144   3.763   2.593   0.309 -0.3382  0.6343  0.8106
  646MOL0     H87145   4.171   2.802   0.414  0.3623 -0.6507 -3.1003
  646MOL0     H87146   4.156   2.664   0.537 -1.9351  0.1958  0.0480
  646MOL0     H87147   4.137   2.616   0.240  1.3998 -1.2345 -0.4002
  646MOL0     H87148   4.176   2.499   0.364 -0.5530  0.1890 -0.4072
  646MOL0     H87149   4.351   2.746   0.293 -0.9045  0.8202  1.5528
  646MOL0     H87150   4.356   2.599   0.200  0.2851 -0.5206  0.3952
  646MOL0     H87151   4.386   2.611   0.507  0.0195  1.1000  0.0593
  646MOL0     H87152   4.404   2.473   0.410  0.1557 -0.5302  1.3205
  646MOL0     H87153   4.558   2.747   0.359  0.9875  0.6007 -0.0691
  646MOL0     H87154   4.619   2.630   0.477  1.2103 -1.7952 -1.2284
  646MOL0     H87155   4.680   2.473   0.323  1.3645 -0.1603 -1.2565
  646MOL0     H87156   4.568   2.514   0.198  1.7907 -2.2790  1.6146
  646MOL0     H87157   4.790   2.716   0.271 -0.0889  3.2311 -2.2569
  646MOL0     H87158   4.649   2.731   0.156 -2.1564 -2.0726  1.2925
  646MOL0     H87159   4.757   2.543   0.034  0.5373 -2.1524  2.2547
  646MOL0     H87160   4.857   2.696   0.050  2.6976 -0.2871  1.6830
  646MOL0     H87161   4.978   2.431  -0.061 -2.0075  1.5673 -0.0057
  646MOL0     H87162   5.181   2.206  -0.002 -0.7289 -0.1860 -0.3037
  646MOL0     H87163   5.273   2.363   0.003 -3.3973  2.4673  0.0052
  646MOL0     H87164   5.363   2.154   0.123 -2.6267 -1.4211  0.5646
  646MOL0     H87165   5.358   2.299   0.224  1.3675  0.3737 -0.3819
  646MOL0     H87166   5.146   2.195   0.330 -1.2889 -0.9653  1.7439
  646MOL0     H87167   5.282   2.083   0.322 -0.4905  0.9778 -0.0889
  646MOL0     H87168   5.182   1.975   0.130  3.1598  0.9496  0.2413
  646MOL0     H87169   5.037   2.081   0.157  0.8375  1.3087  0.8935
  646MOL0     H87170   4.895   1.876   0.480 -2.3501 -1.3415  0.9449
  646MOL0     H87171   4.705   1.733   0.438 -0.1103  1.9623  0.8443
  646MOL0     H87172   4.666   1.261   0.066  1.1805  1.0860 -0.8270
  646MOL0     H87173   4.488   1.113   0.009  1.1325 -0.2696 -0.2479
  646MOL0     H87174   4.067   1.247  -0.109 -1.0736 -1.4613 -2.0551
  646MOL0     H87175   4.084   1.083  -0.095  1.4577 -0.8443 -0.6632
  646MOL0     H87176   4.091   1.283   0.143 -0.6839 -1.8060  4.3558
  646MOL0     H87177   3.963   1.181   0.097 -0.5201 -0.7939  1.6584
  646MOL0     H87178   4.161   0.985   0.123 -2.2004 -0.6192 -0.3404
  646MOL0     H87179   4.225   1.108   0.238 -0.7582  0.2272  1.1449
  646MOL0     H87180   3.951   0.960   0.237 -1.6066  1.4417  0.8541
  646MOL0     H87181   3.978   1.088   0.346  0.9767  0.1445  1.2241
  646MOL0     H87182   4.172   0.960   0.454  0.5885 -0.4489 -0.1737
  646MOL0     H87183   4.176   0.835   0.342  0.3079 -0.6017  0.4434
  646MOL0     H87184   3.917   0.896   0.506  0.0733  0.2097  2.1993
  646MOL0     H87185   3.957   0.758   0.408 -0.5550  0.6904 -0.0315
  646MOL0     H87186   4.076   0.642   0.536 -0.4288  0.4555  0.7632
  646MOL0     H87187   3.969   0.726   0.647 -1.5321  0.9012 -0.9011
  646MOL0     H87188   4.220   0.684   0.712 -1.1728 -0.3951  1.0247
  646MOL0     H87189   4.271   0.819   0.614  0.4652 -0.9361  1.2098
  646MOL0     H87190   4.223   1.431  -0.062  1.9700 -0.2069 -2.2177
  646MOL0     H87191   4.414   1.599  -0.006 -2.3444 -0.1655 -2.9197
  646MOL0     H87192   4.839   1.699   0.019  1.6365 -1.5687  0.9123
  646MOL0     H87193   5.004   1.853   0.072 -0.7081 -0.7280 -1.1833
  646MOL0     H87194   3.998   2.597   0.681  0.0580  1.9161 -0.2957
  646MOL0     H87195   3.849   2.434   0.763  0.0190 -0.5567 -0.7776
  646MOL0     H87196   3.490   2.158   0.533  2.3709 -0.6142  1.6029
  646MOL0     H87197   3.260   2.056   0.496  0.0228 -2.1860  1.0805
  646MOL0     H87198   2.957   2.091   0.828  2.3797 -0.3131  1.0762
  646MOL0     H87199   2.872   2.026   0.692 -2.7992  4.6647  0.5614
  646MOL0     H87200   2.990   2.299   0.690 -0.2185  1.7805 -1.6265
  646MOL0     H87201   2.815   2.250   0.687 -0.7387 -3.0370 -0.9684
  646MOL0     H87202   3.009   2.221   0.464 -0.9822  0.6847 -1.8446
  646MOL0     H87203   2.862   2.310   0.457  1.4341  1.2343 -0.7035
  646MOL0     H87204   2.879   2.004   0.471 -2.4543  0.0869  0.8080
  646MOL0     H87205   2.735   2.094   0.524  1.1199 -3.5624  3.7290
  646MOL0     H87206   2.762   2.134   0.091 -0.7294  1.5566  0.3439
  646MOL0     H87207   3.158   2.167   0.893  0.3396  0.1863  0.6807
  646MOL0     H87208   3.314   2.378   0.975 -3.9166 -2.3755 -2.1147
  646MOL0     H87209   3.303   2.222   1.040 -1.3688  2.8566  1.9149
  646MOL0     H87210   3.468   2.289   1.007  0.1722 -0.7998  0.7308
  647MOL0     O87211   7.538   9.625   9.890  1.1578 -0.5556  0.0975
  647MOL0     C87212   7.604   9.528   9.881  0.8257  0.8590 -0.1740
  647MOL0     O87213   7.730   9.522   9.909 -0.6311 -0.0374  0.0554
  647MOL0     C87214   7.807   9.636   9.923  0.6790  0.3121 -0.0882
  647MOL0     C87215   7.840   9.716   9.815  0.4837  0.6330 -0.0217
  647MOL0     C87216   7.918   9.827   9.838 -0.0229  0.1877 -1.1797
  647MOL0     C87217   7.962   9.856   9.963  0.3070 -0.3273 -0.8188
  647MOL0     O87218   8.034   9.972   9.977  0.0614 -0.9262 -1.5297
  647MOL0     C87219   8.104   9.993  10.105  0.0452 -0.3328  0.2001
  647MOL0     C87220   8.203  10.109  10.075 -0.5946  0.1847 -0.1900
  647MOL0     C87221   8.303  10.141  10.186 -1.1602 -0.3669  0.0492
  647MOL0     C87222   8.238  10.121  10.327 -0.6152  0.3096 -0.5496
  647MOL0     C87223   8.337  10.181  10.431 -0.3502  0.6443  0.1992
  647MOL0     C87224   8.315  10.335  10.451 -0.1762 -0.7341 -0.0452
  647MOL0     C87225   8.373  10.381  10.581 -0.6189 -0.0598 -0.5171
  647MOL0     C87226   8.524  10.357  10.591 -0.1838  0.0081  0.2900
  647MOL0     N87227   8.591  10.434  10.474  0.3578  0.4250  0.0075
  647MOL0     C87228   8.631  10.380  10.350 -0.3030 -0.0600 -0.7677
  647MOL0     C87229   8.683  10.483  10.283  0.4553  0.5914 -0.4230
  647MOL0     C87230   8.716  10.479  10.142  0.4680  0.3982 -0.2089
  647MOL0     C87231   8.866  10.458  10.131  0.2067 -0.9941  0.6664
  647MOL0     C87232   8.939  10.598  10.160 -0.0947  0.3118  0.5912
  647MOL0     C87233   9.087  10.588  10.126 -0.4721 -0.1389  0.5627
  647MOL0     O87234   9.149  10.718  10.125  0.4400  0.5811 -0.8515
  647MOL0     C87235   9.268  10.725  10.062 -0.6432  0.2091 -0.6799
  647MOL0     C87236   9.352  10.618  10.059 -0.0387  0.2018  0.1709
  647MOL0     C87237   9.472  10.625   9.986  0.3192 -0.0052 -0.3002
  647MOL0     C87238   9.507  10.744   9.924  0.8021 -0.6082 -0.2727
  647MOL0     C87239   9.636  10.745   9.851 -0.0291  0.2591  0.7715
  647MOL0     O87240   9.691  10.870   9.846  0.7212 -0.0236  0.1175
  647MOL0     C87241   9.798  10.896   9.760 -0.0726 -0.2626  0.6458
  647MOL0     C87242   9.764  10.925   9.637 -0.3112 -0.7353 -0.4328
  647MOL0     C87243   9.858  10.971   9.543 -0.3267 -0.0957 -1.1259
  647MOL0     C87244   9.991  10.966   9.586 -0.5359  0.0718  0.9883
  647MOL0     O87245  10.088  11.008   9.502 -0.1942 -0.8219  0.4187
  647MOL0     C87246  10.087  10.967   9.364  0.2029  0.4652 -0.8197
  647MOL0     C87247  10.132  10.819   9.347  0.1386  0.1695  0.5635
  647MOL0     C87248  10.247  10.785   9.433 -0.4793  0.4901 -0.2698
  647MOL0     C87249  10.376  10.863   9.406 -0.4580 -0.1913  0.2065
  647MOL0     C87250  10.429  10.815   9.268  0.6233  0.0654 -0.8584
  647MOL0     C87251  10.574  10.865   9.247 -0.1144 -0.4892 -0.0746
  647MOL0     C87252  10.650  10.794   9.143  0.1739 -0.4393  0.7145
  647MOL0     C87253  10.735  10.889   9.058 -0.0881 -0.8163 -0.8043
  647MOL0    Cl87254  10.837  11.013   9.158 -0.2964 -0.4334  0.6508
  647MOL0     C87255  10.024  10.918   9.715 -0.5921  0.2558 -0.1815
  647MOL0     C87256   9.926  10.884   9.805 -0.3710 -0.9678 -1.1436
  647MOL0     O87257   9.687  10.641   9.806 -0.4163 -0.5886 -0.0045
  647MOL0     C87258   9.426  10.855   9.936 -0.5014 -0.8755 -0.7485
  647MOL0     C87259   9.304  10.854  10.016 -0.2467  0.1460  0.0388
  647MOL0     N87260   8.686  10.590  10.368  0.0545  0.3488  0.7113
  647MOL0     N87261   8.622  10.565  10.474 -0.1693 -1.1596 -0.7876
  647MOL0     C87262   7.920   9.781  10.070 -0.4768 -0.3429 -1.0073
  647MOL0     C87263   7.847   9.669  10.052 -0.2439 -0.6568 -0.1403
  647MOL0     C87264   7.544   9.414   9.818 -0.1791  0.4045  0.0851
  647MOL0     C87265   7.561   9.399   9.674  0.3987 -0.1886  0.4266
  647MOL0     C87266   7.519   9.288   9.615 -0.3148 -0.2066  0.1114
  647MOL0     C87267   7.444   9.198   9.681  0.0255  0.5769 -1.1067
  647MOL0     O87268   7.388   9.110   9.596  0.2425 -0.1494 -0.7500
  647MOL0     C87269   7.307   9.003   9.652  0.1812  0.4388  0.3663
  647MOL0     C87270   7.237   8.924   9.536  0.5342 -0.8121  0.0592
  647MOL0     C87271   7.329   8.824   9.481 -0.3341 -0.7152  0.1965
  647MOL0     C87272   7.299   8.684   9.531  0.1541  0.2634  0.1020
  647MOL0     C87273   7.397   8.588   9.477  0.9336  0.4216 -0.1578
  647MOL0     C87274   7.471   8.495   9.443  0.0803 -0.4097 -0.0625
  647MOL0     C87275   7.433   9.200   9.820 -0.5990 -0.2494  0.4003
  647MOL0     C87276   7.474   9.316   9.890  0.2347  0.5392 -0.7034
  647MOL0     C87277   7.456   9.333  10.039  0.4605 -1.0565  0.1477
  647MOL0     H87278   7.792   9.683   9.723  0.8521  0.4093 -0.1359
  647MOL0     H87279   7.937   9.892   9.753  3.1258 -0.5459 -1.1549
  647MOL0     H87280   8.038  10.035  10.182 -0.5469 -0.5601 -0.1801
  647MOL0     H87281   8.169   9.908  10.128  3.8121  1.8942 -1.2012
  647MOL0     H87282   8.151  10.203  10.054 -3.0680 -0.0403  3.7716
  647MOL0     H87283   8.259  10.083   9.985 -1.7345 -2.7058 -0.1827
  647MOL0     H87284   8.348  10.240  10.179  1.5141 -1.3941  1.2253
  647MOL0     H87285   8.388  10.074  10.174 -0.0990  1.0866 -0.8689
  647MOL0     H87286   8.141  10.172  10.326 -0.3283  0.9083 -2.3176
  647MOL0     H87287   8.215  10.015  10.341 -1.3878  0.3607 -1.2779
  647MOL0     H87288   8.311  10.140  10.529  2.0953 -1.2314  0.1669
  647MOL0     H87289   8.442  10.157  10.412 -0.4354 -0.1160  0.6605
  647MOL0     H87290   8.346  10.402  10.370  0.2258  0.9101  1.3954
  647MOL0     H87291   8.209  10.361  10.449  0.8794  4.8023  0.3208
  647MOL0     H87292   8.323  10.333  10.666  0.9417 -0.0796  0.4374
  647MOL0     H87293   8.355  10.487  10.597  1.9943  0.5228 -0.9183
  647MOL0     H87294   8.564  10.402  10.682  1.6748  1.3124 -1.0919
  647MOL0     H87295   8.536  10.248  10.590 -0.6564 -0.1947  4.0948
  647MOL0     H87296   8.626  10.277  10.316  0.2867 -0.7221  1.0157
  647MOL0     H87297   8.665  10.402  10.084  0.9189  1.6369 -2.3528
  647MOL0     H87298   8.679  10.572  10.098 -0.9230 -0.1547 -0.2404
  647MOL0     H87299   8.897  10.385  10.206 -0.5429 -0.0091  1.9879
  647MOL0     H87300   8.895  10.423  10.031 -1.5870  1.9970 -1.0734
  647MOL0     H87301   8.927  10.618  10.267 -1.1454  0.9803  0.3612
  647MOL0     H87302   8.890  10.670  10.094 -0.0595 -0.3977 -0.2324
  647MOL0     H87303   9.092  10.543  10.026 -0.2321 -0.6601  0.8045
  647MOL0     H87304   9.129  10.518  10.198 -0.0303  3.4861  4.1290
  647MOL0     H87305   9.326  10.524  10.105  4.2881  0.1793  3.1564
  647MOL0     H87306   9.534  10.537   9.974  0.3837 -0.0405  0.2715
  647MOL0     H87307   9.662  10.914   9.602 -0.6426 -1.7297  0.7942
  647MOL0     H87308   9.818  11.014   9.452 -0.3682  1.3787 -0.4394
  647MOL0     H87309   9.986  10.969   9.322 -0.0221 -0.5865 -0.3589
  647MOL0     H87310  10.150  11.039   9.312  0.1340  1.7050  0.7476
  647MOL0     H87311  10.053  10.750   9.380  0.2983 -0.9010 -1.1950
  647MOL0     H87312  10.164  10.800   9.244  0.7922 -0.0998  0.8147
  647MOL0     H87313  10.217  10.798   9.538  3.4923  2.6185  0.8265
  647MOL0     H87314  10.281  10.682   9.416  0.0021  0.4208  0.9979
  647MOL0     H87315  10.454  10.854   9.482  0.4625 -1.1327 -0.8123
  647MOL0     H87316  10.354  10.970   9.400  2.1672  0.6487  3.2171
  647MOL0     H87317  10.362  10.846   9.187 -2.2122  1.5976  1.8391
  647MOL0     H87318  10.435  10.706   9.256 -2.1775 -0.1104 -1.3316
  647MOL0     H87319  10.564  10.968   9.212 -2.3784 -0.5286  0.2584
  647MOL0     H87320  10.629  10.862   9.342 -1.0401 -1.6833  0.4569
  647MOL0     H87321  10.576  10.754   9.072 -2.7858  2.7169  1.7047
  647MOL0     H87322  10.710  10.714   9.184  1.2602 -0.7540 -1.3416
  647MOL0     H87323  10.806  10.841   8.991  2.7048  3.1962 -1.0779
  647MOL0     H87324  10.683  10.953   8.987 -0.2979  1.1453  1.0151
  647MOL0     H87325  10.128  10.918   9.748 -1.0964 -2.0243  1.6972
  647MOL0     H87326   9.954  10.853   9.906 -0.6892 -0.1122 -0.7916
  647MOL0     H87327   9.460  10.951   9.899 -1.9872  0.5243  1.3076
  647MOL0     H87328   9.243  10.942  10.033 -1.7637 -0.8964  0.2219
  647MOL0     H87329   7.945   9.815  10.170 -3.9125 -1.6106  0.4100
  647MOL0     H87330   7.814   9.620  10.143 -0.7896 -0.3927 -0.1888
  647MOL0     H87331   7.609   9.479   9.618 -0.6065  1.6313  1.9969
  647MOL0     H87332   7.537   9.277   9.508  0.0452 -3.6546  0.4033
  647MOL0     H87333   7.231   9.060   9.706  1.0467  2.4821 -0.4766
  647MOL0     H87334   7.355   8.931   9.720 -1.2726 -1.7669 -0.8286
  647MOL0     H87335   7.205   8.990   9.455 -1.8088 -3.0463 -0.9566
  647MOL0     H87336   7.147   8.876   9.574 -2.8409  1.9691 -3.5837
  647MOL0     H87337   7.431   8.863   9.495 -1.2661  0.9919  3.1200
  647MOL0     H87338   7.309   8.825   9.374 -0.0232  2.6545  0.0552
  647MOL0     H87339   7.329   8.696   9.636 -1.1550 -0.4727  0.5907
  647MOL0     H87340   7.197   8.645   9.524  0.6138 -0.7317 -1.4700
  647MOL0     H87341   7.540   8.420   9.411 -0.4428 -0.9431  0.0610
  647MOL0     H87342   7.371   9.117   9.852  0.6349 -1.5772 -0.5130
  647MOL0     H87343   7.400   9.426  10.053  2.4291  0.1904  0.1469
  647MOL0     H87344   7.395   9.260  10.093 -1.6184 -1.0134 -1.9718
  647MOL0     H87345   7.556   9.347  10.081 -0.1294  2.0466  0.7443
  648MOL0     O87346   7.417   4.820   7.399  0.0128  0.2639 -0.1928
  648MOL0     C87347   7.472   4.858   7.295 -0.7753  0.5787 -0.2388
  648MOL0     O87348   7.585   4.800   7.251 -0.1804 -1.1209  1.6467
  648MOL0     C87349   7.662   4.728   7.330  1.2953  0.0440  0.5043
  648MOL0     C87350   7.717   4.609   7.274  0.2413 -0.1968 -0.1417
  648MOL0     C87351   7.795   4.531   7.356 -0.7759  0.0397  0.4185
  648MOL0     C87352   7.834   4.573   7.484  0.5966  0.0693 -0.3981
  648MOL0     O87353   7.932   4.510   7.559  0.0150 -0.2754  0.1938
  648MOL0     C87354   7.911   4.363   7.577  0.3062 -0.2963  0.7063
  648MOL0     C87355   7.997   4.302   7.682 -0.8309  0.4164  0.0855
  648MOL0     C87356   8.151   4.318   7.657 -0.2984  0.1236 -0.3574
  648MOL0     C87357   8.224   4.196   7.709 -0.6481 -0.6694  0.0307
  648MOL0     C87358   8.375   4.206   7.679 -0.4383 -0.5269  0.3956
  648MOL0     C87359   8.442   4.069   7.705  1.4105  0.4440 -0.1596
  648MOL0     C87360   8.409   3.960   7.603  0.4450 -0.2669 -0.1065
  648MOL0     C87361   8.473   3.833   7.651  0.5916 -0.2759 -0.6034
  648MOL0     N87362   8.427   3.719   7.577 -0.0686 -0.3520  0.0081
  648MOL0     C87363   8.474   3.699   7.448  0.0197 -0.1866 -0.0890
  648MOL0     C87364   8.423   3.581   7.403 -0.0381  0.3662 -0.2551
  648MOL0     C87365   8.442   3.515   7.268  0.6091  0.3148 -0.1062
  648MOL0     C87366   8.302   3.503   7.200 -0.8875 -0.4071 -0.9118
  648MOL0     C87367   8.320   3.493   7.052 -1.1272  0.1898 -0.6987
  648MOL0     C87368   8.191   3.447   6.992  0.0406 -0.0519 -0.8515
  648MOL0     O87369   8.214   3.404   6.859 -0.1831  0.0354  0.6991
  648MOL0     C87370   8.115   3.426   6.769 -0.3568  0.0370 -0.0685
  648MOL0     C87371   7.983   3.451   6.797 -0.1461 -0.1213 -0.6348
  648MOL0     C87372   7.882   3.467   6.695  0.7627  1.4297 -0.1278
  648MOL0     C87373   7.917   3.454   6.555  0.2794 -0.9197 -0.1550
  648MOL0     C87374   7.808   3.447   6.464  0.2480 -0.9207 -0.7887
  648MOL0     O87375   7.832   3.494   6.332 -0.3128  0.5175 -0.3948
  648MOL0     C87376   7.722   3.511   6.250 -0.6819 -0.1676 -0.1785
  648MOL0     C87377   7.694   3.434   6.142 -0.1323 -0.5314 -0.6107
  648MOL0     C87378   7.574   3.469   6.067  0.1218 -0.4152 -0.2492
  648MOL0     C87379   7.488   3.568   6.115  0.3408  0.1470  0.2601
  648MOL0     O87380   7.377   3.595   6.042  0.6137  0.3813 -0.1145
  648MOL0     C87381   7.260   3.645   6.099  1.2581 -0.1772 -1.0494
  648MOL0     C87382   7.140   3.561   6.075 -0.2937  0.0141  0.2164
  648MOL0     C87383   7.008   3.617   6.133  0.4022 -0.0237 -0.1764
  648MOL0     C87384   6.892   3.515   6.110  0.5943  0.4015  0.0169
  648MOL0     C87385   6.754   3.578   6.124  0.7607 -0.3179 -1.3226
  648MOL0     C87386   6.650   3.463   6.101  0.2751 -0.0097 -1.0939
  648MOL0     C87387   6.524   3.540   6.049  0.7832 -0.0298 -0.0006
  648MOL0     C87388   6.417   3.442   6.036  0.9767 -0.0880  1.0219
  648MOL0    Cl87389   6.360   3.364   6.190  0.3905  0.5706 -0.0923
  648MOL0     C87390   7.517   3.642   6.228 -0.4980  0.8151  0.0901
  648MOL0     C87391   7.638   3.618   6.291  0.1197 -0.1856 -0.1056
  648MOL0     O87392   7.695   3.412   6.510 -0.3824 -0.4018  0.2233
  648MOL0     C87393   8.049   3.433   6.532  0.5302 -0.1123  0.0977
  648MOL0     C87394   8.149   3.418   6.631  0.1818 -0.2382  0.1293
  648MOL0     N87395   8.355   3.532   7.514 -0.6489 -0.1514 -0.5814
  648MOL0     N87396   8.366   3.605   7.615 -0.2915  0.2174  0.9252
  648MOL0     C87397   7.780   4.687   7.535 -1.2937  0.8633  0.2914
  648MOL0     C87398   7.694   4.762   7.459  0.4537 -0.3704  1.6874
  648MOL0     C87399   7.415   4.974   7.224 -0.8355 -0.2648  0.0056
  648MOL0     C87400   7.448   4.983   7.093  0.0640 -0.5945 -0.0174
  648MOL0     C87401   7.406   5.095   7.019  0.2946  0.4466  0.3520
  648MOL0     C87402   7.325   5.200   7.067  0.6213  0.0228 -0.8228
  648MOL0     O87403   7.286   5.316   7.003  0.1471  0.2850 -0.6086
  648MOL0     C87404   7.383   5.356   6.912 -0.2729 -0.5253 -0.1766
  648MOL0     C87405   7.352   5.488   6.858 -0.3618  0.0970 -0.5457
  648MOL0     C87406   7.385   5.605   6.946  0.3163 -0.3135 -0.5011
  648MOL0     C87407   7.525   5.615   7.001  0.4029 -0.4023 -0.1565
  648MOL0     C87408   7.639   5.613   6.902  0.2159 -0.0551  0.2666
  648MOL0     C87409   7.720   5.602   6.812 -0.7878  1.0603  0.0989
  648MOL0     C87410   7.288   5.182   7.201  0.4021  0.3005 -0.9084
  648MOL0     C87411   7.329   5.073   7.281  0.7662 -0.3174 -0.4100
  648MOL0     C87412   7.271   5.069   7.415 -0.5950  0.0340 -0.7515
  648MOL0     H87413   7.707   4.588   7.168  0.6336  0.2958 -0.2772
  648MOL0     H87414   7.855   4.449   7.318 -1.1578 -1.0681  2.0796
  648MOL0     H87415   7.809   4.352   7.613 -0.5875  3.7189 -0.1452
  648MOL0     H87416   7.933   4.311   7.483 -2.3421 -0.3943  0.0615
  648MOL0     H87417   7.973   4.197   7.700  0.4049  0.4911  2.6910
  648MOL0     H87418   7.968   4.358   7.772 -2.8617 -0.4832  0.0584
  648MOL0     H87419   8.197   4.404   7.705 -0.2854  0.7225 -1.4188
  648MOL0     H87420   8.162   4.323   7.548 -1.8535 -1.4151 -0.6394
  648MOL0     H87421   8.221   4.181   7.817  1.9314 -2.3915 -0.0323
  648MOL0     H87422   8.184   4.104   7.665  1.3504 -1.7684  0.3747
  648MOL0     H87423   8.395   4.252   7.582  0.7612 -0.7958  0.4879
  648MOL0     H87424   8.407   4.276   7.757 -2.5374 -0.6252  1.4118
  648MOL0     H87425   8.550   4.080   7.713  1.2629  0.8611  1.4320
  648MOL0     H87426   8.418   4.027   7.803  1.1126 -1.2750 -0.9180
  648MOL0     H87427   8.448   3.992   7.506  1.5178  1.6257  0.8818
  648MOL0     H87428   8.301   3.941   7.596  0.2438  0.1201  1.4744
  648MOL0     H87429   8.578   3.844   7.681 -0.2653  3.2068  1.8071
  648MOL0     H87430   8.416   3.816   7.743 -0.5740 -1.8174 -1.5622
  648MOL0     H87431   8.526   3.774   7.389  0.7198  1.4600  2.5067
  648MOL0     H87432   8.505   3.570   7.198 -1.7801 -0.9783 -3.5370
  648MOL0     H87433   8.483   3.413   7.269 -1.0042 -0.3808  1.9082
  648MOL0     H87434   8.256   3.412   7.242  2.1652 -1.7966 -0.3078
  648MOL0     H87435   8.249   3.595   7.227 -2.0476 -1.3571  0.2327
  648MOL0     H87436   8.400   3.424   7.025  4.4707  3.6603  4.4417
  648MOL0     H87437   8.347   3.590   7.009  1.9999 -0.6265 -0.8019
  648MOL0     H87438   8.118   3.527   7.005  0.7509  0.1321  3.3256
  648MOL0     H87439   8.145   3.364   7.047 -0.0377 -0.8830 -2.1186
  648MOL0     H87440   7.943   3.454   6.898 -1.8674 -1.7763 -1.2016
  648MOL0     H87441   7.777   3.484   6.715  0.6542  3.6682 -2.1505
  648MOL0     H87442   7.761   3.362   6.094  2.9570  1.9056 -0.2731
  648MOL0     H87443   7.553   3.417   5.974 -3.1401  1.1353 -0.5162
  648MOL0     H87444   7.266   3.635   6.208 -1.7857 -0.6074 -0.8158
  648MOL0     H87445   7.237   3.747   6.068  0.3243 -0.2776 -0.7355
  648MOL0     H87446   7.116   3.567   5.969 -1.4777 -1.0840  0.4038
  648MOL0     H87447   7.162   3.458   6.108 -0.8905  0.8841  3.7468
  648MOL0     H87448   7.022   3.647   6.237  1.6401 -2.7728  0.5230
  648MOL0     H87449   6.982   3.705   6.073  1.1643  0.1200 -0.3027
  648MOL0     H87450   6.909   3.441   6.188 -2.9740 -0.0220  0.5470
  648MOL0     H87451   6.897   3.466   6.012 -0.6602  1.2548 -0.5027
  648MOL0     H87452   6.740   3.655   6.047  1.2975  1.4615  0.2806
  648MOL0     H87453   6.758   3.628   6.221  2.9628  0.7819 -1.9069
  648MOL0     H87454   6.683   3.385   6.032 -0.4937 -2.9540  1.5944
  648MOL0     H87455   6.653   3.401   6.191 -2.0154 -0.7802 -1.4908
  648MOL0     H87456   6.539   3.587   5.952 -1.9671  0.3142 -0.3253
  648MOL0     H87457   6.490   3.617   6.118 -1.6216  0.5271 -1.6775
  648MOL0     H87458   6.333   3.494   5.990  2.8044 -0.4165 -3.1277
  648MOL0     H87459   6.454   3.363   5.970  1.5424  0.7936  0.2600
  648MOL0     H87460   7.446   3.719   6.257 -0.8691  1.2021 -1.7391
  648MOL0     H87461   7.671   3.680   6.373 -0.4372  0.3358 -0.2648
  648MOL0     H87462   8.081   3.441   6.429  1.3279 -0.5947  0.2939
  648MOL0     H87463   8.255   3.394   6.620  0.2092 -0.1870  0.2793
  648MOL0     H87464   7.803   4.699   7.640  0.6515 -1.2312  0.1996
  648MOL0     H87465   7.661   4.849   7.514  2.8191  0.0313  2.5653
  648MOL0     H87466   7.520   4.916   7.049  1.1557 -1.3850  2.7352
  648MOL0     H87467   7.440   5.100   6.916 -0.9087 -3.8994 -0.4673
  648MOL0     H87468   7.375   5.296   6.821 -0.9460  1.4222 -1.4640
  648MOL0     H87469   7.487   5.356   6.945 -0.1919  2.1234 -0.2091
  648MOL0     H87470   7.252   5.506   6.818 -0.9261  0.4591  0.9722
  648MOL0     H87471   7.431   5.501   6.783  0.4605 -0.8933  0.1070
  648MOL0     H87472   7.314   5.606   7.029 -1.9496  1.1168 -2.3340
  648MOL0     H87473   7.364   5.698   6.893  0.9961 -0.4519 -1.0252
  648MOL0     H87474   7.522   5.717   7.041  1.6211 -0.7068  0.7854
  648MOL0     H87475   7.542   5.550   7.088  0.6843 -0.8415 -0.5373
  648MOL0     H87476   7.793   5.580   6.736 -1.2523  1.1797 -0.3880
  648MOL0     H87477   7.212   5.246   7.244  1.5166  0.1923  1.3880
  648MOL0     H87478   7.349   5.057   7.490 -0.6456  4.0589  0.1672
  648MOL0     H87479   7.226   5.165   7.442  1.4679  0.9462 -0.4124
  648MOL0     H87480   7.191   4.995   7.425 -1.6493  1.4583  2.8362
  649MOL0     O87481   0.706   4.869   1.747 -0.4306  0.1555 -0.3029
  649MOL0     C87482   0.722   4.972   1.682  0.3248 -1.1597 -0.0334
  649MOL0     O87483   0.811   5.074   1.715  0.3974 -0.9807  0.0804
  649MOL0     C87484   0.901   5.054   1.805  0.1008  0.5478  0.4799
  649MOL0     C87485   0.905   5.139   1.918  0.6908 -0.4718 -0.1173
  649MOL0     C87486   1.020   5.129   2.005  0.5950  0.6102 -0.3463
  649MOL0     C87487   1.113   5.037   1.981  0.2559  0.6357 -0.1391
  649MOL0     O87488   1.231   5.019   2.059 -0.4317  0.1498 -0.1619
  649MOL0     C87489   1.275   5.122   2.145 -0.1705 -0.4471 -0.8776
  649MOL0     C87490   1.409   5.077   2.185  0.2332  0.0924  0.1430
  649MOL0     C87491   1.480   5.181   2.264  1.2302 -0.3044 -0.1003
  649MOL0     C87492   1.627   5.139   2.290 -0.3136 -0.3433  0.4192
  649MOL0     C87493   1.653   5.061   2.413 -0.2707 -0.0702 -0.8565
  649MOL0     C87494   1.808   5.061   2.447 -0.2225 -0.0698  0.2844
  649MOL0     C87495   1.914   5.033   2.340  0.5028 -0.0248 -0.7959
  649MOL0     C87496   1.925   4.876   2.314 -0.1116  0.2830 -0.1728
  649MOL0     N87497   1.971   4.802   2.438 -0.0425  0.2712  0.4305
  649MOL0     C87498   2.110   4.784   2.474  0.0873 -0.8079  0.1035
  649MOL0     C87499   2.096   4.714   2.585 -0.6740 -0.8691  0.0881
  649MOL0     C87500   2.220   4.688   2.668  0.5328 -0.0063  0.1554
  649MOL0     C87501   2.318   4.602   2.592 -1.2794  0.4795  0.2614
  649MOL0     C87502   2.465   4.601   2.643 -0.0631 -0.2405 -0.0329
  649MOL0     C87503   2.476   4.531   2.777 -0.0437 -0.3527 -0.8664
  649MOL0     O87504   2.612   4.520   2.828  0.4125 -0.0837 -0.2181
  649MOL0     C87505   2.694   4.420   2.780 -1.2599 -1.0896 -0.7363
  649MOL0     C87506   2.674   4.325   2.690  0.8230 -0.0484  0.3119
  649MOL0     C87507   2.775   4.232   2.671 -0.1137  0.3326 -0.1361
  649MOL0     C87508   2.904   4.250   2.721 -0.1198  0.0009 -0.8878
  649MOL0     C87509   3.012   4.167   2.679 -0.4271  0.4052  0.2706
  649MOL0     O87510   2.993   4.117   2.549  0.3100  0.5244  0.1027
  649MOL0     C87511   3.069   4.013   2.521 -0.1252  0.5584  0.4142
  649MOL0     C87512   3.041   3.874   2.542  0.0930  0.4738 -0.0936
  649MOL0     C87513   3.128   3.775   2.495 -0.2037 -0.3116  0.0788
  649MOL0     C87514   3.240   3.808   2.419  0.0068  0.3541  0.0081
  649MOL0     O87515   3.318   3.712   2.362 -0.2815 -0.1874  0.0387
  649MOL0     C87516   3.408   3.629   2.448 -0.4037 -0.0151  0.1086
  649MOL0     C87517   3.486   3.737   2.530 -0.0573  0.4190 -0.5188
  649MOL0     C87518   3.630   3.682   2.576  0.7351 -0.1942 -0.2928
  649MOL0     C87519   3.711   3.781   2.661  0.4684 -0.6991 -0.1940
  649MOL0     C87520   3.860   3.758   2.645  0.9995  0.0117 -0.0953
  649MOL0     C87521   3.935   3.868   2.727 -0.1465  0.5703  0.3688
  649MOL0     C87522   4.071   3.818   2.757  0.8410  0.0354 -0.2803
  649MOL0     C87523   4.135   3.920   2.853 -0.5793 -0.7915 -0.3753
  649MOL0    Cl87524   4.300   3.911   2.883  0.1650 -0.1009  0.1812
  649MOL0     C87525   3.255   3.950   2.389 -0.8784 -0.0378 -0.5538
  649MOL0     C87526   3.178   4.046   2.448  1.2273 -0.8315  0.1478
  649MOL0     O87527   3.098   4.128   2.759 -0.1641 -0.4304 -0.4146
  649MOL0     C87528   2.928   4.356   2.810  0.5048 -0.6324 -0.0064
  649MOL0     C87529   2.821   4.442   2.840 -0.6504 -0.1440 -0.2240
  649MOL0     N87530   1.964   4.699   2.615  0.1414  0.8545 -0.4857
  649MOL0     N87531   1.889   4.753   2.526  0.0650  0.8220  0.1736
  649MOL0     C87532   1.106   4.938   1.881 -0.4912  0.0505 -0.8006
  649MOL0     C87533   1.000   4.955   1.789  0.0832  0.4410 -0.1278
  649MOL0     C87534   0.642   4.997   1.561  0.4556  0.3584 -0.8600
  649MOL0     C87535   0.691   5.091   1.474 -0.6144 -0.8758  0.0371
  649MOL0     C87536   0.635   5.104   1.344 -0.3431 -0.3617 -0.4661
  649MOL0     C87537   0.517   5.034   1.316  1.0891 -0.2860  0.5916
  649MOL0     O87538   0.463   5.046   1.192  0.2436 -0.5629 -0.4278
  649MOL0     C87539   0.337   4.989   1.147 -0.4474  0.4742 -0.7000
  649MOL0     C87540   0.332   4.959   0.999 -0.0959 -0.1204  0.7422
  649MOL0     C87541   0.331   5.101   0.930  0.0905  0.5575 -0.2955
  649MOL0     C87542   0.390   5.097   0.779  0.1269 -0.7667 -1.0161
  649MOL0     C87543   0.325   5.000   0.692 -0.6535 -0.9032  0.0416
  649MOL0     C87544   0.287   4.922   0.614 -0.0495 -0.9733  0.3517
  649MOL0     C87545   0.454   4.960   1.419 -1.6538  0.3180 -0.2484
  649MOL0     C87546   0.517   4.937   1.539 -0.4358  0.3892  0.8254
  649MOL0     C87547   0.452   4.846   1.635  0.3086  0.3120  0.4174
  649MOL0     H87548   0.817   5.201   1.931 -0.0844 -1.6091  0.1690
  649MOL0     H87549   1.036   5.201   2.085  0.7069  1.1674 -0.8630
  649MOL0     H87550   1.290   5.218   2.095  2.2548 -0.6971 -0.7118
  649MOL0     H87551   1.218   5.129   2.238  0.6917  0.3066 -0.3981
  649MOL0     H87552   1.461   5.048   2.094 -0.0588 -2.9060  0.8243
  649MOL0     H87553   1.406   4.995   2.258 -1.8608 -0.8105 -0.8519
  649MOL0     H87554   1.433   5.201   2.361 -1.8394  1.7930 -1.8535
  649MOL0     H87555   1.472   5.270   2.200  2.0939 -0.9548 -1.1628
  649MOL0     H87556   1.656   5.082   2.200 -0.6687  1.1593 -0.6769
  649MOL0     H87557   1.687   5.230   2.283 -1.3016  0.2075 -3.2031
  649MOL0     H87558   1.592   5.101   2.494 -0.3342  0.6371 -1.2486
  649MOL0     H87559   1.619   4.957   2.404  3.5754 -1.4050 -1.8331
  649MOL0     H87560   1.826   5.163   2.483 -0.2306  0.5475 -1.3530
  649MOL0     H87561   1.832   4.993   2.529  0.2562 -0.7797 -0.4241
  649MOL0     H87562   2.009   5.074   2.376  1.6255 -2.8892 -0.2702
  649MOL0     H87563   1.893   5.089   2.248  0.4867  3.6695  1.2726
  649MOL0     H87564   1.828   4.834   2.284  0.3090  0.4928 -1.9399
  649MOL0     H87565   1.993   4.858   2.231 -0.0265 -0.0353 -0.0380
  649MOL0     H87566   2.200   4.831   2.437  1.3876 -0.8591  2.9438
  649MOL0     H87567   2.258   4.787   2.691  1.5848 -0.5544  0.8103
  649MOL0     H87568   2.185   4.643   2.762 -1.6845  0.5425 -0.3420
  649MOL0     H87569   2.276   4.501   2.589 -0.5416  0.1800 -1.7815
  649MOL0     H87570   2.335   4.639   2.490 -1.6813 -1.7368 -0.6719
  649MOL0     H87571   2.517   4.697   2.638 -0.0616 -0.2748 -0.7814
  649MOL0     H87572   2.520   4.544   2.568 -1.3351  1.0473 -2.0535
  649MOL0     H87573   2.427   4.432   2.777  1.2292 -1.0042 -1.3402
  649MOL0     H87574   2.421   4.596   2.845  0.0147 -0.1161 -1.0434
  649MOL0     H87575   2.591   4.327   2.620 -0.4449  2.2434  1.7832
  649MOL0     H87576   2.759   4.143   2.611  4.3051 -1.0345  0.4088
  649MOL0     H87577   2.954   3.844   2.599  0.7115 -4.1816 -1.2375
  649MOL0     H87578   3.109   3.673   2.526  0.7220  0.0181  1.8786
  649MOL0     H87579   3.338   3.574   2.512 -1.6415  0.9697 -0.3495
  649MOL0     H87580   3.471   3.562   2.390  0.0993  1.5423 -1.2209
  649MOL0     H87581   3.511   3.825   2.470  3.4301  0.2231  0.4303
  649MOL0     H87582   3.419   3.758   2.614 -0.7571  0.4049 -1.0646
  649MOL0     H87583   3.624   3.598   2.647 -1.1919  0.6998  0.6669
  649MOL0     H87584   3.679   3.634   2.491  0.6721 -1.6665  0.4671
  649MOL0     H87585   3.691   3.757   2.766  0.3023  0.8656  0.1666
  649MOL0     H87586   3.676   3.882   2.636 -1.0034 -0.5434  2.1328
  649MOL0     H87587   3.896   3.759   2.542 -1.5946  2.6484 -1.1057
  649MOL0     H87588   3.883   3.657   2.682  0.6291 -0.0545 -0.0452
  649MOL0     H87589   3.948   3.958   2.666 -4.7710  1.8172  0.8365
  649MOL0     H87590   3.895   3.888   2.827  4.2178  1.2569  2.2148
  649MOL0     H87591   4.128   3.803   2.664 -0.0496 -1.6198 -0.6048
  649MOL0     H87592   4.071   3.727   2.816  0.5437 -0.0654 -0.4340
  649MOL0     H87593   4.125   4.021   2.812  1.5050  0.0021  0.9171
  649MOL0     H87594   4.077   3.920   2.947 -0.0610  1.8969  0.0066
  649MOL0     H87595   3.336   3.971   2.320 -3.1486  0.2681 -3.3460
  649MOL0     H87596   3.195   4.150   2.422 -0.3443 -0.1706  1.5823
  649MOL0     H87597   3.026   4.368   2.855  0.3278  3.8732 -0.3810
  649MOL0     H87598   2.837   4.525   2.908 -1.0714 -0.7105  0.5794
  649MOL0     H87599   1.175   4.856   1.867 -1.4793 -0.5116 -2.7140
  649MOL0     H87600   0.998   4.881   1.709  0.6746 -0.5927  0.7803
  649MOL0     H87601   0.786   5.137   1.502 -0.2815 -1.8639  0.5655
  649MOL0     H87602   0.687   5.167   1.272 -2.2766  5.0388  2.3355
  649MOL0     H87603   0.253   5.050   1.184 -0.2717 -0.5498  1.5651
  649MOL0     H87604   0.314   4.889   1.185 -0.9565  1.2831  1.2996
  649MOL0     H87605   0.254   4.890   0.968  1.9662 -1.7559 -1.1386
  649MOL0     H87606   0.428   4.918   0.966 -0.6466  0.5315 -1.9080
  649MOL0     H87607   0.392   5.175   0.985  0.1272  2.2379 -2.4530
  649MOL0     H87608   0.227   5.135   0.931 -0.8545 -1.9387  2.9908
  649MOL0     H87609   0.377   5.197   0.736  4.4827  0.6803  0.4550
  649MOL0     H87610   0.497   5.083   0.792 -0.0439  0.4511  3.3580
  649MOL0     H87611   0.255   4.838   0.556 -0.9319 -0.0137 -0.5992
  649MOL0     H87612   0.364   4.907   1.390 -0.4526 -0.2860 -3.2854
  649MOL0     H87613   0.345   4.832   1.618 -0.0922 -2.1078  3.7717
  649MOL0     H87614   0.497   4.747   1.624  2.1414  1.2038 -0.3854
  649MOL0     H87615   0.463   4.885   1.737  1.8089 -0.9846  0.8019
  650MOL0     O87616   3.007   7.824   1.803  0.7604 -0.9686 -0.2223
  650MOL0     C87617   2.986   7.718   1.744  0.3706 -0.9840 -0.5768
  650MOL0     O87618   2.894   7.699   1.643  0.1435 -0.5690  0.0480
  650MOL0     C87619   2.784   7.783   1.632 -0.5596  0.0174  0.2292
  650MOL0     C87620   2.729   7.858   1.738  0.3830  0.0884  0.3084
  650MOL0     C87621   2.611   7.943   1.720 -0.6580  0.6100 -0.1396
  650MOL0     C87622   2.545   7.931   1.600  0.3876 -0.1297 -0.0764
  650MOL0     O87623   2.415   7.985   1.588  0.0859 -0.3340  0.0405
  650MOL0     C87624   2.302   7.903   1.632  0.3687  0.2947 -0.1197
  650MOL0     C87625   2.213   7.996   1.714 -0.3095  0.0014  0.3804
  650MOL0     C87626   2.118   8.090   1.643  0.3481 -0.4430  0.2132
  650MOL0     C87627   2.067   8.178   1.751 -0.8368 -0.0389 -1.2704
  650MOL0     C87628   1.938   8.241   1.713  0.8520 -0.6357 -0.1798
  650MOL0     C87629   1.863   8.304   1.834 -0.3332  0.5747  0.6020
  650MOL0     C87630   1.933   8.430   1.890  0.0716  0.5460  0.6878
  650MOL0     C87631   1.841   8.492   1.996 -0.1033 -0.8629  0.4371
  650MOL0     N87632   1.852   8.642   2.003 -0.1052  0.7598 -0.9785
  650MOL0     C87633   1.800   8.741   1.918  0.1745  1.3188 -0.0816
  650MOL0     C87634   1.847   8.855   1.973 -0.3571  1.2671  0.2022
  650MOL0     C87635   1.825   8.994   1.925 -0.3610  0.0618 -0.0992
  650MOL0     C87636   1.687   9.021   1.869 -0.1778 -0.5505 -0.0479
  650MOL0     C87637   1.674   9.161   1.809 -0.0597  0.4155  0.1726
  650MOL0     C87638   1.529   9.203   1.756 -0.8943 -0.3223  0.0607
  650MOL0     O87639   1.469   9.107   1.664  0.7601  0.3067 -0.3896
  650MOL0     C87640   1.336   9.069   1.681  0.2358 -1.1709  0.9162
  650MOL0     C87641   1.236   9.121   1.612 -0.0458 -0.7623  0.2617
  650MOL0     C87642   1.104   9.083   1.638  0.3236  0.2460  0.9081
  650MOL0     C87643   1.065   8.981   1.732 -0.2089 -0.6994 -0.6771
  650MOL0     C87644   0.927   8.937   1.745  0.0036 -0.4849 -0.0085
  650MOL0     O87645   0.834   8.978   1.646 -0.4479  0.2042  0.0928
  650MOL0     C87646   0.716   8.927   1.674 -0.1822  0.6347  0.4670
  650MOL0     C87647   0.623   8.999   1.752 -0.5575  0.2101  0.8449
  650MOL0     C87648   0.499   8.942   1.790  0.4763 -0.2231 -0.7006
  650MOL0     C87649   0.461   8.811   1.757  0.4386 -0.5117 -0.0126
  650MOL0     O87650   0.350   8.748   1.800  0.5434 -1.0440  0.0517
  650MOL0     C87651   0.308   8.766   1.937 -0.0796 -1.6951 -1.1732
  650MOL0     C87652   0.180   8.703   1.986  0.7398 -0.7102  1.6321
  650MOL0     C87653   0.066   8.723   1.875  0.1420 -0.3068 -0.0949
  650MOL0     C87654  -0.071   8.673   1.925 -0.1524  0.0047 -0.1432
  650MOL0     C87655  -0.183   8.647   1.814 -0.2638 -0.1800  0.4727
  650MOL0     C87656  -0.184   8.761   1.712 -0.0511  0.2330 -0.4141
  650MOL0     C87657  -0.321   8.763   1.634 -0.2383  0.2911 -0.3897
  650MOL0     C87658  -0.404   8.889   1.647  0.1822 -0.0472  0.5166
  650MOL0    Cl87659  -0.317   9.033   1.606 -0.0902  0.2763  0.0761
  650MOL0     C87660   0.555   8.739   1.686 -0.0673  0.3674  0.2399
  650MOL0     C87661   0.675   8.795   1.645 -0.1056  0.8990  1.5809
  650MOL0     O87662   0.902   8.862   1.840  1.1867  0.7239 -0.1635
  650MOL0     C87663   1.177   8.923   1.794 -0.6836 -0.7081 -1.0500
  650MOL0     C87664   1.312   8.973   1.767  0.7018  0.8091 -0.4754
  650MOL0     N87665   1.916   8.824   2.084 -0.7494  0.4214 -0.9641
  650MOL0     N87666   1.923   8.694   2.103  0.3233  0.8526 -1.2374
  650MOL0     C87667   2.588   7.846   1.500 -0.6639  0.2063  0.1683
  650MOL0     C87668   2.710   7.780   1.512  0.0993  0.1483  0.2230
  650MOL0     C87669   3.053   7.597   1.792 -0.0085 -0.5221  1.1813
  650MOL0     C87670   2.969   7.484   1.787 -0.5415  0.0205  0.0430
  650MOL0     C87671   3.010   7.373   1.853  0.1788  0.4210 -0.3300
  650MOL0     C87672   3.137   7.370   1.914 -0.0530 -0.5504 -0.2465
  650MOL0     O87673   3.175   7.253   1.978  0.2260  0.4633  0.8775
  650MOL0     C87674   3.179   7.241   2.122 -0.3107  0.1140 -1.0070
  650MOL0     C87675   3.184   7.088   2.158  0.4440  0.1062 -0.3343
  650MOL0     C87676   3.037   7.039   2.159 -0.2914 -0.2638  0.1323
  650MOL0     C87677   3.034   6.892   2.117  0.2219 -0.9286  0.6771
  650MOL0     C87678   3.083   6.811   2.225  1.0835 -0.0201 -0.0821
  650MOL0     C87679   3.128   6.736   2.307 -0.7359 -0.3759 -0.0466
  650MOL0     C87680   3.221   7.479   1.915 -0.5523 -0.0202  0.0330
  650MOL0     C87681   3.178   7.595   1.858 -0.1632 -0.7995  0.3333
  650MOL0     C87682   3.271   7.716   1.868  0.8381  0.0508 -0.8891
  650MOL0     H87683   2.777   7.847   1.834  0.2318 -3.0950  0.1043
  650MOL0     H87684   2.570   8.016   1.789  2.6268  0.2815  2.4030
  650MOL0     H87685   2.234   7.866   1.555  0.6342 -0.8976  0.2073
  650MOL0     H87686   2.343   7.821   1.692 -2.1989 -1.1648 -0.2006
  650MOL0     H87687   2.281   8.056   1.775 -0.8706  2.7372 -1.5109
  650MOL0     H87688   2.150   7.932   1.776  0.3314 -1.4276 -0.3838
  650MOL0     H87689   2.038   8.027   1.604  1.2393 -2.9112  2.1520
  650MOL0     H87690   2.167   8.141   1.559 -3.4357 -0.0985 -1.9903
  650MOL0     H87691   2.046   8.124   1.844 -1.3296  3.9340  1.1844
  650MOL0     H87692   2.145   8.244   1.791 -1.9664 -0.3861  1.7668
  650MOL0     H87693   1.956   8.316   1.635 -0.3866 -0.2552 -0.1260
  650MOL0     H87694   1.876   8.160   1.673  1.4230 -1.6971  1.0488
  650MOL0     H87695   1.758   8.323   1.809 -1.2334 -2.9781  1.0462
  650MOL0     H87696   1.867   8.239   1.922 -4.8870  0.6960  1.1551
  650MOL0     H87697   1.959   8.492   1.804 -2.2871 -1.2919 -1.5287
  650MOL0     H87698   2.030   8.402   1.934  1.1327  1.2593 -1.0762
  650MOL0     H87699   1.739   8.456   1.979 -0.3704  0.3546 -0.6548
  650MOL0     H87700   1.869   8.446   2.092  0.6327 -0.5724  0.3657
  650MOL0     H87701   1.754   8.731   1.820 -0.0195  2.0040 -0.0651
  650MOL0     H87702   1.836   9.053   2.016 -0.7143 -0.5874  0.3772
  650MOL0     H87703   1.909   9.025   1.863 -1.1728 -0.4417 -1.5123
  650MOL0     H87704   1.659   8.950   1.790 -0.0087 -1.3938  0.6281
  650MOL0     H87705   1.617   9.010   1.953  0.5603 -0.9883  0.5259
  650MOL0     H87706   1.742   9.162   1.724  1.1917  0.4474  1.1515
  650MOL0     H87707   1.717   9.245   1.864  0.8054  0.2003 -0.1723
  650MOL0     H87708   1.546   9.296   1.701 -0.0520 -0.5696 -0.1038
  650MOL0     H87709   1.467   9.227   1.844 -0.3550  1.7171 -0.0559
  650MOL0     H87710   1.252   9.192   1.532 -1.2679 -0.9525 -0.1659
  650MOL0     H87711   1.024   9.126   1.579  1.5045  1.7264  0.3391
  650MOL0     H87712   0.666   9.095   1.777  1.6092 -0.1563 -1.1301
  650MOL0     H87713   0.442   9.005   1.857  1.0116  1.8678 -2.1118
  650MOL0     H87714   0.393   8.740   2.001  0.9738 -0.6219 -2.0849
  650MOL0     H87715   0.306   8.874   1.954 -0.9276 -1.8970  0.2123
  650MOL0     H87716   0.197   8.596   2.004 -2.5318 -1.0580  3.2850
  650MOL0     H87717   0.132   8.757   2.068 -2.1244  1.4792 -1.2262
  650MOL0     H87718   0.062   8.827   1.842  0.3004  0.0060  0.8266
  650MOL0     H87719   0.095   8.670   1.784 -1.5524  0.0588 -0.8779
  650MOL0     H87720  -0.107   8.745   1.999  0.1145 -0.2757  0.2610
  650MOL0     H87721  -0.066   8.573   1.969 -3.0161  0.0589  0.4795
  650MOL0     H87722  -0.283   8.639   1.858 -0.6897  0.1280 -0.4044
  650MOL0     H87723  -0.164   8.556   1.756  0.1373 -1.1005  1.9984
  650MOL0     H87724  -0.149   8.856   1.754  3.7564 -0.4911 -1.6123
  650MOL0     H87725  -0.108   8.752   1.635  1.5564  3.0073  0.6981
  650MOL0     H87726  -0.376   8.671   1.654  1.1001 -0.2647  0.8487
  650MOL0     H87727  -0.302   8.760   1.526 -0.8587  3.1316 -0.6574
  650MOL0     H87728  -0.490   8.881   1.580  0.8874  0.8637 -0.5394
  650MOL0     H87729  -0.434   8.897   1.752 -0.9217  1.5747  0.1199
  650MOL0     H87730   0.538   8.634   1.666 -1.7694  0.9851 -2.1071
  650MOL0     H87731   0.747   8.739   1.586 -2.7257 -2.2156  1.0433
  650MOL0     H87732   1.162   8.838   1.860 -2.7200  0.3366 -0.0498
  650MOL0     H87733   1.399   8.934   1.819  0.5915 -1.2059 -1.6699
  650MOL0     H87734   2.525   7.829   1.413  0.7643  0.5148 -0.9445
  650MOL0     H87735   2.748   7.725   1.427 -1.0274  3.4619 -2.6796
  650MOL0     H87736   2.869   7.490   1.745 -1.2408 -0.4434  1.5644
  650MOL0     H87737   2.946   7.286   1.860 -0.0459  0.4248 -2.0109
  650MOL0     H87738   3.099   7.290   2.179  1.9697  1.5533  1.1626
  650MOL0     H87739   3.274   7.288   2.148 -1.0986  2.0927 -1.5469
  650MOL0     H87740   3.207   7.084   2.265 -0.2239  1.3439 -0.1260
  650MOL0     H87741   3.255   7.031   2.097 -0.2611 -3.1906  1.6887
  650MOL0     H87742   2.984   7.108   2.093  2.0828  0.2137 -1.3898
  650MOL0     H87743   3.003   7.054   2.262  4.3845  0.6142  1.8192
  650MOL0     H87744   2.932   6.866   2.087 -0.6771  1.9112  0.9447
  650MOL0     H87745   3.086   6.873   2.023  0.0558 -1.3234  0.6659
  650MOL0     H87746   3.169   6.665   2.377  0.9953 -0.5616 -1.1908
  650MOL0     H87747   3.320   7.463   1.955 -0.2321  0.3615 -0.5836
  650MOL0     H87748   3.263   7.786   1.785 -1.9317 -0.0217 -0.7732
  650MOL0     H87749   3.241   7.780   1.952  0.2236 -0.9343 -0.3370
  650MOL0     H87750   3.377   7.690   1.876  0.8920  0.7612  1.8759
  651MOL0     O87751   8.101   1.945   3.000  0.1298 -0.2573  0.6258
  651MOL0     C87752   8.033   2.028   3.063 -1.3526 -0.4673  0.2096
  651MOL0     O87753   7.909   2.069   3.030 -0.0743  0.0048  0.2647
  651MOL0     C87754   7.852   2.022   2.913 -0.0257  0.0866  0.9661
  651MOL0     C87755   7.755   1.925   2.912 -0.5437 -0.4579 -0.2588
  651MOL0     C87756   7.690   1.890   2.799  0.4426 -0.4811  0.0743
  651MOL0     C87757   7.702   1.955   2.675 -0.1106 -0.3980  0.0482
  651MOL0     O87758   7.647   1.910   2.550  0.6090 -0.6172 -1.2350
  651MOL0     C87759   7.590   1.790   2.537 -0.9102 -0.7567  0.4636
  651MOL0     C87760   7.538   1.788   2.390  0.4944  1.2469  1.0333
  651MOL0     C87761   7.437   1.672   2.368  0.4664 -0.2065  0.0075
  651MOL0     C87762   7.359   1.688   2.232  0.4619  0.7433 -0.6589
  651MOL0     C87763   7.260   1.568   2.191  0.1036 -0.4672 -1.2135
  651MOL0     C87764   7.344   1.439   2.187 -0.2817 -1.2676  0.4180
  651MOL0     C87765   7.484   1.441   2.113 -0.7610  0.5375  0.1123
  651MOL0     C87766   7.477   1.471   1.955 -0.0210  0.9289 -0.6375
  651MOL0     N87767   7.617   1.486   1.906 -0.4526 -0.3399  0.2321
  651MOL0     C87768   7.704   1.581   1.944 -0.0035  0.0793  0.0569
  651MOL0     C87769   7.812   1.570   1.869  1.4169 -0.4855 -0.0631
  651MOL0     C87770   7.920   1.672   1.859 -0.4881 -1.1132 -0.2208
  651MOL0     C87771   8.052   1.602   1.908 -0.4203  0.0941  0.2160
  651MOL0     C87772   8.165   1.705   1.935  0.2341 -0.0261  0.9640
  651MOL0     C87773   8.295   1.629   1.966  0.1826  0.6529  0.2934
  651MOL0     O87774   8.399   1.722   1.962  0.2606 -0.7245  0.2691
  651MOL0     C87775   8.507   1.713   2.048 -0.7347 -0.0216 -0.7775
  651MOL0     C87776   8.604   1.822   2.063  0.5726  0.3693 -1.1616
  651MOL0     C87777   8.720   1.800   2.140  0.9122 -0.4812  0.7481
  651MOL0     C87778   8.748   1.680   2.205  0.1713  0.0056  0.7789
  651MOL0     C87779   8.881   1.651   2.272  0.3145  0.6260  0.2304
  651MOL0     O87780   8.970   1.751   2.275  0.6442  0.1772  0.0519
  651MOL0     C87781   9.091   1.731   2.343 -0.1011 -0.1349  0.5311
  651MOL0     C87782   9.210   1.782   2.274 -0.9392  1.1580  0.8267
  651MOL0     C87783   9.335   1.759   2.340 -0.0384 -0.3262  0.1525
  651MOL0     C87784   9.338   1.693   2.456 -0.6844  0.0556 -0.5762
  651MOL0     O87785   9.456   1.670   2.506  0.2707 -0.4939 -0.0939
  651MOL0     C87786   9.481   1.533   2.515 -0.9136  1.1986 -0.2084
  651MOL0     C87787   9.629   1.519   2.552 -0.1548 -0.8992  1.3075
  651MOL0     C87788   9.677   1.568   2.681 -0.5044 -0.2838  0.0176
  651MOL0     C87789   9.821   1.537   2.694 -0.1726 -0.6695  0.8649
  651MOL0     C87790   9.886   1.595   2.821 -0.1222 -0.8049 -0.5652
  651MOL0     C87791  10.036   1.566   2.840  0.3424 -0.2958  1.1862
  651MOL0     C87792  10.117   1.629   2.724 -0.0442  0.9085 -0.4862
  651MOL0     C87793  10.265   1.601   2.767  0.1956  0.5358 -0.5395
  651MOL0    Cl87794  10.382   1.667   2.647  0.1450 -0.6157 -0.1659
  651MOL0     C87795   9.222   1.662   2.526  0.2438  0.7326 -0.7522
  651MOL0     C87796   9.098   1.677   2.470 -0.1372 -0.8693  0.8623
  651MOL0     O87797   8.890   1.544   2.330  0.0194  0.6792  0.8704
  651MOL0     C87798   8.649   1.589   2.206 -0.4959 -0.0701 -0.2978
  651MOL0     C87799   8.533   1.595   2.126  0.1672 -0.2611 -0.2104
  651MOL0     N87800   7.794   1.463   1.792 -0.3724  0.1477  0.9012
  651MOL0     N87801   7.677   1.419   1.808 -0.5085  0.9596  0.1909
  651MOL0     C87802   7.782   2.067   2.678  0.4956 -0.5771 -0.0249
  651MOL0     C87803   7.858   2.093   2.795 -0.0232 -0.4290 -0.7727
  651MOL0     C87804   8.102   2.114   3.152 -0.6606 -0.4443 -0.5892
  651MOL0     C87805   8.056   2.252   3.170 -0.8412 -1.0879 -0.1441
  651MOL0     C87806   8.130   2.337   3.252  0.5095 -0.2361 -0.6370
  651MOL0     C87807   8.238   2.286   3.325 -0.2794  0.0215  0.4395
  651MOL0     O87808   8.321   2.366   3.408  0.3487 -0.6318 -0.4222
  651MOL0     C87809   8.259   2.461   3.489  0.3363 -0.4052 -0.2283
  651MOL0     C87810   8.366   2.526   3.585  0.5336 -0.1294 -0.3306
  651MOL0     C87811   8.376   2.433   3.713 -0.3629 -0.0511  0.2827
  651MOL0     C87812   8.488   2.329   3.711 -1.2202  0.0516  0.3845
  651MOL0     C87813   8.509   2.270   3.844  0.8784 -0.5696 -0.4069
  651MOL0     C87814   8.529   2.237   3.960 -0.2864 -1.1839 -0.5669
  651MOL0     C87815   8.276   2.153   3.312  0.0041 -0.2223 -0.3222
  651MOL0     C87816   8.207   2.067   3.238 -0.0485  0.1867  0.8704
  651MOL0     C87817   8.263   1.928   3.238 -0.4994 -0.1855  0.4951
  651MOL0     H87818   7.724   1.864   2.996  0.4461  0.1476  0.5782
  651MOL0     H87819   7.632   1.800   2.820  0.6774 -0.2219  2.0236
  651MOL0     H87820   7.664   1.710   2.548 -0.0864 -0.0508  0.0886
  651MOL0     H87821   7.511   1.767   2.610  0.2152 -2.3641  1.2449
  651MOL0     H87822   7.611   1.769   2.311 -1.2833  0.5897 -0.5177
  651MOL0     H87823   7.493   1.885   2.364 -2.5868 -0.3587 -0.0911
  651MOL0     H87824   7.369   1.667   2.454  1.4053 -2.1912  0.6862
  651MOL0     H87825   7.493   1.580   2.383  0.5925 -0.2643 -0.7598
  651MOL0     H87826   7.290   1.773   2.232 -0.6764 -0.1600 -1.5345
  651MOL0     H87827   7.427   1.707   2.149 -0.8726 -0.8889 -2.2134
  651MOL0     H87828   7.181   1.552   2.266  2.0894  2.5590  1.8570
  651MOL0     H87829   7.211   1.590   2.096 -2.1134 -0.6066 -0.1747
  651MOL0     H87830   7.362   1.411   2.291 -0.3576 -1.2951  0.4235
  651MOL0     H87831   7.286   1.356   2.145 -2.1407  0.7098 -1.1477
  651MOL0     H87832   7.518   1.337   2.120  1.1769  1.2258  2.0150
  651MOL0     H87833   7.558   1.507   2.159 -1.3232  1.7561 -0.6868
  651MOL0     H87834   7.438   1.380   1.908  0.6823 -1.2847  2.7170
  651MOL0     H87835   7.412   1.558   1.941 -1.4629  0.0791  0.4537
  651MOL0     H87836   7.693   1.659   2.019 -0.5416 -1.4676  1.6565
  651MOL0     H87837   7.912   1.707   1.756 -3.1656 -3.5633 -1.0016
  651MOL0     H87838   7.903   1.750   1.934  0.7019 -2.0193  1.0469
  651MOL0     H87839   8.026   1.556   2.003 -1.7259 -0.7726 -0.5168
  651MOL0     H87840   8.079   1.522   1.838  1.0225 -0.2773  1.1433
  651MOL0     H87841   8.145   1.762   2.026  0.0640 -0.4384  1.1870
  651MOL0     H87842   8.158   1.776   1.852  0.0709 -0.0522  0.9560
  651MOL0     H87843   8.312   1.546   1.897 -2.5138 -1.1501  1.6376
  651MOL0     H87844   8.295   1.592   2.069  2.6251 -2.0460 -0.5247
  651MOL0     H87845   8.581   1.911   2.005 -0.8084 -0.5272 -2.0538
  651MOL0     H87846   8.783   1.887   2.124 -2.0232  1.3660 -2.0194
  651MOL0     H87847   9.206   1.824   2.173  1.1442 -0.4513  0.0089
  651MOL0     H87848   9.424   1.788   2.285 -0.3587  0.7472  0.1666
  651MOL0     H87849   9.416   1.492   2.592 -0.8210 -0.8537 -1.1767
  651MOL0     H87850   9.466   1.491   2.415 -1.2847  1.1953 -0.1506
  651MOL0     H87851   9.658   1.413   2.545  3.1841 -0.0043 -0.6337
  651MOL0     H87852   9.680   1.571   2.470 -1.1120  0.9499  1.8537
  651MOL0     H87853   9.660   1.676   2.677  3.4471  0.4893 -1.4358
  651MOL0     H87854   9.619   1.532   2.766 -0.6059  2.1290  1.0622
  651MOL0     H87855   9.868   1.582   2.606  1.5432 -3.6739  0.1114
  651MOL0     H87856   9.837   1.430   2.686 -2.2165 -0.9329 -0.7868
  651MOL0     H87857   9.834   1.560   2.910  0.8829  1.4779  1.0083
  651MOL0     H87858   9.889   1.704   2.810  1.1833 -0.7077  0.6250
  651MOL0     H87859  10.059   1.623   2.931 -1.5182  2.8013 -0.1251
  651MOL0     H87860  10.055   1.459   2.856  0.3695 -0.4175  0.3848
  651MOL0     H87861  10.108   1.738   2.721  2.5426  1.4573  3.5152
  651MOL0     H87862  10.085   1.582   2.631 -0.1794 -0.9745  0.4630
  651MOL0     H87863  10.286   1.654   2.861 -0.3307  4.2607 -2.3034
  651MOL0     H87864  10.284   1.494   2.768 -0.5379  0.3969  0.8861
  651MOL0     H87865   9.243   1.620   2.624 -0.5016 -2.4540 -1.8322
  651MOL0     H87866   9.013   1.640   2.525 -1.2279  2.2680  1.5068
  651MOL0     H87867   8.664   1.498   2.263  6.8350  1.0605  0.6375
  651MOL0     H87868   8.467   1.510   2.141  0.9425 -0.7862  0.3200
  651MOL0     H87869   7.806   2.125   2.589  2.0101 -0.1142  0.6403
  651MOL0     H87870   7.925   2.178   2.789  0.0963 -0.6333 -3.5873
  651MOL0     H87871   7.973   2.295   3.116  0.0881 -0.4077 -1.0811
  651MOL0     H87872   8.109   2.443   3.250  2.2938  0.2926  2.4792
  651MOL0     H87873   8.172   2.427   3.545  0.0646  4.0726  2.5089
  651MOL0     H87874   8.213   2.544   3.434  1.2522  0.1152 -0.2320
  651MOL0     H87875   8.340   2.626   3.619  0.8124 -0.6835  1.6385
  651MOL0     H87876   8.467   2.536   3.544  0.6361 -0.6306 -0.2162
  651MOL0     H87877   8.277   2.385   3.716 -2.3563  2.6028 -5.9763
  651MOL0     H87878   8.377   2.490   3.806 -2.0714 -1.6103  1.3531
  651MOL0     H87879   8.467   2.257   3.631 -1.7961  2.6202 -1.9173
  651MOL0     H87880   8.588   2.365   3.689 -1.0883  0.7197  1.9343
  651MOL0     H87881   8.550   2.225   4.064  0.8932  0.6044 -0.5610
  651MOL0     H87882   8.359   2.118   3.372  0.3251 -0.3376 -0.8233
  651MOL0     H87883   8.302   1.911   3.339  0.8004 -0.5703 -0.0435
  651MOL0     H87884   8.200   1.841   3.217 -2.5443  0.8016  2.1919
  651MOL0     H87885   8.352   1.932   3.174  0.0335  2.8525  1.2484
  652MOL0     O87886   5.618   4.921   5.515 -0.2564  0.1585 -0.8611
  652MOL0     C87887   5.539   4.922   5.420 -0.6905  0.9493 -0.0916
  652MOL0     O87888   5.556   4.850   5.292  0.5363  0.0673  0.2449
  652MOL0     C87889   5.689   4.806   5.277  0.2015 -0.4756  0.6023
  652MOL0     C87890   5.789   4.903   5.281 -0.4948  0.5499 -0.0553
  652MOL0     C87891   5.923   4.871   5.259  0.3923  0.0890 -0.1978
  652MOL0     C87892   5.955   4.743   5.241 -0.1064  0.8574 -0.1701
  652MOL0     O87893   6.090   4.710   5.230  0.1030 -0.3205 -1.0038
  652MOL0     C87894   6.138   4.584   5.277 -0.1676 -0.3895  1.0352
  652MOL0     C87895   6.287   4.609   5.325  1.0422 -0.5601  0.0465
  652MOL0     C87896   6.396   4.661   5.225  0.3188 -0.4197 -0.1793
  652MOL0     C87897   6.494   4.764   5.289 -0.3664 -0.1054 -0.5282
  652MOL0     C87898   6.596   4.716   5.396  0.1912 -0.0006 -0.6213
  652MOL0     C87899   6.656   4.840   5.450 -0.6654  0.2768 -0.2139
  652MOL0     C87900   6.776   4.814   5.554 -0.5120 -0.0541  0.9156
  652MOL0     C87901   6.745   4.734   5.683  0.5556 -0.0240  0.6718
  652MOL0     N87902   6.700   4.594   5.658  0.3961  0.6192  0.2607
  652MOL0     C87903   6.789   4.509   5.602  0.5765 -0.5273  0.8507
  652MOL0     C87904   6.718   4.392   5.609  0.6088  0.3865 -0.0668
  652MOL0     C87905   6.766   4.252   5.580 -0.4327 -0.1926  0.6822
  652MOL0     C87906   6.920   4.245   5.559  0.1706  0.0867 -0.6167
  652MOL0     C87907   6.959   4.099   5.563 -0.4050  0.1875 -0.3765
  652MOL0     C87908   7.110   4.079   5.560  0.4190 -0.6925  0.0874
  652MOL0     O87909   7.135   3.952   5.621  0.7794  1.3331 -0.4071
  652MOL0     C87910   7.256   3.894   5.634 -0.8492  0.0565  0.2358
  652MOL0     C87911   7.267   3.783   5.717  0.7339 -0.3066 -0.5189
  652MOL0     C87912   7.394   3.717   5.732  0.6241  0.2197 -0.3717
  652MOL0     C87913   7.505   3.753   5.661 -0.1892  0.5929 -0.3000
  652MOL0     C87914   7.631   3.677   5.657  0.3871 -0.1123 -0.6060
  652MOL0     O87915   7.634   3.553   5.733  0.6661 -0.3526  0.9736
  652MOL0     C87916   7.759   3.523   5.775  0.5110 -1.6538  0.2766
  652MOL0     C87917   7.820   3.431   5.705  0.2351  0.2123 -0.2820
  652MOL0     C87918   7.950   3.376   5.748  0.2293 -0.9250 -0.6017
  652MOL0     C87919   8.011   3.424   5.869  0.0329 -1.1187 -0.0470
  652MOL0     O87920   8.139   3.401   5.912  0.2638  0.0273 -0.8710
  652MOL0     C87921   8.135   3.308   6.015  0.3027  0.0487  0.5396
  652MOL0     C87922   8.276   3.286   6.077 -0.3971 -0.1183 -0.9288
  652MOL0     C87923   8.340   3.417   6.126 -0.3477 -0.1072  1.0200
  652MOL0     C87924   8.406   3.394   6.263 -0.6210 -0.2203 -0.2911
  652MOL0     C87925   8.488   3.509   6.323  0.9188 -0.1493  0.0225
  652MOL0     C87926   8.599   3.558   6.235 -0.5835  0.0155  0.7224
  652MOL0     C87927   8.715   3.465   6.203 -0.8444  0.8962  0.1562
  652MOL0     C87928   8.801   3.443   6.339  0.1389  0.3487  1.0483
  652MOL0    Cl87929   8.952   3.353   6.301  0.0054 -0.4262 -0.3269
  652MOL0     C87930   7.936   3.524   5.931 -0.1524  0.1391  0.0395
  652MOL0     C87931   7.812   3.570   5.898  0.4789  0.3673 -0.2671
  652MOL0     O87932   7.731   3.730   5.603  0.3403  0.0002  0.7192
  652MOL0     C87933   7.481   3.850   5.564 -0.1739  0.1389  0.6407
  652MOL0     C87934   7.363   3.930   5.551  0.1875 -0.8936  0.0202
  652MOL0     N87935   6.585   4.414   5.670 -0.2709  0.6544 -0.4799
  652MOL0     N87936   6.599   4.534   5.722  0.8874  0.3029  0.5553
  652MOL0     C87937   5.858   4.643   5.246 -0.1268  0.2429  0.9755
  652MOL0     C87938   5.722   4.671   5.267 -0.1330 -0.3562 -0.0608
  652MOL0     C87939   5.428   5.012   5.434  0.0565 -0.5177  0.1226
  652MOL0     C87940   5.366   5.007   5.563  0.2120 -0.6172 -0.2049
  652MOL0     C87941   5.256   5.091   5.589 -0.4098  0.3921 -0.2594
  652MOL0     C87942   5.193   5.162   5.489  0.1421 -0.3183 -0.6751
  652MOL0     O87943   5.078   5.224   5.521  0.0599 -0.7920 -0.4043
  652MOL0     C87944   5.077   5.367   5.489  0.0132  0.6973  0.3941
  652MOL0     C87945   5.079   5.441   5.616 -0.4080  0.0448  0.1157
  652MOL0     C87946   4.967   5.450   5.720 -1.3176 -0.3938 -0.0050
  652MOL0     C87947   4.835   5.506   5.651 -0.4510  0.4340  0.2701
  652MOL0     C87948   4.824   5.639   5.600  0.2614  0.5536  1.0388
  652MOL0     C87949   4.803   5.753   5.552 -0.4309  0.3750 -0.6148
  652MOL0     C87950   5.246   5.157   5.358  0.8555 -0.1289  0.0307
  652MOL0     C87951   5.360   5.081   5.329  0.3877 -0.7918 -0.7392
  652MOL0     C87952   5.421   5.088   5.194 -0.3275  0.3012 -0.0081
  652MOL0     H87953   5.781   5.008   5.310 -2.5223  0.4080  0.0386
  652MOL0     H87954   6.002   4.945   5.272 -0.6749  1.4493 -1.0743
  652MOL0     H87955   6.065   4.556   5.354 -1.5823  2.6732  0.9960
  652MOL0     H87956   6.141   4.515   5.192  1.8177  0.6909  0.1519
  652MOL0     H87957   6.333   4.516   5.359 -1.2624 -1.5547  0.5974
  652MOL0     H87958   6.281   4.672   5.415  0.9364  1.4998 -1.3197
  652MOL0     H87959   6.357   4.729   5.149  1.8481 -0.0297 -0.6428
  652MOL0     H87960   6.453   4.579   5.181 -0.1335  0.2442 -2.1062
  652MOL0     H87961   6.545   4.810   5.205  2.2006 -2.6894 -0.5638
  652MOL0     H87962   6.429   4.840   5.335  1.6914  0.0197  2.4771
  652MOL0     H87963   6.538   4.661   5.471 -0.7676  2.3590  0.4630
  652MOL0     H87964   6.668   4.655   5.340 -1.1133  0.3429 -2.7813
  652MOL0     H87965   6.690   4.909   5.373 -4.5235  1.0916 -1.4324
  652MOL0     H87966   6.575   4.895   5.501  0.0515  1.3660 -0.2173
  652MOL0     H87967   6.806   4.914   5.585 -2.6284  1.2516 -0.9033
  652MOL0     H87968   6.859   4.766   5.501 -0.6367 -1.8550  2.2607
  652MOL0     H87969   6.835   4.721   5.745  1.8627  0.6564 -1.0124
  652MOL0     H87970   6.677   4.788   5.750 -0.3061  1.0214 -0.9938
  652MOL0     H87971   6.886   4.523   5.554 -0.4261  1.9030 -0.6521
  652MOL0     H87972   6.722   4.197   5.663 -2.3491  2.1810  1.3736
  652MOL0     H87973   6.715   4.218   5.489 -1.8886  1.7966  0.6983
  652MOL0     H87974   6.951   4.290   5.464  2.1718  1.5821  0.6419
  652MOL0     H87975   6.977   4.301   5.634 -0.5786 -1.9103  1.5602
  652MOL0     H87976   6.922   4.051   5.472 -2.7460  0.6803  0.2613
  652MOL0     H87977   6.926   4.038   5.647 -0.1259 -0.9149 -1.0424
  652MOL0     H87978   7.164   4.158   5.612  1.8444 -0.6350 -1.3917
  652MOL0     H87979   7.154   4.083   5.460 -1.3050 -0.6696 -0.7007
  652MOL0     H87980   7.185   3.763   5.786 -1.2506  1.5040 -2.2470
  652MOL0     H87981   7.395   3.633   5.801  3.0151  2.3706  2.4292
  652MOL0     H87982   7.766   3.399   5.617  1.3856 -0.2503 -0.8416
  652MOL0     H87983   8.014   3.306   5.694 -1.1774 -4.2273  1.6525
  652MOL0     H87984   8.077   3.334   6.104  1.2877  1.0218  0.9192
  652MOL0     H87985   8.107   3.209   5.977  1.2172 -0.0652  0.1391
  652MOL0     H87986   8.268   3.213   6.159 -0.2940 -0.1353 -0.9337
  652MOL0     H87987   8.344   3.245   6.002  0.5488 -0.5215  0.1298
  652MOL0     H87988   8.411   3.458   6.053  1.7412 -1.2742  2.2867
  652MOL0     H87989   8.270   3.499   6.140 -2.0192 -0.6859 -2.7238
  652MOL0     H87990   8.477   3.312   6.272  0.8427  1.0623  0.2924
  652MOL0     H87991   8.320   3.362   6.322 -3.1495  2.1315 -2.3716
  652MOL0     H87992   8.543   3.464   6.407  3.6462 -0.1898 -1.6576
  652MOL0     H87993   8.426   3.595   6.352  1.9541  1.4748 -2.2845
  652MOL0     H87994   8.560   3.577   6.135 -2.1323  1.9414  1.6142
  652MOL0     H87995   8.632   3.653   6.278 -0.1196 -0.3371  1.1520
  652MOL0     H87996   8.790   3.517   6.143 -0.7731 -0.9452 -1.4473
  652MOL0     H87997   8.687   3.374   6.150  0.2913  0.6961 -0.1270
  652MOL0     H87998   8.831   3.541   6.377 -3.7919  2.4054 -0.5631
  652MOL0     H87999   8.745   3.385   6.412  1.8801 -1.0102  1.3729
  652MOL0     H88000   7.966   3.553   6.031 -0.3979  0.8100 -0.0701
  652MOL0     H88001   7.773   3.649   5.961  1.4893 -0.0738  0.9635
  652MOL0     H88002   7.552   3.852   5.482 -0.3841 -0.0044  0.4515
  652MOL0     H88003   7.349   4.004   5.472  1.0282 -0.6801  0.0584
  652MOL0     H88004   5.885   4.541   5.220 -3.2827 -0.8554  1.5892
  652MOL0     H88005   5.651   4.591   5.284 -1.4720  1.2569  2.4391
  652MOL0     H88006   5.410   4.966   5.653  3.4288 -0.3980 -1.5174
  652MOL0     H88007   5.217   5.081   5.689  1.0552  2.0238  0.5311
  652MOL0     H88008   4.994   5.394   5.423  2.1309  2.2627 -1.7815
  652MOL0     H88009   5.172   5.395   5.444  1.2815 -1.8468  1.2503
  652MOL0     H88010   5.088   5.542   5.577  0.7292 -0.6465 -1.5037
  652MOL0     H88011   5.171   5.423   5.673 -1.8803 -1.5334  2.1604
  652MOL0     H88012   4.995   5.519   5.801 -0.1788 -0.3319 -0.4339
  652MOL0     H88013   4.957   5.349   5.760 -0.8721 -0.6807 -0.6058
  652MOL0     H88014   4.802   5.443   5.568 -1.2113  2.7864 -1.3281
  652MOL0     H88015   4.760   5.489   5.729  0.0974 -0.9464  0.5223
  652MOL0     H88016   4.787   5.847   5.503  2.7218  2.7834  2.4702
  652MOL0     H88017   5.187   5.222   5.294 -0.4031 -0.3741  0.9180
  652MOL0     H88018   5.393   5.184   5.149  0.1998  2.6697  4.1921
  652MOL0     H88019   5.530   5.077   5.198 -0.4603 -0.9108  0.9338
  652MOL0     H88020   5.382   5.013   5.125  2.1130 -0.4201 -0.6964
  653MOL0     O88021   5.141   9.860   4.271  0.7019 -0.0418 -0.6810
  653MOL0     C88022   5.019   9.892   4.278 -0.1447 -1.3658  0.0758
  653MOL0     O88023   4.922   9.829   4.345 -0.0610 -0.3637 -0.7871
  653MOL0     C88024   4.952   9.702   4.405  0.2302 -0.3528 -0.3198
  653MOL0     C88025   4.884   9.668   4.523 -0.0290 -0.3724  0.5247
  653MOL0     C88026   4.893   9.540   4.585  0.7281  0.6803 -0.0592
  653MOL0     C88027   4.983   9.446   4.528 -0.5400 -0.1537 -1.3778
  653MOL0     O88028   5.021   9.345   4.609  0.5313 -0.4468 -1.3465
  653MOL0     C88029   5.160   9.304   4.598 -0.3890  0.9891 -0.3835
  653MOL0     C88030   5.194   9.207   4.712  0.8995  0.6685  0.3838
  653MOL0     C88031   5.101   9.074   4.694 -0.0266 -0.5998  0.4208
  653MOL0     C88032   5.129   8.993   4.568 -0.1152 -0.0428  0.3547
  653MOL0     C88033   5.093   8.844   4.567  0.1522 -0.3736 -0.2372
  653MOL0     C88034   4.948   8.823   4.599  0.2317 -0.7456 -0.4485
  653MOL0     C88035   4.913   8.679   4.588  0.0653  0.1601  0.5855
  653MOL0     C88036   4.770   8.672   4.619  1.0161 -0.4894  0.2080
  653MOL0     N88037   4.737   8.527   4.635  0.0734 -0.6064  0.3042
  653MOL0     C88038   4.729   8.459   4.753  0.0565 -0.7729 -0.3189
  653MOL0     C88039   4.674   8.348   4.721  0.5162  0.2040  0.4475
  653MOL0     C88040   4.655   8.225   4.813 -0.6604 -0.1057 -0.6831
  653MOL0     C88041   4.534   8.241   4.907 -0.1088  0.6335 -0.7479
  653MOL0     C88042   4.398   8.250   4.823  0.4057  0.2238  0.6002
  653MOL0     C88043   4.285   8.333   4.890  1.4886  0.0263  0.8422
  653MOL0     O88044   4.205   8.411   4.802 -0.7256  0.5471  0.6195
  653MOL0     C88045   4.224   8.545   4.775  0.0533  0.4081  0.4671
  653MOL0     C88046   4.118   8.635   4.753  0.1407  0.4872  0.2570
  653MOL0     C88047   4.138   8.767   4.720 -0.1745 -1.2248 -0.5575
  653MOL0     C88048   4.267   8.815   4.703 -0.1379  0.1633 -0.4193
  653MOL0     C88049   4.277   8.959   4.686  0.3126 -0.0770 -0.1634
  653MOL0     O88050   4.169   9.034   4.653  0.4060 -0.0552 -0.5074
  653MOL0     C88051   4.181   9.167   4.627 -0.2176 -0.7337 -1.4404
  653MOL0     C88052   4.302   9.244   4.575  0.2687  0.2462 -0.6105
  653MOL0     C88053   4.307   9.382   4.564 -0.5910  0.4866 -0.6400
  653MOL0     C88054   4.200   9.465   4.594 -1.2831  0.3744  0.7785
  653MOL0     O88055   4.199   9.603   4.575 -0.2333 -0.2354  0.5459
  653MOL0     C88056   4.077   9.660   4.526 -0.4872 -0.3348  0.4625
  653MOL0     C88057   4.107   9.805   4.500 -0.4633 -0.9886  0.2988
  653MOL0     C88058   3.984   9.891   4.467  0.5734 -0.5142  0.1346
  653MOL0     C88059   3.900   9.919   4.585 -0.3433 -0.3777 -0.5599
  653MOL0     C88060   3.745   9.947   4.552  0.0894 -0.3128 -0.0186
  653MOL0     C88061   3.675   9.856   4.442 -0.6786 -0.2984 -0.4544
  653MOL0     C88062   3.682   9.712   4.485 -0.8201 -0.1366  0.5902
  653MOL0     C88063   3.609   9.617   4.396  0.1431 -0.4036  0.3604
  653MOL0    Cl88064   3.636   9.455   4.464  0.0855  0.7621  0.2509
  653MOL0     C88065   4.082   9.395   4.642  0.0914  0.3233 -0.5166
  653MOL0     C88066   4.076   9.254   4.641  0.0415 -0.1817  0.4874
  653MOL0     O88067   4.391   9.000   4.681  0.5296 -0.0515 -0.0962
  653MOL0     C88068   4.378   8.732   4.729 -0.5742 -0.5278  0.2480
  653MOL0     C88069   4.354   8.599   4.764 -0.5977 -0.1801  0.6772
  653MOL0     N88070   4.659   8.338   4.585 -0.4447 -0.2742 -0.5455
  653MOL0     N88071   4.695   8.449   4.531 -0.4621 -0.5958 -0.6725
  653MOL0     C88072   5.056   9.483   4.415 -0.0129  0.5178 -0.3779
  653MOL0     C88073   5.030   9.608   4.348  1.1870 -0.0770  0.6791
  653MOL0     C88074   4.990  10.029   4.213  0.2003  0.5094  0.7036
  653MOL0     C88075   4.887  10.029   4.111  0.1329  0.2041 -0.2134
  653MOL0     C88076   4.852  10.146   4.057 -0.8030 -0.4986  0.4988
  653MOL0     C88077   4.901  10.268   4.099  0.1074  0.0620  0.5407
  653MOL0     O88078   4.854  10.388   4.057  0.2298  0.8627 -0.8127
  653MOL0     C88079   4.761  10.399   3.938 -0.4829  0.2921 -0.5018
  653MOL0     C88080   4.670  10.512   3.975  0.6464  0.2909  0.8363
  653MOL0     C88081   4.733  10.643   3.932  0.0585  0.0199 -0.1212
  653MOL0     C88082   4.628  10.753   3.939  0.0162  0.2821 -0.4220
  653MOL0     C88083   4.569  10.771   4.071  0.7468 -0.1313 -0.7413
  653MOL0     C88084   4.519  10.781   4.183  0.3132  0.2862  0.6697
  653MOL0     C88085   4.994  10.270   4.196 -0.2222  0.1299 -0.4190
  653MOL0     C88086   5.045  10.151   4.251  0.3029  1.1380  0.3305
  653MOL0     C88087   5.150  10.175   4.357 -0.2095  0.3228 -0.6783
  653MOL0     H88088   4.838   9.750   4.577  2.7054 -0.1875  2.7736
  653MOL0     H88089   4.829   9.502   4.664 -2.5679 -4.6340 -4.5281
  653MOL0     H88090   5.182   9.248   4.507 -0.1082 -1.2026  0.9507
  653MOL0     H88091   5.219   9.397   4.605  2.7063 -0.9177  1.4766
  653MOL0     H88092   5.168   9.260   4.804  0.6635  1.0140  0.1219
  653MOL0     H88093   5.300   9.179   4.717  0.5901 -0.3268  2.5181
  653MOL0     H88094   4.995   9.098   4.685  0.1869  0.2710  0.0983
  653MOL0     H88095   5.118   9.013   4.783 -1.6334  2.7809  3.2559
  653MOL0     H88096   5.075   9.043   4.487  2.9417 -2.4588 -3.5038
  653MOL0     H88097   5.235   8.997   4.539 -0.2424  4.1270 -0.2029
  653MOL0     H88098   5.119   8.799   4.471 -2.4066  1.3621 -1.8688
  653MOL0     H88099   5.147   8.797   4.650 -0.9955  1.0574  1.4024
  653MOL0     H88100   4.928   8.868   4.697 -0.6927  0.2018 -1.0518
  653MOL0     H88101   4.889   8.881   4.528  1.6939  1.5758  0.1292
  653MOL0     H88102   4.966   8.621   4.663  3.3272  2.6005  0.3984
  653MOL0     H88103   4.926   8.628   4.492 -1.3122 -0.4741  0.7230
  653MOL0     H88104   4.738   8.740   4.699  0.2298 -1.0702  0.4050
  653MOL0     H88105   4.712   8.713   4.536  1.6775  0.6484  0.2995
  653MOL0     H88106   4.768   8.489   4.850 -3.1553  2.3722  0.2241
  653MOL0     H88107   4.654   8.143   4.741 -1.0033  0.8166 -1.7422
  653MOL0     H88108   4.745   8.217   4.876 -0.1790  1.3270 -1.1561
  653MOL0     H88109   4.538   8.156   4.976  2.7569  1.5001  0.3080
  653MOL0     H88110   4.530   8.329   4.971 -0.8755  0.4211 -0.4888
  653MOL0     H88111   4.364   8.150   4.795 -1.9192  1.0596  0.2367
  653MOL0     H88112   4.426   8.302   4.730  1.7118 -0.4191  0.6077
  653MOL0     H88113   4.314   8.385   4.981  0.8406  3.4562 -0.7490
  653MOL0     H88114   4.219   8.255   4.930 -0.5936  1.7733  0.9525
  653MOL0     H88115   4.023   8.585   4.768  0.5782 -0.4645 -0.0062
  653MOL0     H88116   4.052   8.833   4.716 -0.4788 -1.4779  0.9257
  653MOL0     H88117   4.386   9.183   4.544 -0.5984 -0.0040 -2.6023
  653MOL0     H88118   4.396   9.433   4.528  1.2444 -0.2493  2.5299
  653MOL0     H88119   4.039   9.611   4.436 -0.5686 -2.3202  1.5209
  653MOL0     H88120   4.000   9.647   4.603  1.5699  0.3013  2.7697
  653MOL0     H88121   4.167   9.848   4.581  0.6472 -2.6426  0.3929
  653MOL0     H88122   4.177   9.805   4.417  1.1824  0.1503  1.6065
  653MOL0     H88123   4.011   9.988   4.423 -1.8669 -0.6513 -1.8909
  653MOL0     H88124   3.924   9.843   4.389 -1.4794 -0.1006  1.3796
  653MOL0     H88125   3.941  10.002   4.642 -2.3726  0.3569 -0.0845
  653MOL0     H88126   3.908   9.831   4.650 -0.2047 -1.1097 -1.5343
  653MOL0     H88127   3.740  10.049   4.512  0.0896 -1.1378 -2.2524
  653MOL0     H88128   3.682   9.948   4.642 -0.9911 -1.9902 -0.7206
  653MOL0     H88129   3.573   9.895   4.449  0.3328  2.4592  0.2999
  653MOL0     H88130   3.723   9.869   4.345 -2.7792  1.2079 -1.3700
  653MOL0     H88131   3.637   9.703   4.585 -0.5768 -0.5506  0.6643
  653MOL0     H88132   3.786   9.685   4.502  0.3008  1.9580 -2.2017
  653MOL0     H88133   3.501   9.628   4.390  0.0024 -1.0589  1.5664
  653MOL0     H88134   3.641   9.620   4.291  1.5882 -1.0482  0.7522
  653MOL0     H88135   4.001   9.459   4.677  4.6402  5.7368  1.5349
  653MOL0     H88136   3.976   9.223   4.670  0.0975 -3.1239 -1.9583
  653MOL0     H88137   4.482   8.764   4.727 -0.1057 -1.5812  3.0587
  653MOL0     H88138   4.438   8.531   4.765 -1.4695 -1.2786  1.6895
  653MOL0     H88139   5.135   9.419   4.377  2.8330  2.8474  1.1484
  653MOL0     H88140   5.080   9.620   4.252 -1.8335 -0.8861 -1.1295
  653MOL0     H88141   4.831   9.944   4.075 -1.5184  2.1221 -2.4794
  653MOL0     H88142   4.787  10.140   3.970 -0.0075  0.5856 -0.1960
  653MOL0     H88143   4.702  10.307   3.928 -1.7882  0.8529  1.5120
  653MOL0     H88144   4.815  10.401   3.843 -1.0252 -0.5388 -0.8349
  653MOL0     H88145   4.633  10.495   4.077 -0.6793  0.0847  0.3412
  653MOL0     H88146   4.577  10.501   3.919  2.6327  0.5573 -2.8357
  653MOL0     H88147   4.758  10.649   3.826  0.0863  1.0659 -0.0670
  653MOL0     H88148   4.822  10.653   3.995  0.1034 -2.7648  0.4242
  653MOL0     H88149   4.665  10.850   3.904 -2.2746  1.8387  1.1412
  653MOL0     H88150   4.543  10.727   3.876 -0.8091  4.4784 -1.4018
  653MOL0     H88151   4.483  10.781   4.284 -4.0360  0.4213 -0.6800
  653MOL0     H88152   5.030  10.361   4.243 -0.2682  0.8778 -1.8009
  653MOL0     H88153   5.169  10.075   4.397 -1.0821  0.3709 -0.1265
  653MOL0     H88154   5.242  10.228   4.330  1.2058 -0.4570  2.1417
  653MOL0     H88155   5.104  10.234   4.436 -1.5248  0.6325 -1.6472
  654MOL0     O88156   1.652   4.964   4.418 -0.9391  0.4561  0.6583
  654MOL0     C88157   1.767   5.017   4.415 -0.0468  0.2029 -0.9086
  654MOL0     O88158   1.830   5.077   4.304  0.2676  0.3010 -1.0885
  654MOL0     C88159   1.754   5.098   4.190  0.1233  0.5471 -0.3187
  654MOL0     C88160   1.780   5.022   4.071  0.1406 -0.4873 -0.1766
  654MOL0     C88161   1.716   5.056   3.954  0.0513 -0.0479 -0.7140
  654MOL0     C88162   1.629   5.168   3.944  0.4625  1.0994 -0.5465
  654MOL0     O88163   1.561   5.165   3.819 -0.5898  0.4229 -0.2345
  654MOL0     C88164   1.435   5.225   3.813 -0.1344 -0.1243  0.0949
  654MOL0     C88165   1.354   5.176   3.702 -0.1608  0.6939 -0.1104
  654MOL0     C88166   1.299   5.028   3.715 -0.2613  0.4128  0.1813
  654MOL0     C88167   1.234   4.982   3.584  0.6229 -0.8010 -0.2890
  654MOL0     C88168   1.332   4.926   3.479  0.5645  0.1782 -0.4705
  654MOL0     C88169   1.435   4.829   3.537 -0.4145  0.0324 -0.8230
  654MOL0     C88170   1.496   4.735   3.438 -0.2991 -0.7997  0.2570
  654MOL0     C88171   1.625   4.664   3.492 -0.6296  0.5178 -0.5503
  654MOL0     N88172   1.695   4.609   3.368  1.1793 -0.3107  1.1359
  654MOL0     C88173   1.798   4.671   3.303  0.8733  0.2552  0.0540
  654MOL0     C88174   1.831   4.587   3.205  0.5012 -0.6321 -0.1605
  654MOL0     C88175   1.963   4.569   3.150 -0.1679 -0.5325  0.1122
  654MOL0     C88176   1.972   4.581   2.996  0.4369  0.1395  0.0248
  654MOL0     C88177   1.953   4.455   2.915  0.0511  0.7567  0.1584
  654MOL0     C88178   2.024   4.323   2.965 -0.3091  0.5938  0.2074
  654MOL0     O88179   2.166   4.322   2.949  0.0059 -1.0923 -1.6109
  654MOL0     C88180   2.221   4.264   2.846 -0.0015  0.7097  0.6065
  654MOL0     C88181   2.346   4.201   2.861 -0.5108  0.1156  0.1122
  654MOL0     C88182   2.407   4.125   2.754  0.4557 -0.4918  0.5117
  654MOL0     C88183   2.331   4.106   2.634  0.1009  0.2827 -0.1218
  654MOL0     C88184   2.382   4.035   2.512 -0.5642  0.7559  0.3047
  654MOL0     O88185   2.517   4.046   2.490  0.2045 -0.5225  0.0892
  654MOL0     C88186   2.575   4.001   2.367  0.6625  0.2673 -0.5092
  654MOL0     C88187   2.697   3.946   2.376  1.0290  0.2566 -0.9219
  654MOL0     C88188   2.761   3.902   2.266  0.1090  0.6585 -0.3603
  654MOL0     C88189   2.706   3.913   2.135  0.1706 -0.2336 -0.0603
  654MOL0     O88190   2.780   3.870   2.024 -0.1479  0.1515 -0.2055
  654MOL0     C88191   2.851   3.747   2.032  0.2691 -0.3255 -0.9125
  654MOL0     C88192   3.000   3.777   2.042 -0.2201  0.1720  1.1448
  654MOL0     C88193   3.085   3.649   2.057 -0.5888 -0.4689  0.2520
  654MOL0     C88194   3.010   3.536   2.144 -0.1109  0.7194  0.4339
  654MOL0     C88195   3.090   3.406   2.159 -0.0532  1.1891  0.7001
  654MOL0     C88196   3.042   3.323   2.284  0.5937  0.1512 -0.0709
  654MOL0     C88197   3.116   3.186   2.273 -0.2645  0.3701  0.6217
  654MOL0     C88198   3.082   3.092   2.388 -0.5604  0.3832  0.4775
  654MOL0    Cl88199   2.902   3.057   2.411  0.0559  0.3867  0.4631
  654MOL0     C88200   2.585   3.979   2.119 -0.4344 -0.2139  0.5809
  654MOL0     C88201   2.513   4.027   2.237 -0.1391 -0.6688  0.4313
  654MOL0     O88202   2.301   3.979   2.440 -0.6776 -0.0127  0.1459
  654MOL0     C88203   2.201   4.168   2.622 -0.1435  0.3738  0.7217
  654MOL0     C88204   2.155   4.242   2.729  0.4315  1.3321 -0.5988
  654MOL0     N88205   1.728   4.495   3.193  0.2546 -0.6538 -0.6830
  654MOL0     N88206   1.651   4.504   3.298 -0.3000  0.0645 -0.3459
  654MOL0     C88207   1.595   5.242   4.057 -0.4454 -0.1471 -0.9001
  654MOL0     C88208   1.662   5.199   4.178  0.1591 -1.0132 -0.5388
  654MOL0     C88209   1.840   5.037   4.545  0.4420  0.2036 -1.0466
  654MOL0     C88210   1.844   5.161   4.614 -0.2118 -0.4635  0.2096
  654MOL0     C88211   1.889   5.180   4.745  0.9608 -0.0713  0.7265
  654MOL0     C88212   1.957   5.068   4.807  0.0171  0.2285 -0.0092
  654MOL0     O88213   2.017   5.101   4.928 -0.4334 -0.0137 -0.1370
  654MOL0     C88214   1.937   5.078   5.048 -0.2685 -0.5767 -0.3391
  654MOL0     C88215   1.996   5.173   5.149 -0.3037  0.4280 -0.0496
  654MOL0     C88216   1.936   5.314   5.135  0.0748 -0.2262  0.1165
  654MOL0     C88217   2.002   5.421   5.211  0.7307  0.5696 -0.4800
  654MOL0     C88218   1.914   5.533   5.228  0.4976 -0.2434 -0.3156
  654MOL0     C88219   1.842   5.627   5.235 -0.3284  0.0184  0.3543
  654MOL0     C88220   1.949   4.944   4.742 -0.8355 -0.0733  0.0196
  654MOL0     C88221   1.890   4.924   4.620 -1.5703 -0.2456  0.2022
  654MOL0     C88222   1.896   4.786   4.568 -0.0522  0.8503 -0.1224
  654MOL0     H88223   1.833   4.927   4.063 -0.9212 -1.0232 -1.0478
  654MOL0     H88224   1.727   5.002   3.861  2.3612 -1.3858  0.2643
  654MOL0     H88225   1.383   5.211   3.908  1.9410 -2.2805  1.0161
  654MOL0     H88226   1.452   5.332   3.802 -0.8200 -0.0823 -0.6373
  654MOL0     H88227   1.413   5.185   3.611 -1.3432 -0.8454 -1.0962
  654MOL0     H88228   1.268   5.244   3.698  1.8948  3.6602  1.8645
  654MOL0     H88229   1.220   5.028   3.791 -1.0070 -0.1480 -0.5676
  654MOL0     H88230   1.374   4.957   3.752 -1.3639 -0.6246  0.5123
  654MOL0     H88231   1.159   4.904   3.602  0.0802 -0.9341 -2.7076
  654MOL0     H88232   1.173   5.056   3.532 -0.7744 -1.8902 -0.2676
  654MOL0     H88233   1.264   4.881   3.407 -2.1382  2.6544  0.3296
  654MOL0     H88234   1.382   5.007   3.425 -0.2342  0.4521 -0.8108
  654MOL0     H88235   1.514   4.884   3.589 -1.5847  1.3758 -0.3761
  654MOL0     H88236   1.380   4.780   3.618 -2.4580  0.3787 -1.9427
  654MOL0     H88237   1.527   4.783   3.344 -0.0537 -0.6425  0.4170
  654MOL0     H88238   1.416   4.668   3.404 -0.8297 -0.3571  0.6243
  654MOL0     H88239   1.693   4.736   3.539  0.0499 -2.2544  3.1858
  654MOL0     H88240   1.610   4.588   3.569  1.5703  0.6084  0.0535
  654MOL0     H88241   1.867   4.741   3.350  0.6717  2.1626 -2.3017
  654MOL0     H88242   2.031   4.651   3.176 -1.8363  1.0541 -0.3383
  654MOL0     H88243   2.007   4.476   3.188 -0.0151  0.3351  2.2130
  654MOL0     H88244   1.903   4.656   2.955  0.6077  0.0888 -0.3603
  654MOL0     H88245   2.071   4.621   2.977 -0.3674  1.1546 -2.3815
  654MOL0     H88246   1.975   4.472   2.810  0.4469 -3.3223 -0.5797
  654MOL0     H88247   1.844   4.448   2.913 -0.3042  4.0263  1.0665
  654MOL0     H88248   1.977   4.232   2.925  0.2640 -0.4655  1.8309
  654MOL0     H88249   2.022   4.313   3.074 -0.8996 -0.4479  0.1155
  654MOL0     H88250   2.399   4.198   2.956 -1.3372  1.1707  0.6353
  654MOL0     H88251   2.506   4.081   2.765  0.1680 -0.5915  3.3487
  654MOL0     H88252   2.752   3.931   2.469  2.8635  1.3371 -1.7918
  654MOL0     H88253   2.861   3.862   2.274 -0.8037 -2.2911 -1.9381
  654MOL0     H88254   2.816   3.693   2.121 -1.1480 -0.2646 -1.4139
  654MOL0     H88255   2.827   3.681   1.948 -1.3014  1.2110 -1.7349
  654MOL0     H88256   3.028   3.813   1.942 -1.0703  3.9793  2.1026
  654MOL0     H88257   3.018   3.842   2.128 -0.1266 -0.9404  1.9735
  654MOL0     H88258   3.110   3.611   1.958 -1.0649 -2.0978  0.7187
  654MOL0     H88259   3.180   3.681   2.100 -1.6963  4.5723 -0.4144
  654MOL0     H88260   2.914   3.504   2.105  0.0047  1.5514 -0.5734
  654MOL0     H88261   2.993   3.576   2.245 -2.4990 -0.8228  0.6929
  654MOL0     H88262   3.198   3.418   2.165  0.4040 -0.4540 -2.2824
  654MOL0     H88263   3.071   3.341   2.073  3.2742 -1.4814  1.7902
  654MOL0     H88264   3.078   3.372   2.375  0.9435  0.2057 -0.2345
  654MOL0     H88265   2.933   3.322   2.282  0.5830 -0.1819 -2.0424
  654MOL0     H88266   3.224   3.193   2.256 -0.4295  1.1352 -0.1985
  654MOL0     H88267   3.082   3.143   2.178  0.2909  0.7036  0.2677
  654MOL0     H88268   3.138   3.001   2.366  1.1059  1.2425  0.9337
  654MOL0     H88269   3.112   3.129   2.487 -0.3618  2.7644 -0.4015
  654MOL0     H88270   2.550   3.997   2.018 -2.8626  0.5488  1.4841
  654MOL0     H88271   2.426   4.091   2.240  0.5278  0.2181  3.3198
  654MOL0     H88272   2.132   4.153   2.540  2.5711  1.2375 -1.9091
  654MOL0     H88273   2.059   4.291   2.715  0.1536  0.5685 -1.4715
  654MOL0     H88274   1.525   5.325   4.065  1.2958  1.2220  1.2048
  654MOL0     H88275   1.632   5.260   4.264  0.9365  0.5968 -1.3571
  654MOL0     H88276   1.815   5.250   4.559  3.0859  0.9244  0.5176
  654MOL0     H88277   1.868   5.278   4.785 -2.8895 -1.4910  2.7708
  654MOL0     H88278   1.961   4.975   5.075  3.5781  0.1267 -0.5061
  654MOL0     H88279   1.830   5.099   5.040 -0.8360 -1.6912  2.7500
  654MOL0     H88280   2.102   5.161   5.124 -0.1686 -4.9160  1.8445
  654MOL0     H88281   1.984   5.132   5.250  1.0737 -0.3031 -0.1538
  654MOL0     H88282   1.832   5.308   5.170 -1.3058  0.5811 -3.4558
  654MOL0     H88283   1.932   5.335   5.028  1.0992 -2.5060 -0.4365
  654MOL0     H88284   2.044   5.379   5.303 -0.3419 -1.4272 -0.8368
  654MOL0     H88285   2.094   5.450   5.160  2.7182 -0.5236  2.2485
  654MOL0     H88286   1.764   5.700   5.239 -0.5809 -0.2501  0.3761
  654MOL0     H88287   1.998   4.869   4.804  0.9167  2.7419  2.2957
  654MOL0     H88288   1.890   4.708   4.645 -2.1387  4.1127  3.3413
  654MOL0     H88289   1.808   4.769   4.505  0.6808 -1.9153 -0.5439
  654MOL0     H88290   1.985   4.772   4.506  0.4500 -2.0045  1.0713
  655MOL0     O88291   7.950   4.472   1.995  0.1120 -0.0014  0.0864
  655MOL0     C88292   7.962   4.500   2.114  0.6223  0.0424  1.1282
  655MOL0     O88293   8.039   4.430   2.203 -0.0561 -0.7142  0.0110
  655MOL0     C88294   8.101   4.320   2.155  0.0598 -0.2043 -0.3862
  655MOL0     C88295   8.203   4.322   2.059  0.5200 -0.1644  0.1721
  655MOL0     C88296   8.255   4.204   2.017 -0.0932  0.0707  0.0597
  655MOL0     C88297   8.215   4.079   2.059 -0.4390  0.0889  0.0098
  655MOL0     O88298   8.270   3.964   2.002  0.0342 -0.3719  0.6698
  655MOL0     C88299   8.382   3.903   2.069  0.1102 -0.3913 -1.2865
  655MOL0     C88300   8.509   3.931   1.986  0.2869 -0.6848 -0.6097
  655MOL0     C88301   8.520   3.818   1.877  0.1620 -0.6312  0.1776
  655MOL0     C88302   8.630   3.720   1.907 -0.3798 -0.9330 -0.6828
  655MOL0     C88303   8.615   3.631   2.031  0.5763 -0.7357 -0.1068
  655MOL0     C88304   8.705   3.503   2.015 -0.0525 -0.5289 -0.3468
  655MOL0     C88305   8.648   3.399   1.916 -0.6887 -0.3823  0.5470
  655MOL0     C88306   8.741   3.277   1.901 -0.1053  0.4024  0.1164
  655MOL0     N88307   8.866   3.323   1.845  0.1129 -0.2573  0.4192
  655MOL0     C88308   8.898   3.346   1.714 -1.0178 -0.2570 -0.7329
  655MOL0     C88309   9.016   3.427   1.724 -0.5243  1.4807 -0.7889
  655MOL0     C88310   9.068   3.520   1.613 -0.4427 -0.9039 -0.0557
  655MOL0     C88311   9.220   3.517   1.602 -0.3784 -0.9276 -0.2348
  655MOL0     C88312   9.284   3.592   1.489 -0.4837 -0.0347 -0.2336
  655MOL0     C88313   9.437   3.578   1.486 -0.7673  0.6820  0.6032
  655MOL0     O88314   9.519   3.657   1.578 -0.1963  0.3979  0.4183
  655MOL0     C88315   9.597   3.599   1.679 -0.3402 -0.3153  0.6614
  655MOL0     C88316   9.603   3.468   1.711  0.0607 -1.3253  0.3434
  655MOL0     C88317   9.673   3.429   1.824  0.6398  0.6191  0.7908
  655MOL0     C88318   9.738   3.525   1.901  0.2025  0.3793 -0.0483
  655MOL0     C88319   9.821   3.480   2.009 -0.8297 -0.3325 -0.6878
  655MOL0     O88320   9.823   3.345   2.042  0.0775 -0.6934 -0.6072
  655MOL0     C88321   9.934   3.302   2.103 -0.6041  0.4516  0.9248
  655MOL0     C88322   9.952   3.299   2.232 -0.8904 -0.1694 -0.4433
  655MOL0     C88323  10.073   3.244   2.293  0.1969 -0.4806 -0.9252
  655MOL0     C88324  10.174   3.186   2.210 -1.2704  0.2596 -0.8491
  655MOL0     O88325  10.290   3.122   2.250 -0.6778  0.1046 -0.2022
  655MOL0     C88326  10.311   3.102   2.389  0.1561  0.3341  0.6484
  655MOL0     C88327  10.438   3.035   2.444  0.2245 -0.0691  0.3601
  655MOL0     C88328  10.395   3.004   2.589 -0.0801  0.0066 -0.0138
  655MOL0     C88329  10.485   2.891   2.651 -0.2264 -0.1764 -0.3208
  655MOL0     C88330  10.641   2.917   2.653 -0.1459  0.4690 -0.0710
  655MOL0     C88331  10.721   2.811   2.718 -0.1645 -0.2502 -1.1491
  655MOL0     C88332  10.873   2.850   2.719  0.0865 -0.2100 -0.2411
  655MOL0     C88333  10.952   2.766   2.827 -0.0619 -0.2019 -1.3872
  655MOL0    Cl88334  10.990   2.880   2.969  0.6452  0.0788  0.2166
  655MOL0     C88335  10.146   3.183   2.072 -0.8320 -0.0873 -1.1495
  655MOL0     C88336  10.028   3.244   2.023 -0.4545  0.4992 -0.1007
  655MOL0     O88337   9.896   3.564   2.056 -0.2768 -0.3565 -0.2525
  655MOL0     C88338   9.741   3.658   1.858 -0.1186  0.9268  0.2793
  655MOL0     C88339   9.649   3.700   1.758  0.2997 -0.2554  0.7608
  655MOL0     N88340   9.062   3.417   1.850  1.1466 -0.1071 -0.5766
  655MOL0     N88341   8.969   3.358   1.922 -0.1537 -0.5685 -0.4195
  655MOL0     C88342   8.121   4.078   2.164 -0.4758  0.2167 -0.3121
  655MOL0     C88343   8.056   4.189   2.208  0.2591  0.1767  0.5499
  655MOL0     C88344   7.898   4.623   2.153  0.4032 -0.3991 -0.5594
  655MOL0     C88345   7.981   4.700   2.239  0.0125 -0.1541 -0.1953
  655MOL0     C88346   7.925   4.816   2.298 -0.9785  0.2331 -0.4502
  655MOL0     C88347   7.809   4.868   2.259  0.1685  0.1184  0.4982
  655MOL0     O88348   7.755   4.982   2.313  0.5154  0.5115 -0.1735
  655MOL0     C88349   7.843   5.090   2.350  0.9969  0.2480 -0.8143
  655MOL0     C88350   7.915   5.132   2.225  0.1739  0.1571  0.5551
  655MOL0     C88351   7.980   5.271   2.244  0.2898 -0.3239 -0.3849
  655MOL0     C88352   7.887   5.389   2.288 -0.8179  0.3069 -0.4625
  655MOL0     C88353   7.934   5.527   2.257  0.0075 -0.1275 -0.1684
  655MOL0     C88354   7.983   5.639   2.231  0.1252 -0.3469 -0.3932
  655MOL0     C88355   7.747   4.803   2.151  0.6266 -0.1568  0.1538
  655MOL0     C88356   7.786   4.683   2.099  0.4526  0.4323 -0.2730
  655MOL0     C88357   7.686   4.631   1.997 -0.0134  0.0488  0.5277
  655MOL0     H88358   8.249   4.410   2.015  2.1691 -0.7974  0.5385
  655MOL0     H88359   8.325   4.211   1.934  0.3986 -1.6963  0.3042
  655MOL0     H88360   8.384   3.953   2.167  0.3300 -1.9366 -0.4731
  655MOL0     H88361   8.381   3.796   2.090 -1.0978 -0.5215 -1.9218
  655MOL0     H88362   8.589   3.922   2.059 -0.2357  0.7545  0.1704
  655MOL0     H88363   8.504   4.027   1.934 -1.0844 -1.5000 -2.0842
  655MOL0     H88364   8.543   3.866   1.782 -0.4994 -1.3018 -0.3316
  655MOL0     H88365   8.421   3.771   1.867 -0.3270  0.6496 -1.3544
  655MOL0     H88366   8.634   3.656   1.818 -1.7108 -2.8534  0.5505
  655MOL0     H88367   8.721   3.779   1.913 -1.2482  0.2788  1.9410
  655MOL0     H88368   8.646   3.696   2.113  2.8433 -0.5836 -1.0432
  655MOL0     H88369   8.509   3.608   2.050 -1.0704  4.4614 -1.5969
  655MOL0     H88370   8.798   3.541   1.973  0.9903 -1.0653  1.3779
  655MOL0     H88371   8.718   3.453   2.112  0.8459 -2.7922 -1.5510
  655MOL0     H88372   8.630   3.455   1.824  1.8689 -0.3722 -0.0221
  655MOL0     H88373   8.552   3.374   1.962 -1.5602  3.1308  0.8860
  655MOL0     H88374   8.766   3.240   2.001 -1.3339 -0.5066  0.1144
  655MOL0     H88375   8.691   3.195   1.848 -1.8264  1.2416  0.3469
  655MOL0     H88376   8.839   3.334   1.624 -0.7094  2.0396 -1.2859
  655MOL0     H88377   9.026   3.482   1.519 -0.9176  1.5857 -0.9482
  655MOL0     H88378   9.023   3.619   1.630 -2.0672 -1.7979  1.0870
  655MOL0     H88379   9.275   3.539   1.694  1.1583 -1.7251 -0.9168
  655MOL0     H88380   9.253   3.413   1.589 -0.0499 -0.8711  0.1275
  655MOL0     H88381   9.259   3.698   1.503 -2.6884 -0.3711 -1.2606
  655MOL0     H88382   9.248   3.560   1.391 -4.0149  2.0868  0.1787
  655MOL0     H88383   9.460   3.612   1.385 -0.6497  2.6605  1.2412
  655MOL0     H88384   9.462   3.472   1.480 -3.0650  0.1783 -2.2393
  655MOL0     H88385   9.556   3.401   1.639 -1.3841  1.3037 -1.3287
  655MOL0     H88386   9.686   3.321   1.834  1.0011 -0.1271 -4.6144
  655MOL0     H88387   9.876   3.346   2.293 -0.6104  0.9247 -0.9169
  655MOL0     H88388  10.080   3.268   2.399  0.4382  1.5264 -1.3500
  655MOL0     H88389  10.317   3.200   2.438 -2.0062  0.8298  0.0546
  655MOL0     H88390  10.220   3.048   2.419 -0.9908  0.4643 -2.2987
  655MOL0     H88391  10.460   2.949   2.379 -3.4391 -2.6256  2.1454
  655MOL0     H88392  10.512   3.115   2.434 -0.4804  0.5037 -0.4409
  655MOL0     H88393  10.417   3.094   2.647 -0.5442  1.3190 -1.7566
  655MOL0     H88394  10.288   2.982   2.592 -0.7187  2.3132 -2.1457
  655MOL0     H88395  10.468   2.796   2.601 -4.1172  0.9012 -1.4276
  655MOL0     H88396  10.453   2.874   2.754  0.0960 -2.4573 -0.5456
  655MOL0     H88397  10.663   3.011   2.705  2.1435 -0.1507  0.1787
  655MOL0     H88398  10.668   2.922   2.548 -1.9448 -0.0811 -0.5883
  655MOL0     H88399  10.685   2.794   2.821  0.2282 -0.1038 -0.9859
  655MOL0     H88400  10.695   2.715   2.673  2.2246 -1.8512  0.6388
  655MOL0     H88401  10.908   2.951   2.742 -0.2181 -0.5862  2.1319
  655MOL0     H88402  10.910   2.826   2.619  1.7743 -0.0584  0.3143
  655MOL0     H88403  10.899   2.679   2.867  0.7822  0.8200  2.4147
  655MOL0     H88404  11.045   2.729   2.783  1.7364 -0.6879  2.4365
  655MOL0     H88405  10.204   3.124   2.001  0.2171  0.8867 -1.1473
  655MOL0     H88406  10.008   3.232   1.917  0.8736 -2.3228 -0.1138
  655MOL0     H88407   9.814   3.726   1.903  1.0326 -0.1573  0.1119
  655MOL0     H88408   9.646   3.806   1.734 -1.2643 -0.1320  1.3717
  655MOL0     H88409   8.098   3.982   2.211  1.8329 -0.9865 -1.4762
  655MOL0     H88410   7.985   4.192   2.290  1.2146  0.0118  1.4200
  655MOL0     H88411   8.076   4.658   2.272 -0.4078 -2.4194 -1.6536
  655MOL0     H88412   7.988   4.855   2.378 -0.4581 -0.0865 -0.7001
  655MOL0     H88413   7.914   5.059   2.428  0.2427 -2.9545 -1.2737
  655MOL0     H88414   7.786   5.165   2.406  2.8925  1.2863 -0.1804
  655MOL0     H88415   7.852   5.130   2.136  0.9758 -0.2095 -0.0113
  655MOL0     H88416   8.002   5.072   2.198 -0.4173 -0.3628 -0.2480
  655MOL0     H88417   8.033   5.300   2.153 -2.2113  2.9470 -0.9862
  655MOL0     H88418   8.062   5.257   2.316  1.0417  0.0031 -1.1558
  655MOL0     H88419   7.786   5.371   2.250 -0.0929 -2.1128 -1.4127
  655MOL0     H88420   7.879   5.374   2.397  1.7286 -2.4856 -0.5371
  655MOL0     H88421   8.019   5.739   2.227 -0.1442 -0.0162  2.7535
  655MOL0     H88422   7.681   4.866   2.092  2.7027  0.9645 -1.1085
  655MOL0     H88423   7.708   4.665   1.896  0.9539  0.6262  0.9151
  655MOL0     H88424   7.691   4.523   1.980 -1.3904  0.4174 -2.7870
  655MOL0     H88425   7.582   4.658   2.016 -0.8722 -2.0961 -0.7282
  656MOL0     O88426   9.000   1.482  10.811  0.2123 -0.4887 -0.2214
  656MOL0     C88427   9.003   1.580  10.738  0.3302  0.7679  0.8933
  656MOL0     O88428   8.992   1.713  10.779 -0.2495 -0.7457  0.2371
  656MOL0     C88429   8.976   1.746  10.905 -0.3306  0.1244  0.5996
  656MOL0     C88430   8.868   1.702  10.993 -0.6441  0.7350  0.8251
  656MOL0     C88431   8.861   1.729  11.134 -0.2301 -0.6019  1.7742
  656MOL0     C88432   8.949   1.829  11.181  0.3285  0.2864  0.1651
  656MOL0     O88433   8.948   1.880  11.303  0.6139 -1.0371 -0.0662
  656MOL0     C88434   8.830   1.875  11.385 -0.1251  1.4114 -0.1754
  656MOL0     C88435   8.880   1.935  11.515  0.0786  0.4788 -0.6819
  656MOL0     C88436   8.774   1.954  11.632  0.0107 -0.6857 -0.1956
  656MOL0     C88437   8.830   2.038  11.756 -0.2830  0.4835  1.0469
  656MOL0     C88438   8.706   2.069  11.849 -0.5426 -0.1812 -0.6986
  656MOL0     C88439   8.737   2.156  11.975 -0.1114  0.0097  0.2776
  656MOL0     C88440   8.738   2.305  11.937 -1.3360  0.0545 -0.6029
  656MOL0     C88441   8.779   2.406  12.044  0.4757 -0.3252  0.1518
  656MOL0     N88442   8.678   2.431  12.144  0.7190  0.1354  0.7680
  656MOL0     C88443   8.568   2.502  12.119 -0.4605  0.0808 -0.3849
  656MOL0     C88444   8.477   2.462  12.211  0.0152 -0.0428 -0.3857
  656MOL0     C88445   8.340   2.511  12.222 -0.3606 -0.2544  0.4145
  656MOL0     C88446   8.264   2.454  12.108 -0.6020  0.5664  0.5760
  656MOL0     C88447   8.122   2.506  12.105  0.4302 -0.4701  0.2790
  656MOL0     C88448   8.103   2.654  12.143  0.0763  0.1967 -0.1020
  656MOL0     O88449   8.096   2.670  12.286 -0.2592  0.2267  0.8698
  656MOL0     C88450   8.114   2.797  12.326 -0.3245 -1.1031  0.3385
  656MOL0     C88451   8.099   2.917  12.249 -0.0157 -0.0913 -0.7157
  656MOL0     C88452   8.137   3.043  12.304  0.7864  0.8560 -0.0033
  656MOL0     C88453   8.153   3.055  12.444 -1.0677  0.7117  0.6017
  656MOL0     C88454   8.170   3.192  12.499 -0.9727  0.0225 -0.4197
  656MOL0     O88455   8.145   3.296  12.421 -1.2177  0.4869 -0.8364
  656MOL0     C88456   8.145   3.419  12.490  0.1942 -0.0784  0.4897
  656MOL0     C88457   8.040   3.455  12.573 -0.4177 -0.5685 -1.2318
  656MOL0     C88458   8.046   3.584  12.637 -0.4168 -0.1954  0.2033
  656MOL0     C88459   8.165   3.660  12.640 -0.1244 -0.2180  0.2440
  656MOL0     O88460   8.175   3.781  12.708 -0.2249  0.2839 -0.5122
  656MOL0     C88461   8.237   3.894  12.628 -1.0378 -0.4915  0.0093
  656MOL0     C88462   8.184   4.022  12.698  0.6967  0.0876 -0.3071
  656MOL0     C88463   8.027   4.034  12.677 -0.6763 -1.0436 -0.0914
  656MOL0     C88464   7.980   4.178  12.712  0.0135  0.1546  0.5535
  656MOL0     C88465   7.827   4.187  12.726  0.0437  0.4356 -0.5404
  656MOL0     C88466   7.787   4.328  12.742  0.6527 -0.2858 -0.2078
  656MOL0     C88467   7.631   4.332  12.765 -0.6893  0.2530 -0.4857
  656MOL0     C88468   7.584   4.470  12.788 -0.0659 -0.6290  0.4953
  656MOL0    Cl88469   7.574   4.556  12.630  0.3798  0.3847  0.4227
  656MOL0     C88470   8.278   3.611  12.571  0.4018 -0.0215  0.7398
  656MOL0     C88471   8.265   3.496  12.494 -0.4884  0.5544 -0.7368
  656MOL0     O88472   8.221   3.194  12.614 -0.1619 -1.1446  0.8200
  656MOL0     C88473   8.145   2.947  12.522 -0.8172 -0.3925 -0.8841
  656MOL0     C88474   8.134   2.816  12.461  0.3147 -0.4280  0.6931
  656MOL0     N88475   8.535   2.361  12.290  0.3006 -0.4873 -0.4797
  656MOL0     N88476   8.655   2.346  12.252 -0.6717 -0.6998 -0.1904
  656MOL0     C88477   9.043   1.891  11.092 -0.0181 -0.2252  0.7050
  656MOL0     C88478   9.052   1.852  10.958 -0.9635 -0.3725 -0.1708
  656MOL0     C88479   9.015   1.563  10.595  0.5516 -0.1791 -0.8740
  656MOL0     C88480   8.944   1.650  10.515  0.7582 -0.2502  0.2452
  656MOL0     C88481   8.972   1.672  10.382  0.6237 -0.4732  0.5290
  656MOL0     C88482   9.052   1.583  10.323 -0.1759 -0.1035  0.4571
  656MOL0     O88483   9.050   1.586  10.186 -0.8107  0.3079 -0.4304
  656MOL0     C88484   9.051   1.470  10.111  0.1689  0.5044  0.6852
  656MOL0     C88485   8.935   1.369  10.131  0.2313 -0.3028  0.2206
  656MOL0     C88486   8.803   1.434  10.075  0.5536  1.1545 -0.6234
  656MOL0     C88487   8.789   1.479   9.926 -0.7980  0.2249  0.0627
  656MOL0     C88488   8.858   1.389   9.830  0.5717 -0.5170 -0.3419
  656MOL0     C88489   8.916   1.320   9.741  0.0968  0.3907 -0.6918
  656MOL0     C88490   9.123   1.484  10.396 -0.2017  0.5158  0.0132
  656MOL0     C88491   9.104   1.466  10.533  0.0475 -0.1918 -1.0939
  656MOL0     C88492   9.181   1.366  10.610  1.0791  0.2707  0.1780
  656MOL0     H88493   8.804   1.626  10.950 -1.2668  0.4368  2.1995
  656MOL0     H88494   8.788   1.674  11.192 -2.1023  0.8146  0.8506
  656MOL0     H88495   8.745   1.928  11.340 -0.1641  2.1260  0.7048
  656MOL0     H88496   8.816   1.768  11.404 -2.5741  1.7687  0.4408
  656MOL0     H88497   8.916   2.037  11.495 -2.0601  2.0220  2.4672
  656MOL0     H88498   8.956   1.875  11.566 -1.0725  0.3697  0.9927
  656MOL0     H88499   8.739   1.857  11.668 -4.9549  1.1568  0.8012
  656MOL0     H88500   8.686   2.007  11.594  0.9004  0.4030 -0.7991
  656MOL0     H88501   8.907   1.979  11.808 -1.3527 -3.2270 -1.2269
  656MOL0     H88502   8.864   2.136  11.721 -0.7955  1.4559  3.0750
  656MOL0     H88503   8.629   2.117  11.787 -1.1966  0.1567  0.3433
  656MOL0     H88504   8.669   1.970  11.876  0.2913 -0.7854 -1.6938
  656MOL0     H88505   8.655   2.140  12.046 -0.6879  1.2809 -0.0710
  656MOL0     H88506   8.829   2.118  12.019  0.5252 -1.0549 -1.8498
  656MOL0     H88507   8.640   2.328  11.893 -1.2818  1.1866 -0.1849
  656MOL0     H88508   8.819   2.305  11.864  1.0475 -0.9735  1.8504
  656MOL0     H88509   8.868   2.374  12.100 -1.6093 -1.0170  3.3838
  656MOL0     H88510   8.796   2.501  11.993  1.9433 -0.1754  0.8803
  656MOL0     H88511   8.552   2.566  12.033  0.0770  0.3507 -0.2877
  656MOL0     H88512   8.300   2.485  12.321 -0.1670  0.8755  0.7977
  656MOL0     H88513   8.333   2.620  12.223  1.9717 -0.0711  0.9778
  656MOL0     H88514   8.311   2.498  12.019 -1.8388  0.8036  0.0229
  656MOL0     H88515   8.258   2.345  12.096 -0.7166  0.5106  1.1435
  656MOL0     H88516   8.064   2.448  12.177  1.3041  0.2958  1.6225
  656MOL0     H88517   8.065   2.490  12.012 -4.6254  0.4328  2.8624
  656MOL0     H88518   8.012   2.687  12.092  0.5396 -2.0333 -2.6332
  656MOL0     H88519   8.184   2.716  12.103 -0.1462  0.8013  0.3820
  656MOL0     H88520   8.054   2.916  12.150 -3.7533 -3.0126  0.7618
  656MOL0     H88521   8.138   3.129  12.238  0.4463  1.5419  0.8609
  656MOL0     H88522   7.948   3.398  12.579 -0.0240 -1.0444  1.6677
  656MOL0     H88523   7.964   3.618  12.699  0.5626  1.4107  0.7057
  656MOL0     H88524   8.345   3.888  12.639 -1.0946 -0.9208  0.3792
  656MOL0     H88525   8.217   3.886  12.521  1.3166 -3.6987 -0.3146
  656MOL0     H88526   8.204   4.036  12.805  2.0778  0.0657 -0.5480
  656MOL0     H88527   8.228   4.113  12.656 -0.8097 -0.2188 -2.7251
  656MOL0     H88528   8.009   4.009  12.572 -0.1434  0.0791 -0.4638
  656MOL0     H88529   7.967   3.961  12.732 -0.2066 -2.1802 -1.0536
  656MOL0     H88530   8.020   4.228  12.624 -1.8027 -1.2954 -1.1899
  656MOL0     H88531   8.029   4.210  12.804  1.9913  2.1441 -1.0754
  656MOL0     H88532   7.786   4.133  12.812 -1.0200 -3.3527 -3.1629
  656MOL0     H88533   7.781   4.142  12.638 -0.3169 -0.9846  0.3310
  656MOL0     H88534   7.844   4.362  12.829  1.4320  0.9752 -1.1781
  656MOL0     H88535   7.818   4.395  12.662  0.6894 -0.7089 -0.5489
  656MOL0     H88536   7.622   4.268  12.853  2.0936 -0.3980 -0.5770
  656MOL0     H88537   7.576   4.293  12.678  1.1372 -0.4287 -1.3934
  656MOL0     H88538   7.486   4.458  12.834  0.3541 -0.0817  1.5454
  656MOL0     H88539   7.652   4.519  12.858 -0.5371 -0.0503  0.5484
  656MOL0     H88540   8.376   3.659  12.572  0.3417  0.3624  4.3423
  656MOL0     H88541   8.357   3.465  12.445  0.2594  0.8712  0.4140
  656MOL0     H88542   8.157   2.957  12.629 -0.1678 -0.9754 -0.8945
  656MOL0     H88543   8.144   2.732  12.530 -0.7331  0.3219  1.7991
  656MOL0     H88544   9.118   1.966  11.115  1.3702  0.1137 -3.9812
  656MOL0     H88545   9.132   1.893  10.897  1.5390 -2.0933  1.7204
  656MOL0     H88546   8.879   1.724  10.562  0.5960 -0.9366  1.1297
  656MOL0     H88547   8.921   1.754  10.334  1.3860 -0.4442 -0.2536
  656MOL0     H88548   9.143   1.413  10.127  0.0809 -0.3151 -1.3677
  656MOL0     H88549   9.057   1.501  10.007  2.3162 -1.0076  0.2830
  656MOL0     H88550   8.917   1.346  10.237 -2.7068  1.2797  0.1977
  656MOL0     H88551   8.965   1.279  10.077  2.3925  2.4484 -3.6473
  656MOL0     H88552   8.770   1.517  10.138 -1.0001  0.2038 -0.1486
  656MOL0     H88553   8.728   1.357  10.093 -0.5530  2.6117  1.3310
  656MOL0     H88554   8.682   1.485   9.901 -0.3071 -1.6663 -2.9796
  656MOL0     H88555   8.837   1.576   9.912  1.5390 -0.7140  1.0889
  656MOL0     H88556   8.947   1.254   9.663 -0.1097 -1.5896  0.8458
  656MOL0     H88557   9.192   1.416  10.346  0.4753  1.7566 -0.7810
  656MOL0     H88558   9.125   1.313  10.687  0.7642  0.5331  0.1339
  656MOL0     H88559   9.208   1.287  10.540 -1.5587 -1.3995  0.8992
  656MOL0     H88560   9.265   1.416  10.659 -0.5068  2.8327  0.4562
  657MOL0     O88561   5.713   9.095   5.398 -0.5427  0.0709 -0.6773
  657MOL0     C88562   5.662   9.174   5.483  0.2296 -0.1560 -0.4236
  657MOL0     O88563   5.582   9.289   5.455 -1.0917 -0.0315 -0.2467
  657MOL0     C88564   5.575   9.339   5.329 -0.0909 -0.4930  0.3497
  657MOL0     C88565   5.562   9.481   5.322 -0.4323  0.3695  0.8145
  657MOL0     C88566   5.555   9.545   5.194  0.0414 -0.1827 -0.7597
  657MOL0     C88567   5.571   9.470   5.072  0.7598 -0.0867 -0.7310
  657MOL0     O88568   5.573   9.528   4.952  0.5823 -0.5908  0.1544
  657MOL0     C88569   5.603   9.459   4.824  0.2898 -0.9703 -0.7356
  657MOL0     C88570   5.664   9.565   4.733  0.1733  0.0427  0.2894
  657MOL0     C88571   5.778   9.643   4.791 -0.0911  0.1867 -0.0267
  657MOL0     C88572   5.903   9.561   4.799 -0.0271  0.1696 -0.7764
  657MOL0     C88573   6.011   9.633   4.876  0.6385  0.3704  0.1614
  657MOL0     C88574   6.071   9.757   4.791 -0.0307  1.4286  0.9125
  657MOL0     C88575   6.196   9.821   4.847  0.6446  0.1557  0.8072
  657MOL0     C88576   6.176   9.929   4.959  0.1425 -0.1202 -0.2729
  657MOL0     N88577   6.304   9.974   4.996  0.2550 -0.5792 -0.5951
  657MOL0     C88578   6.402   9.916   5.077 -0.0247 -0.7476  0.0819
  657MOL0     C88579   6.504  10.000   5.063  0.0503  1.0550  0.3434
  657MOL0     C88580   6.630   9.945   5.119  0.1720  0.1060 -0.3354
  657MOL0     C88581   6.704   9.838   5.046 -0.1136  0.7277 -0.4522
  657MOL0     C88582   6.749   9.885   4.903  0.4207 -0.1023 -0.1929
  657MOL0     C88583   6.849  10.003   4.896 -0.4140 -0.8479 -0.5086
  657MOL0     O88584   6.946   9.990   4.993  0.0632  0.1811 -0.2577
  657MOL0     C88585   7.036   9.893   4.984  0.9021  0.8242  0.5059
  657MOL0     C88586   7.094   9.864   5.104 -0.2355 -0.9242 -0.0875
  657MOL0     C88587   7.193   9.764   5.121 -0.5345 -0.3571  0.1257
  657MOL0     C88588   7.236   9.693   5.009 -0.3708 -0.1866  0.7221
  657MOL0     C88589   7.342   9.594   5.017  0.8426  0.7589 -0.8170
  657MOL0     O88590   7.395   9.548   4.904 -0.5999 -0.2348  0.5345
  657MOL0     C88591   7.490   9.455   4.909 -0.2733  0.4528  0.3327
  657MOL0     C88592   7.588   9.431   5.006  1.0323  0.7940 -0.2090
  657MOL0     C88593   7.681   9.332   4.996  0.4082  1.1430  0.1388
  657MOL0     C88594   7.684   9.249   4.887 -1.0124 -0.3551 -0.2711
  657MOL0     O88595   7.782   9.150   4.875 -0.7226 -0.1035  0.2268
  657MOL0     C88596   7.812   9.090   4.750 -0.4515  0.1484 -0.1612
  657MOL0     C88597   7.956   9.033   4.754 -0.1922  1.1167 -0.1376
  657MOL0     C88598   8.059   9.135   4.797  0.3826 -0.6322 -0.3889
  657MOL0     C88599   8.208   9.085   4.797  0.8446 -0.1975 -0.2125
  657MOL0     C88600   8.303   9.203   4.811 -0.5141 -0.1846 -0.3995
  657MOL0     C88601   8.437   9.169   4.865 -0.3879  0.1290  0.2225
  657MOL0     C88602   8.548   9.125   4.768  0.4033  0.3661  0.9950
  657MOL0     C88603   8.631   9.010   4.815 -0.5119 -0.2862  0.1881
  657MOL0    Cl88604   8.525   8.866   4.814 -0.5307  0.4218  0.1581
  657MOL0     C88605   7.587   9.268   4.779 -0.8994  0.0099  0.0921
  657MOL0     C88606   7.497   9.372   4.801  0.3611 -0.3863  0.2951
  657MOL0     O88607   7.362   9.552   5.133 -0.4693 -0.2983  0.1355
  657MOL0     C88608   7.179   9.730   4.884 -0.0016  0.1276  0.4193
  657MOL0     C88609   7.075   9.821   4.870 -0.7255 -0.3417 -0.6640
  657MOL0     N88610   6.467  10.117   4.999  1.1938  0.2586  0.5706
  657MOL0     N88611   6.346  10.096   4.963  0.4646  0.3534 -1.0964
  657MOL0     C88612   5.569   9.333   5.089 -0.1467 -0.2289  0.4811
  657MOL0     C88613   5.576   9.270   5.214  1.0143 -0.4080  0.3598
  657MOL0     C88614   5.668   9.131   5.632 -0.4987  0.4317  0.2262
  657MOL0     C88615   5.594   9.205   5.723 -0.6475  0.2770 -0.2441
  657MOL0     C88616   5.582   9.174   5.862 -0.7072 -0.6090  0.3546
  657MOL0     C88617   5.648   9.061   5.913  0.9710 -0.3756 -0.3911
  657MOL0     O88618   5.640   9.024   6.047  0.6639 -0.2623 -0.1040
  657MOL0     C88619   5.750   8.944   6.106  0.9223 -0.7748  0.4319
  657MOL0     C88620   5.756   8.937   6.259  0.4862 -0.2278 -0.1306
  657MOL0     C88621   5.762   9.077   6.313 -0.0313 -1.1180 -0.2329
  657MOL0     C88622   5.800   9.083   6.465 -0.7786 -0.6801 -0.4928
  657MOL0     C88623   5.692   9.027   6.555  0.1081 -0.6510  0.1359
  657MOL0     C88624   5.606   8.972   6.622  0.8003 -0.3365  1.1779
  657MOL0     C88625   5.719   8.985   5.829 -0.4928 -0.2566 -0.1545
  657MOL0     C88626   5.732   9.018   5.689  0.2636  0.0164 -0.4401
  657MOL0     C88627   5.823   8.923   5.605 -0.5242 -0.7701 -0.0802
  657MOL0     H88628   5.562   9.550   5.405 -0.7878  0.1106  1.0307
  657MOL0     H88629   5.564   9.653   5.196  3.8280 -0.3710 -1.5142
  657MOL0     H88630   5.667   9.377   4.859 -0.8921  0.2146  5.2732
  657MOL0     H88631   5.506   9.422   4.790 -1.2898  0.6909  1.6289
  657MOL0     H88632   5.589   9.643   4.718  0.0970  0.5789  2.8614
  657MOL0     H88633   5.694   9.527   4.636  1.5710 -1.3329  1.2103
  657MOL0     H88634   5.754   9.690   4.887 -0.5470 -1.4656  0.7001
  657MOL0     H88635   5.804   9.733   4.734 -0.5073  1.2154  1.3499
  657MOL0     H88636   5.874   9.473   4.857  0.3580  1.2617  1.1523
  657MOL0     H88637   5.939   9.516   4.706 -1.1038 -1.9850 -0.2091
  657MOL0     H88638   5.977   9.669   4.974  1.2795  0.0526  0.5078
  657MOL0     H88639   6.092   9.560   4.881  1.2914  1.0618 -0.0807
  657MOL0     H88640   6.112   9.712   4.700  0.8726  1.8301  1.1108
  657MOL0     H88641   6.003   9.838   4.766  0.6706  2.0560  0.9995
  657MOL0     H88642   6.249   9.861   4.760  2.9770 -1.8500  1.2153
  657MOL0     H88643   6.267   9.747   4.883  3.0178  0.6405 -2.4027
  657MOL0     H88644   6.121  10.011   4.912  0.0543  0.2261  0.4251
  657MOL0     H88645   6.110   9.896   5.040 -2.3595 -0.8452 -2.4214
  657MOL0     H88646   6.397   9.816   5.119  0.1660  0.0309  2.0914
  657MOL0     H88647   6.690  10.036   5.123 -1.1034  0.9325  1.4913
  657MOL0     H88648   6.620   9.908   5.221  0.0030  1.7103  0.2602
  657MOL0     H88649   6.794   9.811   5.101  0.3098  1.2143 -0.8884
  657MOL0     H88650   6.640   9.749   5.043 -0.2013  0.7967 -0.6908
  657MOL0     H88651   6.660   9.912   4.846  1.8999 -0.9738 -3.0742
  657MOL0     H88652   6.793   9.796   4.857 -1.3194 -0.9927 -0.2485
  657MOL0     H88653   6.792  10.095   4.914  3.2086  1.6606 -0.9598
  657MOL0     H88654   6.887  10.020   4.795 -0.3374  2.4586 -0.0355
  657MOL0     H88655   7.045   9.913   5.187 -4.9442  2.0554 -4.0469
  657MOL0     H88656   7.233   9.749   5.221  0.9647 -0.2751 -0.4406
  657MOL0     H88657   7.593   9.503   5.087  4.3247  0.7322 -0.2454
  657MOL0     H88658   7.750   9.319   5.078 -0.3832  3.5739  1.2600
  657MOL0     H88659   7.740   9.015   4.715  1.3337 -1.5667 -0.3270
  657MOL0     H88660   7.829   9.170   4.678 -1.3357  0.7507  0.2792
  657MOL0     H88661   7.955   8.948   4.822  1.8980  0.6957 -0.5786
  657MOL0     H88662   7.964   8.996   4.652 -1.3274 -0.5222  0.3345
  657MOL0     H88663   8.044   9.228   4.743  0.2373 -0.7531 -0.5572
  657MOL0     H88664   8.038   9.159   4.902  3.6163  1.9101 -0.1787
  657MOL0     H88665   8.225   9.037   4.700  0.2828 -2.9915  0.9866
  657MOL0     H88666   8.221   9.011   4.876  2.1043 -1.2576 -1.3681
  657MOL0     H88667   8.255   9.269   4.884  1.0939  1.1337 -0.4841
  657MOL0     H88668   8.317   9.256   4.716  3.5523  0.4149  0.3565
  657MOL0     H88669   8.470   9.262   4.913 -3.6032 -0.4433  4.1353
  657MOL0     H88670   8.423   9.098   4.947  0.1462  1.2228  1.2903
  657MOL0     H88671   8.623   9.205   4.763 -1.2450  2.0085  1.6065
  657MOL0     H88672   8.512   9.114   4.665 -0.8348  0.5153  1.4038
  657MOL0     H88673   8.710   9.001   4.739 -0.4884  3.7023 -0.4396
  657MOL0     H88674   8.685   9.022   4.909  0.2195 -0.1804 -0.2367
  657MOL0     H88675   7.590   9.215   4.685  0.5257 -2.5269  1.4686
  657MOL0     H88676   7.417   9.369   4.728 -1.1359  0.5083  1.8244
  657MOL0     H88677   7.209   9.681   4.791  2.9994 -2.0756  2.3389
  657MOL0     H88678   7.027   9.843   4.775 -0.5953  1.1365 -0.4172
  657MOL0     H88679   5.584   9.267   5.005  3.2055  2.6243 -1.4442
  657MOL0     H88680   5.578   9.161   5.209  2.7555 -0.3606 -1.0967
  657MOL0     H88681   5.538   9.285   5.676  1.0013  0.6776 -1.6222
  657MOL0     H88682   5.528   9.235   5.934  0.1604 -2.0347  2.2871
  657MOL0     H88683   5.844   8.987   6.069 -0.7665 -0.7983 -4.6585
  657MOL0     H88684   5.750   8.842   6.067 -0.7131 -1.3834  1.8639
  657MOL0     H88685   5.848   8.885   6.288  0.7768  1.9512  3.4090
  657MOL0     H88686   5.670   8.882   6.300 -0.4221  1.1769 -0.0729
  657MOL0     H88687   5.667   9.126   6.290  0.9306  1.3622  0.7658
  657MOL0     H88688   5.844   9.130   6.264 -0.0879 -0.7594  0.0624
  657MOL0     H88689   5.880   9.011   6.483 -0.0178  0.3415  0.3445
  657MOL0     H88690   5.847   9.178   6.494 -1.2697 -0.6388  0.1787
  657MOL0     H88691   5.528   8.937   6.687  1.0281 -3.3438 -0.0028
  657MOL0     H88692   5.795   8.912   5.857  0.1216  0.2243 -0.5300
  657MOL0     H88693   5.893   8.991   5.555 -1.0335  0.8093  1.3059
  657MOL0     H88694   5.865   8.843   5.666  0.9364  0.7187  0.9408
  657MOL0     H88695   5.760   8.880   5.526  0.5378 -0.5714 -1.0703
  658MOL0     O88696   9.629  10.508   0.470  0.4754  0.1212 -0.1318
  658MOL0     C88697   9.543  10.551   0.545 -0.1900 -0.4603  0.2814
  658MOL0     O88698   9.553  10.669   0.610 -0.3917  0.9452  0.3966
  658MOL0     C88699   9.671  10.732   0.602  0.0597 -0.6116 -0.2071
  658MOL0     C88700   9.699  10.821   0.494  0.0377 -1.6110 -0.7051
  658MOL0     C88701   9.815  10.899   0.495  0.5036  0.7063 -1.1151
  658MOL0     C88702   9.900  10.889   0.607 -0.2254 -0.4954 -0.3389
  658MOL0     O88703  10.020  10.962   0.620 -0.0633 -0.2797  0.3520
  658MOL0     C88704  10.088  10.992   0.496 -0.0935  0.4956 -0.1149
  658MOL0     C88705  10.233  11.047   0.523  0.6634 -0.9024  0.1578
  658MOL0     C88706  10.241  11.163   0.622  0.0184  0.2504 -0.3856
  658MOL0     C88707  10.384  11.198   0.648 -0.1470 -0.3924  0.2158
  658MOL0     C88708  10.401  11.260   0.792 -0.8278  0.0927 -0.5933
  658MOL0     C88709  10.393  11.410   0.794 -0.4744 -0.6745  0.8716
  658MOL0     C88710  10.476  11.468   0.904  0.1746  0.3362 -0.4602
  658MOL0     C88711  10.447  11.411   1.048  0.4371 -0.3209  0.4223
  658MOL0     N88712  10.521  11.469   1.160 -0.4216 -0.1138 -1.1966
  658MOL0     C88713  10.631  11.550   1.151 -0.1923  0.2310  0.3797
  658MOL0     C88714  10.672  11.571   1.277 -0.0641  0.2638 -0.0312
  658MOL0     C88715  10.799  11.645   1.303  0.4832 -0.5162  0.2882
  658MOL0     C88716  10.896  11.556   1.374 -0.3077  0.2104  0.1067
  658MOL0     C88717  11.040  11.619   1.371  1.0938  0.0497  0.8295
  658MOL0     C88718  11.124  11.591   1.244 -0.3427  0.4045  0.4567
  658MOL0     O88719  11.135  11.451   1.213  0.7746 -0.5577  1.1746
  658MOL0     C88720  11.260  11.407   1.189  0.6422 -0.1247  0.6085
  658MOL0     C88721  11.342  11.452   1.083  0.1023 -0.1040 -0.1948
  658MOL0     C88722  11.465  11.389   1.055 -0.5631 -0.5461 -0.6779
  658MOL0     C88723  11.511  11.286   1.135 -0.0429 -0.2725 -0.8435
  658MOL0     C88724  11.634  11.205   1.096 -0.6480 -0.6057 -0.4273
  658MOL0     O88725  11.609  11.072   1.079 -0.0406  0.2125  0.2801
  658MOL0     C88726  11.703  10.998   1.015 -0.3588 -0.0037 -0.0515
  658MOL0     C88727  11.750  10.877   1.078  0.2845  0.2261  0.3907
  658MOL0     C88728  11.829  10.792   1.002 -0.5144  0.0109 -0.5751
  658MOL0     C88729  11.849  10.805   0.876 -0.4398 -0.5690 -0.2939
  658MOL0     O88730  11.931  10.722   0.813  0.6394 -0.4995  0.5307
  658MOL0     C88731  11.923  10.683   0.674 -0.3898  0.7456 -0.3381
  658MOL0     C88732  11.818  10.580   0.639 -0.4163  0.2253 -0.0107
  658MOL0     C88733  11.820  10.463   0.736 -0.1479  0.2734  0.8556
  658MOL0     C88734  11.687  10.386   0.728  0.5326 -0.2245 -0.3862
  658MOL0     C88735  11.678  10.263   0.815  0.4911  1.1459  0.1996
  658MOL0     C88736  11.541  10.199   0.788 -0.5969 -0.8257  0.0791
  658MOL0     C88737  11.502  10.103   0.906 -0.0481 -0.0438  1.0033
  658MOL0     C88738  11.615  10.022   0.956  0.1740 -0.0663 -0.3390
  658MOL0    Cl88739  11.695   9.928   0.831  0.0419 -0.2389  0.6251
  658MOL0     C88740  11.817  10.930   0.813  0.4268  0.1820  0.1317
  658MOL0     C88741  11.750  11.024   0.881  1.1765  0.2937 -1.1876
  658MOL0     O88742  11.746  11.259   1.084 -0.0357 -0.0478  0.6216
  658MOL0     C88743  11.424  11.238   1.236 -0.1058  0.7435  0.4543
  658MOL0     C88744  11.298  11.295   1.261 -0.4094  0.1851 -0.4458
  658MOL0     N88745  10.585  11.509   1.367  0.0279  0.2841  1.2479
  658MOL0     N88746  10.495  11.443   1.298  0.0552  0.0808 -0.1134
  658MOL0     C88747   9.870  10.800   0.715  0.4633  0.6083  0.8199
  658MOL0     C88748   9.761  10.719   0.709 -0.4338  0.5507  0.5525
  658MOL0     C88749   9.441  10.443   0.579  0.1968 -0.1692  0.5143
  658MOL0     C88750   9.383  10.373   0.466  0.2926  0.5844 -1.4638
  658MOL0     C88751   9.275  10.290   0.486 -0.2891 -0.1896 -0.0988
  658MOL0     C88752   9.225  10.273   0.613  0.3623 -0.6488  0.2657
  658MOL0     O88753   9.115  10.218   0.669 -0.0364 -0.0167  0.5472
  658MOL0     C88754   9.040  10.154   0.569 -0.3062 -0.2020  0.6652
  658MOL0     C88755   8.911  10.240   0.550  0.4255  0.5646 -0.8130
  658MOL0     C88756   8.807  10.190   0.652  0.5919  0.7923  0.0331
  658MOL0     C88757   8.689  10.286   0.640 -1.0952  0.1235  0.6252
  658MOL0     C88758   8.577  10.242   0.724 -0.5472 -0.5165 -0.8222
  658MOL0     C88759   8.485  10.198   0.783  0.8222  0.1303  0.1520
  658MOL0     C88760   9.291  10.330   0.723  0.5136  0.4625  0.5822
  658MOL0     C88761   9.400  10.412   0.709  0.7233 -0.2391 -0.0767
  658MOL0     C88762   9.469  10.464   0.826 -0.4174 -0.4677  0.0858
  658MOL0     H88763   9.625  10.833   0.415 -0.3457 -1.2383 -0.2936
  658MOL0     H88764   9.850  10.944   0.402  4.7295  0.3175  0.0962
  658MOL0     H88765  10.092  10.914   0.420 -3.0768  2.0505 -2.0571
  658MOL0     H88766  10.027  11.072   0.453 -2.3871  0.3821  2.6316
  658MOL0     H88767  10.272  11.082   0.427  2.8974  1.1267  1.6771
  658MOL0     H88768  10.289  10.959   0.556  2.4216 -0.8066 -2.2366
  658MOL0     H88769  10.179  11.137   0.709 -2.1909  1.9094 -1.3511
  658MOL0     H88770  10.183  11.249   0.588  0.0072  1.1480  1.7417
  658MOL0     H88771  10.442  11.107   0.634 -0.2432 -0.5232  0.6471
  658MOL0     H88772  10.423  11.270   0.575 -0.2643  0.0012  0.5394
  658MOL0     H88773  10.327  11.220   0.861 -0.2374  1.5936  0.9801
  658MOL0     H88774  10.500  11.226   0.824 -0.4091  0.5849 -1.3260
  658MOL0     H88775  10.419  11.452   0.696 -0.5159 -0.2851  1.0255
  658MOL0     H88776  10.292  11.450   0.802 -0.4502 -0.0651 -1.1499
  658MOL0     H88777  10.457  11.575   0.898 -0.2859  0.1924 -1.9376
  658MOL0     H88778  10.579  11.449   0.873  0.5982  3.2421 -1.0351
  658MOL0     H88779  10.342  11.432   1.068  0.7318  0.2766  1.4320
  658MOL0     H88780  10.468  11.304   1.052  2.5634  0.0242 -0.1278
  658MOL0     H88781  10.679  11.579   1.059  0.5559 -3.8422 -0.7156
  658MOL0     H88782  10.841  11.692   1.212 -2.1453 -2.4265 -2.0818
  658MOL0     H88783  10.776  11.723   1.376 -2.0351  0.7595 -1.6745
  658MOL0     H88784  10.855  11.550   1.476 -2.0791  2.9283 -0.3266
  658MOL0     H88785  10.882  11.459   1.326 -6.0629  0.5275  0.4730
  658MOL0     H88786  11.103  11.580   1.451  2.2729  0.1536 -0.0173
  658MOL0     H88787  11.031  11.726   1.390 -0.3887  0.1018  0.0002
  658MOL0     H88788  11.219  11.645   1.240 -0.1588  0.0105 -2.4603
  658MOL0     H88789  11.074  11.635   1.157 -1.3656 -1.1432  0.2241
  658MOL0     H88790  11.312  11.538   1.024  1.3582 -0.0684 -0.8114
  658MOL0     H88791  11.527  11.419   0.971  1.5194  0.5990  1.1598
  658MOL0     H88792  11.726  10.862   1.183  2.7490  1.7232  1.2372
  658MOL0     H88793  11.866  10.701   1.049 -0.2530 -0.9623 -2.5493
  658MOL0     H88794  11.913  10.766   0.603 -1.7476  0.8082 -0.0890
  658MOL0     H88795  12.025  10.646   0.656 -0.5287  0.0987  0.2051
  658MOL0     H88796  11.724  10.636   0.637 -0.3723  0.2942 -0.3424
  658MOL0     H88797  11.836  10.541   0.538  0.4389 -4.0390  1.6202
  658MOL0     H88798  11.899  10.393   0.708  0.9921  1.3465  1.3466
  658MOL0     H88799  11.834  10.498   0.838 -0.5379 -0.8357  1.3038
  658MOL0     H88800  11.660  10.364   0.624 -0.2632 -0.8947 -0.0528
  658MOL0     H88801  11.612  10.462   0.755  1.4074 -0.1847  2.1873
  658MOL0     H88802  11.694  10.289   0.920 -2.6586 -0.1890  1.1194
  658MOL0     H88803  11.753  10.190   0.780  0.2975  1.7179 -1.5253
  658MOL0     H88804  11.463  10.271   0.761 -1.4075 -0.9781  1.8574
  658MOL0     H88805  11.555  10.132   0.702  0.6385  0.5413 -0.8270
  658MOL0     H88806  11.420  10.038   0.873 -1.0775  2.0037 -0.6616
  658MOL0     H88807  11.465  10.166   0.987  2.0638  2.0228  0.4608
  658MOL0     H88808  11.687  10.093   0.998  0.6683 -0.9625  0.3638
  658MOL0     H88809  11.576   9.959   1.037  1.4400 -0.1250  0.2452
  658MOL0     H88810  11.861  10.943   0.714  0.5199 -3.3151 -0.4023
  658MOL0     H88811  11.733  11.125   0.842  0.9964  0.1386 -1.5194
  658MOL0     H88812  11.457  11.157   1.301  2.5916  1.2318 -0.1913
  658MOL0     H88813  11.233  11.256   1.339 -0.9120  0.9286 -0.4859
  658MOL0     H88814   9.941  10.793   0.797 -0.5762  0.0489  1.7014
  658MOL0     H88815   9.735  10.654   0.792 -0.7474 -0.6857 -0.4670
  658MOL0     H88816   9.409  10.373   0.361  1.0471 -2.1410 -1.3549
  658MOL0     H88817   9.228  10.254   0.395 -2.1853  1.3159  0.2077
  658MOL0     H88818   9.012  10.052   0.596 -3.5326  0.2770 -0.4398
  658MOL0     H88819   9.087  10.140   0.470  1.2394  0.3378  1.2835
  658MOL0     H88820   8.871  10.204   0.454  0.7932 -3.4002  0.3477
  658MOL0     H88821   8.912  10.349   0.554 -1.3114  0.5672  1.9438
  658MOL0     H88822   8.860  10.201   0.747  4.1464  1.4505 -1.8394
  658MOL0     H88823   8.785  10.084   0.643  1.6624  0.2862  2.5579
  658MOL0     H88824   8.718  10.387   0.673 -0.7557  0.4950 -0.7408
  658MOL0     H88825   8.654  10.294   0.537  2.0791 -3.0808 -0.9268
  658MOL0     H88826   8.394  10.147   0.807 -0.4396  2.0927 -0.2202
  658MOL0     H88827   9.259  10.323   0.826  1.7342  0.4046  0.9735
  658MOL0     H88828   9.456  10.571   0.840  4.5957  0.7196 -2.0795
  658MOL0     H88829   9.414  10.426   0.913 -1.3935  0.2531 -0.2003
  658MOL0     H88830   9.574  10.433   0.819  0.1563  1.6776 -2.0221
  659MOL0     O88831   0.717   9.739   8.794 -0.2220  0.1589 -0.7606
  659MOL0     C88832   0.822   9.705   8.739 -0.2325 -0.4915  0.3859
  659MOL0     O88833   0.869   9.579   8.716  0.6485  0.1098  0.1761
  659MOL0     C88834   0.828   9.478   8.795 -0.2113  0.1657 -0.8478
  659MOL0     C88835   0.866   9.361   8.733  0.1718  0.2976 -0.2316
  659MOL0     C88836   0.814   9.240   8.783 -0.5719 -0.4619 -0.8210
  659MOL0     C88837   0.749   9.234   8.904 -0.5516 -0.3680 -0.1320
  659MOL0     O88838   0.703   9.112   8.948  0.3798  0.0762 -0.7651
  659MOL0     C88839   0.587   9.112   9.021  0.8132  0.0238  1.0179
  659MOL0     C88840   0.519   8.978   9.010 -0.1449 -0.4417  0.6234
  659MOL0     C88841   0.585   8.872   9.089 -0.5581  0.3654 -0.4390
  659MOL0     C88842   0.501   8.748   9.090  0.0057 -0.6479 -1.1581
  659MOL0     C88843   0.539   8.654   9.199  0.3039  0.4279  0.5611
  659MOL0     C88844   0.448   8.529   9.204 -0.5409  0.2500  0.4470
  659MOL0     C88845   0.500   8.440   9.319  0.8309 -0.8265  0.0509
  659MOL0     C88846   0.488   8.290   9.282  0.0523  0.3305  0.8386
  659MOL0     N88847   0.523   8.208   9.398  0.3539 -0.1793 -0.5665
  659MOL0     C88848   0.491   8.213   9.533  0.3444  0.0851 -0.9983
  659MOL0     C88849   0.544   8.101   9.589  1.4025 -0.0063  0.5337
  659MOL0     C88850   0.528   8.041   9.730 -0.2213  0.3133  0.1548
  659MOL0     C88851   0.390   7.967   9.757  0.3907 -0.1897  0.3379
  659MOL0     C88852   0.326   8.032   9.881 -1.3524  0.2340 -0.4551
  659MOL0     C88853   0.404   8.002  10.012 -0.5435 -0.8018 -0.3943
  659MOL0     O88854   0.326   8.010  10.129  0.5993 -0.3327  0.4059
  659MOL0     C88855   0.261   7.898  10.178  0.5907 -0.6379 -0.3919
  659MOL0     C88856   0.248   7.774  10.119  0.2912 -0.0820  0.2735
  659MOL0     C88857   0.186   7.677  10.197 -0.2698  0.0645 -0.1724
  659MOL0     C88858   0.110   7.710  10.313  0.2217 -0.4293 -1.0623
  659MOL0     C88859   0.035   7.610  10.380 -0.1134  1.2100 -0.1759
  659MOL0     O88860  -0.003   7.632  10.501 -0.3337  0.1096  0.6781
  659MOL0     C88861  -0.012   7.529  10.588  0.4810  0.3657 -0.3747
  659MOL0     C88862  -0.131   7.448  10.580 -0.9813 -0.0109  0.1096
  659MOL0     C88863  -0.159   7.351  10.673 -0.4163  0.3166 -0.3301
  659MOL0     C88864  -0.069   7.331  10.779 -1.6398 -0.8542  0.2377
  659MOL0     O88865  -0.086   7.241  10.887  0.1566  0.1781  0.1270
  659MOL0     C88866  -0.171   7.126  10.857  0.2009  0.2542 -0.1787
  659MOL0     C88867  -0.182   7.009  10.962  0.3577  0.3595  0.1024
  659MOL0     C88868  -0.157   7.047  11.114 -0.3501 -0.7800  0.6180
  659MOL0     C88869  -0.180   6.940  11.216 -0.3959  0.6389 -0.1435
  659MOL0     C88870  -0.100   6.803  11.188  0.7769 -0.2081 -0.1500
  659MOL0     C88871  -0.140   6.675  11.269 -1.4251 -0.4041  1.2520
  659MOL0     C88872  -0.082   6.679  11.409  1.0653 -0.7774 -0.0618
  659MOL0     C88873  -0.165   6.596  11.510  1.2174 -0.2866  1.1027
  659MOL0    Cl88874  -0.088   6.586  11.672 -0.1445 -0.0100 -0.3871
  659MOL0     C88875   0.059   7.394  10.780  0.4381 -0.2619 -0.1517
  659MOL0     C88876   0.079   7.495  10.689  0.2484  0.3477  0.0995
  659MOL0     O88877   0.021   7.501  10.326 -0.0236 -0.5296  0.7083
  659MOL0     C88878   0.129   7.830  10.372  0.1773 -0.6659  0.0241
  659MOL0     C88879   0.204   7.924  10.301 -0.7692  0.2020 -0.1981
  659MOL0     N88880   0.609   8.027   9.493  0.3380 -0.0294 -0.6153
  659MOL0     N88881   0.604   8.091   9.384  0.2552 -0.2473 -0.7867
  659MOL0     C88882   0.719   9.350   8.970 -0.2198  1.0749 -0.6400
  659MOL0     C88883   0.758   9.474   8.921  0.2497 -0.4762  0.3040
  659MOL0     C88884   0.911   9.822   8.680  1.1122  0.6774 -0.1578
  659MOL0     C88885   0.888   9.956   8.732  1.0511 -0.2403 -0.4607
  659MOL0     C88886   0.962  10.072   8.697 -0.0826  0.2182 -0.4757
  659MOL0     C88887   1.065  10.048   8.607  0.4411  0.6674  0.4182
  659MOL0     O88888   1.151  10.148   8.574 -0.1909  0.3948 -0.6317
  659MOL0     C88889   1.195  10.249   8.669 -1.4343  0.1281 -0.1667
  659MOL0     C88890   1.142  10.382   8.616 -0.4403 -1.3925  0.0621
  659MOL0     C88891   1.187  10.488   8.709  0.1211  0.8613 -0.8406
  659MOL0     C88892   1.129  10.633   8.672 -0.9254  1.1181  0.0462
  659MOL0     C88893   1.215  10.661   8.556 -0.6787  0.7629  0.7910
  659MOL0     C88894   1.286  10.688   8.457  0.7105 -0.6865  0.7716
  659MOL0     C88895   1.074   9.923   8.534  0.6526  0.3734  0.8865
  659MOL0     C88896   0.997   9.813   8.571  0.7081 -0.3964 -0.1484
  659MOL0     C88897   0.989   9.695   8.474 -0.1281  0.5797  0.2077
  659MOL0     H88898   0.928   9.371   8.644  0.2773 -0.9195 -0.3095
  659MOL0     H88899   0.839   9.145   8.736 -0.4781 -0.7273 -0.2408
  659MOL0     H88900   0.614   9.128   9.126  2.7455  1.3179  0.3888
  659MOL0     H88901   0.516   9.179   8.972 -1.4849 -4.3602 -2.2808
  659MOL0     H88902   0.505   8.943   8.907  2.1644  0.3092  0.0073
  659MOL0     H88903   0.414   8.997   9.034 -0.5069  1.8617 -2.2151
  659MOL0     H88904   0.584   8.907   9.192 -0.2814  1.0805 -0.6725
  659MOL0     H88905   0.689   8.851   9.062 -0.3330  1.6488 -0.6091
  659MOL0     H88906   0.394   8.772   9.093 -0.1815 -1.4645 -0.9590
  659MOL0     H88907   0.514   8.694   8.996  1.2505 -0.9410 -0.8369
  659MOL0     H88908   0.644   8.629   9.182 -0.0374 -0.4677 -0.3238
  659MOL0     H88909   0.535   8.698   9.299 -2.5695  3.8141 -0.8362
  659MOL0     H88910   0.339   8.536   9.210 -0.7709 -0.7853 -1.5986
  659MOL0     H88911   0.453   8.467   9.114 -2.8483 -0.7249  0.9228
  659MOL0     H88912   0.444   8.452   9.413 -0.1182 -1.6025 -0.4107
  659MOL0     H88913   0.604   8.457   9.350  1.0428 -0.2057 -0.9692
  659MOL0     H88914   0.390   8.249   9.259  1.7496 -4.7754  1.4952
  659MOL0     H88915   0.546   8.272   9.191 -3.3252  1.1168 -1.6335
  659MOL0     H88916   0.432   8.280   9.594  0.0902 -1.2601  0.2974
  659MOL0     H88917   0.613   7.977   9.757  1.7911  3.1744  1.0266
  659MOL0     H88918   0.525   8.134   9.788  0.4551  1.9660 -2.3124
  659MOL0     H88919   0.315   7.989   9.681  1.8604  0.6298 -0.9449
  659MOL0     H88920   0.414   7.861   9.768  2.3791 -0.0092 -1.3640
  659MOL0     H88921   0.229   7.985   9.895 -0.4474 -1.0288  2.4227
  659MOL0     H88922   0.297   8.134   9.857 -2.0688  0.0803 -0.2557
  659MOL0     H88923   0.478   8.083  10.016 -2.9918  1.5129  1.9730
  659MOL0     H88924   0.456   7.906  10.003  3.5373  1.2325 -0.4945
  659MOL0     H88925   0.284   7.758  10.018 -0.4814  1.8422 -0.3468
  659MOL0     H88926   0.167   7.585  10.141  1.3862 -0.2306 -0.2896
  659MOL0     H88927  -0.195   7.483  10.499  1.7404  0.1830 -2.0963
  659MOL0     H88928  -0.260   7.312  10.659 -0.8995  1.5656 -0.4525
  659MOL0     H88929  -0.271   7.171  10.847 -0.4495 -1.0671  0.1498
  659MOL0     H88930  -0.144   7.086  10.759  0.1420  0.1724 -0.1626
  659MOL0     H88931  -0.279   6.959  10.957  0.6476 -0.4900  2.1140
  659MOL0     H88932  -0.111   6.931  10.933  0.8463  0.5463  0.7853
  659MOL0     H88933  -0.051   7.076  11.109 -0.5111 -0.3203 -2.1941
  659MOL0     H88934  -0.208   7.140  11.140  2.0544  1.2457 -1.2694
  659MOL0     H88935  -0.286   6.916  11.212  0.3869 -4.9641  3.0117
  659MOL0     H88936  -0.152   6.960  11.320 -0.0780 -0.2273 -0.0520
  659MOL0     H88937   0.005   6.824  11.211  2.6350 -3.0850 -4.6706
  659MOL0     H88938  -0.107   6.783  11.081  1.7701  1.5090 -0.5594
  659MOL0     H88939  -0.249   6.676  11.277 -1.3927 -1.3515  2.0354
  659MOL0     H88940  -0.117   6.577  11.228 -3.1079  0.9063 -3.4605
  659MOL0     H88941  -0.078   6.781  11.448  1.6477 -0.4555 -0.9359
  659MOL0     H88942   0.016   6.631  11.393 -0.4196 -3.1904 -3.1500
  659MOL0     H88943  -0.266   6.637  11.514  0.2848 -2.0786 -1.2659
  659MOL0     H88944  -0.179   6.492  11.478 -1.7193  0.8409 -1.8192
  659MOL0     H88945   0.140   7.384  10.851 -1.0173  2.4063  2.0691
  659MOL0     H88946   0.167   7.559  10.689  1.2845 -1.0096  0.5434
  659MOL0     H88947   0.090   7.866  10.466  2.5316  0.3371  0.6933
  659MOL0     H88948   0.226   8.020  10.346 -1.3939  0.8657 -1.2614
  659MOL0     H88949   0.682   9.346   9.072  0.4062  0.7648 -0.4217
  659MOL0     H88950   0.734   9.564   8.977 -1.8383 -1.3340  0.8962
  659MOL0     H88951   0.811   9.988   8.801 -0.2133 -1.2158 -1.3836
  659MOL0     H88952   0.934  10.158   8.756 -1.2490  1.0851 -2.2106
  659MOL0     H88953   1.304  10.254   8.672 -1.4517  0.2209  1.7758
  659MOL0     H88954   1.170  10.238   8.775  0.2536  1.0986  0.3706
  659MOL0     H88955   1.034  10.373   8.603 -0.3795 -2.2792  0.1257
  659MOL0     H88956   1.180  10.397   8.515  0.7865  0.9830  0.7993
  659MOL0     H88957   1.295  10.502   8.715  0.1168  0.2640  2.5988
  659MOL0     H88958   1.151  10.458   8.808 -0.7345  1.0256 -1.0938
  659MOL0     H88959   1.023  10.637   8.645 -0.6796  4.0626 -0.8206
  659MOL0     H88960   1.152  10.708   8.748 -1.7078  1.5141 -0.1001
  659MOL0     H88961   1.339  10.726   8.372  0.8871 -2.4160  0.0720
  659MOL0     H88962   1.146   9.911   8.453  0.4784 -1.2057  0.9290
  659MOL0     H88963   0.888   9.695   8.433  0.7694  0.0972 -2.1862
  659MOL0     H88964   1.047   9.713   8.383 -1.1426 -0.6063 -0.7018
  659MOL0     H88965   1.012   9.594   8.509 -2.2453 -0.7831 -2.0167
  660MOL0     O88966  11.163   6.163  10.962  0.3843 -0.4361 -0.3829
  660MOL0     C88967  11.069   6.234  10.951 -0.7253  0.0306  0.2523
  660MOL0     O88968  10.966   6.230  11.034 -0.3619  0.1075 -0.4067
  660MOL0     C88969  10.941   6.127  11.115  0.3762  0.5076 -0.1407
  660MOL0     C88970  10.995   5.994  11.099 -0.7510  0.6786  0.7383
  660MOL0     C88971  10.956   5.894  11.181 -0.6374  0.1865  0.2873
  660MOL0     C88972  10.892   5.922  11.305  1.0118  0.7058 -0.2292
  660MOL0     O88973  10.855   5.835  11.400 -0.3977 -0.3399  0.5617
  660MOL0     C88974  10.893   5.694  11.379  0.2762 -0.0712 -0.2248
  660MOL0     C88975  10.881   5.622  11.520 -0.0967  0.0933 -0.3580
  660MOL0     C88976  10.740   5.595  11.580  0.8396 -0.8338 -0.4105
  660MOL0     C88977  10.744   5.531  11.713 -1.0096  0.9131 -0.2904
  660MOL0     C88978  10.605   5.506  11.780  0.0790 -0.4122  0.0455
  660MOL0     C88979  10.497   5.438  11.701 -0.7328  0.1587 -0.0074
  660MOL0     C88980  10.524   5.289  11.692  0.4978  0.1113 -0.3786
  660MOL0     C88981  10.460   5.216  11.816 -0.2182 -0.1868 -0.5058
  660MOL0     N88982  10.457   5.071  11.790 -0.0511  0.8461  0.6174
  660MOL0     C88983  10.556   4.982  11.789  0.0209 -0.7467 -0.3211
  660MOL0     C88984  10.499   4.863  11.768  0.7166  0.1922 -0.0100
  660MOL0     C88985  10.561   4.730  11.783  0.0861 -0.9674  0.1501
  660MOL0     C88986  10.548   4.683  11.932 -1.0628  0.3627 -0.5264
  660MOL0     C88987  10.418   4.603  11.944 -0.7262 -0.6766 -0.8328
  660MOL0     C88988  10.425   4.519  12.077  0.1131 -0.1601  0.4852
  660MOL0     O88989  10.446   4.599  12.195 -0.8859  0.5258  0.7389
  660MOL0     C88990  10.441   4.517  12.311  0.3448 -0.2354 -0.3776
  660MOL0     C88991  10.318   4.480  12.361  0.9125 -0.3946 -0.3624
  660MOL0     C88992  10.313   4.378  12.464  1.0036 -0.1357 -0.2003
  660MOL0     C88993  10.429   4.333  12.532  0.4842 -0.1010 -0.1192
  660MOL0     C88994  10.428   4.235  12.632 -0.7286  0.3126  1.5750
  660MOL0     O88995  10.309   4.227  12.703 -0.3890  0.9720  0.6875
  660MOL0     C88996  10.291   4.130  12.801  0.1686 -0.3058 -0.7523
  660MOL0     C88997  10.327   4.000  12.807  0.1231  0.2861  0.5556
  660MOL0     C88998  10.290   3.917  12.915 -0.5195 -0.6198  0.0201
  660MOL0     C88999  10.248   3.976  13.040 -0.4280 -0.9044 -0.2054
  660MOL0     O89000  10.238   3.922  13.167  0.4549  0.7895  0.0851
  660MOL0     C89001  10.311   3.799  13.186  0.6708 -0.0873  0.0435
  660MOL0     C89002  10.273   3.741  13.319  1.0349 -0.5182  1.0460
  660MOL0     C89003  10.300   3.589  13.314  0.1328 -0.4447 -0.8711
  660MOL0     C89004  10.222   3.532  13.436  0.6375  0.3303  0.5526
  660MOL0     C89005  10.264   3.571  13.576  0.2060  0.0823  0.7304
  660MOL0     C89006  10.398   3.500  13.619  0.2895 -0.4588 -0.4625
  660MOL0     C89007  10.442   3.512  13.768 -0.8831  0.0066 -0.4944
  660MOL0     C89008  10.534   3.401  13.811  0.5924 -0.4009 -1.2861
  660MOL0    Cl89009  10.654   3.373  13.681  0.4488  0.4652  0.3390
  660MOL0     C89010  10.217   4.113  13.032  0.2595  0.2625 -0.7642
  660MOL0     C89011  10.239   4.186  12.915 -0.3789 -0.9464 -0.5151
  660MOL0     O89012  10.531   4.169  12.651  0.3194 -0.6507  0.6690
  660MOL0     C89013  10.547   4.397  12.491  0.4389  0.1386 -0.0449
  660MOL0     C89014  10.554   4.491  12.385 -0.2761  0.4539 -0.7368
  660MOL0     N89015  10.372   4.886  11.716 -0.0917  0.0881  0.6999
  660MOL0     N89016  10.341   5.011  11.741 -0.3756 -1.2913 -0.2225
  660MOL0     C89017  10.837   6.050  11.322  0.7631 -0.3759 -1.2510
  660MOL0     C89018  10.868   6.150  11.233  0.7580 -0.1626  0.6647
  660MOL0     C89019  11.090   6.345  10.866 -0.3895  0.1885  1.0506
  660MOL0     C89020  11.064   6.467  10.928  0.0012 -0.4238 -0.0845
  660MOL0     C89021  11.076   6.596  10.869 -0.8235  0.9123 -0.3103
  660MOL0     C89022  11.112   6.603  10.739 -0.0966  0.4251 -0.2099
  660MOL0     O89023  11.135   6.719  10.666  0.7398  0.1366  0.3849
  660MOL0     C89024  11.257   6.778  10.696 -0.1441 -0.8094  0.2291
  660MOL0     C89025  11.354   6.763  10.580 -0.3426 -0.3910 -0.0394
  660MOL0     C89026  11.313   6.818  10.449  0.0637  0.0559 -0.3558
  660MOL0     C89027  11.409   6.810  10.332  0.4240 -0.3257  0.8112
  660MOL0     C89028  11.484   6.692  10.318 -1.0816  0.9361 -0.8295
  660MOL0     C89029  11.532   6.588  10.291  0.3960  0.2094 -0.1065
  660MOL0     C89030  11.153   6.485  10.679 -0.0369 -0.4470  0.2021
  660MOL0     C89031  11.139   6.354  10.736 -0.1915  0.8427  0.7454
  660MOL0     C89032  11.166   6.243  10.628  0.1954  0.2464 -0.5381
  660MOL0     H89033  11.040   5.956  11.008  1.1685 -1.8961  2.6097
  660MOL0     H89034  10.990   5.796  11.150  0.9886 -0.4839  3.7714
  660MOL0     H89035  10.834   5.644  11.302 -0.6078 -0.2549  0.5419
  660MOL0     H89036  10.997   5.693  11.345  0.4892 -2.2384  0.3653
  660MOL0     H89037  10.921   5.693  11.592 -2.0231 -1.1198  2.0579
  660MOL0     H89038  10.932   5.526  11.513 -0.8461 -0.2059 -2.8381
  660MOL0     H89039  10.694   5.539  11.497  0.2731  1.1459 -1.5052
  660MOL0     H89040  10.677   5.683  11.599  2.1650  0.9548 -3.5459
  660MOL0     H89041  10.798   5.436  11.710 -0.3675  1.2372  0.5479
  660MOL0     H89042  10.798   5.597  11.783 -1.4439 -1.3535  2.3667
  660MOL0     H89043  10.626   5.453  11.874  1.1635  1.2850  0.8021
  660MOL0     H89044  10.562   5.602  11.808  2.0582  0.3809  0.4988
  660MOL0     H89045  10.397   5.455  11.742 -1.3022  0.4409 -1.4810
  660MOL0     H89046  10.501   5.486  11.603  2.3799  2.7535  1.2104
  660MOL0     H89047  10.629   5.267  11.673  1.3480  2.3127  1.3811
  660MOL0     H89048  10.469   5.246  11.607  1.8410 -0.8953 -0.7707
  660MOL0     H89049  10.521   5.240  11.904  2.1979  1.2660 -2.4721
  660MOL0     H89050  10.358   5.249  11.842 -0.4648 -0.9897 -0.4204
  660MOL0     H89051  10.662   4.994  11.811 -1.0214  1.9186  4.5215
  660MOL0     H89052  10.507   4.670  11.709 -1.1600  1.9057 -1.4819
  660MOL0     H89053  10.663   4.747  11.746 -0.1264  2.5933  0.7941
  660MOL0     H89054  10.635   4.621  11.951  0.2807  2.3553  0.2097
  660MOL0     H89055  10.551   4.771  11.997 -0.9358  1.2301 -1.6593
  660MOL0     H89056  10.405   4.534  11.860  0.2654 -0.7114 -0.9752
  660MOL0     H89057  10.333   4.672  11.949  1.3767  2.1460 -1.1929
  660MOL0     H89058  10.492   4.434  12.061 -0.7581 -0.2234 -4.3591
  660MOL0     H89059  10.327   4.469  12.078  0.9901 -2.0017 -0.4808
  660MOL0     H89060  10.236   4.508  12.296 -1.2636 -2.7617  1.1517
  660MOL0     H89061  10.217   4.335  12.491  2.6850 -2.2727  3.0751
  660MOL0     H89062  10.377   3.954  12.723  0.7670 -0.4854  1.3329
  660MOL0     H89063  10.327   3.815  12.912  3.0150  0.4867  0.9622
  660MOL0     H89064  10.277   3.734  13.104 -0.4082  0.7154 -0.1691
  660MOL0     H89065  10.419   3.814  13.179  0.8111  0.7429  2.7681
  660MOL0     H89066  10.343   3.787  13.389 -0.6467  0.6698  2.0155
  660MOL0     H89067  10.169   3.764  13.343  0.1783 -1.4526 -1.4260
  660MOL0     H89068  10.249   3.549  13.225 -1.1772 -3.9000  1.2379
  660MOL0     H89069  10.407   3.564  13.312 -0.0974 -1.8767  1.2917
  660MOL0     H89070  10.230   3.424  13.420  0.2002  0.5539 -1.5295
  660MOL0     H89071  10.117   3.562  13.426  1.1756  2.6127  1.2628
  660MOL0     H89072  10.183   3.548  13.646 -0.9492  0.3494 -0.4759
  660MOL0     H89073  10.282   3.678  13.593  1.0937  0.0915 -0.2181
  660MOL0     H89074  10.384   3.395  13.593  2.3520 -0.8699 -0.0843
  660MOL0     H89075  10.475   3.545  13.555 -1.9399  0.6035 -2.5651
  660MOL0     H89076  10.350   3.528  13.826 -0.7310  1.0096 -0.4979
  660MOL0     H89077  10.498   3.606  13.774  3.1177 -2.1482 -0.9497
  660MOL0     H89078  10.579   3.422  13.908  0.7573 -1.6803 -1.0579
  660MOL0     H89079  10.473   3.316  13.843 -0.2942  1.3985  2.2786
  660MOL0     H89080  10.179   4.173  13.114 -0.3651  0.0280 -0.8750
  660MOL0     H89081  10.207   4.290  12.921  0.5124 -0.6240 -1.0395
  660MOL0     H89082  10.639   4.375  12.544 -0.5112 -2.4632  0.6613
  660MOL0     H89083  10.645   4.540  12.351  0.2660  0.1078  0.2117
  660MOL0     H89084  10.773   6.068  11.409  0.5499 -2.6565 -0.8684
  660MOL0     H89085  10.822   6.247  11.250 -1.0461 -1.2920  2.7495
  660MOL0     H89086  11.037   6.464  11.033 -2.7762 -0.7760 -0.7181
  660MOL0     H89087  11.053   6.690  10.917 -0.7871  1.9797 -2.2937
  660MOL0     H89088  11.302   6.753  10.792  1.5829  1.2167  0.0374
  660MOL0     H89089  11.236   6.885  10.703  3.9792  0.1350  1.4324
  660MOL0     H89090  11.363   6.658  10.552 -1.4725  0.0562 -2.3123
  660MOL0     H89091  11.450   6.810  10.605  0.1272 -1.1798 -0.3222
  660MOL0     H89092  11.279   6.922  10.457 -0.0226 -0.0216  0.3094
  660MOL0     H89093  11.225   6.764  10.410  1.0716 -0.9104 -1.3700
  660MOL0     H89094  11.348   6.820  10.242 -1.1365  0.9078  1.9444
  660MOL0     H89095  11.468   6.902  10.324  0.0374 -0.1605 -0.2804
  660MOL0     H89096  11.568   6.490  10.264  2.7151  1.2511 -1.0849
  660MOL0     H89097  11.182   6.482  10.575 -0.8763 -1.3779 -0.0167
  660MOL0     H89098  11.174   6.140  10.665  1.2728 -1.6200 -5.2183
  660MOL0     H89099  11.087   6.259  10.555  0.4959 -0.6339 -1.0699
  660MOL0     H89100  11.262   6.265  10.580 -1.1976  2.9242 -2.3486
  661MOL0     O89101   7.103   0.352   6.843 -0.1221 -0.2148  0.0193
  661MOL0     C89102   7.214   0.408   6.844 -0.4598 -0.2479  0.7309
  661MOL0     O89103   7.246   0.531   6.791  1.7044  0.1894 -0.0224
  661MOL0     C89104   7.155   0.566   6.696  0.9736  0.3189 -0.4211
  661MOL0     C89105   7.126   0.489   6.589  0.4278 -0.7014 -0.0461
  661MOL0     C89106   7.028   0.526   6.500 -0.6932  0.5276 -0.3557
  661MOL0     C89107   6.952   0.639   6.517  0.2752 -0.1571  0.0900
  661MOL0     O89108   6.844   0.656   6.426 -0.3589  0.2714 -0.4551
  661MOL0     C89109   6.720   0.623   6.484 -0.1891  0.8411  0.2124
  661MOL0     C89110   6.632   0.741   6.497 -0.1116  0.9798  1.3304
  661MOL0     C89111   6.491   0.712   6.557  0.8671  0.2356  0.5476
  661MOL0     C89112   6.383   0.663   6.461 -0.2248 -0.5527 -0.1901
  661MOL0     C89113   6.313   0.776   6.391  0.0384  0.5672  0.5627
  661MOL0     C89114   6.209   0.732   6.277  0.4092  0.2712 -0.5044
  661MOL0     C89115   6.149   0.860   6.210  0.3483 -0.1314 -0.0238
  661MOL0     C89116   6.025   0.836   6.124  0.7177 -0.1756  0.3426
  661MOL0     N89117   6.066   0.757   6.007 -0.8264 -0.1257 -1.0010
  661MOL0     C89118   6.150   0.805   5.911  0.1619 -0.2505  0.1116
  661MOL0     C89119   6.192   0.696   5.837 -0.0643 -0.8204  0.4009
  661MOL0     C89120   6.280   0.683   5.719 -0.4020 -0.0454 -0.9341
  661MOL0     C89121   6.236   0.782   5.616 -0.1363 -0.1955 -0.4777
  661MOL0     C89122   6.344   0.809   5.505  0.6813  0.0026  0.2936
  661MOL0     C89123   6.382   0.678   5.425 -0.5888  0.9844  0.1451
  661MOL0     O89124   6.476   0.591   5.488  0.1296 -0.7521  0.1420
  661MOL0     C89125   6.605   0.615   5.463 -0.8411  0.6913  0.0075
  661MOL0     C89126   6.699   0.674   5.556  0.4883  0.3671  0.9197
  661MOL0     C89127   6.830   0.703   5.519 -0.2032 -0.5250 -1.0885
  661MOL0     C89128   6.885   0.686   5.392  0.3310  0.0053  0.2565
  661MOL0     C89129   7.020   0.731   5.353  0.2121  0.0909 -0.4769
  661MOL0     O89130   7.087   0.665   5.258  0.1921  0.3749 -0.7674
  661MOL0     C89131   7.215   0.710   5.226  0.5108 -0.7301 -0.3765
  661MOL0     C89132   7.230   0.843   5.180 -0.4386 -0.1211  0.5079
  661MOL0     C89133   7.357   0.873   5.131  0.1074  0.4971  0.7567
  661MOL0     C89134   7.468   0.788   5.143 -0.1439  0.4144 -0.7773
  661MOL0     O89135   7.598   0.827   5.114 -0.4097 -0.0898  0.8029
  661MOL0     C89136   7.638   0.966   5.081 -0.3325 -0.2070  0.1254
  661MOL0     C89137   7.767   0.978   5.016 -0.1458 -0.0184  0.5554
  661MOL0     C89138   7.757   0.939   4.869 -0.2956  0.6494 -1.0589
  661MOL0     C89139   7.896   0.955   4.793 -0.0008 -0.3893 -0.4761
  661MOL0     C89140   7.915   0.831   4.711  0.1136  0.0327  0.1374
  661MOL0     C89141   8.057   0.794   4.675  0.3645 -0.2009  0.1114
  661MOL0     C89142   8.071   0.652   4.621 -0.8429  0.2886  0.4424
  661MOL0     C89143   8.213   0.608   4.587  0.0936  0.0460 -0.7570
  661MOL0    Cl89144   8.291   0.702   4.455 -0.4250 -0.1643 -0.3066
  661MOL0     C89145   7.455   0.657   5.178 -0.2341 -0.4122 -0.1709
  661MOL0     C89146   7.327   0.621   5.234  0.4709  0.2711 -0.1711
  661MOL0     O89147   7.060   0.830   5.417  0.2864  0.1637 -1.0941
  661MOL0     C89148   6.796   0.616   5.304 -0.0149  0.1296  0.4338
  661MOL0     C89149   6.654   0.594   5.334  0.2144  0.0946  0.6097
  661MOL0     N89150   6.119   0.589   5.891 -0.2033  0.0967  1.0944
  661MOL0     N89151   6.045   0.623   5.985  0.1075 -0.0328 -0.4748
  661MOL0     C89152   6.970   0.721   6.627  0.3304 -1.4209 -0.6225
  661MOL0     C89153   7.065   0.676   6.716 -0.2796  0.2876 -0.6207
  661MOL0     C89154   7.332   0.349   6.930  0.0371  0.3981  0.0746
  661MOL0     C89155   7.310   0.248   7.025  0.4331  0.6573 -0.3461
  661MOL0     C89156   7.400   0.202   7.111  0.0275 -0.4730 -0.2401
  661MOL0     C89157   7.534   0.245   7.088  0.3160  0.2641 -0.1338
  661MOL0     O89158   7.646   0.201   7.153  0.4449 -0.3436  0.5085
  661MOL0     C89159   7.637   0.077   7.222  0.7001 -0.4552  0.7346
  661MOL0     C89160   7.775   0.043   7.270 -0.9650  0.2330 -0.9359
  661MOL0     C89161   7.866   0.161   7.311 -0.9772 -0.3804  0.5152
  661MOL0     C89162   8.004   0.107   7.356  0.5817  0.0844  0.2582
  661MOL0     C89163   8.089   0.204   7.430 -0.0186  1.1165 -0.4110
  661MOL0     C89164   8.158   0.255   7.513  0.2086 -0.3589 -0.2518
  661MOL0     C89165   7.567   0.337   7.001  0.5573 -0.4297  0.3035
  661MOL0     C89166   7.470   0.399   6.923 -0.4288 -0.1387  0.7964
  661MOL0     C89167   7.514   0.507   6.827 -0.2733 -0.7794 -0.3868
  661MOL0     H89168   7.175   0.393   6.577 -1.4376 -1.9630  1.8348
  661MOL0     H89169   6.996   0.470   6.413 -2.5793 -0.4666  0.9407
  661MOL0     H89170   6.674   0.559   6.409  2.0136 -0.6602  0.0473
  661MOL0     H89171   6.718   0.576   6.583  0.8444 -1.1357 -0.6530
  661MOL0     H89172   6.616   0.778   6.396 -1.0632  0.7381  1.3907
  661MOL0     H89173   6.675   0.826   6.551 -0.2526  3.2382 -1.8532
  661MOL0     H89174   6.459   0.809   6.597  2.4253  1.2950 -0.6569
  661MOL0     H89175   6.510   0.639   6.636 -1.3484 -0.2557  0.6984
  661MOL0     H89176   6.423   0.596   6.385 -0.0512  1.5196 -2.0277
  661MOL0     H89177   6.307   0.607   6.516  0.3157 -0.2354  0.9302
  661MOL0     H89178   6.269   0.835   6.473  2.0543  0.8325  1.5027
  661MOL0     H89179   6.382   0.846   6.344 -1.0195  0.4922 -1.1818
  661MOL0     H89180   6.257   0.667   6.203 -1.5927  1.5353 -3.0652
  661MOL0     H89181   6.130   0.670   6.319  1.2931 -0.2812  0.4009
  661MOL0     H89182   6.237   0.909   6.166  1.4942 -0.5570  1.7032
  661MOL0     H89183   6.114   0.920   6.295 -0.1871  0.8468 -0.9032
  661MOL0     H89184   5.945   0.789   6.183 -1.1709  3.5638  1.0508
  661MOL0     H89185   5.974   0.921   6.078 -2.0927 -0.4667  2.6265
  661MOL0     H89186   6.188   0.906   5.898 -2.7728  0.9023 -0.1867
  661MOL0     H89187   6.375   0.718   5.761 -0.4695 -0.7466 -0.1619
  661MOL0     H89188   6.287   0.579   5.688  1.2875 -1.2262  2.8456
  661MOL0     H89189   6.149   0.750   5.558  0.1036  1.1494 -1.6398
  661MOL0     H89190   6.210   0.878   5.662 -0.3828 -0.3291 -0.3370
  661MOL0     H89191   6.426   0.864   5.551  0.5985 -0.5802  1.1708
  661MOL0     H89192   6.296   0.876   5.433  3.1118 -1.3911 -2.8188
  661MOL0     H89193   6.406   0.705   5.322  1.9225 -1.0516  0.0881
  661MOL0     H89194   6.291   0.618   5.418  1.2395 -1.7377 -2.9037
  661MOL0     H89195   6.662   0.689   5.657 -2.9913 -1.0506 -0.0035
  661MOL0     H89196   6.887   0.745   5.601 -1.6676 -2.0939  0.8403
  661MOL0     H89197   7.149   0.916   5.180  0.7935  1.2976  1.0169
  661MOL0     H89198   7.381   0.978   5.116  0.8887  0.5805  2.3846
  661MOL0     H89199   7.562   1.011   5.017  0.5778 -2.0336 -2.4240
  661MOL0     H89200   7.641   1.013   5.180  2.5673 -1.0193  0.5180
  661MOL0     H89201   7.794   1.084   5.027 -0.6777  0.4899 -2.2343
  661MOL0     H89202   7.829   0.913   5.079 -0.0597 -1.5538 -1.0380
  661MOL0     H89203   7.726   0.834   4.869 -1.0556  0.8095  1.6096
  661MOL0     H89204   7.671   0.977   4.814 -2.8332  0.9644  2.7450
  661MOL0     H89205   7.978   0.957   4.865  0.4591 -1.1584 -0.9655
  661MOL0     H89206   7.900   1.050   4.739 -1.2851  1.2852  2.1775
  661MOL0     H89207   7.848   0.838   4.625  0.6369  0.8670 -0.2106
  661MOL0     H89208   7.888   0.744   4.772 -0.3505 -0.2756 -0.4978
  661MOL0     H89209   8.090   0.864   4.598  0.2848 -0.2766  0.0093
  661MOL0     H89210   8.125   0.807   4.760  1.0195 -0.4598 -0.3656
  661MOL0     H89211   8.020   0.649   4.524 -2.1701  1.7663  1.0531
  661MOL0     H89212   8.027   0.567   4.674 -1.9412  0.0428 -0.7963
  661MOL0     H89213   8.278   0.612   4.675  1.3640  1.8612 -1.6952
  661MOL0     H89214   8.208   0.504   4.553 -1.6848  0.7074 -2.7849
  661MOL0     H89215   7.528   0.577   5.174 -0.9808 -1.2413  1.6134
  661MOL0     H89216   7.313   0.528   5.287 -0.8362  1.8589  2.4622
  661MOL0     H89217   6.818   0.619   5.198 -1.6665  0.9302  0.0708
  661MOL0     H89218   6.583   0.561   5.258  3.0180  0.6283 -2.4779
  661MOL0     H89219   6.909   0.810   6.635 -0.7656 -2.2272  0.1646
  661MOL0     H89220   7.075   0.734   6.807 -0.9613 -1.3123  0.5222
  661MOL0     H89221   7.208   0.209   7.029  0.4580  0.6631  0.8056
  661MOL0     H89222   7.378   0.132   7.192 -2.6127  1.2864  0.6932
  661MOL0     H89223   7.597  -0.008   7.165 -0.3065 -1.1354  2.3939
  661MOL0     H89224   7.572   0.093   7.308  2.3679  0.6347  1.8484
  661MOL0     H89225   7.828  -0.019   7.197  0.2590 -0.6472  0.6188
  661MOL0     H89226   7.766  -0.022   7.358 -3.9719  0.1562 -1.2001
  661MOL0     H89227   7.831   0.219   7.397 -0.1987 -2.7616  2.5603
  661MOL0     H89228   7.883   0.217   7.218 -5.4275 -0.0471 -0.3341
  661MOL0     H89229   7.992   0.019   7.419  2.2136 -0.0152  0.4593
  661MOL0     H89230   8.066   0.066   7.275  1.2436 -2.1250  1.7846
  661MOL0     H89231   8.207   0.301   7.596 -0.2013 -0.5383  0.0970
  661MOL0     H89232   7.668   0.376   6.997 -0.1482  1.5223  0.3687
  661MOL0     H89233   7.469   0.604   6.847  1.3409  0.0077 -0.3473
  661MOL0     H89234   7.622   0.527   6.826 -0.2490  0.2400  3.8486
  661MOL0     H89235   7.498   0.464   6.728  3.3832  0.4971 -1.7274
  662MOL0     O89236   7.828   8.178   8.396  0.5757  0.0681 -0.3112
  662MOL0     C89237   7.760   8.074   8.409 -0.2781  0.3718  0.4964
  662MOL0     O89238   7.760   8.003   8.524 -0.0528  0.4976 -0.2582
  662MOL0     C89239   7.836   8.050   8.634 -0.5608 -0.1767  0.4719
  662MOL0     C89240   7.974   8.042   8.631  0.0419  0.1626 -0.3940
  662MOL0     C89241   8.059   8.109   8.725 -0.9031  0.4542  0.3736
  662MOL0     C89242   8.001   8.193   8.810 -0.1246 -0.8197  0.1249
  662MOL0     O89243   8.076   8.272   8.896 -0.5264  0.9453 -0.3363
  662MOL0     C89244   8.155   8.195   8.997 -0.1110  0.2576  0.7967
  662MOL0     C89245   8.201   8.300   9.103  0.2142 -0.1299 -0.1990
  662MOL0     C89246   8.239   8.443   9.057 -0.4118  0.4926 -0.0867
  662MOL0     C89247   8.376   8.451   8.980  0.2303 -0.3935 -0.7155
  662MOL0     C89248   8.489   8.508   9.069 -0.1001 -0.0933 -0.1983
  662MOL0     C89249   8.622   8.512   9.002 -0.6158  0.8816  0.8772
  662MOL0     C89250   8.725   8.527   9.112  0.2282  0.0886  0.0532
  662MOL0     C89251   8.782   8.394   9.175 -0.8681 -0.4596  0.4732
  662MOL0     N89252   8.918   8.411   9.230 -0.3023  0.2619 -0.2513
  662MOL0     C89253   8.968   8.524   9.297  0.7893 -0.6095  0.2123
  662MOL0     C89254   9.097   8.489   9.323  0.8667  1.2998 -0.0643
  662MOL0     C89255   9.188   8.579   9.394  0.2248  0.3196  0.5492
  662MOL0     C89256   9.220   8.707   9.313 -0.0812 -0.8098  0.4626
  662MOL0     C89257   9.310   8.809   9.389 -0.1196 -0.1606  0.0010
  662MOL0     C89258   9.288   8.953   9.334  0.6013  0.3436  0.3983
  662MOL0     O89259   9.330   8.973   9.203 -1.0881 -0.2910  0.4466
  662MOL0     C89260   9.341   9.103   9.147  0.1060  0.3468  0.7177
  662MOL0     C89261   9.396   9.099   9.021 -0.7000 -1.3491 -1.4692
  662MOL0     C89262   9.398   9.218   8.942  0.2031  0.3348 -0.1322
  662MOL0     C89263   9.353   9.336   8.990  0.2958  0.0321 -0.5490
  662MOL0     C89264   9.353   9.451   8.895  0.0785 -0.7269 -0.4717
  662MOL0     O89265   9.393   9.426   8.766  0.9804 -0.0921  0.3354
  662MOL0     C89266   9.427   9.535   8.689  0.0174 -0.7049  0.0516
  662MOL0     C89267   9.339   9.634   8.647 -0.6984  0.0138  0.3000
  662MOL0     C89268   9.386   9.725   8.551  0.1639 -0.4868 -0.7899
  662MOL0     C89269   9.516   9.712   8.505 -0.6671 -0.2317 -0.4893
  662MOL0     O89270   9.564   9.801   8.415 -0.0811  0.0939  0.7862
  662MOL0     C89271   9.600   9.751   8.282 -0.4931 -0.4195 -0.0307
  662MOL0     C89272   9.727   9.826   8.245 -0.0861  0.4917 -0.2465
  662MOL0     C89273   9.850   9.794   8.329 -1.1520  0.0452 -0.7166
  662MOL0     C89274   9.961   9.894   8.323  0.1219  0.0464  0.4388
  662MOL0     C89275  10.060   9.882   8.440 -0.3582 -0.2384  1.0002
  662MOL0     C89276  10.152  10.005   8.445 -0.5086 -0.4128  0.2381
  662MOL0     C89277  10.291   9.973   8.497  0.1707 -0.7988  0.6428
  662MOL0     C89278  10.376  10.103   8.520  0.1459  0.2381 -0.3483
  662MOL0    Cl89279  10.417  10.151   8.350  0.2671 -0.4209  0.1979
  662MOL0     C89280   9.603   9.614   8.547  0.0012 -0.2216  0.7189
  662MOL0     C89281   9.553   9.525   8.636  0.0061  0.5113  0.4028
  662MOL0     O89282   9.310   9.562   8.936  0.8261  1.0537 -0.2434
  662MOL0     C89283   9.311   9.342   9.126  0.1410  0.1550 -0.0874
  662MOL0     C89284   9.297   9.228   9.202 -0.4789 -0.3023 -0.1438
  662MOL0     N89285   9.129   8.371   9.259  1.6433 -0.4177  0.8822
  662MOL0     N89286   9.018   8.321   9.209 -0.2444 -0.6590  0.0142
  662MOL0     C89287   7.862   8.206   8.822 -0.5771  0.4629  0.3307
  662MOL0     C89288   7.778   8.129   8.730 -0.0055 -0.2377  0.6959
  662MOL0     C89289   7.672   8.020   8.302  0.3763 -0.2262  0.2323
  662MOL0     C89290   7.570   7.918   8.330 -0.8942  0.4269 -0.2770
  662MOL0     C89291   7.493   7.864   8.230  0.5113  0.5182 -0.0967
  662MOL0     C89292   7.504   7.910   8.094  0.2703 -0.1692  0.7749
  662MOL0     O89293   7.449   7.828   7.996 -0.2114  0.0580 -0.5111
  662MOL0     C89294   7.549   7.782   7.903 -0.4540  0.5305  0.2887
  662MOL0     C89295   7.670   7.698   7.939  0.0200  0.6251  0.2299
  662MOL0     C89296   7.784   7.782   7.989  0.1975 -0.5850 -0.0137
  662MOL0     C89297   7.918   7.713   8.003 -0.0261  0.2011  0.7681
  662MOL0     C89298   7.961   7.660   8.135  0.0236  0.1554 -0.2012
  662MOL0     C89299   8.017   7.619   8.234  0.0761  0.3754 -0.3439
  662MOL0     C89300   7.587   8.018   8.066 -0.5095  0.4153 -0.6951
  662MOL0     C89301   7.672   8.081   8.169 -0.4218  1.2883 -0.7319
  662MOL0     C89302   7.757   8.205   8.125  0.6065 -0.0054  0.1040
  662MOL0     H89303   8.020   7.983   8.553  0.7189  0.3356 -0.1419
  662MOL0     H89304   8.166   8.096   8.716 -0.9334  1.1832 -1.4870
  662MOL0     H89305   8.103   8.108   9.036  1.2899 -1.0427 -0.1326
  662MOL0     H89306   8.245   8.152   8.952 -0.9158  0.4511 -1.1124
  662MOL0     H89307   8.282   8.264   9.167  0.3164  1.2129  0.4628
  662MOL0     H89308   8.102   8.309   9.148 -1.3618 -0.9447 -3.2702
  662MOL0     H89309   8.233   8.517   9.137  0.9463 -0.7795  1.2654
  662MOL0     H89310   8.167   8.478   8.983  1.0385  1.8534 -0.9269
  662MOL0     H89311   8.398   8.348   8.949 -0.0793 -1.5474  2.5088
  662MOL0     H89312   8.354   8.520   8.898 -1.4878 -1.7298 -1.4247
  662MOL0     H89313   8.463   8.612   9.092 -0.9469  0.2907 -2.6135
  662MOL0     H89314   8.482   8.455   9.164  0.5443 -0.4711 -0.3561
  662MOL0     H89315   8.637   8.418   8.948 -2.3514 -0.6420  2.9007
  662MOL0     H89316   8.622   8.598   8.934  0.3432  0.0060 -0.2673
  662MOL0     H89317   8.686   8.602   9.182  0.5984  0.6805 -0.3640
  662MOL0     H89318   8.816   8.568   9.068  0.4422 -0.8410 -0.3800
  662MOL0     H89319   8.722   8.350   9.256 -0.6346 -0.0050  0.9018
  662MOL0     H89320   8.798   8.318   9.099  0.2069 -2.4392  2.5397
  662MOL0     H89321   8.925   8.622   9.318  0.8366 -0.4906 -0.2388
  662MOL0     H89322   9.139   8.600   9.490 -1.3910 -1.5527  0.2119
  662MOL0     H89323   9.277   8.523   9.425 -0.1261 -0.1283  0.7735
  662MOL0     H89324   9.282   8.681   9.227 -1.2816  1.1751 -1.1019
  662MOL0     H89325   9.128   8.751   9.272 -1.3522 -0.9872  2.9292
  662MOL0     H89326   9.413   8.780   9.369  0.6166 -0.3122  3.4915
  662MOL0     H89327   9.302   8.807   9.498 -3.8426 -1.7332 -0.1457
  662MOL0     H89328   9.341   9.028   9.394 -0.7262  0.0453  2.0290
  662MOL0     H89329   9.180   8.971   9.335  0.5086  0.3611 -2.3497
  662MOL0     H89330   9.421   8.997   8.996  2.7229 -0.7986 -0.7682
  662MOL0     H89331   9.436   9.214   8.841  2.5854 -0.2434  0.7230
  662MOL0     H89332   9.240   9.632   8.690 -1.4468  1.8642 -1.1680
  662MOL0     H89333   9.317   9.800   8.513  0.5428  0.5560  0.5222
  662MOL0     H89334   9.608   9.642   8.275 -1.4385 -0.5825  1.0144
  662MOL0     H89335   9.519   9.771   8.211 -1.8745 -3.9732  0.3055
  662MOL0     H89336   9.743   9.799   8.140 -2.4684 -0.5972 -0.3826
  662MOL0     H89337   9.720   9.935   8.241  0.9158  0.6770  1.8775
  662MOL0     H89338   9.818   9.788   8.434  0.0533  2.7594 -0.1014
  662MOL0     H89339   9.889   9.692   8.321  0.8722  0.7720 -0.7727
  662MOL0     H89340   9.920   9.995   8.315 -1.5015 -0.3364  2.6591
  662MOL0     H89341  10.007   9.865   8.228 -0.8868 -2.1956  0.5578
  662MOL0     H89342  10.111   9.786   8.426  0.6694  0.6390 -1.9226
  662MOL0     H89343  10.011   9.881   8.538  4.1006  2.9583  3.6457
  662MOL0     H89344  10.150  10.050   8.346  1.7326  1.5918  1.0003
  662MOL0     H89345  10.102  10.082   8.504  2.3861  1.7279  0.0904
  662MOL0     H89346  10.344   9.899   8.437 -2.1288 -2.5021  0.5843
  662MOL0     H89347  10.279   9.943   8.601  1.3972  1.5436  1.5467
  662MOL0     H89348  10.326  10.177   8.584 -1.0962 -1.4581  0.7205
  662MOL0     H89349  10.466  10.061   8.566 -0.0258  0.3409  0.0843
  662MOL0     H89350   9.701   9.608   8.500  0.7083  1.0763  1.9366
  662MOL0     H89351   9.607   9.433   8.655  0.7372  0.8885  0.1620
  662MOL0     H89352   9.282   9.434   9.176 -1.9120  0.5746 -1.8627
  662MOL0     H89353   9.263   9.232   9.305  0.7933 -2.8103  0.4680
  662MOL0     H89354   7.815   8.273   8.893 -2.8125 -0.3990 -0.2424
  662MOL0     H89355   7.670   8.135   8.729 -0.1778 -2.2808 -1.3208
  662MOL0     H89356   7.558   7.883   8.431 -0.7444 -0.4153 -0.5463
  662MOL0     H89357   7.432   7.777   8.253  4.1457 -2.7379 -1.6172
  662MOL0     H89358   7.569   7.859   7.828  0.4847  1.3441  1.3446
  662MOL0     H89359   7.500   7.699   7.851  1.9561 -0.5605 -0.3774
  662MOL0     H89360   7.702   7.649   7.846 -0.7264 -0.5464  0.5581
  662MOL0     H89361   7.635   7.625   8.013 -0.7865 -0.1539 -0.8758
  662MOL0     H89362   7.761   7.827   8.086  0.1062  2.2113 -1.2320
  662MOL0     H89363   7.799   7.874   7.932  5.9037  0.4125  2.4165
  662MOL0     H89364   7.922   7.628   7.933  1.8332 -1.5786  2.8887
  662MOL0     H89365   8.002   7.779   7.981 -0.0106  0.2333  0.9199
  662MOL0     H89366   8.062   7.585   8.325 -1.3083  0.9170  0.5767
  662MOL0     H89367   7.594   8.040   7.960 -1.4018 -4.9683 -2.1671
  662MOL0     H89368   7.741   8.279   8.204 -2.1829 -0.0289 -0.3481
  662MOL0     H89369   7.865   8.190   8.121  0.9242  2.0774 -3.7374
  662MOL0     H89370   7.733   8.249   8.027  3.2471 -2.0013 -1.5645
  663MOL0     O89371   0.640   3.791  10.712  0.0184 -0.1745 -0.9506
  663MOL0     C89372   0.706   3.714  10.643 -0.1226  1.1432 -0.3938
  663MOL0     O89373   0.646   3.636  10.551  0.3161 -0.3142  0.6835
  663MOL0     C89374   0.544   3.679  10.479  0.0792  1.5604  0.4758
  663MOL0     C89375   0.522   3.819  10.451 -0.5145 -0.9459  0.0480
  663MOL0     C89376   0.401   3.858  10.395  0.3579  0.0170  0.0059
  663MOL0     C89377   0.308   3.764  10.350 -0.3853 -0.3088  0.4361
  663MOL0     O89378   0.190   3.809  10.298  0.0343 -0.2995  0.3127
  663MOL0     C89379   0.079   3.728  10.327  1.6361  0.0335 -0.7668
  663MOL0     C89380  -0.056   3.780  10.287 -0.0489 -0.4690  0.8756
  663MOL0     C89381  -0.166   3.764  10.397  0.3430 -0.1227  0.4032
  663MOL0     C89382  -0.311   3.814  10.362  0.5293  0.7570 -0.0817
  663MOL0     C89383  -0.326   3.968  10.381  0.7606 -0.1285  0.4621
  663MOL0     C89384  -0.478   4.022  10.403 -0.0468 -0.6851 -0.3250
  663MOL0     C89385  -0.499   4.160  10.337 -0.8484  0.2654  0.5270
  663MOL0     C89386  -0.493   4.276  10.444 -0.0470 -0.0738  0.0831
  663MOL0     N89387  -0.606   4.287  10.537 -0.3733 -0.1910  1.3361
  663MOL0     C89388  -0.741   4.270  10.502 -0.3175  0.5563  0.1715
  663MOL0     C89389  -0.800   4.269  10.623 -0.4563 -0.1128 -0.5873
  663MOL0     C89390  -0.950   4.255  10.648 -0.1976  0.8245  0.3674
  663MOL0     C89391  -1.005   4.383  10.714 -0.7426  0.3554 -0.6314
  663MOL0     C89392  -1.092   4.467  10.615 -0.2076  0.8064  0.1377
  663MOL0     C89393  -1.141   4.593  10.679 -0.0621  0.8742 -0.4045
  663MOL0     O89394  -1.222   4.662  10.580 -0.4536  0.0126  0.8445
  663MOL0     C89395  -1.289   4.777  10.614 -0.0528 -0.1521 -0.2425
  663MOL0     C89396  -1.268   4.829  10.742  0.0939  0.5742  1.0607
  663MOL0     C89397  -1.330   4.946  10.768 -0.1165  0.0174 -0.5537
  663MOL0     C89398  -1.414   5.017  10.670  0.2229 -0.7392 -1.1557
  663MOL0     C89399  -1.478   5.144  10.704  0.2035  0.8457 -0.0091
  663MOL0     O89400  -1.586   5.183  10.628  0.0800 -0.1078  0.6030
  663MOL0     C89401  -1.609   5.310  10.627 -0.2430  0.1411  0.5396
  663MOL0     C89402  -1.541   5.401  10.540  0.6843  0.0142 -0.8093
  663MOL0     C89403  -1.569   5.541  10.552  0.6224  0.2484  0.5635
  663MOL0     C89404  -1.653   5.584  10.651 -0.2525 -0.4531 -1.1891
  663MOL0     O89405  -1.674   5.715  10.683 -0.1749 -0.9363  0.2793
  663MOL0     C89406  -1.616   5.825  10.614  0.5513  0.7134 -0.5202
  663MOL0     C89407  -1.615   5.950  10.701  0.1924 -0.1065 -0.3107
  663MOL0     C89408  -1.513   5.925  10.814 -0.1755 -0.2114 -0.6414
  663MOL0     C89409  -1.472   6.047  10.897  0.4864  0.3050  0.8970
  663MOL0     C89410  -1.591   6.133  10.951 -0.4918  0.2149  0.3868
  663MOL0     C89411  -1.702   6.052  11.023 -0.2258  0.0441 -0.1386
  663MOL0     C89412  -1.664   5.980  11.156  0.0962  0.4413  0.0033
  663MOL0     C89413  -1.630   6.081  11.264  0.7183  0.0295  0.1501
  663MOL0    Cl89414  -1.764   6.196  11.295 -0.2956  0.1679  0.1999
  663MOL0     C89415  -1.708   5.493  10.735 -0.6937 -0.0854 -0.0791
  663MOL0     C89416  -1.697   5.355  10.723 -0.9482 -0.0166 -0.3444
  663MOL0     O89417  -1.433   5.210  10.799  0.4805  0.4490 -0.1848
  663MOL0     C89418  -1.438   4.957  10.544  0.7412  0.1437 -0.7578
  663MOL0     C89419  -1.369   4.840  10.523 -1.4068  0.8450 -0.0640
  663MOL0     N89420  -0.704   4.280  10.723  0.0929 -0.3245  0.3366
  663MOL0     N89421  -0.598   4.310  10.667  0.2358  0.3041  0.2189
  663MOL0     C89422   0.342   3.628  10.356  0.4066 -0.9685 -0.3682
  663MOL0     C89423   0.465   3.581  10.422  0.4514  0.6901 -0.0915
  663MOL0     C89424   0.857   3.709  10.647  0.9733  0.1548  0.9022
  663MOL0     C89425   0.929   3.639  10.542 -0.3934  0.4072 -0.6340
  663MOL0     C89426   1.065   3.608  10.551 -0.2675 -0.5661  1.2133
  663MOL0     C89427   1.141   3.660  10.653  0.5878  0.0554 -0.0671
  663MOL0     O89428   1.271   3.617  10.653  0.0359 -0.4519 -1.0029
  663MOL0     C89429   1.359   3.685  10.745 -0.4004 -0.1901  0.4463
  663MOL0     C89430   1.416   3.815  10.679  0.0100 -1.2195 -0.5234
  663MOL0     C89431   1.518   3.787  10.569 -0.3067  0.0762 -0.6959
  663MOL0     C89432   1.555   3.926  10.507 -0.1041 -0.0904 -0.3018
  663MOL0     C89433   1.645   3.976  10.605  0.5712 -0.0095  0.2595
  663MOL0     C89434   1.706   4.016  10.696 -0.2171 -0.4915 -0.2625
  663MOL0     C89435   1.075   3.721  10.760  0.4589  0.7394 -0.1976
  663MOL0     C89436   0.936   3.753  10.754  0.5514 -0.3682  0.7162
  663MOL0     C89437   0.877   3.810  10.879  0.0152 -0.8085  0.2432
  663MOL0     H89438   0.591   3.894  10.485  0.4692 -1.2152 -1.2810
  663MOL0     H89439   0.391   3.966  10.384  0.0097  0.2127  1.9110
  663MOL0     H89440   0.090   3.633  10.275  3.4044 -0.7340  0.9196
  663MOL0     H89441   0.083   3.693  10.430 -2.2352  1.9220  0.2300
  663MOL0     H89442  -0.098   3.730  10.199 -1.1166 -0.5790  1.4218
  663MOL0     H89443  -0.055   3.888  10.268 -2.1632 -0.5488  0.0088
  663MOL0     H89444  -0.122   3.840  10.462  1.6446  1.1328 -1.8443
  663MOL0     H89445  -0.163   3.665  10.444 -1.2798 -1.1095 -1.4309
  663MOL0     H89446  -0.335   3.800  10.256 -0.3074 -0.5057  0.2504
  663MOL0     H89447  -0.383   3.755  10.418  1.3167 -0.6179 -0.4685
  663MOL0     H89448  -0.272   3.975  10.475 -0.2121 -4.9161  1.5985
  663MOL0     H89449  -0.265   4.018  10.305  1.3156 -0.0901  0.9313
  663MOL0     H89450  -0.547   3.945  10.367 -0.9494 -1.1292  2.1484
  663MOL0     H89451  -0.484   4.031  10.512 -0.5166 -0.3111 -0.3815
  663MOL0     H89452  -0.594   4.156  10.283  0.2118 -2.5483 -1.3401
  663MOL0     H89453  -0.429   4.194  10.259 -2.9094 -1.1614 -2.1132
  663MOL0     H89454  -0.406   4.256  10.508 -0.9918  1.6085  2.0311
  663MOL0     H89455  -0.478   4.372  10.393  2.1801 -1.6191 -2.4229
  663MOL0     H89456  -0.794   4.240  10.413 -0.4926  1.3174  0.0078
  663MOL0     H89457  -0.997   4.247  10.549  1.2664  1.1316 -0.3894
  663MOL0     H89458  -0.971   4.176  10.720  5.4231  0.0331  1.5761
  663MOL0     H89459  -1.059   4.353  10.805  1.1787  0.0899  0.4760
  663MOL0     H89460  -0.923   4.442  10.756  0.3788 -2.2026  1.0073
  663MOL0     H89461  -1.176   4.402  10.590  2.5621 -2.6486 -1.0530
  663MOL0     H89462  -1.036   4.493  10.525 -0.6627 -0.4317 -0.5245
  663MOL0     H89463  -1.051   4.647  10.709  0.0023  0.6241 -0.1304
  663MOL0     H89464  -1.197   4.558  10.767  1.0334 -0.9811 -0.3921
  663MOL0     H89465  -1.195   4.781  10.806  2.6924 -0.4873 -2.3940
  663MOL0     H89466  -1.319   4.994  10.865  2.8537 -0.1820 -0.6812
  663MOL0     H89467  -1.477   5.370  10.457  0.3999  0.8269 -1.3396
  663MOL0     H89468  -1.515   5.597  10.476 -1.4261 -0.9780 -1.9498
  663MOL0     H89469  -1.513   5.805  10.581 -0.6842 -1.8294 -3.3465
  663MOL0     H89470  -1.681   5.843  10.528 -1.0866 -2.5639 -0.1144
  663MOL0     H89471  -1.585   6.037  10.641  0.0219 -0.0751 -0.3512
  663MOL0     H89472  -1.716   5.956  10.743 -0.3556 -3.0359 -0.9968
  663MOL0     H89473  -1.573   5.856  10.875 -0.8961 -0.8871 -2.0742
  663MOL0     H89474  -1.424   5.872  10.781 -1.7363 -1.7755 -2.5636
  663MOL0     H89475  -1.424   6.127  10.839 -2.0367  1.6708  0.5402
  663MOL0     H89476  -1.415   6.017  10.986  1.0656 -0.6764  0.2134
  663MOL0     H89477  -1.644   6.169  10.863 -1.4358 -1.8196  0.0569
  663MOL0     H89478  -1.548   6.218  11.004  0.7380 -0.0233 -0.1792
  663MOL0     H89479  -1.795   6.109  11.030 -0.0471  0.6244 -1.8470
  663MOL0     H89480  -1.735   5.962  10.969 -1.2413  0.7250 -0.6823
  663MOL0     H89481  -1.576   5.916  11.149 -0.9949 -0.9982 -1.1124
  663MOL0     H89482  -1.747   5.913  11.180  1.3483 -1.4084 -0.6722
  663MOL0     H89483  -1.616   6.028  11.359  0.9639  1.4200  0.9313
  663MOL0     H89484  -1.542   6.142  11.242  1.1488 -0.1961  1.1547
  663MOL0     H89485  -1.762   5.533  10.820 -1.8590  1.1299 -1.3436
  663MOL0     H89486  -1.761   5.279  10.766 -1.7564  0.7605 -0.1490
  663MOL0     H89487  -1.501   4.999  10.467  1.2991 -0.0185 -1.3108
  663MOL0     H89488  -1.370   4.800  10.422  0.8127 -3.3957  1.3483
  663MOL0     H89489   0.268   3.552  10.332 -2.3155  1.5763 -0.7038
  663MOL0     H89490   0.494   3.477  10.424  0.3433  0.6166  3.3306
  663MOL0     H89491   0.886   3.594  10.453 -1.1978 -2.5451  1.1177
  663MOL0     H89492   1.121   3.553  10.476 -2.8276  0.0671 -1.3373
  663MOL0     H89493   1.454   3.631  10.747  1.4841  2.8678 -0.2246
  663MOL0     H89494   1.314   3.683  10.845 -1.3465 -0.1817  0.0249
  663MOL0     H89495   1.466   3.874  10.756  1.1354 -0.0545 -2.0585
  663MOL0     H89496   1.341   3.887  10.644  0.2143 -1.2656 -1.0802
  663MOL0     H89497   1.471   3.720  10.497 -0.1380  1.3337 -2.0279
  663MOL0     H89498   1.609   3.746  10.615 -0.9661  1.7085  2.2485
  663MOL0     H89499   1.606   3.913  10.411  1.7391  0.9414  0.4847
  663MOL0     H89500   1.471   3.995  10.504  0.5350  0.6630 -1.5800
  663MOL0     H89501   1.746   4.051  10.789 -0.8059 -0.0830 -0.1563
  663MOL0     H89502   1.125   3.745  10.854 -2.0777 -0.9019  1.7280
  663MOL0     H89503   0.779   3.769  10.907 -0.1490 -0.7656 -0.2570
  663MOL0     H89504   0.949   3.804  10.962  0.9433  0.8057 -0.3950
  663MOL0     H89505   0.850   3.913  10.857 -1.0633 -1.6967 -3.0695
  664MOL0     O89506   2.482   9.539   9.061 -0.1258 -0.1978  0.0619
  664MOL0     C89507   2.499   9.423   9.095 -0.2953  0.6431 -0.1094
  664MOL0     O89508   2.594   9.334   9.039  0.7418 -0.0426  0.2797
  664MOL0     C89509   2.643   9.348   8.910 -0.2086 -0.2724 -0.0518
  664MOL0     C89510   2.586   9.414   8.802 -0.6020  0.2173 -0.0992
  664MOL0     C89511   2.664   9.432   8.685  0.3087 -0.0130 -0.0381
  664MOL0     C89512   2.795   9.392   8.676  0.3288  0.2632  0.4788
  664MOL0     O89513   2.843   9.414   8.548 -0.3344 -0.3654  0.2334
  664MOL0     C89514   2.962   9.356   8.498  0.3597 -0.2924  0.9269
  664MOL0     C89515   2.935   9.271   8.367 -0.6441  0.0202 -1.0458
  664MOL0     C89516   2.794   9.234   8.347  0.6534  0.1449 -0.6064
  664MOL0     C89517   2.734   9.118   8.427 -0.9452 -0.3410 -0.1468
  664MOL0     C89518   2.591   9.092   8.389  0.3011  0.3524 -0.3255
  664MOL0     C89519   2.547   8.957   8.436 -0.3881  0.6565 -0.1645
  664MOL0     C89520   2.399   8.940   8.395  0.3678  0.3115 -1.0138
  664MOL0     C89521   2.380   8.850   8.274 -0.3783 -0.2832 -0.4701
  664MOL0     N89522   2.236   8.792   8.267 -0.5516 -0.3001  0.5612
  664MOL0     C89523   2.124   8.868   8.266 -0.1189  0.2018 -0.1106
  664MOL0     C89524   2.012   8.781   8.254 -1.1230 -0.2152 -0.4058
  664MOL0     C89525   1.869   8.815   8.264  0.5351  0.4076  0.0501
  664MOL0     C89526   1.792   8.721   8.176  0.2806  1.2322 -0.7355
  664MOL0     C89527   1.649   8.770   8.143  0.8548  0.5122  0.2745
  664MOL0     C89528   1.573   8.700   8.031  0.0670  0.0257  0.3204
  664MOL0     O89529   1.598   8.554   8.017  0.0240 -0.1146 -0.0677
  664MOL0     C89530   1.695   8.511   7.932 -0.3352  0.6308 -0.0267
  664MOL0     C89531   1.695   8.374   7.895  0.8627 -0.1275 -0.2985
  664MOL0     C89532   1.780   8.325   7.795 -0.0037  0.4427  0.5701
  664MOL0     C89533   1.876   8.403   7.730 -0.6059 -0.4723 -0.1305
  664MOL0     C89534   1.973   8.345   7.633  0.4040  0.3059  0.0564
  664MOL0     O89535   1.972   8.212   7.622 -0.0827  0.1750  0.0034
  664MOL0     C89536   2.038   8.158   7.517 -0.3639  0.2797 -0.1989
  664MOL0     C89537   2.171   8.194   7.490  0.6916 -0.4510 -0.4029
  664MOL0     C89538   2.231   8.116   7.383  0.5168  0.4067 -1.0185
  664MOL0     C89539   2.158   8.021   7.308 -0.1074 -0.4827 -0.0084
  664MOL0     O89540   2.201   7.945   7.205  0.3349 -0.1031  0.1747
  664MOL0     C89541   2.297   8.004   7.112 -0.4283  1.0910 -0.8255
  664MOL0     C89542   2.288   7.944   6.976  0.4647  1.3968  0.1815
  664MOL0     C89543   2.303   7.790   6.983 -0.1265  0.8356 -0.1400
  664MOL0     C89544   2.365   7.737   6.854  0.2851 -0.6452  0.3086
  664MOL0     C89545   2.321   7.588   6.838 -0.1469 -0.4574  0.6141
  664MOL0     C89546   2.392   7.489   6.942  0.7955 -0.1412 -1.7295
  664MOL0     C89547   2.542   7.476   6.912  0.6509 -0.3592  0.2641
  664MOL0     C89548   2.610   7.361   6.982  0.3694 -0.8302 -0.3197
  664MOL0    Cl89549   2.676   7.396   7.142 -0.2783  0.1579 -0.1078
  664MOL0     C89550   2.026   7.995   7.345  0.8704 -0.3238  0.1767
  664MOL0     C89551   1.964   8.068   7.444  0.6229  0.4216 -1.0685
  664MOL0     O89552   2.021   8.419   7.555 -0.0733 -0.2539 -0.5398
  664MOL0     C89553   1.878   8.534   7.774  0.1349  0.0944 -0.1377
  664MOL0     C89554   1.786   8.580   7.869 -1.0449 -0.1989  0.3678
  664MOL0     N89555   2.058   8.653   8.260 -0.1507 -0.1784 -0.5118
  664MOL0     N89556   2.184   8.661   8.262 -0.3420 -0.1613 -0.6568
  664MOL0     C89557   2.854   9.319   8.787 -0.2204 -1.3674 -0.9094
  664MOL0     C89558   2.768   9.298   8.901 -0.5693  0.1768  0.0532
  664MOL0     C89559   2.417   9.362   9.199  0.4491 -0.2258 -0.7935
  664MOL0     C89560   2.392   9.223   9.194 -0.1382 -0.1446 -0.5444
  664MOL0     C89561   2.317   9.157   9.298  0.2781 -0.3038 -0.9159
  664MOL0     C89562   2.258   9.230   9.403  0.0756 -0.0672  0.6552
  664MOL0     O89563   2.179   9.185   9.510 -0.1160 -0.1144 -1.1140
  664MOL0     C89564   2.199   9.054   9.562 -0.7848 -0.3587  0.2624
  664MOL0     C89565   2.103   8.959   9.484  0.6828 -0.3728 -0.2056
  664MOL0     C89566   1.949   8.993   9.468 -0.6759  0.3222  0.8562
  664MOL0     C89567   1.889   8.875   9.382  0.1637 -0.2176  0.7447
  664MOL0     C89568   1.916   8.883   9.241 -0.1248 -0.6316  0.3563
  664MOL0     C89569   1.961   8.887   9.125  0.5100  0.0483  0.3735
  664MOL0     C89570   2.277   9.366   9.397  0.2662 -0.0322 -0.3195
  664MOL0     C89571   2.351   9.438   9.301 -0.0511  0.8680  0.5986
  664MOL0     C89572   2.335   9.586   9.305  0.2784 -0.2041  0.1546
  664MOL0     H89573   2.486   9.455   8.793 -1.0588 -1.2268 -2.4837
  664MOL0     H89574   2.607   9.478   8.604  0.4634 -1.6882 -1.1489
  664MOL0     H89575   3.021   9.445   8.472  0.4912 -1.1638 -2.1601
  664MOL0     H89576   3.004   9.274   8.556 -3.4936 -1.5096  2.2930
  664MOL0     H89577   2.998   9.182   8.371 -0.5738  0.1106  0.5370
  664MOL0     H89578   2.980   9.333   8.289 -0.3765  0.4713 -0.5392
  664MOL0     H89579   2.770   9.230   8.240 -1.3615  3.0093 -0.3848
  664MOL0     H89580   2.745   9.331   8.360  1.4311  0.3791  0.6799
  664MOL0     H89581   2.788   9.023   8.415  0.1474  0.3829 -1.1849
  664MOL0     H89582   2.741   9.154   8.530 -2.3495 -2.1438  0.6306
  664MOL0     H89583   2.522   9.168   8.426 -0.7321 -0.1482 -1.1736
  664MOL0     H89584   2.595   9.082   8.280  1.5693  0.2754 -0.2829
  664MOL0     H89585   2.619   8.880   8.407 -2.3681 -0.7733 -1.5218
  664MOL0     H89586   2.536   8.969   8.544  0.1006 -3.6385  0.5181
  664MOL0     H89587   2.343   9.033   8.385  0.5746  0.3668 -1.7039
  664MOL0     H89588   2.349   8.876   8.469  2.1652 -4.0540 -3.1986
  664MOL0     H89589   2.412   8.897   8.180 -0.0630  0.7460  0.1285
  664MOL0     H89590   2.447   8.764   8.280  0.0799  0.1219  0.4293
  664MOL0     H89591   2.121   8.976   8.283 -2.3060 -0.1426  2.2878
  664MOL0     H89592   1.832   8.792   8.364 -2.8513 -0.5476 -1.2969
  664MOL0     H89593   1.839   8.916   8.234 -1.1180 -0.5696 -1.8492
  664MOL0     H89594   1.857   8.704   8.090  2.2729 -2.1247  1.1711
  664MOL0     H89595   1.799   8.617   8.211 -0.3516  1.1057 -0.9844
  664MOL0     H89596   1.664   8.874   8.114  2.8396 -0.3589 -2.1016
  664MOL0     H89597   1.591   8.742   8.232 -0.3419 -0.9854 -0.9090
  664MOL0     H89598   1.594   8.750   7.936  0.5145 -3.7853 -1.8009
  664MOL0     H89599   1.465   8.698   8.043 -0.1466 -2.5294 -1.2228
  664MOL0     H89600   1.618   8.313   7.943  3.2460  0.3026  4.7079
  664MOL0     H89601   1.771   8.227   7.749 -3.5960  1.0833 -0.4067
  664MOL0     H89602   2.230   8.274   7.534 -0.1511 -0.5323  0.9507
  664MOL0     H89603   2.339   8.126   7.371  0.6266  1.6254  0.5543
  664MOL0     H89604   2.265   8.106   7.089 -4.7018 -0.4907 -3.0062
  664MOL0     H89605   2.399   8.003   7.153  0.3509 -0.3789 -2.6389
  664MOL0     H89606   2.187   7.964   6.939  0.4242 -0.2766 -0.6911
  664MOL0     H89607   2.359   7.985   6.904  1.9413 -0.2328  0.6426
  664MOL0     H89608   2.370   7.771   7.067 -0.4014 -0.1887 -0.1278
  664MOL0     H89609   2.200   7.752   6.983 -1.8834  5.0595 -1.2005
  664MOL0     H89610   2.473   7.748   6.861  0.0412  4.0453 -0.3133
  664MOL0     H89611   2.345   7.786   6.758  0.3280 -0.9401  0.1462
  664MOL0     H89612   2.328   7.563   6.732 -2.2819  0.2490  0.2628
  664MOL0     H89613   2.213   7.579   6.845 -0.2826  1.3207  1.3184
  664MOL0     H89614   2.373   7.513   7.047  0.6445 -1.4437 -1.4521
  664MOL0     H89615   2.341   7.394   6.924 -2.0209  0.6892  1.0001
  664MOL0     H89616   2.596   7.564   6.948  0.6353  0.0048 -0.5641
  664MOL0     H89617   2.544   7.475   6.802  0.5502  1.3398  0.2211
  664MOL0     H89618   2.534   7.285   7.001 -0.3215  0.4161  2.2788
  664MOL0     H89619   2.686   7.318   6.916  0.3499  0.2435 -1.0537
  664MOL0     H89620   1.982   7.912   7.290 -2.1415  1.2542 -0.0001
  664MOL0     H89621   1.863   8.039   7.473  1.4260  0.7756  2.4377
  664MOL0     H89622   1.949   8.605   7.732  0.5395 -0.7069 -0.8347
  664MOL0     H89623   1.797   8.686   7.891  3.7636 -0.4402  0.3699
  664MOL0     H89624   2.957   9.284   8.781  0.6624  0.8999  0.0598
  664MOL0     H89625   2.813   9.244   8.983 -1.4380 -0.5063  0.0997
  664MOL0     H89626   2.426   9.162   9.112 -2.5266 -1.6257 -0.5166
  664MOL0     H89627   2.311   9.049   9.296  1.7192 -0.4034 -0.9460
  664MOL0     H89628   2.188   9.055   9.671  1.0149  0.6837  0.4845
  664MOL0     H89629   2.304   9.031   9.542  0.5255  2.6977  2.6889
  664MOL0     H89630   2.120   8.858   9.523  0.6192  0.1496  1.2324
  664MOL0     H89631   2.147   8.960   9.384  2.7542 -1.4365  0.6361
  664MOL0     H89632   1.931   9.096   9.434 -1.3020  0.0922  0.4587
  664MOL0     H89633   1.906   9.008   9.567  2.1398 -1.9291  2.5639
  664MOL0     H89634   1.916   8.784   9.436 -0.2615  0.7963  2.7720
  664MOL0     H89635   1.780   8.870   9.393  0.2549 -2.6427  1.1688
  664MOL0     H89636   1.990   8.879   9.023 -1.1945  0.9624 -0.2178
  664MOL0     H89637   2.236   9.422   9.480  0.3113  0.9728 -0.9595
  664MOL0     H89638   2.435   9.622   9.280 -0.4048  1.8179  0.1105
  664MOL0     H89639   2.256   9.627   9.241 -0.9960  0.0891  1.8279
  664MOL0     H89640   2.309   9.615   9.407 -3.4792 -0.5957 -0.5325
  665MOL0     O89641   3.300   5.732   3.185 -0.7594  0.0324 -0.0938
  665MOL0     C89642   3.397   5.784   3.249 -0.3015  0.5199  0.6090
  665MOL0     O89643   3.527   5.730   3.248 -0.2133  0.1140 -0.5275
  665MOL0     C89644   3.565   5.626   3.166  0.1611 -0.1724 -0.7088
  665MOL0     C89645   3.513   5.494   3.168  0.1169 -0.0045 -0.1113
  665MOL0     C89646   3.559   5.392   3.087  0.3308 -0.1234 -0.6576
  665MOL0     C89647   3.649   5.415   2.989  0.0538 -0.9351 -0.1784
  665MOL0     O89648   3.707   5.332   2.891  0.7673 -0.3365  0.0434
  665MOL0     C89649   3.645   5.203   2.864 -0.1863 -0.1934  0.4238
  665MOL0     C89650   3.759   5.114   2.811  0.4573 -0.6057  1.0348
  665MOL0     C89651   3.837   5.048   2.929  0.3629  0.7365  0.1877
  665MOL0     C89652   3.944   5.149   2.974  0.2608 -0.1680  0.1312
  665MOL0     C89653   4.019   5.068   3.080  0.8179 -0.1049  0.7893
  665MOL0     C89654   4.113   5.158   3.157 -0.1775  0.6019 -0.4636
  665MOL0     C89655   4.160   5.084   3.289  0.9077  0.3413  0.1383
  665MOL0     C89656   4.226   4.942   3.273  0.5801 -1.1533 -0.4379
  665MOL0     N89657   4.332   4.941   3.178 -0.3902 -0.1985 -0.1636
  665MOL0     C89658   4.321   4.895   3.046 -0.8588 -0.5386 -0.5414
  665MOL0     C89659   4.447   4.933   2.988  0.3457  0.1808 -0.5438
  665MOL0     C89660   4.501   4.899   2.849 -0.5977 -0.2508  0.0679
  665MOL0     C89661   4.610   4.800   2.838  1.0111 -0.3359  0.1559
  665MOL0     C89662   4.563   4.657   2.863  0.2112 -0.0290  0.4953
  665MOL0     C89663   4.674   4.557   2.841 -0.3020  0.4250 -0.2619
  665MOL0     O89664   4.633   4.450   2.929  0.5002 -0.8962 -0.5010
  665MOL0     C89665   4.663   4.318   2.902 -0.9365 -0.4103  0.5155
  665MOL0     C89666   4.740   4.267   2.793 -0.3615  0.4045  0.1517
  665MOL0     C89667   4.761   4.129   2.777  0.2004 -0.0617  0.7072
  665MOL0     C89668   4.701   4.034   2.859  1.0035 -0.4087 -0.0723
  665MOL0     C89669   4.700   3.886   2.819  0.3138 -0.5046 -0.0567
  665MOL0     O89670   4.782   3.855   2.714 -0.1132 -0.4428 -0.0237
  665MOL0     C89671   4.850   3.732   2.727  0.1079  0.2472 -0.0915
  665MOL0     C89672   4.889   3.670   2.846 -0.9629  0.6428 -0.5012
  665MOL0     C89673   4.943   3.540   2.846  0.3631 -0.9593  0.2627
  665MOL0     C89674   4.981   3.479   2.730  1.1179 -0.2904  0.6296
  665MOL0     O89675   5.031   3.349   2.750 -1.3184 -0.7940 -0.3213
  665MOL0     C89676   4.963   3.242   2.683  1.1214  0.6962 -0.3334
  665MOL0     C89677   4.816   3.222   2.726  0.3791  0.0054  0.0096
  665MOL0     C89678   4.730   3.108   2.669 -0.2324  0.3844 -0.5340
  665MOL0     C89679   4.679   3.129   2.526 -0.6650 -0.8413  0.0284
  665MOL0     C89680   4.611   3.007   2.471 -0.6270 -0.3937  0.5031
  665MOL0     C89681   4.462   2.998   2.506 -0.6169  0.4147 -0.3731
  665MOL0     C89682   4.416   2.874   2.438 -0.3614  0.1207  0.2733
  665MOL0     C89683   4.288   2.812   2.492  0.4959 -0.3836  0.7151
  665MOL0    Cl89684   4.257   2.639   2.452  0.0428 -0.1658 -0.1804
  665MOL0     C89685   4.942   3.537   2.611  0.0991 -0.1912  0.7370
  665MOL0     C89686   4.887   3.669   2.608 -0.3680  0.4520  0.7708
  665MOL0     O89687   4.645   3.806   2.895 -0.0541 -0.4087  0.3046
  665MOL0     C89688   4.623   4.090   2.961  0.3376 -0.2662  0.1700
  665MOL0     C89689   4.609   4.224   2.986 -0.1306 -0.0444 -0.2492
  665MOL0     N89690   4.527   4.991   3.086 -0.1970  0.9434  0.4815
  665MOL0     N89691   4.451   5.003   3.198 -0.6400  0.7225  0.3059
  665MOL0     C89692   3.715   5.541   2.991 -0.7457  1.6603 -0.2926
  665MOL0     C89693   3.677   5.642   3.080 -0.3511 -0.5643  0.4418
  665MOL0     C89694   3.379   5.909   3.337 -0.1415  0.3141  0.4671
  665MOL0     C89695   3.499   5.964   3.392  0.1221 -0.0205 -0.1253
  665MOL0     C89696   3.502   6.080   3.464  0.8083 -0.1133 -0.6455
  665MOL0     C89697   3.379   6.145   3.490 -0.6311 -0.1167 -0.8689
  665MOL0     O89698   3.364   6.259   3.572 -0.0854  0.1616 -0.1846
  665MOL0     C89699   3.482   6.342   3.588 -0.3234  0.1664  0.4820
  665MOL0     C89700   3.427   6.478   3.631 -0.0951 -0.0612  0.2521
  665MOL0     C89701   3.401   6.492   3.784  0.1488 -0.5710 -0.2755
  665MOL0     C89702   3.331   6.623   3.812  0.4006 -0.1566  0.1241
  665MOL0     C89703   3.190   6.623   3.775 -1.5340 -0.4088 -0.1032
  665MOL0     C89704   3.081   6.626   3.731 -0.6676 -0.7516  0.0891
  665MOL0     C89705   3.259   6.092   3.437  0.5657 -0.5819  0.2123
  665MOL0     C89706   3.256   5.981   3.352  0.5378  0.0004 -0.9295
  665MOL0     C89707   3.132   5.946   3.289  0.0416  0.6459  0.3204
  665MOL0     H89708   3.451   5.464   3.252  2.4032 -2.1400  0.9557
  665MOL0     H89709   3.520   5.292   3.102  0.4095 -0.5966 -3.1148
  665MOL0     H89710   3.605   5.165   2.958 -0.0233 -1.6839 -0.0811
  665MOL0     H89711   3.566   5.198   2.788 -2.5388 -1.1976  2.7487
  665MOL0     H89712   3.820   5.172   2.741 -2.2778  1.8434  0.4475
  665MOL0     H89713   3.707   5.035   2.757 -1.4915 -1.2566  3.6511
  665MOL0     H89714   3.884   4.959   2.886 -1.8472  1.6147 -4.8086
  665MOL0     H89715   3.770   5.019   3.011  1.5571 -1.4886  0.4428
  665MOL0     H89716   4.012   5.166   2.891 -0.5175 -0.3517 -0.5599
  665MOL0     H89717   3.909   5.239   3.025  1.3870  0.6592 -0.5210
  665MOL0     H89718   3.949   5.022   3.150 -1.0638 -0.3578 -1.1520
  665MOL0     H89719   4.074   4.987   3.032 -0.9241  0.0011 -1.5660
  665MOL0     H89720   4.204   5.176   3.099 -0.2692  0.9509 -0.5010
  665MOL0     H89721   4.058   5.249   3.183 -3.7606 -1.0856 -1.4604
  665MOL0     H89722   4.070   5.072   3.351  0.9844  2.8560  0.8299
  665MOL0     H89723   4.236   5.140   3.345  0.8338 -3.0722  4.1342
  665MOL0     H89724   4.249   4.904   3.373 -3.1307  1.6674  1.7903
  665MOL0     H89725   4.139   4.886   3.238 -2.3008  2.0183  1.0538
  665MOL0     H89726   4.248   4.832   2.997  3.1457 -4.0314 -2.6096
  665MOL0     H89727   4.425   4.890   2.772 -1.1541  0.6236  0.4950
  665MOL0     H89728   4.540   4.997   2.822  0.6123 -0.7604 -0.1108
  665MOL0     H89729   4.643   4.813   2.735  2.4330  1.4951  0.7809
  665MOL0     H89730   4.695   4.824   2.903 -0.1321 -1.3305  2.1019
  665MOL0     H89731   4.477   4.641   2.798 -3.2542  1.9703  4.1245
  665MOL0     H89732   4.515   4.654   2.961 -0.8396 -0.2306 -0.0064
  665MOL0     H89733   4.771   4.600   2.865 -0.0121  1.0612 -2.3701
  665MOL0     H89734   4.672   4.529   2.735  1.3510  0.6042 -0.3603
  665MOL0     H89735   4.782   4.338   2.722  2.3310  1.4603  2.5955
  665MOL0     H89736   4.823   4.099   2.693 -1.2173 -6.1114  1.3427
  665MOL0     H89737   4.877   3.722   2.941  0.6847  0.5067 -0.1970
  665MOL0     H89738   4.958   3.491   2.941 -1.5937 -1.6434  0.2671
  665MOL0     H89739   4.971   3.264   2.576  0.0064  0.3910 -0.4853
  665MOL0     H89740   5.011   3.148   2.711 -0.3245  0.1969  0.5653
  665MOL0     H89741   4.817   3.212   2.835 -1.9384  2.6748  0.3879
  665MOL0     H89742   4.759   3.314   2.716 -0.5389 -0.6746 -1.3164
  665MOL0     H89743   4.780   3.011   2.677  1.8171  1.0550 -3.5042
  665MOL0     H89744   4.644   3.089   2.735  0.5954  0.9814  0.7557
  665MOL0     H89745   4.757   3.157   2.455 -1.4009 -2.2352 -1.3954
  665MOL0     H89746   4.601   3.205   2.521  0.4652  0.2789 -1.4072
  665MOL0     H89747   4.662   2.913   2.494  1.0719  0.9157  2.3596
  665MOL0     H89748   4.604   3.013   2.362  0.7608 -3.9422  0.0899
  665MOL0     H89749   4.477   2.968   2.610 -1.7041 -0.1821 -0.3767
  665MOL0     H89750   4.410   3.090   2.480  0.9220  1.1909 -0.8580
  665MOL0     H89751   4.490   2.794   2.452 -0.5162 -0.6456 -2.5702
  665MOL0     H89752   4.402   2.885   2.330  0.7355  2.3788  0.2932
  665MOL0     H89753   4.285   2.816   2.601 -3.3935  0.8487  0.7230
  665MOL0     H89754   4.211   2.876   2.447  0.0900 -0.5879  1.1050
  665MOL0     H89755   4.970   3.496   2.515 -1.8355 -1.8402  0.8269
  665MOL0     H89756   4.866   3.697   2.505  2.4137 -1.9778 -0.6204
  665MOL0     H89757   4.566   4.022   3.024  2.0869 -0.2198  1.9241
  665MOL0     H89758   4.558   4.255   3.077  1.4004 -0.2142  0.6953
  665MOL0     H89759   3.806   5.555   2.933 -1.3067 -0.3210 -1.7286
  665MOL0     H89760   3.741   5.730   3.083  0.1201 -0.8974  2.8388
  665MOL0     H89761   3.597   5.925   3.365  1.3337  3.0776 -0.5362
  665MOL0     H89762   3.597   6.123   3.495 -0.4443  0.1789  3.4208
  665MOL0     H89763   3.536   6.356   3.494  1.0653 -0.9131  1.0827
  665MOL0     H89764   3.554   6.300   3.659  0.8562  1.0780 -0.1225
  665MOL0     H89765   3.333   6.484   3.575 -0.3418 -0.4598  0.6123
  665MOL0     H89766   3.496   6.558   3.602 -0.9309 -0.1543 -2.2577
  665MOL0     H89767   3.498   6.476   3.832  0.0099 -1.7375 -0.3587
  665MOL0     H89768   3.338   6.411   3.820 -1.0585  1.6727  3.1184
  665MOL0     H89769   3.354   6.636   3.918  0.7296 -0.1424  0.0515
  665MOL0     H89770   3.378   6.703   3.755 -0.9283  1.1950  0.8547
  665MOL0     H89771   2.980   6.610   3.699  0.1039 -0.2027 -2.9510
  665MOL0     H89772   3.170   6.155   3.436 -0.2129 -1.6575 -0.0826
  665MOL0     H89773   3.126   5.967   3.182  1.5002  2.2057  0.5007
  665MOL0     H89774   3.126   5.838   3.305  0.6415  0.8588  2.2150
  665MOL0     H89775   3.049   5.981   3.351  1.5083  0.8885  2.2259
  666MOL0     O89776   2.483  10.072   7.215 -0.0904 -0.7726  0.1190
  666MOL0     C89777   2.366  10.036   7.189 -0.7631  0.3250  0.3137
  666MOL0     O89778   2.257  10.116   7.183  0.6832  1.1491  0.1665
  666MOL0     C89779   2.267  10.240   7.246 -1.8512 -0.0905  0.6749
  666MOL0     C89780   2.333  10.256   7.369  0.6419 -0.4292 -0.6672
  666MOL0     C89781   2.348  10.383   7.420  0.1431  0.2531 -0.7422
  666MOL0     C89782   2.294  10.499   7.361 -1.3619  1.1550  0.2866
  666MOL0     O89783   2.326  10.633   7.389 -0.2662  0.1194 -0.2603
  666MOL0     C89784   2.395  10.657   7.510  0.2798 -0.3874 -0.3390
  666MOL0     C89785   2.541  10.666   7.460 -0.1777 -0.5674 -0.0749
  666MOL0     C89786   2.634  10.677   7.588 -0.2671 -1.0282 -0.7576
  666MOL0     C89787   2.781  10.654   7.544  0.4421  0.2914 -0.5771
  666MOL0     C89788   2.891  10.694   7.648 -0.0550 -0.2111 -0.6103
  666MOL0     C89789   2.897  10.849   7.663  1.0878 -0.4608  0.1052
  666MOL0     C89790   3.021  10.885   7.741  0.0398  0.2682 -0.4217
  666MOL0     C89791   3.068  11.027   7.722 -0.1869  1.0969  0.0148
  666MOL0     N89792   3.166  11.034   7.612  0.5723  0.1079  0.0595
  666MOL0     C89793   3.155  11.001   7.481 -0.0800 -1.0205  0.6764
  666MOL0     C89794   3.280  10.977   7.433 -1.0735 -0.3614 -0.0096
  666MOL0     C89795   3.331  10.938   7.296 -0.3130 -0.5601  0.4789
  666MOL0     C89796   3.482  10.880   7.303  1.1000 -0.4897 -0.0997
  666MOL0     C89797   3.532  10.816   7.181 -0.1461 -0.4625  1.1229
  666MOL0     C89798   3.658  10.726   7.192 -0.4951 -0.6989  0.7333
  666MOL0     O89799   3.748  10.791   7.276 -0.3870 -0.2114 -0.4804
  666MOL0     C89800   3.874  10.772   7.242 -1.1102  0.1254 -0.2923
  666MOL0     C89801   3.962  10.881   7.206  0.3040  1.0809 -0.4525
  666MOL0     C89802   4.102  10.859   7.176  0.3855 -0.4985  0.0145
  666MOL0     C89803   4.152  10.730   7.175 -0.0880  1.0182 -0.6324
  666MOL0     C89804   4.294  10.713   7.132  1.7292 -0.0574  0.6014
  666MOL0     O89805   4.352  10.817   7.068 -0.0698 -0.0636  0.2886
  666MOL0     C89806   4.466  10.793   6.993 -0.1658 -0.0083 -0.1660
  666MOL0     C89807   4.462  10.715   6.880 -0.8742  0.0631  0.1369
  666MOL0     C89808   4.585  10.720   6.800 -0.3372  0.6041 -0.8065
  666MOL0     C89809   4.697  10.792   6.836  0.1340 -0.6081  0.3803
  666MOL0     O89810   4.797  10.805   6.739 -0.0117 -0.5891  0.2642
  666MOL0     C89811   4.932  10.847   6.774  0.8791 -0.0946 -0.7629
  666MOL0     C89812   5.024  10.793   6.667  1.0568  1.0543  0.1199
  666MOL0     C89813   5.166  10.851   6.700 -0.0477  0.8994 -0.8702
  666MOL0     C89814   5.264  10.806   6.603 -0.0579 -0.4052  0.5196
  666MOL0     C89815   5.356  10.923   6.567  0.5177 -0.7665 -0.4069
  666MOL0     C89816   5.482  10.883   6.481 -0.3631 -0.3163  0.1811
  666MOL0     C89817   5.578  10.803   6.574 -0.0863 -0.9644  0.1284
  666MOL0     C89818   5.656  10.901   6.670  0.7474  0.5040  0.5773
  666MOL0    Cl89819   5.768  11.003   6.581  0.6114 -0.7506  0.0149
  666MOL0     C89820   4.696  10.858   6.961 -0.0897  0.1720  0.0661
  666MOL0     C89821   4.585  10.857   7.036  0.3026  0.0985  0.4768
  666MOL0     O89822   4.342  10.602   7.137  0.0037  0.3439  0.0399
  666MOL0     C89823   4.064  10.632   7.216 -0.4672  0.2163 -0.5962
  666MOL0     C89824   3.934  10.645   7.252  0.4405 -0.8372  0.0839
  666MOL0     N89825   3.370  11.012   7.534  0.6441  0.4243  0.2087
  666MOL0     N89826   3.302  11.045   7.641  0.2709  0.6657  0.1354
  666MOL0     C89827   2.223  10.474   7.242  0.2327  0.2797  0.4669
  666MOL0     C89828   2.213  10.351   7.183 -0.0801 -0.7266  0.5893
  666MOL0     C89829   2.339   9.899   7.158  0.3368  0.7526  0.7836
  666MOL0     C89830   2.236   9.867   7.063 -0.3867 -0.5524 -0.3003
  666MOL0     C89831   2.206   9.732   7.033 -0.2346  1.0248 -0.0582
  666MOL0     C89832   2.289   9.630   7.091 -0.0182 -1.0575 -0.6207
  666MOL0     O89833   2.275   9.501   7.056  0.2129 -0.9505 -0.3598
  666MOL0     C89834   2.164   9.457   6.979 -0.5361  0.0615  0.0463
  666MOL0     C89835   2.197   9.449   6.834 -0.2708  0.6927  0.5116
  666MOL0     C89836   2.320   9.364   6.797 -0.3069 -0.3320  0.6637
  666MOL0     C89837   2.403   9.422   6.675 -0.3422  0.0200  0.2091
  666MOL0     C89838   2.331   9.398   6.547  0.7285 -0.2075  0.2316
  666MOL0     C89839   2.277   9.409   6.441  0.3572  0.5004 -0.1432
  666MOL0     C89840   2.390   9.655   7.182  0.1691 -0.2859  0.7056
  666MOL0     C89841   2.407   9.794   7.219 -0.1472  0.6214 -0.1581
  666MOL0     C89842   2.501   9.821   7.326 -1.2090 -0.0908  0.0539
  666MOL0     H89843   2.376  10.172   7.423  2.3569  0.5790 -0.3661
  666MOL0     H89844   2.425  10.392   7.495  0.3135  0.1812 -0.9071
  666MOL0     H89845   2.371  10.756   7.550 -1.6515 -0.4644 -1.2144
  666MOL0     H89846   2.374  10.583   7.587 -1.4320 -1.1050 -1.4348
  666MOL0     H89847   2.553  10.750   7.390  0.6469 -2.2725 -2.0720
  666MOL0     H89848   2.562  10.574   7.406 -0.7613  0.2021 -1.6910
  666MOL0     H89849   2.602  10.610   7.668 -1.1991 -0.0432 -0.2856
  666MOL0     H89850   2.631  10.776   7.634  2.9612 -1.1939  0.0204
  666MOL0     H89851   2.777  10.547   7.522 -0.7421 -0.1603  1.5001
  666MOL0     H89852   2.803  10.698   7.447 -5.1456  3.3002 -0.9338
  666MOL0     H89853   2.873  10.643   7.742  0.9019  1.3723  0.4909
  666MOL0     H89854   2.986  10.666   7.600 -1.1192 -1.1948 -2.2126
  666MOL0     H89855   2.892  10.898   7.566  1.1740  2.3264  1.4134
  666MOL0     H89856   2.809  10.878   7.721  3.1292  1.1156  2.6271
  666MOL0     H89857   3.110  10.825   7.717  0.6790  0.3707  1.5026
  666MOL0     H89858   2.997  10.865   7.847 -2.3563  1.2927 -0.7004
  666MOL0     H89859   2.979  11.081   7.688 -0.2505 -0.5460 -2.7018
  666MOL0     H89860   3.122  11.074   7.805  1.5319  1.6576 -1.3735
  666MOL0     H89861   3.065  10.980   7.426 -0.3647 -0.0920  0.7686
  666MOL0     H89862   3.269  10.861   7.249  1.9934 -0.0031 -3.9770
  666MOL0     H89863   3.327  11.026   7.231 -1.0956 -0.7706  0.2322
  666MOL0     H89864   3.552  10.961   7.327  0.3332  1.4066 -3.6050
  666MOL0     H89865   3.484  10.802   7.379  0.0714 -0.4783 -0.0460
  666MOL0     H89866   3.568  10.898   7.119  0.5136 -0.7596  1.0989
  666MOL0     H89867   3.466  10.750   7.124  1.1965 -2.0726  1.3189
  666MOL0     H89868   3.695  10.707   7.091 -2.9004  0.2970 -0.4335
  666MOL0     H89869   3.645  10.629   7.240 -0.6294 -0.6548  0.7889
  666MOL0     H89870   3.915  10.975   7.178 -0.9388 -0.1691 -2.9325
  666MOL0     H89871   4.150  10.946   7.132 -2.5962  0.3937 -1.7922
  666MOL0     H89872   4.377  10.671   6.829 -0.4660 -0.2430 -0.2946
  666MOL0     H89873   4.606  10.659   6.713  0.2723  0.2650 -0.4352
  666MOL0     H89874   4.941  10.956   6.782  1.4461 -0.2190  0.4626
  666MOL0     H89875   4.952  10.799   6.870 -4.0245 -0.8618  0.1724
  666MOL0     H89876   5.036  10.687   6.691  1.8247  1.5438  2.1406
  666MOL0     H89877   4.989  10.791   6.564  0.7445 -4.3139  0.0383
  666MOL0     H89878   5.159  10.960   6.692  0.1406  0.8025 -2.7574
  666MOL0     H89879   5.191  10.824   6.803 -4.3289  0.0561  0.1574
  666MOL0     H89880   5.220  10.766   6.512 -0.3794  0.7430  0.1541
  666MOL0     H89881   5.327  10.724   6.641  0.2067  0.0337  1.0465
  666MOL0     H89882   5.388  10.980   6.654  1.1704  0.8680 -1.6534
  666MOL0     H89883   5.286  10.986   6.511 -2.1054 -1.6874  1.6061
  666MOL0     H89884   5.441  10.833   6.392 -4.4893  1.5697  0.7929
  666MOL0     H89885   5.529  10.976   6.449 -1.0465  1.5841  4.0835
  666MOL0     H89886   5.640  10.744   6.506 -1.5056 -0.6846 -1.4673
  666MOL0     H89887   5.522  10.739   6.644 -2.6101  2.3054  1.3632
  666MOL0     H89888   5.593  10.951   6.743 -2.9093 -2.0978 -0.4662
  666MOL0     H89889   5.708  10.828   6.733 -0.5245 -2.3964 -1.4949
  666MOL0     H89890   4.788  10.909   6.986  0.2830  0.6626 -2.1588
  666MOL0     H89891   4.578  10.919   7.125 -2.7415 -0.7430  0.9487
  666MOL0     H89892   4.099  10.529   7.208  1.7593  1.0144 -2.2122
  666MOL0     H89893   3.885  10.559   7.295  0.4509 -0.8182  0.1327
  666MOL0     H89894   2.184  10.557   7.185 -2.5695  0.1208  1.9778
  666MOL0     H89895   2.161  10.345   7.088  1.4624 -0.3861 -0.3113
  666MOL0     H89896   2.171   9.944   7.023  2.0791  1.5023 -0.6358
  666MOL0     H89897   2.128   9.709   6.961  0.8035 -1.0698 -0.5947
  666MOL0     H89898   2.073   9.517   6.988 -0.6047 -0.1841  1.1618
  666MOL0     H89899   2.126   9.359   7.009 -3.9162  0.6741 -1.7261
  666MOL0     H89900   2.230   9.547   6.800  3.0845 -0.9821 -1.7432
  666MOL0     H89901   2.115   9.416   6.770  0.8410  0.8252 -1.0585
  666MOL0     H89902   2.283   9.266   6.764 -1.8207  0.6545 -0.7689
  666MOL0     H89903   2.372   9.343   6.890 -1.3811 -0.1804  1.3147
  666MOL0     H89904   2.414   9.531   6.679 -4.1012  0.6209 -1.2298
  666MOL0     H89905   2.499   9.371   6.673 -1.1167 -1.8267 -4.6941
  666MOL0     H89906   2.227   9.415   6.346 -1.5478 -2.3193  0.5414
  666MOL0     H89907   2.448   9.568   7.212 -2.1071 -2.0907  0.1756
  666MOL0     H89908   2.590   9.878   7.300 -1.2013  1.8522  3.7212
  666MOL0     H89909   2.449   9.873   7.407 -2.9250 -1.8659  0.1801
  666MOL0     H89910   2.534   9.720   7.355 -0.5426 -0.1257 -0.7915
  667MOL0     O89911   7.573   2.462   6.849  0.2318  0.7289 -0.2801
  667MOL0     C89912   7.547   2.576   6.883 -0.6796 -0.7664  0.5443
  667MOL0     O89913   7.519   2.672   6.796 -0.1037  0.2182  0.2907
  667MOL0     C89914   7.484   2.636   6.672 -0.6954 -0.5306 -0.0668
  667MOL0     C89915   7.349   2.614   6.641 -0.6464 -0.3808  1.2610
  667MOL0     C89916   7.319   2.557   6.514 -0.1139  0.1763 -0.1960
  667MOL0     C89917   7.409   2.559   6.416  0.7608  0.3349  0.6962
  667MOL0     O89918   7.378   2.503   6.297  0.6882 -0.5708 -0.3055
  667MOL0     C89919   7.466   2.510   6.185  0.7723 -0.3377  0.4037
  667MOL0     C89920   7.374   2.498   6.060 -0.4890  0.0782 -0.2730
  667MOL0     C89921   7.448   2.533   5.929 -0.6694 -0.3377 -0.6084
  667MOL0     C89922   7.357   2.537   5.801 -0.2270  0.5721 -0.1687
  667MOL0     C89923   7.438   2.548   5.671  0.0015  0.0283  1.2385
  667MOL0     C89924   7.473   2.696   5.640 -0.1580 -0.1513  0.9355
  667MOL0     C89925   7.366   2.796   5.591  0.6059  0.1561 -0.6735
  667MOL0     C89926   7.317   2.760   5.457 -0.3107  0.0016  0.6515
  667MOL0     N89927   7.243   2.866   5.395  0.1776 -0.3681  0.3029
  667MOL0     C89928   7.113   2.907   5.438 -0.4003  0.4150 -0.3849
  667MOL0     C89929   7.096   3.011   5.359  0.7401  0.1025  0.3817
  667MOL0     C89930   6.972   3.102   5.366 -0.1647  1.6758  0.5539
  667MOL0     C89931   6.857   3.059   5.282  0.1900 -0.6612  0.1408
  667MOL0     C89932   6.828   2.914   5.290 -0.2382  1.2578 -0.4352
  667MOL0     C89933   6.703   2.858   5.235  0.1305  0.7881  0.5908
  667MOL0     O89934   6.713   2.887   5.096  0.7999 -0.2779 -0.0446
  667MOL0     C89935   6.655   2.800   5.010  0.4074 -0.2430  0.4689
  667MOL0     C89936   6.581   2.687   5.036  0.2593 -0.6789  0.1592
  667MOL0     C89937   6.523   2.607   4.928 -0.4017 -0.1725 -0.0573
  667MOL0     C89938   6.554   2.642   4.797 -0.0453 -0.3363 -0.5582
  667MOL0     C89939   6.511   2.561   4.680  0.0318 -0.3841 -0.2261
  667MOL0     O89940   6.465   2.437   4.705  0.1841 -0.0793 -0.0160
  667MOL0     C89941   6.441   2.356   4.605  0.4582  0.1593 -1.0697
  667MOL0     C89942   6.310   2.323   4.567  0.3826 -0.4710  0.2651
  667MOL0     C89943   6.275   2.245   4.460 -0.7675  0.4554  1.0426
  667MOL0     C89944   6.379   2.175   4.397  0.5384  0.0347 -0.0717
  667MOL0     O89945   6.355   2.080   4.303  0.1838  0.3018  0.4268
  667MOL0     C89946   6.455   2.025   4.215 -0.2300 -0.1838  0.6758
  667MOL0     C89947   6.373   1.976   4.090 -0.0730  0.7225 -0.4157
  667MOL0     C89948   6.469   1.895   4.013 -0.6854  0.5203  0.3978
  667MOL0     C89949   6.457   1.745   4.043  0.0279 -0.5260 -0.6575
  667MOL0     C89950   6.558   1.680   4.136  0.2370 -0.6697 -0.4680
  667MOL0     C89951   6.519   1.541   4.174  0.0778  0.2228 -0.5607
  667MOL0     C89952   6.631   1.475   4.255  0.0671  0.3423 -0.3008
  667MOL0     C89953   6.602   1.325   4.268 -0.2902  0.1528  0.2034
  667MOL0    Cl89954   6.743   1.256   4.376  0.0049  0.2940  0.1908
  667MOL0     C89955   6.516   2.194   4.435  0.0061 -0.1994  0.0970
  667MOL0     C89956   6.544   2.293   4.530  0.8124 -0.1254 -0.0581
  667MOL0     O89957   6.525   2.609   4.571  0.5629 -0.4340  0.2664
  667MOL0     C89958   6.638   2.755   4.778  1.1862  0.3577 -0.8261
  667MOL0     C89959   6.689   2.832   4.880  0.1960  0.4746 -0.1349
  667MOL0     N89960   7.186   3.019   5.255 -0.2011 -0.6097 -0.2557
  667MOL0     N89961   7.283   2.942   5.286  0.0560 -0.3047  0.3852
  667MOL0     C89962   7.539   2.594   6.439  0.2621  1.5947  0.5446
  667MOL0     C89963   7.580   2.634   6.565  0.0890  0.0005 -1.0524
  667MOL0     C89964   7.557   2.597   7.028  1.0331 -0.6043 -0.3523
  667MOL0     C89965   7.664   2.666   7.085  0.2954 -0.5096  0.2215
  667MOL0     C89966   7.672   2.683   7.222  0.4297  0.9941 -0.8434
  667MOL0     C89967   7.568   2.644   7.305  1.2027  0.4994  0.3834
  667MOL0     O89968   7.553   2.664   7.441 -0.2146 -0.3627  1.4102
  667MOL0     C89969   7.680   2.691   7.508 -0.1245 -0.7060 -0.1532
  667MOL0     C89970   7.648   2.724   7.653 -0.4220  0.1862  0.7409
  667MOL0     C89971   7.565   2.624   7.723  0.2167 -0.2751  0.3054
  667MOL0     C89972   7.628   2.487   7.740  0.3129  0.3559  0.5418
  667MOL0     C89973   7.748   2.494   7.820 -0.4739  0.0016 -0.2969
  667MOL0     C89974   7.832   2.491   7.904 -0.0853  0.2825 -0.3260
  667MOL0     C89975   7.453   2.580   7.247  0.1340 -0.0574  0.2860
  667MOL0     C89976   7.446   2.557   7.109 -0.2483 -0.8525  0.5251
  667MOL0     C89977   7.317   2.489   7.042  0.0518 -0.3937  0.3917
  667MOL0     H89978   7.279   2.620   6.724 -0.5081  3.7210  1.3007
  667MOL0     H89979   7.215   2.529   6.504 -0.4604  1.3498 -0.0683
  667MOL0     H89980   7.524   2.603   6.188  2.1091 -1.1562  1.2027
  667MOL0     H89981   7.536   2.426   6.182 -2.0920 -3.0065  1.8058
  667MOL0     H89982   7.283   2.558   6.065 -1.4619 -1.3148 -0.7068
  667MOL0     H89983   7.345   2.394   6.039  3.5488 -1.0447 -1.1769
  667MOL0     H89984   7.526   2.459   5.910 -0.2576  0.0881 -0.5945
  667MOL0     H89985   7.480   2.636   5.946 -0.0624 -0.6715  0.3197
  667MOL0     H89986   7.296   2.446   5.795  0.0010  0.2689  1.5170
  667MOL0     H89987   7.287   2.621   5.803 -1.2601 -0.2353 -1.0646
  667MOL0     H89988   7.529   2.487   5.671 -1.0249 -1.6307 -0.7936
  667MOL0     H89989   7.375   2.504   5.593  2.3284 -0.5005 -0.4713
  667MOL0     H89990   7.527   2.737   5.726  0.9082 -0.8682  0.6380
  667MOL0     H89991   7.544   2.680   5.559 -0.0841 -0.4003  1.0467
  667MOL0     H89992   7.416   2.893   5.588  3.0799 -1.0055  0.1443
  667MOL0     H89993   7.291   2.798   5.670 -0.2960  0.2127 -1.5059
  667MOL0     H89994   7.404   2.741   5.393 -2.3007 -1.5442 -1.7607
  667MOL0     H89995   7.250   2.676   5.439 -0.8613  1.1175 -3.7696
  667MOL0     H89996   7.046   2.869   5.514  0.5735 -1.0094 -0.1897
  667MOL0     H89997   6.932   3.099   5.468 -0.7831  1.5131  0.3067
  667MOL0     H89998   7.014   3.199   5.337  3.5374  0.0521 -0.1364
  667MOL0     H89999   6.769   3.118   5.307  1.2616  0.9068  0.3646
  667MOL0     H90000   6.887   3.091   5.182 -0.4014 -1.1861 -0.2062
  667MOL0     H90001   6.845   2.888   5.395 -0.8785 -2.2651 -1.0821
  667MOL0     H90002   6.915   2.872   5.238  0.0187  0.4936  0.5841
  667MOL0     H90003   6.621   2.908   5.286  2.6560  4.5299  1.4162
  667MOL0     H90004   6.695   2.752   5.264  0.3085  0.5381 -0.2588
  667MOL0     H90005   6.554   2.651   5.135  0.1519 -0.9103  0.0480
  667MOL0     H90006   6.469   2.517   4.956 -0.9439  0.0188 -0.4532
  667MOL0     H90007   6.231   2.370   4.624 -0.3015 -1.2425 -0.0210
  667MOL0     H90008   6.174   2.236   4.422 -0.3733  0.1015  0.0567
  667MOL0     H90009   6.525   2.093   4.165  0.3173 -0.5642  0.9201
  667MOL0     H90010   6.501   1.942   4.269 -1.1007 -0.5770  0.8414
  667MOL0     H90011   6.291   1.914   4.126  1.8431 -0.3881  2.4309
  667MOL0     H90012   6.326   2.063   4.043 -1.0517  0.7765  0.6106
  667MOL0     H90013   6.442   1.904   3.908  0.7839  2.1024  0.1088
  667MOL0     H90014   6.570   1.934   4.030 -0.9298  1.7258 -0.7752
  667MOL0     H90015   6.445   1.687   3.951 -1.2543  0.5703 -1.2200
  667MOL0     H90016   6.362   1.733   4.096  0.2231  0.5778 -0.0370
  667MOL0     H90017   6.579   1.735   4.229  3.3998 -4.9821  1.7382
  667MOL0     H90018   6.657   1.685   4.090 -0.4080  1.6387 -1.7426
  667MOL0     H90019   6.429   1.548   4.236  1.4382  2.8153  1.2537
  667MOL0     H90020   6.493   1.496   4.077 -0.3179  3.9657 -2.3800
  667MOL0     H90021   6.644   1.521   4.353 -2.1846 -0.9294  0.6563
  667MOL0     H90022   6.723   1.480   4.195 -0.9378 -1.0462 -2.0565
  667MOL0     H90023   6.506   1.318   4.320 -1.0204  2.8117 -0.6264
  667MOL0     H90024   6.591   1.269   4.175  0.2600 -0.1707  0.3264
  667MOL0     H90025   6.597   2.142   4.384 -0.1958  0.4007 -0.8456
  667MOL0     H90026   6.645   2.314   4.563  0.2967 -0.0105  1.5562
  667MOL0     H90027   6.651   2.782   4.674 -1.7697  1.0159 -1.1049
  667MOL0     H90028   6.747   2.923   4.863 -0.0980  0.9355  1.1904
  667MOL0     H90029   7.610   2.598   6.357  0.2991 -0.3317  0.4450
  667MOL0     H90030   7.681   2.667   6.589 -0.4906  2.0611 -1.2559
  667MOL0     H90031   7.743   2.705   7.021 -0.5172  1.8447  0.5362
  667MOL0     H90032   7.759   2.732   7.266 -1.5572  2.7770  1.3431
  667MOL0     H90033   7.728   2.781   7.467 -1.6234 -0.2794 -1.0292
  667MOL0     H90034   7.750   2.608   7.495  1.5892  0.4690  1.0262
  667MOL0     H90035   7.581   2.809   7.645 -1.2410 -0.6181 -4.3532
  667MOL0     H90036   7.741   2.740   7.709  0.2254  2.3038 -0.8307
  667MOL0     H90037   7.475   2.615   7.661  2.3719  1.1534 -3.3078
  667MOL0     H90038   7.527   2.657   7.821 -1.7263  0.0433 -0.5071
  667MOL0     H90039   7.549   2.430   7.790 -0.3653 -0.2834 -1.1684
  667MOL0     H90040   7.644   2.439   7.643 -3.2659 -2.1932  1.0102
  667MOL0     H90041   7.920   2.491   7.965 -2.4063  2.1650  3.4200
  667MOL0     H90042   7.377   2.546   7.317 -1.5074  1.0422 -0.8848
  667MOL0     H90043   7.224   2.513   7.094 -0.7523 -1.2469 -0.6506
  667MOL0     H90044   7.301   2.532   6.943 -2.0256 -2.9629 -0.4661
  667MOL0     H90045   7.333   2.382   7.033  1.3297 -0.1060 -1.4937
  668MOL0     O90046   7.339   2.792   4.291 -0.1452  0.8941  0.5043
  668MOL0     C90047   7.299   2.910   4.307 -0.4993  0.6351 -0.1424
  668MOL0     O90048   7.227   2.982   4.211  0.7322 -0.0945 -1.1615
  668MOL0     C90049   7.150   2.911   4.120  0.2947 -0.6051  0.1024
  668MOL0     C90050   7.196   2.796   4.053 -0.0935  0.2556  0.1769
  668MOL0     C90051   7.122   2.718   3.964  0.8486  0.2736 -0.4112
  668MOL0     C90052   6.993   2.758   3.943 -0.9781 -0.2719  0.0829
  668MOL0     O90053   6.916   2.702   3.844  0.5545  0.0406  1.4815
  668MOL0     C90054   6.774   2.712   3.865  0.0928 -0.1842 -0.2296
  668MOL0     C90055   6.715   2.577   3.814 -0.2769 -0.5557 -0.2295
  668MOL0     C90056   6.693   2.470   3.919  0.0532  0.4732  0.7345
  668MOL0     C90057   6.553   2.391   3.894  0.3991 -0.0823 -0.1827
  668MOL0     C90058   6.505   2.309   4.010  0.6919 -0.8848 -0.1279
  668MOL0     C90059   6.493   2.390   4.139  0.2914 -0.2347  0.4287
  668MOL0     C90060   6.401   2.505   4.127  0.5420 -0.9394  0.1771
  668MOL0     C90061   6.396   2.588   4.258  0.4856 -0.2587  0.3004
  668MOL0     N90062   6.250   2.632   4.289 -1.0410 -0.5969  0.4004
  668MOL0     C90063   6.206   2.767   4.298  0.1362 -0.5010  0.4102
  668MOL0     C90064   6.079   2.754   4.331  0.6334 -0.0090  0.5799
  668MOL0     C90065   6.007   2.877   4.361 -0.3655 -0.1950 -0.1353
  668MOL0     C90066   5.945   2.866   4.506  0.3549  0.3406 -0.0246
  668MOL0     C90067   5.820   2.789   4.511  0.4682 -1.1083  0.0327
  668MOL0     C90068   5.736   2.818   4.632  0.4707  0.2176 -0.4268
  668MOL0     O90069   5.638   2.722   4.644  0.1590  0.5467  0.2649
  668MOL0     C90070   5.521   2.767   4.692  1.1664  1.0056 -0.5172
  668MOL0     C90071   5.403   2.752   4.610 -0.0575  0.5038  0.9311
  668MOL0     C90072   5.288   2.819   4.647  0.7487  1.6287 -0.1408
  668MOL0     C90073   5.276   2.893   4.768  0.5845 -0.2595  0.9301
  668MOL0     C90074   5.141   2.944   4.810 -0.5769  0.0978  0.8535
  668MOL0     O90075   5.042   2.915   4.734  0.2668 -0.4352  0.3011
  668MOL0     C90076   4.919   2.948   4.768 -0.0908  0.4397  0.7980
  668MOL0     C90077   4.832   2.835   4.783  0.2538  0.0974  0.0915
  668MOL0     C90078   4.699   2.859   4.813  1.2547 -0.1069 -0.7108
  668MOL0     C90079   4.650   2.991   4.833 -0.1574  0.1930  0.1545
  668MOL0     O90080   4.522   3.019   4.860 -0.3297 -0.5364 -0.3569
  668MOL0     C90081   4.419   2.919   4.902  0.2590 -0.9047  0.3313
  668MOL0     C90082   4.441   2.890   5.049 -0.5727 -0.2606  0.4448
  668MOL0     C90083   4.437   3.014   5.153 -0.1721 -0.4461  0.1490
  668MOL0     C90084   4.465   2.958   5.288 -0.2010  0.6142  0.0044
  668MOL0     C90085   4.434   3.051   5.406 -0.3437 -0.1038  0.0578
  668MOL0     C90086   4.511   3.184   5.414  0.3021  0.7545 -0.2119
  668MOL0     C90087   4.658   3.200   5.383  0.5087  0.8389 -0.4668
  668MOL0     C90088   4.730   3.125   5.490  0.3315 -0.9122 -0.3626
  668MOL0    Cl90089   4.760   3.224   5.630 -0.5893 -0.2455  0.1145
  668MOL0     C90090   4.743   3.096   4.826 -1.1765  0.3664  0.1507
  668MOL0     C90091   4.875   3.078   4.777 -0.1836  0.3702 -0.3900
  668MOL0     O90092   5.139   2.996   4.916  0.0464 -0.8187 -0.1061
  668MOL0     C90093   5.383   2.905   4.844  0.1544 -0.3324  0.8193
  668MOL0     C90094   5.509   2.852   4.802 -0.9019 -0.0382 -0.6598
  668MOL0     N90095   6.036   2.615   4.319 -0.1853 -0.2485  0.3401
  668MOL0     N90096   6.143   2.543   4.309  0.0236 -0.7085  0.5247
  668MOL0     C90097   6.947   2.882   3.999  0.2573  0.7101 -0.0629
  668MOL0     C90098   7.024   2.955   4.091  0.2749 -0.4640 -0.6279
  668MOL0     C90099   7.314   2.964   4.450  0.3482  0.1346  0.1118
  668MOL0     C90100   7.317   3.106   4.468  0.6280 -0.0741 -0.0028
  668MOL0     C90101   7.345   3.159   4.595 -0.5286  0.3647  0.0273
  668MOL0     C90102   7.379   3.080   4.703  1.0337 -0.9733 -0.4797
  668MOL0     O90103   7.423   3.144   4.818  0.2668  0.7412  0.2563
  668MOL0     C90104   7.379   3.104   4.946  0.3686 -0.2057 -0.1622
  668MOL0     C90105   7.232   3.162   4.954 -0.0233  0.6696  0.6573
  668MOL0     C90106   7.229   3.308   4.935 -0.9653 -0.2262 -0.9308
  668MOL0     C90107   7.114   3.350   4.844  0.0058  0.3477  0.1586
  668MOL0     C90108   7.116   3.497   4.836  0.6231 -0.2138 -0.4398
  668MOL0     C90109   7.108   3.625   4.828  0.4034  1.0159  1.1227
  668MOL0     C90110   7.364   2.940   4.693 -0.5964 -0.6622  0.2960
  668MOL0     C90111   7.334   2.888   4.565  0.6819  0.5872  0.6045
  668MOL0     C90112   7.334   2.735   4.573 -0.9308 -0.1861 -0.1161
  668MOL0     H90113   7.303   2.774   4.060  0.1976  0.8556 -1.9134
  668MOL0     H90114   7.178   2.636   3.921  2.1899  0.3125  1.1762
  668MOL0     H90115   6.757   2.707   3.973 -2.2171 -1.5633 -0.5688
  668MOL0     H90116   6.729   2.799   3.816  0.1605 -0.7682 -1.3654
  668MOL0     H90117   6.769   2.543   3.726  0.6400  2.7061 -1.0562
  668MOL0     H90118   6.620   2.596   3.763  0.1414  1.6503 -0.3071
  668MOL0     H90119   6.698   2.510   4.021  2.3691 -0.6839  1.1514
  668MOL0     H90120   6.775   2.398   3.929 -0.5964  0.0739  5.6854
  668MOL0     H90121   6.468   2.458   3.876 -0.2960  0.1823  3.4707
  668MOL0     H90122   6.550   2.315   3.815 -0.2545 -0.9358  0.6367
  668MOL0     H90123   6.400   2.283   3.993  0.7454  0.1761 -2.5913
  668MOL0     H90124   6.569   2.222   4.028  0.1617 -1.2154  0.1707
  668MOL0     H90125   6.465   2.327   4.224  0.1997 -1.1382 -0.2598
  668MOL0     H90126   6.596   2.419   4.163  0.2304 -1.3441  2.1976
  668MOL0     H90127   6.298   2.471   4.110  0.3807 -0.4526  0.1486
  668MOL0     H90128   6.423   2.573   4.044 -0.2792  1.2856  1.7010
  668MOL0     H90129   6.439   2.530   4.340  1.1920 -1.8960 -1.1728
  668MOL0     H90130   6.466   2.671   4.253 -0.5122  0.7936  2.4878
  668MOL0     H90131   6.265   2.855   4.276 -0.6932  0.3284  1.3677
  668MOL0     H90132   6.076   2.961   4.363  1.0541 -1.3179 -0.0980
  668MOL0     H90133   5.929   2.893   4.286  0.0999  0.9956 -0.3729
  668MOL0     H90134   6.017   2.806   4.564 -0.1234 -0.0104  0.2154
  668MOL0     H90135   5.936   2.964   4.554 -1.2900 -0.9781  2.6252
  668MOL0     H90136   5.839   2.682   4.500  0.5130 -1.1737  0.6910
  668MOL0     H90137   5.762   2.812   4.421 -1.4727 -0.9430  1.2677
  668MOL0     H90138   5.687   2.913   4.606  1.7340  0.6773 -1.2331
  668MOL0     H90139   5.794   2.839   4.723 -0.9864  1.7442  0.2079
  668MOL0     H90140   5.403   2.699   4.515 -0.7584  2.3027 -0.1190
  668MOL0     H90141   5.198   2.794   4.592 -0.0008 -0.6782  1.9275
  668MOL0     H90142   4.867   2.735   4.758  0.7957  0.2639  0.1744
  668MOL0     H90143   4.634   2.773   4.810  1.2782 -0.1886  0.4574
  668MOL0     H90144   4.320   2.959   4.879  1.0106  2.8672  2.7337
  668MOL0     H90145   4.429   2.830   4.840 -0.1387 -0.6753 -0.0628
  668MOL0     H90146   4.352   2.833   5.075 -1.3729  1.0068  0.5366
  668MOL0     H90147   4.534   2.837   5.072 -0.5639 -0.2751  0.3772
  668MOL0     H90148   4.503   3.100   5.141 -0.7343  0.2006  1.5443
  668MOL0     H90149   4.332   3.045   5.149 -0.3259 -1.0661 -1.1953
  668MOL0     H90150   4.568   2.921   5.291 -0.8360 -1.2679  0.1440
  668MOL0     H90151   4.398   2.875   5.311  0.8086  0.0233  0.8973
  668MOL0     H90152   4.458   2.991   5.494 -0.2715  0.0961  0.1738
  668MOL0     H90153   4.327   3.068   5.413 -0.6212  0.1502 -3.2399
  668MOL0     H90154   4.465   3.250   5.340  1.1130  3.5833  1.6479
  668MOL0     H90155   4.487   3.215   5.516 -0.6204 -0.6891  0.0308
  668MOL0     H90156   4.683   3.306   5.393 -1.0055  1.0634  1.7037
  668MOL0     H90157   4.685   3.157   5.286  0.4460 -3.0589  1.0925
  668MOL0     H90158   4.659   3.045   5.516 -0.3768 -1.0206 -2.3840
  668MOL0     H90159   4.825   3.081   5.458  3.8103  4.9205  0.5589
  668MOL0     H90160   4.707   3.194   4.854  0.3207  0.2607  2.7875
  668MOL0     H90161   4.940   3.165   4.769 -0.8856  1.3006  2.5965
  668MOL0     H90162   5.380   2.958   4.939 -0.5864  1.2144 -0.0369
  668MOL0     H90163   5.600   2.873   4.858 -1.9762 -1.8541  1.9683
  668MOL0     H90164   6.860   2.926   3.952 -0.5004 -0.8837 -0.2245
  668MOL0     H90165   7.005   3.056   4.126  1.3647  0.0639 -1.5094
  668MOL0     H90166   7.292   3.175   4.388 -0.1479  0.1725  0.4433
  668MOL0     H90167   7.349   3.265   4.619 -1.9183  0.6981 -1.0527
  668MOL0     H90168   7.433   3.140   5.033 -0.6818  0.4749  0.2251
  668MOL0     H90169   7.387   2.995   4.955  1.2324 -0.1154  0.2151
  668MOL0     H90170   7.182   3.145   5.050 -0.1238  0.6662  0.6037
  668MOL0     H90171   7.173   3.110   4.878  2.0875  1.4952 -1.7099
  668MOL0     H90172   7.314   3.347   4.878 -0.3453 -0.7376 -0.3662
  668MOL0     H90173   7.215   3.358   5.031 -1.1706 -0.3442 -0.8986
  668MOL0     H90174   7.136   3.315   4.742 -2.3318  1.1138 -0.6789
  668MOL0     H90175   7.022   3.300   4.875 -0.8687  0.9301 -1.3833
  668MOL0     H90176   7.125   3.730   4.822  3.9004  0.4755 -0.3803
  668MOL0     H90177   7.395   2.873   4.772 -1.3890 -0.4109  0.8336
  668MOL0     H90178   7.245   2.683   4.537 -1.3338 -0.6929  1.4910
  668MOL0     H90179   7.412   2.683   4.517  0.9962 -1.3182  3.3324
  668MOL0     H90180   7.349   2.697   4.675 -2.9864  0.0062  0.3026
  669MOL0     O90181   2.834   5.389   4.524 -0.5998 -0.2799 -0.3013
  669MOL0     C90182   2.920   5.419   4.602  0.6245 -0.3032  0.8989
  669MOL0     O90183   3.053   5.406   4.575  0.2522  0.3080  0.0730
  669MOL0     C90184   3.080   5.324   4.480 -0.2120  0.0206 -0.2648
  669MOL0     C90185   3.035   5.194   4.492 -0.3532  0.6629  0.4296
  669MOL0     C90186   3.072   5.102   4.386 -0.5605 -0.2957 -0.3377
  669MOL0     C90187   3.164   5.133   4.285 -0.9050 -0.8562  0.6941
  669MOL0     O90188   3.219   5.052   4.189 -0.4516 -0.2987  0.3923
  669MOL0     C90189   3.131   4.972   4.125  0.8403  0.5957 -0.2145
  669MOL0     C90190   3.214   4.874   4.043 -0.1403  1.0589 -0.9209
  669MOL0     C90191   3.159   4.846   3.897 -0.6270 -0.6102 -1.3829
  669MOL0     C90192   3.244   4.753   3.814 -0.0899  0.0946  0.0631
  669MOL0     C90193   3.175   4.731   3.679  0.2452  0.5130  0.0043
  669MOL0     C90194   3.055   4.637   3.698 -0.0912 -0.7970  0.5235
  669MOL0     C90195   3.005   4.579   3.560 -0.1468  0.1412  0.0063
  669MOL0     C90196   2.897   4.459   3.566 -0.1595  0.0753 -0.0194
  669MOL0     N90197   2.772   4.514   3.610 -0.3002  0.0762  1.1483
  669MOL0     C90198   2.675   4.442   3.673 -1.1805  0.3820 -0.2848
  669MOL0     C90199   2.570   4.523   3.644 -0.8124  0.1046 -0.4906
  669MOL0     C90200   2.434   4.477   3.659 -0.6139  0.3331  0.0982
  669MOL0     C90201   2.404   4.339   3.723  0.2094  0.8035 -0.2040
  669MOL0     C90202   2.400   4.326   3.871 -0.6037  0.5878  0.5959
  669MOL0     C90203   2.255   4.369   3.927 -0.5561 -0.2957 -0.0413
  669MOL0     O90204   2.252   4.508   3.957 -0.8837  0.2251  0.3052
  669MOL0     C90205   2.118   4.531   3.988 -0.2760 -0.4982 -0.1020
  669MOL0     C90206   2.054   4.605   3.895 -0.4614  0.1370  0.4134
  669MOL0     C90207   1.919   4.640   3.921 -0.9862  0.4593  0.0937
  669MOL0     C90208   1.847   4.614   4.038  0.0098  0.1396  0.6079
  669MOL0     C90209   1.704   4.652   4.056 -0.2271  1.5303  0.1694
  669MOL0     O90210   1.635   4.679   3.947 -0.0633 -0.3735  1.0995
  669MOL0     C90211   1.504   4.689   3.962 -0.5973 -1.2142  0.3652
  669MOL0     C90212   1.442   4.778   4.049  0.3377 -0.1475  0.1334
  669MOL0     C90213   1.302   4.802   4.050  0.7953  0.3837 -0.9105
  669MOL0     C90214   1.219   4.722   3.972 -0.3241 -0.6841  0.3614
  669MOL0     O90215   1.081   4.703   3.989  0.4513  0.1437 -0.1314
  669MOL0     C90216   1.000   4.785   4.080 -1.1453 -0.1848 -0.4912
  669MOL0     C90217   0.867   4.724   4.121 -0.5038  0.6211  0.1477
  669MOL0     C90218   0.876   4.583   4.183 -0.3177  0.3398 -0.7093
  669MOL0     C90219   0.736   4.533   4.211  0.1179 -0.1361 -0.7218
  669MOL0     C90220   0.743   4.390   4.260 -0.4500 -0.7222  0.2985
  669MOL0     C90221   0.798   4.366   4.405 -0.2505  0.1457  1.1716
  669MOL0     C90222   0.782   4.220   4.456 -0.0487 -0.2988  0.2224
  669MOL0     C90223   0.928   4.167   4.501  0.3798 -0.1978 -0.5673
  669MOL0    Cl90224   1.049   4.171   4.368 -0.2961 -0.2713 -0.7881
  669MOL0     C90225   1.281   4.632   3.887  0.4004  0.0853  1.0759
  669MOL0     C90226   1.417   4.618   3.874 -0.3091  0.9754 -0.9951
  669MOL0     O90227   1.661   4.649   4.173 -0.0565 -0.3371 -0.8037
  669MOL0     C90228   1.924   4.546   4.137 -0.6240 -0.5715 -0.1683
  669MOL0     C90229   2.057   4.503   4.114 -0.7762  0.5580  0.1123
  669MOL0     N90230   2.607   4.630   3.580 -0.3008 -0.5794 -0.2724
  669MOL0     N90231   2.724   4.631   3.561  0.2495  0.8070  0.5833
  669MOL0     C90232   3.207   5.271   4.277  1.2118  0.2680  0.3483
  669MOL0     C90233   3.183   5.359   4.386  1.2648 -0.7400  0.5251
  669MOL0     C90234   2.870   5.503   4.714  0.2137  0.8338 -0.7463
  669MOL0     C90235   2.731   5.515   4.732 -0.3012 -1.0194 -0.0067
  669MOL0     C90236   2.670   5.590   4.837  0.9921 -0.7727 -0.2614
  669MOL0     C90237   2.751   5.654   4.934 -0.1382 -0.1836 -0.1907
  669MOL0     O90238   2.697   5.732   5.032  0.0521  0.2108 -0.2653
  669MOL0     C90239   2.616   5.842   4.982 -0.3836 -0.9199  0.3357
  669MOL0     C90240   2.703   5.972   4.953 -0.2571 -0.5210  0.0076
  669MOL0     C90241   2.748   5.960   4.804 -0.4897 -1.6572 -0.5525
  669MOL0     C90242   2.840   6.074   4.772  1.4354 -0.0772 -0.0905
  669MOL0     C90243   2.762   6.198   4.745 -0.1814 -0.2050  0.0623
  669MOL0     C90244   2.703   6.300   4.734 -0.1155  0.5177 -0.4303
  669MOL0     C90245   2.888   5.631   4.923  0.1878 -0.5029  0.2237
  669MOL0     C90246   2.944   5.553   4.822  0.3460  0.4071 -0.0896
  669MOL0     C90247   3.096   5.555   4.814  0.9843 -0.4671 -0.5916
  669MOL0     H90248   2.971   5.156   4.570  1.3858 -0.3231  1.4348
  669MOL0     H90249   3.027   5.008   4.413 -0.8106 -0.1037 -0.0797
  669MOL0     H90250   3.057   4.919   4.186 -0.5409  0.7748 -1.6484
  669MOL0     H90251   3.065   5.026   4.056 -0.1395 -1.1806 -0.7128
  669MOL0     H90252   3.191   4.777   4.088 -2.3675  1.3042 -1.4206
  669MOL0     H90253   3.321   4.896   4.038  0.3454 -0.9929 -0.2455
  669MOL0     H90254   3.149   4.942   3.844 -1.1597 -0.7519 -1.5438
  669MOL0     H90255   3.057   4.808   3.897 -1.7798  2.1063  1.2544
  669MOL0     H90256   3.342   4.799   3.800 -1.2336  2.9057  0.6651
  669MOL0     H90257   3.267   4.655   3.857  2.9858  0.5024 -0.4188
  669MOL0     H90258   3.144   4.823   3.628 -1.4516 -0.8700 -1.5798
  669MOL0     H90259   3.242   4.679   3.610 -0.2964  0.0622 -0.1846
  669MOL0     H90260   3.092   4.559   3.766  0.4684 -0.7550  0.2754
  669MOL0     H90261   2.972   4.691   3.745  2.6230  4.7221 -0.1774
  669MOL0     H90262   3.093   4.548   3.502 -0.2905 -1.6396  0.6694
  669MOL0     H90263   2.977   4.667   3.502 -0.2166  2.7869  3.7082
  669MOL0     H90264   2.878   4.413   3.469 -1.6222 -1.9035  1.1089
  669MOL0     H90265   2.920   4.385   3.644  0.5870  1.4223  1.0913
  669MOL0     H90266   2.673   4.347   3.726  2.8214  0.1073 -0.3439
  669MOL0     H90267   2.369   4.553   3.704  0.7681  1.1007  0.8487
  669MOL0     H90268   2.391   4.472   3.559 -1.4933  3.7574  0.1699
  669MOL0     H90269   2.309   4.311   3.677  0.0429 -0.5205  0.8905
  669MOL0     H90270   2.476   4.263   3.690 -3.0006 -1.3165 -3.1059
  669MOL0     H90271   2.477   4.382   3.924 -1.0489  0.5114  1.3435
  669MOL0     H90272   2.419   4.220   3.886 -3.0355 -0.1237 -0.8028
  669MOL0     H90273   2.240   4.307   4.016  1.5849 -0.9209 -0.0429
  669MOL0     H90274   2.175   4.342   3.857 -1.3577 -1.1005  1.1556
  669MOL0     H90275   2.121   4.632   3.814  2.4349 -0.7888  2.3531
  669MOL0     H90276   1.861   4.679   3.838 -1.1247  0.5716  0.2444
  669MOL0     H90277   1.495   4.846   4.114 -5.0994  2.9682  2.0025
  669MOL0     H90278   1.263   4.879   4.116  0.2794  0.7986 -1.6892
  669MOL0     H90279   1.050   4.804   4.176 -2.5089  0.2735  0.1461
  669MOL0     H90280   0.970   4.872   4.021  3.1287  0.2236 -2.4587
  669MOL0     H90281   0.825   4.796   4.192 -0.8408  0.1955  0.3878
  669MOL0     H90282   0.796   4.730   4.038  0.8992 -0.9091 -1.2172
  669MOL0     H90283   0.926   4.511   4.118  0.0859  1.9548 -2.2810
  669MOL0     H90284   0.927   4.589   4.280 -0.1042 -0.5900 -0.7568
  669MOL0     H90285   0.675   4.533   4.120  0.7279 -0.1146 -1.1400
  669MOL0     H90286   0.682   4.596   4.282  0.7824 -0.1989 -0.1498
  669MOL0     H90287   0.778   4.325   4.179 -0.8066  3.3612 -3.4477
  669MOL0     H90288   0.639   4.357   4.258 -0.6531 -0.0548 -1.2271
  669MOL0     H90289   0.903   4.396   4.393 -0.3669 -0.4170 -2.6331
  669MOL0     H90290   0.753   4.429   4.481 -1.3685 -0.4316  1.0131
  669MOL0     H90291   0.731   4.158   4.383  1.6537 -0.3941 -0.9389
  669MOL0     H90292   0.722   4.225   4.548  1.4623  2.6783  1.1909
  669MOL0     H90293   0.967   4.217   4.590  0.6281 -1.0752 -0.1716
  669MOL0     H90294   0.929   4.063   4.534  4.6903 -0.0129  0.4054
  669MOL0     H90295   1.233   4.560   3.821  2.8868  2.2316 -3.5434
  669MOL0     H90296   1.449   4.542   3.802 -1.8007  0.8740 -1.5845
  669MOL0     H90297   1.879   4.523   4.233  1.2342 -1.8912  0.4562
  669MOL0     H90298   2.118   4.446   4.184 -1.5571  1.7607  1.8308
  669MOL0     H90299   3.265   5.301   4.190  0.4227  2.8167  0.6284
  669MOL0     H90300   3.214   5.463   4.395 -1.5892  0.0531  3.0481
  669MOL0     H90301   2.666   5.465   4.662  1.5919 -2.9691 -0.4864
  669MOL0     H90302   2.563   5.602   4.845  1.1295  1.5071 -1.2717
  669MOL0     H90303   2.544   5.862   5.062  0.1991  2.0355  0.2139
  669MOL0     H90304   2.555   5.825   4.893 -0.6441  1.3243  0.0307
  669MOL0     H90305   2.780   5.970   5.031 -0.7664  1.1426  0.5963
  669MOL0     H90306   2.649   6.067   4.952  0.8346  0.1410  0.9091
  669MOL0     H90307   2.657   5.965   4.743 -4.0150  0.2493  4.2197
  669MOL0     H90308   2.797   5.862   4.801 -2.5673 -3.3944  5.6411
  669MOL0     H90309   2.915   6.075   4.850  1.6387  0.9382 -0.2940
  669MOL0     H90310   2.896   6.043   4.683  0.6693 -3.1068  0.3342
  669MOL0     H90311   2.646   6.389   4.720  0.2518  1.1930  2.0041
  669MOL0     H90312   2.956   5.693   4.980 -0.4709  0.8473 -0.3985
  669MOL0     H90313   3.138   5.634   4.878  2.2507 -0.4775 -1.3736
  669MOL0     H90314   3.135   5.454   4.831  0.5674 -0.9394 -2.3038
  669MOL0     H90315   3.114   5.575   4.708 -2.1282 -2.7695 -1.7136
  670MOL0     O90316  11.211   9.725   6.171 -0.2107 -0.2591 -0.4488
  670MOL0     C90317  11.268   9.773   6.269 -0.8185  0.3015 -0.5605
  670MOL0     O90318  11.215   9.788   6.398 -0.8474 -0.2596  0.0074
  670MOL0     C90319  11.086   9.761   6.405  0.0699 -1.1489  0.3153
  670MOL0     C90320  10.987   9.845   6.346 -0.5111 -0.3762 -0.3669
  670MOL0     C90321  10.852   9.816   6.342  1.2755 -0.8927 -0.3879
  670MOL0     C90322  10.802   9.708   6.416  0.3635  0.5676  0.1588
  670MOL0     O90323  10.671   9.675   6.439 -0.2956 -0.7709  0.9261
  670MOL0     C90324  10.577   9.701   6.336  0.7105  0.9988  0.0496
  670MOL0     C90325  10.437   9.720   6.407 -0.4210  0.0253  0.5147
  670MOL0     C90326  10.359   9.595   6.448  1.0608 -1.0040 -0.1457
  670MOL0     C90327  10.227   9.651   6.502  0.7727  1.1174  0.5987
  670MOL0     C90328  10.134   9.540   6.528 -0.1134  0.6209  0.4501
  670MOL0     C90329  10.031   9.576   6.632  0.6828 -0.6001 -0.5275
  670MOL0     C90330   9.939   9.465   6.661  0.3860  0.9193 -0.1613
  670MOL0     C90331   9.804   9.505   6.731  0.3473 -0.2812 -0.1480
  670MOL0     N90332   9.791   9.587   6.855 -0.0621  0.3879  0.2366
  670MOL0     C90333   9.862   9.551   6.964  0.8082  0.3837 -0.2807
  670MOL0     C90334   9.870   9.665   7.035  0.2343  1.2683 -0.5372
  670MOL0     C90335   9.925   9.675   7.174  0.0637  0.0216  0.0216
  670MOL0     C90336  10.064   9.610   7.201  0.4066  0.0134 -1.0168
  670MOL0     C90337  10.166   9.708   7.130 -0.2063  0.5959  0.1849
  670MOL0     C90338  10.314   9.661   7.148  0.4287  0.2130 -0.3657
  670MOL0     O90339  10.336   9.543   7.063  0.0557 -0.8320 -0.6392
  670MOL0     C90340  10.470   9.535   7.019 -0.0482  0.6502 -0.3457
  670MOL0     C90341  10.572   9.557   7.111  0.2771  0.4913  0.5229
  670MOL0     C90342  10.708   9.555   7.068  0.2909  0.3992 -0.8194
  670MOL0     C90343  10.741   9.521   6.939  1.3969  0.1117  0.2192
  670MOL0     C90344  10.891   9.508   6.898  0.2034 -0.1536  0.5856
  670MOL0     O90345  10.992   9.518   6.992  0.0235 -0.4855  0.1832
  670MOL0     C90346  11.126   9.517   6.950  0.2248 -0.8206 -1.0527
  670MOL0     C90347  11.185   9.402   6.895  0.1880 -0.1980 -0.7503
  670MOL0     C90348  11.320   9.387   6.859 -0.4755  0.1970  0.0635
  670MOL0     C90349  11.402   9.500   6.852  0.5482 -0.5273 -0.1674
  670MOL0     O90350  11.533   9.502   6.818  0.0651 -0.0543 -0.2153
  670MOL0     C90351  11.603   9.395   6.875  0.0611  0.7603  0.2640
  670MOL0     C90352  11.740   9.460   6.901 -0.7119 -0.5325 -0.2416
  670MOL0     C90353  11.842   9.359   6.944 -0.2545  0.6209  0.0284
  670MOL0     C90354  11.984   9.392   6.942 -0.2854  0.4247 -0.2410
  670MOL0     C90355  12.069   9.300   7.034  0.7698  0.0039  0.6532
  670MOL0     C90356  12.222   9.330   7.015 -0.3290  0.7082 -0.0379
  670MOL0     C90357  12.268   9.465   7.078  0.1007 -0.2619 -0.1518
  670MOL0     C90358  12.406   9.498   7.023  0.2795  0.1623 -0.7220
  670MOL0    Cl90359  12.531   9.385   7.089 -0.0509  0.3076 -0.2992
  670MOL0     C90360  11.343   9.622   6.883 -0.1790 -0.3244  0.1620
  670MOL0     C90361  11.213   9.629   6.925 -0.3423 -0.5982  0.3159
  670MOL0     O90362  10.908   9.500   6.777  0.1976 -0.1033 -0.9780
  670MOL0     C90363  10.632   9.502   6.847  0.7606 -0.4845  0.0264
  670MOL0     C90364  10.496   9.511   6.885  0.1066  0.5536  0.4361
  670MOL0     N90365   9.804   9.767   6.970 -0.1591  0.4482  1.0376
  670MOL0     N90366   9.758   9.717   6.857  0.2800  0.5333 -0.3616
  670MOL0     C90367  10.905   9.621   6.485  0.5748 -0.4173 -0.5353
  670MOL0     C90368  11.037   9.654   6.476  0.4626  0.2819 -0.3071
  670MOL0     C90369  11.418   9.774   6.268 -0.3086  1.0540  0.9473
  670MOL0     C90370  11.477   9.819   6.152 -0.3186  0.2537  0.2246
  670MOL0     C90371  11.619   9.815   6.121  0.6944 -0.4840  0.3799
  670MOL0     C90372  11.704   9.783   6.226  0.5328  0.7549  0.2202
  670MOL0     O90373  11.833   9.812   6.205 -0.5960  0.0732  0.4969
  670MOL0     C90374  11.909   9.839   6.326  0.1003 -0.4855  0.3460
  670MOL0     C90375  12.042   9.903   6.278 -1.1222 -0.2498  0.4186
  670MOL0     C90376  12.152   9.905   6.393 -0.3299  0.0253 -0.1680
  670MOL0     C90377  12.290   9.969   6.346 -0.1537 -0.2169  0.3081
  670MOL0     C90378  12.359   9.892   6.238 -0.1136  0.2573  1.0208
  670MOL0     C90379  12.408   9.825   6.144 -0.5406  0.1389  0.2365
  670MOL0     C90380  11.648   9.738   6.348 -0.3263  1.1463  1.3602
  670MOL0     C90381  11.510   9.730   6.361 -0.6288  0.4865  0.3810
  670MOL0     C90382  11.462   9.693   6.509  0.8082  0.2469  1.1177
  670MOL0     H90383  11.015   9.933   6.289 -3.4478  0.0130 -1.3888
  670MOL0     H90384  10.794   9.880   6.276  3.3117 -0.0470 -1.4736
  670MOL0     H90385  10.597   9.791   6.277  1.7629  1.2071  0.6952
  670MOL0     H90386  10.571   9.615   6.268 -2.7804  0.9772  0.2272
  670MOL0     H90387  10.379   9.779   6.335  0.6851  0.1781 -0.2824
  670MOL0     H90388  10.442   9.784   6.495  0.6307  0.0533  0.4409
  670MOL0     H90389  10.420   9.552   6.528  0.1910 -0.7838  0.6607
  670MOL0     H90390  10.342   9.524   6.367 -4.4564  0.5418 -0.7640
  670MOL0     H90391  10.243   9.715   6.590 -2.7704  2.1655  0.6263
  670MOL0     H90392  10.166   9.711   6.434  0.0590 -0.3217 -0.0780
  670MOL0     H90393  10.094   9.507   6.432 -0.9330 -0.9690  1.2877
  670MOL0     H90394  10.180   9.447   6.563  0.2294  0.1060 -1.2589
  670MOL0     H90395  10.071   9.623   6.722 -1.1719  1.6496 -0.7721
  670MOL0     H90396   9.966   9.652   6.587 -0.1005  0.1764  1.7582
  670MOL0     H90397   9.988   9.400   6.734 -2.2343 -0.3258  0.6323
  670MOL0     H90398   9.925   9.405   6.571  3.9165 -3.0678  1.5792
  670MOL0     H90399   9.744   9.554   6.654  1.6440  0.6022 -0.6382
  670MOL0     H90400   9.748   9.415   6.756 -3.8752  1.0681 -3.6555
  670MOL0     H90401   9.881   9.451   7.002 -2.0398 -0.1504 -0.1112
  670MOL0     H90402   9.916   9.776   7.214 -1.8364  0.9162 -2.4168
  670MOL0     H90403   9.859   9.614   7.236 -1.2476 -1.9206 -3.0493
  670MOL0     H90404  10.077   9.602   7.310 -0.3367 -3.5255 -1.0537
  670MOL0     H90405  10.074   9.505   7.171  3.5603 -0.6958  1.8212
  670MOL0     H90406  10.153   9.805   7.178 -0.3740  0.9590 -0.5731
  670MOL0     H90407  10.146   9.721   7.023 -0.8788 -1.4726  0.0055
  670MOL0     H90408  10.330   9.656   7.256  0.2789  0.1917 -0.3450
  670MOL0     H90409  10.385   9.737   7.113  0.6876 -0.6514 -1.8067
  670MOL0     H90410  10.562   9.602   7.209 -2.8760  2.1400 -0.4002
  670MOL0     H90411  10.795   9.565   7.132  1.9050 -0.5239 -2.7638
  670MOL0     H90412  11.122   9.314   6.884  0.5063 -0.3921 -1.0423
  670MOL0     H90413  11.352   9.290   6.824 -3.0144 -1.2870  1.5993
  670MOL0     H90414  11.553   9.368   6.968 -3.1996  1.8108 -1.0307
  670MOL0     H90415  11.608   9.308   6.808 -1.8332 -0.4702  1.6273
  670MOL0     H90416  11.774   9.508   6.809  2.6176 -2.6130 -0.2544
  670MOL0     H90417  11.730   9.541   6.973 -3.1404 -0.2156 -0.8363
  670MOL0     H90418  11.811   9.323   7.042  3.1484  0.3865  1.1478
  670MOL0     H90419  11.833   9.268   6.883 -0.1735 -0.5946  1.7688
  670MOL0     H90420  12.004   9.488   6.990 -1.7688  1.1090 -0.9244
  670MOL0     H90421  12.026   9.377   6.842  2.7829 -0.6228  1.0846
  670MOL0     H90422  12.055   9.194   7.010  2.3156 -0.1793  0.4476
  670MOL0     H90423  12.041   9.322   7.137  1.8856  0.7278  0.8170
  670MOL0     H90424  12.275   9.246   7.061 -1.9689 -0.4537 -0.2097
  670MOL0     H90425  12.236   9.342   6.907  0.2467  0.1965 -0.0215
  670MOL0     H90426  12.277   9.463   7.187  1.9087 -0.4362 -0.2585
  670MOL0     H90427  12.201   9.548   7.058 -0.8578 -0.9231  0.2649
  670MOL0     H90428  12.421   9.506   6.915 -0.1504 -1.0014 -0.8930
  670MOL0     H90429  12.428   9.594   7.071  2.0453  0.0927 -1.3268
  670MOL0     H90430  11.404   9.711   6.885  0.3572 -0.6949  2.5208
  670MOL0     H90431  11.174   9.724   6.961  0.8297 -0.3624  0.9873
  670MOL0     H90432  10.652   9.470   6.745 -3.3673 -1.0700 -0.7614
  670MOL0     H90433  10.415   9.504   6.813 -0.1019  1.2490  0.5923
  670MOL0     H90434  10.874   9.537   6.546 -2.2066  0.1929 -0.9729
  670MOL0     H90435  11.104   9.593   6.534  0.1702 -2.2110 -2.4301
  670MOL0     H90436  11.428   9.845   6.059  2.9522 -2.3936 -2.5049
  670MOL0     H90437  11.669   9.833   6.026 -0.6823  2.2199  0.0697
  670MOL0     H90438  11.931   9.741   6.369 -1.6903 -0.7212  0.8018
  670MOL0     H90439  11.852   9.895   6.400  2.4712  0.0027  1.9129
  670MOL0     H90440  12.029  10.005   6.242 -1.0117 -0.5614 -0.5615
  670MOL0     H90441  12.087   9.848   6.194  0.2616 -1.4120  1.8616
  670MOL0     H90442  12.172   9.801   6.421  2.2589  0.6726  0.6376
  670MOL0     H90443  12.111   9.966   6.474 -1.0361  0.5189 -0.8828
  670MOL0     H90444  12.270  10.068   6.304  1.0559 -0.2451 -0.3714
  670MOL0     H90445  12.346   9.978   6.439 -0.6056 -2.9428  0.9467
  670MOL0     H90446  12.438   9.760   6.065  0.2768 -2.5802  2.6101
  670MOL0     H90447  11.711   9.720   6.434  5.0688  3.3763 -1.6332
  670MOL0     H90448  11.521   9.608   6.544  0.5199 -1.5804 -2.4098
  670MOL0     H90449  11.473   9.780   6.574 -2.9262  0.7091  1.3857
  670MOL0     H90450  11.359   9.657   6.499 -0.0027  2.3998  1.2030
  671MOL0     O90451   0.059   4.821   3.210  0.5018  0.5274 -0.4172
  671MOL0     C90452   0.037   4.738   3.300 -0.2858 -0.1288 -0.3544
  671MOL0     O90453  -0.029   4.609   3.281 -0.6800  0.2569  0.0041
  671MOL0     C90454  -0.066   4.565   3.152  0.0254  0.4562 -0.1158
  671MOL0     C90455   0.025   4.489   3.073  0.3549 -0.8264  0.8723
  671MOL0     C90456  -0.014   4.445   2.943 -0.0684  0.4070  0.1518
  671MOL0     C90457  -0.150   4.468   2.901  0.1223  0.3719 -0.5247
  671MOL0     O90458  -0.204   4.429   2.779  0.2840 -0.4208  0.0027
  671MOL0     C90459  -0.114   4.391   2.681  0.1296  0.2579 -0.2135
  671MOL0     C90460  -0.189   4.405   2.557  0.6854 -0.0840 -0.4484
  671MOL0     C90461  -0.095   4.416   2.434  0.2003  0.5373  0.2248
  671MOL0     C90462  -0.174   4.472   2.321 -0.7102  0.0470  0.3450
  671MOL0     C90463  -0.081   4.506   2.205 -1.0949 -0.6602  0.4868
  671MOL0     C90464  -0.065   4.391   2.101 -0.9503  0.1637 -0.2375
  671MOL0     C90465   0.061   4.308   2.121  0.3134  0.9944 -0.2382
  671MOL0     C90466   0.047   4.169   2.057  0.3422 -0.0278 -0.4474
  671MOL0     N90467   0.047   4.180   1.910 -0.2282  0.2177  0.7013
  671MOL0     C90468  -0.066   4.196   1.833  1.0906 -0.0819  0.7902
  671MOL0     C90469  -0.029   4.190   1.705  0.3991 -0.6747 -0.5658
  671MOL0     C90470  -0.123   4.202   1.585 -0.5765 -0.6888 -0.5422
  671MOL0     C90471  -0.109   4.094   1.473 -1.0123 -1.7356 -0.3943
  671MOL0     C90472  -0.228   3.997   1.476 -0.0367 -1.2392 -0.4865
  671MOL0     C90473  -0.197   3.877   1.396  0.5423  0.6208  0.2777
  671MOL0     O90474  -0.307   3.786   1.405 -0.5209 -0.3075  0.2769
  671MOL0     C90475  -0.303   3.677   1.321  0.5726  0.3534 -0.1941
  671MOL0     C90476  -0.242   3.558   1.362  0.2663  0.6866  0.2765
  671MOL0     C90477  -0.226   3.461   1.261  0.6933 -0.5152 -0.5047
  671MOL0     C90478  -0.286   3.470   1.136  0.8360 -1.0450  0.7871
  671MOL0     C90479  -0.263   3.367   1.024 -0.1991  0.7777 -0.5954
  671MOL0     O90480  -0.287   3.406   0.898 -0.1990  0.8356 -0.3753
  671MOL0     C90481  -0.226   3.335   0.790  0.8938  0.6263  0.2746
  671MOL0     C90482  -0.093   3.297   0.776  0.0634  0.1431  0.9317
  671MOL0     C90483  -0.054   3.223   0.661  0.3561 -0.2155 -0.8866
  671MOL0     C90484  -0.146   3.194   0.560  0.6644  0.7625  0.7192
  671MOL0     O90485  -0.116   3.125   0.444  0.2480 -0.2964 -0.5486
  671MOL0     C90486   0.004   3.059   0.419 -0.5918  0.1448 -0.5359
  671MOL0     C90487  -0.011   2.969   0.302  0.3503  0.2467  0.4123
  671MOL0     C90488   0.111   2.889   0.247 -0.3187 -0.0790 -0.2634
  671MOL0     C90489   0.092   2.824   0.115  0.0618 -0.2338 -0.7240
  671MOL0     C90490   0.062   2.924   0.002  0.7817  0.6361 -0.0138
  671MOL0     C90491   0.168   3.034  -0.021 -0.8553  0.1761  0.4915
  671MOL0     C90492   0.135   3.116  -0.147 -0.7693 -0.0215  0.8191
  671MOL0     C90493   0.225   3.241  -0.153 -0.8128 -0.5231 -0.4848
  671MOL0    Cl90494   0.110   3.385  -0.120  0.0252 -0.5690  0.2229
  671MOL0     C90495  -0.278   3.228   0.583 -0.1408 -0.4550  0.9926
  671MOL0     C90496  -0.312   3.305   0.687  1.0436  0.0565 -0.1040
  671MOL0     O90497  -0.209   3.260   1.067  0.2980  0.0342  0.5104
  671MOL0     C90498  -0.343   3.587   1.101 -0.0123  0.3043  0.3846
  671MOL0     C90499  -0.355   3.696   1.187 -1.0070 -0.7089  0.6317
  671MOL0     N90500   0.108   4.182   1.705 -0.7923  0.7220  0.9980
  671MOL0     N90501   0.154   4.178   1.821 -0.2181 -0.2217  0.2912
  671MOL0     C90502  -0.236   4.546   2.981 -0.3604  0.7012 -0.3537
  671MOL0     C90503  -0.197   4.587   3.106  0.2040  0.0379 -0.7959
  671MOL0     C90504   0.116   4.774   3.427 -0.3752  0.6954 -0.0318
  671MOL0     C90505   0.131   4.903   3.465  1.1662 -0.8292  0.7836
  671MOL0     C90506   0.198   4.932   3.589 -0.6472 -0.4460 -0.8747
  671MOL0     C90507   0.255   4.832   3.665 -0.8341  0.0501 -0.6131
  671MOL0     O90508   0.337   4.844   3.770  0.4428  0.3997 -0.3360
  671MOL0     C90509   0.397   4.964   3.821 -0.1264  0.3147  0.4131
  671MOL0     C90510   0.439   4.934   3.973 -0.4246  0.3908  0.0060
  671MOL0     C90511   0.561   5.021   4.010  0.4769 -0.2120 -0.7968
  671MOL0     C90512   0.597   4.993   4.151  0.1225 -0.8861  0.6484
  671MOL0     C90513   0.718   5.069   4.181  0.0846 -0.4564  0.4479
  671MOL0     C90514   0.810   5.145   4.215  0.0337  0.2255  0.6694
  671MOL0     C90515   0.235   4.695   3.619  0.5376  0.1747 -0.5138
  671MOL0     C90516   0.167   4.665   3.504 -0.2382 -0.7401 -0.1533
  671MOL0     C90517   0.149   4.516   3.479 -0.8908 -1.0513 -0.1304
  671MOL0     H90518   0.131   4.477   3.098  1.0244 -0.7796 -1.7168
  671MOL0     H90519   0.063   4.392   2.889  1.5272  0.2077  2.4923
  671MOL0     H90520  -0.036   4.468   2.684 -1.2417  1.6692  0.7082
  671MOL0     H90521  -0.062   4.295   2.692  0.2335  0.1908 -1.1540
  671MOL0     H90522  -0.258   4.489   2.567  2.6274  1.4064  1.6531
  671MOL0     H90523  -0.262   4.325   2.553 -0.2116  0.5119  2.1235
  671MOL0     H90524  -0.065   4.317   2.398  3.4041  1.1457  0.8646
  671MOL0     H90525  -0.002   4.472   2.450  0.9080 -0.1115 -1.4176
  671MOL0     H90526  -0.247   4.403   2.277 -0.5221  1.3021 -2.1397
  671MOL0     H90527  -0.222   4.568   2.342 -2.1102  0.2642 -3.0951
  671MOL0     H90528  -0.110   4.598   2.153 -5.5138 -1.3185  1.4221
  671MOL0     H90529   0.021   4.529   2.236 -0.4405 -0.0203 -1.9266
  671MOL0     H90530  -0.141   4.319   2.131 -1.5594  1.1891  0.7440
  671MOL0     H90531  -0.077   4.433   2.001 -2.4482  1.2450  0.3587
  671MOL0     H90532   0.082   4.286   2.226  0.9861 -1.6048 -0.8304
  671MOL0     H90533   0.147   4.360   2.079  1.7323 -0.7718  0.3608
  671MOL0     H90534   0.123   4.096   2.086 -1.0150 -1.9380 -1.4341
  671MOL0     H90535  -0.051   4.126   2.082 -1.0509  2.5545 -1.1023
  671MOL0     H90536  -0.168   4.204   1.870  0.5801 -0.9232 -0.3674
  671MOL0     H90537  -0.227   4.216   1.619 -2.4789 -2.5942 -4.8109
  671MOL0     H90538  -0.103   4.295   1.532  0.0266 -1.2487 -1.3106
  671MOL0     H90539  -0.119   4.155   1.383 -0.1989  1.4385  1.5038
  671MOL0     H90540  -0.008   4.056   1.489 -1.2898 -1.8676  1.2181
  671MOL0     H90541  -0.313   4.054   1.437  1.4206  1.8927  0.5252
  671MOL0     H90542  -0.247   3.976   1.582 -0.9108 -1.7923 -0.7489
  671MOL0     H90543  -0.102   3.833   1.429  0.7988  1.4200  0.6167
  671MOL0     H90544  -0.176   3.916   1.296  2.9843 -3.3611 -0.9948
  671MOL0     H90545  -0.197   3.549   1.460  2.9925  2.1753 -0.7155
  671MOL0     H90546  -0.171   3.371   1.289  0.7973 -0.4108 -0.3709
  671MOL0     H90547  -0.015   3.328   0.845  0.6545 -0.7322  0.6819
  671MOL0     H90548   0.049   3.191   0.649  0.4507 -2.0510  3.1573
  671MOL0     H90549   0.072   3.141   0.395  1.3091 -1.4591 -0.8705
  671MOL0     H90550   0.041   2.995   0.499  0.2278  0.1387 -0.9168
  671MOL0     H90551  -0.093   2.896   0.311 -2.2890  2.7689 -1.3282
  671MOL0     H90552  -0.049   3.039   0.227 -1.3172 -0.5883  0.4260
  671MOL0     H90553   0.194   2.957   0.229 -1.5360  1.3592 -0.7062
  671MOL0     H90554   0.142   2.817   0.323  0.6417  1.6799  1.0684
  671MOL0     H90555   0.020   2.742   0.123  2.1033 -2.1959 -1.1030
  671MOL0     H90556   0.184   2.770   0.088  1.0766  0.2172  1.5854
  671MOL0     H90557  -0.033   2.974   0.026  1.7803  1.4308  2.6802
  671MOL0     H90558   0.034   2.852  -0.075 -0.6708  0.2151  0.8530
  671MOL0     H90559   0.171   3.116   0.052  1.9464  1.3610 -0.7670
  671MOL0     H90560   0.265   2.985  -0.032  0.4413  2.3312  1.5062
  671MOL0     H90561   0.032   3.154  -0.144 -0.7064  0.0874  2.3086
  671MOL0     H90562   0.143   3.046  -0.231 -1.6662  1.4776 -0.5671
  671MOL0     H90563   0.303   3.256  -0.078 -0.0759  1.0161 -1.5071
  671MOL0     H90564   0.276   3.247  -0.249 -2.4486 -2.3402 -1.5445
  671MOL0     H90565  -0.348   3.192   0.509  0.5562 -1.5520  0.8562
  671MOL0     H90566  -0.414   3.341   0.687 -0.3632 -3.5203  0.2480
  671MOL0     H90567  -0.398   3.593   1.007 -2.1017  0.3946  1.5649
  671MOL0     H90568  -0.403   3.787   1.153  0.7563  1.3647  3.2701
  671MOL0     H90569  -0.337   4.561   2.944  0.4796  0.3680 -2.9579
  671MOL0     H90570  -0.279   4.632   3.160 -2.2753 -0.7814 -3.6084
  671MOL0     H90571   0.091   4.981   3.401  0.1952 -1.2308  0.8958
  671MOL0     H90572   0.220   5.037   3.607  2.5221 -1.2973  1.0510
  671MOL0     H90573   0.333   5.053   3.820 -0.8472 -0.1869 -0.6985
  671MOL0     H90574   0.479   4.986   3.751  0.4800 -2.7096  0.0578
  671MOL0     H90575   0.469   4.832   3.997  0.9511  1.3154  2.6115
  671MOL0     H90576   0.352   4.949   4.037 -0.3403  1.2917 -0.0821
  671MOL0     H90577   0.537   5.128   4.011  4.2336  0.8067 -0.8446
  671MOL0     H90578   0.642   5.007   3.937  0.1531  0.4837 -1.3051
  671MOL0     H90579   0.511   5.035   4.204 -0.3844 -1.7513  0.5317
  671MOL0     H90580   0.629   4.889   4.161  2.0182 -0.3999 -0.0822
  671MOL0     H90581   0.897   5.195   4.250  0.8062  1.2362 -2.4020
  671MOL0     H90582   0.279   4.611   3.671  2.1051  2.4523  2.1570
  671MOL0     H90583   0.184   4.451   3.560 -2.0857  0.9548  2.1056
  671MOL0     H90584   0.046   4.484   3.460 -1.2508  0.8114 -1.6034
  671MOL0     H90585   0.212   4.489   3.393  2.5181  1.6441  1.2930
  672MOL0     O90586   6.311   6.647   1.517 -0.5794 -0.2556 -0.3259
  672MOL0     C90587   6.252   6.685   1.413  0.7912  0.2968 -0.5389
  672MOL0     O90588   6.130   6.653   1.384 -0.9400 -0.2508 -1.5488
  672MOL0     C90589   6.073   6.529   1.419  1.5416  0.3714  0.0925
  672MOL0     C90590   6.147   6.407   1.423  0.7188 -0.2602  1.4307
  672MOL0     C90591   6.085   6.284   1.443  0.3255  0.5142  0.2263
  672MOL0     C90592   5.943   6.276   1.452 -0.0012 -0.2393 -0.2131
  672MOL0     O90593   5.871   6.156   1.478  0.0534  0.2920  0.0497
  672MOL0     C90594   5.784   6.116   1.360  0.2915 -0.0187 -0.5332
  672MOL0     C90595   5.841   6.022   1.255  0.3380  0.1206  0.6307
  672MOL0     C90596   5.874   5.874   1.310 -0.8258  0.5175  0.3107
  672MOL0     C90597   5.943   5.872   1.446  0.6831 -0.4686  0.4419
  672MOL0     C90598   6.005   5.743   1.482  0.3577  0.2059  0.5634
  672MOL0     C90599   6.123   5.693   1.403 -0.2503 -0.2497  0.0926
  672MOL0     C90600   6.222   5.603   1.486  0.4000 -0.4880  0.5886
  672MOL0     C90601   6.361   5.600   1.420  0.1191  0.7757 -1.0022
  672MOL0     N90602   6.465   5.560   1.513 -0.4970  0.1029 -0.2271
  672MOL0     C90603   6.594   5.600   1.499  0.3236 -0.2157 -0.5287
  672MOL0     C90604   6.655   5.545   1.608 -0.7094  0.4910 -0.1903
  672MOL0     C90605   6.793   5.582   1.648  0.0115  0.8824  0.2687
  672MOL0     C90606   6.793   5.728   1.683 -0.4294 -0.7471  0.1216
  672MOL0     C90607   6.936   5.784   1.690  1.0767  0.2324 -0.7381
  672MOL0     C90608   7.037   5.710   1.789 -0.0182  0.7383  1.6547
  672MOL0     O90609   7.130   5.808   1.830  0.0442  0.1258 -0.8445
  672MOL0     C90610   7.154   5.806   1.967  0.0402  0.5101  0.0615
  672MOL0     C90611   7.198   5.705   2.048  0.1570  0.7607  0.4080
  672MOL0     C90612   7.217   5.727   2.187 -0.0433 -0.6971  0.8935
  672MOL0     C90613   7.196   5.846   2.246  1.1224 -0.1237 -0.3374
  672MOL0     C90614   7.230   5.854   2.393 -0.0642  0.2101  0.5153
  672MOL0     O90615   7.244   5.739   2.466 -0.1421 -0.2482  0.4457
  672MOL0     C90616   7.253   5.746   2.603  0.2729 -0.1059  0.2668
  672MOL0     C90617   7.142   5.741   2.693 -0.7329  0.3627 -0.2524
  672MOL0     C90618   7.158   5.737   2.832 -0.8035  0.8021 -0.0071
  672MOL0     C90619   7.288   5.744   2.886  0.6767 -0.1375 -1.5166
  672MOL0     O90620   7.316   5.732   3.022  0.9887 -0.4873  1.2624
  672MOL0     C90621   7.214   5.757   3.112  0.8754 -0.2256 -0.3498
  672MOL0     C90622   7.291   5.767   3.254  0.1014 -0.8495  1.5146
  672MOL0     C90623   7.193   5.779   3.364 -0.5067 -0.1333 -0.0081
  672MOL0     C90624   7.251   5.753   3.509 -0.5280  0.1004  0.2474
  672MOL0     C90625   7.135   5.748   3.614 -0.5717 -0.2871  0.0885
  672MOL0     C90626   7.199   5.723   3.758 -0.0612  0.3154 -0.1422
  672MOL0     C90627   7.098   5.719   3.872  0.2260 -0.4935 -0.0243
  672MOL0     C90628   7.177   5.700   4.009 -0.2744  0.4275 -0.3442
  672MOL0    Cl90629   7.055   5.724   4.145  0.3285  0.7504  0.2838
  672MOL0     C90630   7.394   5.739   2.807  0.0526  0.0400 -0.6567
  672MOL0     C90631   7.379   5.727   2.667 -0.5899 -0.5804  0.5147
  672MOL0     O90632   7.237   5.970   2.441  0.4357 -0.3799 -0.0986
  672MOL0     C90633   7.167   5.956   2.172 -0.3282 -0.1068  0.1282
  672MOL0     C90634   7.143   5.930   2.033 -0.2084  0.4723 -0.0641
  672MOL0     N90635   6.564   5.473   1.691  0.4716 -1.3446  0.5910
  672MOL0     N90636   6.451   5.474   1.623  0.1304 -0.2063 -0.1741
  672MOL0     C90637   5.871   6.395   1.444 -1.0150  0.3008 -0.2480
  672MOL0     C90638   5.934   6.514   1.410  0.3726 -0.2019 -0.3831
  672MOL0     C90639   6.315   6.774   1.327  0.5050  0.0343  0.2300
  672MOL0     C90640   6.290   6.767   1.184 -0.3455 -0.1636 -0.1173
  672MOL0     C90641   6.358   6.837   1.090 -0.6795 -0.6614  0.6137
  672MOL0     C90642   6.417   6.954   1.126 -0.2301  0.9555 -0.4150
  672MOL0     O90643   6.455   7.032   1.016  0.5853 -0.6302 -0.7338
  672MOL0     C90644   6.572   7.110   1.032 -0.3118  0.4008  0.1366
  672MOL0     C90645   6.584   7.201   0.906  0.4187 -0.6874  1.0163
  672MOL0     C90646   6.617   7.125   0.773  0.4892  0.3349 -0.2622
  672MOL0     C90647   6.771   7.092   0.768 -0.5671  0.1483 -0.2935
  672MOL0     C90648   6.800   6.963   0.828  0.8024  0.3261  0.1491
  672MOL0     C90649   6.803   6.854   0.887  0.4858  0.1366 -0.1241
  672MOL0     C90650   6.428   6.981   1.262  0.7377  0.4043  0.5491
  672MOL0     C90651   6.386   6.895   1.363 -1.3561  0.9918 -0.7913
  672MOL0     C90652   6.422   6.925   1.506 -0.5251 -0.3396 -0.2677
  672MOL0     H90653   6.254   6.410   1.403  0.8724 -1.9011  1.8777
  672MOL0     H90654   6.146   6.195   1.439 -0.1548  0.1463 -4.0175
  672MOL0     H90655   5.697   6.075   1.412  2.1566 -0.5867  2.3929
  672MOL0     H90656   5.749   6.201   1.301  0.4693  0.5878  0.2145
  672MOL0     H90657   5.929   6.078   1.220 -0.9652  2.9909  1.5905
  672MOL0     H90658   5.772   6.013   1.171  1.6700 -3.3172 -0.2668
  672MOL0     H90659   5.943   5.824   1.241 -0.3484  0.3209  0.9153
  672MOL0     H90660   5.783   5.814   1.314 -0.2082 -0.3783  2.2278
  672MOL0     H90661   6.018   5.951   1.454 -1.0561  1.2798  0.4179
  672MOL0     H90662   5.874   5.905   1.525  1.0884 -0.7890  0.9369
  672MOL0     H90663   6.036   5.755   1.586 -2.3372 -0.7518  1.5691
  672MOL0     H90664   5.924   5.670   1.468 -0.6160  1.3039  0.2914
  672MOL0     H90665   6.084   5.642   1.315 -1.3787  2.4950 -1.1086
  672MOL0     H90666   6.184   5.782   1.383  1.8727 -0.8986  2.9350
  672MOL0     H90667   6.174   5.505   1.494 -0.2381 -0.2900 -0.6257
  672MOL0     H90668   6.241   5.640   1.587  2.3120 -0.2525  0.1862
  672MOL0     H90669   6.364   5.518   1.348 -1.1568 -2.9574  2.7683
  672MOL0     H90670   6.387   5.697   1.377  1.9148  1.5155  1.5497
  672MOL0     H90671   6.634   5.661   1.419 -0.1357 -1.6631 -1.9104
  672MOL0     H90672   6.808   5.527   1.741 -0.7044  0.2955  0.0504
  672MOL0     H90673   6.865   5.543   1.575 -0.0338 -5.7862  3.0108
  672MOL0     H90674   6.738   5.784   1.607  3.6972  1.9718 -1.2044
  672MOL0     H90675   6.746   5.742   1.780 -0.9447 -0.2094 -0.1967
  672MOL0     H90676   6.914   5.888   1.718 -3.2344 -0.8804  0.7594
  672MOL0     H90677   6.972   5.769   1.588 -1.4786  0.0264 -1.7003
  672MOL0     H90678   7.084   5.627   1.736  0.0565  2.2860 -0.8394
  672MOL0     H90679   6.987   5.669   1.877  0.5472 -1.5062  0.9812
  672MOL0     H90680   7.209   5.608   2.001 -0.8411  2.1218 -2.9560
  672MOL0     H90681   7.260   5.649   2.250  2.5672  0.5134  0.7628
  672MOL0     H90682   7.045   5.749   2.643  0.0807  2.1626 -1.7112
  672MOL0     H90683   7.070   5.725   2.896 -0.0585 -0.0153  0.8943
  672MOL0     H90684   7.163   5.851   3.090  1.8557  0.8189  1.5135
  672MOL0     H90685   7.144   5.674   3.123  1.4569 -0.4792  1.9794
  672MOL0     H90686   7.350   5.675   3.265  0.7447 -0.5328  0.8663
  672MOL0     H90687   7.360   5.852   3.254 -2.0363  0.9995 -0.0036
  672MOL0     H90688   7.166   5.884   3.358  0.8217  0.2155 -0.3084
  672MOL0     H90689   7.098   5.727   3.352 -0.1532 -0.1849 -3.9830
  672MOL0     H90690   7.317   5.838   3.530 -1.3791  0.9768 -0.4879
  672MOL0     H90691   7.305   5.658   3.509 -0.7529 -0.1187  3.5685
  672MOL0     H90692   7.081   5.658   3.583  1.0047 -1.2065 -0.1419
  672MOL0     H90693   7.066   5.832   3.623 -1.6976 -1.3494  2.3599
  672MOL0     H90694   7.255   5.629   3.753  0.4936  0.4744  1.9552
  672MOL0     H90695   7.269   5.802   3.784 -1.1989  0.9337  1.1987
  672MOL0     H90696   7.027   5.637   3.854 -2.3017  1.6983 -0.7322
  672MOL0     H90697   7.039   5.811   3.878 -1.1661 -1.0555 -3.1469
  672MOL0     H90698   7.224   5.602   4.021  2.0481  1.5395  0.3242
  672MOL0     H90699   7.252   5.780   4.015  2.6007 -2.0150 -1.1596
  672MOL0     H90700   7.494   5.725   2.848 -0.3407 -3.0518 -0.4872
  672MOL0     H90701   7.458   5.724   2.592  1.8247 -1.0125  2.9522
  672MOL0     H90702   7.173   6.056   2.214 -2.4902  0.1744 -0.1121
  672MOL0     H90703   7.119   6.019   1.975  2.6514  1.6900  0.4401
  672MOL0     H90704   5.763   6.389   1.457 -0.9581  1.7833  1.0991
  672MOL0     H90705   5.873   6.603   1.404 -1.1434 -1.0539  1.3994
  672MOL0     H90706   6.229   6.681   1.156  1.0677 -1.6575  1.1667
  672MOL0     H90707   6.367   6.806   0.987 -1.5240 -0.6745  0.5376
  672MOL0     H90708   6.658   7.043   1.038 -0.6318 -0.1552 -1.1908
  672MOL0     H90709   6.571   7.170   1.124  1.4863  1.4104 -0.4388
  672MOL0     H90710   6.672   7.265   0.920 -2.4246  3.7737  0.3227
  672MOL0     H90711   6.495   7.264   0.895 -0.2691 -1.9164 -0.7272
  672MOL0     H90712   6.588   7.191   0.691  1.1965  2.1264  0.8744
  672MOL0     H90713   6.562   7.030   0.764 -2.6142  1.9299  0.5331
  672MOL0     H90714   6.793   7.074   0.663  0.0143  2.0575 -0.5344
  672MOL0     H90715   6.835   7.176   0.796 -0.1603 -0.6682  1.3780
  672MOL0     H90716   6.793   6.760   0.935 -1.0875  1.0339  1.4188
  672MOL0     H90717   6.477   7.077   1.278 -1.8146  2.2399 -1.6821
  672MOL0     H90718   6.331   6.918   1.567  0.4922 -3.5453  1.1162
  672MOL0     H90719   6.492   6.850   1.545  1.0431  0.9414 -0.5161
  672MOL0     H90720   6.460   7.026   1.518  0.0689 -0.8079  2.6165
  673MOL0     O90721  10.287   9.284   3.631  0.0101 -0.5263  0.1532
  673MOL0     C90722  10.390   9.345   3.594 -0.5309 -0.5187 -0.5312
  673MOL0     O90723  10.432   9.461   3.658  0.6576 -0.5382  0.6812
  673MOL0     C90724  10.352   9.525   3.754 -0.0679 -0.8296 -0.3615
  673MOL0     C90725  10.329   9.479   3.889 -0.2248 -0.5213  0.6629
  673MOL0     C90726  10.241   9.543   3.966  0.9190  0.3497  0.5271
  673MOL0     C90727  10.182   9.663   3.923 -0.0711 -0.2832 -0.8438
  673MOL0     O90728  10.077   9.715   3.997 -0.2176  0.0794  0.0942
  673MOL0     C90729  10.127   9.774   4.119  0.4891 -0.5216  0.4111
  673MOL0     C90730   9.997   9.769   4.205 -0.0919 -0.7036 -0.6931
  673MOL0     C90731  10.027   9.790   4.352  0.5894 -0.2518 -0.4473
  673MOL0     C90732   9.915   9.730   4.447  0.4084  0.2533  0.0042
  673MOL0     C90733   9.968   9.655   4.568  0.6937  0.0728  0.6546
  673MOL0     C90734  10.059   9.530   4.528  0.4360 -0.0450  0.5041
  673MOL0     C90735   9.974   9.415   4.467  0.0916 -0.4128  0.0114
  673MOL0     C90736  10.064   9.284   4.459 -0.2107 -0.1055  0.1252
  673MOL0     N90737   9.991   9.158   4.436  0.0539 -0.0276  0.0721
  673MOL0     C90738   9.958   9.109   4.317  0.5476  1.1131  0.2134
  673MOL0     C90739   9.883   9.001   4.343 -0.7499 -0.0625  1.3810
  673MOL0     C90740   9.813   8.905   4.252 -0.0745  0.0353  0.2790
  673MOL0     C90741   9.718   8.814   4.307  0.4953 -0.3826  0.3355
  673MOL0     C90742   9.589   8.817   4.226 -0.3232 -0.1853  0.0288
  673MOL0     C90743   9.480   8.721   4.286 -0.6103  0.2001 -0.7971
  673MOL0     O90744   9.540   8.586   4.318 -0.1849 -0.3045 -0.3874
  673MOL0     C90745   9.449   8.487   4.367 -0.9907 -0.4833  0.2187
  673MOL0     C90746   9.319   8.512   4.411  0.0726  0.8286 -0.9889
  673MOL0     C90747   9.245   8.408   4.467  0.4728  0.2605  1.0281
  673MOL0     C90748   9.297   8.273   4.474 -0.1649 -0.3271  0.0136
  673MOL0     C90749   9.223   8.161   4.537 -0.1439  0.3990 -0.4119
  673MOL0     O90750   9.100   8.191   4.588  0.2641  0.1443 -0.7577
  673MOL0     C90751   9.048   8.084   4.670  0.0941 -0.2345 -0.5158
  673MOL0     C90752   8.970   7.984   4.619  1.0579 -0.0331  0.3282
  673MOL0     C90753   8.927   7.888   4.716  1.2528  0.8352 -0.2378
  673MOL0     C90754   8.944   7.900   4.852 -0.8976 -1.0892 -0.9989
  673MOL0     O90755   8.891   7.812   4.944  0.2758 -0.4608  0.4925
  673MOL0     C90756   8.945   7.822   5.074  0.1403 -0.4431  0.5068
  673MOL0     C90757   8.915   7.687   5.148  0.2370 -1.1460 -0.5533
  673MOL0     C90758   9.012   7.654   5.253  0.3450 -0.2416  0.2439
  673MOL0     C90759   9.132   7.588   5.197  0.5781  0.1868 -0.5484
  673MOL0     C90760   9.230   7.585   5.306 -0.9278 -0.7755  0.1354
  673MOL0     C90761   9.351   7.494   5.288 -1.3369  0.2499 -0.1678
  673MOL0     C90762   9.470   7.531   5.372  0.4545 -0.7356  0.3444
  673MOL0     C90763   9.539   7.652   5.325  1.1414  0.8071 -0.1734
  673MOL0    Cl90764   9.677   7.628   5.215 -0.0014  0.0213  0.0968
  673MOL0     C90765   9.015   8.024   4.895  0.0987  1.3739  0.0782
  673MOL0     C90766   9.064   8.112   4.797 -1.1864  0.2584 -0.7098
  673MOL0     O90767   9.282   8.047   4.550 -0.2311  0.3258  0.0532
  673MOL0     C90768   9.423   8.248   4.415  0.0495  0.3467 -0.1516
  673MOL0     C90769   9.496   8.357   4.354 -0.1671  0.4048 -1.1656
  673MOL0     N90770   9.893   8.975   4.478 -0.4528  0.0905 -0.0013
  673MOL0     N90771   9.950   9.082   4.535 -0.9010  0.0723 -0.1089
  673MOL0     C90772  10.202   9.708   3.798 -0.2695  1.4441 -0.0514
  673MOL0     C90773  10.296   9.640   3.716  0.1280 -0.7260 -0.6352
  673MOL0     C90774  10.489   9.276   3.503  0.8238 -0.6608  0.7294
  673MOL0     C90775  10.495   9.140   3.512  0.1998  0.2929  0.6425
  673MOL0     C90776  10.594   9.073   3.435 -0.2848 -0.3733  0.0703
  673MOL0     C90777  10.679   9.138   3.354 -0.7834 -0.5162  1.0538
  673MOL0     O90778  10.773   9.065   3.279 -0.9743  0.0527  0.0021
  673MOL0     C90779  10.783   8.929   3.282 -0.7335 -0.1871  0.2696
  673MOL0     C90780  10.906   8.882   3.211 -0.8895 -0.0989  0.5615
  673MOL0     C90781  11.035   8.953   3.253 -0.4141  0.2012 -0.2221
  673MOL0     C90782  11.165   8.868   3.247  0.1554  0.6839  0.1335
  673MOL0     C90783  11.177   8.796   3.124  0.8521  0.3988  0.7259
  673MOL0     C90784  11.180   8.734   3.024  0.3814 -0.1423  0.2176
  673MOL0     C90785  10.663   9.277   3.339  0.7864  0.2401 -0.3716
  673MOL0     C90786  10.580   9.353   3.420  1.3519  0.4395 -0.8666
  673MOL0     C90787  10.576   9.505   3.405  0.6717 -0.4094  0.4383
  673MOL0     H90788  10.385   9.388   3.912 -0.1234 -1.1152 -1.6567
  673MOL0     H90789  10.213   9.512   4.066  0.0792  0.9338  0.4782
  673MOL0     H90790  10.210   9.716   4.160  0.4089  0.2265  1.6800
  673MOL0     H90791  10.156   9.880   4.115 -4.3854  1.0480 -0.4765
  673MOL0     H90792   9.955   9.668   4.209  1.1481 -1.2103  1.6217
  673MOL0     H90793   9.923   9.836   4.162  0.3883  0.3117  0.0243
  673MOL0     H90794  10.032   9.898   4.366  1.4990 -0.1748 -1.2238
  673MOL0     H90795  10.125   9.748   4.378  1.7758  5.0249  6.5543
  673MOL0     H90796   9.858   9.817   4.479 -1.1884  0.1156 -2.2702
  673MOL0     H90797   9.849   9.657   4.399 -0.3250  1.9909 -1.7108
  673MOL0     H90798  10.038   9.720   4.622  2.3136 -1.3273  0.3355
  673MOL0     H90799   9.892   9.613   4.635  1.9095 -1.9636  0.8387
  673MOL0     H90800  10.130   9.558   4.449 -1.2307  2.2721 -0.2859
  673MOL0     H90801  10.117   9.502   4.616 -0.5503 -3.2874  0.2600
  673MOL0     H90802   9.927   9.442   4.372 -2.0796  1.4763  1.5090
  673MOL0     H90803   9.894   9.393   4.538  0.6348  1.8680  1.4535
  673MOL0     H90804  10.143   9.299   4.385 -1.7542 -3.2696 -2.4108
  673MOL0     H90805  10.113   9.269   4.556 -1.0734 -0.6424  0.4866
  673MOL0     H90806   9.977   9.149   4.218  2.7083  0.8903  0.5057
  673MOL0     H90807   9.776   8.965   4.168 -1.5675 -3.2558 -1.6544
  673MOL0     H90808   9.895   8.842   4.216  2.0606  0.5491  3.7681
  673MOL0     H90809   9.772   8.720   4.297  1.2047  0.0259  0.3248
  673MOL0     H90810   9.699   8.827   4.414 -2.6837 -4.4339  0.5356
  673MOL0     H90811   9.599   8.791   4.120 -1.8101  0.3769 -0.2713
  673MOL0     H90812   9.546   8.917   4.216 -0.8148 -0.6385 -4.8154
  673MOL0     H90813   9.400   8.720   4.212 -1.8953 -1.4936  0.5445
  673MOL0     H90814   9.452   8.760   4.385  0.3421  0.3295 -0.5658
  673MOL0     H90815   9.275   8.610   4.430 -0.3614  0.2205  1.4511
  673MOL0     H90816   9.146   8.427   4.506 -0.9015 -0.0594 -1.9706
  673MOL0     H90817   8.953   7.971   4.513 -0.7551  1.4366  0.3854
  673MOL0     H90818   8.872   7.804   4.675  0.9843  1.7124 -1.7624
  673MOL0     H90819   9.052   7.844   5.065 -0.3516  1.3585 -2.3292
  673MOL0     H90820   8.893   7.898   5.133 -1.9331  0.2083 -1.9348
  673MOL0     H90821   8.813   7.683   5.187  1.0748  0.9273  2.1426
  673MOL0     H90822   8.929   7.603   5.080  1.7569 -1.1309 -0.2907
  673MOL0     H90823   9.054   7.740   5.305  1.3028 -0.0124 -0.8720
  673MOL0     H90824   8.950   7.595   5.322 -2.6828  0.7781 -1.3940
  673MOL0     H90825   9.164   7.639   5.106  1.0407  1.5244  0.3308
  673MOL0     H90826   9.117   7.484   5.169  0.7206 -0.0545  0.2451
  673MOL0     H90827   9.172   7.543   5.390 -1.3490  2.6237  1.7238
  673MOL0     H90828   9.260   7.689   5.321 -0.3269 -0.6209 -1.9475
  673MOL0     H90829   9.323   7.392   5.315 -0.0929 -0.5660 -1.8057
  673MOL0     H90830   9.386   7.497   5.184  1.1288 -2.3770  0.4608
  673MOL0     H90831   9.539   7.447   5.384  0.8028 -0.3060  1.4348
  673MOL0     H90832   9.417   7.548   5.466 -2.3683  0.5553 -1.3233
  673MOL0     H90833   9.479   7.729   5.276  1.5760 -0.0306 -2.1135
  673MOL0     H90834   9.575   7.693   5.420 -0.9367 -3.3972  2.7621
  673MOL0     H90835   9.038   8.055   4.996  0.4277 -0.6796  0.6875
  673MOL0     H90836   9.116   8.200   4.834 -0.9053  0.7512 -2.1939
  673MOL0     H90837   9.451   8.143   4.419 -2.6916 -0.4493  3.2337
  673MOL0     H90838   9.589   8.341   4.301 -0.3445  0.8799 -1.6293
  673MOL0     H90839  10.144   9.794   3.768  1.6754  2.4335 -1.2261
  673MOL0     H90840  10.320   9.672   3.615 -1.9105 -1.9851 -1.5819
  673MOL0     H90841  10.417   9.082   3.560 -0.0776  0.3054  0.2208
  673MOL0     H90842  10.590   8.965   3.434  1.6576 -0.4752 -0.7878
  673MOL0     H90843  10.702   8.885   3.223 -0.4164 -2.2915  1.3200
  673MOL0     H90844  10.774   8.883   3.381  0.3107  2.0953  1.4984
  673MOL0     H90845  10.894   8.896   3.103  1.9731 -1.1812  0.0033
  673MOL0     H90846  10.921   8.776   3.232  1.3014 -0.6155 -2.8818
  673MOL0     H90847  11.032   8.999   3.352 -1.0542  1.0581 -0.6250
  673MOL0     H90848  11.058   9.040   3.190  0.8265  1.8464  2.3461
  673MOL0     H90849  11.239   8.949   3.242 -1.8485  2.5380 -4.4664
  673MOL0     H90850  11.165   8.806   3.337  0.5177 -1.6980 -1.4221
  673MOL0     H90851  11.172   8.668   2.940 -2.4913 -0.1211  0.3893
  673MOL0     H90852  10.732   9.330   3.274 -1.1813  2.5772 -0.7111
  673MOL0     H90853  10.642   9.531   3.322 -0.2055 -1.0554 -0.4921
  673MOL0     H90854  10.477   9.539   3.376  2.4349  1.9256 -3.6878
  673MOL0     H90855  10.602   9.550   3.501  2.3218 -1.4295  0.5206
  674MOL0     O90856   5.119   7.213   6.252 -0.5173  0.7480 -0.1506
  674MOL0     C90857   5.148   7.272   6.147 -0.1265 -0.4476  0.4785
  674MOL0     O90858   5.133   7.214   6.021 -0.0316 -0.3356  0.3596
  674MOL0     C90859   5.048   7.118   6.007  1.1103 -0.0980 -0.9444
  674MOL0     C90860   5.079   6.997   6.068  0.5266  0.7634  0.9064
  674MOL0     C90861   4.987   6.891   6.062 -0.4030 -0.3038  0.6351
  674MOL0     C90862   4.851   6.907   6.019  0.3596  0.8099 -0.3470
  674MOL0     O90863   4.776   6.790   6.041 -0.4285  0.1225 -0.7417
  674MOL0     C90864   4.631   6.803   6.018  0.2216  0.1741 -0.1867
  674MOL0     C90865   4.555   6.671   6.040  0.4175 -0.9418 -0.0638
  674MOL0     C90866   4.518   6.645   6.178 -0.3093  0.4565 -0.3055
  674MOL0     C90867   4.506   6.489   6.205 -0.0620 -0.0198  0.7287
  674MOL0     C90868   4.512   6.471   6.353 -0.4289  0.7120  0.6183
  674MOL0     C90869   4.503   6.328   6.406 -0.3150 -0.0933  0.4780
  674MOL0     C90870   4.603   6.231   6.332 -0.4145 -0.2895 -0.4240
  674MOL0     C90871   4.627   6.096   6.409  0.2084 -1.2274  0.5312
  674MOL0     N90872   4.506   6.009   6.413 -0.5204  0.3340 -0.2839
  674MOL0     C90873   4.430   5.950   6.319 -0.0774 -0.2956  0.5234
  674MOL0     C90874   4.346   5.872   6.375  0.3691  0.5453  0.3773
  674MOL0     C90875   4.236   5.780   6.307 -0.0606 -0.7757  0.0459
  674MOL0     C90876   4.315   5.655   6.265 -0.5096  0.3895  0.4007
  674MOL0     C90877   4.232   5.538   6.234 -0.0804  0.5349 -0.2106
  674MOL0     C90878   4.126   5.555   6.128 -0.7727  0.8369  0.5830
  674MOL0     O90879   4.195   5.598   6.007  0.1086  0.0821 -0.0471
  674MOL0     C90880   4.114   5.645   5.909  0.1546  0.4672  0.3345
  674MOL0     C90881   4.012   5.586   5.836 -0.3510 -0.3185  0.1166
  674MOL0     C90882   3.945   5.665   5.745  0.3780 -0.4987 -0.5436
  674MOL0     C90883   3.975   5.802   5.720  0.6598  0.1004 -0.1469
  674MOL0     C90884   3.908   5.885   5.621 -0.4899  0.5011 -0.0288
  674MOL0     O90885   3.976   5.997   5.576 -0.2432 -0.1129  0.0412
  674MOL0     C90886   3.889   6.083   5.511 -0.6625  0.0223 -0.9782
  674MOL0     C90887   3.828   6.177   5.595 -0.1267 -0.2737 -0.3295
  674MOL0     C90888   3.742   6.267   5.543  0.5209 -0.1360 -0.2311
  674MOL0     C90889   3.706   6.267   5.411 -0.0454  0.4584 -0.4141
  674MOL0     O90890   3.616   6.347   5.348 -0.6677 -0.1123 -1.0727
  674MOL0     C90891   3.584   6.463   5.421 -0.0862 -0.3224  0.4060
  674MOL0     C90892   3.463   6.531   5.351 -0.4565 -0.8618  0.5413
  674MOL0     C90893   3.460   6.680   5.393 -0.1014  0.7800 -0.8975
  674MOL0     C90894   3.396   6.694   5.533 -1.0509 -0.4426  1.0871
  674MOL0     C90895   3.410   6.840   5.583 -0.4033 -0.7075  0.2574
  674MOL0     C90896   3.287   6.931   5.533 -0.6675 -0.4607  0.5264
  674MOL0     C90897   3.276   7.072   5.592 -0.2220  0.4139  0.0040
  674MOL0     C90898   3.363   7.171   5.518 -0.4084  0.5568  0.7581
  674MOL0    Cl90899   3.390   7.322   5.615  0.2988 -0.5177 -0.5079
  674MOL0     C90900   3.770   6.168   5.332  0.8739  0.7360 -0.0122
  674MOL0     C90901   3.867   6.085   5.380  0.0460  0.1871  0.2443
  674MOL0     O90902   3.801   5.844   5.567 -0.7711  0.4661  0.3699
  674MOL0     C90903   4.090   5.854   5.782  0.0476  1.3220 -0.1497
  674MOL0     C90904   4.155   5.777   5.872 -0.6480  1.3383 -0.1336
  674MOL0     N90905   4.359   5.889   6.510  0.5304 -0.0971 -0.6883
  674MOL0     N90906   4.455   5.965   6.533 -0.0486  0.6291 -0.3386
  674MOL0     C90907   4.828   7.024   5.954  0.2928 -0.6565 -1.0478
  674MOL0     C90908   4.921   7.128   5.942  0.5918 -0.2731 -0.9824
  674MOL0     C90909   5.241   7.379   6.163 -0.1640  0.6142 -0.1130
  674MOL0     C90910   5.338   7.422   6.063  0.4095  0.7007 -0.0136
  674MOL0     C90911   5.418   7.529   6.082 -0.2395  0.3655  0.1457
  674MOL0     C90912   5.407   7.608   6.192  0.2207 -0.4614 -0.6662
  674MOL0     O90913   5.470   7.724   6.221 -0.0676 -0.1818  0.4002
  674MOL0     C90914   5.572   7.771   6.129  0.6291 -0.3812 -0.4727
  674MOL0     C90915   5.612   7.916   6.165  0.7251  0.7255 -0.2011
  674MOL0     C90916   5.745   7.960   6.098  0.9203 -0.2317  0.0962
  674MOL0     C90917   5.727   8.105   6.043 -0.9406  0.2265  0.0669
  674MOL0     C90918   5.698   8.196   6.156  0.1833  0.6958  1.4114
  674MOL0     C90919   5.671   8.272   6.240  0.0973 -0.6935 -0.6261
  674MOL0     C90920   5.302   7.587   6.283 -0.1990  0.4838 -0.7238
  674MOL0     C90921   5.222   7.474   6.269  0.0383  0.0019  0.5021
  674MOL0     C90922   5.109   7.462   6.376 -0.2445  0.1591  0.8166
  674MOL0     H90923   5.175   6.978   6.115  1.6091 -0.7469 -1.6824
  674MOL0     H90924   5.025   6.800   6.109  1.7914 -0.3975 -1.1610
  674MOL0     H90925   4.574   6.876   6.076 -0.0866 -0.2448  0.0426
  674MOL0     H90926   4.618   6.820   5.911 -1.0997 -2.1065 -0.4422
  674MOL0     H90927   4.633   6.600   6.013  3.3045  1.6622  0.8445
  674MOL0     H90928   4.468   6.671   5.973  0.5816  3.7023 -0.6397
  674MOL0     H90929   4.422   6.693   6.198  0.1324  1.4615 -0.5416
  674MOL0     H90930   4.586   6.694   6.249 -1.1059  2.0454 -0.6189
  674MOL0     H90931   4.407   6.458   6.169 -1.0686  2.6713  0.9080
  674MOL0     H90932   4.575   6.430   6.145  0.0797  1.8811 -1.0914
  674MOL0     H90933   4.609   6.504   6.391 -2.0488  1.3845  4.7719
  674MOL0     H90934   4.434   6.536   6.395 -0.3548  1.1298  0.1170
  674MOL0     H90935   4.514   6.336   6.515 -2.3759  1.9503  0.6369
  674MOL0     H90936   4.403   6.291   6.383 -0.0157  0.9862 -3.2887
  674MOL0     H90937   4.695   6.285   6.309  0.2268  0.5863  3.5250
  674MOL0     H90938   4.561   6.205   6.234 -0.6916 -2.2553  0.1794
  674MOL0     H90939   4.717   6.054   6.363  1.0774  3.7524 -3.2653
  674MOL0     H90940   4.649   6.128   6.511 -0.7056  1.1500  0.0468
  674MOL0     H90941   4.441   5.974   6.214 -0.2905 -0.6968  0.4059
  674MOL0     H90942   4.157   5.752   6.376 -1.7870  2.5265 -0.4275
  674MOL0     H90943   4.178   5.832   6.231  1.1907  0.3365 -0.1966
  674MOL0     H90944   4.380   5.677   6.180  0.3090 -4.5602 -0.5708
  674MOL0     H90945   4.387   5.630   6.343  1.8481  4.9296 -0.0218
  674MOL0     H90946   4.184   5.497   6.323  0.9747 -2.1317 -0.7651
  674MOL0     H90947   4.306   5.464   6.201 -0.6208  1.8281 -5.0975
  674MOL0     H90948   4.058   5.633   6.163  2.7599  3.9320  1.2277
  674MOL0     H90949   4.078   5.459   6.113 -0.8264  0.3288  3.4564
  674MOL0     H90950   3.980   5.484   5.858 -3.2172 -0.3648 -3.2019
  674MOL0     H90951   3.860   5.624   5.691  0.8694 -1.6733 -0.4567
  674MOL0     H90952   3.836   6.170   5.703 -0.2554  1.6615 -0.1656
  674MOL0     H90953   3.720   6.344   5.616  0.1928 -1.6461  1.3201
  674MOL0     H90954   3.551   6.430   5.520 -2.9531 -1.9257 -0.9507
  674MOL0     H90955   3.677   6.521   5.422  0.5765 -1.1851 -2.4280
  674MOL0     H90956   3.486   6.516   5.245 -1.1101 -1.2279  0.4444
  674MOL0     H90957   3.364   6.484   5.348 -1.8676  1.9215 -0.0690
  674MOL0     H90958   3.563   6.717   5.392  1.5804 -3.3588  0.2097
  674MOL0     H90959   3.403   6.734   5.316 -0.9255  2.0732  0.5679
  674MOL0     H90960   3.459   6.636   5.602 -1.7745 -0.8306  1.4343
  674MOL0     H90961   3.292   6.662   5.542 -0.2490 -3.4472  1.0322
  674MOL0     H90962   3.507   6.875   5.547  0.4483 -2.7117  0.4697
  674MOL0     H90963   3.408   6.850   5.692 -0.6909  0.7798  0.1376
  674MOL0     H90964   3.296   6.930   5.424 -1.4513  0.8707  0.4202
  674MOL0     H90965   3.196   6.874   5.551 -0.6230 -0.8361 -0.3625
  674MOL0     H90966   3.315   7.074   5.694  1.8222 -0.8908 -0.6996
  674MOL0     H90967   3.176   7.116   5.584  0.8083  2.6024 -4.2977
  674MOL0     H90968   3.456   7.128   5.481  1.0132  3.2019  1.0017
  674MOL0     H90969   3.313   7.194   5.423 -0.1244 -0.7635  0.2719
  674MOL0     H90970   3.746   6.173   5.227 -0.2520 -0.0031  0.1966
  674MOL0     H90971   3.914   6.015   5.311 -1.8466 -1.2842  0.3569
  674MOL0     H90972   4.123   5.955   5.761  0.3659  0.8860 -1.9082
  674MOL0     H90973   4.248   5.799   5.921  0.1974 -3.3541  0.8760
  674MOL0     H90974   4.728   7.031   5.912  1.5864  2.7451 -4.0404
  674MOL0     H90975   4.892   7.225   5.904 -0.5791  0.7051  2.1130
  674MOL0     H90976   5.361   7.366   5.973  1.6951  2.5234 -0.9061
  674MOL0     H90977   5.498   7.545   6.010  0.5753 -0.8520  0.7333
  674MOL0     H90978   5.529   7.767   6.028  0.2537  1.1094 -0.3948
  674MOL0     H90979   5.665   7.715   6.140  2.1491  2.3855  2.2377
  674MOL0     H90980   5.601   7.939   6.271  1.3442  1.4413 -0.2877
  674MOL0     H90981   5.527   7.978   6.136  0.2418 -0.8327 -2.3782
  674MOL0     H90982   5.763   7.897   6.010 -1.8684 -2.9751  1.2792
  674MOL0     H90983   5.833   7.955   6.163  1.2982 -2.7018 -0.4770
  674MOL0     H90984   5.825   8.128   5.998  0.4751 -1.9227  1.8318
  674MOL0     H90985   5.647   8.114   5.970 -3.1829  1.6775  2.5150
  674MOL0     H90986   5.645   8.347   6.312 -2.1937 -1.6860 -0.3151
  674MOL0     H90987   5.285   7.660   6.362 -1.9247 -2.4338  1.8129
  674MOL0     H90988   5.021   7.434   6.318  0.6511 -1.7798  0.3231
  674MOL0     H90989   5.124   7.383   6.450  1.0267 -2.1762 -1.7518
  674MOL0     H90990   5.090   7.558   6.426  0.5685  1.2136 -0.8014
  675MOL0     O90991   3.433   6.780   9.291 -0.1886 -0.5884 -0.6588
  675MOL0     C90992   3.429   6.693   9.377  0.8284  0.1712  0.0621
  675MOL0     O90993   3.343   6.586   9.356 -0.4497 -0.4345 -0.4705
  675MOL0     C90994   3.317   6.546   9.221 -0.5229  0.3956 -0.5679
  675MOL0     C90995   3.207   6.581   9.154  0.5730 -0.8566  0.0035
  675MOL0     C90996   3.183   6.534   9.024 -0.3883  1.0421 -0.2480
  675MOL0     C90997   3.278   6.449   8.960  0.3345  0.7411 -1.0026
  675MOL0     O90998   3.236   6.387   8.845  0.1982 -0.1068 -0.4884
  675MOL0     C90999   3.327   6.386   8.731  0.5892  0.8140 -0.4463
  675MOL0     C91000   3.323   6.531   8.671 -0.2827 -0.4950 -0.6642
  675MOL0     C91001   3.193   6.591   8.633 -0.1614  0.4635 -0.1015
  675MOL0     C91002   3.151   6.568   8.481  0.5276 -0.3152  0.5210
  675MOL0     C91003   3.016   6.635   8.452  0.3118  1.1700 -0.7539
  675MOL0     C91004   2.979   6.623   8.299 -0.2202  0.1808 -0.1898
  675MOL0     C91005   2.833   6.647   8.259 -0.6465 -0.1999  0.2393
  675MOL0     C91006   2.817   6.804   8.253  0.2663  0.5982  0.4055
  675MOL0     N91007   2.691   6.825   8.311  0.9048  0.3690  0.1919
  675MOL0     C91008   2.569   6.824   8.234 -1.3729  0.2276  0.3609
  675MOL0     C91009   2.472   6.860   8.319 -0.2079 -0.6146 -0.2709
  675MOL0     C91010   2.332   6.880   8.288  0.1859 -0.0922  0.0044
  675MOL0     C91011   2.308   6.950   8.149 -0.0833  0.1502 -0.9246
  675MOL0     C91012   2.160   6.964   8.121  0.2156  0.0346  0.8345
  675MOL0     C91013   2.115   6.927   7.975 -0.0436  0.0391 -0.0855
  675MOL0     O91014   2.184   7.001   7.876 -0.2189  0.5062 -0.2917
  675MOL0     C91015   2.163   6.966   7.747  0.0785  0.0300 -0.0987
  675MOL0     C91016   2.252   7.011   7.655 -0.8570 -0.3599 -0.5224
  675MOL0     C91017   2.247   6.975   7.518 -0.0195  0.1632  0.9545
  675MOL0     C91018   2.146   6.893   7.471  0.0815 -0.5941 -0.2578
  675MOL0     C91019   2.136   6.870   7.324 -0.0054  0.7936  1.3473
  675MOL0     O91020   2.053   6.762   7.285  0.2939  0.4507 -0.5643
  675MOL0     C91021   2.034   6.712   7.160 -0.6999 -0.0315 -0.3593
  675MOL0     C91022   2.111   6.754   7.051 -0.8758  0.7625 -0.7011
  675MOL0     C91023   2.093   6.678   6.932  0.4262 -0.0886  0.6627
  675MOL0     C91024   2.018   6.560   6.921  0.1926 -0.3037 -0.3585
  675MOL0     O91025   2.031   6.480   6.807  0.0034  1.5204 -0.0346
  675MOL0     C91026   1.926   6.388   6.752 -0.5267  0.1591 -0.6439
  675MOL0     C91027   1.964   6.352   6.605  0.3976  0.4750 -0.1049
  675MOL0     C91028   1.968   6.473   6.514  0.0333 -0.5421  0.1637
  675MOL0     C91029   1.836   6.538   6.506  0.1335 -0.6949 -0.0834
  675MOL0     C91030   1.851   6.660   6.426 -0.1460  0.2296 -0.5766
  675MOL0     C91031   1.901   6.646   6.285 -0.5550  1.3205  0.6910
  675MOL0     C91032   1.918   6.777   6.217 -0.2114  0.4601  0.6397
  675MOL0     C91033   1.920   6.754   6.064 -1.1301 -0.1469 -0.2248
  675MOL0    Cl91034   2.066   6.674   6.019 -0.4933  0.2226 -0.2197
  675MOL0     C91035   1.947   6.526   7.032 -0.3472  0.0815  0.7873
  675MOL0     C91036   1.956   6.595   7.150 -0.6672 -0.0554 -0.5563
  675MOL0     O91037   2.188   6.948   7.249  0.3816  0.4620  0.0555
  675MOL0     C91038   2.050   6.851   7.565 -0.7084 -0.1641 -0.3361
  675MOL0     C91039   2.058   6.877   7.705 -0.3442 -0.0343  1.0746
  675MOL0     N91040   2.532   6.856   8.444 -0.6852 -0.0421  0.0513
  675MOL0     N91041   2.658   6.852   8.433 -0.4535 -0.2495 -0.9898
  675MOL0     C91042   3.407   6.433   9.022  0.0429  0.0167  0.3383
  675MOL0     C91043   3.427   6.488   9.154 -0.7366  0.5949  0.2151
  675MOL0     C91044   3.517   6.695   9.500 -0.8354  0.1330  0.2359
  675MOL0     C91045   3.589   6.582   9.538  1.2373  0.0605  0.4478
  675MOL0     C91046   3.659   6.578   9.659 -0.6864 -0.2273  1.0735
  675MOL0     C91047   3.644   6.680   9.754 -0.3582  0.3458 -0.0680
  675MOL0     O91048   3.700   6.668   9.883  0.0286 -0.3837  0.1176
  675MOL0     C91049   3.772   6.545   9.919 -0.9929 -0.4799 -0.8436
  675MOL0     C91050   3.799   6.544  10.067 -0.2130  0.0733  0.0215
  675MOL0     C91051   3.934   6.478  10.117  0.9825  0.9375 -0.3412
  675MOL0     C91052   3.920   6.326  10.144 -0.0013 -0.0666 -0.4998
  675MOL0     C91053   4.048   6.293  10.215  0.7547  0.5384  0.7834
  675MOL0     C91054   4.151   6.276  10.274 -0.9453  0.4862 -0.2778
  675MOL0     C91055   3.584   6.798   9.715 -0.2636 -0.5899  0.2871
  675MOL0     C91056   3.518   6.805   9.586  0.1193 -0.4961 -0.9929
  675MOL0     C91057   3.444   6.932   9.552  0.6117 -0.1992 -0.4745
  675MOL0     H91058   3.125   6.636   9.198  0.0735  0.4808 -2.4296
  675MOL0     H91059   3.082   6.546   8.985 -0.8786  1.0881  0.9745
  675MOL0     H91060   3.430   6.362   8.758  0.2923 -1.6301 -1.3114
  675MOL0     H91061   3.292   6.311   8.660  2.0516  1.6143 -2.0862
  675MOL0     H91062   3.397   6.538   8.591  0.4902  0.1957  0.0800
  675MOL0     H91063   3.363   6.590   8.754  0.8260 -1.6605 -0.3328
  675MOL0     H91064   3.203   6.699   8.644 -2.0372  0.8548 -1.6825
  675MOL0     H91065   3.116   6.540   8.691  0.7494 -1.8503 -0.8198
  675MOL0     H91066   3.218   6.623   8.415 -0.7401  2.8254  1.6534
  675MOL0     H91067   3.162   6.465   8.446 -1.0022 -0.1146 -0.6824
  675MOL0     H91068   2.931   6.588   8.502  0.4178  3.5852  1.9615
  675MOL0     H91069   3.024   6.743   8.472  0.0996  1.4355 -2.0316
  675MOL0     H91070   3.048   6.687   8.243  0.6778  1.0070  1.7612
  675MOL0     H91071   2.996   6.523   8.259  1.6218  0.3048  0.1654
  675MOL0     H91072   2.755   6.602   8.321  0.6454 -0.1708  1.9697
  675MOL0     H91073   2.825   6.600   8.161  2.5405 -2.9371  1.1063
  675MOL0     H91074   2.895   6.854   8.312 -0.9243  2.3425  0.5871
  675MOL0     H91075   2.820   6.844   8.152 -3.0657 -1.7738 -0.8304
  675MOL0     H91076   2.567   6.798   8.128 -1.2198 -0.2567  0.4747
  675MOL0     H91077   2.284   6.782   8.287  2.1723 -1.1311 -1.8249
  675MOL0     H91078   2.290   6.934   8.373 -0.0832  1.9889 -1.3680
  675MOL0     H91079   2.366   7.041   8.133 -2.5397  1.6704 -1.6999
  675MOL0     H91080   2.344   6.897   8.061  1.0932  1.3719 -1.2110
  675MOL0     H91081   2.139   7.070   8.140 -2.3656  0.2215 -2.2254
  675MOL0     H91082   2.104   6.903   8.193 -0.1961  1.0468  1.4011
  675MOL0     H91083   2.010   6.960   7.975  0.0718  0.8470 -3.6708
  675MOL0     H91084   2.107   6.819   7.958 -0.5118 -0.2355  1.7359
  675MOL0     H91085   2.332   7.070   7.700 -0.5558 -0.7058 -0.6016
  675MOL0     H91086   2.324   7.005   7.448  0.2348 -1.1259  0.6694
  675MOL0     H91087   2.187   6.832   7.047 -0.5340  0.3882 -2.1830
  675MOL0     H91088   2.129   6.696   6.831 -3.2982 -1.9966 -1.2040
  675MOL0     H91089   1.911   6.294   6.806 -2.5109  1.5234  1.3261
  675MOL0     H91090   1.829   6.438   6.755 -2.1727 -2.7710 -1.6210
  675MOL0     H91091   2.061   6.303   6.608  1.1280  1.8927  1.0496
  675MOL0     H91092   1.890   6.282   6.566  0.6859  0.1282 -0.0379
  675MOL0     H91093   2.031   6.543   6.570 -0.5150 -0.9995  1.3909
  675MOL0     H91094   2.012   6.452   6.416 -0.1920  1.8873 -0.5183
  675MOL0     H91095   1.810   6.580   6.604 -0.1043 -2.3369  0.5932
  675MOL0     H91096   1.761   6.465   6.473 -0.0115  0.4715 -2.4828
  675MOL0     H91097   1.916   6.725   6.485  0.4044 -1.6850  1.0274
  675MOL0     H91098   1.754   6.711   6.418 -0.0420  0.5765  0.3146
  675MOL0     H91099   2.000   6.599   6.286 -2.4955 -3.3086 -0.1923
  675MOL0     H91100   1.829   6.579   6.237 -2.1295  3.0770  0.4890
  675MOL0     H91101   2.002   6.837   6.254 -0.6527  0.4194  1.7721
  675MOL0     H91102   1.833   6.841   6.240 -1.1790 -0.3480 -0.5952
  675MOL0     H91103   1.832   6.706   6.019 -0.3502 -1.4546 -0.4176
  675MOL0     H91104   1.917   6.851   6.016 -1.2840  1.7972  3.3503
  675MOL0     H91105   1.900   6.428   7.025 -4.0673  1.8059 -0.8863
  675MOL0     H91106   1.933   6.549   7.246 -1.4877  3.7688  1.2705
  675MOL0     H91107   1.956   6.815   7.524 -1.1998 -1.8997  2.0717
  675MOL0     H91108   1.983   6.840   7.774 -1.7991  1.0890  0.1795
  675MOL0     H91109   3.494   6.392   8.972  0.2841  1.2448 -0.2724
  675MOL0     H91110   3.526   6.478   9.197 -1.8628 -0.7777  2.6562
  675MOL0     H91111   3.571   6.486   9.492  1.8556 -1.8253  3.8379
  675MOL0     H91112   3.716   6.487   9.680 -1.9879 -1.2779  0.1889
  675MOL0     H91113   3.861   6.538   9.855  0.5512 -0.5349  1.2285
  675MOL0     H91114   3.708   6.461   9.893 -1.8827 -0.2847  0.6400
  675MOL0     H91115   3.715   6.499  10.121  0.6726  1.5267  2.7729
  675MOL0     H91116   3.784   6.650  10.088  0.1798  0.4169 -1.3720
  675MOL0     H91117   3.970   6.518  10.212  0.4321  0.7202 -0.0347
  675MOL0     H91118   4.010   6.484  10.040 -0.0310 -1.9731 -1.7375
  675MOL0     H91119   3.832   6.292  10.199 -1.1355 -1.7085 -3.1594
  675MOL0     H91120   3.932   6.273  10.049  3.8758  1.9313 -1.3729
  675MOL0     H91121   4.243   6.259  10.327 -1.5342  0.6923  0.8475
  675MOL0     H91122   3.582   6.888   9.776 -0.8465  0.3379 -1.0489
  675MOL0     H91123   3.463   7.011   9.625  2.6910  0.7073 -1.8865
  675MOL0     H91124   3.484   6.965   9.455  1.4067  0.3719  0.0369
  675MOL0     H91125   3.336   6.915   9.547  0.6161 -0.5605  0.4684
  676MOL0     O91126   2.602   2.019   5.722 -0.0620 -0.5135  0.3948
  676MOL0     C91127   2.623   2.135   5.679 -0.2747  0.4474  0.7548
  676MOL0     O91128   2.727   2.172   5.608 -0.2766 -0.4603 -0.8964
  676MOL0     C91129   2.836   2.093   5.601 -0.0904  0.6845  0.1568
  676MOL0     C91130   2.886   2.045   5.480 -0.6025  1.4559  0.2103
  676MOL0     C91131   2.982   1.949   5.465 -0.1697  0.0065 -1.0697
  676MOL0     C91132   3.051   1.916   5.579  0.1021  0.0633  0.5116
  676MOL0     O91133   3.158   1.834   5.553 -0.0785  0.2179 -0.0762
  676MOL0     C91134   3.228   1.757   5.656  0.0869  0.4649 -0.6525
  676MOL0     C91135   3.375   1.805   5.666 -1.2139  0.2085 -0.1061
  676MOL0     C91136   3.457   1.742   5.551  0.4512  0.5890  0.1402
  676MOL0     C91137   3.601   1.708   5.583 -0.4683 -0.8725 -0.6010
  676MOL0     C91138   3.712   1.810   5.565 -0.0090  0.3913 -0.2506
  676MOL0     C91139   3.843   1.779   5.640  0.0152  0.2849  1.0757
  676MOL0     C91140   3.922   1.661   5.603  0.6838  0.6392  0.0351
  676MOL0     C91141   4.031   1.632   5.710 -0.3628  0.0683  0.8985
  676MOL0     N91142   4.131   1.739   5.699 -0.3545  0.2060 -0.1895
  676MOL0     C91143   4.185   1.796   5.809 -0.1503  0.2728  0.1235
  676MOL0     C91144   4.272   1.886   5.766 -0.1027 -0.3641 -0.5324
  676MOL0     C91145   4.319   1.998   5.853  0.5637 -0.4454  0.2061
  676MOL0     C91146   4.409   1.945   5.955 -0.4676 -0.0343 -0.4720
  676MOL0     C91147   4.525   1.846   5.910  0.2066  0.4024  1.0376
  676MOL0     C91148   4.638   1.835   6.019  0.6030  1.2180  0.6887
  676MOL0     O91149   4.752   1.774   5.967 -0.3261  0.8240 -0.5483
  676MOL0     C91150   4.834   1.718   6.064  0.9721  0.6446  0.2931
  676MOL0     C91151   4.849   1.759   6.199  0.4737 -0.3113  0.2222
  676MOL0     C91152   4.932   1.690   6.286  0.7260  0.5321 -0.1711
  676MOL0     C91153   5.017   1.584   6.248  0.0423  1.0431  0.5241
  676MOL0     C91154   5.077   1.497   6.352  0.8142  0.5997  0.4953
  676MOL0     O91155   5.110   1.368   6.308 -0.1042  0.2087  0.2544
  676MOL0     C91156   5.156   1.279   6.401 -0.0327  0.6357  0.7847
  676MOL0     C91157   5.262   1.307   6.498  0.2184  0.3374  0.1566
  676MOL0     C91158   5.293   1.194   6.573 -0.4321 -0.5428 -0.1014
  676MOL0     C91159   5.243   1.066   6.568  0.7957  0.0915 -0.0157
  676MOL0     O91160   5.305   0.966   6.633 -0.1802 -0.6233  0.2619
  676MOL0     C91161   5.223   0.848   6.656 -0.2399  0.1741 -0.1767
  676MOL0     C91162   5.284   0.778   6.782  0.5083  0.3484 -0.5484
  676MOL0     C91163   5.425   0.725   6.773 -0.0413 -0.6357  0.5249
  676MOL0     C91164   5.464   0.661   6.913 -0.3943  0.4911 -0.4231
  676MOL0     C91165   5.600   0.579   6.900 -0.1903 -0.4838 -0.2393
  676MOL0     C91166   5.705   0.664   6.837 -0.3466  0.3405  2.2274
  676MOL0     C91167   5.834   0.579   6.820  0.3710  0.3909  0.1790
  676MOL0     C91168   5.962   0.655   6.827  0.2217  0.6829 -0.3257
  676MOL0    Cl91169   5.998   0.700   7.004  0.2632 -0.0815  0.4050
  676MOL0     C91170   5.149   1.041   6.461 -1.1593  1.1191  0.7181
  676MOL0     C91171   5.107   1.148   6.380  0.0864  0.0995 -0.2555
  676MOL0     O91172   5.081   1.538   6.465  0.5074 -0.7232  0.1226
  676MOL0     C91173   5.012   1.553   6.110 -0.1140  0.0026 -0.0504
  676MOL0     C91174   4.923   1.619   6.024 -0.8000 -0.3200  0.6484
  676MOL0     N91175   4.294   1.862   5.623 -0.1252  0.4783 -0.7502
  676MOL0     N91176   4.200   1.776   5.592  0.1702  0.9604 -0.3365
  676MOL0     C91177   3.019   1.972   5.701  0.0347 -0.6580 -0.6301
  676MOL0     C91178   2.906   2.059   5.719  0.3143  0.3037 -0.9618
  676MOL0     C91179   2.509   2.216   5.700 -0.3537  0.2978 -0.1678
  676MOL0     C91180   2.481   2.300   5.593 -0.0181  0.4905  0.3724
  676MOL0     C91181   2.391   2.405   5.612 -0.2413  0.0122 -0.2934
  676MOL0     C91182   2.309   2.420   5.726  0.7858  0.5243  0.2948
  676MOL0     O91183   2.215   2.526   5.721 -0.5177  0.0665  0.5686
  676MOL0     C91184   2.216   2.627   5.816  0.1005  0.4119 -0.7330
  676MOL0     C91185   2.091   2.710   5.810  0.4041 -1.0082 -0.4931
  676MOL0     C91186   2.081   2.817   5.920  0.4757 -0.9400  0.3012
  676MOL0     C91187   2.186   2.933   5.910 -0.6511  0.4153  0.1625
  676MOL0     C91188   2.202   2.996   5.774 -0.3475  0.4527  0.6856
  676MOL0     C91189   2.201   3.041   5.657 -0.0559 -0.7223 -0.3757
  676MOL0     C91190   2.334   2.338   5.838  0.2700  0.5764  0.6663
  676MOL0     C91191   2.439   2.236   5.828  1.2520  0.0400 -0.5415
  676MOL0     C91192   2.477   2.174   5.957  0.0621 -0.2092 -0.1026
  676MOL0     H91193   2.840   2.061   5.383 -1.0671 -0.2632  0.1121
  676MOL0     H91194   3.020   1.905   5.374  2.7420  1.8671 -0.8715
  676MOL0     H91195   3.184   1.769   5.755  0.0340 -2.2933 -0.2634
  676MOL0     H91196   3.216   1.651   5.633 -1.5251  0.4011  0.3702
  676MOL0     H91197   3.422   1.767   5.758 -0.7683  0.5353 -0.1925
  676MOL0     H91198   3.373   1.915   5.666 -2.7367  0.2379  2.0775
  676MOL0     H91199   3.452   1.819   5.473  3.4327  1.9209  1.0969
  676MOL0     H91200   3.409   1.648   5.523  0.7196  0.9070 -1.4669
  676MOL0     H91201   3.615   1.662   5.682  1.9053 -2.6977 -1.6615
  676MOL0     H91202   3.621   1.629   5.510 -1.7227 -2.4465  0.6491
  676MOL0     H91203   3.728   1.840   5.462 -0.7112  0.4461 -0.3530
  676MOL0     H91204   3.678   1.900   5.618  1.0049  1.0784 -0.7359
  676MOL0     H91205   3.906   1.860   5.603 -1.7827  0.3272 -2.2709
  676MOL0     H91206   3.830   1.787   5.749  0.0322  1.3444  1.0127
  676MOL0     H91207   3.969   1.672   5.505 -0.4779 -2.3604 -0.9875
  676MOL0     H91208   3.853   1.576   5.595 -2.4728  2.8447  1.4342
  676MOL0     H91209   3.989   1.633   5.811  0.8098  0.5868  1.4019
  676MOL0     H91210   4.066   1.529   5.697  0.3216  0.4875 -0.8534
  676MOL0     H91211   4.157   1.780   5.913  0.8732  0.7795  0.4822
  676MOL0     H91212   4.355   2.079   5.789 -2.0619  0.5943 -0.0835
  676MOL0     H91213   4.232   2.053   5.890  0.9247 -0.8227  1.6797
  676MOL0     H91214   4.457   2.018   6.021 -1.2163  1.1251 -1.1841
  676MOL0     H91215   4.345   1.892   6.027  0.0641 -1.2166 -0.8418
  676MOL0     H91216   4.564   1.879   5.814 -0.0112 -2.4507 -0.1324
  676MOL0     H91217   4.477   1.748   5.901  0.0584  0.2294  3.2060
  676MOL0     H91218   4.588   1.770   6.092  0.8953  0.8577  0.5723
  676MOL0     H91219   4.663   1.928   6.071  2.0071  0.3334  1.6560
  676MOL0     H91220   4.794   1.843   6.241 -0.2590 -0.0463 -1.1835
  676MOL0     H91221   4.916   1.723   6.388  2.7180 -1.4604  0.8735
  676MOL0     H91222   5.312   1.400   6.522 -0.6804 -0.1014  4.8348
  676MOL0     H91223   5.357   1.211   6.660 -3.0174 -1.3553  2.0937
  676MOL0     H91224   5.128   0.890   6.691  0.1075 -0.5398  1.7303
  676MOL0     H91225   5.211   0.770   6.580 -4.3596 -2.8873  3.1342
  676MOL0     H91226   5.267   0.842   6.869 -0.9115 -2.3351  1.2928
  676MOL0     H91227   5.227   0.689   6.808 -1.8858  1.8851 -0.2285
  676MOL0     H91228   5.436   0.649   6.695 -1.7796 -0.8285  0.4326
  676MOL0     H91229   5.492   0.808   6.748  0.0015 -0.6819  0.4849
  676MOL0     H91230   5.402   0.579   6.950  3.4710 -3.7620 -2.3316
  676MOL0     H91231   5.461   0.742   6.987 -2.6444 -0.5879  0.7755
  676MOL0     H91232   5.589   0.484   6.846 -1.0458  0.4558 -1.7607
  676MOL0     H91233   5.641   0.550   6.998  0.1236 -3.3023 -1.1066
  676MOL0     H91234   5.677   0.703   6.739  0.8489 -0.9632  1.3328
  676MOL0     H91235   5.725   0.745   6.907  2.3264  0.3128  1.5885
  676MOL0     H91236   5.830   0.549   6.715 -0.1743 -1.3531  0.6579
  676MOL0     H91237   5.834   0.494   6.888  1.2388 -0.0898 -0.4072
  676MOL0     H91238   6.041   0.592   6.784 -1.1091  1.0593 -3.6850
  676MOL0     H91239   5.953   0.744   6.764 -1.0355  0.9591  0.2093
  676MOL0     H91240   5.110   0.943   6.434 -0.9266  1.5289 -1.2806
  676MOL0     H91241   5.044   1.120   6.296 -1.1292 -0.4012  0.7853
  676MOL0     H91242   5.071   1.465   6.085  1.7851  0.4202  2.5733
  676MOL0     H91243   4.919   1.598   5.917  3.4111  3.6568 -0.6567
  676MOL0     H91244   3.073   1.945   5.791  1.0126  1.8488 -0.4003
  676MOL0     H91245   2.884   2.097   5.818  2.5623  0.8561 -0.6184
  676MOL0     H91246   2.534   2.283   5.500 -0.6397  0.8274 -0.0482
  676MOL0     H91247   2.370   2.457   5.520 -0.2253  1.1160  0.3046
  676MOL0     H91248   2.302   2.692   5.799  0.6226  0.5008  1.8263
  676MOL0     H91249   2.232   2.584   5.915  0.5256  0.7737 -0.6451
  676MOL0     H91250   2.003   2.646   5.817  0.3383 -0.7645  2.0932
  676MOL0     H91251   2.088   2.766   5.716 -0.6760 -1.1224 -0.5344
  676MOL0     H91252   2.083   2.774   6.021 -2.5606 -0.3721  0.7104
  676MOL0     H91253   1.980   2.859   5.906  0.6038 -0.1365  1.5775
  676MOL0     H91254   2.154   3.009   5.982  1.3773  1.5330 -0.0597
  676MOL0     H91255   2.280   2.882   5.933 -0.5013 -0.2082 -1.6499
  676MOL0     H91256   2.193   3.084   5.559 -0.8606 -4.8352 -2.3006
  676MOL0     H91257   2.270   2.339   5.925  0.6811  0.5296  0.9759
  676MOL0     H91258   2.488   2.065   5.956  2.4998 -0.0265  0.4455
  676MOL0     H91259   2.574   2.221   5.975 -0.5355  0.7608  0.7077
  676MOL0     H91260   2.413   2.204   6.040  1.1839 -1.0930  1.1212
  677MOL0     O91261   2.346   1.261   0.980  0.2946 -0.5083  0.2051
  677MOL0     C91262   2.280   1.216   1.073  0.3100  0.9388 -0.3877
  677MOL0     O91263   2.286   1.243   1.210  0.7907  0.1846 -0.2905
  677MOL0     C91264   2.405   1.295   1.262 -0.2404 -0.6604  1.0975
  677MOL0     C91265   2.527   1.282   1.190  1.2615 -0.6882 -0.0763
  677MOL0     C91266   2.641   1.328   1.239 -0.0993  0.3209  0.7531
  677MOL0     C91267   2.648   1.377   1.370 -0.1036 -0.4970 -0.1192
  677MOL0     O91268   2.765   1.410   1.433  0.4583  0.5638  0.8726
  677MOL0     C91269   2.886   1.426   1.358  0.1854 -1.0756  0.4118
  677MOL0     C91270   2.889   1.537   1.247 -0.4375 -0.5345 -0.7636
  677MOL0     C91271   2.862   1.676   1.316  0.5409 -0.5354 -0.8457
  677MOL0     C91272   2.985   1.729   1.392 -0.1415 -0.7667  0.2520
  677MOL0     C91273   2.960   1.867   1.443  0.0033 -0.4263 -0.5533
  677MOL0     C91274   2.925   1.972   1.341  0.2430 -0.2864  0.3351
  677MOL0     C91275   2.901   2.105   1.412  0.6503 -0.1622  0.2268
  677MOL0     C91276   2.762   2.111   1.500 -0.6490  0.4723 -0.4861
  677MOL0     N91277   2.711   2.245   1.508 -0.4001  0.1559 -0.2695
  677MOL0     C91278   2.599   2.300   1.452  0.1323  0.1372 -1.2002
  677MOL0     C91279   2.592   2.426   1.499  0.7969 -1.1344 -1.0877
  677MOL0     C91280   2.498   2.540   1.456  0.2583 -0.0297  0.4014
  677MOL0     C91281   2.349   2.489   1.440 -0.1432  0.0624 -0.3240
  677MOL0     C91282   2.251   2.597   1.394 -0.6842 -1.3616 -0.2459
  677MOL0     C91283   2.188   2.675   1.513 -0.5573  0.0550 -0.6244
  677MOL0     O91284   2.121   2.792   1.483 -0.2172 -0.6184 -0.6736
  677MOL0     C91285   2.029   2.792   1.381  1.3411  0.0370 -0.1494
  677MOL0     C91286   1.933   2.691   1.377  0.9031 -0.2763  0.2191
  677MOL0     C91287   1.819   2.703   1.296 -0.2806  0.3255 -0.3646
  677MOL0     C91288   1.806   2.811   1.219  0.2915 -0.7349  0.9704
  677MOL0     C91289   1.688   2.821   1.128  0.1019 -0.2815  0.0006
  677MOL0     O91290   1.683   2.927   1.039  0.4017 -0.0224 -0.5124
  677MOL0     C91291   1.568   2.940   0.958 -0.1352  0.3880  0.0144
  677MOL0     C91292   1.587   2.928   0.825  0.0306 -0.2591 -0.3734
  677MOL0     C91293   1.474   2.925   0.745  0.2725  0.1862  0.1645
  677MOL0     C91294   1.343   2.937   0.789 -0.1136  0.8306  0.7247
  677MOL0     O91295   1.250   2.927   0.693  0.0430 -0.0806  0.2028
  677MOL0     C91296   1.109   2.926   0.737 -0.5337  0.6922 -0.2146
  677MOL0     C91297   1.003   2.922   0.625  0.1228 -0.4483  0.3763
  677MOL0     C91298   0.978   3.071   0.596 -0.1886  1.3360 -0.1309
  677MOL0     C91299   0.907   3.106   0.465  0.4469  0.9148  0.6069
  677MOL0     C91300   0.937   3.259   0.453 -0.1489 -0.1796  0.0089
  677MOL0     C91301   0.822   3.349   0.393  0.5009  0.1337  0.1566
  677MOL0     C91302   0.705   3.379   0.499  0.2776  0.3504 -0.2485
  677MOL0     C91303   0.598   3.471   0.449  0.1865  0.4360 -0.8202
  677MOL0    Cl91304   0.647   3.636   0.409  0.5885  0.3184 -0.2905
  677MOL0     C91305   1.326   2.930   0.926  0.6054 -0.6970 -0.6782
  677MOL0     C91306   1.441   2.936   1.015  0.6171 -0.4601  0.5826
  677MOL0     O91307   1.608   2.724   1.137  0.0409 -0.4174  0.1445
  677MOL0     C91308   1.909   2.910   1.203 -1.2640  0.7050 -0.1712
  677MOL0     C91309   2.020   2.897   1.290 -0.3556  0.4436  0.7277
  677MOL0     N91310   2.705   2.460   1.576  0.0078  0.6866  0.5013
  677MOL0     N91311   2.769   2.350   1.574  0.0406 -0.6728  0.0348
  677MOL0     C91312   2.528   1.397   1.446  0.1041  0.0849  0.1235
  677MOL0     C91313   2.403   1.365   1.384 -0.3819  1.3570 -0.2360
  677MOL0     C91314   2.163   1.129   1.041 -0.2093  0.7949  0.7915
  677MOL0     C91315   2.102   1.054   1.148  0.4141  0.1029  0.5259
  677MOL0     C91316   1.999   0.964   1.127 -0.8140  0.7024  0.1084
  677MOL0     C91317   1.960   0.933   0.997  0.2023  0.3760 -1.1853
  677MOL0     O91318   1.860   0.845   0.956  0.2418  0.0471  0.0368
  677MOL0     C91319   1.798   0.770   1.066  1.0054  0.0925  0.3964
  677MOL0     C91320   1.670   0.706   0.994  0.1661 -0.2383 -0.2008
  677MOL0     C91321   1.603   0.590   1.066  0.4936  0.1110 -0.2447
  677MOL0     C91322   1.513   0.507   0.984  0.4334 -0.0649  0.1699
  677MOL0     C91323   1.440   0.412   1.063  0.7243 -0.6703  0.0545
  677MOL0     C91324   1.387   0.329   1.131 -0.3921 -0.3546  0.9927
  677MOL0     C91325   2.008   1.018   0.896  0.2226 -1.1680  0.3989
  677MOL0     C91326   2.107   1.118   0.910  0.3204  0.0129  0.3385
  677MOL0     C91327   2.163   1.182   0.776  0.2522  0.1165 -0.1023
  677MOL0     H91328   2.537   1.231   1.095  2.0218 -1.0014  0.1645
  677MOL0     H91329   2.728   1.294   1.185  1.4156  0.7723  2.7965
  677MOL0     H91330   2.965   1.442   1.431 -0.4981  1.2347  0.7233
  677MOL0     H91331   2.919   1.332   1.313  4.5200 -0.1933  1.3014
  677MOL0     H91332   2.817   1.523   1.166 -1.3861  2.9716 -0.6868
  677MOL0     H91333   2.990   1.538   1.206  1.3773 -0.9374  3.1666
  677MOL0     H91334   2.774   1.662   1.379  1.6087 -1.8547  0.3946
  677MOL0     H91335   2.836   1.751   1.240  0.1865 -0.4131 -0.6061
  677MOL0     H91336   3.022   1.673   1.478 -2.2690 -0.0322  1.7275
  677MOL0     H91337   3.064   1.724   1.317 -0.7203  0.5592 -0.4850
  677MOL0     H91338   2.882   1.852   1.519 -0.1651 -2.4756 -1.0498
  677MOL0     H91339   3.047   1.899   1.501 -1.0218  0.9931  0.2735
  677MOL0     H91340   3.006   1.965   1.268  0.4802 -4.1644  0.7974
  677MOL0     H91341   2.836   1.952   1.281  0.0703  1.0077  0.1156
  677MOL0     H91342   2.892   2.183   1.336 -1.4769 -0.6888 -0.1188
  677MOL0     H91343   2.981   2.112   1.487  0.2122 -1.6766  0.8736
  677MOL0     H91344   2.694   2.042   1.450  0.9590 -1.2929 -0.3564
  677MOL0     H91345   2.780   2.068   1.599  4.3001  0.2860 -1.2050
  677MOL0     H91346   2.521   2.250   1.395  0.0878 -0.7272 -0.4058
  677MOL0     H91347   2.508   2.636   1.508  0.4576  0.1287  0.0757
  677MOL0     H91348   2.528   2.554   1.352 -0.8490 -2.9895 -0.4213
  677MOL0     H91349   2.345   2.430   1.349 -2.7576  2.1478 -1.6911
  677MOL0     H91350   2.315   2.430   1.526  1.8447 -1.5165 -0.5652
  677MOL0     H91351   2.176   2.550   1.331 -3.2330  2.5677 -0.5235
  677MOL0     H91352   2.308   2.670   1.335  0.2434 -1.1369  0.8724
  677MOL0     H91353   2.270   2.707   1.579 -0.0561 -2.4993  0.1216
  677MOL0     H91354   2.122   2.605   1.566  0.6904 -0.8233 -0.1581
  677MOL0     H91355   1.931   2.605   1.444  2.9014 -0.0695  0.5833
  677MOL0     H91356   1.754   2.617   1.299 -1.8174  1.2133 -3.5164
  677MOL0     H91357   1.685   2.923   0.778  0.6242 -0.4119  0.8508
  677MOL0     H91358   1.500   2.930   0.640  4.2861  0.6587  1.0178
  677MOL0     H91359   1.104   2.837   0.799  0.6659 -1.9641 -3.5711
  677MOL0     H91360   1.083   3.016   0.793  2.4566  1.6438 -0.1261
  677MOL0     H91361   1.041   2.865   0.540  0.2681 -1.2661  0.9782
  677MOL0     H91362   0.907   2.890   0.666 -0.3924  3.1210  2.3788
  677MOL0     H91363   0.924   3.126   0.673 -0.7241 -1.8361  1.9557
  677MOL0     H91364   1.077   3.117   0.596  0.8882 -0.8188  0.1679
  677MOL0     H91365   0.802   3.081   0.484  1.5466 -3.1463  2.3649
  677MOL0     H91366   0.939   3.060   0.371  0.6310  5.3133 -1.7975
  677MOL0     H91367   1.031   3.263   0.397  1.0160 -1.5969  1.7702
  677MOL0     H91368   0.973   3.308   0.544  1.0631 -0.1987 -0.4373
  677MOL0     H91369   0.875   3.441   0.364 -0.2811  1.1441  1.7899
  677MOL0     H91370   0.771   3.308   0.306 -0.3028 -1.5310  1.3755
  677MOL0     H91371   0.745   3.417   0.593  0.7342 -0.7321  0.0094
  677MOL0     H91372   0.656   3.284   0.519  1.2836 -0.4277 -1.2722
  677MOL0     H91373   0.556   3.432   0.356 -1.5388 -0.5418  0.3035
  677MOL0     H91374   0.512   3.472   0.517 -1.0714 -2.7157 -2.1530
  677MOL0     H91375   1.227   2.927   0.971 -0.3438 -1.7290 -2.6858
  677MOL0     H91376   1.437   2.931   1.124  2.4826 -1.8584  0.6355
  677MOL0     H91377   1.906   3.004   1.149 -0.6995  0.5618 -0.4656
  677MOL0     H91378   2.102   2.967   1.303 -0.2038  0.2716  0.7026
  677MOL0     H91379   2.515   1.447   1.542 -2.6343  0.7218 -0.4731
  677MOL0     H91380   2.310   1.377   1.438  0.7997 -0.4818  2.5091
  677MOL0     H91381   2.131   1.064   1.252  0.1780  2.0403  0.4384
  677MOL0     H91382   1.974   0.896   1.208  1.4372 -4.4127 -2.9409
  677MOL0     H91383   1.781   0.834   1.153 -1.1448  0.5295 -0.2786
  677MOL0     H91384   1.866   0.691   1.101  2.9041  1.7617  0.6573
  677MOL0     H91385   1.701   0.665   0.898 -1.9412 -1.7242 -0.3182
  677MOL0     H91386   1.590   0.778   0.974 -1.4184 -1.6403  0.7534
  677MOL0     H91387   1.548   0.633   1.150 -2.6984  1.0788 -2.6348
  677MOL0     H91388   1.676   0.525   1.116 -0.6493 -0.1023  1.2387
  677MOL0     H91389   1.436   0.569   0.938  0.7907  0.2813  0.0224
  677MOL0     H91390   1.569   0.465   0.900 -1.8896  2.3857 -2.8315
  677MOL0     H91391   1.352   0.250   1.194  0.3293 -3.0414 -1.7234
  677MOL0     H91392   1.975   1.018   0.793 -2.9504  0.2273  1.2738
  677MOL0     H91393   2.104   1.160   0.686  0.4741  1.1628 -0.5162
  677MOL0     H91394   2.151   1.289   0.795  5.4827  1.0474 -0.4723
  677MOL0     H91395   2.270   1.173   0.753 -0.1860  1.5500 -3.2501
  678MOL0     O91396   8.986   8.457   6.138 -0.5117  0.0756  0.7545
  678MOL0     C91397   9.105   8.461   6.123 -0.2482 -0.0223  1.0222
  678MOL0     O91398   9.190   8.567   6.107  0.3713 -0.1595  0.4657
  678MOL0     C91399   9.121   8.683   6.083 -0.3236 -0.6061 -0.8475
  678MOL0     C91400   9.076   8.762   6.187 -0.2057 -0.0799  0.0612
  678MOL0     C91401   9.000   8.881   6.153 -0.4318 -0.0401 -0.3102
  678MOL0     C91402   8.969   8.916   6.024 -0.5467  0.5186  1.1769
  678MOL0     O91403   8.881   9.016   6.004  0.3392 -0.3340 -0.0562
  678MOL0     C91404   8.857   9.069   5.878 -0.4153  1.4110 -0.6154
  678MOL0     C91405   8.786   9.197   5.877 -0.1481 -0.2071  0.7052
  678MOL0     C91406   8.881   9.314   5.913 -1.0572  0.2332 -0.0554
  678MOL0     C91407   8.928   9.292   6.060 -0.5653 -0.5818  0.9870
  678MOL0     C91408   8.995   9.414   6.131  1.1527 -0.4182 -0.0136
  678MOL0     C91409   9.108   9.473   6.046  0.5458  0.0047  0.0141
  678MOL0     C91410   9.214   9.543   6.123  0.4021 -0.4295  0.4377
  678MOL0     C91411   9.183   9.691   6.141  0.3608  0.5182 -0.4285
  678MOL0     N91412   9.297   9.749   6.215  0.0904  0.9875  0.4631
  678MOL0     C91413   9.281   9.800   6.336  0.3492 -0.7983  1.0009
  678MOL0     C91414   9.394   9.858   6.374  0.2257 -0.6274  0.1738
  678MOL0     C91415   9.422   9.932   6.505 -0.0520 -0.1091 -0.9490
  678MOL0     C91416   9.553   9.872   6.577  0.6192 -0.3880 -0.0985
  678MOL0     C91417   9.677   9.945   6.533 -0.4468  0.3862 -0.4211
  678MOL0     C91418   9.809   9.922   6.612  0.1485 -0.5880  0.1384
  678MOL0     O91419   9.907   9.985   6.537  0.1464 -0.2715  0.3848
  678MOL0     C91420  10.029   9.989   6.595 -0.0888 -0.0169 -0.1199
  678MOL0     C91421  10.063   9.962   6.723 -0.0213  0.1847  0.1799
  678MOL0     C91422  10.199   9.960   6.766  0.0321  0.1888  0.3302
  678MOL0     C91423  10.300  10.001   6.678  0.5670 -1.0669 -0.5948
  678MOL0     C91424  10.439  10.017   6.730 -0.8213  0.1980 -0.0434
  678MOL0     O91425  10.545  10.001   6.640 -0.6373  0.3888 -0.5251
  678MOL0     C91426  10.674   9.997   6.690  0.6471  0.9938  0.4106
  678MOL0     C91427  10.744  10.118   6.691 -0.8992  0.4549 -0.7979
  678MOL0     C91428  10.865  10.109   6.762  0.2583 -0.1689 -0.0247
  678MOL0     C91429  10.927   9.995   6.797 -0.5044 -0.1306 -0.1736
  678MOL0     O91430  11.052   9.986   6.858 -0.4624  0.0861  0.0239
  678MOL0     C91431  11.149   9.975   6.755  0.7137  0.6797 -1.2065
  678MOL0     C91432  11.159  10.075   6.643 -1.1531 -0.1622  0.0217
  678MOL0     C91433  11.294  10.066   6.564 -0.6107 -0.0746  0.3818
  678MOL0     C91434  11.288  10.128   6.427 -0.0404 -0.9402 -0.0247
  678MOL0     C91435  11.430  10.130   6.365 -0.3599  0.1490  0.2204
  678MOL0     C91436  11.523  10.243   6.414  0.5906 -0.4913  0.7346
  678MOL0     C91437  11.671  10.198   6.386  0.0376 -0.8306  0.1140
  678MOL0     C91438  11.694  10.161   6.235  0.5266 -0.6828  0.3868
  678MOL0    Cl91439  11.660  10.315   6.132 -0.4187  0.4180 -0.2197
  678MOL0     C91440  10.864   9.878   6.790 -0.2070  0.6662 -0.1065
  678MOL0     C91441  10.736   9.876   6.727  0.2973 -0.0077 -0.7103
  678MOL0     O91442  10.456  10.042   6.850 -0.1002  0.3861 -0.5014
  678MOL0     C91443  10.262  10.060   6.552 -0.0925  0.3650 -0.5332
  678MOL0     C91444  10.127  10.037   6.513 -0.9345  0.9656  0.2589
  678MOL0     N91445   9.483   9.825   6.274 -0.0902 -0.7536 -0.3871
  678MOL0     N91446   9.427   9.756   6.180 -0.1041  0.7658  0.7601
  678MOL0     C91447   9.009   8.829   5.923 -0.2821 -0.0652 -0.7222
  678MOL0     C91448   9.100   8.727   5.948  0.7977 -0.8787  0.1142
  678MOL0     C91449   9.173   8.326   6.130  0.1139  0.6662 -0.1791
  678MOL0     C91450   9.091   8.208   6.147  0.4093 -0.4603  0.2923
  678MOL0     C91451   9.140   8.074   6.171  0.2385 -0.4481 -0.1062
  678MOL0     C91452   9.272   8.056   6.167  0.1788 -0.3935 -0.5987
  678MOL0     O91453   9.342   7.942   6.196  0.1528 -0.6551 -0.2931
  678MOL0     C91454   9.273   7.825   6.239  1.0540 -0.1724  0.3952
  678MOL0     C91455   9.221   7.842   6.382 -0.4384 -0.5972  0.7403
  678MOL0     C91456   9.151   7.708   6.424 -0.0724  0.4753  0.0330
  678MOL0     C91457   9.067   7.738   6.543  0.0544  0.1669 -1.3015
  678MOL0     C91458   8.935   7.802   6.512  0.6326  0.0095 -0.0140
  678MOL0     C91459   8.837   7.864   6.478  0.4820 -0.4212 -0.6100
  678MOL0     C91460   9.360   8.162   6.136  1.0686 -1.1351  0.1007
  678MOL0     C91461   9.314   8.293   6.121  0.7708  0.9475  0.1678
  678MOL0     C91462   9.419   8.402   6.112 -0.8174 -0.2550 -0.4323
  678MOL0     H91463   9.104   8.731   6.287  0.3384  0.6126  0.1248
  678MOL0     H91464   8.969   8.943   6.237 -0.1366  0.9324 -0.9098
  678MOL0     H91465   8.949   9.078   5.819  0.5267 -2.2879  0.0876
  678MOL0     H91466   8.799   8.986   5.838 -0.5118  0.7935  0.7550
  678MOL0     H91467   8.702   9.178   5.945  0.0447 -1.2248  0.6718
  678MOL0     H91468   8.734   9.219   5.783  0.6138  1.3015  0.6158
  678MOL0     H91469   8.830   9.410   5.902 -1.2449  0.3394  1.4690
  678MOL0     H91470   8.962   9.307   5.841  0.3949 -0.1037  1.5492
  678MOL0     H91471   8.850   9.242   6.119 -2.4489  0.7537 -0.2337
  678MOL0     H91472   9.011   9.222   6.049 -1.4647 -1.5410  0.0562
  678MOL0     H91473   8.921   9.493   6.151  1.2869  0.1085 -1.4200
  678MOL0     H91474   9.036   9.382   6.226 -0.6245 -1.3214  0.4854
  678MOL0     H91475   9.145   9.381   6.000 -0.8548 -0.4994 -0.1582
  678MOL0     H91476   9.064   9.534   5.967 -2.5254 -2.1782 -0.1650
  678MOL0     H91477   9.314   9.531   6.079  0.1649 -0.2460 -0.1613
  678MOL0     H91478   9.208   9.498   6.222 -2.1139  1.2442  1.1403
  678MOL0     H91479   9.174   9.734   6.041  0.7903 -1.4698 -1.3739
  678MOL0     H91480   9.086   9.715   6.186 -0.1941 -2.0599 -0.0408
  678MOL0     H91481   9.186   9.796   6.389 -0.5950  0.2724 -0.5283
  678MOL0     H91482   9.424  10.041   6.488 -1.2697 -0.0524 -0.8450
  678MOL0     H91483   9.343   9.918   6.579  1.2722 -0.6297  0.4098
  678MOL0     H91484   9.532   9.887   6.683  0.1869 -0.1207 -0.2172
  678MOL0     H91485   9.553   9.765   6.556  0.6278 -0.7548  1.6451
  678MOL0     H91486   9.655  10.052   6.526 -0.3818  0.4404  0.1660
  678MOL0     H91487   9.688   9.905   6.431 -1.5546 -0.7006 -0.1497
  678MOL0     H91488   9.837   9.816   6.622 -0.7353 -0.7736  0.7472
  678MOL0     H91489   9.792   9.956   6.714 -1.9327 -1.8589  0.2751
  678MOL0     H91490   9.997   9.933   6.803 -1.4421 -0.2037 -1.0891
  678MOL0     H91491  10.221   9.920   6.865  1.4783 -2.5944 -1.0107
  678MOL0     H91492  10.702  10.208   6.645 -3.8406 -0.1441  0.4645
  678MOL0     H91493  10.921  10.200   6.782  0.4190  0.4346 -2.8288
  678MOL0     H91494  11.240   9.989   6.814 -1.7185  3.5982  2.2838
  678MOL0     H91495  11.135   9.876   6.710  0.1683  0.3023 -0.2439
  678MOL0     H91496  11.083  10.075   6.564  0.4939 -0.9990 -1.6627
  678MOL0     H91497  11.153  10.172   6.692  0.1768 -0.5692  1.0482
  678MOL0     H91498  11.362  10.136   6.613  0.5757 -0.8398 -0.1302
  678MOL0     H91499  11.345   9.970   6.555  0.8900  0.4958  2.1040
  678MOL0     H91500  11.241  10.226   6.437  1.0472 -0.0580 -2.6045
  678MOL0     H91501  11.212  10.080   6.364  0.1457  0.3428 -1.2887
  678MOL0     H91502  11.431  10.139   6.256  1.1292 -0.4871  0.1649
  678MOL0     H91503  11.485  10.041   6.399 -1.1666 -0.1743  0.7021
  678MOL0     H91504  11.509  10.339   6.365 -1.9814 -0.9688  0.3779
  678MOL0     H91505  11.512  10.263   6.521 -0.6330  1.8230  0.2464
  678MOL0     H91506  11.697  10.108   6.443 -0.3277 -0.9570  0.0807
  678MOL0     H91507  11.737  10.282   6.410  0.7214 -1.3729  0.1799
  678MOL0     H91508  11.793  10.116   6.227  1.4146  0.7438  2.3613
  678MOL0     H91509  11.628  10.078   6.211  1.3620 -1.0887 -0.6164
  678MOL0     H91510  10.914   9.787   6.821 -0.1137  0.6273 -0.3705
  678MOL0     H91511  10.690   9.778   6.719 -1.6045  0.8349 -0.6928
  678MOL0     H91512  10.325  10.107   6.477 -0.2835  0.4489 -0.6376
  678MOL0     H91513  10.100  10.055   6.409 -1.2651  1.2067  0.3840
  678MOL0     H91514   8.979   8.838   5.819 -1.0528 -2.2631 -0.7470
  678MOL0     H91515   9.136   8.671   5.862  0.8054 -1.1896  0.3198
  678MOL0     H91516   8.984   8.219   6.130  0.4489 -0.8913 -0.3017
  678MOL0     H91517   9.075   7.990   6.193 -3.6450  1.6315 -2.4917
  678MOL0     H91518   9.342   7.740   6.232  2.1285  0.3958  3.1204
  678MOL0     H91519   9.188   7.804   6.172  0.4178 -0.8366  1.3903
  678MOL0     H91520   9.140   7.915   6.373  0.5690  0.5358  0.5947
  678MOL0     H91521   9.295   7.886   6.450  1.4888  2.6544 -2.9957
  678MOL0     H91522   9.225   7.635   6.457 -1.9579 -2.0994 -1.0441
  678MOL0     H91523   9.083   7.666   6.348 -1.7037  0.8163  1.2327
  678MOL0     H91524   9.063   7.639   6.590  2.1696  0.4127 -0.5154
  678MOL0     H91525   9.114   7.806   6.614 -2.8450 -0.6829  1.7051
  678MOL0     H91526   8.747   7.906   6.439 -0.7758 -2.4743 -0.0892
  678MOL0     H91527   9.461   8.132   6.110  1.9337  1.2021  0.5932
  678MOL0     H91528   9.394   8.449   6.016 -0.6942 -0.3613 -0.5155
  678MOL0     H91529   9.406   8.480   6.187 -3.1452 -1.4643  0.5111
  678MOL0     H91530   9.520   8.363   6.107 -1.8558 -3.3691  0.7647
  679MOL0     O91531   6.578   8.006   1.245 -0.6201 -0.2075 -0.4956
  679MOL0     C91532   6.482   8.039   1.175 -0.0875  0.5600  0.0923
  679MOL0     O91533   6.495   8.074   1.038 -0.2358  0.3936  0.3893
  679MOL0     C91534   6.620   8.089   0.974  0.4303  0.5076 -0.1026
  679MOL0     C91535   6.620   8.048   0.840  0.2561 -0.2046 -0.9429
  679MOL0     C91536   6.732   8.081   0.757 -0.2838 -0.2351  0.0500
  679MOL0     C91537   6.843   8.155   0.806  0.0375  0.7414 -0.2075
  679MOL0     O91538   6.954   8.175   0.726 -0.2325  0.4810 -0.3948
  679MOL0     C91539   7.057   8.077   0.728 -0.1255 -0.0018 -0.4213
  679MOL0     C91540   7.162   8.116   0.627 -0.1834 -0.0514  0.6623
  679MOL0     C91541   7.111   8.127   0.480  0.4249  0.6849 -0.0499
  679MOL0     C91542   7.109   7.996   0.411 -0.2841  0.0463  0.3166
  679MOL0     C91543   7.059   8.018   0.268  0.9566  0.1318  0.5243
  679MOL0     C91544   7.087   7.897   0.187 -0.0066  0.5810  0.0979
  679MOL0     C91545   7.064   7.912   0.030  0.4166  0.4467  0.1970
  679MOL0     C91546   6.972   8.027  -0.013 -0.5555 -1.1823  0.4554
  679MOL0     N91547   6.953   8.031  -0.162 -0.4585  0.1937  0.3693
  679MOL0     C91548   6.945   7.916  -0.239 -0.3544  0.5979  0.8295
  679MOL0     C91549   6.907   7.954  -0.359 -0.0049 -0.2085 -0.0793
  679MOL0     C91550   6.883   7.866  -0.478  0.2943  0.1571 -0.5737
  679MOL0     C91551   6.758   7.772  -0.458  1.4928  0.3922 -0.4167
  679MOL0     C91552   6.748   7.667  -0.569  0.8039 -0.5452 -0.4160
  679MOL0     C91553   6.653   7.548  -0.531 -0.5612  0.3149  0.5221
  679MOL0     O91554   6.533   7.608  -0.476 -0.2026  0.3182  0.0840
  679MOL0     C91555   6.461   7.534  -0.388  0.8745 -0.4141  0.0645
  679MOL0     C91556   6.419   7.397  -0.408  0.0227 -0.8197 -0.4762
  679MOL0     C91557   6.338   7.333  -0.315 -0.5531 -0.1610  0.0743
  679MOL0     C91558   6.311   7.392  -0.189 -0.2341  0.3737 -0.9585
  679MOL0     C91559   6.254   7.313  -0.076  0.7956 -0.9277  0.9164
  679MOL0     O91560   6.231   7.378   0.042  0.4374  0.9085 -0.0154
  679MOL0     C91561   6.213   7.322   0.170  0.2496  0.2127  0.5685
  679MOL0     C91562   6.208   7.185   0.206 -0.4907  0.6033  0.0044
  679MOL0     C91563   6.202   7.147   0.337 -0.0757 -1.4328 -1.2307
  679MOL0     C91564   6.190   7.240   0.441 -0.1550 -0.2775  0.5546
  679MOL0     O91565   6.179   7.217   0.570  0.3779  0.0543 -0.3719
  679MOL0     C91566   6.188   7.082   0.624  0.0627 -0.3548  0.8677
  679MOL0     C91567   6.189   7.098   0.770 -1.3022 -1.0833  0.1437
  679MOL0     C91568   6.066   7.177   0.835 -0.1776  0.5287  1.3233
  679MOL0     C91569   5.934   7.110   0.794  0.1517  0.0253 -0.7830
  679MOL0     C91570   5.910   6.961   0.823  0.0273 -0.6380 -0.2773
  679MOL0     C91571   5.913   6.930   0.975 -0.0699 -0.3310 -0.3456
  679MOL0     C91572   5.930   6.769   0.996  0.9049  0.9200 -0.5092
  679MOL0     C91573   5.921   6.732   1.137 -0.3232 -0.6671 -0.7199
  679MOL0    Cl91574   5.770   6.784   1.210  0.1388  0.1339  0.0495
  679MOL0     C91575   6.217   7.369   0.400  1.0320  0.3126 -0.7786
  679MOL0     C91576   6.224   7.414   0.271  0.2194 -0.2379 -0.2613
  679MOL0     O91577   6.239   7.196  -0.095 -0.0572 -0.4194 -0.0301
  679MOL0     C91578   6.349   7.520  -0.172 -0.2243 -0.0432 -0.7542
  679MOL0     C91579   6.419   7.591  -0.267 -0.1477 -0.6196  0.6147
  679MOL0     N91580   6.869   8.081  -0.346 -0.5490  0.1213  0.4456
  679MOL0     N91581   6.898   8.134  -0.230 -0.5058  0.5969  0.4146
  679MOL0     C91582   6.844   8.186   0.949  0.0834  0.5216 -0.3348
  679MOL0     C91583   6.727   8.160   1.024 -0.4779 -0.8821 -0.5606
  679MOL0     C91584   6.352   8.003   1.240 -0.0535 -1.2597  0.9931
  679MOL0     C91585   6.253   7.936   1.165 -0.3336  0.1708 -0.1865
  679MOL0     C91586   6.135   7.888   1.225  0.7262  0.3359  0.0855
  679MOL0     C91587   6.122   7.902   1.363  0.7375 -0.2295 -0.6265
  679MOL0     O91588   6.023   7.838   1.435  0.3361  0.3374  0.0890
  679MOL0     C91589   6.060   7.706   1.458  0.2399  0.0064  0.0891
  679MOL0     C91590   5.938   7.616   1.420 -0.2054 -0.6788  0.5563
  679MOL0     C91591   5.811   7.640   1.494 -0.5967  0.3872 -0.9075
  679MOL0     C91592   5.827   7.644   1.650 -0.4721  0.2237 -0.5397
  679MOL0     C91593   5.818   7.506   1.696 -1.2976 -0.6265  0.1616
  679MOL0     C91594   5.810   7.397   1.742 -0.3267 -0.4287 -0.3190
  679MOL0     C91595   6.223   7.960   1.442 -0.6404 -0.2812 -0.1562
  679MOL0     C91596   6.333   8.017   1.380 -0.9159  0.4007 -0.3486
  679MOL0     C91597   6.418   8.110   1.459 -0.6770  0.2473 -1.2185
  679MOL0     H91598   6.535   7.997   0.797  1.6127 -4.5754  1.0500
  679MOL0     H91599   6.723   8.046   0.655 -0.3192  1.9728 -0.7639
  679MOL0     H91600   7.102   8.074   0.827  1.3989  0.4855 -1.0708
  679MOL0     H91601   7.012   7.983   0.695 -0.3888  0.2090 -0.6663
  679MOL0     H91602   7.236   8.036   0.638 -1.0513 -0.5698  3.6545
  679MOL0     H91603   7.204   8.215   0.645 -4.2874  1.9510  0.4606
  679MOL0     H91604   7.181   8.192   0.426 -0.2528  1.3325 -0.1711
  679MOL0     H91605   7.015   8.178   0.478 -1.0132 -1.6278  2.8123
  679MOL0     H91606   7.208   7.951   0.411 -1.2237 -2.1089 -0.5860
  679MOL0     H91607   7.044   7.928   0.467 -2.4698  1.5666 -0.2382
  679MOL0     H91608   6.952   8.040   0.263  0.7820 -0.0530  2.6708
  679MOL0     H91609   7.115   8.101   0.223  3.5291 -2.1655 -0.8165
  679MOL0     H91610   7.186   7.851   0.198 -1.0041 -1.8137 -0.3832
  679MOL0     H91611   7.024   7.812   0.216 -3.8676  2.8660 -0.8668
  679MOL0     H91612   7.019   7.821  -0.011 -2.4908  1.4704  0.8882
  679MOL0     H91613   7.164   7.932  -0.009  1.2439  0.7868  2.3678
  679MOL0     H91614   6.875   8.036   0.036  0.0924  2.1468  1.3952
  679MOL0     H91615   7.022   8.124   0.002 -2.0851 -0.4527  1.0574
  679MOL0     H91616   6.961   7.812  -0.209  2.3026  0.3304 -1.1373
  679MOL0     H91617   6.874   7.922  -0.572  2.1912 -0.5483 -1.2277
  679MOL0     H91618   6.969   7.799  -0.493  0.1376 -0.7896  2.2144
  679MOL0     H91619   6.748   7.725  -0.360 -0.7556  3.2202  0.8796
  679MOL0     H91620   6.664   7.828  -0.465  0.3350 -1.5799 -1.6630
  679MOL0     H91621   6.847   7.624  -0.586  0.3644 -0.8142 -2.5533
  679MOL0     H91622   6.716   7.725  -0.656  0.6136  1.3953  0.8866
  679MOL0     H91623   6.706   7.487  -0.457  2.2598 -1.5028 -2.7048
  679MOL0     H91624   6.616   7.496  -0.620 -1.4608  2.0287 -0.1481
  679MOL0     H91625   6.442   7.349  -0.503  2.6723 -1.3928  0.3475
  679MOL0     H91626   6.317   7.228  -0.334 -0.1983  0.0160 -1.4097
  679MOL0     H91627   6.214   7.106   0.133  0.5263  0.5618  0.1270
  679MOL0     H91628   6.209   7.044   0.369  0.1600 -0.5915  1.6986
  679MOL0     H91629   6.101   7.022   0.599 -0.4026  0.7542 -0.3287
  679MOL0     H91630   6.278   7.038   0.580 -0.3794 -2.7440  2.2325
  679MOL0     H91631   6.190   6.995   0.806 -0.3585 -2.5539 -3.6877
  679MOL0     H91632   6.281   7.149   0.801 -3.0063  0.5923  2.9189
  679MOL0     H91633   6.071   7.172   0.944 -0.4457 -0.0806  1.3070
  679MOL0     H91634   6.072   7.283   0.808  0.3221  0.4627  1.1528
  679MOL0     H91635   5.923   7.122   0.686  0.3709  0.8048 -0.7281
  679MOL0     H91636   5.847   7.160   0.839  2.2882  2.1462  1.2470
  679MOL0     H91637   5.996   6.912   0.776 -0.8256 -1.8980 -0.5947
  679MOL0     H91638   5.811   6.930   0.787 -1.6443  3.6610  0.0692
  679MOL0     H91639   5.992   6.984   1.028 -0.9279 -0.5848  1.2675
  679MOL0     H91640   5.818   6.950   1.025  0.0434 -1.8971  0.5830
  679MOL0     H91641   6.030   6.739   0.962  1.3659 -1.6582  2.6420
  679MOL0     H91642   5.860   6.722   0.927  2.5777 -1.2205 -0.8567
  679MOL0     H91643   5.925   6.623   1.142  3.2649 -0.6366 -0.3064
  679MOL0     H91644   6.010   6.768   1.189  0.3192 -1.5874 -1.1483
  679MOL0     H91645   6.226   7.438   0.484  1.7962 -0.6228 -0.0724
  679MOL0     H91646   6.243   7.519   0.250  1.2017 -0.0962  1.1767
  679MOL0     H91647   6.314   7.571  -0.083  2.3771  0.4776  0.0513
  679MOL0     H91648   6.443   7.690  -0.228  2.3111 -1.3430  1.0817
  679MOL0     H91649   6.927   8.236   0.997  0.4416 -2.4020  2.4799
  679MOL0     H91650   6.723   8.178   1.131  4.8560 -3.8934  0.4773
  679MOL0     H91651   6.275   7.916   1.061 -0.8393  2.4864 -0.7714
  679MOL0     H91652   6.053   7.843   1.170 -1.0715  4.4001 -0.9264
  679MOL0     H91653   6.072   7.687   1.565 -2.1023  0.0239  0.3999
  679MOL0     H91654   6.150   7.677   1.401  0.5801  0.6736  0.2818
  679MOL0     H91655   5.971   7.512   1.433  0.8513 -0.1303  2.6357
  679MOL0     H91656   5.928   7.611   1.311 -0.4245 -3.7197  0.6153
  679MOL0     H91657   5.738   7.563   1.470 -0.6965  0.0877  0.3142
  679MOL0     H91658   5.784   7.735   1.448  3.2012  1.2928 -1.6105
  679MOL0     H91659   5.920   7.692   1.682 -0.3477 -1.7043  2.3935
  679MOL0     H91660   5.751   7.711   1.691  1.0672  1.7462 -0.0568
  679MOL0     H91661   5.804   7.304   1.794  0.1338  0.0863  0.6992
  679MOL0     H91662   6.203   7.981   1.547  0.4347  0.1637 -0.0257
  679MOL0     H91663   6.434   8.205   1.407  1.3345 -1.7816 -4.7038
  679MOL0     H91664   6.395   8.129   1.564  1.2692 -1.8184 -0.3412
  679MOL0     H91665   6.516   8.061   1.471 -0.5800  0.9933  2.0687
  680MOL0     O91666   2.705   3.463   5.718  0.1354 -0.0951  0.4251
  680MOL0     C91667   2.726   3.415   5.830 -0.5922  0.1788 -1.1258
  680MOL0     O91668   2.835   3.349   5.864 -0.0869 -0.4109  0.6882
  680MOL0     C91669   2.948   3.352   5.801 -0.7662  0.0847  0.8182
  680MOL0     C91670   3.017   3.476   5.791 -0.9945  0.5034 -0.5280
  680MOL0     C91671   3.145   3.488   5.723  0.2569  0.7772 -0.1482
  680MOL0     C91672   3.201   3.370   5.663 -0.4075 -0.6072 -0.4621
  680MOL0     O91673   3.320   3.368   5.589  0.5053 -0.5769  0.0818
  680MOL0     C91674   3.363   3.502   5.540  0.8338 -0.7117  0.7181
  680MOL0     C91675   3.493   3.499   5.455 -0.0149  0.0915 -0.3672
  680MOL0     C91676   3.512   3.377   5.368  0.8880  0.4007  0.8132
  680MOL0     C91677   3.396   3.358   5.266  0.0349 -0.9869 -0.7662
  680MOL0     C91678   3.437   3.271   5.153  0.4568 -0.3065 -0.1927
  680MOL0     C91679   3.552   3.328   5.061 -0.1280  0.6843  0.3491
  680MOL0     C91680   3.510   3.446   4.972 -0.0906  0.1060 -0.4114
  680MOL0     C91681   3.605   3.474   4.863  0.0515  0.8544  0.3841
  680MOL0     N91682   3.553   3.586   4.778  0.3121  0.2315 -0.8879
  680MOL0     C91683   3.595   3.605   4.648 -1.0713 -0.0976  0.5568
  680MOL0     C91684   3.520   3.702   4.609 -0.0427  0.2329  0.4527
  680MOL0     C91685   3.527   3.782   4.478 -0.0305 -0.7518  0.5124
  680MOL0     C91686   3.593   3.920   4.486 -0.7724 -0.1683  0.2932
  680MOL0     C91687   3.748   3.921   4.437 -0.6243 -0.1449  0.7459
  680MOL0     C91688   3.750   3.919   4.284 -0.6267 -0.2744 -0.8918
  680MOL0     O91689   3.883   3.928   4.255 -0.5308  0.0177  0.4718
  680MOL0     C91690   3.930   3.881   4.136 -0.0391  0.1816 -1.0737
  680MOL0     C91691   4.065   3.846   4.125  0.4154 -0.3545 -0.5486
  680MOL0     C91692   4.121   3.784   4.013 -0.0346 -0.4962 -0.2039
  680MOL0     C91693   4.042   3.757   3.903  0.1347 -0.3989 -0.2148
  680MOL0     C91694   4.107   3.692   3.786  0.3034 -0.0264 -0.7023
  680MOL0     O91695   4.217   3.605   3.818  0.0504 -0.1595  0.2428
  680MOL0     C91696   4.285   3.532   3.716 -0.6800  0.0040 -0.0804
  680MOL0     C91697   4.263   3.391   3.714  1.2336 -0.2578  0.3185
  680MOL0     C91698   4.334   3.310   3.622  0.6503 -0.4882  0.1355
  680MOL0     C91699   4.410   3.370   3.523  0.0141 -0.2609 -0.0434
  680MOL0     O91700   4.463   3.282   3.433  1.1914  0.2404 -0.2782
  680MOL0     C91701   4.589   3.283   3.368  0.0643 -0.6074  0.9263
  680MOL0     C91702   4.612   3.176   3.265  0.4572  0.2009  0.4249
  680MOL0     C91703   4.757   3.169   3.221  0.2742  0.3881 -0.3452
  680MOL0     C91704   4.782   3.060   3.115  0.4455  0.4876 -0.2260
  680MOL0     C91705   4.932   3.056   3.094 -0.2585 -0.0925 -0.5346
  680MOL0     C91706   4.959   2.963   2.976  0.1350 -0.0060  0.1999
  680MOL0     C91707   5.112   2.969   2.972  0.4762  0.5054  0.1490
  680MOL0     C91708   5.184   2.864   2.880 -0.2304 -0.1862  0.6216
  680MOL0    Cl91709   5.140   2.913   2.717  0.0773  0.1489  0.1613
  680MOL0     C91710   4.426   3.511   3.519 -0.0527 -1.2653 -0.2268
  680MOL0     C91711   4.366   3.595   3.618  0.2680 -0.8024  0.0425
  680MOL0     O91712   4.061   3.701   3.674 -0.1190 -0.9352 -0.3652
  680MOL0     C91713   3.908   3.791   3.912  0.3772 -0.6980  0.6905
  680MOL0     C91714   3.856   3.844   4.020 -0.0779  0.4326 -0.1573
  680MOL0     N91715   3.425   3.724   4.707  0.5220 -1.0677  0.1634
  680MOL0     N91716   3.442   3.657   4.812  0.4409  0.7321  0.8725
  680MOL0     C91717   3.128   3.252   5.676 -0.7650  0.7165 -0.3593
  680MOL0     C91718   3.001   3.235   5.741  0.1158 -0.9777  1.2318
  680MOL0     C91719   2.618   3.436   5.938 -0.1995 -0.2753  0.2593
  680MOL0     C91720   2.672   3.477   6.061 -0.6838 -0.3109  0.9203
  680MOL0     C91721   2.589   3.490   6.176  0.9955 -0.7190 -0.8852
  680MOL0     C91722   2.452   3.469   6.154  0.3030 -0.3409 -0.5145
  680MOL0     O91723   2.369   3.474   6.259 -0.4384 -0.4544  0.0186
  680MOL0     C91724   2.304   3.603   6.274  0.1952  0.8129 -0.6554
  680MOL0     C91725   2.401   3.710   6.328 -0.7316 -0.4818 -0.6065
  680MOL0     C91726   2.324   3.837   6.373 -0.8157  0.1486  0.1853
  680MOL0     C91727   2.403   3.940   6.460  0.8636  0.1525  0.6732
  680MOL0     C91728   2.329   4.067   6.461 -1.2456  0.2878 -0.7473
  680MOL0     C91729   2.276   4.180   6.460  0.5315  0.0014 -0.7294
  680MOL0     C91730   2.397   3.427   6.029 -0.0851 -0.1772  0.9058
  680MOL0     C91731   2.485   3.401   5.930 -0.4749  0.1401 -0.3449
  680MOL0     C91732   2.438   3.331   5.800  0.2734 -0.9055  0.0260
  680MOL0     H91733   2.989   3.559   5.856 -0.6852  0.7065 -0.6524
  680MOL0     H91734   3.198   3.582   5.737 -0.4067  0.9629  1.3987
  680MOL0     H91735   3.283   3.538   5.475 -0.2802 -0.7651  2.0229
  680MOL0     H91736   3.389   3.573   5.619  3.3817  1.8917 -2.1920
  680MOL0     H91737   3.583   3.500   5.518  1.4338 -1.7084 -2.2752
  680MOL0     H91738   3.501   3.584   5.387 -0.5058 -0.7423 -1.4931
  680MOL0     H91739   3.515   3.284   5.424 -2.3657 -1.2578 -1.4460
  680MOL0     H91740   3.611   3.395   5.325  0.0207  2.4991 -0.4744
  680MOL0     H91741   3.318   3.309   5.326 -0.8875 -0.4601 -1.5055
  680MOL0     H91742   3.349   3.451   5.233  1.5980 -0.6851 -2.2636
  680MOL0     H91743   3.462   3.171   5.189 -0.9727 -0.4542  0.4566
  680MOL0     H91744   3.350   3.255   5.089 -1.8590  0.1467  2.6513
  680MOL0     H91745   3.644   3.344   5.118  1.0138 -3.5996  0.0777
  680MOL0     H91746   3.584   3.257   4.985  1.2465  2.7507 -1.1022
  680MOL0     H91747   3.498   3.529   5.042 -4.8299 -0.9282  0.3446
  680MOL0     H91748   3.410   3.425   4.931 -0.8521 -1.0737  1.8858
  680MOL0     H91749   3.695   3.521   4.903  0.3045  0.6293  0.0858
  680MOL0     H91750   3.630   3.388   4.800 -0.9052 -0.9101  2.2672
  680MOL0     H91751   3.660   3.545   4.586 -0.1553  1.0049  0.4085
  680MOL0     H91752   3.558   3.725   4.389  0.2398 -0.1242  0.1957
  680MOL0     H91753   3.424   3.792   4.443  1.0769  0.8298 -2.7579
  680MOL0     H91754   3.528   3.987   4.429 -2.1351 -1.0976  0.7095
  680MOL0     H91755   3.588   3.954   4.590  0.5743  3.2009 -0.5886
  680MOL0     H91756   3.803   3.834   4.474  2.6849  2.1477  1.7271
  680MOL0     H91757   3.793   4.011   4.479 -0.3077 -0.0604  0.2360
  680MOL0     H91758   3.686   3.995   4.239 -2.1003 -1.2778 -0.5692
  680MOL0     H91759   3.710   3.823   4.247 -0.0205 -1.3468  1.0780
  680MOL0     H91760   4.131   3.854   4.211  1.0051 -0.4537 -0.9856
  680MOL0     H91761   4.228   3.769   4.028 -0.2448 -1.3178  0.5615
  680MOL0     H91762   4.196   3.342   3.784  1.2382 -2.4139 -1.0933
  680MOL0     H91763   4.320   3.203   3.632  3.8217 -0.8165  3.5312
  680MOL0     H91764   4.598   3.373   3.305  0.4616 -0.5537  1.0574
  680MOL0     H91765   4.657   3.294   3.453  0.6312 -2.7416  0.8058
  680MOL0     H91766   4.589   3.076   3.301 -1.7268 -1.0178 -3.7015
  680MOL0     H91767   4.536   3.183   3.186 -1.2062  2.0624  2.0593
  680MOL0     H91768   4.795   3.261   3.175 -1.3240 -0.2643 -3.1891
  680MOL0     H91769   4.814   3.149   3.313 -0.8217 -2.8193 -0.2380
  680MOL0     H91770   4.744   3.100   3.021  1.6017  2.2362  0.0176
  680MOL0     H91771   4.736   2.964   3.141 -1.7862  1.4444 -0.3654
  680MOL0     H91772   4.980   3.024   3.187  0.7001 -0.8844 -1.2869
  680MOL0     H91773   4.967   3.156   3.066 -0.2570  0.2814  0.7375
  680MOL0     H91774   4.918   2.863   2.995  2.9331 -1.6286 -1.7006
  680MOL0     H91775   4.914   2.992   2.880 -2.4823 -2.7809  0.4391
  680MOL0     H91776   5.134   2.933   3.073  1.1112 -0.5034 -0.3311
  680MOL0     H91777   5.149   3.067   2.942  3.4589  0.3840  2.9866
  680MOL0     H91778   5.292   2.858   2.895  0.1205 -2.4487 -1.9843
  680MOL0     H91779   5.144   2.766   2.908 -0.7019 -0.8581 -2.0808
  680MOL0     H91780   4.490   3.550   3.440  0.1287 -2.1335 -0.5173
  680MOL0     H91781   4.374   3.703   3.607  1.1995 -0.9036 -0.3758
  680MOL0     H91782   3.840   3.771   3.830  0.2572  1.5791  0.1727
  680MOL0     H91783   3.751   3.871   4.012 -0.9248 -2.6478 -0.4252
  680MOL0     H91784   3.170   3.167   5.625  0.9993  0.8810  0.7486
  680MOL0     H91785   2.947   3.141   5.737 -1.8011  0.0420 -3.3061
  680MOL0     H91786   2.776   3.487   6.090  0.4142 -5.5593 -0.1964
  680MOL0     H91787   2.636   3.537   6.262 -2.0390  2.5561 -0.8378
  680MOL0     H91788   2.219   3.592   6.342  0.8979 -2.2439 -0.0931
  680MOL0     H91789   2.267   3.641   6.179  1.2074  1.5438 -0.7802
  680MOL0     H91790   2.454   3.747   6.240 -0.4826  1.2643  0.2328
  680MOL0     H91791   2.469   3.680   6.407 -1.0666 -4.1654 -1.5353
  680MOL0     H91792   2.238   3.789   6.420  0.1176 -1.5806  0.2097
  680MOL0     H91793   2.290   3.887   6.282  1.4241  0.4428 -0.5584
  680MOL0     H91794   2.420   3.912   6.564  1.5135  0.7338  0.7250
  680MOL0     H91795   2.494   3.973   6.409  0.6125  2.2681  1.4759
  680MOL0     H91796   2.241   4.281   6.448  1.5933  0.6619  1.2224
  680MOL0     H91797   2.293   3.411   6.003  0.3486 -1.6183 -0.1059
  680MOL0     H91798   2.333   3.361   5.786  0.3660 -1.5977 -2.6506
  680MOL0     H91799   2.490   3.363   5.709  0.8999 -1.3082  0.2394
  680MOL0     H91800   2.437   3.222   5.811 -1.4654 -1.0396 -1.1143
  681MOL0     O91801   5.651   5.365   7.767  0.2198  0.3255 -0.2074
  681MOL0     C91802   5.533   5.373   7.732  0.0872  0.9584 -0.2360
  681MOL0     O91803   5.429   5.382   7.828  0.7356  0.1630 -0.2479
  681MOL0     C91804   5.468   5.354   7.960 -0.4393 -0.2420 -0.1111
  681MOL0     C91805   5.545   5.447   8.038 -0.2478  1.2445 -0.4481
  681MOL0     C91806   5.577   5.428   8.176  1.5693  0.7639  0.3259
  681MOL0     C91807   5.539   5.308   8.232  0.4340 -0.7538  1.2364
  681MOL0     O91808   5.576   5.279   8.358 -0.8120 -0.2450 -0.3665
  681MOL0     C91809   5.643   5.380   8.446 -0.1970  0.2011 -0.1190
  681MOL0     C91810   5.641   5.315   8.593 -0.3799 -0.6858  0.5071
  681MOL0     C91811   5.684   5.169   8.607 -0.1972  0.1451  0.3881
  681MOL0     C91812   5.828   5.165   8.549 -1.1035 -0.5545  0.5391
  681MOL0     C91813   5.877   5.023   8.539  0.3374 -0.6111  0.5591
  681MOL0     C91814   5.992   5.002   8.441  0.6607 -0.2349  0.7304
  681MOL0     C91815   6.125   5.080   8.487  1.1061  0.7437  0.6570
  681MOL0     C91816   6.203   4.989   8.582 -0.1867  0.4059 -0.0167
  681MOL0     N91817   6.254   4.865   8.515  0.1498 -0.6869  1.4997
  681MOL0     C91818   6.302   4.864   8.379  0.9597  0.0589  0.1555
  681MOL0     C91819   6.319   4.735   8.344  0.6901  0.7469 -0.1005
  681MOL0     C91820   6.379   4.675   8.216  0.8194 -0.4594 -0.7766
  681MOL0     C91821   6.281   4.614   8.129 -0.2274 -0.1136 -0.2311
  681MOL0     C91822   6.195   4.714   8.040  0.3545 -0.4777  0.2925
  681MOL0     C91823   6.074   4.775   8.109 -0.1126 -0.1080 -0.0666
  681MOL0     O91824   6.003   4.672   8.176  0.5120  0.1422 -0.7138
  681MOL0     C91825   5.888   4.688   8.245 -0.1019  0.9242  0.9627
  681MOL0     C91826   5.794   4.794   8.224  0.2664  0.5320  1.7227
  681MOL0     C91827   5.691   4.820   8.314  0.0941  0.0494  0.1607
  681MOL0     C91828   5.670   4.733   8.426 -1.0240 -0.7851  0.5099
  681MOL0     C91829   5.558   4.755   8.515  0.9386 -0.3543 -0.3089
  681MOL0     O91830   5.487   4.872   8.509  0.0694  0.5968 -0.0744
  681MOL0     C91831   5.391   4.906   8.607 -0.4355  0.1122 -0.3875
  681MOL0     C91832   5.416   4.899   8.746  0.0587 -0.3652 -0.1272
  681MOL0     C91833   5.325   4.929   8.844  0.5309  0.0168  0.3519
  681MOL0     C91834   5.189   4.956   8.805 -0.1763  0.0142 -0.6588
  681MOL0     O91835   5.101   4.994   8.901  0.5075  0.2214 -0.2187
  681MOL0     C91836   4.977   4.921   8.906 -0.0527  0.8174  0.5653
  681MOL0     C91837   4.922   4.943   9.051  0.5504  0.3410 -0.0313
  681MOL0     C91838   5.007   4.889   9.162 -0.5196 -0.4986 -0.5474
  681MOL0     C91839   4.977   4.953   9.299  0.0897 -0.3349  0.0166
  681MOL0     C91840   5.067   4.902   9.420  1.5686 -0.0402  0.7143
  681MOL0     C91841   4.998   4.963   9.550 -0.0591  0.3004 -0.0226
  681MOL0     C91842   4.869   4.868   9.579  0.1221 -0.2592 -0.6051
  681MOL0     C91843   4.822   4.890   9.725 -0.5390 -0.6172 -0.3876
  681MOL0    Cl91844   4.931   4.824   9.851  0.4388 -0.3703 -0.2576
  681MOL0     C91845   5.158   4.964   8.668 -1.4853  0.1526  0.2685
  681MOL0     C91846   5.267   4.948   8.576  0.8758 -0.3818  0.1158
  681MOL0     O91847   5.541   4.664   8.598 -0.7363 -0.0747 -0.1314
  681MOL0     C91848   5.764   4.628   8.446 -0.0414 -0.2560 -0.0268
  681MOL0     C91849   5.870   4.606   8.355 -0.2306 -0.5323  0.4088
  681MOL0     N91850   6.272   4.650   8.448  0.3034 -0.4089 -0.8298
  681MOL0     N91851   6.230   4.732   8.550  0.1324  0.1702 -1.0740
  681MOL0     C91852   5.458   5.216   8.157 -0.3081 -0.2490  0.1786
  681MOL0     C91853   5.426   5.235   8.025  0.4949 -0.3686  0.7531
  681MOL0     C91854   5.488   5.376   7.591 -0.0763 -0.0804  0.2960
  681MOL0     C91855   5.349   5.359   7.571 -1.0192 -0.0741 -0.4915
  681MOL0     C91856   5.306   5.369   7.444 -0.3345  0.2797 -0.6252
  681MOL0     C91857   5.389   5.418   7.341 -1.5221  0.4914  0.3211
  681MOL0     O91858   5.345   5.431   7.217  0.0155 -0.4453  0.3679
  681MOL0     C91859   5.412   5.362   7.106 -0.2653 -0.4288 -0.0564
  681MOL0     C91860   5.334   5.250   7.053 -0.8461  0.0988  0.1927
  681MOL0     C91861   5.231   5.302   6.948  0.2413  0.5045  0.2854
  681MOL0     C91862   5.113   5.386   6.995 -1.4868  0.1331 -0.3900
  681MOL0     C91863   5.028   5.330   7.104 -0.7485 -0.0026  0.8940
  681MOL0     C91864   4.965   5.280   7.188  0.6684 -0.1643 -0.3568
  681MOL0     C91865   5.519   5.443   7.370 -0.4589  0.0963  0.2412
  681MOL0     C91866   5.581   5.415   7.491 -0.0076  0.8283  0.3171
  681MOL0     C91867   5.730   5.451   7.503  0.1029 -0.7327  0.0309
  681MOL0     H91868   5.589   5.529   7.981  0.2698  0.9500 -0.4816
  681MOL0     H91869   5.632   5.512   8.217  3.2914  1.2678 -2.7171
  681MOL0     H91870   5.743   5.410   8.416  0.1402  1.2388  1.8635
  681MOL0     H91871   5.578   5.469   8.451  2.0850  1.8820  1.4504
  681MOL0     H91872   5.536   5.325   8.622 -1.1194 -2.5029 -1.3257
  681MOL0     H91873   5.706   5.367   8.664 -1.4906  0.5512  0.6627
  681MOL0     H91874   5.611   5.101   8.563 -0.7259  0.2041  1.1359
  681MOL0     H91875   5.678   5.147   8.714 -0.8923 -0.3514  0.2585
  681MOL0     H91876   5.831   5.184   8.441  1.0773  0.2828  0.6969
  681MOL0     H91877   5.893   5.235   8.602  2.4255 -0.5437 -3.2266
  681MOL0     H91878   5.903   4.987   8.639  1.3287  0.9882  0.9177
  681MOL0     H91879   5.795   4.967   8.495 -2.2352  3.0133  0.3220
  681MOL0     H91880   6.005   4.901   8.401  1.5082  0.3424 -0.5183
  681MOL0     H91881   5.965   5.057   8.351 -2.1729 -2.6384 -0.0278
  681MOL0     H91882   6.104   5.177   8.533  0.8668 -0.4062  3.1317
  681MOL0     H91883   6.190   5.101   8.402 -2.0395  0.1267 -2.1170
  681MOL0     H91884   6.284   5.044   8.628  2.1484  0.2697 -3.5526
  681MOL0     H91885   6.119   4.958   8.644 -2.7077 -0.6861 -3.6086
  681MOL0     H91886   6.324   4.959   8.332 -0.7903  0.6864  0.5382
  681MOL0     H91887   6.430   4.752   8.158  1.1454  0.6168  0.8749
  681MOL0     H91888   6.455   4.599   8.237  1.5651  0.5676  0.3659
  681MOL0     H91889   6.348   4.554   8.066 -0.0691 -0.9436  0.7156
  681MOL0     H91890   6.219   4.546   8.187 -3.5008  2.4279 -0.4235
  681MOL0     H91891   6.164   4.662   7.949  5.3797  1.9721 -3.3238
  681MOL0     H91892   6.256   4.795   7.999 -3.5119  2.2657 -0.5418
  681MOL0     H91893   6.007   4.820   8.036  1.4351 -1.3429 -2.3837
  681MOL0     H91894   6.108   4.851   8.180 -0.2914  0.8022 -0.9395
  681MOL0     H91895   5.806   4.851   8.133 -0.0679 -2.2023 -0.1554
  681MOL0     H91896   5.611   4.890   8.288 -0.7346 -1.6879 -2.3823
  681MOL0     H91897   5.520   4.877   8.770  0.7314  2.7804  0.2347
  681MOL0     H91898   5.354   4.928   8.948  2.3952  0.7460 -0.1182
  681MOL0     H91899   4.911   4.982   8.843 -0.1467  0.3757  0.2258
  681MOL0     H91900   4.981   4.816   8.875  0.2314  0.4435  1.8238
  681MOL0     H91901   4.911   5.051   9.064  2.2742  0.4924  0.3536
  681MOL0     H91902   4.825   4.892   9.056 -0.0588  1.5751  2.6092
  681MOL0     H91903   4.986   4.784   9.183 -3.5008 -0.1303 -1.1169
  681MOL0     H91904   5.112   4.905   9.135 -1.3894  2.6702 -2.6298
  681MOL0     H91905   4.872   4.947   9.327 -0.6562  1.3804 -2.1519
  681MOL0     H91906   4.990   5.061   9.291  1.8555 -0.4584  0.6701
  681MOL0     H91907   5.169   4.940   9.407  1.8421 -0.1180  2.4388
  681MOL0     H91908   5.071   4.793   9.429 -1.9688 -0.3147  0.4593
  681MOL0     H91909   5.067   4.955   9.634 -0.4458  1.6388  0.4527
  681MOL0     H91910   4.966   5.066   9.532 -1.6363  0.1798  1.6920
  681MOL0     H91911   4.896   4.764   9.560 -0.8002 -1.3000  2.8924
  681MOL0     H91912   4.777   4.897   9.528 -1.1648 -0.8540  1.2754
  681MOL0     H91913   4.825   4.999   9.728  2.3142 -0.6162 -0.8419
  681MOL0     H91914   4.719   4.856   9.739 -0.7050  0.7450  2.4453
  681MOL0     H91915   5.068   5.014   8.633 -0.8319  1.5838  0.5483
  681MOL0     H91916   5.241   4.958   8.471 -0.8476  2.0327  0.7073
  681MOL0     H91917   5.769   4.564   8.534  3.0644  1.3960  1.1509
  681MOL0     H91918   5.945   4.531   8.381  0.1669 -0.4922 -0.5814
  681MOL0     H91919   5.415   5.124   8.196  0.3446 -0.5687  0.1742
  681MOL0     H91920   5.355   5.170   7.975 -0.6973 -0.3627  2.3563
  681MOL0     H91921   5.285   5.315   7.647  1.1474 -3.1660 -0.2887
  681MOL0     H91922   5.201   5.364   7.420 -1.0302  2.1372  1.6860
  681MOL0     H91923   5.514   5.332   7.134 -1.0362 -2.8218  0.4035
  681MOL0     H91924   5.427   5.436   7.027 -1.1017 -2.4443 -2.2347
  681MOL0     H91925   5.292   5.190   7.134 -0.0449  0.8645  1.1945
  681MOL0     H91926   5.395   5.181   6.994  0.5209  2.3729 -1.2099
  681MOL0     H91927   5.192   5.213   6.896  0.6136 -0.0778  0.9842
  681MOL0     H91928   5.278   5.358   6.867 -2.5869 -2.6308 -3.9904
  681MOL0     H91929   5.155   5.485   7.014  0.9275  0.1489 -4.5240
  681MOL0     H91930   5.047   5.403   6.909 -2.6470 -0.2993  0.3922
  681MOL0     H91931   4.889   5.249   7.257  1.2750 -1.8095 -0.4041
  681MOL0     H91932   5.577   5.485   7.288  0.0938 -0.0473  0.5563
  681MOL0     H91933   5.769   5.456   7.401 -1.7762 -0.5766 -0.7152
  681MOL0     H91934   5.729   5.555   7.538  0.4697 -0.0807 -1.8291
  681MOL0     H91935   5.792   5.398   7.577 -1.1856 -0.1891  1.5781
  682MOL0     O91936   9.445   8.116   6.638 -0.3948 -0.3267 -0.0669
  682MOL0     C91937   9.406   8.205   6.564 -0.1210  0.2342  0.2194
  682MOL0     O91938   9.494   8.277   6.484 -0.3263 -0.1121  0.5143
  682MOL0     C91939   9.631   8.260   6.511 -0.0205  0.8905  0.1183
  682MOL0     C91940   9.723   8.225   6.411 -0.9147  0.2894  0.5052
  682MOL0     C91941   9.861   8.231   6.443  0.6427  0.1219  0.9423
  682MOL0     C91942   9.906   8.252   6.567 -0.8938 -0.1506 -0.2952
  682MOL0     O91943  10.048   8.255   6.578 -0.7962  0.0223 -0.3503
  682MOL0     C91944  10.100   8.316   6.700 -0.5172 -0.7914 -0.4473
  682MOL0     C91945  10.244   8.363   6.684  0.1054 -1.0803  0.1877
  682MOL0     C91946  10.248   8.490   6.583 -0.3103  0.5197  0.4361
  682MOL0     C91947  10.265   8.457   6.429 -0.9567  0.4114  0.0144
  682MOL0     C91948  10.234   8.569   6.335  0.2735 -1.2142  0.7576
  682MOL0     C91949  10.301   8.706   6.361  0.5188  0.4226 -0.2540
  682MOL0     C91950  10.274   8.817   6.257  0.3918 -0.6525  0.4660
  682MOL0     C91951  10.387   8.933   6.255 -0.5198 -0.8332  0.2999
  682MOL0     N91952  10.527   8.901   6.222 -0.7666  0.7981  0.5435
  682MOL0     C91953  10.575   8.859   6.101  0.7028 -0.0723 -0.8735
  682MOL0     C91954  10.711   8.875   6.113  0.6768  0.3852 -0.8027
  682MOL0     C91955  10.804   8.834   5.999 -0.5451 -0.1183 -0.2586
  682MOL0     C91956  10.952   8.826   6.051  0.4315  0.1726  0.3456
  682MOL0     C91957  11.054   8.874   5.944 -0.3642 -0.2058 -0.0288
  682MOL0     C91958  11.056   8.786   5.815  0.3304  0.6769 -0.2773
  682MOL0     O91959  11.162   8.826   5.735 -0.7887 -0.0454  0.1878
  682MOL0     C91960  11.142   8.888   5.616  0.0234 -0.3736  0.7850
  682MOL0     C91961  11.057   8.839   5.512 -0.3583 -0.3704 -0.7470
  682MOL0     C91962  11.025   8.911   5.398 -0.7087  0.3091  0.7352
  682MOL0     C91963  11.073   9.041   5.377  0.7195 -0.2589  0.0594
  682MOL0     C91964  11.034   9.123   5.250 -0.3081 -0.3658 -0.2843
  682MOL0     O91965  11.081   9.253   5.234  0.3595  0.6502  1.0590
  682MOL0     C91966  11.024   9.356   5.162 -0.5141  0.6214  0.2996
  682MOL0     C91967  10.889   9.352   5.121 -0.2317 -0.0862  0.4298
  682MOL0     C91968  10.829   9.473   5.081  0.2126 -0.1191 -0.4596
  682MOL0     C91969  10.897   9.592   5.059 -0.2856  1.4746  0.2334
  682MOL0     O91970  10.844   9.702   4.998  0.9537  0.7044 -0.8726
  682MOL0     C91971  10.701   9.694   4.974  1.4746 -0.6864  0.2540
  682MOL0     C91972  10.635   9.827   4.925 -0.6252  0.1202  0.2751
  682MOL0     C91973  10.677   9.945   5.012  0.2748  0.1208 -0.8311
  682MOL0     C91974  10.604  10.065   4.980  0.4919 -0.7186  0.5119
  682MOL0     C91975  10.667  10.186   5.049 -1.0189  0.5854  0.4605
  682MOL0     C91976  10.819  10.219   4.998 -0.2916  1.0988 -0.9826
  682MOL0     C91977  10.868  10.351   5.056 -0.6231 -0.0565 -0.2630
  682MOL0     C91978  11.010  10.384   5.016 -1.0376  0.4983 -0.2992
  682MOL0    Cl91979  11.122  10.248   5.055  0.2943 -0.1948 -0.0754
  682MOL0     C91980  11.033   9.593   5.083 -0.0681 -0.1000  0.2458
  682MOL0     C91981  11.094   9.480   5.148 -1.0039  0.5707 -1.0594
  682MOL0     O91982  10.957   9.065   5.170 -0.8149  0.4467  0.3596
  682MOL0     C91983  11.157   9.084   5.478 -0.3564  0.8226 -0.8102
  682MOL0     C91984  11.187   9.016   5.598  0.9923  0.1953 -0.8086
  682MOL0     N91985  10.746   8.923   6.244  0.5861 -0.0457 -0.5534
  682MOL0     N91986  10.632   8.937   6.307 -0.7917 -0.7333  0.7284
  682MOL0     C91987   9.815   8.268   6.668  0.1823  0.3708  0.0832
  682MOL0     C91988   9.681   8.275   6.642  0.8430  0.2087 -1.0805
  682MOL0     C91989   9.257   8.223   6.558 -0.1423  0.8187  0.9827
  682MOL0     C91990   9.165   8.111   6.590  0.3955 -0.5676  0.6924
  682MOL0     C91991   9.033   8.128   6.578  0.2556 -1.2509 -0.0374
  682MOL0     C91992   8.976   8.248   6.536 -0.1501  0.0498 -0.0694
  682MOL0     O91993   8.847   8.254   6.517  0.6278  0.1003  0.3045
  682MOL0     C91994   8.814   8.277   6.377  0.0659 -0.4584  0.3568
  682MOL0     C91995   8.662   8.261   6.358  0.0098 -0.1206  0.5417
  682MOL0     C91996   8.631   8.273   6.208 -0.4701 -0.6361  0.0646
  682MOL0     C91997   8.491   8.334   6.177  0.6909 -0.7092  0.3536
  682MOL0     C91998   8.401   8.229   6.127  0.3206 -0.2927 -0.2150
  682MOL0     C91999   8.330   8.138   6.073 -0.0222  0.4035  0.5243
  682MOL0     C92000   9.061   8.349   6.507  0.1917 -0.5973 -0.3098
  682MOL0     C92001   9.196   8.336   6.511  0.1252 -0.6228  0.6587
  682MOL0     C92002   9.276   8.459   6.490  0.5660 -0.6432 -0.3133
  682MOL0     H92003   9.701   8.224   6.305  2.0526 -1.7928 -0.2172
  682MOL0     H92004   9.937   8.229   6.365 -0.0453  1.3165  0.2167
  682MOL0     H92005  10.038   8.401   6.733  3.1059  1.3329  1.5779
  682MOL0     H92006  10.095   8.244   6.782  0.3874 -0.1754  0.1792
  682MOL0     H92007  10.316   8.289   6.647  0.0096  0.0473 -2.4715
  682MOL0     H92008  10.278   8.390   6.784 -0.7187 -0.7511  0.3847
  682MOL0     H92009  10.328   8.557   6.615  0.8421 -0.8703  0.5391
  682MOL0     H92010  10.159   8.552   6.598 -1.5812 -0.4087 -2.5521
  682MOL0     H92011  10.365   8.416   6.413 -0.3291  2.1733 -0.9223
  682MOL0     H92012  10.194   8.375   6.415  2.0037 -2.0448 -1.7260
  682MOL0     H92013  10.252   8.538   6.232  0.7581 -1.2269  0.8451
  682MOL0     H92014  10.126   8.588   6.335  0.7893  2.4803  0.5032
  682MOL0     H92015  10.278   8.741   6.463  2.9724  2.7984 -0.3827
  682MOL0     H92016  10.407   8.700   6.389 -0.3221  2.8195  4.5507
  682MOL0     H92017  10.182   8.873   6.274  0.1461 -0.8471 -0.1590
  682MOL0     H92018  10.282   8.777   6.155 -0.4430 -0.1380  0.1828
  682MOL0     H92019  10.368   9.017   6.187  1.6594  2.4639  3.4283
  682MOL0     H92020  10.383   8.977   6.354 -1.4844  2.2506 -1.0009
  682MOL0     H92021  10.518   8.824   6.016 -1.3307  1.1818 -0.1089
  682MOL0     H92022  10.781   8.738   5.953 -0.1356  0.4253 -1.6642
  682MOL0     H92023  10.798   8.910   5.920 -1.8017 -0.2026 -0.2661
  682MOL0     H92024  10.967   8.910   6.119  1.0026 -0.8243  1.4871
  682MOL0     H92025  10.988   8.735   6.099  2.1896  1.5996  1.8745
  682MOL0     H92026  11.156   8.861   5.980 -1.5361 -1.7745  3.0470
  682MOL0     H92027  11.040   8.980   5.925  1.5619 -0.1580 -1.5371
  682MOL0     H92028  10.960   8.800   5.764  0.3040  1.0094 -0.1328
  682MOL0     H92029  11.070   8.680   5.840 -1.4146  0.9181  2.0642
  682MOL0     H92030  11.011   8.742   5.529 -4.2239  1.5281  0.6856
  682MOL0     H92031  10.971   8.862   5.317  0.9241 -0.9306  0.3570
  682MOL0     H92032  10.828   9.262   5.121 -2.5682  1.4028  0.2756
  682MOL0     H92033  10.724   9.462   5.055  0.3072  0.5822 -1.1579
  682MOL0     H92034  10.674   9.613   4.906 -1.1714 -1.1268  1.6922
  682MOL0     H92035  10.657   9.675   5.073 -1.9351  2.3428 -0.4875
  682MOL0     H92036  10.661   9.845   4.820 -0.7419  0.7063  0.3452
  682MOL0     H92037  10.526   9.816   4.933 -0.8401 -0.9790 -2.7860
  682MOL0     H92038  10.667   9.923   5.119  3.0805  1.5466 -0.1664
  682MOL0     H92039  10.781   9.968   4.984 -0.0310  1.2107 -1.1227
  682MOL0     H92040  10.497  10.045   4.996  0.4254 -0.4626  0.3998
  682MOL0     H92041  10.602  10.089   4.873 -0.8773  1.4006  0.9449
  682MOL0     H92042  10.663  10.173   5.157 -1.8169  0.0059  0.3685
  682MOL0     H92043  10.614  10.280   5.029 -1.0604  0.3130 -0.7980
  682MOL0     H92044  10.882  10.136   5.031 -1.9416  0.0854 -0.2599
  682MOL0     H92045  10.831  10.210   4.889 -0.1963 -1.7983 -0.8045
  682MOL0     H92046  10.877  10.340   5.164  1.6318  0.2147 -0.3753
  682MOL0     H92047  10.793  10.428   5.041  0.5484  0.8872 -1.6176
  682MOL0     H92048  11.011  10.394   4.907  0.9263 -2.1426 -0.6293
  682MOL0     H92049  11.049  10.468   5.073  1.4882 -1.7714  1.5843
  682MOL0     H92050  11.085   9.682   5.049  0.6233 -0.0245  1.4452
  682MOL0     H92051  11.194   9.493   5.187 -0.9412  0.0462 -1.0396
  682MOL0     H92052  11.190   9.187   5.487 -0.2723  0.6712  1.1455
  682MOL0     H92053  11.253   9.064   5.669 -1.4277 -0.3988  2.0102
  682MOL0     H92054   9.841   8.269   6.774  1.2987 -2.7551 -0.0453
  682MOL0     H92055   9.618   8.296   6.728  2.0063  2.4792 -0.6932
  682MOL0     H92056   9.210   8.016   6.616 -1.4127 -2.4442 -2.3657
  682MOL0     H92057   8.975   8.050   6.627  1.4561 -1.8126  0.5329
  682MOL0     H92058   8.868   8.212   6.307 -0.0424  2.8062 -3.0708
  682MOL0     H92059   8.850   8.377   6.353 -0.4678 -0.1162  0.9598
  682MOL0     H92060   8.618   8.340   6.420 -1.9610 -0.9805  0.3202
  682MOL0     H92061   8.625   8.163   6.387  0.7017 -1.6817 -3.2145
  682MOL0     H92062   8.651   8.180   6.154 -1.2494  0.2858 -1.9050
  682MOL0     H92063   8.697   8.350   6.167  0.1073 -0.5472  1.1061
  682MOL0     H92064   8.441   8.382   6.261 -0.4458 -3.0609  1.1045
  682MOL0     H92065   8.501   8.422   6.113 -3.0103  0.4457  1.1045
  682MOL0     H92066   8.262   8.080   6.015 -0.2462  1.6807 -0.5518
  682MOL0     H92067   9.024   8.447   6.483 -0.5923 -0.6565  0.5736
  682MOL0     H92068   9.331   8.446   6.397 -2.2218 -1.8529 -1.9246
  682MOL0     H92069   9.230   8.559   6.487  1.8852 -0.0400 -1.9099
  682MOL0     H92070   9.338   8.475   6.578  1.5219  2.6513 -1.4200
  683MOL0     O92071   0.750   6.123   4.230  0.1646  0.4940 -0.3248
  683MOL0     C92072   0.647   6.190   4.243  0.5001 -1.2186 -0.4741
  683MOL0     O92073   0.636   6.317   4.189  0.4676 -0.1166  0.1860
  683MOL0     C92074   0.736   6.357   4.103 -0.3227 -0.4244 -0.6406
  683MOL0     C92075   0.730   6.327   3.965 -0.0175  0.6438  0.3003
  683MOL0     C92076   0.829   6.369   3.876 -0.2534 -0.7194 -0.5944
  683MOL0     C92077   0.937   6.435   3.931 -0.3066 -0.8650 -0.2204
  683MOL0     O92078   1.039   6.483   3.856 -1.0631 -0.1121  0.4573
  683MOL0     C92079   1.077   6.400   3.750  0.1530  0.4983 -0.7915
  683MOL0     C92080   1.215   6.445   3.688 -0.5348  0.5140  0.1356
  683MOL0     C92081   1.234   6.348   3.574 -0.3828  0.1502  0.3187
  683MOL0     C92082   1.350   6.380   3.479 -0.3957 -0.3790 -0.3946
  683MOL0     C92083   1.342   6.493   3.377  0.4198  0.2880  0.1072
  683MOL0     C92084   1.241   6.481   3.266 -0.3530 -0.0910 -0.1755
  683MOL0     C92085   1.299   6.392   3.144 -0.4092  0.5740 -0.0462
  683MOL0     C92086   1.213   6.413   3.022  0.7689 -0.2465  0.2368
  683MOL0     N92087   1.228   6.520   2.929  0.4331  0.8265 -0.8329
  683MOL0     C92088   1.247   6.516   2.788  0.0188 -0.2307 -0.3619
  683MOL0     C92089   1.255   6.645   2.754 -0.4964 -0.9080  0.2256
  683MOL0     C92090   1.302   6.709   2.619  0.3258 -0.0140  0.3498
  683MOL0     C92091   1.384   6.836   2.648  0.8138 -0.0831  1.0994
  683MOL0     C92092   1.433   6.892   2.513 -0.7386  0.4712 -0.5274
  683MOL0     C92093   1.570   6.835   2.483  0.2379  0.9551 -0.2225
  683MOL0     O92094   1.624   6.876   2.353 -0.4429  0.8481  0.4512
  683MOL0     C92095   1.710   6.797   2.281  0.4503 -0.4932 -0.8270
  683MOL0     C92096   1.735   6.836   2.151  0.2202 -0.3011  0.2126
  683MOL0     C92097   1.825   6.761   2.074  0.6783  0.6650  0.0618
  683MOL0     C92098   1.873   6.639   2.128 -0.0406 -0.3802 -0.1146
  683MOL0     C92099   1.953   6.544   2.050 -0.8141 -0.1282 -0.2897
  683MOL0     O92100   2.002   6.599   1.942 -0.1792 -0.2383  0.2663
  683MOL0     C92101   2.053   6.520   1.843  0.2306 -0.1357  0.9130
  683MOL0     C92102   2.002   6.518   1.709  0.1686  0.4523 -0.6827
  683MOL0     C92103   2.060   6.436   1.609 -0.2650 -0.5547  1.0444
  683MOL0     C92104   2.165   6.357   1.643 -0.0992  0.7104  0.4020
  683MOL0     O92105   2.230   6.283   1.553  0.2196 -0.7462  0.2529
  683MOL0     C92106   2.237   6.328   1.411 -0.8255  1.0965  0.5478
  683MOL0     C92107   2.325   6.230   1.334 -0.3017 -0.3328 -0.0552
  683MOL0     C92108   2.456   6.181   1.401 -0.5552  0.4411  0.2857
  683MOL0     C92109   2.478   6.029   1.354 -0.9644 -1.4549 -1.3083
  683MOL0     C92110   2.628   5.990   1.365 -0.5302 -0.8438 -0.0578
  683MOL0     C92111   2.645   5.838   1.372  0.6733  0.4695  0.2736
  683MOL0     C92112   2.632   5.789   1.515  0.5076  0.6842  0.6809
  683MOL0     C92113   2.694   5.650   1.536  0.3724 -0.5768 -0.3578
  683MOL0    Cl92114   2.865   5.683   1.537 -0.0750 -0.6999  0.1110
  683MOL0     C92115   2.218   6.358   1.776  0.1110  0.2244  0.1006
  683MOL0     C92116   2.164   6.444   1.868  0.5634  0.4600 -0.0371
  683MOL0     O92117   1.976   6.433   2.100  0.1130 -1.0711  0.4766
  683MOL0     C92118   1.844   6.602   2.261 -0.4106 -0.4595  0.4201
  683MOL0     C92119   1.774   6.685   2.336 -0.0827 -0.4217  0.4003
  683MOL0     N92120   1.226   6.719   2.872  0.4420  0.3565  0.5606
  683MOL0     N92121   1.204   6.647   2.972  0.7144  0.1751  0.5201
  683MOL0     C92122   0.940   6.472   4.064  0.0892  0.0270  0.8759
  683MOL0     C92123   0.836   6.436   4.146 -0.6246  0.3802  0.1029
  683MOL0     C92124   0.532   6.133   4.320 -1.3635  0.2181 -0.8976
  683MOL0     C92125   0.555   6.012   4.392 -0.6794  0.8727 -0.7463
  683MOL0     C92126   0.458   5.943   4.458 -1.1178  0.0975  0.7322
  683MOL0     C92127   0.325   5.976   4.450 -0.2038  0.6916  0.0664
  683MOL0     O92128   0.230   5.890   4.492  0.5495  0.0152  0.0178
  683MOL0     C92129   0.088   5.930   4.481 -0.6596  0.5309  1.0775
  683MOL0     C92130   0.042   6.006   4.607 -0.2288  1.7096  0.9348
  683MOL0     C92131   0.081   5.912   4.728  0.3283 -0.1803 -0.6034
  683MOL0     C92132  -0.015   5.941   4.842 -0.0010 -0.0055 -1.2494
  683MOL0     C92133   0.020   6.071   4.910  0.2721 -0.3858  0.0850
  683MOL0     C92134   0.055   6.182   4.937 -0.0352  0.1140 -0.5094
  683MOL0     C92135   0.297   6.113   4.394 -0.5147 -0.0933 -0.4195
  683MOL0     C92136   0.396   6.176   4.321  0.2805  0.0412 -0.2604
  683MOL0     C92137   0.349   6.309   4.253  0.4059 -0.5069  0.1709
  683MOL0     H92138   0.639   6.283   3.925 -0.3880  1.1598  0.5568
  683MOL0     H92139   0.819   6.362   3.768  0.2671  0.4490 -0.7415
  683MOL0     H92140   1.089   6.293   3.768 -2.2147  0.1590 -0.9467
  683MOL0     H92141   0.997   6.409   3.676  1.6418  3.2679 -2.2439
  683MOL0     H92142   1.298   6.446   3.760 -2.5477  0.0438  2.5728
  683MOL0     H92143   1.201   6.546   3.648  1.3737  0.7753  0.0232
  683MOL0     H92144   1.143   6.354   3.513 -0.6605  4.1929  0.8886
  683MOL0     H92145   1.243   6.245   3.611 -0.4784  0.2343  0.5776
  683MOL0     H92146   1.436   6.409   3.540  2.5393 -0.0473 -4.3093
  683MOL0     H92147   1.380   6.286   3.432 -0.7511 -1.3172  1.1758
  683MOL0     H92148   1.316   6.576   3.443 -1.4477 -0.5980  0.5662
  683MOL0     H92149   1.440   6.513   3.335  0.1547 -1.4774 -1.4944
  683MOL0     H92150   1.156   6.428   3.309 -0.0721 -1.3901 -1.1293
  683MOL0     H92151   1.210   6.576   3.222  0.4236 -0.9767 -2.8894
  683MOL0     H92152   1.287   6.288   3.175  2.6254 -0.1071 -0.8271
  683MOL0     H92153   1.405   6.412   3.125 -0.6248  0.4499 -1.4883
  683MOL0     H92154   1.227   6.318   2.970  0.1104 -0.0136 -0.3883
  683MOL0     H92155   1.106   6.409   3.045  0.6636 -1.7126 -0.4016
  683MOL0     H92156   1.255   6.428   2.724 -2.3037 -0.6544 -0.1694
  683MOL0     H92157   1.367   6.633   2.573 -0.4078  1.5083 -3.5409
  683MOL0     H92158   1.219   6.736   2.554  1.1714 -0.4201 -0.9406
  683MOL0     H92159   1.324   6.914   2.697  1.7698  0.1543  1.9215
  683MOL0     H92160   1.468   6.812   2.715 -1.4422 -1.5651  3.6065
  683MOL0     H92161   1.446   7.001   2.518  0.4216  0.3265  0.1413
  683MOL0     H92162   1.360   6.862   2.438  0.5289 -2.0278 -0.8526
  683MOL0     H92163   1.564   6.727   2.496  0.2758  0.8864 -0.7308
  683MOL0     H92164   1.639   6.870   2.560 -0.1609 -2.7667  2.0447
  683MOL0     H92165   1.698   6.933   2.119  0.4957  0.9187  3.2453
  683MOL0     H92166   1.846   6.801   1.975 -2.6146  1.5485 -0.3971
  683MOL0     H92167   1.921   6.585   1.685  1.3195  2.7056  1.3635
  683MOL0     H92168   2.021   6.429   1.508 -3.3490 -0.6929  2.1515
  683MOL0     H92169   2.145   6.342   1.354 -1.3248 -2.9911  0.1059
  683MOL0     H92170   2.288   6.425   1.408 -0.8031  1.1463 -3.7490
  683MOL0     H92171   2.258   6.145   1.322 -1.0206 -0.1576  2.1994
  683MOL0     H92172   2.369   6.278   1.246  2.2435 -1.8967  0.2640
  683MOL0     H92173   2.532   6.250   1.365 -3.0982  2.7663 -1.0801
  683MOL0     H92174   2.450   6.195   1.509  0.9541  1.0133  0.3129
  683MOL0     H92175   2.457   6.029   1.247  1.0068 -0.7865 -1.7260
  683MOL0     H92176   2.417   5.965   1.419  2.7970 -1.6568  2.4510
  683MOL0     H92177   2.676   6.030   1.455 -5.2689 -1.5666  3.0902
  683MOL0     H92178   2.681   6.036   1.280 -0.9713 -1.3068 -0.5871
  683MOL0     H92179   2.577   5.791   1.302 -0.3979 -0.4176  1.8440
  683MOL0     H92180   2.747   5.827   1.334  0.1228  0.4768 -1.2693
  683MOL0     H92181   2.526   5.771   1.538  0.8720 -0.0311  1.8830
  683MOL0     H92182   2.677   5.862   1.583 -0.2537  1.1934  0.6581
  683MOL0     H92183   2.673   5.609   1.636  2.8344  1.6862  1.2305
  683MOL0     H92184   2.665   5.575   1.462 -3.6051  0.7597 -0.4213
  683MOL0     H92185   2.306   6.296   1.791  1.7079  2.5649  0.9251
  683MOL0     H92186   2.206   6.441   1.968  0.2677 -1.1458  0.0714
  683MOL0     H92187   1.885   6.514   2.309 -0.8567  0.2330  2.1559
  683MOL0     H92188   1.767   6.656   2.440 -2.7529 -0.9995  0.1175
  683MOL0     H92189   1.020   6.539   4.095 -0.3739  1.6824 -1.3104
  683MOL0     H92190   0.835   6.461   4.252 -2.0367 -1.0737  0.4635
  683MOL0     H92191   0.655   5.968   4.388 -1.0134  0.1477 -1.4876
  683MOL0     H92192   0.484   5.856   4.517 -0.2396 -1.8222 -2.2847
  683MOL0     H92193   0.035   5.835   4.469  0.5631  0.0233 -0.7001
  683MOL0     H92194   0.058   5.989   4.394  0.7982 -0.2115  0.0283
  683MOL0     H92195  -0.063   6.036   4.598 -0.8740 -0.9572 -2.5216
  683MOL0     H92196   0.089   6.102   4.627 -1.7508  2.3441  1.6603
  683MOL0     H92197   0.179   5.937   4.770  0.3351  0.4427 -0.9773
  683MOL0     H92198   0.088   5.811   4.685 -0.7300  0.1164 -1.5057
  683MOL0     H92199  -0.115   5.957   4.800 -0.7651 -1.1560  0.0266
  683MOL0     H92200  -0.024   5.853   4.906 -1.0280  0.6259 -0.4943
  683MOL0     H92201   0.073   6.281   4.975 -0.7537  0.1294 -0.1798
  683MOL0     H92202   0.199   6.160   4.400  0.0041  0.8807  0.7967
  683MOL0     H92203   0.392   6.311   4.153  3.8407  4.4105  1.3684
  683MOL0     H92204   0.241   6.321   4.238  0.3664  0.1223  0.8672
  683MOL0     H92205   0.374   6.397   4.314  1.3798 -1.3074  0.9786
  684MOL0     O92206   2.164   2.806   8.085  0.3299  0.0784 -0.3174
  684MOL0     C92207   2.135   2.789   8.204 -0.3884 -0.2442  0.5027
  684MOL0     O92208   2.008   2.783   8.257  0.7753 -0.3347 -0.2404
  684MOL0     C92209   1.902   2.763   8.170  0.5760 -0.4919  0.1509
  684MOL0     C92210   1.891   2.641   8.106  0.2454 -0.3623 -0.0103
  684MOL0     C92211   1.773   2.617   8.035  1.5324  0.3131 -0.1977
  684MOL0     C92212   1.674   2.708   8.027  0.4353 -0.6110  1.1218
  684MOL0     O92213   1.565   2.664   7.959  0.0064  0.9489 -0.5978
  684MOL0     C92214   1.456   2.754   7.924 -0.7078 -0.1007  0.3488
  684MOL0     C92215   1.333   2.679   7.882  0.0895 -0.4041  1.3706
  684MOL0     C92216   1.357   2.577   7.768  0.1923 -0.5942  0.2211
  684MOL0     C92217   1.225   2.527   7.710  0.0074  0.8154  0.2545
  684MOL0     C92218   1.230   2.410   7.616 -1.1444  0.5526 -0.3747
  684MOL0     C92219   1.316   2.437   7.490  0.1712  0.6713 -1.0353
  684MOL0     C92220   1.323   2.319   7.391 -0.9371  0.9181 -0.4698
  684MOL0     C92221   1.189   2.279   7.326 -0.2467  0.2909  0.7891
  684MOL0     N92222   1.207   2.178   7.226  0.4038 -0.2666  0.0656
  684MOL0     C92223   1.202   2.038   7.235  0.9891  0.5335  0.5242
  684MOL0     C92224   1.184   2.005   7.103 -0.5609 -0.2871 -0.1526
  684MOL0     C92225   1.163   1.869   7.054  0.7785  0.0912 -0.8730
  684MOL0     C92226   1.013   1.848   7.035  0.1736  0.2797  0.6655
  684MOL0     C92227   0.985   1.691   7.024  0.3363  0.7569  0.9843
  684MOL0     C92228   1.059   1.616   6.911 -0.1476 -0.2833  0.7834
  684MOL0     O92229   1.027   1.675   6.784 -0.9170 -0.5711 -1.3236
  684MOL0     C92230   0.896   1.660   6.755  0.1592  0.7274  0.8876
  684MOL0     C92231   0.823   1.766   6.699  0.1729  0.0867  0.8177
  684MOL0     C92232   0.693   1.748   6.652  0.0980  0.2986 -0.0894
  684MOL0     C92233   0.632   1.622   6.653 -0.3361  0.1922 -0.2495
  684MOL0     C92234   0.508   1.601   6.580 -0.0271  0.3308  0.5245
  684MOL0     O92235   0.516   1.478   6.508 -0.9880 -0.3519 -0.2587
  684MOL0     C92236   0.417   1.441   6.427  0.5085 -0.0917 -0.2355
  684MOL0     C92237   0.461   1.378   6.307 -0.2224 -0.2630  0.1569
  684MOL0     C92238   0.366   1.325   6.221 -1.0683 -0.1604  0.3896
  684MOL0     C92239   0.225   1.323   6.253  0.2904  1.2516 -0.1275
  684MOL0     O92240   0.131   1.253   6.187 -0.0533 -0.5878 -0.3771
  684MOL0     C92241   0.182   1.155   6.092  0.0651 -0.3519 -0.0258
  684MOL0     C92242   0.084   1.038   6.079 -1.3482 -0.7486 -0.3097
  684MOL0     C92243   0.138   0.938   5.982 -0.4531  0.0176  0.2983
  684MOL0     C92244   0.078   0.791   5.998 -0.5103  0.5560 -1.2904
  684MOL0     C92245  -0.065   0.791   5.964 -0.3244 -0.3335  0.8938
  684MOL0     C92246  -0.150   0.662   5.999  0.3299 -1.0078 -0.5931
  684MOL0     C92247  -0.275   0.662   5.908  0.3112 -0.0871 -0.2153
  684MOL0     C92248  -0.240   0.596   5.767 -0.7417 -0.8989 -0.0123
  684MOL0    Cl92249  -0.272   0.420   5.778  0.0395 -0.0203 -0.2276
  684MOL0     C92250   0.192   1.384   6.377  0.0589 -1.3073 -0.0494
  684MOL0     C92251   0.283   1.449   6.463 -0.3505 -0.2896  0.4891
  684MOL0     O92252   0.418   1.683   6.577  0.3498 -0.0702  0.0824
  684MOL0     C92253   0.707   1.512   6.698  0.0906 -1.1308  0.4075
  684MOL0     C92254   0.836   1.532   6.756  0.6055 -0.0803 -0.1668
  684MOL0     N92255   1.225   2.104   7.019  0.3216 -0.1961 -0.3374
  684MOL0     N92256   1.235   2.211   7.094  0.7445  0.1081  0.8356
  684MOL0     C92257   1.689   2.833   8.089 -0.3927 -0.4707 -0.8013
  684MOL0     C92258   1.797   2.857   8.162 -0.4331 -0.2408  1.0667
  684MOL0     C92259   2.239   2.798   8.319  0.0830 -0.3183  0.7137
  684MOL0     C92260   2.199   2.782   8.456  0.6995 -0.4353 -0.2806
  684MOL0     C92261   2.296   2.791   8.554 -0.3594 -0.3843 -1.1909
  684MOL0     C92262   2.428   2.827   8.531 -0.0464 -0.4971 -1.1806
  684MOL0     O92263   2.501   2.844   8.650  0.7285 -0.0003 -0.4159
  684MOL0     C92264   2.641   2.865   8.629  0.4147  0.3065  0.1952
  684MOL0     C92265   2.699   2.898   8.768 -0.0916 -1.3521  0.2804
  684MOL0     C92266   2.727   2.780   8.851 -0.3270  0.5539 -0.6715
  684MOL0     C92267   2.785   2.811   8.989 -0.2579 -0.7169  0.6022
  684MOL0     C92268   2.754   2.710   9.085  0.2875  0.2871 -0.2616
  684MOL0     C92269   2.717   2.642   9.179 -0.4183  0.4457  0.2105
  684MOL0     C92270   2.470   2.835   8.404 -0.5220  0.1637  0.0312
  684MOL0     C92271   2.382   2.804   8.298  0.4531  0.1095 -0.1510
  684MOL0     C92272   2.438   2.803   8.157  0.0991  0.1047  0.0185
  684MOL0     H92273   1.972   2.571   8.126  0.5498  1.0002  5.1304
  684MOL0     H92274   1.761   2.519   7.989  1.5167 -0.4182  1.2985
  684MOL0     H92275   1.435   2.827   8.002  2.4320 -0.4162  1.6599
  684MOL0     H92276   1.491   2.810   7.837 -3.4361 -0.2536 -0.9556
  684MOL0     H92277   1.257   2.753   7.855  2.0631  1.0589 -0.4222
  684MOL0     H92278   1.293   2.625   7.969 -0.2551  0.5417  1.8131
  684MOL0     H92279   1.405   2.496   7.823 -2.3854 -2.3863  0.0317
  684MOL0     H92280   1.422   2.622   7.692  1.6432 -4.2096 -0.8880
  684MOL0     H92281   1.159   2.485   7.787  0.5252 -4.1660 -1.6687
  684MOL0     H92282   1.171   2.611   7.665 -1.0790  0.0817  0.1489
  684MOL0     H92283   1.284   2.334   7.674  0.5956  2.6489  0.9095
  684MOL0     H92284   1.130   2.368   7.599  0.0770 -3.0626  0.5482
  684MOL0     H92285   1.270   2.522   7.439  0.5873  0.7882 -1.2154
  684MOL0     H92286   1.414   2.465   7.530 -0.3794  4.8389 -2.1244
  684MOL0     H92287   1.367   2.234   7.443  1.0217 -0.0721 -3.4728
  684MOL0     H92288   1.396   2.349   7.316 -3.4850  1.4376 -2.9019
  684MOL0     H92289   1.117   2.232   7.394 -1.2426 -2.2306 -1.7876
  684MOL0     H92290   1.143   2.367   7.281 -0.3652  0.0315  0.3938
  684MOL0     H92291   1.209   1.977   7.324  2.9224  1.3638  0.9901
  684MOL0     H92292   1.215   1.855   6.960  3.6838  1.0801  0.4794
  684MOL0     H92293   1.202   1.795   7.124 -1.2080 -1.2850 -1.1314
  684MOL0     H92294   0.954   1.887   7.118  0.7656  0.7328  0.8828
  684MOL0     H92295   0.968   1.902   6.951 -0.7304  2.0467  2.2302
  684MOL0     H92296   0.877   1.690   7.009  0.7444  0.5233 -2.8528
  684MOL0     H92297   1.016   1.633   7.112  1.0222 -0.5033 -0.0394
  684MOL0     H92298   1.023   1.514   6.927  1.2176 -0.7174  1.2105
  684MOL0     H92299   1.165   1.623   6.935 -0.0307 -1.0444  0.5246
  684MOL0     H92300   0.881   1.858   6.699 -0.1813  0.3927  3.2622
  684MOL0     H92301   0.642   1.831   6.603 -2.9676 -1.8463 -0.8240
  684MOL0     H92302   0.568   1.369   6.291 -0.2145 -3.1575  1.2339
  684MOL0     H92303   0.404   1.276   6.132 -1.3997 -2.2610  1.3558
  684MOL0     H92304   0.185   1.214   6.000  2.4619  1.5708  1.1723
  684MOL0     H92305   0.281   1.120   6.122  1.3479  2.5145 -0.6241
  684MOL0     H92306   0.057   0.991   6.174  0.5277 -0.5756  0.3321
  684MOL0     H92307  -0.010   1.076   6.037 -2.3018 -0.4447  1.9297
  684MOL0     H92308   0.119   0.973   5.880  3.1460 -1.2683 -0.9720
  684MOL0     H92309   0.247   0.935   5.992 -0.4705  0.1937  0.5417
  684MOL0     H92310   0.085   0.757   6.102  1.2491  4.1548 -0.0850
  684MOL0     H92311   0.128   0.716   5.935  0.5381 -0.6624  0.8725
  684MOL0     H92312  -0.077   0.796   5.855  1.4747 -2.0439  0.5718
  684MOL0     H92313  -0.115   0.878   6.007  2.0499  0.3081  2.4900
  684MOL0     H92314  -0.090   0.571   5.994  1.2088 -0.8637  3.4889
  684MOL0     H92315  -0.179   0.667   6.105  0.1676 -1.8779 -0.5885
  684MOL0     H92316  -0.308   0.764   5.886  0.6311 -0.1140 -0.8519
  684MOL0     H92317  -0.352   0.598   5.951  2.3832 -2.0276  0.7976
  684MOL0     H92318  -0.303   0.648   5.695  1.0481  3.1075  1.0144
  684MOL0     H92319  -0.138   0.613   5.730 -1.0628 -0.4195 -0.6926
  684MOL0     H92320   0.086   1.384   6.403  0.0002 -4.4069  0.0872
  684MOL0     H92321   0.248   1.494   6.555  0.9173  2.8921 -0.4561
  684MOL0     H92322   0.658   1.415   6.700  1.2290 -1.7376 -0.0040
  684MOL0     H92323   0.893   1.446   6.790 -0.5133  0.4792  3.5789
  684MOL0     H92324   1.618   2.915   8.086 -0.1352 -0.2690 -2.0807
  684MOL0     H92325   1.812   2.958   8.199 -5.1722  2.4013 -3.0514
  684MOL0     H92326   2.098   2.758   8.484  0.9959 -1.0341  0.3004
  684MOL0     H92327   2.266   2.774   8.657  1.4990  0.8790 -0.3819
  684MOL0     H92328   2.670   2.947   8.561  1.7774  0.1819  0.5849
  684MOL0     H92329   2.680   2.771   8.591 -1.5464 -0.0567 -1.0673
  684MOL0     H92330   2.641   2.975   8.819  1.7497  0.3046  0.0293
  684MOL0     H92331   2.793   2.949   8.745  0.1125 -1.0856  1.6437
  684MOL0     H92332   2.795   2.707   8.806 -0.0534 -0.4509  1.2363
  684MOL0     H92333   2.626   2.738   8.859 -0.2145 -0.3035 -2.9563
  684MOL0     H92334   2.893   2.808   8.974 -0.3727 -0.2424 -0.3959
  684MOL0     H92335   2.741   2.903   9.028 -1.4911 -1.8515  2.0324
  684MOL0     H92336   2.698   2.570   9.257 -3.9468  1.3157  0.3334
  684MOL0     H92337   2.571   2.861   8.374  0.0925  0.7450  2.4244
  684MOL0     H92338   2.543   2.777   8.171  0.0411 -0.0463  0.1686
  684MOL0     H92339   2.393   2.724   8.096 -0.4915 -0.7381  1.5065
  684MOL0     H92340   2.426   2.901   8.110 -0.8449  1.6449  3.1963
  685MOL0     O92341   5.090   9.906   6.613  0.2478  0.5309  0.0088
  685MOL0     C92342   4.975   9.908   6.579  0.7886 -0.1425 -0.6111
  685MOL0     O92343   4.932   9.954   6.461 -0.0953  0.0487  0.0536
  685MOL0     C92344   5.026   9.979   6.358 -0.3756 -0.4613 -0.2744
  685MOL0     C92345   5.129   9.904   6.310  0.0080  0.0178 -0.5587
  685MOL0     C92346   5.197   9.929   6.190  0.7957 -0.5408  0.0287
  685MOL0     C92347   5.159  10.038   6.112 -0.3379  1.4148  0.3094
  685MOL0     O92348   5.226  10.084   6.000 -0.1917 -0.2385 -0.0563
  685MOL0     C92349   5.226   9.992   5.882  0.0238 -0.5575  0.3235
  685MOL0     C92350   5.210  10.072   5.757 -0.2685  0.7263  0.4474
  685MOL0     C92351   5.066  10.132   5.734  0.5596  0.5833  0.0735
  685MOL0     C92352   5.017  10.151   5.584  0.3749  0.5995 -0.3075
  685MOL0     C92353   4.930  10.284   5.585  0.8047 -0.4461 -0.0595
  685MOL0     C92354   4.860  10.323   5.446  1.2846  0.0570 -0.0286
  685MOL0     C92355   4.763  10.447   5.440 -0.8863  0.5942 -0.4491
  685MOL0     C92356   4.859  10.568   5.454  0.4483 -0.7401  0.0986
  685MOL0     N92357   4.773  10.689   5.445  0.7593  0.2423  1.1006
  685MOL0     C92358   4.668  10.713   5.358 -0.4053  1.2678 -0.7139
  685MOL0     C92359   4.651  10.847   5.362 -0.9557 -0.9491  0.7966
  685MOL0     C92360   4.553  10.928   5.276 -0.2409 -0.2154  0.1705
  685MOL0     C92361   4.636  11.016   5.177  0.8506  1.2123  0.0577
  685MOL0     C92362   4.559  11.133   5.120  0.3729  0.9006 -0.4495
  685MOL0     C92363   4.620  11.183   4.985  0.0999 -0.3603  0.1585
  685MOL0     O92364   4.633  11.095   4.875  0.0593  0.8957  0.6398
  685MOL0     C92365   4.518  11.025   4.822 -0.1825 -0.6604 -0.6292
  685MOL0     C92366   4.387  11.056   4.857 -0.4321 -0.0136  0.5675
  685MOL0     C92367   4.282  10.991   4.795  0.9567  0.4070  0.3975
  685MOL0     C92368   4.305  10.886   4.705  1.2648 -0.0854 -0.1706
  685MOL0     C92369   4.187  10.825   4.635  0.2001 -0.2795 -0.5876
  685MOL0     O92370   4.069  10.903   4.637 -0.5753  0.0188 -0.3292
  685MOL0     C92371   3.941  10.861   4.598 -0.6742 -0.6657 -0.0950
  685MOL0     C92372   3.856  10.976   4.580  0.0610  0.2521  0.2365
  685MOL0     C92373   3.721  10.948   4.563  0.2321 -0.3987 -0.1311
  685MOL0     C92374   3.673  10.816   4.563  0.5885  0.0535  0.0256
  685MOL0     O92375   3.537  10.784   4.550  0.0140  0.2028  0.1383
  685MOL0     C92376   3.509  10.713   4.430  0.1474  0.4829 -0.0655
  685MOL0     C92377   3.391  10.620   4.459 -0.2414  0.1743 -0.4315
  685MOL0     C92378   3.385  10.504   4.349  0.4786  0.9452 -0.5026
  685MOL0     C92379   3.450  10.381   4.400 -0.2464 -0.0218  0.5853
  685MOL0     C92380   3.473  10.285   4.293  0.6724 -0.2035  0.3163
  685MOL0     C92381   3.469  10.136   4.329 -0.3883 -0.5108 -0.1729
  685MOL0     C92382   3.319  10.081   4.315 -0.3175  0.3154 -0.8906
  685MOL0     C92383   3.308   9.935   4.317  0.2075  0.5467  0.4367
  685MOL0    Cl92384   3.423   9.868   4.207 -0.2487 -0.7174  0.1683
  685MOL0     C92385   3.768  10.706   4.577 -0.3995  1.0800  0.3983
  685MOL0     C92386   3.904  10.728   4.594 -0.0104 -0.4158  0.7477
  685MOL0     O92387   4.199  10.724   4.566 -0.6504 -0.0246 -0.1251
  685MOL0     C92388   4.437  10.854   4.672 -0.0541  0.8682  0.3550
  685MOL0     C92389   4.547  10.925   4.729  0.1423 -1.1702 -0.0827
  685MOL0     N92390   4.742  10.894   5.464  0.2855 -0.2475  0.1146
  685MOL0     N92391   4.812  10.795   5.504  0.0374  0.1356 -0.4993
  685MOL0     C92392   5.054  10.116   6.155  0.2979  0.1608  0.1325
  685MOL0     C92393   4.989  10.089   6.277 -0.2565 -0.7716 -0.2907
  685MOL0     C92394   4.873   9.845   6.662 -0.1243 -0.1792 -0.2238
  685MOL0     C92395   4.744   9.833   6.613  0.5007  0.5591 -0.1014
  685MOL0     C92396   4.636   9.780   6.684  0.1600  0.7778  0.8631
  685MOL0     C92397   4.658   9.747   6.815 -0.3544 -0.3301  0.2921
  685MOL0     O92398   4.560   9.706   6.897 -0.1628  0.4134 -0.1043
  685MOL0     C92399   4.476   9.815   6.943  0.4839  0.6740 -0.7019
  685MOL0     C92400   4.331   9.764   6.936  1.0052 -1.1090  0.3823
  685MOL0     C92401   4.231   9.884   6.956  0.3790  0.5731  0.4105
  685MOL0     C92402   4.155   9.903   6.831 -0.4104  0.2689 -0.3198
  685MOL0     C92403   4.034   9.824   6.817 -0.0003 -0.2336  0.2082
  685MOL0     C92404   3.934   9.764   6.783  0.1716  0.0485 -0.0223
  685MOL0     C92405   4.786   9.754   6.864 -0.2708 -0.1362  0.1137
  685MOL0     C92406   4.891   9.815   6.795  0.3436  0.0353 -0.6731
  685MOL0     C92407   5.019   9.825   6.874 -0.7921  0.7087  1.2056
  685MOL0     H92408   5.155   9.810   6.359 -1.4660 -1.0051 -1.6355
  685MOL0     H92409   5.288   9.871   6.177  0.0357 -1.7594 -0.0002
  685MOL0     H92410   5.325   9.949   5.865  0.9359  2.2038 -2.2064
  685MOL0     H92411   5.148   9.916   5.894 -0.4558 -0.0980  0.1425
  685MOL0     H92412   5.229   9.985   5.694  1.1026 -0.8941  2.9429
  685MOL0     H92413   5.289  10.147   5.750  0.7704 -0.4446 -5.3129
  685MOL0     H92414   5.037  10.216   5.798 -0.4736  0.6979 -0.5089
  685MOL0     H92415   4.994  10.065   5.780  1.4918  0.9424  2.1688
  685MOL0     H92416   5.101  10.158   5.515 -0.3552  0.7896 -1.1900
  685MOL0     H92417   4.950  10.072   5.550  0.3147  0.7545 -0.5476
  685MOL0     H92418   4.862  10.272   5.670  1.6830 -3.1223  0.3499
  685MOL0     H92419   5.002  10.364   5.607 -0.0462  0.7323 -1.3438
  685MOL0     H92420   4.938  10.339   5.371  0.7825 -1.2322 -0.8675
  685MOL0     H92421   4.801  10.234   5.424  2.3873 -1.0031  1.1146
  685MOL0     H92422   4.691  10.443   5.522 -0.4936  2.4933  0.0386
  685MOL0     H92423   4.717  10.447   5.341 -2.9734  1.8031  0.4583
  685MOL0     H92424   4.908  10.565   5.552  0.2696  2.4500  0.3823
  685MOL0     H92425   4.928  10.564   5.369 -1.1084 -0.4776 -1.2254
  685MOL0     H92426   4.610  10.638   5.304 -0.0278  0.5370 -0.1367
  685MOL0     H92427   4.476  10.870   5.225  0.9903 -0.6586 -1.2778
  685MOL0     H92428   4.504  10.989   5.352  1.2047 -0.9162  1.7324
  685MOL0     H92429   4.726  11.052   5.227 -0.1071 -2.0090  4.7593
  685MOL0     H92430   4.650  10.955   5.087  1.1834  1.4794 -0.0735
  685MOL0     H92431   4.569  11.209   5.198  1.0071 -0.7371  1.1338
  685MOL0     H92432   4.451  11.123   5.109  0.2197  3.9578 -3.2745
  685MOL0     H92433   4.722  11.216   5.007  0.6933 -0.7263 -1.8642
  685MOL0     H92434   4.565  11.272   4.953 -0.7152 -1.3199 -1.2168
  685MOL0     H92435   4.358  11.128   4.932  0.2951 -0.7632  1.5965
  685MOL0     H92436   4.179  11.014   4.820  0.3430 -0.6633 -0.9749
  685MOL0     H92437   3.905  11.068   4.612  0.5255 -0.0452  0.3741
  685MOL0     H92438   3.644  11.026   4.560 -1.4123 -1.9786 -1.5162
  685MOL0     H92439   3.474  10.780   4.350  3.4412  0.3507 -1.7876
  685MOL0     H92440   3.584  10.646   4.387  0.6365  0.5084  0.7352
  685MOL0     H92441   3.400  10.575   4.558 -3.4451  1.4741  0.5654
  685MOL0     H92442   3.296  10.672   4.451  0.5636  1.9353  0.9103
  685MOL0     H92443   3.280  10.480   4.328  0.8047 -0.2215 -0.8262
  685MOL0     H92444   3.421  10.540   4.253  0.4386 -0.1247 -0.9295
  685MOL0     H92445   3.374  10.335   4.464 -0.2249 -2.0868 -0.7775
  685MOL0     H92446   3.543  10.404   4.453  0.4376 -0.5778 -0.3452
  685MOL0     H92447   3.571  10.311   4.251  0.7866  0.0835  0.7525
  685MOL0     H92448   3.399  10.312   4.217 -1.3730 -3.5696  0.9119
  685MOL0     H92449   3.528  10.095   4.247  0.2666  1.0948 -0.5457
  685MOL0     H92450   3.516  10.132   4.428 -0.0987  2.6155 -0.0924
  685MOL0     H92451   3.280  10.116   4.220 -0.1899  0.0319 -1.0501
  685MOL0     H92452   3.268  10.113   4.406  4.0417  1.4292  1.4868
  685MOL0     H92453   3.314   9.887   4.415 -0.3019  0.0566  0.2369
  685MOL0     H92454   3.206   9.916   4.281  0.3774  4.7509 -3.1614
  685MOL0     H92455   3.727  10.606   4.564  1.6315  0.4786 -2.2046
  685MOL0     H92456   3.966  10.641   4.610 -0.8843 -1.1957  0.0297
  685MOL0     H92457   4.467  10.776   4.603  0.9053 -0.2623  1.9888
  685MOL0     H92458   4.653  10.925   4.703  0.7371  3.6278  1.4373
  685MOL0     H92459   5.015  10.202   6.102 -4.2656 -1.8967 -0.3370
  685MOL0     H92460   4.908  10.148   6.319 -0.4144 -2.1218  1.3869
  685MOL0     H92461   4.726   9.865   6.511 -1.6718 -2.3333 -0.7567
  685MOL0     H92462   4.541   9.790   6.631 -0.5287  1.8685  2.2171
  685MOL0     H92463   4.479   9.898   6.872  3.3293  0.4942 -0.8906
  685MOL0     H92464   4.506   9.852   7.041 -2.0694 -0.2253  0.5063
  685MOL0     H92465   4.311   9.693   7.017 -2.2017 -1.9196 -0.9897
  685MOL0     H92466   4.311   9.713   6.842 -1.4796  2.0248 -0.9538
  685MOL0     H92467   4.278   9.978   6.985  0.6372  0.2201  1.1635
  685MOL0     H92468   4.155   9.846   7.025 -0.3901 -2.9739 -2.0866
  685MOL0     H92469   4.130  10.009   6.821  0.1667  0.4768  0.4387
  685MOL0     H92470   4.222   9.878   6.747  2.3774 -0.5337  1.9931
  685MOL0     H92471   3.843   9.712   6.763 -0.0928 -0.2061  1.6952
  685MOL0     H92472   4.787   9.720   6.967 -3.4905 -0.1636  0.2463
  685MOL0     H92473   4.994   9.809   6.979 -0.8085  2.4266  1.4888
  685MOL0     H92474   5.090   9.750   6.838 -0.5536 -0.4168  3.7930
  685MOL0     H92475   5.071   9.920   6.858  0.2522  0.0729  0.6891
  686MOL0     O92476   6.665   3.495   4.003 -0.5199  0.7546  0.1575
  686MOL0     C92477   6.744   3.585   3.988  0.3664  1.1317 -0.2364
  686MOL0     O92478   6.828   3.627   4.082 -0.0777  0.0191  0.0507
  686MOL0     C92479   6.839   3.552   4.193  0.4572 -1.0317 -0.5923
  686MOL0     C92480   6.791   3.603   4.320 -1.2928  0.2084  0.4604
  686MOL0     C92481   6.814   3.525   4.435  0.5919  0.0040  0.8761
  686MOL0     C92482   6.873   3.393   4.432 -0.6180  0.5787 -0.1959
  686MOL0     O92483   6.892   3.320   4.548  0.9563 -0.9018 -0.6915
  686MOL0     C92484   6.941   3.190   4.547  0.2578  0.1689 -0.7404
  686MOL0     C92485   6.833   3.084   4.518  0.1696 -0.2285  0.4418
  686MOL0     C92486   6.882   2.933   4.516  0.1674 -0.2122  0.2763
  686MOL0     C92487   6.808   2.855   4.406 -0.0722 -0.5375  0.3206
  686MOL0     C92488   6.885   2.723   4.394 -0.6754  0.5403  0.2329
  686MOL0     C92489   6.816   2.613   4.312  0.3982 -0.0347  0.8766
  686MOL0     C92490   6.926   2.529   4.231 -0.5843 -0.6608 -0.2177
  686MOL0     C92491   7.000   2.447   4.339 -0.1580  0.4408 -0.5753
  686MOL0     N92492   7.108   2.377   4.288  0.3471  0.5443 -0.1427
  686MOL0     C92493   7.228   2.436   4.256  0.5049 -0.1574  0.3856
  686MOL0     C92494   7.306   2.331   4.228  0.9378 -0.1031  0.7233
  686MOL0     C92495   7.450   2.339   4.182  0.1712  0.6242  0.7549
  686MOL0     C92496   7.445   2.393   4.032 -0.7242  0.3496  0.3577
  686MOL0     C92497   7.406   2.275   3.927  0.5629  0.5170 -1.1485
  686MOL0     C92498   7.415   2.305   3.777  0.6344 -0.4580  0.6382
  686MOL0     O92499   7.350   2.431   3.772 -0.2053 -0.0990 -0.5336
  686MOL0     C92500   7.316   2.469   3.645  1.2549 -0.2442 -0.8019
  686MOL0     C92501   7.369   2.427   3.520  0.2873 -0.1225 -0.2688
  686MOL0     C92502   7.320   2.482   3.400 -0.7958 -0.3958  0.4120
  686MOL0     C92503   7.205   2.566   3.395  0.0978 -0.7308  0.0507
  686MOL0     C92504   7.149   2.614   3.274  0.2739 -0.2439 -0.1585
  686MOL0     O92505   7.207   2.578   3.160  0.1126 -0.1881  0.6945
  686MOL0     C92506   7.169   2.621   3.028  0.3434  0.5125  0.1189
  686MOL0     C92507   7.193   2.523   2.928  0.4703  0.5983  0.0631
  686MOL0     C92508   7.162   2.547   2.794  0.3901 -0.2379 -0.2689
  686MOL0     C92509   7.093   2.663   2.762  0.8314  0.8749 -0.3365
  686MOL0     O92510   7.038   2.685   2.636 -0.9054 -0.2934  0.1517
  686MOL0     C92511   7.031   2.596   2.530 -0.2517  1.2758 -0.4214
  686MOL0     C92512   6.909   2.630   2.434  0.0422  0.1113 -0.1424
  686MOL0     C92513   6.779   2.586   2.506  0.0447  1.0273 -0.6357
  686MOL0     C92514   6.686   2.535   2.391 -0.2853 -0.3315  0.5130
  686MOL0     C92515   6.538   2.552   2.436  0.5571  0.0511 -0.8561
  686MOL0     C92516   6.422   2.519   2.334 -1.3691 -0.1789  0.2893
  686MOL0     C92517   6.462   2.391   2.251 -0.1027 -1.0123 -0.0202
  686MOL0     C92518   6.478   2.270   2.337 -0.2335  0.3837  0.0957
  686MOL0    Cl92519   6.534   2.127   2.247 -0.6090  0.4678  0.3287
  686MOL0     C92520   7.059   2.754   2.864  0.6156 -0.6736  0.4029
  686MOL0     C92521   7.104   2.738   2.990 -0.0617  0.8639 -0.5572
  686MOL0     O92522   7.030   2.648   3.282  0.8619  0.1230  0.0182
  686MOL0     C92523   7.141   2.585   3.522 -0.4643  0.2743 -0.2840
  686MOL0     C92524   7.201   2.546   3.643 -0.0969  0.4761  0.4867
  686MOL0     N92525   7.239   2.214   4.247  0.4722  1.4426  0.1727
  686MOL0     N92526   7.109   2.240   4.273 -0.2898  0.0969  0.1893
  686MOL0     C92527   6.911   3.348   4.303  0.4635 -0.6438 -0.0029
  686MOL0     C92528   6.901   3.431   4.190  0.7861 -0.4131 -0.0026
  686MOL0     C92529   6.740   3.651   3.850  0.7457 -0.3267  0.4343
  686MOL0     C92530   6.822   3.756   3.825 -0.6817 -0.1595 -0.0348
  686MOL0     C92531   6.814   3.839   3.710 -0.1970  0.1513 -0.5895
  686MOL0     C92532   6.732   3.797   3.607 -0.7162 -0.0265 -0.0315
  686MOL0     O92533   6.748   3.855   3.478 -0.1333  0.2191  0.0266
  686MOL0     C92534   6.842   3.782   3.394 -0.3226  1.0510 -1.2043
  686MOL0     C92535   6.864   3.866   3.266 -0.6999  0.2509 -0.5676
  686MOL0     C92536   6.958   3.982   3.291  0.5037  0.3518 -0.7751
  686MOL0     C92537   7.001   4.053   3.164 -0.2861  0.2262  0.0111
  686MOL0     C92538   7.074   3.961   3.076  0.3484  0.1585 -0.7218
  686MOL0     C92539   7.133   3.860   3.033  0.0571 -0.6689  0.4700
  686MOL0     C92540   6.652   3.683   3.622 -0.3925  1.4980  0.6500
  686MOL0     C92541   6.650   3.603   3.737 -0.2241 -0.3366 -0.2460
  686MOL0     C92542   6.552   3.488   3.740  0.2278  1.2019  1.1531
  686MOL0     H92543   6.746   3.702   4.328  0.3900  0.9283  1.5618
  686MOL0     H92544   6.797   3.562   4.535 -1.5055  0.9231  0.2374
  686MOL0     H92545   7.012   3.172   4.466 -0.1560  1.0105 -1.3031
  686MOL0     H92546   6.981   3.170   4.646 -2.6371  0.1423  0.5241
  686MOL0     H92547   6.793   3.124   4.424 -3.9130  0.0566  2.1296
  686MOL0     H92548   6.752   3.096   4.589 -0.1027  3.0343 -0.2352
  686MOL0     H92549   6.869   2.893   4.617 -3.0738 -3.7094 -1.2635
  686MOL0     H92550   6.989   2.930   4.492  1.5497  1.8367  5.0235
  686MOL0     H92551   6.701   2.833   4.418 -0.8035  1.3093 -2.1143
  686MOL0     H92552   6.808   2.895   4.305 -2.5641 -2.9079 -0.7239
  686MOL0     H92553   6.978   2.744   4.341 -1.5721  0.2652 -1.5365
  686MOL0     H92554   6.922   2.697   4.493 -0.0505  4.3514  1.1697
  686MOL0     H92555   6.762   2.543   4.376  1.4706  0.5894  2.5344
  686MOL0     H92556   6.733   2.660   4.258  0.0788  2.7965  3.5457
  686MOL0     H92557   6.987   2.590   4.163 -1.2695 -0.7847 -0.9557
  686MOL0     H92558   6.886   2.444   4.176 -2.1736 -2.5758  3.5291
  686MOL0     H92559   7.042   2.519   4.410  3.6675 -1.1417 -0.9841
  686MOL0     H92560   6.922   2.383   4.382 -0.4436 -2.7141 -5.0351
  686MOL0     H92561   7.250   2.542   4.253 -1.3913  0.2636 -0.6334
  686MOL0     H92562   7.510   2.412   4.237  0.9006  2.3281 -2.1276
  686MOL0     H92563   7.499   2.242   4.190  1.3672  1.2954  2.1134
  686MOL0     H92564   7.381   2.481   4.034 -0.9726  0.1881 -0.1563
  686MOL0     H92565   7.539   2.441   4.004  0.3217 -1.4808  0.5137
  686MOL0     H92566   7.304   2.245   3.949  0.0066  4.0552  2.4018
  686MOL0     H92567   7.469   2.188   3.947 -0.9525 -0.5523 -0.8820
  686MOL0     H92568   7.362   2.224   3.727 -3.4319 -0.1579  3.9049
  686MOL0     H92569   7.524   2.306   3.763  0.7445 -0.7804  1.3917
  686MOL0     H92570   7.441   2.346   3.524  1.6149  0.9731 -1.2588
  686MOL0     H92571   7.373   2.453   3.310  2.7678 -1.7158  2.7173
  686MOL0     H92572   7.243   2.432   2.959 -0.1018  0.6316  1.1382
  686MOL0     H92573   7.186   2.472   2.719 -3.0932 -1.2871 -0.5167
  686MOL0     H92574   7.127   2.611   2.479  0.7509  1.4962  1.4163
  686MOL0     H92575   7.025   2.490   2.556 -1.8735  0.5367 -3.3861
  686MOL0     H92576   6.902   2.735   2.404  1.8038 -0.0825 -1.4437
  686MOL0     H92577   6.933   2.581   2.340  2.5759 -1.5322  1.2484
  686MOL0     H92578   6.805   2.495   2.561  2.9486  1.4383 -1.1706
  686MOL0     H92579   6.743   2.671   2.564 -1.6184  0.0997 -0.2649
  686MOL0     H92580   6.709   2.431   2.371  4.2989  0.4081  0.9271
  686MOL0     H92581   6.716   2.585   2.298  0.2670 -1.4903  0.0560
  686MOL0     H92582   6.526   2.655   2.470 -2.1964 -0.8840  1.4302
  686MOL0     H92583   6.526   2.501   2.532 -0.7164  0.8125 -0.5820
  686MOL0     H92584   6.328   2.513   2.390 -1.3623  1.0786  0.4574
  686MOL0     H92585   6.411   2.603   2.266  0.9038 -1.1168 -1.3526
  686MOL0     H92586   6.549   2.424   2.194 -0.8010  1.5721  0.2604
  686MOL0     H92587   6.375   2.377   2.186 -2.4118 -0.6896  2.7921
  686MOL0     H92588   6.553   2.276   2.417  0.1621  0.8622 -0.3065
  686MOL0     H92589   6.382   2.239   2.378 -1.8299  1.3555 -2.6352
  686MOL0     H92590   7.018   2.849   2.832 -0.0678 -0.5646  1.5608
  686MOL0     H92591   7.077   2.810   3.067 -3.1658  0.5704 -1.2449
  686MOL0     H92592   7.055   2.650   3.531 -0.6274 -0.1202  1.2162
  686MOL0     H92593   7.146   2.563   3.735 -1.8352  1.8154 -0.7400
  686MOL0     H92594   6.955   3.251   4.280  1.1232 -0.5942  0.9871
  686MOL0     H92595   6.939   3.409   4.090 -0.9528  1.3864 -1.1277
  686MOL0     H92596   6.896   3.797   3.894 -0.8851 -2.3267  1.5871
  686MOL0     H92597   6.863   3.935   3.700  0.0665  0.3576  1.9740
  686MOL0     H92598   6.799   3.685   3.366  0.6829 -0.4358  1.9675
  686MOL0     H92599   6.928   3.766   3.460 -0.5687 -1.1982 -1.3219
  686MOL0     H92600   6.770   3.908   3.229 -1.5227 -0.6199  0.4651
  686MOL0     H92601   6.915   3.808   3.188 -0.7487  1.2906 -1.3948
  686MOL0     H92602   7.046   3.945   3.346  0.3611  2.3541  0.9661
  686MOL0     H92603   6.914   4.054   3.361 -0.8100 -0.3853 -0.8087
  686MOL0     H92604   6.908   4.085   3.115 -0.1374  1.2890  0.3977
  686MOL0     H92605   7.072   4.131   3.189  1.8558 -2.0457  1.4527
  686MOL0     H92606   7.169   3.773   2.982  1.9306  0.0725  0.4821
  686MOL0     H92607   6.596   3.658   3.533 -0.1865 -0.0482  0.9340
  686MOL0     H92608   6.539   3.443   3.641  2.2321 -0.5473  1.6097
  686MOL0     H92609   6.590   3.407   3.803 -0.8891 -0.9751 -0.8330
  686MOL0     H92610   6.451   3.513   3.775 -0.5161 -0.8057  0.5965
  687MOL0     O92611   9.771   6.113   6.196  0.1658 -0.7400 -0.7831
  687MOL0     C92612   9.652   6.087   6.213 -0.0667 -0.0195 -0.0431
  687MOL0     O92613   9.569   6.043   6.110 -0.3519 -0.2955 -0.2817
  687MOL0     C92614   9.625   6.045   5.987 -0.2169 -0.3596  0.0490
  687MOL0     C92615   9.656   5.925   5.937  0.1341  0.0953 -0.6384
  687MOL0     C92616   9.731   5.903   5.825 -0.1093 -0.4924 -0.7583
  687MOL0     C92617   9.786   6.006   5.753 -0.3129 -0.6082  0.3564
  687MOL0     O92618   9.857   5.990   5.634 -0.0886 -0.1627 -0.5119
  687MOL0     C92619   9.902   5.851   5.606 -0.4155 -0.2614  0.0538
  687MOL0     C92620  10.006   5.845   5.485  1.1931  0.1303  0.1415
  687MOL0     C92621   9.931   5.805   5.351 -0.8021 -1.0700 -0.4438
  687MOL0     C92622   9.829   5.904   5.301  0.7326  0.1499 -0.2906
  687MOL0     C92623   9.887   6.044   5.294  0.3655 -0.4206 -0.3748
  687MOL0     C92624   9.975   6.062   5.168  0.4738  0.8115 -0.0803
  687MOL0     C92625  10.022   6.207   5.138  0.2542  0.3819  0.6880
  687MOL0     C92626  10.089   6.227   5.003 -0.2797  0.4348  0.1993
  687MOL0     N92627  10.122   6.369   4.989 -0.2302 -0.7221  0.2507
  687MOL0     C92628  10.254   6.418   5.021  0.3578 -1.0480  0.1873
  687MOL0     C92629  10.253   6.543   4.968 -0.5376 -0.0674  0.0223
  687MOL0     C92630  10.357   6.656   4.988  0.1496 -0.3639  0.3419
  687MOL0     C92631  10.461   6.671   4.872  0.3127  0.2683 -0.5548
  687MOL0     C92632  10.544   6.543   4.850  0.1180 -0.5171  0.0677
  687MOL0     C92633  10.641   6.512   4.959 -0.4754  1.0488 -0.2245
  687MOL0     O92634  10.753   6.421   4.926 -1.0519 -0.1775 -0.2068
  687MOL0     C92635  10.866   6.479   4.864 -0.4471  0.1750  0.2559
  687MOL0     C92636  10.978   6.398   4.862 -0.0107 -0.6806 -0.5080
  687MOL0     C92637  11.103   6.432   4.810  0.1494  0.0825  0.3160
  687MOL0     C92638  11.132   6.564   4.770  1.2327  0.2998 -1.0385
  687MOL0     C92639  11.272   6.598   4.763 -0.2705  0.2859  0.3025
  687MOL0     O92640  11.348   6.499   4.708 -1.0904  0.6568  0.6451
  687MOL0     C92641  11.486   6.505   4.719 -0.6808 -0.3885  0.0189
  687MOL0     C92642  11.554   6.436   4.620 -0.0055  0.3042  0.2578
  687MOL0     C92643  11.688   6.418   4.628  0.2927  0.4022 -0.3294
  687MOL0     C92644  11.759   6.464   4.736  0.1005  0.8461 -0.3248
  687MOL0     O92645  11.898   6.455   4.729 -0.0538  0.1810  0.1337
  687MOL0     C92646  11.957   6.560   4.650  0.8278  1.1049 -0.1900
  687MOL0     C92647  12.096   6.554   4.672  0.4976 -0.0660  0.2991
  687MOL0     C92648  12.168   6.459   4.577  0.7567 -0.3765 -0.4731
  687MOL0     C92649  12.313   6.471   4.602 -0.7283 -0.1727 -0.9914
  687MOL0     C92650  12.381   6.343   4.543  0.3963 -0.5425  0.2782
  687MOL0     C92651  12.532   6.349   4.528 -0.4871 -0.2065  0.3618
  687MOL0     C92652  12.606   6.224   4.477  0.0646  0.6413  0.2686
  687MOL0     C92653  12.745   6.259   4.454  0.1561  0.8056 -0.2489
  687MOL0    Cl92654  12.753   6.373   4.324  0.1609  0.2255 -0.4483
  687MOL0     C92655  11.699   6.540   4.837 -0.3823  0.3932  0.2772
  687MOL0     C92656  11.560   6.551   4.831 -0.4593 -0.4524  0.2950
  687MOL0     O92657  11.299   6.708   4.812 -0.9523 -0.3576 -0.2070
  687MOL0     C92658  11.023   6.651   4.790 -0.4776 -0.9670 -0.0778
  687MOL0     C92659  10.897   6.616   4.828  0.4082 -0.2135  0.6924
  687MOL0     N92660  10.131   6.565   4.907 -0.8170  0.0514 -0.0055
  687MOL0     N92661  10.053   6.464   4.919 -0.1035  0.3801 -0.6115
  687MOL0     C92662   9.747   6.141   5.797 -0.7896  0.4577  0.6187
  687MOL0     C92663   9.673   6.157   5.915 -0.9690  0.1414  0.1724
  687MOL0     C92664   9.574   6.107   6.337  0.2965 -0.1481 -0.8892
  687MOL0     C92665   9.440   6.057   6.348 -0.1991  0.0804 -0.0028
  687MOL0     C92666   9.362   6.082   6.458 -0.0886 -1.4037 -0.1532
  687MOL0     C92667   9.419   6.152   6.566  0.4566 -0.0452 -0.0147
  687MOL0     O92668   9.336   6.166   6.676 -0.8356 -0.7722 -0.3009
  687MOL0     C92669   9.377   6.089   6.786 -0.2221  0.3010  0.1274
  687MOL0     C92670   9.329   5.946   6.782 -0.2404  0.2781  0.1636
  687MOL0     C92671   9.179   5.946   6.800 -0.2779  0.7745  0.4017
  687MOL0     C92672   9.123   5.792   6.818 -0.2158 -0.3450 -0.1072
  687MOL0     C92673   9.109   5.716   6.685  0.4871  0.0414 -0.1572
  687MOL0     C92674   9.079   5.642   6.598 -0.4164 -0.4038 -0.6679
  687MOL0     C92675   9.543   6.208   6.555  0.1887 -0.6254 -0.2822
  687MOL0     C92676   9.624   6.186   6.448 -0.5451 -0.8416 -0.1596
  687MOL0     C92677   9.757   6.248   6.448 -0.6348 -0.3755  0.5814
  687MOL0     H92678   9.628   5.835   5.991  1.0722 -0.9991 -1.8883
  687MOL0     H92679   9.765   5.799   5.821 -1.2970 -0.8617 -1.7034
  687MOL0     H92680   9.943   5.804   5.696 -3.3139  3.4854  3.7034
  687MOL0     H92681   9.818   5.785   5.582 -1.7191  2.1846 -2.6263
  687MOL0     H92682  10.078   5.763   5.493  0.3513 -0.8442 -1.5691
  687MOL0     H92683  10.065   5.935   5.470 -0.2903  0.8142 -2.0845
  687MOL0     H92684   9.876   5.711   5.367 -1.0222 -0.4924  3.0313
  687MOL0     H92685   9.998   5.786   5.267 -2.4052  1.1742 -2.3531
  687MOL0     H92686   9.798   5.873   5.201  1.6791  1.2304 -0.9531
  687MOL0     H92687   9.741   5.908   5.366  2.4677 -0.8077  2.2919
  687MOL0     H92688   9.811   6.113   5.256  2.6371  1.3068 -2.0733
  687MOL0     H92689   9.933   6.090   5.383  2.5666  0.7234 -1.9964
  687MOL0     H92690  10.062   5.996   5.177 -1.9439 -2.3273  2.3151
  687MOL0     H92691   9.920   6.025   5.081 -0.4369 -0.5318  1.0337
  687MOL0     H92692  10.086   6.248   5.216 -1.9796 -2.6398  4.4922
  687MOL0     H92693   9.941   6.280   5.130 -2.4566 -2.4860 -0.2639
  687MOL0     H92694  10.184   6.173   4.998 -1.3738 -1.6555  1.2753
  687MOL0     H92695  10.026   6.190   4.922  2.3706 -5.1349  0.2196
  687MOL0     H92696  10.344   6.385   5.073 -0.0423  1.0244  2.3665
  687MOL0     H92697  10.307   6.753   4.993  0.3308 -0.3264  1.5602
  687MOL0     H92698  10.406   6.643   5.084 -1.5271  0.0218  1.2910
  687MOL0     H92699  10.413   6.684   4.775 -2.3309 -0.8657  0.4919
  687MOL0     H92700  10.529   6.752   4.898 -1.5325  1.9877 -0.8455
  687MOL0     H92701  10.609   6.560   4.764 -0.2938 -1.0789 -0.3630
  687MOL0     H92702  10.477   6.459   4.831 -0.3789 -0.6058  2.0408
  687MOL0     H92703  10.579   6.463   5.035  0.2266  0.3380 -0.0912
  687MOL0     H92704  10.686   6.601   5.003  1.5225 -0.2025  0.4320
  687MOL0     H92705  10.967   6.297   4.901  5.0577 -1.4130 -0.2981
  687MOL0     H92706  11.184   6.360   4.809  0.6489  0.5963 -1.3954
  687MOL0     H92707  11.498   6.384   4.543 -1.5224  1.1610  0.7477
  687MOL0     H92708  11.749   6.357   4.562  2.2820  0.4920  1.3176
  687MOL0     H92709  11.937   6.542   4.544  2.0416 -0.8422 -0.1272
  687MOL0     H92710  11.924   6.658   4.686  0.5615  0.7080  0.6894
  687MOL0     H92711  12.137   6.652   4.645  1.4134 -1.4787 -4.3618
  687MOL0     H92712  12.120   6.523   4.774  1.5555  0.9577  0.3846
  687MOL0     H92713  12.135   6.360   4.608 -0.0178  0.3004  1.0047
  687MOL0     H92714  12.139   6.478   4.473 -2.6750  0.2637  0.4610
  687MOL0     H92715  12.344   6.484   4.706 -2.6605  1.6358 -0.5632
  687MOL0     H92716  12.356   6.560   4.555 -0.1631  1.2273  1.9500
  687MOL0     H92717  12.338   6.341   4.442 -1.2182 -0.0026  0.9163
  687MOL0     H92718  12.331   6.258   4.591 -5.4984 -0.3084 -4.1943
  687MOL0     H92719  12.552   6.445   4.479 -1.4549  0.4250  1.1570
  687MOL0     H92720  12.576   6.370   4.626  0.4776  0.7633 -0.2589
  687MOL0     H92721  12.547   6.191   4.391 -1.6400  1.2973  1.1341
  687MOL0     H92722  12.594   6.149   4.555 -4.2082  1.9316  1.1532
  687MOL0     H92723  12.775   6.306   4.548 -0.0348  0.2923  0.0685
  687MOL0     H92724  12.812   6.176   4.429 -0.9504  0.0130 -0.6649
  687MOL0     H92725  11.753   6.586   4.919  0.8061 -0.1960 -0.1624
  687MOL0     H92726  11.517   6.616   4.907  1.3134  2.1268 -0.7577
  687MOL0     H92727  11.038   6.756   4.766  5.2785 -1.7154 -1.1020
  687MOL0     H92728  10.814   6.686   4.837  0.0779 -0.8022  2.8467
  687MOL0     H92729   9.760   6.230   5.737  0.7257  0.4273  0.8601
  687MOL0     H92730   9.643   6.256   5.948 -0.2663  0.8293 -1.2028
  687MOL0     H92731   9.386   6.010   6.266 -2.1077 -1.1032  1.8305
  687MOL0     H92732   9.260   6.049   6.474 -2.8311  4.7307 -1.8225
  687MOL0     H92733   9.354   6.140   6.881  0.7502 -1.3860  1.3215
  687MOL0     H92734   9.485   6.081   6.779 -0.3778 -2.0375 -0.4550
  687MOL0     H92735   9.385   5.898   6.862  6.1471  3.6333 -1.5690
  687MOL0     H92736   9.349   5.898   6.685  0.8819 -0.8624  0.9353
  687MOL0     H92737   9.131   5.999   6.718  1.5114  1.3612 -0.3145
  687MOL0     H92738   9.161   5.990   6.899  2.3355 -0.9188  1.7717
  687MOL0     H92739   9.185   5.736   6.888 -2.7305 -1.7629  1.1389
  687MOL0     H92740   9.020   5.816   6.846 -0.7216  0.5918 -2.4767
  687MOL0     H92741   9.076   5.577   6.513 -0.8625 -1.8089  0.3876
  687MOL0     H92742   9.577   6.284   6.624  1.5589  1.2544 -2.8171
  687MOL0     H92743   9.768   6.317   6.533  2.6164  0.8178 -0.6706
  687MOL0     H92744   9.834   6.172   6.463  0.6875  0.0166 -3.1618
  687MOL0     H92745   9.793   6.300   6.359  2.4296 -0.2920  1.7517
  688MOL0     O92746   0.947   0.234   0.388  0.6450  0.6823 -1.1764
  688MOL0     C92747   1.056   0.182   0.382  0.0265  0.2698  0.2824
  688MOL0     O92748   1.142   0.168   0.482 -0.4635  0.2442 -0.4615
  688MOL0     C92749   1.126   0.104   0.604  0.4056 -0.4563 -0.2595
  688MOL0     C92750   1.227   0.115   0.701  0.1931  0.1818  0.0712
  688MOL0     C92751   1.216   0.052   0.829  0.3169  1.3770  0.4759
  688MOL0     C92752   1.112  -0.033   0.857 -0.0870 -0.5505  0.3365
  688MOL0     O92753   1.101  -0.100   0.971 -0.2463 -0.0502  0.4302
  688MOL0     C92754   1.048  -0.015   1.078 -0.9008  0.2621  0.0959
  688MOL0     C92755   1.033  -0.114   1.192  0.5601  0.0579  0.3927
  688MOL0     C92756   0.885  -0.164   1.198 -0.0558  0.6628 -0.5950
  688MOL0     C92757   0.854  -0.273   1.086 -0.2579 -0.2034 -0.0484
  688MOL0     C92758   0.729  -0.355   1.100  0.1500  0.3837  0.3302
  688MOL0     C92759   0.707  -0.438   0.973  0.2190 -0.0455  1.0641
  688MOL0     C92760   0.811  -0.546   0.959  0.4123 -0.3097  0.0494
  688MOL0     C92761   0.774  -0.632   0.839 -0.1682 -0.7631  0.1932
  688MOL0     N92762   0.762  -0.554   0.710  0.3628  0.7854  0.1901
  688MOL0     C92763   0.839  -0.447   0.681 -0.5029 -0.1194 -0.0581
  688MOL0     C92764   0.806  -0.400   0.556  0.3085 -0.1638 -0.9218
  688MOL0     C92765   0.857  -0.291   0.479 -0.4286  0.2613  1.0477
  688MOL0     C92766   0.990  -0.344   0.415 -0.1499  1.3199  0.1258
  688MOL0     C92767   1.048  -0.239   0.325 -0.1154  0.0922 -0.6276
  688MOL0     C92768   1.179  -0.283   0.249  0.1762 -0.2820 -0.7973
  688MOL0     O92769   1.264  -0.357   0.345  0.4136  0.6483  0.2448
  688MOL0     C92770   1.351  -0.286   0.420 -0.2174 -0.4554  0.4942
  688MOL0     C92771   1.361  -0.147   0.421  0.6450 -0.8412  0.0031
  688MOL0     C92772   1.442  -0.079   0.506  0.3726  0.4831 -0.1194
  688MOL0     C92773   1.536  -0.141   0.597  0.5912  0.1723  0.3481
  688MOL0     C92774   1.612  -0.063   0.681  0.1714 -0.7696  0.5107
  688MOL0     O92775   1.700  -0.130   0.758  0.1924 -0.5292  0.6597
  688MOL0     C92776   1.831  -0.073   0.775 -0.2128 -0.1939 -0.0706
  688MOL0     C92777   1.876   0.046   0.832  0.5044  0.2472  0.8723
  688MOL0     C92778   2.009   0.078   0.839  0.7868  0.0074  0.8473
  688MOL0     C92779   2.110  -0.011   0.795 -0.6411 -0.3681  0.2664
  688MOL0     O92780   2.243   0.033   0.808 -0.3536 -0.4294 -0.4402
  688MOL0     C92781   2.342  -0.080   0.780 -0.2030 -1.0755 -0.6518
  688MOL0     C92782   2.481  -0.027   0.820  0.9637 -0.7339 -0.2022
  688MOL0     C92783   2.552  -0.145   0.865 -0.0748  0.0577 -0.0177
  688MOL0     C92784   2.700  -0.126   0.852 -0.2689  0.3561 -0.1292
  688MOL0     C92785   2.752  -0.028   0.959  0.2739  1.1325  0.0642
  688MOL0     C92786   2.858  -0.094   1.054  0.3233  0.4058 -0.0905
  688MOL0     C92787   2.995  -0.109   0.975 -0.3494 -0.6004 -0.5696
  688MOL0     C92788   3.093  -0.180   1.076  0.1660  0.1998  0.2139
  688MOL0    Cl92789   3.036  -0.339   1.128  0.1976 -0.0081 -0.1005
  688MOL0     C92790   2.067  -0.127   0.723  0.0143 -0.0828 -0.3669
  688MOL0     C92791   1.932  -0.159   0.717 -0.3651 -0.1727  0.8129
  688MOL0     O92792   1.613   0.065   0.665  0.1552  0.3272  0.5926
  688MOL0     C92793   1.522  -0.281   0.596 -1.0196  0.7502 -0.1995
  688MOL0     C92794   1.437  -0.358   0.506  0.7727 -0.0440 -0.3533
  688MOL0     N92795   0.714  -0.492   0.509  0.4253 -0.2403 -0.0895
  688MOL0     N92796   0.701  -0.587   0.592 -0.4303 -0.3790  0.2052
  688MOL0     C92797   1.003  -0.038   0.764 -0.0453  0.7099 -0.1994
  688MOL0     C92798   1.013   0.035   0.642 -0.3113 -0.1670 -0.8549
  688MOL0     C92799   1.096   0.144   0.247  0.0050 -0.9218  0.6568
  688MOL0     C92800   1.236   0.158   0.218  0.2078  0.8912 -0.2219
  688MOL0     C92801   1.284   0.108   0.094 -1.0389  0.4728  0.5072
  688MOL0     C92802   1.194   0.078  -0.010  0.3981  0.1052 -0.4299
  688MOL0     O92803   1.256   0.044  -0.125  0.3642  0.1890 -0.1446
  688MOL0     C92804   1.178  -0.006  -0.238  0.6023 -0.2765  0.0258
  688MOL0     C92805   1.275  -0.052  -0.351  0.2223 -0.1566  0.1413
  688MOL0     C92806   1.337   0.072  -0.426 -0.1250 -0.0277 -0.2507
  688MOL0     C92807   1.413   0.030  -0.550 -0.7257 -0.0881 -1.0918
  688MOL0     C92808   1.363  -0.084  -0.626  0.0534 -0.5487  0.5544
  688MOL0     C92809   1.359  -0.185  -0.700  0.3878 -0.5708 -0.3233
  688MOL0     C92810   1.050   0.084   0.014 -0.4544  0.1549 -0.1932
  688MOL0     C92811   1.003   0.117   0.143  0.1880 -0.7861  0.3040
  688MOL0     C92812   0.860   0.100   0.153  0.0393  0.5071  0.0841
  688MOL0     H92813   1.308   0.184   0.679  1.5837 -1.7213 -1.1067
  688MOL0     H92814   1.295   0.051   0.903  0.3784 -2.9839  0.6290
  688MOL0     H92815   1.123   0.056   1.113  0.9227 -1.6310  0.2372
  688MOL0     H92816   0.960   0.039   1.042  0.7060  1.1607 -2.7521
  688MOL0     H92817   1.056  -0.072   1.290 -0.5335 -1.2922  1.2538
  688MOL0     H92818   1.103  -0.196   1.171  0.7868  0.0563  1.1323
  688MOL0     H92819   0.801  -0.093   1.201 -0.4291  0.1997  0.3627
  688MOL0     H92820   0.885  -0.196   1.302  3.6363  0.4496 -0.5585
  688MOL0     H92821   0.851  -0.221   0.990  0.6450  2.2629  1.1512
  688MOL0     H92822   0.933  -0.349   1.085  1.9199  1.8974 -0.9401
  688MOL0     H92823   0.751  -0.422   1.184 -0.4709  1.5182  1.4347
  688MOL0     H92824   0.636  -0.299   1.108  0.5944  1.1381  0.3648
  688MOL0     H92825   0.605  -0.475   0.985 -1.2109  3.7842  1.8433
  688MOL0     H92826   0.695  -0.366   0.892 -2.1611  2.2345  3.2344
  688MOL0     H92827   0.804  -0.607   1.049 -1.9130 -0.6646 -0.3224
  688MOL0     H92828   0.916  -0.515   0.956  0.7041 -1.1527 -3.0379
  688MOL0     H92829   0.850  -0.711   0.830  1.0486  0.1814  1.6791
  688MOL0     H92830   0.680  -0.685   0.854  0.2495 -1.5569  0.0333
  688MOL0     H92831   0.911  -0.397   0.744  1.4896 -2.1008 -0.6542
  688MOL0     H92832   0.793  -0.258   0.396  1.6374  0.0417 -0.7090
  688MOL0     H92833   0.871  -0.202   0.542 -1.1568 -0.3252  2.0700
  688MOL0     H92834   1.056  -0.375   0.497 -0.0887 -2.1369 -1.0572
  688MOL0     H92835   0.963  -0.428   0.350  0.2632  0.6029  0.8669
  688MOL0     H92836   1.061  -0.149   0.385 -0.4257  0.0900 -0.5560
  688MOL0     H92837   0.978  -0.211   0.246 -0.8417  2.0061  0.6241
  688MOL0     H92838   1.221  -0.193   0.203 -0.8047  0.2082 -0.7500
  688MOL0     H92839   1.154  -0.348   0.165  1.2401 -2.2270  0.3021
  688MOL0     H92840   1.299  -0.084   0.358  2.3286 -0.4111 -1.3184
  688MOL0     H92841   1.438   0.030   0.502  0.4049  0.4635 -2.4948
  688MOL0     H92842   1.801   0.112   0.875  0.4407  0.5824  0.2605
  688MOL0     H92843   2.035   0.178   0.873 -1.6035  1.2490 -0.6526
  688MOL0     H92844   2.316  -0.170   0.835  0.2086 -1.7175 -1.4822
  688MOL0     H92845   2.347  -0.110   0.675  2.4442  3.1155 -2.0311
  688MOL0     H92846   2.509   0.024   0.727 -2.1192 -0.5915 -1.1825
  688MOL0     H92847   2.478   0.050   0.897 -0.3841  2.3560 -3.0796
  688MOL0     H92848   2.525  -0.172   0.967 -1.4606  0.3114 -0.2951
  688MOL0     H92849   2.529  -0.228   0.797  1.2308 -3.7428  3.7008
  688MOL0     H92850   2.720  -0.092   0.750 -2.5624  1.4973 -0.2694
  688MOL0     H92851   2.748  -0.221   0.877  3.5958  2.1707  0.0471
  688MOL0     H92852   2.670  -0.002   1.028  0.8771  0.1070  1.2047
  688MOL0     H92853   2.784   0.066   0.913 -2.4135  0.3999 -3.8259
  688MOL0     H92854   2.876  -0.031   1.142 -0.1948 -2.2374  2.0295
  688MOL0     H92855   2.817  -0.187   1.094  1.6611  0.3245  1.1450
  688MOL0     H92856   3.043  -0.013   0.956  2.1811 -1.6819 -0.0240
  688MOL0     H92857   2.996  -0.169   0.883 -0.0774 -2.2614  0.4654
  688MOL0     H92858   3.189  -0.202   1.028  1.2609  1.5000  1.7142
  688MOL0     H92859   3.109  -0.115   1.162  1.9267  0.7231 -0.4780
  688MOL0     H92860   2.128  -0.197   0.668  1.2473 -1.0891  2.1007
  688MOL0     H92861   1.895  -0.250   0.672 -0.2672 -0.5361  1.4451
  688MOL0     H92862   1.602  -0.329   0.651  0.3764  1.4188 -1.5487
  688MOL0     H92863   1.441  -0.467   0.509  0.2968 -0.0480  2.1798
  688MOL0     H92864   0.908  -0.084   0.789 -0.5331 -0.3390 -3.5139
  688MOL0     H92865   0.920   0.048   0.587 -1.7029 -0.4850  1.2797
  688MOL0     H92866   1.304   0.188   0.297  0.6818 -0.7998  0.0428
  688MOL0     H92867   1.389   0.103   0.070 -1.3547  1.8310 -1.3359
  688MOL0     H92868   1.096   0.060  -0.267 -1.4230 -2.6900 -0.0499
  688MOL0     H92869   1.127  -0.100  -0.216 -0.9121  0.9423  2.0787
  688MOL0     H92870   1.213  -0.112  -0.418 -0.3015  0.7993 -0.2598
  688MOL0     H92871   1.348  -0.105  -0.290  0.1628  1.6431  1.8899
  688MOL0     H92872   1.412   0.121  -0.364  1.2812  1.0181 -2.6403
  688MOL0     H92873   1.254   0.133  -0.464 -1.5412 -1.7856 -0.1425
  688MOL0     H92874   1.413   0.116  -0.617 -1.2831 -0.4480 -1.5689
  688MOL0     H92875   1.517   0.019  -0.520 -0.1637 -1.0733 -3.1964
  688MOL0     H92876   1.358  -0.283  -0.744 -3.5218 -0.3697 -1.0511
  688MOL0     H92877   0.977   0.065  -0.064 -2.6436  0.5730  1.6429
  688MOL0     H92878   0.839   0.025   0.229 -0.7384  1.4781  0.8484
  688MOL0     H92879   0.814   0.194   0.186  2.1271  0.7635  2.4840
  688MOL0     H92880   0.824   0.044   0.066  0.5921 -1.1822  0.9219
  689MOL0     O92881   7.344   8.718   8.332  0.0432  0.1959 -1.0942
  689MOL0     C92882   7.349   8.682   8.216 -0.0319 -0.3581  0.8034
  689MOL0     O92883   7.244   8.647   8.139  0.3278 -1.1676 -0.5605
  689MOL0     C92884   7.115   8.622   8.182  0.2610  0.2760  0.4043
  689MOL0     C92885   7.068   8.609   8.316  0.4199  0.0576  0.4701
  689MOL0     C92886   6.938   8.560   8.347  1.2442  0.0561 -0.0039
  689MOL0     C92887   6.853   8.531   8.240  1.1725  0.1993  0.5491
  689MOL0     O92888   6.723   8.481   8.252  1.1817 -0.4462 -0.4760
  689MOL0     C92889   6.721   8.343   8.292 -0.0692  0.6204  0.0781
  689MOL0     C92890   6.641   8.261   8.182 -0.5677  0.5318 -0.5413
  689MOL0     C92891   6.622   8.114   8.218 -1.0153 -0.6243  0.5259
  689MOL0     C92892   6.575   8.043   8.089  0.5416  0.3321 -0.5548
  689MOL0     C92893   6.527   7.889   8.117  0.4023 -0.1399  0.1181
  689MOL0     C92894   6.641   7.789   8.132  0.5149  0.4661  0.4523
  689MOL0     C92895   6.621   7.636   8.130  1.4075  0.0242  0.9023
  689MOL0     C92896   6.513   7.605   8.015 -0.3733 -0.3045 -0.8001
  689MOL0     N92897   6.535   7.469   7.982 -0.5057 -0.3756 -0.3626
  689MOL0     C92898   6.503   7.366   8.069 -0.6784  0.2874 -0.1211
  689MOL0     C92899   6.547   7.258   7.991 -0.1598 -0.4112 -0.5055
  689MOL0     C92900   6.553   7.116   8.037 -0.0333 -0.8530 -0.3398
  689MOL0     C92901   6.483   7.028   7.927 -0.6989 -0.2744 -1.7668
  689MOL0     C92902   6.565   6.978   7.806  0.1261  0.5018 -0.7764
  689MOL0     C92903   6.699   6.914   7.841 -0.7293  0.7766  0.3368
  689MOL0     O92904   6.772   6.875   7.722 -0.0803 -0.1479  0.2251
  689MOL0     C92905   6.832   6.977   7.648  0.0347  0.4206 -0.9356
  689MOL0     C92906   6.820   7.110   7.663 -0.6563 -1.1067  1.3187
  689MOL0     C92907   6.896   7.205   7.584  0.3085  0.4642 -0.3650
  689MOL0     C92908   6.968   7.159   7.475 -0.2193 -0.3141  0.3596
  689MOL0     C92909   7.031   7.256   7.382 -0.5312  0.1222 -0.2303
  689MOL0     O92910   7.016   7.389   7.399 -0.7318 -1.3310 -0.7793
  689MOL0     C92911   7.059   7.460   7.296 -0.5026  0.1418  0.2627
  689MOL0     C92912   6.965   7.498   7.200 -0.7271 -0.2333  0.2971
  689MOL0     C92913   7.009   7.584   7.088  0.0253  0.6310  0.0642
  689MOL0     C92914   7.136   7.622   7.076 -0.1008 -0.1608  0.1262
  689MOL0     O92915   7.185   7.690   6.964 -0.8070  0.0467 -0.0491
  689MOL0     C92916   7.147   7.830   6.975  0.2352  0.1496 -0.0034
  689MOL0     C92917   7.097   7.893   6.840  0.5636  0.0887 -0.0579
  689MOL0     C92918   6.978   7.820   6.779  0.5114  0.3450  0.6206
  689MOL0     C92919   6.939   7.873   6.644  0.2569  0.1158  0.2789
  689MOL0     C92920   6.864   7.769   6.572  1.3003 -0.1360 -0.3402
  689MOL0     C92921   6.732   7.724   6.647  0.6208 -0.0127  0.6328
  689MOL0     C92922   6.637   7.847   6.652  0.1680 -1.0281 -0.4196
  689MOL0     C92923   6.494   7.813   6.677 -0.5934 -0.2651 -0.3719
  689MOL0    Cl92924   6.396   7.960   6.657  0.6480  0.0776  0.0921
  689MOL0     C92925   7.229   7.584   7.169  0.2593 -0.0568  0.3716
  689MOL0     C92926   7.189   7.514   7.283  0.1785 -0.4308 -0.3760
  689MOL0     O92927   7.085   7.196   7.288 -0.8602 -0.9194 -0.0946
  689MOL0     C92928   6.992   7.020   7.459 -0.1963  0.5199  0.4864
  689MOL0     C92929   6.923   6.932   7.544  0.0056 -0.3187  0.6346
  689MOL0     N92930   6.581   7.296   7.865  0.4865 -0.1452  0.2567
  689MOL0     N92931   6.570   7.420   7.858  0.3578  0.8022  0.1159
  689MOL0     C92932   6.902   8.523   8.106  0.1951 -0.5962  0.2958
  689MOL0     C92933   7.035   8.574   8.079  1.0472  0.3951 -0.4343
  689MOL0     C92934   7.481   8.663   8.137  0.1020 -0.2228 -0.1933
  689MOL0     C92935   7.482   8.629   8.007  0.1381 -0.7085  1.0458
  689MOL0     C92936   7.600   8.592   7.929  0.4526  0.6288 -0.4570
  689MOL0     C92937   7.721   8.576   8.000  0.2800  0.4287 -0.7426
  689MOL0     O92938   7.836   8.544   7.936 -0.2809  0.4675 -0.5660
  689MOL0     C92939   7.920   8.658   7.910  0.5859 -0.3686 -0.3115
  689MOL0     C92940   7.980   8.733   8.032 -0.1209  0.2377 -0.2021
  689MOL0     C92941   8.104   8.823   8.017  0.1949  0.0515  0.6029
  689MOL0     C92942   8.236   8.765   7.964 -0.5225 -0.8718 -0.9564
  689MOL0     C92943   8.339   8.723   8.065  0.6379 -0.7461  0.3461
  689MOL0     C92944   8.421   8.680   8.145 -0.2805  0.5891 -0.1071
  689MOL0     C92945   7.715   8.612   8.133 -0.5836 -0.3742  0.2106
  689MOL0     C92946   7.605   8.666   8.201 -0.0182 -0.5932  0.6869
  689MOL0     C92947   7.634   8.706   8.342 -0.2019 -0.3926  0.8584
  689MOL0     H92948   7.131   8.625   8.403  1.1348  1.2949 -0.2492
  689MOL0     H92949   6.916   8.552   8.453  2.6822  2.4114  0.5444
  689MOL0     H92950   6.825   8.313   8.304  0.8108  0.9921 -4.4816
  689MOL0     H92951   6.650   8.343   8.375  3.4589  0.2724  3.3409
  689MOL0     H92952   6.687   8.260   8.083 -1.6046  1.1550 -1.0397
  689MOL0     H92953   6.542   8.306   8.170  0.3189  2.5930 -0.5545
  689MOL0     H92954   6.544   8.099   8.294  1.3306  0.8357  3.4259
  689MOL0     H92955   6.711   8.079   8.270 -0.1036 -0.6920 -1.0258
  689MOL0     H92956   6.491   8.099   8.047  2.3144  1.2207 -3.1724
  689MOL0     H92957   6.661   8.048   8.022  0.8434  1.6093 -0.1131
  689MOL0     H92958   6.447   7.877   8.190 -1.6870 -3.2912 -2.3799
  689MOL0     H92959   6.480   7.853   8.025  0.9454 -0.6581  0.0407
  689MOL0     H92960   6.719   7.820   8.063  0.7407  1.4113  1.1010
  689MOL0     H92961   6.672   7.814   8.235 -2.9415  1.7795  1.3025
  689MOL0     H92962   6.576   7.602   8.224 -4.5426  2.9624 -0.3953
  689MOL0     H92963   6.719   7.593   8.107  1.8859  1.0685  0.9370
  689MOL0     H92964   6.408   7.617   8.042 -0.7077 -1.5795 -1.4624
  689MOL0     H92965   6.545   7.658   7.925  0.0094  1.7710  0.4978
  689MOL0     H92966   6.461   7.381   8.168 -2.1807 -1.4267 -0.4447
  689MOL0     H92967   6.659   7.095   8.055 -0.3815 -0.6644  2.3217
  689MOL0     H92968   6.494   7.106   8.129 -2.2185 -0.0348 -1.5590
  689MOL0     H92969   6.433   6.941   7.971  1.0626 -1.1585 -1.4409
  689MOL0     H92970   6.407   7.096   7.888 -1.5655  2.0703  3.1514
  689MOL0     H92971   6.579   7.056   7.731  2.1350 -0.3207 -1.3371
  689MOL0     H92972   6.501   6.907   7.754 -1.2780 -0.2595  1.8187
  689MOL0     H92973   6.676   6.828   7.903 -3.4406 -0.5944 -2.3075
  689MOL0     H92974   6.755   6.981   7.906 -1.3167 -0.6434  2.3893
  689MOL0     H92975   6.762   7.155   7.742 -1.3974  0.2752  0.0366
  689MOL0     H92976   6.891   7.310   7.612  1.0905 -0.1677  2.4390
  689MOL0     H92977   6.873   7.443   7.207 -0.0209 -1.6370 -0.8756
  689MOL0     H92978   6.934   7.595   7.010 -1.3746  1.7062  1.4874
  689MOL0     H92979   7.063   7.851   7.042  0.8203 -1.5518  1.3345
  689MOL0     H92980   7.239   7.881   7.002 -0.1759 -0.2070  2.2781
  689MOL0     H92981   7.067   7.997   6.855  0.2785 -0.3231  2.6197
  689MOL0     H92982   7.177   7.887   6.766 -0.4251 -1.5890 -1.0490
  689MOL0     H92983   7.003   7.714   6.769 -1.4141 -0.0396 -0.8139
  689MOL0     H92984   6.891   7.828   6.845 -0.9997  0.3503 -1.2559
  689MOL0     H92985   7.020   7.884   6.571  1.9334 -1.8971  1.7283
  689MOL0     H92986   6.888   7.969   6.656 -1.8982 -0.8346 -0.7086
  689MOL0     H92987   6.931   7.684   6.558  0.6834 -0.2851 -2.9019
  689MOL0     H92988   6.857   7.812   6.472 -3.6570  1.1179  0.2563
  689MOL0     H92989   6.693   7.635   6.597  3.9979 -1.0560 -0.3997
  689MOL0     H92990   6.740   7.693   6.751  0.2801  3.3878  1.8166
  689MOL0     H92991   6.642   7.914   6.566 -2.9139 -0.6206 -0.4084
  689MOL0     H92992   6.662   7.907   6.739  3.5773 -0.3797 -1.7135
  689MOL0     H92993   6.448   7.743   6.607 -2.0322  0.8663 -0.6040
  689MOL0     H92994   6.480   7.790   6.783  0.9434 -1.2555 -0.3492
  689MOL0     H92995   7.333   7.613   7.159  0.2627 -0.0590  0.4019
  689MOL0     H92996   7.243   7.480   7.371 -0.2557 -1.9787 -0.6671
  689MOL0     H92997   7.055   6.981   7.380 -3.5656 -6.4168  0.4742
  689MOL0     H92998   6.936   6.825   7.533 -0.1455 -0.4177  1.3563
  689MOL0     H92999   6.833   8.489   8.029 -1.1129  1.0712  0.6825
  689MOL0     H93000   7.072   8.566   7.977  1.9727 -2.2421  0.0208
  689MOL0     H93001   7.387   8.618   7.955 -0.6082 -0.3151  2.2952
  689MOL0     H93002   7.592   8.565   7.824  0.1161  0.5833 -0.4195
  689MOL0     H93003   7.867   8.734   7.853  2.2069  0.7755 -0.3807
  689MOL0     H93004   8.006   8.621   7.854  2.4898 -2.6041  3.6035
  689MOL0     H93005   8.022   8.649   8.088 -0.6778 -2.3545 -3.3808
  689MOL0     H93006   7.906   8.792   8.086  3.0395 -0.3538  5.7865
  689MOL0     H93007   8.119   8.882   8.108  1.2661  0.2626  0.2979
  689MOL0     H93008   8.071   8.902   7.950 -4.3441 -1.8899  0.1854
  689MOL0     H93009   8.215   8.676   7.904  0.2692 -1.0951 -0.9229
  689MOL0     H93010   8.277   8.847   7.905 -0.2616 -0.6544 -0.4748
  689MOL0     H93011   8.494   8.630   8.205 -0.6174 -1.0144 -0.9750
  689MOL0     H93012   7.800   8.599   8.199 -1.0497 -1.6379  0.5856
  689MOL0     H93013   7.615   8.628   8.415 -0.9228 -0.8261  0.2134
  689MOL0     H93014   7.739   8.736   8.350 -0.1541  0.0296 -0.9888
  689MOL0     H93015   7.567   8.788   8.371 -2.5900 -1.7001 -0.6415
  690MOL0     O93016   5.130   4.380   6.048  0.3057  0.4409 -0.1299
  690MOL0     C93017   5.131   4.267   6.007 -0.8088  0.2012 -0.6095
  690MOL0     O93018   5.030   4.174   6.011 -0.9891 -0.0094 -0.0668
  690MOL0     C93019   4.935   4.201   6.105 -0.7930 -0.8588 -0.0086
  690MOL0     C93020   4.805   4.181   6.065 -0.0698 -0.6114  0.2018
  690MOL0     C93021   4.695   4.199   6.154 -0.5845 -0.6591 -0.0389
  690MOL0     C93022   4.713   4.253   6.279 -0.3558 -0.3113  0.3823
  690MOL0     O93023   4.597   4.260   6.348 -0.5408 -0.2129  0.2612
  690MOL0     C93024   4.617   4.300   6.483  0.2902  0.5866 -0.3064
  690MOL0     C93025   4.483   4.306   6.551  0.9006 -0.3725 -0.6385
  690MOL0     C93026   4.428   4.455   6.534  0.7264  0.6185  0.0362
  690MOL0     C93027   4.299   4.483   6.622 -0.2230  0.0720  0.0936
  690MOL0     C93028   4.299   4.634   6.657 -0.0235  0.0903 -1.0191
  690MOL0     C93029   4.186   4.673   6.747  0.6140 -0.1034 -0.8427
  690MOL0     C93030   4.178   4.821   6.793 -0.3897 -0.6806  0.1855
  690MOL0     C93031   4.237   4.847   6.940  1.0413  1.1865  0.9834
  690MOL0     N93032   4.216   4.984   6.989 -0.3654  1.1756 -0.2672
  690MOL0     C93033   4.250   5.087   6.907  0.5189 -0.3314 -0.9437
  690MOL0     C93034   4.209   5.194   6.977  0.4186  0.5454 -0.2301
  690MOL0     C93035   4.218   5.338   6.922  0.1742  0.3388 -0.0243
  690MOL0     C93036   4.295   5.430   7.021  0.2684  0.6275  0.0098
  690MOL0     C93037   4.202   5.508   7.109 -0.3795  0.2406  0.5909
  690MOL0     C93038   4.283   5.590   7.212 -0.0766 -0.0589 -0.7825
  690MOL0     O93039   4.374   5.514   7.283  0.1384  0.6167 -0.9020
  690MOL0     C93040   4.500   5.560   7.294  0.5197 -0.8488 -0.3461
  690MOL0     C93041   4.580   5.595   7.184  0.1202 -0.9783  0.9852
  690MOL0     C93042   4.717   5.611   7.203 -0.4271 -0.2887  0.4806
  690MOL0     C93043   4.779   5.613   7.327 -0.2294  0.0796  0.4614
  690MOL0     C93044   4.929   5.662   7.346  0.3215 -0.5489  0.0736
  690MOL0     O93045   4.972   5.719   7.464  0.0213  0.4171 -0.0080
  690MOL0     C93046   5.098   5.771   7.463  0.9705 -0.8169  1.0200
  690MOL0     C93047   5.202   5.688   7.506 -0.4433 -0.1086 -0.1658
  690MOL0     C93048   5.328   5.742   7.521 -1.2406  0.4683 -0.3442
  690MOL0     C93049   5.352   5.873   7.492  0.5319 -1.0997 -0.6274
  690MOL0     O93050   5.459   5.932   7.534  0.5589  0.3998  0.3820
  690MOL0     C93051   5.592   5.887   7.464 -0.5530 -1.3712 -0.1955
  690MOL0     C93052   5.700   5.990   7.503  0.2646 -0.2645  0.7114
  690MOL0     C93053   5.709   6.115   7.408 -0.6428 -0.0037 -0.3727
  690MOL0     C93054   5.804   6.221   7.466 -0.4135  0.0121 -0.1166
  690MOL0     C93055   5.807   6.334   7.370  0.4957  0.7308 -0.9391
  690MOL0     C93056   5.905   6.448   7.405 -0.5123 -0.6020  0.1954
  690MOL0     C93057   6.055   6.422   7.363  0.6682 -0.9927  0.4247
  690MOL0     C93058   6.072   6.448   7.212 -0.4440 -0.4316 -0.0368
  690MOL0    Cl93059   6.236   6.429   7.180 -0.2586  0.5380  0.2734
  690MOL0     C93060   5.249   5.959   7.444  0.0138  0.0284 -0.5852
  690MOL0     C93061   5.114   5.901   7.425  0.0116 -0.4337  0.2513
  690MOL0     O93062   4.998   5.657   7.245 -0.3007  0.2363  0.4322
  690MOL0     C93063   4.696   5.585   7.438  0.3837 -0.9172  0.6042
  690MOL0     C93064   4.562   5.550   7.418  1.0712 -0.0172  1.0920
  690MOL0     N93065   4.161   5.155   7.098 -0.4722 -0.0409  0.6098
  690MOL0     N93066   4.148   5.024   7.092 -0.1006 -0.3076 -0.5614
  690MOL0     C93067   4.843   4.284   6.326 -0.5046  0.7570 -0.0207
  690MOL0     C93068   4.953   4.258   6.239 -0.2153  0.1023 -0.2685
  690MOL0     C93069   5.255   4.222   5.941  0.5045 -0.3180 -0.4798
  690MOL0     C93070   5.269   4.092   5.878  0.0268  0.3597 -0.0245
  690MOL0     C93071   5.395   4.050   5.834  0.6936  0.5865  0.0406
  690MOL0     C93072   5.512   4.125   5.828  0.4909 -0.6924 -0.0918
  690MOL0     O93073   5.625   4.068   5.765 -0.2544  0.0255  0.7450
  690MOL0     C93074   5.726   4.160   5.733  0.6343  0.0725  0.4467
  690MOL0     C93075   5.861   4.083   5.738  0.2659  0.3596 -0.3731
  690MOL0     C93076   5.982   4.173   5.698  0.3689  0.0509  0.2969
  690MOL0     C93077   6.100   4.088   5.654  0.2291  0.1464 -0.3559
  690MOL0     C93078   6.210   4.176   5.623 -0.1219  0.7552  0.1284
  690MOL0     C93079   6.292   4.254   5.597 -0.4005  0.4048 -0.1677
  690MOL0     C93080   5.493   4.248   5.888  0.2283  0.2743  0.0707
  690MOL0     C93081   5.377   4.298   5.945  0.5688 -1.0388  0.3282
  690MOL0     C93082   5.406   4.431   6.013 -0.1389 -0.5585  0.6941
  690MOL0     H93083   4.780   4.141   5.967 -1.3926  2.7464 -0.9714
  690MOL0     H93084   4.599   4.169   6.112  0.9928 -2.2241 -2.8005
  690MOL0     H93085   4.666   4.211   6.523  0.0826 -0.6148 -2.5836
  690MOL0     H93086   4.679   4.388   6.502  0.6157  0.3618 -0.3281
  690MOL0     H93087   4.507   4.283   6.655 -1.9676 -4.0325 -0.5834
  690MOL0     H93088   4.420   4.228   6.507  1.1848  0.1553 -2.0193
  690MOL0     H93089   4.404   4.482   6.431  2.6883  2.8553  0.0885
  690MOL0     H93090   4.518   4.511   6.562  1.7500  0.0940 -2.0141
  690MOL0     H93091   4.203   4.467   6.572 -0.5521  4.5971 -1.1090
  690MOL0     H93092   4.304   4.421   6.713  1.5328 -1.3587 -0.9126
  690MOL0     H93093   4.383   4.640   6.726 -0.9549 -1.0125  0.2598
  690MOL0     H93094   4.315   4.697   6.569  2.4591 -1.3926 -1.7129
  690MOL0     H93095   4.093   4.668   6.690 -0.3337  1.7952  0.4388
  690MOL0     H93096   4.171   4.606   6.832 -1.1570  0.9862 -0.2625
  690MOL0     H93097   4.074   4.853   6.797 -0.0392  0.4116  1.1454
  690MOL0     H93098   4.240   4.881   6.725 -0.7971 -2.5386 -1.9317
  690MOL0     H93099   4.195   4.776   7.011 -1.4787  1.7809  0.1744
  690MOL0     H93100   4.346   4.832   6.938  0.8792 -0.4764 -1.8861
  690MOL0     H93101   4.313   5.091   6.819 -1.2531  0.2498 -2.2272
  690MOL0     H93102   4.263   5.334   6.822  1.4128  0.4651  0.5026
  690MOL0     H93103   4.112   5.363   6.915 -0.3834 -1.7610  0.3824
  690MOL0     H93104   4.359   5.367   7.084  0.7676  2.9356  1.9593
  690MOL0     H93105   4.358   5.495   6.959 -0.3416  0.0067 -1.3055
  690MOL0     H93106   4.131   5.442   7.160 -2.5055  0.9815 -1.2517
  690MOL0     H93107   4.143   5.578   7.050  1.9955 -0.1942 -2.5619
  690MOL0     H93108   4.205   5.624   7.281 -1.2543 -0.5527 -1.8287
  690MOL0     H93109   4.320   5.687   7.175  1.6404  0.3150  1.6424
  690MOL0     H93110   4.549   5.598   7.080 -0.8299 -0.2982  1.2803
  690MOL0     H93111   4.778   5.612   7.113  2.8756  0.3366  2.5151
  690MOL0     H93112   5.196   5.590   7.553  3.8576  1.5820  4.9146
  690MOL0     H93113   5.393   5.667   7.565 -1.1703  0.7695  0.0733
  690MOL0     H93114   5.621   5.799   7.521 -0.7124  0.2053  2.4742
  690MOL0     H93115   5.596   5.870   7.356 -1.0405 -1.4712 -0.1997
  690MOL0     H93116   5.672   6.025   7.602 -4.4604 -1.4502  0.0364
  690MOL0     H93117   5.795   5.938   7.491 -1.2429 -2.5302 -3.8908
  690MOL0     H93118   5.739   6.078   7.309 -3.0122 -0.2064 -1.0617
  690MOL0     H93119   5.608   6.153   7.394 -1.8905 -2.4017  1.3831
  690MOL0     H93120   5.904   6.176   7.472 -0.9125 -0.8845  2.3640
  690MOL0     H93121   5.775   6.245   7.569 -0.0905 -0.4157  0.0765
  690MOL0     H93122   5.706   6.371   7.354  0.1549 -1.2074 -4.1485
  690MOL0     H93123   5.848   6.299   7.275  1.6531  1.1360 -0.6121
  690MOL0     H93124   5.870   6.541   7.360  2.3050  0.5943  0.3248
  690MOL0     H93125   5.907   6.457   7.514 -0.5905 -1.2445  0.2525
  690MOL0     H93126   6.091   6.322   7.389 -0.3503 -2.5436 -3.3767
  690MOL0     H93127   6.115   6.497   7.415 -0.6318  0.7307 -0.4643
  690MOL0     H93128   6.010   6.382   7.150 -4.8102  2.0673  1.3103
  690MOL0     H93129   6.036   6.549   7.192  2.8829  0.9875  0.3982
  690MOL0     H93130   5.276   6.063   7.426  0.6638 -0.3028 -1.5788
  690MOL0     H93131   5.043   5.971   7.382  1.9853  2.5012  1.4648
  690MOL0     H93132   4.718   5.590   7.545 -3.8140 -0.3915  1.6360
  690MOL0     H93133   4.480   5.529   7.486 -2.8956 -1.3034 -3.4774
  690MOL0     H93134   4.863   4.348   6.411  0.1910  2.0621 -1.1255
  690MOL0     H93135   5.054   4.278   6.275 -0.2611 -0.3374  0.1128
  690MOL0     H93136   5.189   4.020   5.891  0.3314  0.1282  0.6681
  690MOL0     H93137   5.382   3.953   5.786 -2.2833  0.6340  0.5414
  690MOL0     H93138   5.749   4.236   5.808  1.4183 -1.4435  1.7942
  690MOL0     H93139   5.700   4.212   5.640 -0.4265 -1.9858 -0.4781
  690MOL0     H93140   5.839   4.011   5.659  0.5236 -1.3543  1.0576
  690MOL0     H93141   5.880   4.029   5.831  0.5163 -0.4258 -0.8702
  690MOL0     H93142   6.005   4.255   5.766 -0.3977 -0.1658  0.8316
  690MOL0     H93143   5.960   4.232   5.609  2.2327  1.2955  0.5999
  690MOL0     H93144   6.142   4.026   5.734 -0.8039 -2.7102 -1.8763
  690MOL0     H93145   6.072   4.028   5.567 -0.2623  0.5839 -0.4991
  690MOL0     H93146   6.368   4.328   5.580 -0.5132  0.8599  1.1605
  690MOL0     H93147   5.585   4.303   5.877  0.8396 -0.5261  1.0626
  690MOL0     H93148   5.513   4.456   6.009 -0.3903  0.3319 -1.3064
  690MOL0     H93149   5.344   4.513   5.978  1.1278 -0.1011 -0.6012
  690MOL0     H93150   5.385   4.417   6.119  1.8014 -2.3930  0.9123
  691MOL0     O93151  10.661   5.838   3.553 -1.2653 -0.5169 -0.0028
  691MOL0     C93152  10.725   5.792   3.652 -0.0539 -0.3661  0.9104
  691MOL0     O93153  10.811   5.696   3.645  0.0093  0.1297 -0.5337
  691MOL0     C93154  10.846   5.644   3.525  0.5986  0.3430  0.6403
  691MOL0     C93155  10.776   5.529   3.476  0.7706  0.1793  0.5576
  691MOL0     C93156  10.806   5.468   3.354 -0.6160  0.1312 -0.3359
  691MOL0     C93157  10.913   5.525   3.281  0.2289 -0.7143  0.3928
  691MOL0     O93158  10.963   5.469   3.165 -0.1949  0.3932  0.1719
  691MOL0     C93159  10.869   5.373   3.105 -0.8888 -0.1983  0.0728
  691MOL0     C93160  10.916   5.310   2.980 -0.0932 -0.2674  0.0472
  691MOL0     C93161  10.888   5.390   2.850  0.0292 -0.3315 -0.0796
  691MOL0     C93162  10.933   5.313   2.721  0.4710  0.4711 -0.5338
  691MOL0     C93163  11.078   5.256   2.727  0.1328 -0.5600 -0.8486
  691MOL0     C93164  11.118   5.209   2.591  0.7752 -0.0386  0.6876
  691MOL0     C93165  11.122   5.315   2.481  0.5429 -0.1515  0.3467
  691MOL0     C93166  11.194   5.263   2.353  0.5909  0.4280 -0.2147
  691MOL0     N93167  11.222   5.385   2.286  0.3787 -1.1004  0.4833
  691MOL0     C93168  11.140   5.446   2.189 -0.7766  0.3686  0.1309
  691MOL0     C93169  11.204   5.563   2.154 -0.7645  0.0353  0.1198
  691MOL0     C93170  11.147   5.670   2.076  0.2289 -0.2295  0.3928
  691MOL0     C93171  10.999   5.699   2.128 -0.2773  0.4912  0.4190
  691MOL0     C93172  10.936   5.831   2.085  0.7793 -0.2813  0.2320
  691MOL0     C93173  10.795   5.845   2.134 -0.3195 -0.2683  0.1516
  691MOL0     O93174  10.780   5.857   2.277 -0.0677  0.8092 -0.1445
  691MOL0     C93175  10.668   5.922   2.322  0.4393  0.8073  0.1844
  691MOL0     C93176  10.657   5.985   2.445  0.3041 -0.3564 -0.2383
  691MOL0     C93177  10.544   6.057   2.485 -0.1536  0.6025  0.6396
  691MOL0     C93178  10.428   6.058   2.402 -0.1647 -0.1025 -0.1298
  691MOL0     C93179  10.314   6.138   2.441 -0.0094  0.4919 -0.0264
  691MOL0     O93180  10.235   6.180   2.336  0.6395  0.3101  0.5991
  691MOL0     C93181  10.134   6.270   2.370 -0.3624 -0.5582  1.0765
  691MOL0     C93182  10.010   6.228   2.401  0.1740 -0.4768  1.3777
  691MOL0     C93183   9.907   6.321   2.424  0.6915  0.5682 -0.4933
  691MOL0     C93184   9.937   6.457   2.434  0.0903  0.1157 -0.0239
  691MOL0     O93185   9.840   6.537   2.481 -0.1088  0.3753 -0.1203
  691MOL0     C93186   9.880   6.673   2.518  0.2426  0.3824  0.2057
  691MOL0     C93187   9.767   6.735   2.595 -0.5748  0.9663 -0.8905
  691MOL0     C93188   9.810   6.879   2.618  0.5857 -0.4060 -0.0933
  691MOL0     C93189   9.719   6.943   2.712 -0.4816 -0.3835 -0.4876
  691MOL0     C93190   9.781   7.078   2.759  0.3136 -0.4789 -0.3993
  691MOL0     C93191   9.708   7.169   2.867  0.1830  0.0892  0.4477
  691MOL0     C93192   9.766   7.311   2.891 -0.0112 -0.4209  0.1214
  691MOL0     C93193   9.681   7.381   2.994 -0.4802  0.4115  0.0259
  691MOL0    Cl93194   9.514   7.397   2.943 -0.0524 -0.3152  0.2745
  691MOL0     C93195  10.070   6.498   2.419 -0.4519  0.3735 -1.2208
  691MOL0     C93196  10.168   6.403   2.394  0.0441 -0.2393  0.6279
  691MOL0     O93197  10.297   6.168   2.563 -1.0231  0.1333  0.0158
  691MOL0     C93198  10.433   5.995   2.282  0.0900 -0.0385 -0.7345
  691MOL0     C93199  10.552   5.932   2.240 -0.5640  0.2164 -0.7577
  691MOL0     N93200  11.324   5.570   2.224  0.8763  0.6345  0.2824
  691MOL0     N93201  11.332   5.461   2.291  0.6440 -0.2813 -0.9044
  691MOL0     C93202  10.975   5.644   3.323  0.4640 -0.0390  0.2400
  691MOL0     C93203  10.944   5.699   3.448  0.1067  0.1523 -0.7524
  691MOL0     C93204  10.686   5.841   3.781 -0.6185 -1.1299  0.1408
  691MOL0     C93205  10.751   5.958   3.821  0.1948  0.1748  0.3222
  691MOL0     C93206  10.720   6.012   3.944 -1.1183  0.7804  0.4731
  691MOL0     C93207  10.654   5.934   4.045 -0.5928  0.1252 -0.2608
  691MOL0     O93208  10.643   5.973   4.176 -0.9239 -0.6085 -0.6024
  691MOL0     C93209  10.747   6.062   4.224  0.0872 -0.3887 -0.1677
  691MOL0     C93210  10.813   6.007   4.356 -0.2327 -0.5225 -0.2809
  691MOL0     C93211  10.728   5.977   4.483  0.6154 -0.4339  0.2817
  691MOL0     C93212  10.653   6.100   4.524  0.1739 -0.8595 -0.4975
  691MOL0     C93213  10.718   6.230   4.552 -0.4844  0.7662 -1.0139
  691MOL0     C93214  10.779   6.322   4.581 -0.7607 -0.2360  0.5579
  691MOL0     C93215  10.601   5.815   4.004 -0.1129 -0.0783  0.8990
  691MOL0     C93216  10.615   5.759   3.875 -0.5557 -0.2227  0.8383
  691MOL0     C93217  10.546   5.625   3.844  0.0993 -0.0874 -0.7284
  691MOL0     H93218  10.695   5.476   3.525  0.8398 -1.0256 -0.5834
  691MOL0     H93219  10.742   5.386   3.322 -1.0333  1.1845 -2.3964
  691MOL0     H93220  10.853   5.281   3.162 -1.8229  0.4005  0.7956
  691MOL0     H93221  10.774   5.424   3.091 -1.5235 -1.1262  0.8776
  691MOL0     H93222  10.872   5.210   2.973 -1.8246  0.3990  0.7710
  691MOL0     H93223  11.024   5.309   2.995 -0.1671  0.0824  0.6372
  691MOL0     H93224  10.940   5.486   2.860 -1.4909  0.7335 -1.7601
  691MOL0     H93225  10.781   5.413   2.847  0.3128  1.1373  0.5509
  691MOL0     H93226  10.862   5.232   2.702 -0.6809  1.3714 -0.1524
  691MOL0     H93227  10.921   5.379   2.635  0.7977 -2.3978 -2.9658
  691MOL0     H93228  11.149   5.327   2.770 -1.2135  0.0161  0.5216
  691MOL0     H93229  11.093   5.164   2.785  1.7613  1.2123  1.7849
  691MOL0     H93230  11.215   5.160   2.604 -0.2658 -2.3293  0.2150
  691MOL0     H93231  11.047   5.129   2.567  0.2102  0.4474  0.7106
  691MOL0     H93232  11.188   5.391   2.523 -0.4048  1.6802 -1.3476
  691MOL0     H93233  11.025   5.359   2.458  0.2783 -1.4044 -1.1185
  691MOL0     H93234  11.287   5.207   2.364 -0.1566 -0.5014  1.8179
  691MOL0     H93235  11.122   5.199   2.301  0.9896 -1.5652  1.5876
  691MOL0     H93236  11.041   5.414   2.160  0.5808 -3.2776 -1.0962
  691MOL0     H93237  11.213   5.757   2.069 -0.3115  0.2766  1.4020
  691MOL0     H93238  11.134   5.645   1.970  2.7242  3.5030 -1.0001
  691MOL0     H93239  10.934   5.614   2.107  2.2378 -1.7993  1.2927
  691MOL0     H93240  11.004   5.700   2.238  1.5530 -1.0034  0.4043
  691MOL0     H93241  10.928   5.837   1.976 -1.0860  1.7956  0.4162
  691MOL0     H93242  10.995   5.916   2.121  4.1675 -1.1152 -2.7990
  691MOL0     H93243  10.744   5.751   2.108 -0.0536 -0.6765  1.0772
  691MOL0     H93244  10.758   5.935   2.084  0.7078  0.0078 -0.1286
  691MOL0     H93245  10.735   5.995   2.520 -0.4729 -2.8961  1.0299
  691MOL0     H93246  10.545   6.100   2.585  0.2029  0.5564  0.6579
  691MOL0     H93247   9.990   6.123   2.384 -1.6046 -0.1908  1.5554
  691MOL0     H93248   9.804   6.288   2.437  0.5533  0.7555 -1.0624
  691MOL0     H93249   9.969   6.671   2.582  0.5631  2.1390 -0.1203
  691MOL0     H93250   9.896   6.735   2.429 -1.5432  2.5762  1.2943
  691MOL0     H93251   9.668   6.724   2.551 -2.2942  2.9547  2.1362
  691MOL0     H93252   9.762   6.688   2.694  1.8061  0.3472 -0.9908
  691MOL0     H93253   9.910   6.880   2.661  1.3127  1.1916 -1.7322
  691MOL0     H93254   9.820   6.941   2.528 -2.1994 -0.8582 -0.8233
  691MOL0     H93255   9.691   6.878   2.795 -3.2699  0.3944 -0.7199
  691MOL0     H93256   9.623   6.963   2.664 -2.9462 -1.8465  3.3969
  691MOL0     H93257   9.802   7.142   2.673 -3.7356  0.1574 -1.0950
  691MOL0     H93258   9.879   7.060   2.804  0.0693 -0.2093  0.2552
  691MOL0     H93259   9.602   7.162   2.841  0.4774 -0.9536 -0.5730
  691MOL0     H93260   9.712   7.118   2.963  3.1579 -1.4808 -0.3653
  691MOL0     H93261   9.753   7.377   2.805 -0.2490 -1.5416 -0.7144
  691MOL0     H93262   9.874   7.300   2.905  0.2522 -0.2548 -1.6045
  691MOL0     H93263   9.688   7.328   3.090 -1.4196  1.1917  0.5492
  691MOL0     H93264   9.715   7.482   3.018 -1.4176  1.4851 -2.8297
  691MOL0     H93265  10.124   6.591   2.434  1.3944 -1.0344  1.6995
  691MOL0     H93266  10.274   6.421   2.382  0.4328 -3.2978 -1.9818
  691MOL0     H93267  10.349   6.002   2.214 -0.1729 -1.8171 -0.6194
  691MOL0     H93268  10.551   5.893   2.138 -0.1116 -2.6803  0.2636
  691MOL0     H93269  11.062   5.690   3.277  0.7282  0.5043  1.2609
  691MOL0     H93270  11.005   5.781   3.485 -0.4364  0.2786 -0.1194
  691MOL0     H93271  10.810   6.007   3.744  1.7536  1.6263  2.3253
  691MOL0     H93272  10.772   6.105   3.963  1.0122 -0.3992  0.7372
  691MOL0     H93273  10.718   6.167   4.235  1.5403  0.0101  0.0874
  691MOL0     H93274  10.834   6.067   4.159 -0.1099 -2.7289 -0.7255
  691MOL0     H93275  10.890   6.081   4.380 -0.2668 -0.8884  1.0315
  691MOL0     H93276  10.855   5.909   4.332 -4.0764 -2.1906 -0.9119
  691MOL0     H93277  10.788   5.937   4.565  0.4357  0.8851  1.0903
  691MOL0     H93278  10.649   5.903   4.471 -0.1740  0.2257  1.2236
  691MOL0     H93279  10.578   6.117   4.447  0.1857  1.0936 -0.1118
  691MOL0     H93280  10.601   6.063   4.612  2.2434 -0.8871  0.7903
  691MOL0     H93281  10.853   6.395   4.605  0.7866 -2.0876  1.7308
  691MOL0     H93282  10.544   5.763   4.081 -1.4315 -1.0133 -0.6538
  691MOL0     H93283  10.519   5.581   3.940 -1.5684  2.0918 -0.1112
  691MOL0     H93284  10.459   5.653   3.783 -1.1236 -1.0902  0.4946
  691MOL0     H93285  10.608   5.557   3.785 -1.4456 -2.4083  0.2185
  692MOL0     O93286   9.148   5.700  10.748 -0.7785 -0.3437  0.3161
  692MOL0     C93287   9.116   5.577  10.742 -0.7558 -0.8820 -0.1169
  692MOL0     O93288   8.997   5.525  10.786  0.4079 -0.0164 -0.0656
  692MOL0     C93289   8.907   5.594  10.856  0.4275  0.6683 -0.4764
  692MOL0     C93290   8.781   5.541  10.860 -0.1320  0.1720  0.5257
  692MOL0     C93291   8.677   5.606  10.930  0.7049 -0.2594 -0.5437
  692MOL0     C93292   8.697   5.732  10.987  0.5397  1.1877  0.4327
  692MOL0     O93293   8.585   5.793  11.040 -0.0478  0.4221 -0.5680
  692MOL0     C93294   8.586   5.927  11.086 -0.1121  0.5510 -0.6169
  692MOL0     C93295   8.453   5.976  11.139  1.5516  0.2724 -0.1090
  692MOL0     C93296   8.461   6.122  11.193  0.3578  0.3637 -0.4428
  692MOL0     C93297   8.326   6.185  11.235  0.0017  0.0674 -0.7298
  692MOL0     C93298   8.350   6.299  11.341 -0.0487 -0.4889 -0.6307
  692MOL0     C93299   8.229   6.390  11.364 -0.5323 -0.3515 -0.5941
  692MOL0     C93300   8.275   6.505  11.439 -0.2504  0.4167 -0.0365
  692MOL0     C93301   8.157   6.603  11.424 -0.3188  0.4677 -0.1141
  692MOL0     N93302   8.114   6.656  11.552 -0.3070 -0.2917  0.8712
  692MOL0     C93303   8.190   6.730  11.643  0.3408  0.0594 -0.0116
  692MOL0     C93304   8.094   6.801  11.714 -0.6957 -0.6863  0.1450
  692MOL0     C93305   8.111   6.904  11.822 -0.5936  0.2151  0.0199
  692MOL0     C93306   8.144   7.048  11.772 -0.2464  0.2017 -0.6320
  692MOL0     C93307   8.164   7.153  11.882 -0.0659 -0.0007  0.4347
  692MOL0     C93308   8.042   7.158  11.988 -0.9465 -0.8885  0.0003
  692MOL0     O93309   8.028   7.284  12.037 -0.4765  0.3745 -0.2789
  692MOL0     C93310   8.055   7.306  12.164 -0.1171 -0.5900 -0.8582
  692MOL0     C93311   7.972   7.397  12.231  0.5830  0.3946 -0.1907
  692MOL0     C93312   8.016   7.441  12.362 -0.1238  0.7264  0.1508
  692MOL0     C93313   8.117   7.380  12.430  0.5478  0.3666 -0.0123
  692MOL0     C93314   8.154   7.419  12.576  0.2921 -0.4999 -1.0326
  692MOL0     O93315   8.262   7.367  12.631 -0.6914 -0.4592 -0.3418
  692MOL0     C93316   8.332   7.441  12.725 -0.2690  0.1628 -0.3136
  692MOL0     C93317   8.436   7.374  12.785 -0.4941  0.0086 -0.4145
  692MOL0     C93318   8.513   7.434  12.892 -0.4431  0.1124 -0.2678
  692MOL0     C93319   8.479   7.562  12.930  0.6621  0.3071  1.2936
  692MOL0     O93320   8.553   7.612  13.033  0.2788  0.7155 -0.2896
  692MOL0     C93321   8.494   7.699  13.131  0.0950 -0.0981  0.4901
  692MOL0     C93322   8.518   7.662  13.269  0.1800 -0.0661  1.2461
  692MOL0     C93323   8.647   7.729  13.323 -1.7036  0.1955  0.8245
  692MOL0     C93324   8.662   7.674  13.464 -0.2547 -0.3980 -0.3554
  692MOL0     C93325   8.805   7.710  13.533 -0.4880  0.5746  0.3443
  692MOL0     C93326   8.838   7.858  13.536  0.3628 -0.8942 -0.4751
  692MOL0     C93327   8.728   7.954  13.591 -0.0970 -0.1061 -0.4553
  692MOL0     C93328   8.788   8.094  13.593 -1.0110 -0.3293 -0.0566
  692MOL0    Cl93329   8.667   8.202  13.682 -0.0463  0.1878 -0.2910
  692MOL0     C93330   8.383   7.641  12.857 -0.2599 -0.1666  0.0436
  692MOL0     C93331   8.313   7.577  12.751 -0.5419 -0.8075  0.1761
  692MOL0     O93332   8.079   7.499  12.629 -0.3030  0.1533  0.1166
  692MOL0     C93333   8.195   7.272  12.361 -0.7784 -0.7282  0.2071
  692MOL0     C93334   8.168   7.250  12.229 -0.3857  0.1700  0.0506
  692MOL0     N93335   7.977   6.756  11.668  0.6093  0.0230 -0.1836
  692MOL0     N93336   7.981   6.654  11.590  0.3588 -0.0691 -0.4120
  692MOL0     C93337   8.830   5.776  10.997 -0.4940  0.4200  0.4729
  692MOL0     C93338   8.934   5.712  10.931  1.0214 -0.1094  0.2757
  692MOL0     C93339   9.201   5.485  10.664 -0.1286  0.6418  0.7396
  692MOL0     C93340   9.133   5.359  10.620 -0.2935 -0.4828  0.0933
  692MOL0     C93341   9.215   5.267  10.561  0.1948 -0.1306  0.6616
  692MOL0     C93342   9.349   5.284  10.534  0.5004  0.5893  0.0419
  692MOL0     O93343   9.403   5.182  10.460 -0.5256 -0.2205  0.0561
  692MOL0     C93344   9.544   5.146  10.467 -1.0146 -0.2819 -0.6277
  692MOL0     C93345   9.545   5.019  10.547 -0.1310 -0.6528 -0.4601
  692MOL0     C93346   9.492   5.041  10.698  1.2134  0.4283 -0.7741
  692MOL0     C93347   9.511   4.923  10.792  0.0108  0.9911  0.1233
  692MOL0     C93348   9.651   4.888  10.828 -0.0305 -0.4444 -0.4389
  692MOL0     C93349   9.766   4.860  10.869  0.4404  0.1480  0.0131
  692MOL0     C93350   9.412   5.408  10.569 -0.1247  0.8209 -1.0100
  692MOL0     C93351   9.340   5.511  10.628  0.2769  0.0422  0.7832
  692MOL0     C93352   9.419   5.638  10.684  0.2855 -0.0276  0.2720
  692MOL0     H93353   8.782   5.442  10.816  2.0557  0.6795 -0.6594
  692MOL0     H93354   8.577   5.567  10.940  1.6599 -3.0523 -0.9367
  692MOL0     H93355   8.657   5.938  11.169 -2.4287 -0.9780  1.7400
  692MOL0     H93356   8.621   5.975  10.995  2.5507 -1.1596 -0.6126
  692MOL0     H93357   8.420   5.907  11.217  1.1760  1.0247  0.4127
  692MOL0     H93358   8.383   5.980  11.055  1.0976 -1.0114  0.1890
  692MOL0     H93359   8.516   6.183  11.121 -0.7536 -0.8517 -2.4340
  692MOL0     H93360   8.519   6.117  11.285 -1.3434 -2.0181  0.6079
  692MOL0     H93361   8.270   6.222  11.148 -4.0349 -1.3394  1.0398
  692MOL0     H93362   8.255   6.114  11.277 -0.8712  0.9920 -0.5929
  692MOL0     H93363   8.381   6.258  11.438  0.1050  2.8883  0.9000
  692MOL0     H93364   8.428   6.369  11.312  0.3213 -0.1836  0.9934
  692MOL0     H93365   8.184   6.416  11.268  1.5051 -1.1583 -1.8428
  692MOL0     H93366   8.153   6.345  11.428 -2.1855  2.9122 -0.0610
  692MOL0     H93367   8.367   6.554  11.406  0.6491 -1.2531 -0.0902
  692MOL0     H93368   8.296   6.478  11.543 -2.4552  2.1381  0.9406
  692MOL0     H93369   8.199   6.690  11.373 -2.2996  1.5725  0.0781
  692MOL0     H93370   8.064   6.567  11.379  0.1161  0.8651 -1.3694
  692MOL0     H93371   8.297   6.746  11.650  0.0256  1.4747  3.3142
  692MOL0     H93372   8.013   6.921  11.868 -0.8931 -2.0047  0.3359
  692MOL0     H93373   8.181   6.870  11.899 -1.2392 -2.7248 -0.5716
  692MOL0     H93374   8.236   7.051  11.713  0.1221 -0.1978 -0.0888
  692MOL0     H93375   8.064   7.080  11.705 -2.4209 -1.8356  0.8461
  692MOL0     H93376   8.159   7.248  11.828  0.0962  0.7574  1.7034
  692MOL0     H93377   8.265   7.129  11.916  0.5895 -0.4818 -1.7381
  692MOL0     H93378   8.049   7.084  12.068 -2.8583 -0.4504  0.6368
  692MOL0     H93379   7.946   7.130  11.943 -0.7996 -2.3932  0.5622
  692MOL0     H93380   7.889   7.441  12.175  0.5658 -0.0564 -0.5280
  692MOL0     H93381   7.964   7.526  12.407 -1.3287  0.3924 -0.5597
  692MOL0     H93382   8.452   7.269  12.760 -0.3466  0.0333 -0.4212
  692MOL0     H93383   8.596   7.385  12.942 -2.1358 -4.1376 -1.1608
  692MOL0     H93384   8.518   7.802  13.104  1.0233 -0.5864 -0.6515
  692MOL0     H93385   8.387   7.690  13.115  0.1500  1.4959 -1.0303
  692MOL0     H93386   8.432   7.687  13.332 -0.6693  0.5627 -0.1109
  692MOL0     H93387   8.534   7.553  13.274  0.1082 -0.2041 -0.7232
  692MOL0     H93388   8.732   7.707  13.257 -2.1970  0.1358  0.1867
  692MOL0     H93389   8.655   7.837  13.315  1.3581 -0.0751 -3.6897
  692MOL0     H93390   8.653   7.565  13.471 -2.3039 -0.1717  1.6500
  692MOL0     H93391   8.590   7.719  13.533  1.1308 -1.4342  1.9199
  692MOL0     H93392   8.879   7.653  13.477  2.9206  1.1006  3.8506
  692MOL0     H93393   8.813   7.670  13.635  2.8305 -0.6045 -0.2440
  692MOL0     H93394   8.930   7.869  13.593 -0.3890 -0.7117  0.7369
  692MOL0     H93395   8.858   7.885  13.432 -0.4502 -0.2263 -0.4693
  692MOL0     H93396   8.704   7.923  13.693 -0.4677 -0.9605 -0.7968
  692MOL0     H93397   8.637   7.950  13.529 -1.5530 -0.9565  1.6305
  692MOL0     H93398   8.880   8.082  13.652 -1.3351 -0.1357  0.4968
  692MOL0     H93399   8.812   8.127  13.492 -2.5398 -0.4153 -0.4804
  692MOL0     H93400   8.362   7.742  12.891  0.2355  0.0504 -0.2782
  692MOL0     H93401   8.255   7.659  12.709  0.9111  0.3411  0.3419
  692MOL0     H93402   8.283   7.228  12.405 -1.3487 -0.8887  1.2313
  692MOL0     H93403   8.238   7.193  12.169  3.1622 -0.7245  4.4492
  692MOL0     H93404   8.852   5.872  11.045 -1.7433  0.0215  1.9204
  692MOL0     H93405   9.036   5.742  10.949  1.0485 -0.5461  0.8607
  692MOL0     H93406   9.025   5.357  10.632 -0.9620  0.2154 -4.1026
  692MOL0     H93407   9.169   5.175  10.526 -1.3339  1.4602 -1.8339
  692MOL0     H93408   9.614   5.202  10.529 -0.5924 -3.8435  2.4607
  692MOL0     H93409   9.590   5.135  10.368 -1.6845 -1.6160 -0.8124
  692MOL0     H93410   9.646   4.979  10.555  1.0516  2.3772  1.3132
  692MOL0     H93411   9.486   4.944  10.493 -0.3384 -1.9024  1.4152
  692MOL0     H93412   9.384   5.060  10.696  0.8590 -0.7305  2.3982
  692MOL0     H93413   9.541   5.122  10.753 -0.8506  0.3639  1.3133
  692MOL0     H93414   9.454   4.926  10.885  0.1692 -0.2988  0.2796
  692MOL0     H93415   9.458   4.845  10.736  2.0310  0.1966 -0.7770
  692MOL0     H93416   9.869   4.842  10.892 -0.0937 -1.2685  1.3698
  692MOL0     H93417   9.519   5.409  10.552  0.5461 -1.5541  2.0722
  692MOL0     H93418   9.380   5.726  10.631  3.2793  1.3300  0.1249
  692MOL0     H93419   9.404   5.646  10.792 -1.2324 -1.3296  0.1943
  692MOL0     H93420   9.527   5.638  10.663  0.6987 -1.0112  2.1897
  693MOL0     O93421   5.719   2.443   3.790  0.3157  0.3666 -1.0983
  693MOL0     C93422   5.733   2.381   3.893 -0.4158  0.4011 -0.4056
  693MOL0     O93423   5.669   2.416   4.017 -0.4955 -0.0174  1.0143
  693MOL0     C93424   5.621   2.546   4.030  0.3104  0.0556  1.0106
  693MOL0     C93425   5.504   2.584   3.963  0.9018 -0.4202  0.0048
  693MOL0     C93426   5.454   2.717   3.968 -0.2758 -0.4676  0.4620
  693MOL0     C93427   5.529   2.811   4.045  0.2685  0.0178 -0.2545
  693MOL0     O93428   5.495   2.949   4.057 -0.8107  0.4349  0.0857
  693MOL0     C93429   5.437   3.021   3.951 -0.0765 -0.4476  0.5690
  693MOL0     C93430   5.463   3.174   3.962  0.2036  0.2507 -1.0708
  693MOL0     C93431   5.574   3.222   3.867  0.4051  0.1980 -0.4309
  693MOL0     C93432   5.571   3.375   3.876 -0.2382 -0.3498 -0.5219
  693MOL0     C93433   5.650   3.427   3.758  0.2192  0.2105  0.1059
  693MOL0     C93434   5.690   3.566   3.800  0.2266 -0.2263  0.9879
  693MOL0     C93435   5.768   3.630   3.688 -0.4100 -0.0871  0.1057
  693MOL0     C93436   5.837   3.753   3.744 -1.2627  0.1578 -0.3787
  693MOL0     N93437   5.832   3.848   3.639  0.0362 -0.6928  0.2689
  693MOL0     C93438   5.923   3.853   3.539 -0.2828  0.3431  0.1783
  693MOL0     C93439   5.883   3.943   3.452 -0.0975  0.3219 -0.2022
  693MOL0     C93440   5.966   4.002   3.333 -0.4565  0.2500  0.7561
  693MOL0     C93441   6.113   3.989   3.348  0.0660  0.2806  0.4558
  693MOL0     C93442   6.188   4.083   3.241 -0.2142 -0.9559 -0.5321
  693MOL0     C93443   6.335   4.110   3.270 -0.7069 -0.5267  0.3631
  693MOL0     O93444   6.406   3.984   3.282  0.3723  0.2062 -0.2373
  693MOL0     C93445   6.456   3.922   3.173 -0.1873 -0.0092 -0.2645
  693MOL0     C93446   6.524   3.798   3.182 -0.2465  0.0109 -1.1908
  693MOL0     C93447   6.591   3.736   3.080  0.3290 -0.3529 -0.2377
  693MOL0     C93448   6.602   3.796   2.950  1.0674  0.3406  0.4027
  693MOL0     C93449   6.692   3.752   2.839 -0.1584 -0.7641  0.3496
  693MOL0     O93450   6.643   3.779   2.706 -0.0633  0.0474  0.0206
  693MOL0     C93451   6.695   3.712   2.601 -0.2645  0.5014 -0.4480
  693MOL0     C93452   6.642   3.748   2.482 -0.0677 -0.3555  0.9319
  693MOL0     C93453   6.672   3.684   2.361 -0.7708  0.1069  0.5013
  693MOL0     C93454   6.771   3.591   2.358  0.2391  0.5077  0.5255
  693MOL0     O93455   6.795   3.539   2.233 -0.8275 -0.0928 -0.0739
  693MOL0     C93456   6.895   3.439   2.210 -0.3297  0.6078  0.7023
  693MOL0     C93457   6.879   3.392   2.064  0.8749  0.7875  0.2102
  693MOL0     C93458   6.754   3.292   2.052 -0.6758  0.5045 -0.7236
  693MOL0     C93459   6.656   3.315   1.938  0.7360 -0.1847  0.2034
  693MOL0     C93460   6.541   3.211   1.938 -0.3830  0.1337 -0.4092
  693MOL0     C93461   6.452   3.215   1.811 -0.4745  0.4795  0.4052
  693MOL0     C93462   6.400   3.360   1.777  0.7804  0.6058  0.3327
  693MOL0     C93463   6.283   3.343   1.677  0.5829 -0.1009 -0.7586
  693MOL0    Cl93464   6.127   3.353   1.771 -0.0368 -0.6123  0.3065
  693MOL0     C93465   6.831   3.544   2.478  0.5059  0.3807  0.4875
  693MOL0     C93466   6.788   3.607   2.595 -0.2438 -0.7069 -0.9511
  693MOL0     O93467   6.790   3.684   2.861 -0.7198 -0.2526 -0.4382
  693MOL0     C93468   6.521   3.919   2.931 -0.0956 -0.1824 -1.1694
  693MOL0     C93469   6.451   3.975   3.041  0.1216 -0.0009  0.1953
  693MOL0     N93470   5.773   4.003   3.505  0.3494  0.5984  0.1957
  693MOL0     N93471   5.741   3.947   3.618  0.8195 -0.2588 -0.4425
  693MOL0     C93472   5.624   2.762   4.136 -0.2273 -0.6860  0.2792
  693MOL0     C93473   5.670   2.630   4.125  0.7261  1.0255 -0.9401
  693MOL0     C93474   5.805   2.254   3.875  0.2498  0.6002 -0.2820
  693MOL0     C93475   5.911   2.225   3.961 -0.1011 -0.2823  0.2508
  693MOL0     C93476   5.990   2.108   3.939  0.4402 -0.6573  0.8067
  693MOL0     C93477   5.958   2.023   3.831 -1.0977  0.6683  0.7981
  693MOL0     O93478   6.032   1.906   3.819 -0.0744  0.0269  1.0082
  693MOL0     C93479   5.992   1.815   3.714 -0.6345 -0.2417 -0.7051
  693MOL0     C93480   6.050   1.675   3.752  0.0153  0.3327  0.5942
  693MOL0     C93481   6.053   1.572   3.633 -0.2310  0.0894  1.0836
  693MOL0     C93482   6.147   1.452   3.682  0.2632 -0.1994 -0.2631
  693MOL0     C93483   6.109   1.392   3.810  0.0853 -0.8029 -0.0208
  693MOL0     C93484   6.095   1.332   3.911  0.3038 -1.1836  0.4058
  693MOL0     C93485   5.851   2.057   3.752 -0.5651 -0.2407  0.0617
  693MOL0     C93486   5.768   2.165   3.772 -0.1962  0.6077 -0.0422
  693MOL0     C93487   5.654   2.194   3.673  0.7616  0.0941  0.4437
  693MOL0     H93488   5.465   2.511   3.893 -1.2944  1.4668 -0.8832
  693MOL0     H93489   5.374   2.749   3.901  1.9246  2.0395 -1.1650
  693MOL0     H93490   5.470   2.987   3.852  0.3717  1.3982  0.0410
  693MOL0     H93491   5.329   3.007   3.951 -0.4368  1.9564 -0.0447
  693MOL0     H93492   5.478   3.188   4.069 -2.3825  3.1549 -0.9333
  693MOL0     H93493   5.366   3.223   3.947  0.2846  1.4758  1.8133
  693MOL0     H93494   5.555   3.187   3.765 -1.0148  4.4842 -1.8658
  693MOL0     H93495   5.674   3.190   3.898  0.1972  0.9697  1.0896
  693MOL0     H93496   5.474   3.426   3.883  0.3075  0.5425  1.3245
  693MOL0     H93497   5.620   3.398   3.971 -0.6193 -3.1871  0.4655
  693MOL0     H93498   5.737   3.363   3.740  0.4355  0.5827 -0.1823
  693MOL0     H93499   5.589   3.421   3.667 -1.7233 -2.7810  1.4612
  693MOL0     H93500   5.602   3.626   3.824  0.1469 -0.1505  0.5059
  693MOL0     H93501   5.750   3.551   3.891  0.5610 -0.0449  0.7987
  693MOL0     H93502   5.701   3.654   3.605  2.8307 -2.5060 -3.6259
  693MOL0     H93503   5.840   3.558   3.648 -2.0157 -1.3171 -0.6489
  693MOL0     H93504   5.778   3.790   3.829 -1.7259  0.4146 -0.8061
  693MOL0     H93505   5.939   3.722   3.767 -1.6095 -1.8276 -1.3865
  693MOL0     H93506   6.018   3.803   3.523 -0.7883 -0.8206  0.6519
  693MOL0     H93507   5.953   3.941   3.242  5.7003 -0.3782 -0.1102
  693MOL0     H93508   5.929   4.103   3.314 -2.0127 -0.2812  0.7999
  693MOL0     H93509   6.127   4.014   3.454  1.2720 -3.6368  1.3817
  693MOL0     H93510   6.137   3.883   3.338 -0.6718  0.1371  0.1526
  693MOL0     H93511   6.137   4.180   3.233 -2.5657 -2.2125 -2.4949
  693MOL0     H93512   6.167   4.040   3.143 -1.9376  0.5603 -0.8808
  693MOL0     H93513   6.338   4.152   3.371 -0.5881 -0.2468  0.2439
  693MOL0     H93514   6.376   4.188   3.205 -0.9130  2.2698  3.3216
  693MOL0     H93515   6.547   3.771   3.285 -1.5314 -2.3640 -1.4545
  693MOL0     H93516   6.664   3.656   3.089  3.4777  2.3087 -0.0956
  693MOL0     H93517   6.575   3.833   2.487 -0.4671 -0.7414  3.7284
  693MOL0     H93518   6.625   3.695   2.263  1.2572  1.2359 -0.3953
  693MOL0     H93519   6.995   3.483   2.215 -0.1618  0.7294 -2.2338
  693MOL0     H93520   6.880   3.345   2.265 -1.5768 -1.1387 -2.3573
  693MOL0     H93521   6.871   3.468   1.986 -2.4461  0.4315  0.0850
  693MOL0     H93522   6.964   3.330   2.032 -0.2851  0.1341 -1.7505
  693MOL0     H93523   6.784   3.189   2.029 -1.1018 -0.8424  3.8150
  693MOL0     H93524   6.698   3.278   2.145 -2.1596 -1.0575 -1.7857
  693MOL0     H93525   6.711   3.300   1.844  1.6503 -2.4158  1.0116
  693MOL0     H93526   6.610   3.414   1.931 -1.4999 -0.8625  3.2919
  693MOL0     H93527   6.484   3.228   2.030  1.2411  0.8182  0.5117
  693MOL0     H93528   6.587   3.115   1.961  0.3234  1.2564  3.5938
  693MOL0     H93529   6.521   3.180   1.734 -2.7741 -0.3975 -1.3635
  693MOL0     H93530   6.367   3.150   1.835  0.9629 -1.4134  0.6069
  693MOL0     H93531   6.473   3.426   1.730 -1.6848  4.5257  1.5787
  693MOL0     H93532   6.366   3.414   1.866  1.4487  1.8852 -0.1544
  693MOL0     H93533   6.301   3.422   1.603 -0.6039  0.0002 -0.9634
  693MOL0     H93534   6.287   3.254   1.613 -1.1356  0.1841 -1.2935
  693MOL0     H93535   6.899   3.460   2.484 -2.9689 -3.1643 -3.1522
  693MOL0     H93536   6.836   3.566   2.684 -1.3624  0.7488  0.3906
  693MOL0     H93537   6.529   3.956   2.830  1.7438  0.1012 -0.9481
  693MOL0     H93538   6.393   4.064   3.018 -3.0180 -2.3151 -1.6556
  693MOL0     H93539   5.666   2.835   4.204 -0.6996  0.3311 -0.4999
  693MOL0     H93540   5.754   2.583   4.176 -0.7972  0.1553  0.8948
  693MOL0     H93541   5.929   2.300   4.037 -0.5145  1.2778 -1.1395
  693MOL0     H93542   6.077   2.091   4.002  1.1163 -1.7637 -0.3738
  693MOL0     H93543   6.032   1.851   3.618 -2.1435 -1.1903 -1.7234
  693MOL0     H93544   5.884   1.803   3.720 -0.4904 -0.8033  1.4164
  693MOL0     H93545   5.988   1.629   3.830 -2.5241 -2.1613 -2.6057
  693MOL0     H93546   6.148   1.700   3.794 -0.6980  0.1580  2.4565
  693MOL0     H93547   6.097   1.626   3.549  0.9053  2.3800  3.0387
  693MOL0     H93548   5.949   1.538   3.624 -0.1161 -1.4581  4.1452
  693MOL0     H93549   6.141   1.371   3.609  2.6442  0.9109 -1.7848
  693MOL0     H93550   6.253   1.476   3.694  0.8620 -1.8955 -1.7351
  693MOL0     H93551   6.050   1.270   3.986  2.0371 -2.4066  0.4947
  693MOL0     H93552   5.822   1.982   3.679 -1.3360 -2.9357  2.8821
  693MOL0     H93553   5.620   2.104   3.622  2.8157 -1.1735  1.2047
  693MOL0     H93554   5.571   2.250   3.718  0.7698  0.6808 -0.2597
  693MOL0     H93555   5.697   2.265   3.601  1.5625 -1.5968 -0.8104
  694MOL0     O93556   2.628   5.080   9.579 -0.1986  0.6924 -0.6237
  694MOL0     C93557   2.550   4.998   9.640  0.5197  0.1504 -0.2412
  694MOL0     O93558   2.455   4.924   9.573 -0.2373 -0.1331 -0.2808
  694MOL0     C93559   2.422   4.950   9.441 -0.1340 -0.4721  0.5282
  694MOL0     C93560   2.290   4.992   9.411  1.5697  0.1991 -0.0870
  694MOL0     C93561   2.248   5.027   9.282  0.4860  0.9002  0.2684
  694MOL0     C93562   2.344   5.017   9.176  0.6006 -0.1660 -0.9875
  694MOL0     O93563   2.319   5.050   9.040 -0.2454 -0.1513  0.3971
  694MOL0     C93564   2.193   5.121   9.010  0.0744 -0.0217 -0.6187
  694MOL0     C93565   2.165   5.152   8.870  0.8915  0.7752  0.5129
  694MOL0     C93566   2.188   5.024   8.786  0.2516  0.3287 -0.3953
  694MOL0     C93567   2.106   5.034   8.656 -0.4495  0.3564 -0.3376
  694MOL0     C93568   2.155   4.920   8.557 -0.4685  0.6239 -0.1234
  694MOL0     C93569   2.074   4.910   8.428 -0.2478  0.6406 -0.0419
  694MOL0     C93570   2.054   4.773   8.377  0.0876  0.4279  0.4735
  694MOL0     C93571   2.186   4.696   8.357  0.4287 -0.4062  0.2141
  694MOL0     N93572   2.207   4.648   8.217  0.6154 -0.5616  0.7151
  694MOL0     C93573   2.204   4.518   8.171  1.1104  0.0242 -0.5057
  694MOL0     C93574   2.230   4.518   8.044  0.2807 -0.6793 -0.9101
  694MOL0     C93575   2.233   4.393   7.952 -0.1880 -0.6858 -0.3354
  694MOL0     C93576   2.171   4.438   7.817 -0.2065 -0.0797 -0.0277
  694MOL0     C93577   2.186   4.331   7.711 -0.3532  0.7940  0.1060
  694MOL0     C93578   2.097   4.342   7.586 -1.0662 -0.6942  0.1670
  694MOL0     O93579   2.124   4.446   7.490 -0.4224 -0.0539  0.5263
  694MOL0     C93580   2.089   4.569   7.521 -0.3469 -0.0835  0.1928
  694MOL0     C93581   2.183   4.673   7.534 -0.6180 -0.5410  0.1766
  694MOL0     C93582   2.139   4.811   7.562 -0.0466  0.5068  0.2679
  694MOL0     C93583   2.013   4.836   7.573  0.4539 -0.0176 -0.0603
  694MOL0     C93584   1.961   4.980   7.588 -0.6983 -0.4979 -0.2183
  694MOL0     O93585   1.828   4.986   7.590  0.1480 -0.3044 -0.1934
  694MOL0     C93586   1.756   5.103   7.597  0.4171 -0.2902 -0.5059
  694MOL0     C93587   1.629   5.103   7.533  0.1743 -0.6152 -0.1815
  694MOL0     C93588   1.547   5.216   7.536  0.1054 -0.0939 -1.3513
  694MOL0     C93589   1.587   5.327   7.610 -0.5854 -0.0868 -0.3414
  694MOL0     O93590   1.497   5.428   7.597  0.0562  0.0799 -0.8764
  694MOL0     C93591   1.559   5.552   7.562  0.2971  0.4480 -0.0933
  694MOL0     C93592   1.547   5.647   7.677 -0.0861 -0.3842  0.9574
  694MOL0     C93593   1.641   5.769   7.653  0.0569  0.1764  0.1225
  694MOL0     C93594   1.784   5.727   7.673 -0.2628 -0.9462  0.1376
  694MOL0     C93595   1.870   5.856   7.669 -0.2755 -0.4427 -0.9200
  694MOL0     C93596   2.020   5.836   7.694  0.1456 -0.8658  0.0458
  694MOL0     C93597   2.093   5.972   7.705 -0.0484 -2.0241 -0.5553
  694MOL0     C93598   2.245   5.954   7.735 -0.2600 -0.6321  0.2421
  694MOL0    Cl93599   2.256   5.907   7.924  0.6583 -0.6317  0.4864
  694MOL0     C93600   1.704   5.325   7.685 -0.1484  0.1850  0.2505
  694MOL0     C93601   1.792   5.220   7.675  0.1573 -0.3930  0.0357
  694MOL0     O93602   2.037   5.072   7.591 -0.0361 -1.0264 -0.4289
  694MOL0     C93603   1.928   4.728   7.591  1.1350 -0.1883 -0.7108
  694MOL0     C93604   1.959   4.600   7.565  0.1159 -0.2455  0.0173
  694MOL0     N93605   2.235   4.652   8.001  0.2776  0.0218 -0.0150
  694MOL0     N93606   2.235   4.730   8.107  0.4136  0.2198 -0.3185
  694MOL0     C93607   2.468   4.958   9.208 -0.1547 -1.2353  0.4167
  694MOL0     C93608   2.512   4.936   9.341  0.1685 -0.1446  0.3163
  694MOL0     C93609   2.562   4.969   9.788  0.2073  0.5775 -0.5779
  694MOL0     C93610   2.459   4.897   9.850 -0.0565  0.4077  0.7141
  694MOL0     C93611   2.469   4.860   9.991 -0.0525  0.1971  0.5294
  694MOL0     C93612   2.587   4.892  10.062  0.0600  0.9123 -0.9088
  694MOL0     O93613   2.593   4.844  10.192 -0.1104  0.3522  0.2121
  694MOL0     C93614   2.663   4.721  10.197 -0.4709 -0.0585  0.3488
  694MOL0     C93615   2.666   4.675  10.338 -0.1385  0.2760 -0.3559
  694MOL0     C93616   2.741   4.539  10.344  0.1758  0.0783  0.8041
  694MOL0     C93617   2.766   4.521  10.484 -0.7955  0.1160 -0.3588
  694MOL0     C93618   2.857   4.410  10.494 -0.2154  1.6681  0.8156
  694MOL0     C93619   2.952   4.331  10.497 -0.2015 -0.5714  0.7329
  694MOL0     C93620   2.689   4.944   9.992 -0.9623 -0.6493  0.8950
  694MOL0     C93621   2.686   4.984   9.860 -0.0460 -0.4586 -0.3808
  694MOL0     C93622   2.824   5.039   9.807  0.3136 -0.4448 -0.3138
  694MOL0     H93623   2.219   4.994   9.493 -1.3255 -0.4946 -2.4278
  694MOL0     H93624   2.146   5.061   9.273  0.2254  0.1974  0.5204
  694MOL0     H93625   2.113   5.054   9.043 -0.9588  1.3132 -0.3353
  694MOL0     H93626   2.190   5.224   9.048  3.5189 -0.3756  1.0055
  694MOL0     H93627   2.221   5.241   8.838  0.9171  0.4502 -0.3726
  694MOL0     H93628   2.059   5.178   8.862  0.3824  0.5679  4.4708
  694MOL0     H93629   2.168   4.929   8.836 -1.4654 -0.3976 -2.2974
  694MOL0     H93630   2.296   5.035   8.774  0.4756  3.6484  2.7362
  694MOL0     H93631   2.001   5.017   8.678 -0.8252 -2.3719 -3.5236
  694MOL0     H93632   2.111   5.127   8.599  2.9664  2.1413  2.4216
  694MOL0     H93633   2.254   4.948   8.519 -0.5029 -0.9595 -1.4635
  694MOL0     H93634   2.163   4.825   8.612 -0.6850  0.3363 -0.5862
  694MOL0     H93635   1.978   4.960   8.443  1.9231  4.8372  1.4402
  694MOL0     H93636   2.136   4.960   8.353 -1.2328  0.9923 -0.6383
  694MOL0     H93637   1.990   4.774   8.288  0.2974  3.0133  0.2958
  694MOL0     H93638   1.992   4.716   8.448  0.2348  1.2909  1.3194
  694MOL0     H93639   2.265   4.766   8.385 -0.3227  0.3181  0.5515
  694MOL0     H93640   2.184   4.608   8.422  4.2939 -2.3590 -1.9398
  694MOL0     H93641   2.173   4.429   8.225  1.6907  0.3131  0.3175
  694MOL0     H93642   2.335   4.356   7.941  0.0390 -1.0891  2.4613
  694MOL0     H93643   2.178   4.313   8.003  1.5135 -0.0115  2.8000
  694MOL0     H93644   2.066   4.466   7.829  0.1817  1.5711 -0.2954
  694MOL0     H93645   2.222   4.530   7.787  0.3279  0.5877  2.6509
  694MOL0     H93646   2.153   4.239   7.759  2.6733  0.1801  1.2714
  694MOL0     H93647   2.294   4.328   7.691 -0.5095  1.0877 -0.8462
  694MOL0     H93648   1.996   4.341   7.628 -1.2609 -3.1545 -0.2225
  694MOL0     H93649   2.109   4.251   7.526 -2.5992 -0.0945 -1.1147
  694MOL0     H93650   2.286   4.646   7.510 -1.7821 -1.5003 -4.8818
  694MOL0     H93651   2.213   4.891   7.563 -1.9412  2.3537  0.2455
  694MOL0     H93652   1.600   5.015   7.476 -0.4131  0.0236 -0.8786
  694MOL0     H93653   1.453   5.219   7.481 -1.2313 -1.5297  0.6891
  694MOL0     H93654   1.663   5.532   7.537  0.2329 -0.4587  0.3405
  694MOL0     H93655   1.518   5.603   7.474  0.8210  0.5854 -0.2557
  694MOL0     H93656   1.446   5.691   7.674  0.8039  1.7584 -0.2571
  694MOL0     H93657   1.570   5.599   7.772  0.4061  3.0514  2.7442
  694MOL0     H93658   1.623   5.801   7.550 -0.5786  3.9378  1.2248
  694MOL0     H93659   1.608   5.851   7.718 -2.5802 -0.1025 -0.7543
  694MOL0     H93660   1.818   5.672   7.584 -0.8440  0.7198 -1.1697
  694MOL0     H93661   1.809   5.666   7.760  0.7886  0.1131  0.6095
  694MOL0     H93662   1.848   5.916   7.758  2.6006 -0.9627  0.2402
  694MOL0     H93663   1.857   5.921   7.582  0.2754 -1.2545 -1.6281
  694MOL0     H93664   2.020   5.794   7.795 -2.1987  1.5190  1.1693
  694MOL0     H93665   2.051   5.768   7.615 -1.1495 -0.8637 -0.4938
  694MOL0     H93666   2.050   6.043   7.777  1.4642 -0.5973 -0.9808
  694MOL0     H93667   2.094   6.016   7.604  0.2910 -1.5491 -0.3526
  694MOL0     H93668   2.285   5.874   7.672  0.5800 -0.7044  0.8484
  694MOL0     H93669   2.307   6.043   7.729  0.6853 -1.2547  0.5081
  694MOL0     H93670   1.728   5.419   7.733  0.0413 -0.1311  0.7818
  694MOL0     H93671   1.887   5.244   7.721  0.6079  2.5022 -2.1289
  694MOL0     H93672   1.824   4.756   7.600  1.9604  2.4580  2.3390
  694MOL0     H93673   1.879   4.529   7.583 -0.7274  0.8796  0.9142
  694MOL0     H93674   2.544   4.937   9.134  2.2432  0.7292  2.1326
  694MOL0     H93675   2.610   4.897   9.368 -1.1576 -0.7396  5.0959
  694MOL0     H93676   2.364   4.885   9.799  0.3460  0.8121 -0.1500
  694MOL0     H93677   2.383   4.813  10.037 -0.3031  0.6660  0.5485
  694MOL0     H93678   2.766   4.732  10.162 -0.3118 -1.3424  0.3410
  694MOL0     H93679   2.620   4.647  10.129  3.6191 -1.0301 -1.5408
  694MOL0     H93680   2.565   4.644  10.366  1.1457 -3.2582  1.0381
  694MOL0     H93681   2.714   4.745  10.407  5.0662 -0.0496 -3.1093
  694MOL0     H93682   2.830   4.556  10.282  0.7010 -0.1218  1.4960
  694MOL0     H93683   2.666   4.471  10.302 -0.3195 -0.1122  1.9521
  694MOL0     H93684   2.819   4.606  10.527 -0.1164 -1.8631  3.0970
  694MOL0     H93685   2.678   4.497  10.545 -0.5902  1.4766  0.5033
  694MOL0     H93686   3.035   4.264  10.488  1.2748  1.2465  0.4034
  694MOL0     H93687   2.776   4.969  10.052 -1.6706 -1.4645  2.3255
  694MOL0     H93688   2.916   5.002   9.851 -0.7315 -4.4018 -1.0071
  694MOL0     H93689   2.825   4.995   9.707 -1.5639 -3.4703  0.8490
  694MOL0     H93690   2.826   5.148   9.807  1.6742 -0.4454 -1.0659
  695MOL0     O93691   7.028   2.057   2.336  0.6434  0.4926 -0.9436
  695MOL0     C93692   6.934   2.016   2.401  0.9034 -0.9974 -0.5999
  695MOL0     O93693   6.845   1.924   2.367  0.8929  0.3022 -0.8692
  695MOL0     C93694   6.850   1.863   2.248  0.4446  0.0590  0.1223
  695MOL0     C93695   6.968   1.818   2.181 -0.1287  0.0119  0.7912
  695MOL0     C93696   6.964   1.747   2.066 -0.4568 -0.1955 -0.5340
  695MOL0     C93697   6.844   1.707   2.011 -1.0448 -0.5690  0.1003
  695MOL0     O93698   6.844   1.621   1.903  0.4095  0.2442 -0.3086
  695MOL0     C93699   6.730   1.615   1.820  0.1399 -0.1380 -0.2854
  695MOL0     C93700   6.762   1.548   1.687  0.3096  0.8875  0.1859
  695MOL0     C93701   6.762   1.395   1.701  0.6716  0.4860  0.3425
  695MOL0     C93702   6.818   1.300   1.589  0.7781 -0.6188  0.2353
  695MOL0     C93703   6.947   1.343   1.514  0.9162  0.4781 -0.5584
  695MOL0     C93704   7.070   1.364   1.617  0.2978  0.0189  0.6669
  695MOL0     C93705   7.161   1.485   1.578 -0.6949 -0.3125 -0.3632
  695MOL0     C93706   7.305   1.453   1.640 -0.2423  0.1605 -0.2713
  695MOL0     N93707   7.409   1.542   1.592  0.8597 -0.1991 -0.0260
  695MOL0     C93708   7.530   1.503   1.550 -0.1430  0.1495 -1.1608
  695MOL0     C93709   7.598   1.611   1.516  0.2110 -0.6484  0.0992
  695MOL0     C93710   7.736   1.623   1.471 -0.6284 -0.0854  0.1864
  695MOL0     C93711   7.772   1.494   1.388  0.0079  0.4303  0.2653
  695MOL0     C93712   7.911   1.509   1.316  0.3823  0.2965 -0.3833
  695MOL0     C93713   8.013   1.482   1.432  0.7338  0.0814 -0.4648
  695MOL0     O93714   8.061   1.595   1.502 -0.6154 -0.7602 -0.1369
  695MOL0     C93715   8.194   1.617   1.542  0.0659  0.7681 -0.1362
  695MOL0     C93716   8.287   1.508   1.547 -0.1919 -0.9864  0.7209
  695MOL0     C93717   8.412   1.535   1.613  0.5367  0.5937  0.6616
  695MOL0     C93718   8.440   1.662   1.644  0.2760 -0.0267 -1.0321
  695MOL0     C93719   8.569   1.710   1.692 -0.2871  0.0853 -0.1914
  695MOL0     O93720   8.668   1.622   1.675 -0.0948 -0.3878 -0.5157
  695MOL0     C93721   8.798   1.660   1.703 -0.3112  0.6168 -0.8212
  695MOL0     C93722   8.901   1.700   1.617  0.8864  0.9142  1.0086
  695MOL0     C93723   9.031   1.730   1.655 -0.0673 -0.5545  0.4494
  695MOL0     C93724   9.068   1.731   1.786  0.4205 -0.5445  0.2077
  695MOL0     O93725   9.189   1.767   1.828 -0.1553 -0.7926 -1.0309
  695MOL0     C93726   9.300   1.770   1.742  0.3285 -0.3782 -0.3647
  695MOL0     C93727   9.413   1.792   1.844 -0.0776  0.1234 -0.1254
  695MOL0     C93728   9.552   1.814   1.773 -0.0019 -1.0845  0.2460
  695MOL0     C93729   9.611   1.696   1.698 -0.1476  0.0900 -0.7027
  695MOL0     C93730   9.773   1.714   1.690  0.2894  0.3786  0.5163
  695MOL0     C93731   9.846   1.591   1.641 -0.0967 -0.7230  0.4244
  695MOL0     C93732   9.998   1.635   1.653  0.1070 -0.4223  0.3594
  695MOL0     C93733  10.096   1.522   1.623  0.4993 -0.3085 -0.0564
  695MOL0    Cl93734  10.253   1.598   1.581 -0.8291 -0.0280 -0.5809
  695MOL0     C93735   8.972   1.687   1.879 -0.6204 -0.1676  0.1546
  695MOL0     C93736   8.839   1.648   1.838  0.1476 -0.7340 -0.1259
  695MOL0     O93737   8.578   1.831   1.728  0.1875 -0.0055  0.0806
  695MOL0     C93738   8.350   1.762   1.618 -0.9197  0.7470 -0.0650
  695MOL0     C93739   8.227   1.741   1.581  0.0956 -0.1382  0.9799
  695MOL0     N93740   7.513   1.720   1.535  0.2500 -0.4098 -0.4038
  695MOL0     N93741   7.404   1.676   1.566  0.1673 -0.0587  0.6002
  695MOL0     C93742   6.728   1.766   2.067  0.4711  0.1081  0.1225
  695MOL0     C93743   6.725   1.837   2.184 -0.5172 -0.4748  0.2440
  695MOL0     C93744   6.904   2.080   2.527 -0.2566  0.0396  0.2416
  695MOL0     C93745   6.792   2.168   2.528 -0.5125  0.3914 -0.0657
  695MOL0     C93746   6.748   2.223   2.640 -0.0229 -0.1525 -0.4088
  695MOL0     C93747   6.815   2.196   2.755 -0.1806  0.0305 -0.2417
  695MOL0     O93748   6.762   2.259   2.865 -0.3112 -0.2473  0.6967
  695MOL0     C93749   6.849   2.350   2.931 -0.7184  0.0632 -0.4339
  695MOL0     C93750   6.829   2.382   3.079 -0.0459  0.9221 -0.3185
  695MOL0     C93751   6.872   2.260   3.161  0.4613 -0.7368 -0.6661
  695MOL0     C93752   6.788   2.132   3.127  0.5043 -0.0547  0.0413
  695MOL0     C93753   6.823   2.032   3.227 -0.4283  0.0653  1.0258
  695MOL0     C93754   6.853   1.944   3.308  0.5682  0.5086  0.1308
  695MOL0     C93755   6.922   2.116   2.761 -0.1627  0.0137 -1.2330
  695MOL0     C93756   6.973   2.060   2.645 -0.2280  0.2515 -0.1704
  695MOL0     C93757   7.090   1.960   2.657  0.1137 -1.0951  0.1187
  695MOL0     H93758   7.060   1.848   2.231  0.6226 -1.2797  0.2599
  695MOL0     H93759   7.054   1.722   2.011  0.0296  1.3859 -0.5100
  695MOL0     H93760   6.646   1.558   1.861  0.1761 -1.0409 -1.4046
  695MOL0     H93761   6.690   1.714   1.796 -1.3142 -1.0963 -2.1243
  695MOL0     H93762   6.860   1.587   1.660  2.2287 -2.1032  2.1700
  695MOL0     H93763   6.692   1.570   1.605 -2.5946 -1.1541  1.9261
  695MOL0     H93764   6.658   1.364   1.720 -1.2523  3.9272 -3.2706
  695MOL0     H93765   6.814   1.384   1.797  3.3855 -0.5631 -1.1269
  695MOL0     H93766   6.843   1.198   1.617 -0.1848 -0.8716  0.2137
  695MOL0     H93767   6.732   1.286   1.523  0.5948 -0.6832  0.4877
  695MOL0     H93768   6.975   1.280   1.430  2.8523  0.6046 -0.0553
  695MOL0     H93769   6.937   1.445   1.475  0.4100 -0.3562 -2.7073
  695MOL0     H93770   7.039   1.370   1.722  1.3023  1.9418  0.8887
  695MOL0     H93771   7.130   1.273   1.617  3.3583  1.6532  5.3780
  695MOL0     H93772   7.119   1.573   1.629 -1.7631 -0.1038 -1.5571
  695MOL0     H93773   7.168   1.505   1.471  2.0689 -0.4600 -0.2814
  695MOL0     H93774   7.294   1.461   1.749 -0.4322 -0.7645 -0.2163
  695MOL0     H93775   7.334   1.355   1.603 -1.1669 -0.2012 -0.0686
  695MOL0     H93776   7.570   1.403   1.537 -1.9129 -0.9304  1.0180
  695MOL0     H93777   7.745   1.709   1.403 -2.7003 -0.6024 -0.8207
  695MOL0     H93778   7.802   1.631   1.557  0.6722 -3.6799 -0.3000
  695MOL0     H93779   7.766   1.408   1.455  0.7550  0.5343  0.4753
  695MOL0     H93780   7.690   1.500   1.316  0.9024 -0.2315 -0.8465
  695MOL0     H93781   7.936   1.604   1.268 -1.1841  1.4977  1.0799
  695MOL0     H93782   7.909   1.430   1.240 -2.8245  0.4393 -0.5777
  695MOL0     H93783   8.094   1.429   1.381  0.4547 -1.4931  0.6559
  695MOL0     H93784   7.969   1.414   1.506 -1.0815  0.1805 -1.3893
  695MOL0     H93785   8.251   1.409   1.525 -2.1979 -0.1403 -0.0499
  695MOL0     H93786   8.476   1.451   1.640 -0.0423 -0.3124 -0.6773
  695MOL0     H93787   8.879   1.703   1.511  4.5522 -0.6861  0.0418
  695MOL0     H93788   9.084   1.778   1.573 -0.8637  2.9880  1.8372
  695MOL0     H93789   9.315   1.689   1.670 -0.4366 -1.1615  0.3344
  695MOL0     H93790   9.300   1.857   1.676 -1.8454 -0.7534 -0.9311
  695MOL0     H93791   9.384   1.875   1.908 -3.9217 -0.1895 -1.2278
  695MOL0     H93792   9.405   1.706   1.910 -2.5932 -0.4023 -0.9899
  695MOL0     H93793   9.561   1.901   1.707  2.0435 -1.8900 -0.6303
  695MOL0     H93794   9.625   1.822   1.854 -0.5447 -3.6786  1.0754
  695MOL0     H93795   9.560   1.675   1.603 -2.2149  2.8710 -0.3404
  695MOL0     H93796   9.599   1.611   1.765  0.6987  1.1683  0.8809
  695MOL0     H93797   9.818   1.738   1.786  1.8180 -0.7072  0.1012
  695MOL0     H93798   9.798   1.796   1.621  2.7984 -1.6947 -1.2071
  695MOL0     H93799   9.831   1.507   1.708  2.5525  0.4746  2.7485
  695MOL0     H93800   9.815   1.549   1.544 -0.8854  0.3048  0.2074
  695MOL0     H93801  10.009   1.659   1.758 -0.7616 -1.9800  0.8474
  695MOL0     H93802  10.023   1.727   1.599  4.0761 -1.3520  0.3621
  695MOL0     H93803  10.098   1.468   1.718 -1.5512  1.5428  1.1272
  695MOL0     H93804  10.062   1.457   1.541  0.6163 -1.2496  0.6285
  695MOL0     H93805   9.010   1.681   1.981 -1.0834 -1.8606  0.2521
  695MOL0     H93806   8.768   1.619   1.914  2.1816  0.3521  2.3352
  695MOL0     H93807   8.376   1.865   1.642 -0.8127  1.2533 -2.2203
  695MOL0     H93808   8.159   1.825   1.586  0.5751  0.3860 -0.6188
  695MOL0     H93809   6.632   1.744   2.023  1.3051 -0.6701 -1.3851
  695MOL0     H93810   6.630   1.870   2.224 -1.0672 -3.3907  1.5701
  695MOL0     H93811   6.745   2.180   2.431  0.4247  1.4044 -0.4140
  695MOL0     H93812   6.659   2.286   2.641  2.1224  3.2036 -1.8327
  695MOL0     H93813   6.847   2.446   2.878  1.1864 -0.7077 -2.0563
  695MOL0     H93814   6.956   2.330   2.925 -0.2264  1.6970  1.7886
  695MOL0     H93815   6.722   2.397   3.098  0.1601 -0.2193  2.1309
  695MOL0     H93816   6.886   2.466   3.118  3.4673 -1.4820  0.1757
  695MOL0     H93817   6.870   2.287   3.267 -0.0212  0.8350 -1.0506
  695MOL0     H93818   6.973   2.227   3.134  1.3270 -1.9884  3.3057
  695MOL0     H93819   6.681   2.155   3.130  0.6391  0.9089 -1.2614
  695MOL0     H93820   6.802   2.080   3.032 -3.2480  2.3999 -2.1454
  695MOL0     H93821   6.863   1.872   3.386 -1.8816  0.7468  0.7266
  695MOL0     H93822   6.958   2.083   2.858  0.9904 -0.9109 -1.9388
  695MOL0     H93823   7.043   1.861   2.657 -0.1267 -1.0102  1.7392
  695MOL0     H93824   7.151   1.973   2.568  0.3807 -4.0852 -0.2296
  695MOL0     H93825   7.148   1.958   2.750 -0.0820 -0.2061  0.2712
  696MOL0     O93826   2.899  11.225   4.894  0.2391 -0.2162 -0.2622
  696MOL0     C93827   2.800  11.218   4.971  0.3713  0.8036  1.0140
  696MOL0     O93828   2.747  11.312   5.049  0.1762  0.5837  0.3813
  696MOL0     C93829   2.770  11.449   5.031  0.2544 -0.1179 -0.4599
  696MOL0     C93830   2.835  11.516   4.928  0.2457  0.1134 -0.3198
  696MOL0     C93831   2.847  11.655   4.923 -0.3112 -0.1756 -0.3513
  696MOL0     C93832   2.788  11.737   5.029  0.3400  0.1272  0.2591
  696MOL0     O93833   2.816  11.870   5.051 -0.1039  0.1252 -0.3731
  696MOL0     C93834   2.848  11.950   4.940  0.5713  0.1328 -0.8837
  696MOL0     C93835   2.850  12.095   4.986  0.4031 -0.6737  0.3075
  696MOL0     C93836   2.896  12.200   4.873  0.2290  0.7687  0.3640
  696MOL0     C93837   2.893  12.341   4.916  0.4409 -0.3044 -0.0409
  696MOL0     C93838   2.916  12.436   4.793  0.1705  0.4624 -0.3590
  696MOL0     C93839   2.925  12.591   4.833 -0.4730  0.1344  0.1375
  696MOL0     C93840   2.908  12.692   4.717 -0.0451 -0.7185 -1.0008
  696MOL0     C93841   3.026  12.720   4.620  0.5562 -0.2651  0.0758
  696MOL0     N93842   3.011  12.629   4.504 -0.0342  0.1698 -0.3509
  696MOL0     C93843   2.916  12.635   4.412  0.8200 -0.3244 -0.7694
  696MOL0     C93844   2.930  12.525   4.331  0.0614 -0.3649  0.3859
  696MOL0     C93845   2.851  12.481   4.206  0.1244  1.5408 -1.3571
  696MOL0     C93846   2.864  12.333   4.167  0.2703 -0.3467  0.4217
  696MOL0     C93847   2.757  12.282   4.074 -0.0579 -1.1014 -0.2436
  696MOL0     C93848   2.773  12.330   3.936  0.7128  0.3948 -0.0011
  696MOL0     O93849   2.909  12.301   3.896  0.9571  0.5830 -0.0868
  696MOL0     C93850   2.960  12.358   3.784 -0.0236  0.1101  0.4391
  696MOL0     C93851   2.893  12.420   3.681 -0.3722  1.5264  0.9489
  696MOL0     C93852   2.961  12.461   3.568  0.2422  0.9500  0.9154
  696MOL0     C93853   3.100  12.427   3.549 -0.3009 -0.3864  0.9584
  696MOL0     C93854   3.169  12.456   3.422  0.7317  0.1518  0.6267
  696MOL0     O93855   3.085  12.462   3.308  0.4567 -0.8040  0.3056
  696MOL0     C93856   3.154  12.500   3.193 -0.3116 -0.3108  0.2470
  696MOL0     C93857   3.205  12.627   3.178 -0.2695  0.7257  0.0179
  696MOL0     C93858   3.283  12.661   3.074 -0.3378  0.0581 -0.6559
  696MOL0     C93859   3.320  12.570   2.980 -1.3953  1.0953  0.6955
  696MOL0     O93860   3.428  12.616   2.901 -0.2479 -0.4880 -0.0562
  696MOL0     C93861   3.495  12.530   2.809  0.6510  0.6681 -0.8521
  696MOL0     C93862   3.572  12.623   2.710 -0.1549 -0.0597 -0.7089
  696MOL0     C93863   3.677  12.531   2.642  0.2844 -0.6844  0.4177
  696MOL0     C93864   3.619  12.437   2.532  0.4271 -0.1853 -0.1167
  696MOL0     C93865   3.735  12.381   2.448  0.8341 -0.0753  0.1784
  696MOL0     C93866   3.812  12.485   2.361 -0.3847 -0.7983  0.2958
  696MOL0     C93867   3.957  12.431   2.309 -0.2293  0.5478  0.6492
  696MOL0     C93868   4.006  12.504   2.175 -0.7475 -0.1200  1.0384
  696MOL0    Cl93869   3.883  12.485   2.048  0.6586  0.3290  0.1850
  696MOL0     C93870   3.256  12.449   2.980 -0.2452  0.6634  0.2508
  696MOL0     C93871   3.178  12.410   3.094 -0.4571  0.1981 -0.2451
  696MOL0     O93872   3.293  12.460   3.420  1.5523 -0.1563  0.8022
  696MOL0     C93873   3.161  12.358   3.651  0.1878 -0.0409 -0.3038
  696MOL0     C93874   3.099  12.332   3.767 -0.5561 -0.6064 -0.3103
  696MOL0     N93875   3.038  12.456   4.379 -0.2761 -0.2885  0.3514
  696MOL0     N93876   3.076  12.512   4.487 -0.6568 -0.5181 -1.1161
  696MOL0     C93877   2.698  11.669   5.120  0.1546 -0.2258  0.0180
  696MOL0     C93878   2.695  11.531   5.123 -0.0378 -0.0636 -0.0036
  696MOL0     C93879   2.743  11.077   4.976  0.4899 -0.1305 -0.9723
  696MOL0     C93880   2.620  11.071   5.037  0.2730  0.2152 -0.0983
  696MOL0     C93881   2.550  10.954   5.063  0.7589  0.0104  0.1788
  696MOL0     C93882   2.612  10.830   5.019  0.3111 -0.2567 -0.1526
  696MOL0     O93883   2.548  10.704   5.031  0.0889 -0.1963 -0.6877
  696MOL0     C93884   2.424  10.709   5.104 -0.1279 -0.4000 -0.2233
  696MOL0     C93885   2.443  10.717   5.259  0.3775  0.0928  0.8693
  696MOL0     C93886   2.512  10.592   5.325 -0.0470 -0.4318  0.4177
  696MOL0     C93887   2.419  10.464   5.303  0.7872 -0.4399 -0.5119
  696MOL0     C93888   2.285  10.489   5.359  0.1894  0.1475 -0.9206
  696MOL0     C93889   2.184  10.515   5.421 -0.9899 -1.2712 -0.5556
  696MOL0     C93890   2.730  10.835   4.947 -0.6586  0.4473 -0.9444
  696MOL0     C93891   2.794  10.952   4.926 -0.1736  0.6410 -0.4511
  696MOL0     C93892   2.925  10.943   4.851  0.5511  0.5045  0.0455
  696MOL0     H93893   2.870  11.453   4.847  1.0122 -2.2823  1.7220
  696MOL0     H93894   2.912  11.694   4.845  2.5953 -1.0642  1.4784
  696MOL0     H93895   2.944  11.918   4.898  1.3834  2.1238 -0.6708
  696MOL0     H93896   2.772  11.941   4.862  0.1396 -0.1011 -0.4424
  696MOL0     H93897   2.907  12.103   5.079 -1.2056 -4.0565  1.7500
  696MOL0     H93898   2.755  12.124   5.031  0.4289 -1.1618  0.6868
  696MOL0     H93899   2.835  12.183   4.784 -1.1341  4.0095  0.5427
  696MOL0     H93900   3.001  12.178   4.849  1.0848  3.2100  1.4800
  696MOL0     H93901   2.793  12.366   4.953  2.1710  3.4928  2.7908
  696MOL0     H93902   2.966  12.358   4.995  2.0000  3.0140 -1.9735
  696MOL0     H93903   3.006  12.412   4.736 -0.9338 -0.6953 -1.6915
  696MOL0     H93904   2.831  12.425   4.725  1.2361 -2.1807 -1.4298
  696MOL0     H93905   2.835  12.604   4.893 -0.9902  0.3030 -0.6623
  696MOL0     H93906   3.023  12.603   4.881  0.7984  0.0621 -2.2758
  696MOL0     H93907   2.888  12.789   4.764 -0.5768 -0.3939 -1.8738
  696MOL0     H93908   2.817  12.666   4.662  0.3078 -1.3410 -1.3116
  696MOL0     H93909   3.018  12.823   4.582 -2.5277  0.0303  1.2137
  696MOL0     H93910   3.121  12.699   4.670  1.0036 -3.5444 -1.8566
  696MOL0     H93911   2.839  12.710   4.421 -0.1583 -1.3470 -0.3722
  696MOL0     H93912   2.743  12.499   4.210 -0.1590 -0.0717 -1.0298
  696MOL0     H93913   2.882  12.530   4.113 -1.9444  1.6144 -2.0760
  696MOL0     H93914   2.964  12.305   4.130  0.1367 -0.5212  0.1826
  696MOL0     H93915   2.849  12.282   4.262  0.6415 -1.0246  0.1295
  696MOL0     H93916   2.657  12.317   4.102 -0.0799  0.8554 -2.4473
  696MOL0     H93917   2.772  12.174   4.072 -0.8231 -1.2625  1.3167
  696MOL0     H93918   2.764  12.439   3.945  3.3089  0.6872 -0.1220
  696MOL0     H93919   2.700  12.284   3.868  2.9558 -1.5185 -1.2647
  696MOL0     H93920   2.785  12.435   3.683 -0.6143 -0.1104  1.3408
  696MOL0     H93921   2.911  12.527   3.499  0.4699  0.8366  0.6378
  696MOL0     H93922   3.188  12.700   3.257 -2.2991 -0.0778  0.3778
  696MOL0     H93923   3.318  12.764   3.073  0.7430 -0.2259  1.4594
  696MOL0     H93924   3.558  12.465   2.870 -0.4139  2.4194  2.3398
  696MOL0     H93925   3.416  12.470   2.764  0.0800  1.4963 -0.9846
  696MOL0     H93926   3.502  12.668   2.638 -1.0137  1.0639  0.7527
  696MOL0     H93927   3.631  12.701   2.759 -2.7435  0.1252  2.4523
  696MOL0     H93928   3.753  12.603   2.609  1.2868 -0.0634  3.7185
  696MOL0     H93929   3.740  12.463   2.701  1.3991  0.4483  0.5745
  696MOL0     H93930   3.551  12.495   2.470 -2.5055 -1.7422  1.4177
  696MOL0     H93931   3.557  12.356   2.571 -2.3734 -0.5822 -4.6685
  696MOL0     H93932   3.690  12.307   2.381  3.0349 -1.5842  0.2463
  696MOL0     H93933   3.810  12.321   2.500 -0.0563 -2.6803 -1.3289
  696MOL0     H93934   3.739  12.501   2.281  0.0211 -1.1296 -0.1478
  696MOL0     H93935   3.835  12.574   2.420 -3.5547 -1.4129  2.7730
  696MOL0     H93936   3.959  12.322   2.298  4.2154  0.4475  1.0469
  696MOL0     H93937   4.030  12.435   2.390 -1.5314  0.9530  1.8369
  696MOL0     H93938   4.046  12.605   2.187 -0.9647  0.5242 -2.4733
  696MOL0     H93939   4.085  12.443   2.129  1.2526  1.5945  2.0333
  696MOL0     H93940   3.275  12.375   2.902 -0.4837  0.7548  0.1044
  696MOL0     H93941   3.135  12.310   3.103 -0.6513  0.2556 -0.5146
  696MOL0     H93942   3.268  12.342   3.645  0.0831 -0.4112 -1.4914
  696MOL0     H93943   3.149  12.282   3.849 -0.8297 -1.9208 -0.9244
  696MOL0     H93944   2.624  11.712   5.187 -0.9805 -2.4070  0.2368
  696MOL0     H93945   2.637  11.476   5.196 -0.3467 -1.0377 -0.9561
  696MOL0     H93946   2.576  11.162   5.078  0.2217  0.3774 -0.5134
  696MOL0     H93947   2.452  10.966   5.106  0.3172  1.3333 -1.1064
  696MOL0     H93948   2.381  10.610   5.081  0.6269 -0.8192  0.1549
  696MOL0     H93949   2.347  10.781   5.076 -1.0574 -0.1026  2.7748
  696MOL0     H93950   2.346  10.733   5.308  0.6186  1.1201  1.0483
  696MOL0     H93951   2.506  10.803   5.286  2.5103  0.0821 -3.2041
  696MOL0     H93952   2.520  10.618   5.431  0.6246  0.0827  0.2453
  696MOL0     H93953   2.617  10.578   5.298  0.1403 -1.1359  1.4699
  696MOL0     H93954   2.409  10.428   5.201  0.9655 -4.4977  0.7288
  696MOL0     H93955   2.466  10.385   5.363 -1.0854  0.3884  2.2857
  696MOL0     H93956   2.110  10.541   5.495 -0.9411 -0.1584 -0.8770
  696MOL0     H93957   2.768  10.752   4.888  0.4335  0.5520 -0.3977
  696MOL0     H93958   2.902  10.989   4.755  0.5012  0.6242  0.1149
  696MOL0     H93959   3.003  10.999   4.902 -0.0197  4.2004 -2.7659
  696MOL0     H93960   2.969  10.844   4.836  3.3841  1.9126 -1.7861
  697MOL0     O93961   9.155   0.422   9.286  0.1574  0.0626  0.1086
  697MOL0     C93962   9.194   0.474   9.182 -0.9482 -0.0960 -0.2307
  697MOL0     O93963   9.112   0.539   9.092  0.5041 -1.1559  1.0044
  697MOL0     C93964   8.989   0.585   9.117  0.9210 -0.0572 -0.9377
  697MOL0     C93965   8.946   0.633   9.241 -0.1817  0.3544 -0.3565
  697MOL0     C93966   8.810   0.684   9.263 -1.2365 -0.2249  0.0652
  697MOL0     C93967   8.730   0.688   9.153 -0.1827 -0.6748 -0.3406
  697MOL0     O93968   8.600   0.733   9.181  0.1812  0.1049  0.2661
  697MOL0     C93969   8.505   0.739   9.072 -0.2156  0.2894  0.3268
  697MOL0     C93970   8.357   0.741   9.122  0.4344 -0.9154 -0.1399
  697MOL0     C93971   8.301   0.889   9.162 -0.1213  0.4430  0.9890
  697MOL0     C93972   8.384   0.960   9.257 -0.3215  0.9017 -0.3301
  697MOL0     C93973   8.388   0.893   9.401  0.8393  0.4621 -0.1458
  697MOL0     C93974   8.454   0.981   9.513  0.3791  0.0327 -0.1094
  697MOL0     C93975   8.599   1.030   9.476 -0.5590  1.1814 -1.0311
  697MOL0     C93976   8.676   1.090   9.583 -0.0135 -0.6959 -0.0925
  697MOL0     N93977   8.732   1.001   9.685 -0.3725  0.3675 -0.4274
  697MOL0     C93978   8.666   0.966   9.800 -0.2418  0.5111  0.6675
  697MOL0     C93979   8.749   0.911   9.877  0.5001 -0.3788  0.3252
  697MOL0     C93980   8.738   0.880  10.023 -0.2581 -0.2726 -0.2290
  697MOL0     C93981   8.690   0.988  10.122 -0.4300  0.6033 -0.0806
  697MOL0     C93982   8.550   1.048  10.091 -1.5464 -0.2616  0.1926
  697MOL0     C93983   8.510   1.136  10.208  0.5251  0.9065 -0.2732
  697MOL0     O93984   8.616   1.222  10.256  0.1213 -0.7131 -0.3193
  697MOL0     C93985   8.592   1.290  10.386 -0.0957  0.2713  0.0468
  697MOL0     C93986   8.465   1.298  10.437  0.1054  0.7614  0.2047
  697MOL0     C93987   8.430   1.363  10.559 -0.1078 -0.4959  0.7675
  697MOL0     C93988   8.534   1.415  10.643  0.7517 -0.1287  0.8607
  697MOL0     C93989   8.514   1.481  10.772  1.2590 -0.3435 -0.3037
  697MOL0     O93990   8.397   1.549  10.797 -0.1265 -0.6262  0.3861
  697MOL0     C93991   8.386   1.599  10.924  0.1130 -0.2843 -0.0016
  697MOL0     C93992   8.466   1.697  10.984 -0.2800 -0.4057  0.7701
  697MOL0     C93993   8.425   1.759  11.105  0.2449 -0.2619  0.5049
  697MOL0     C93994   8.299   1.720  11.163 -0.8653  0.3947 -0.0312
  697MOL0     O93995   8.248   1.805  11.260 -0.3606 -0.7475  0.1318
  697MOL0     C93996   8.111   1.843  11.241  0.8285 -0.0948 -0.4017
  697MOL0     C93997   8.056   1.920  11.354 -1.2440 -0.1386  0.3946
  697MOL0     C93998   8.036   1.832  11.480 -0.2727 -0.8843 -0.0511
  697MOL0     C93999   7.905   1.765  11.495  0.1395  0.4300  0.1638
  697MOL0     C94000   7.798   1.851  11.535  0.2500  0.5809 -0.2600
  697MOL0     C94001   7.667   1.776  11.551  0.6008 -0.0731 -0.6514
  697MOL0     C94002   7.556   1.852  11.627 -0.0697  0.2368  0.1137
  697MOL0     C94003   7.505   1.972  11.545  0.0181 -0.6657 -0.3488
  697MOL0    Cl94004   7.385   1.927  11.426  0.1303  0.0342  0.0179
  697MOL0     C94005   8.234   1.605  11.115 -0.0077 -0.5197  0.1989
  697MOL0     C94006   8.268   1.558  10.989 -0.8375 -0.1951 -0.3869
  697MOL0     O94007   8.604   1.460  10.860  0.2055 -0.1684  0.6221
  697MOL0     C94008   8.660   1.415  10.585 -0.9367 -0.1993  1.1617
  697MOL0     C94009   8.694   1.354  10.462  1.0414  1.4987 -0.1802
  697MOL0     N94010   8.867   0.902   9.811  0.3011  0.5546 -0.1707
  697MOL0     N94011   8.862   0.949   9.691  0.7788  0.2201 -0.5885
  697MOL0     C94012   8.776   0.657   9.027  0.3877 -0.0712 -0.7352
  697MOL0     C94013   8.905   0.603   9.009 -0.2547 -0.6594  0.3530
  697MOL0     C94014   9.345   0.469   9.143  1.0801  1.5364 -0.3183
  697MOL0     C94015   9.372   0.458   9.006  0.1936  0.0843  0.3401
  697MOL0     C94016   9.497   0.435   8.958 -0.2805  0.4558 -0.3168
  697MOL0     C94017   9.608   0.417   9.050  0.0836 -0.3201 -0.0228
  697MOL0     O94018   9.736   0.402   9.008 -0.4027 -0.4779 -0.0294
  697MOL0     C94019   9.764   0.342   8.881  0.1878  0.0689  0.1800
  697MOL0     C94020   9.894   0.252   8.886  0.0458 -0.0097 -0.6202
  697MOL0     C94021   9.955   0.245   8.744  0.2383  0.7000 -0.6190
  697MOL0     C94022  10.074   0.144   8.740 -0.2872 -0.3203  0.7545
  697MOL0     C94023  10.168   0.172   8.855  0.7809  0.5818  0.9649
  697MOL0     C94024  10.250   0.197   8.929 -0.4370 -0.1732 -0.1923
  697MOL0     C94025   9.583   0.447   9.183 -0.0365  0.0170 -0.0521
  697MOL0     C94026   9.455   0.464   9.229 -0.1202 -0.2194 -0.1772
  697MOL0     C94027   9.437   0.483   9.386 -0.3513  0.2707  0.2634
  697MOL0     H94028   9.015   0.638   9.324 -0.0700  0.8088 -0.4776
  697MOL0     H94029   8.766   0.717   9.357 -0.7173 -0.1921  0.2958
  697MOL0     H94030   8.534   0.825   9.011  1.9708  0.4259  1.4592
  697MOL0     H94031   8.507   0.646   9.014 -1.4026 -0.0093  0.7413
  697MOL0     H94032   8.339   0.668   9.201  3.9949  0.4329  2.1377
  697MOL0     H94033   8.293   0.711   9.038 -1.1944 -0.9900  1.0721
  697MOL0     H94034   8.194   0.893   9.183 -0.3836  4.1397 -0.3552
  697MOL0     H94035   8.318   0.951   9.073 -1.6760  0.7845  0.9073
  697MOL0     H94036   8.489   0.960   9.225 -1.0244  1.6680 -2.8447
  697MOL0     H94037   8.361   1.066   9.261  1.1141  1.2936 -1.4407
  697MOL0     H94038   8.282   0.874   9.421 -0.2156  5.4709  0.3340
  697MOL0     H94039   8.447   0.801   9.397  4.3211  2.4975  0.6028
  697MOL0     H94040   8.380   1.060   9.532 -0.9141 -0.6187 -2.1159
  697MOL0     H94041   8.461   0.923   9.605  1.1551  1.1574  0.5668
  697MOL0     H94042   8.607   1.096   9.390 -0.3824  0.1255 -1.8491
  697MOL0     H94043   8.662   0.952   9.431 -1.5253 -0.6319  0.5884
  697MOL0     H94044   8.760   1.145   9.539 -0.1193  2.6712  3.3248
  697MOL0     H94045   8.620   1.172   9.630  0.3524  0.3363 -1.4107
  697MOL0     H94046   8.568   1.003   9.827  0.0489 -0.3765  3.1716
  697MOL0     H94047   8.682   0.786  10.032  2.6058 -2.4299 -2.6782
  697MOL0     H94048   8.839   0.846  10.048 -0.9788 -2.1253  0.3378
  697MOL0     H94049   8.698   0.943  10.221 -1.4354 -1.1448 -0.7450
  697MOL0     H94050   8.759   1.073  10.118  2.6873 -1.6761  0.9935
  697MOL0     H94051   8.472   0.974  10.073 -1.2047  0.0091 -2.9857
  697MOL0     H94052   8.559   1.106   9.998  0.9824 -1.5648 -0.4738
  697MOL0     H94053   8.483   1.064  10.287  1.8960 -1.3250 -1.7259
  697MOL0     H94054   8.416   1.185  10.181 -0.3151 -0.2441  0.4547
  697MOL0     H94055   8.376   1.271  10.382  0.1724  0.5702  0.1889
  697MOL0     H94056   8.329   1.375  10.597 -0.8524  0.5369 -1.3589
  697MOL0     H94057   8.549   1.734  10.924  0.2794  0.0541  1.8071
  697MOL0     H94058   8.468   1.848  11.150  1.7798 -1.4464  1.4615
  697MOL0     H94059   8.114   1.920  11.164 -0.9267 -1.6213 -2.1266
  697MOL0     H94060   8.042   1.762  11.213  1.6764 -1.6823  1.7994
  697MOL0     H94061   8.140   1.983  11.383 -0.1536 -0.6334 -1.4593
  697MOL0     H94062   7.971   1.986  11.334 -0.7981  0.2138 -0.3812
  697MOL0     H94063   8.108   1.750  11.467  2.3937  1.3705 -0.2992
  697MOL0     H94064   8.060   1.885  11.572 -0.5235  2.4922 -1.7671
  697MOL0     H94065   7.922   1.685  11.567 -0.2993  0.3009  0.1334
  697MOL0     H94066   7.873   1.717  11.402 -5.5767  4.6953 -0.6739
  697MOL0     H94067   7.796   1.937  11.468  2.6946  0.4143 -0.6234
  697MOL0     H94068   7.831   1.888  11.632 -1.3985  2.6149 -0.4078
  697MOL0     H94069   7.629   1.745  11.453 -0.5541 -1.8734  0.3109
  697MOL0     H94070   7.675   1.684  11.609  1.8710  0.9656  0.8879
  697MOL0     H94071   7.592   1.883  11.726 -2.0019  2.5912  0.1791
  697MOL0     H94072   7.472   1.782  11.638  1.2897 -1.1425  2.4407
  697MOL0     H94073   7.464   2.040  11.621 -1.4008  0.7419 -2.2515
  697MOL0     H94074   7.582   2.027  11.491 -0.3595  0.9218  0.6515
  697MOL0     H94075   8.144   1.571  11.166  2.8711 -3.7573  3.6760
  697MOL0     H94076   8.209   1.482  10.940 -2.3133 -0.3251  1.4589
  697MOL0     H94077   8.741   1.453  10.647 -0.2282 -2.2872  1.6056
  697MOL0     H94078   8.797   1.328  10.438 -0.0690 -2.8055 -1.1823
  697MOL0     H94079   8.725   0.664   8.932 -0.6141  1.8480 -0.1100
  697MOL0     H94080   8.959   0.578   8.918  0.1527  1.4984 -0.0586
  697MOL0     H94081   9.287   0.468   8.939 -2.6397 -0.0194  3.6576
  697MOL0     H94082   9.516   0.427   8.852 -0.0495  0.0225 -0.2469
  697MOL0     H94083   9.781   0.421   8.807  0.3960 -0.3136 -0.1887
  697MOL0     H94084   9.683   0.288   8.832  1.6453  0.4776 -2.9266
  697MOL0     H94085   9.861   0.158   8.931 -0.9574  0.1785 -0.9345
  697MOL0     H94086   9.970   0.300   8.949  2.9448  0.5758 -4.1787
  697MOL0     H94087   9.998   0.338   8.704 -0.4540  1.4281  0.2731
  697MOL0     H94088   9.875   0.224   8.673 -1.6482 -0.3503  1.6740
  697MOL0     H94089  10.041   0.040   8.753  2.2765 -1.2662  0.2509
  697MOL0     H94090  10.119   0.149   8.640 -1.3072  2.7491  0.3339
  697MOL0     H94091  10.333   0.194   8.997 -1.1073 -0.6856  0.6282
  697MOL0     H94092   9.665   0.439   9.254 -2.1223 -2.3152  2.3314
  697MOL0     H94093   9.377   0.569   9.419  0.1072  0.1089  1.5890
  697MOL0     H94094   9.385   0.393   9.422 -0.3246  0.3735  0.5649
  697MOL0     H94095   9.530   0.500   9.440  0.2575  0.2738 -0.7800
  698MOL0     O94096   3.646   9.705   2.354 -0.6965  0.4497  0.9888
  698MOL0     C94097   3.539   9.648   2.339  0.4763 -0.0537  0.7238
  698MOL0     O94098   3.464   9.648   2.232 -0.1859 -0.5421 -0.1277
  698MOL0     C94099   3.495   9.724   2.128 -0.0839 -0.1064 -0.6612
  698MOL0     C94100   3.558   9.661   2.026 -1.1752  0.7713 -0.3389
  698MOL0     C94101   3.593   9.723   1.909  0.2189  0.5425 -0.5098
  698MOL0     C94102   3.555   9.857   1.883 -0.1619  1.0042 -0.2075
  698MOL0     O94103   3.598   9.929   1.773  0.4909 -0.7095 -0.2038
  698MOL0     C94104   3.701   9.868   1.691 -0.9897 -1.3427  0.4380
  698MOL0     C94105   3.735   9.964   1.579 -0.8006  0.0737  0.9136
  698MOL0     C94106   3.781   9.887   1.449  1.0269  0.8822  0.7983
  698MOL0     C94107   3.793   9.999   1.340  0.1362 -0.2644 -0.4459
  698MOL0     C94108   3.945  10.031   1.321  0.1261 -0.0568 -0.3071
  698MOL0     C94109   3.965  10.141   1.207  0.6319 -0.3711 -0.8684
  698MOL0     C94110   3.923  10.294   1.247 -0.0133 -0.6394  0.4881
  698MOL0     C94111   4.028  10.371   1.329  1.3598  0.7174  0.0953
  698MOL0     N94112   4.142  10.415   1.254 -0.1728  0.2385 -0.3378
  698MOL0     C94113   4.165  10.520   1.179 -1.0935 -0.5865 -0.0278
  698MOL0     C94114   4.295  10.520   1.132  1.2391 -0.6609  1.2432
  698MOL0     C94115   4.336  10.618   1.016  0.6694  0.6855  0.2351
  698MOL0     C94116   4.481  10.594   0.968  0.0878  0.3307 -0.3544
  698MOL0     C94117   4.585  10.641   1.076 -0.3890 -0.4383  0.7508
  698MOL0     C94118   4.723  10.607   1.024  0.5615  0.1242 -0.8943
  698MOL0     O94119   4.736  10.645   0.889 -0.0166  0.3756 -0.1761
  698MOL0     C94120   4.857  10.704   0.863  0.3282  0.5018  1.2628
  698MOL0     C94121   4.979  10.653   0.915 -0.4870  0.7128 -0.6053
  698MOL0     C94122   5.100  10.702   0.883 -0.0716 -1.2477 -0.9661
  698MOL0     C94123   5.111  10.802   0.793 -1.0545 -0.1426 -0.3784
  698MOL0     C94124   5.244  10.858   0.752 -0.1666  0.4344  0.2623
  698MOL0     O94125   5.250  10.967   0.666 -0.1738 -0.5369 -0.7180
  698MOL0     C94126   5.372  11.000   0.616  0.4901 -0.9828  0.4049
  698MOL0     C94127   5.445  10.923   0.523 -0.0580  0.6227  0.0827
  698MOL0     C94128   5.568  10.968   0.483  0.2434  0.5082 -0.1269
  698MOL0     C94129   5.617  11.095   0.511 -0.5181  0.2069  0.4743
  698MOL0     O94130   5.725  11.126   0.436  0.2972  0.1359  0.4249
  698MOL0     C94131   5.825  11.213   0.477 -0.1346  0.0129  0.1500
  698MOL0     C94132   5.947  11.238   0.376  1.0098  0.9038  0.1201
  698MOL0     C94133   6.051  11.319   0.444  0.4343  0.7803  0.1010
  698MOL0     C94134   6.185  11.320   0.359  0.3367 -0.5770 -0.4332
  698MOL0     C94135   6.285  11.415   0.418  0.0241 -0.4393  0.7223
  698MOL0     C94136   6.391  11.439   0.310 -0.1908 -0.2026 -0.0144
  698MOL0     C94137   6.487  11.545   0.365  0.6562  0.4876 -0.1863
  698MOL0     C94138   6.626  11.549   0.297  0.0503  0.3315  0.2683
  698MOL0    Cl94139   6.730  11.658   0.393  0.2080 -0.1953  0.0239
  698MOL0     C94140   5.547  11.178   0.592  0.0174 -0.1193 -0.3677
  698MOL0     C94141   5.419  11.126   0.643 -0.5906 -0.5484  0.2650
  698MOL0     O94142   5.341  10.783   0.777 -0.9112 -0.8618 -0.6103
  698MOL0     C94143   4.990  10.854   0.746  0.7340  0.5203 -0.4201
  698MOL0     C94144   4.869  10.809   0.783  0.9335  0.3524 -0.6084
  698MOL0     N94145   4.341  10.401   1.179  0.3383 -0.0436  0.7051
  698MOL0     N94146   4.260  10.339   1.249  0.0555  0.1961 -0.4873
  698MOL0     C94147   3.493   9.925   1.986 -0.0454  0.2875  1.0126
  698MOL0     C94148   3.455   9.859   2.104 -0.0927  0.4430 -0.5811
  698MOL0     C94149   3.493   9.566   2.453 -0.5225  0.5775  0.2317
  698MOL0     C94150   3.596   9.529   2.542  0.6266 -0.9749 -0.2735
  698MOL0     C94151   3.572   9.445   2.650  0.2606 -0.2755  0.5802
  698MOL0     C94152   3.445   9.386   2.670 -0.2983  0.4334 -0.2649
  698MOL0     O94153   3.412   9.314   2.777 -0.3107 -0.0212 -0.2629
  698MOL0     C94154   3.508   9.289   2.886  0.4331 -0.0456  0.3448
  698MOL0     C94155   3.435   9.202   2.980  0.1057  0.2597 -0.0674
  698MOL0     C94156   3.544   9.136   3.054 -0.5674  0.4512  0.6574
  698MOL0     C94157   3.467   9.038   3.150 -0.5978 -0.8574 -0.1783
  698MOL0     C94158   3.540   9.043   3.279  0.4447  0.5305  1.6521
  698MOL0     C94159   3.608   9.042   3.377  0.7057  0.6373  0.2602
  698MOL0     C94160   3.345   9.412   2.574 -0.7596 -0.0044 -0.1248
  698MOL0     C94161   3.367   9.500   2.461 -0.4868 -0.1747 -0.5135
  698MOL0     C94162   3.247   9.529   2.380 -0.0066 -0.3271  1.1639
  698MOL0     H94163   3.578   9.555   2.034 -1.2191  0.9169  3.4627
  698MOL0     H94164   3.653   9.671   1.835  1.0654 -1.9320  1.7303
  698MOL0     H94165   3.790   9.833   1.744 -0.2048 -0.9383 -0.5921
  698MOL0     H94166   3.654   9.777   1.650 -0.1675 -1.0668 -1.1776
  698MOL0     H94167   3.819  10.032   1.595 -1.1619  0.8080 -0.1208
  698MOL0     H94168   3.649  10.032   1.567 -1.9155 -0.6182  4.1250
  698MOL0     H94169   3.703   9.813   1.426  3.7355 -1.5110 -1.3730
  698MOL0     H94170   3.881   9.845   1.461  0.7550  0.4789  1.7817
  698MOL0     H94171   3.744   9.941   1.261  0.4316 -2.6408  1.0339
  698MOL0     H94172   3.738  10.089   1.369 -0.9217 -0.3315 -2.0718
  698MOL0     H94173   3.986  10.060   1.418 -0.7076  1.3803 -0.3593
  698MOL0     H94174   4.007   9.947   1.288  1.0939  0.4990  0.0524
  698MOL0     H94175   4.066  10.143   1.165  1.3835 -3.4085  0.5402
  698MOL0     H94176   3.890  10.121   1.129 -1.4752  0.9077  0.7072
  698MOL0     H94177   3.834  10.306   1.309 -2.5334  2.1629 -3.3018
  698MOL0     H94178   3.899  10.349   1.156 -0.4802  0.3106  1.1775
  698MOL0     H94179   3.970  10.459   1.360 -0.0856  0.1650 -0.9258
  698MOL0     H94180   4.071  10.322   1.417  2.6205 -0.4509 -1.1264
  698MOL0     H94181   4.094  10.601   1.163 -2.1135 -1.4957 -0.2460
  698MOL0     H94182   4.267  10.611   0.931  0.8132  3.4169 -0.2225
  698MOL0     H94183   4.332  10.720   1.056 -0.7904  2.2687 -3.4497
  698MOL0     H94184   4.500  10.489   0.944 -1.4828  0.5862 -3.1364
  698MOL0     H94185   4.500  10.661   0.884  0.4518  1.8637  0.8976
  698MOL0     H94186   4.560  10.590   1.169 -2.6194 -1.0427 -0.1302
  698MOL0     H94187   4.572  10.749   1.087 -0.0450 -0.2018 -0.8848
  698MOL0     H94188   4.735  10.498   1.026  0.5527  0.1311 -0.4542
  698MOL0     H94189   4.800  10.648   1.089  2.5728 -1.6026 -2.0525
  698MOL0     H94190   4.988  10.568   0.981  1.1628 -0.6362 -2.4367
  698MOL0     H94191   5.184  10.664   0.941  0.0065  0.4887  0.1107
  698MOL0     H94192   5.431  10.819   0.495  1.4547  0.2677  0.5690
  698MOL0     H94193   5.617  10.907   0.408 -3.7560 -1.9679 -1.0608
  698MOL0     H94194   5.787  11.313   0.502  2.6443  1.7085 -1.8209
  698MOL0     H94195   5.863  11.159   0.564 -2.3420 -1.0887  0.5097
  698MOL0     H94196   5.995  11.143   0.349  0.6185  1.1098 -1.4133
  698MOL0     H94197   5.905  11.280   0.284 -1.8309 -1.1403  0.3326
  698MOL0     H94198   6.018  11.420   0.468  2.2096  1.1648  1.0251
  698MOL0     H94199   6.084  11.277   0.540  1.1340  4.2295  1.5130
  698MOL0     H94200   6.168  11.346   0.254  1.4564 -2.4929 -1.1306
  698MOL0     H94201   6.223  11.218   0.357 -0.7957 -1.1506  2.5105
  698MOL0     H94202   6.332  11.380   0.511  2.0507  2.0267  0.7455
  698MOL0     H94203   6.248  11.515   0.441  1.6355 -0.5315  4.5049
  698MOL0     H94204   6.445  11.345   0.301  1.7497  0.5227  2.6920
  698MOL0     H94205   6.347  11.469   0.215 -2.1750 -1.1705  0.5539
  698MOL0     H94206   6.498  11.527   0.473 -0.4088 -1.3429 -0.3421
  698MOL0     H94207   6.445  11.645   0.362 -2.1681 -0.6308 -1.9747
  698MOL0     H94208   6.676  11.452   0.304  2.1159  1.3199 -0.1388
  698MOL0     H94209   6.628  11.590   0.196  0.5363  2.2358  0.9950
  698MOL0     H94210   5.581  11.280   0.605  1.0478 -0.2430 -1.8167
  698MOL0     H94211   5.349  11.185   0.700  0.8644  1.6451 -0.0873
  698MOL0     H94212   4.995  10.947   0.690  5.2654  0.7275 -0.0240
  698MOL0     H94213   4.775  10.846   0.745 -1.5543 -1.1692  3.4201
  698MOL0     H94214   3.465  10.027   1.959 -1.6932 -0.5307 -0.5766
  698MOL0     H94215   3.417   9.917   2.187 -0.9598 -0.9212  0.0028
  698MOL0     H94216   3.695   9.564   2.514  0.3712  0.3976  0.4656
  698MOL0     H94217   3.651   9.424   2.721  0.0108 -2.1970  0.3572
  698MOL0     H94218   3.542   9.380   2.937  3.1433 -1.7453  1.8426
  698MOL0     H94219   3.596   9.239   2.844  0.7082  0.1943  0.6319
  698MOL0     H94220   3.364   9.134   2.932 -1.0298 -1.4458  3.5893
  698MOL0     H94221   3.375   9.257   3.054 -0.0321 -0.1610  0.1404
  698MOL0     H94222   3.601   9.209   3.113  0.6690  1.2173 -1.3983
  698MOL0     H94223   3.610   9.083   2.986  0.5298 -0.2999  2.2395
  698MOL0     H94224   3.362   9.064   3.164 -1.2746 -3.3329 -0.1835
  698MOL0     H94225   3.457   8.940   3.103  0.1019 -0.5334 -1.0260
  698MOL0     H94226   3.684   9.049   3.452  1.1655 -1.2006  0.0286
  698MOL0     H94227   3.256   9.351   2.586  0.5314 -1.5408  2.8734
  698MOL0     H94228   3.248   9.465   2.291 -0.8922  0.3448  0.6592
  698MOL0     H94229   3.153   9.506   2.431 -0.8622 -0.4408 -0.4304
  698MOL0     H94230   3.229   9.634   2.355 -1.5198 -0.7736  0.2922
  699MOL0     O94231   4.790   3.824   0.483  0.3891  0.1625  0.5907
  699MOL0     C94232   4.908   3.826   0.458  0.3031  0.9751  0.3452
  699MOL0     O94233   4.962   3.892   0.352  0.8639 -0.5062  0.4328
  699MOL0     C94234   4.886   3.996   0.302  0.1652  0.6170 -0.3214
  699MOL0     C94235   4.867   4.114   0.368  0.1483 -0.4399  0.1903
  699MOL0     C94236   4.778   4.214   0.309  0.8285  0.5299  0.3874
  699MOL0     C94237   4.710   4.183   0.189  0.2537 -0.3996 -0.4653
  699MOL0     O94238   4.614   4.266   0.131 -0.2128 -0.5490  0.5185
  699MOL0     C94239   4.547   4.366   0.212 -0.5133 -0.4453 -0.1330
  699MOL0     C94240   4.431   4.441   0.150  0.4142 -0.3700 -0.0243
  699MOL0     C94241   4.453   4.494   0.010 -0.5823  0.4794 -0.4141
  699MOL0     C94242   4.534   4.622   0.013  0.1929 -1.0461  0.9345
  699MOL0     C94243   4.546   4.660  -0.136  0.6815  0.5380  0.4558
  699MOL0     C94244   4.644   4.772  -0.148 -0.1027  0.2364 -0.3375
  699MOL0     C94245   4.669   4.810  -0.295 -1.1064 -0.2938 -0.2277
  699MOL0     C94246   4.758   4.939  -0.305 -0.1879  0.0653 -0.0147
  699MOL0     N94247   4.882   4.928  -0.388 -0.0838  0.1216  0.7791
  699MOL0     C94248   4.991   4.853  -0.354  0.3231 -0.3689 -0.0137
  699MOL0     C94249   5.064   4.844  -0.466 -0.2989 -0.4598  0.9888
  699MOL0     C94250   5.208   4.797  -0.474 -0.0254 -0.8644 -0.1124
  699MOL0     C94251   5.253   4.707  -0.360  0.4090  0.8123 -0.2693
  699MOL0     C94252   5.363   4.620  -0.388 -0.1523  0.5894 -1.2913
  699MOL0     C94253   5.470   4.667  -0.487 -0.4260 -0.5317 -0.4880
  699MOL0     O94254   5.421   4.622  -0.618  0.1081 -0.9095  0.8182
  699MOL0     C94255   5.511   4.620  -0.722  0.1528 -0.7065  0.8581
  699MOL0     C94256   5.508   4.507  -0.806  0.1690  0.3803  0.0099
  699MOL0     C94257   5.597   4.514  -0.910 -0.7088  0.6107  0.2384
  699MOL0     C94258   5.709   4.616  -0.931  0.3400 -0.6483 -1.1995
  699MOL0     C94259   5.796   4.603  -1.049  0.2224 -1.1826 -0.3465
  699MOL0     O94260   5.862   4.710  -1.082  0.3726 -0.9114 -0.7226
  699MOL0     C94261   5.974   4.703  -1.157 -0.3253  0.1467  0.0555
  699MOL0     C94262   6.009   4.818  -1.229 -1.0813 -0.1871  0.9671
  699MOL0     C94263   6.144   4.816  -1.292  0.1766  0.0363  0.3316
  699MOL0     C94264   6.235   4.713  -1.292 -0.5774  0.2220 -0.2588
  699MOL0     O94265   6.351   4.726  -1.362  0.0300 -0.4798 -0.0752
  699MOL0     C94266   6.473   4.701  -1.291 -0.3317 -0.9382  0.4031
  699MOL0     C94267   6.601   4.674  -1.373  0.5780 -0.2680 -0.7144
  699MOL0     C94268   6.667   4.800  -1.436 -0.0282 -0.3305 -0.1842
  699MOL0     C94269   6.757   4.748  -1.544 -0.2063 -0.5971  0.3678
  699MOL0     C94270   6.847   4.854  -1.600  0.8265  0.1081  0.2991
  699MOL0     C94271   6.771   4.966  -1.668 -0.2399 -0.4359  0.7154
  699MOL0     C94272   6.855   5.068  -1.741  0.4231 -0.2064  0.1008
  699MOL0     C94273   6.897   5.190  -1.662  0.2195 -0.3479  0.4198
  699MOL0    Cl94274   6.962   5.312  -1.778 -0.1135 -0.1279  0.1027
  699MOL0     C94275   6.192   4.600  -1.225  0.7130 -0.2120  0.3716
  699MOL0     C94276   6.069   4.594  -1.156  0.6500  0.4822  0.4062
  699MOL0     O94277   5.820   4.487  -1.095 -0.3923  0.2179 -0.2900
  699MOL0     C94278   5.712   4.706  -0.826 -1.2336 -0.7985 -0.4206
  699MOL0     C94279   5.616   4.712  -0.728  1.1345  0.8441  0.0629
  699MOL0     N94280   5.010   4.919  -0.567  1.1565  0.0252  0.7456
  699MOL0     N94281   4.896   4.962  -0.516 -0.2510 -0.4619  0.1019
  699MOL0     C94282   4.738   4.066   0.121 -0.2798  0.2751 -0.3186
  699MOL0     C94283   4.837   3.981   0.171 -0.0272  0.0871 -0.6503
  699MOL0     C94284   5.004   3.743   0.533  0.3117 -0.0384 -0.4277
  699MOL0     C94285   5.122   3.713   0.470 -0.0831 -1.0556  0.2415
  699MOL0     C94286   5.222   3.638   0.533  1.0912  0.3745 -0.0788
  699MOL0     C94287   5.212   3.609   0.670  0.8985 -0.7876 -0.5709
  699MOL0     O94288   5.305   3.539   0.741 -0.9652 -0.1031 -0.0997
  699MOL0     C94289   5.299   3.396   0.713 -0.2260 -0.0331 -0.5741
  699MOL0     C94290   5.438   3.333   0.723  0.5447 -0.5107  0.1695
  699MOL0     C94291   5.549   3.396   0.633 -0.2660  0.0839 -0.3062
  699MOL0     C94292   5.537   3.355   0.482 -0.1428  0.4388  0.5480
  699MOL0     C94293   5.626   3.423   0.390  0.0565  0.5160 -0.6321
  699MOL0     C94294   5.699   3.469   0.308 -1.0740 -0.1691  0.5736
  699MOL0     C94295   5.095   3.640   0.734  0.7416  0.4834  0.4960
  699MOL0     C94296   4.986   3.709   0.667 -0.6017 -1.1505  0.6299
  699MOL0     C94297   4.859   3.731   0.749 -0.3570  0.4897  0.1426
  699MOL0     H94298   4.913   4.133   0.464 -0.6916 -0.7023  0.6532
  699MOL0     H94299   4.747   4.304   0.361 -2.1220 -1.6394  2.7667
  699MOL0     H94300   4.506   4.330   0.307 -1.6734  1.9289  0.3395
  699MOL0     H94301   4.621   4.442   0.240  0.3167 -1.5217  0.6973
  699MOL0     H94302   4.401   4.522   0.216  2.6175 -1.5624  2.6594
  699MOL0     H94303   4.350   4.369   0.138  2.8262 -2.9915 -2.2009
  699MOL0     H94304   4.360   4.520  -0.041 -0.3620 -2.0960 -2.2730
  699MOL0     H94305   4.494   4.413  -0.051 -2.9679 -2.4082  1.5287
  699MOL0     H94306   4.482   4.703   0.065 -2.2862  0.1672 -3.0558
  699MOL0     H94307   4.627   4.595   0.065  0.4971  1.8139  2.0461
  699MOL0     H94308   4.578   4.577  -0.199 -1.0009  1.0786 -1.2031
  699MOL0     H94309   4.451   4.695  -0.177  1.0818  0.5407 -0.5211
  699MOL0     H94310   4.592   4.857  -0.105 -1.3788 -0.2266 -0.9124
  699MOL0     H94311   4.734   4.750  -0.090 -0.6419  1.9324  1.2272
  699MOL0     H94312   4.578   4.845  -0.345 -1.0884  1.8366  1.1028
  699MOL0     H94313   4.721   4.734  -0.354  0.6281  1.9381 -1.8116
  699MOL0     H94314   4.698   5.011  -0.362  0.4624  0.4267 -0.2562
  699MOL0     H94315   4.784   4.985  -0.209  0.3866  1.6760 -0.9000
  699MOL0     H94316   5.012   4.805  -0.259 -0.2004 -1.1702 -0.2919
  699MOL0     H94317   5.199   4.734  -0.563 -0.7968  2.4088 -2.5261
  699MOL0     H94318   5.282   4.869  -0.508 -1.1082 -0.7018 -2.3399
  699MOL0     H94319   5.271   4.772  -0.274  2.9430 -1.7761  1.3573
  699MOL0     H94320   5.167   4.642  -0.343  1.3778 -0.2801  0.6611
  699MOL0     H94321   5.330   4.524  -0.430  1.9945 -0.4418 -0.7990
  699MOL0     H94322   5.416   4.585  -0.299  3.5237 -0.7707 -3.7739
  699MOL0     H94323   5.568   4.620  -0.474  1.2776  3.0689  0.9954
  699MOL0     H94324   5.476   4.776  -0.480 -2.5832 -0.4161  0.5296
  699MOL0     H94325   5.438   4.425  -0.792 -0.4438  0.5240 -1.8919
  699MOL0     H94326   5.598   4.432  -0.981  0.3039  0.2877  0.6054
  699MOL0     H94327   5.941   4.901  -1.241 -0.2653  0.6294  1.8513
  699MOL0     H94328   6.167   4.907  -1.348  0.4521 -1.6389 -2.4733
  699MOL0     H94329   6.493   4.777  -1.215 -0.0759 -0.9562  0.3552
  699MOL0     H94330   6.460   4.606  -1.237 -1.0871 -2.1304 -1.7592
  699MOL0     H94331   6.662   4.631  -1.293  0.6990  2.2106  0.6203
  699MOL0     H94332   6.582   4.604  -1.455 -0.5305 -0.6347 -0.1570
  699MOL0     H94333   6.593   4.863  -1.487  0.5573  0.2275 -0.3451
  699MOL0     H94334   6.721   4.863  -1.365 -0.5575  0.4007 -0.4156
  699MOL0     H94335   6.700   4.720  -1.633  1.5786  0.7641 -1.3004
  699MOL0     H94336   6.818   4.660  -1.518  0.6310 -0.5869 -1.4396
  699MOL0     H94337   6.914   4.805  -1.671 -2.0890 -2.0904 -1.1185
  699MOL0     H94338   6.905   4.888  -1.513  0.5904  1.3487 -0.0026
  699MOL0     H94339   6.698   4.927  -1.740  0.2132 -0.1173  0.0776
  699MOL0     H94340   6.709   5.009  -1.589 -2.8023 -1.1890 -0.7379
  699MOL0     H94341   6.795   5.103  -1.826  3.7899  0.8526 -2.0876
  699MOL0     H94342   6.945   5.021  -1.782  0.4362  1.9496 -2.6868
  699MOL0     H94343   6.800   5.224  -1.625 -0.6487 -0.3693 -1.6907
  699MOL0     H94344   6.973   5.188  -1.583  3.2760  0.2175 -2.2916
  699MOL0     H94345   6.244   4.505  -1.213 -1.7527 -1.2575  6.7805
  699MOL0     H94346   6.047   4.503  -1.100 -0.3639 -0.1686 -0.9820
  699MOL0     H94347   5.786   4.785  -0.838 -0.8527 -1.2115 -0.8330
  699MOL0     H94348   5.615   4.792  -0.655  1.7226  1.8827 -1.0353
  699MOL0     H94349   4.688   4.035   0.030 -3.0801 -0.2351  1.2721
  699MOL0     H94350   4.865   3.885   0.128  2.6727 -1.7390  4.2496
  699MOL0     H94351   5.143   3.738   0.367 -4.8503  3.9923  0.0618
  699MOL0     H94352   5.307   3.598   0.480  1.5466  0.1116  0.8339
  699MOL0     H94353   5.259   3.392   0.612  1.0195 -1.2302 -1.0543
  699MOL0     H94354   5.229   3.370   0.793  1.3141 -0.4570  0.6820
  699MOL0     H94355   5.423   3.225   0.715 -0.1071 -0.7538  3.4684
  699MOL0     H94356   5.475   3.352   0.824  1.0007 -1.1601  0.1346
  699MOL0     H94357   5.646   3.370   0.676  0.7724  1.1015 -1.9184
  699MOL0     H94358   5.533   3.503   0.644 -2.4278 -0.3634  1.6104
  699MOL0     H94359   5.563   3.250   0.466  3.4476  0.9847  1.8385
  699MOL0     H94360   5.439   3.377   0.440  0.2551 -1.4556 -1.5829
  699MOL0     H94361   5.772   3.504   0.238 -0.6827  1.0499  1.5578
  699MOL0     H94362   5.098   3.606   0.837  1.2592  3.1303  1.4610
  699MOL0     H94363   4.824   3.832   0.731  1.8469  1.0762 -1.2653
  699MOL0     H94364   4.783   3.659   0.717  0.0530 -0.5077  1.3168
  699MOL0     H94365   4.882   3.710   0.854  0.4532 -0.1414 -0.1463
  700MOL0     O94366   9.062   6.825  10.846  1.1935  0.4158 -0.4478
  700MOL0     C94367   9.110   6.776  10.743 -0.3809 -0.9143  0.4084
  700MOL0     O94368   9.196   6.672  10.742  0.4224  0.0891  0.8721
  700MOL0     C94369   9.249   6.620  10.860  1.0548 -1.0100  0.1885
  700MOL0     C94370   9.268   6.486  10.859  1.1178  0.1246 -0.5968
  700MOL0     C94371   9.308   6.425  10.977 -0.4583  0.6819 -0.4976
  700MOL0     C94372   9.353   6.501  11.085  0.4174 -0.7475  0.2539
  700MOL0     O94373   9.379   6.438  11.212 -0.5752 -0.2169  0.8684
  700MOL0     C94374   9.251   6.419  11.281  0.1543  0.0584  0.4998
  700MOL0     C94375   9.266   6.343  11.405 -0.0446 -0.9784  0.5604
  700MOL0     C94376   9.130   6.345  11.481 -0.2210  0.4569 -0.5494
  700MOL0     C94377   9.144   6.299  11.629  0.7848 -0.7240  1.2361
  700MOL0     C94378   9.019   6.347  11.706  0.6479 -0.2667  0.8094
  700MOL0     C94379   8.889   6.287  11.647  0.4118 -0.3895  0.3320
  700MOL0     C94380   8.759   6.327  11.721  0.3261  0.2484 -0.0687
  700MOL0     C94381   8.723   6.474  11.697  0.1465 -0.0806 -0.2502
  700MOL0     N94382   8.598   6.499  11.759 -0.3384  0.6110 -0.2084
  700MOL0     C94383   8.490   6.418  11.785 -0.1558 -0.6308  0.6898
  700MOL0     C94384   8.407   6.470  11.879 -0.4511 -0.1862 -0.4096
  700MOL0     C94385   8.292   6.412  11.947  0.0937 -0.2044 -0.9174
  700MOL0     C94386   8.183   6.379  11.851  0.1575 -0.1761 -0.8821
  700MOL0     C94387   8.068   6.292  11.916  0.1009  0.3607 -0.0935
  700MOL0     C94388   8.110   6.145  11.944 -0.5256 -0.3049  0.7197
  700MOL0     O94389   8.153   6.076  11.830  0.4893  0.2929  0.0523
  700MOL0     C94390   8.281   6.026  11.823 -0.7729  1.2367 -0.2951
  700MOL0     C94391   8.387   6.026  11.916 -0.5461  0.3421  0.2633
  700MOL0     C94392   8.518   5.977  11.889  0.2892  0.1180 -0.3917
  700MOL0     C94393   8.545   5.926  11.757  0.2661  0.5272  1.0381
  700MOL0     C94394   8.672   5.869  11.720 -0.0061 -0.3190  0.2033
  700MOL0     O94395   8.680   5.835  11.587  0.0831 -0.5552 -0.1530
  700MOL0     C94396   8.803   5.812  11.547  0.3682 -0.8930  1.0115
  700MOL0     C94397   8.884   5.700  11.575 -0.2572  0.1028 -0.3758
  700MOL0     C94398   9.003   5.688  11.509  0.3146 -1.0087  0.0654
  700MOL0     C94399   9.050   5.776  11.403  0.9548  0.7160  0.8198
  700MOL0     O94400   9.162   5.752  11.325 -0.1063 -0.3477 -1.1014
  700MOL0     C94401   9.218   5.849  11.232  0.4812  0.0305 -0.2319
  700MOL0     C94402   9.363   5.807  11.197  0.1070  0.3899  0.8618
  700MOL0     C94403   9.420   5.851  11.051  0.9779  0.3225  0.5943
  700MOL0     C94404   9.328   5.929  10.952  0.2757 -0.0787 -0.3001
  700MOL0     C94405   9.404   5.963  10.829 -0.2035  1.0139  0.6652
  700MOL0     C94406   9.325   6.035  10.718  0.0256 -0.2544  0.5213
  700MOL0     C94407   9.414   6.090  10.606 -0.4852  0.5956 -0.2231
  700MOL0     C94408   9.323   6.178  10.508  0.7150  0.5150 -0.3947
  700MOL0    Cl94409   9.348   6.349  10.559  0.0503 -0.0079  0.1678
  700MOL0     C94410   8.961   5.881  11.377 -0.0746 -0.1598 -0.3200
  700MOL0     C94411   8.843   5.903  11.450  0.1857  0.1226 -1.2107
  700MOL0     O94412   8.766   5.880  11.798 -0.3478 -0.1623 -0.0089
  700MOL0     C94413   8.435   5.912  11.664 -0.0460 -0.3632 -0.0515
  700MOL0     C94414   8.307   5.963  11.692  0.1139 -0.6210 -0.4353
  700MOL0     N94415   8.473   6.599  11.903 -0.6009 -0.4292 -0.5975
  700MOL0     N94416   8.575   6.616  11.824  0.6064 -0.0203 -0.5773
  700MOL0     C94417   9.364   6.640  11.072 -0.5659  0.5428  0.3225
  700MOL0     C94418   9.305   6.701  10.964 -0.1068  0.1596  0.4193
  700MOL0     C94419   9.064   6.826  10.620 -0.0972  0.5002 -0.0017
  700MOL0     C94420   9.009   6.958  10.612 -0.8388 -0.2386  0.7402
  700MOL0     C94421   8.987   7.025  10.486  0.8921 -0.0318  0.1834
  700MOL0     C94422   9.001   6.948  10.364 -0.4588  0.2255  0.1132
  700MOL0     O94423   8.957   6.995  10.242  0.1204 -0.2423 -0.0972
  700MOL0     C94424   8.838   7.070  10.242  0.8934 -0.8386  0.3040
  700MOL0     C94425   8.829   7.116  10.087  1.1168 -0.1941  0.2651
  700MOL0     C94426   8.726   7.229  10.050 -0.0565  0.4442 -0.2691
  700MOL0     C94427   8.583   7.204  10.088  0.6498 -0.3994 -0.6631
  700MOL0     C94428   8.531   7.077  10.029  0.1698 -0.9666 -0.2274
  700MOL0     C94429   8.470   6.981   9.997 -0.6793  0.6861 -0.0859
  700MOL0     C94430   9.037   6.817  10.370 -0.7324 -0.8404 -0.1193
  700MOL0     C94431   9.068   6.753  10.496  0.0464 -0.4797 -0.4961
  700MOL0     C94432   9.129   6.614  10.477  0.7755 -0.9980 -0.4258
  700MOL0     H94433   9.221   6.436  10.775  2.1460 -1.0795 -0.4854
  700MOL0     H94434   9.303   6.318  10.988  0.7514  0.7051  0.5493
  700MOL0     H94435   9.215   6.519  11.304  2.0553  1.1702 -1.1107
  700MOL0     H94436   9.182   6.363  11.216  1.9368 -2.5945  0.7140
  700MOL0     H94437   9.342   6.387  11.470  0.0643 -0.4026  0.0405
  700MOL0     H94438   9.286   6.236  11.392  3.0599 -0.4779  0.3823
  700MOL0     H94439   9.061   6.275  11.432 -0.0034  0.7359 -1.2666
  700MOL0     H94440   9.093   6.448  11.484 -0.3633  0.3901  1.4457
  700MOL0     H94441   9.157   6.191  11.639 -1.8099 -0.9407  3.4952
  700MOL0     H94442   9.226   6.351  11.681  0.7322 -0.2858  0.8814
  700MOL0     H94443   9.033   6.316  11.810  1.3205  1.3611  1.2352
  700MOL0     H94444   9.018   6.455  11.694  0.8363 -0.5014 -2.0958
  700MOL0     H94445   8.876   6.305  11.540 -1.8316  0.5524  0.7114
  700MOL0     H94446   8.889   6.179  11.663 -0.7491 -0.9462 -2.6765
  700MOL0     H94447   8.771   6.313  11.828  0.2071 -0.4144 -0.1364
  700MOL0     H94448   8.674   6.266  11.691  1.1821 -1.6020  1.1259
  700MOL0     H94449   8.803   6.536  11.740  1.8992 -0.7222 -2.3570
  700MOL0     H94450   8.717   6.498  11.590 -0.4766 -2.1304 -0.7180
  700MOL0     H94451   8.486   6.316  11.748  2.1197 -0.5098 -0.0849
  700MOL0     H94452   8.315   6.316  11.996  2.7857  1.0036  0.4425
  700MOL0     H94453   8.267   6.480  12.029  0.8441 -1.2957  0.2561
  700MOL0     H94454   8.137   6.475  11.826 -3.1557 -0.4016  3.1843
  700MOL0     H94455   8.223   6.337  11.759  1.6879 -2.1456  0.5879
  700MOL0     H94456   7.978   6.282  11.855 -1.3024 -1.1134  2.0349
  700MOL0     H94457   8.034   6.344  12.006 -2.1673 -0.6062 -0.3050
  700MOL0     H94458   8.020   6.090  11.970  1.2087 -3.4372  0.5498
  700MOL0     H94459   8.183   6.148  12.026  0.1700 -0.4135  0.1170
  700MOL0     H94460   8.369   6.068  12.014  0.1631 -0.2735  0.6576
  700MOL0     H94461   8.596   5.990  11.964  1.1292 -1.6614 -0.9055
  700MOL0     H94462   8.840   5.621  11.636 -1.7899 -1.1159 -2.9244
  700MOL0     H94463   9.058   5.595  11.521 -0.2023 -1.2422  0.7169
  700MOL0     H94464   9.154   5.839  11.144 -2.4361  1.9099  1.4918
  700MOL0     H94465   9.222   5.948  11.280 -0.6206 -0.9165  1.9500
  700MOL0     H94466   9.426   5.851  11.274  0.1394  2.6214 -0.3586
  700MOL0     H94467   9.387   5.700  11.207 -3.3996 -0.6116  0.1946
  700MOL0     H94468   9.517   5.901  11.060  0.9516  0.3396  0.7923
  700MOL0     H94469   9.443   5.760  10.995 -2.2574 -1.1349  1.4117
  700MOL0     H94470   9.287   6.021  10.994  3.8048  1.8496 -0.6944
  700MOL0     H94471   9.239   5.866  10.941  1.0803 -1.1889 -0.6935
  700MOL0     H94472   9.440   5.869  10.786  1.9894  1.5013  1.3118
  700MOL0     H94473   9.493   6.020  10.857  0.1661  1.1111 -0.6468
  700MOL0     H94474   9.251   5.962  10.687 -1.5861  1.0660  1.0917
  700MOL0     H94475   9.264   6.115  10.762 -1.7090 -0.4326 -1.4175
  700MOL0     H94476   9.460   6.006  10.553  3.8078  1.1111  2.2250
  700MOL0     H94477   9.502   6.139  10.648  0.6124 -0.8756 -0.7253
  700MOL0     H94478   9.360   6.155  10.407  1.1102  1.1762 -0.3990
  700MOL0     H94479   9.217   6.152  10.517  1.1618 -0.9478  1.1046
  700MOL0     H94480   8.969   5.954  11.297  3.2702  1.9127  1.6572
  700MOL0     H94481   8.772   5.980  11.423 -1.9065 -1.6455 -1.0677
  700MOL0     H94482   8.443   5.864  11.567  0.9469  1.2793 -0.8274
  700MOL0     H94483   8.230   5.968  11.615 -1.3700  5.3022  0.9195
  700MOL0     H94484   9.407   6.707  11.146 -0.7342  0.9600  0.0466
  700MOL0     H94485   9.322   6.806  10.947 -1.8255  0.1732 -1.6022
  700MOL0     H94486   9.003   7.018  10.703  2.9056 -0.2772  1.1324
  700MOL0     H94487   8.957   7.129  10.486 -2.5001 -0.8812  1.1937
  700MOL0     H94488   8.850   7.157  10.307 -1.4846  0.1585 -0.4661
  700MOL0     H94489   8.751   7.008  10.266 -1.5479  2.3646  0.3519
  700MOL0     H94490   8.800   7.025  10.034 -2.3143 -0.0710  1.6952
  700MOL0     H94491   8.927   7.157  10.059  0.0782  3.4248  1.4329
  700MOL0     H94492   8.723   7.239   9.941 -2.5092 -4.5476 -0.9654
  700MOL0     H94493   8.763   7.315  10.106  0.4764  0.7379 -1.0526
  700MOL0     H94494   8.574   7.184  10.195 -2.4775 -3.3623 -1.3122
  700MOL0     H94495   8.523   7.292  10.059 -1.0192 -1.9008 -1.9886
  700MOL0     H94496   8.425   6.887   9.972  2.3194 -2.6355  5.1032
  700MOL0     H94497   9.039   6.748  10.286 -4.3853 -1.5958  0.2731
  700MOL0     H94498   9.234   6.639  10.490 -0.0254  2.0086  1.1944
  700MOL0     H94499   9.087   6.532  10.536  0.1688  0.1589  0.8108
  700MOL0     H94500   9.112   6.579  10.374  0.9229  1.4800 -1.3685
  701MOL0     O94501   7.732   6.382   2.224 -0.6207  0.3538  0.5375
  701MOL0     C94502   7.833   6.408   2.158  0.8627 -0.3073 -0.6857
  701MOL0     O94503   7.966   6.390   2.196 -0.0192  0.2343 -0.3852
  701MOL0     C94504   7.992   6.325   2.314 -0.3171  0.7109 -0.4239
  701MOL0     C94505   7.974   6.187   2.320 -0.1672 -1.0640 -0.6477
  701MOL0     C94506   7.988   6.121   2.438 -0.2828 -0.7763  0.1370
  701MOL0     C94507   8.029   6.189   2.549 -0.2674 -0.1889 -0.8145
  701MOL0     O94508   8.056   6.112   2.659 -0.1282  0.3118 -0.0636
  701MOL0     C94509   8.139   6.164   2.768 -0.3462 -1.0298 -0.3317
  701MOL0     C94510   8.061   6.170   2.903 -0.5360  0.1056  0.6441
  701MOL0     C94511   8.004   6.043   2.962  0.2182 -0.0417 -1.1971
  701MOL0     C94512   8.093   5.922   2.941  0.2030 -0.1664 -0.6239
  701MOL0     C94513   8.053   5.805   3.027 -0.5443 -0.3164 -0.6164
  701MOL0     C94514   8.180   5.721   3.052 -0.4392 -0.1069  0.4399
  701MOL0     C94515   8.150   5.609   3.147 -0.2127  0.4882  0.1458
  701MOL0     C94516   8.286   5.562   3.196 -0.3578  0.5452 -0.1879
  701MOL0     N94517   8.353   5.478   3.101 -0.1891 -0.2328 -0.1093
  701MOL0     C94518   8.463   5.527   3.020  0.2488  0.4324  0.3167
  701MOL0     C94519   8.515   5.408   2.983  0.7519  0.4546 -0.2660
  701MOL0     C94520   8.651   5.390   2.916 -0.3094 -0.3024 -0.3816
  701MOL0     C94521   8.672   5.489   2.801 -0.9700 -0.0666  0.4824
  701MOL0     C94522   8.804   5.482   2.718 -0.1700  0.3231 -0.2990
  701MOL0     C94523   8.815   5.596   2.604  0.3290  0.0905  0.8306
  701MOL0     O94524   8.938   5.595   2.530 -0.3030  1.0228 -0.2906
  701MOL0     C94525   8.948   5.655   2.412 -0.1770 -0.2397 -0.2653
  701MOL0     C94526   9.055   5.623   2.324  0.4168  0.2842 -0.9503
  701MOL0     C94527   9.066   5.698   2.206 -0.6767  0.7520 -0.3703
  701MOL0     C94528   8.974   5.784   2.156 -0.4452 -0.3093  0.1715
  701MOL0     C94529   8.998   5.851   2.027  0.0240 -0.2014  0.8306
  701MOL0     O94530   9.112   5.848   1.958 -0.2498  0.4037 -0.4259
  701MOL0     C94531   9.131   5.928   1.838  0.0431  0.1266 -0.4275
  701MOL0     C94532   9.249   5.988   1.819 -0.7131  1.0399 -0.3559
  701MOL0     C94533   9.280   6.062   1.709 -0.5251  0.3898  0.5306
  701MOL0     C94534   9.186   6.073   1.608 -0.1382 -0.2267  0.0424
  701MOL0     O94535   9.213   6.154   1.503 -0.1577  0.3573  0.0021
  701MOL0     C94536   9.107   6.226   1.437  0.1228 -0.3919  0.1008
  701MOL0     C94537   9.146   6.380   1.424  0.2155 -0.3927  0.0298
  701MOL0     C94538   9.084   6.459   1.314  0.7410 -0.4486  0.6372
  701MOL0     C94539   9.128   6.609   1.328 -1.5459  0.0826  0.3382
  701MOL0     C94540   9.080   6.694   1.210 -0.1862  0.4834  0.8004
  701MOL0     C94541   9.143   6.651   1.077 -0.2139  0.3054  0.2813
  701MOL0     C94542   9.294   6.649   1.073  0.3412 -0.1001  0.3829
  701MOL0     C94543   9.367   6.780   1.097  0.9121 -0.1939  0.0048
  701MOL0    Cl94544   9.530   6.714   1.071 -0.0222  0.1181 -0.3370
  701MOL0     C94545   9.067   5.994   1.616 -0.3138 -0.3960  0.5263
  701MOL0     C94546   9.036   5.919   1.734 -0.9426 -0.5649  0.1975
  701MOL0     O94547   8.902   5.922   1.994  0.1648  0.0578  0.1086
  701MOL0     C94548   8.860   5.801   2.244 -0.1207  0.4968 -0.3902
  701MOL0     C94549   8.849   5.739   2.362 -0.2196 -0.7340  0.1821
  701MOL0     N94550   8.430   5.307   3.016 -0.0692  0.0273  0.6652
  701MOL0     N94551   8.334   5.345   3.092 -1.2600  0.1439  1.0088
  701MOL0     C94552   8.043   6.331   2.543 -0.5536  0.6334  0.3854
  701MOL0     C94553   8.019   6.401   2.427 -0.4259 -0.8601 -0.3429
  701MOL0     C94554   7.798   6.461   2.018 -0.3718 -0.2108 -0.4367
  701MOL0     C94555   7.691   6.553   1.987  0.7330 -0.3436  0.2606
  701MOL0     C94556   7.655   6.598   1.861  0.9217  1.1285 -0.3613
  701MOL0     C94557   7.736   6.552   1.759  0.5572 -0.1592  0.3602
  701MOL0     O94558   7.703   6.598   1.634 -0.1672  0.4550  0.3545
  701MOL0     C94559   7.683   6.501   1.531  0.2496 -0.2655  0.0146
  701MOL0     C94560   7.581   6.550   1.431 -0.1115  0.1798  0.0639
  701MOL0     C94561   7.434   6.548   1.495  0.3498  0.5207 -0.0018
  701MOL0     C94562   7.327   6.524   1.382  0.3976  0.5065  0.4573
  701MOL0     C94563   7.194   6.523   1.437  0.4937  0.1263 -0.4156
  701MOL0     C94564   7.083   6.538   1.490  0.4759 -0.5030  0.7711
  701MOL0     C94565   7.842   6.468   1.782 -0.9269 -0.5833 -0.6266
  701MOL0     C94566   7.874   6.414   1.902 -0.2119  0.2215 -0.5160
  701MOL0     C94567   7.958   6.290   1.906  0.6346 -0.0207  0.1304
  701MOL0     H94568   7.959   6.134   2.226  1.7569  3.7739 -4.0851
  701MOL0     H94569   7.988   6.013   2.445  1.4561 -0.6915  2.2934
  701MOL0     H94570   8.226   6.100   2.787 -0.4602 -0.6335  1.7152
  701MOL0     H94571   8.186   6.259   2.742 -0.2160 -1.3058 -1.1474
  701MOL0     H94572   7.975   6.233   2.881 -2.9934 -3.2548 -0.1204
  701MOL0     H94573   8.134   6.225   2.964  1.9824  3.7040 -4.7656
  701MOL0     H94574   7.906   6.016   2.920 -0.9112 -0.0193  1.2680
  701MOL0     H94575   7.992   6.072   3.066  3.7887  3.3900 -1.5448
  701MOL0     H94576   8.094   5.887   2.837  0.7893 -1.0675 -0.3300
  701MOL0     H94577   8.192   5.955   2.971 -0.8271  1.5951  1.0656
  701MOL0     H94578   8.006   5.836   3.121  0.7209 -1.1274  0.3271
  701MOL0     H94579   7.968   5.744   2.994 -1.6134  0.2609  0.9229
  701MOL0     H94580   8.223   5.687   2.957 -0.2698 -0.2256  0.5575
  701MOL0     H94581   8.254   5.784   3.101  1.3727 -1.9319  0.2237
  701MOL0     H94582   8.092   5.540   3.084  0.6996  0.0371 -0.2260
  701MOL0     H94583   8.078   5.625   3.228 -2.5266  1.4710 -1.9716
  701MOL0     H94584   8.352   5.644   3.225  0.9268 -0.5540  0.0910
  701MOL0     H94585   8.284   5.495   3.282  3.5094  0.5310  0.0401
  701MOL0     H94586   8.503   5.628   3.021 -1.9125  1.3555 -0.5959
  701MOL0     H94587   8.726   5.408   2.993  0.6660 -2.8330 -0.6217
  701MOL0     H94588   8.670   5.286   2.885  0.2459 -0.4863  0.5417
  701MOL0     H94589   8.591   5.465   2.731 -0.5421  0.4041 -0.1943
  701MOL0     H94590   8.660   5.593   2.835 -1.2666  0.6497 -1.6345
  701MOL0     H94591   8.803   5.389   2.660  0.9750  0.5683 -0.7500
  701MOL0     H94592   8.893   5.493   2.781  0.9766 -1.7470 -1.4304
  701MOL0     H94593   8.803   5.695   2.649 -0.9885 -0.0837  0.9016
  701MOL0     H94594   8.727   5.585   2.540 -0.5934 -0.7707  2.2004
  701MOL0     H94595   9.122   5.546   2.360  1.0383 -0.0848 -2.7610
  701MOL0     H94596   9.155   5.674   2.149 -0.6040 -3.2706  1.1532
  701MOL0     H94597   9.322   5.978   1.899 -1.2787 -0.8570 -0.0359
  701MOL0     H94598   9.374   6.116   1.715  0.8692 -1.3560 -2.8137
  701MOL0     H94599   9.106   6.189   1.334 -2.8333  3.3076 -1.4481
  701MOL0     H94600   9.007   6.218   1.481 -0.0119  4.4869  1.2443
  701MOL0     H94601   9.124   6.432   1.518  0.3984  2.3677 -1.3294
  701MOL0     H94602   9.255   6.383   1.411  0.4574  1.4737  1.8324
  701MOL0     H94603   9.130   6.421   1.222  1.0793 -1.0259  1.0375
  701MOL0     H94604   8.976   6.443   1.304  0.9474 -0.7215 -1.6631
  701MOL0     H94605   9.236   6.613   1.348 -1.3136  0.5604 -0.9163
  701MOL0     H94606   9.075   6.654   1.412  3.4211  3.4272  2.1312
  701MOL0     H94607   9.095   6.800   1.230  0.2042  0.8101 -1.0777
  701MOL0     H94608   8.971   6.691   1.203 -0.2641  0.0220  1.9885
  701MOL0     H94609   9.111   6.550   1.052 -0.1237 -0.0664  1.6074
  701MOL0     H94610   9.108   6.711   0.992 -0.7082  0.5300  0.6389
  701MOL0     H94611   9.327   6.603   0.980 -1.4127 -1.1947  0.2382
  701MOL0     H94612   9.332   6.581   1.151 -0.9189 -1.4845 -0.1400
  701MOL0     H94613   9.320   6.849   1.027 -1.1719 -1.8303 -0.2937
  701MOL0     H94614   9.361   6.818   1.200  1.1693  3.8206 -1.2930
  701MOL0     H94615   9.003   5.994   1.528  2.4469 -1.2122 -1.6055
  701MOL0     H94616   8.946   5.859   1.740 -0.7769 -0.9185 -0.6732
  701MOL0     H94617   8.783   5.874   2.221 -1.0915  0.8935  3.4764
  701MOL0     H94618   8.771   5.768   2.431  0.4666  1.4008  0.1117
  701MOL0     H94619   8.084   6.382   2.629  0.6585 -3.3315  2.4095
  701MOL0     H94620   8.015   6.508   2.415 -0.0628 -1.1412 -3.7983
  701MOL0     H94621   7.626   6.591   2.066  1.1076 -1.7066  1.2538
  701MOL0     H94622   7.570   6.662   1.843 -1.1936 -2.2061 -3.6903
  701MOL0     H94623   7.667   6.400   1.571  3.7747 -1.0834 -0.3312
  701MOL0     H94624   7.776   6.503   1.475 -0.2627  3.5357 -0.9958
  701MOL0     H94625   7.600   6.482   1.347  3.2558  3.5309 -2.2111
  701MOL0     H94626   7.613   6.646   1.390  0.1293 -0.3501 -1.0292
  701MOL0     H94627   7.406   6.647   1.532  1.5279  0.1779  2.0008
  701MOL0     H94628   7.420   6.479   1.579 -2.6127 -0.7052 -1.3712
  701MOL0     H94629   7.335   6.599   1.302 -1.0153  0.5844  0.3663
  701MOL0     H94630   7.335   6.422   1.345 -2.6098 -0.0321  1.0198
  701MOL0     H94631   6.985   6.542   1.534 -1.5451  3.2442 -3.3349
  701MOL0     H94632   7.893   6.426   1.696 -0.7242 -0.9400 -0.3387
  701MOL0     H94633   8.060   6.322   1.930  0.8320  0.5994 -1.3884
  701MOL0     H94634   7.929   6.208   1.972 -0.0088  0.1252  0.0345
  701MOL0     H94635   7.958   6.249   1.805  3.0071  0.4371 -0.1236
  702MOL0     O94636  10.673   1.988   5.234 -0.2110 -1.0870  0.8323
  702MOL0     C94637  10.697   2.057   5.141 -0.6566  0.0379 -0.3810
  702MOL0     O94638  10.611   2.130   5.065 -0.2531  0.1526  0.0102
  702MOL0     C94639  10.476   2.108   5.088 -0.0089  0.5517  0.3354
  702MOL0     C94640  10.421   2.139   5.202  0.0034 -0.3923 -0.5169
  702MOL0     C94641  10.283   2.122   5.216 -0.2261 -0.0929 -0.0488
  702MOL0     C94642  10.201   2.065   5.116 -0.3692  0.4345 -0.7613
  702MOL0     O94643  10.067   2.054   5.144 -0.3867 -0.0957 -0.2739
  702MOL0     C94644   9.983   1.997   5.041 -0.6556 -0.7026  0.7381
  702MOL0     C94645   9.842   2.013   5.067 -0.6273  0.0289  0.1918
  702MOL0     C94646   9.783   2.147   5.082 -0.3177 -0.7082 -0.2723
  702MOL0     C94647   9.802   2.249   4.969  0.7618  0.3776  0.3439
  702MOL0     C94648   9.718   2.379   4.982  0.1434 -0.4899  0.3061
  702MOL0     C94649   9.733   2.466   4.845 -0.9423  0.0957  0.4232
  702MOL0     C94650   9.641   2.413   4.739 -0.2285  0.3050  0.5208
  702MOL0     C94651   9.676   2.456   4.601  0.4153  0.3366  1.2535
  702MOL0     N94652   9.587   2.400   4.494 -0.1888  0.9080 -0.9734
  702MOL0     C94653   9.467   2.325   4.508  0.2495 -0.1503  0.0459
  702MOL0     C94654   9.407   2.335   4.385  0.0277  0.3538  0.1495
  702MOL0     C94655   9.285   2.261   4.349  0.7988  0.4204  0.2679
  702MOL0     C94656   9.176   2.354   4.300 -0.5422 -0.1275 -0.0879
  702MOL0     C94657   9.055   2.277   4.240 -0.1348 -0.0815  0.3365
  702MOL0     C94658   8.934   2.357   4.210  0.9060  0.3506  0.2596
  702MOL0     O94659   8.962   2.485   4.145  0.4314 -0.1612  0.8954
  702MOL0     C94660   8.864   2.561   4.079  0.2309  0.2654 -0.7470
  702MOL0     C94661   8.912   2.687   4.035  0.4646 -0.4569  0.4283
  702MOL0     C94662   8.825   2.767   3.953  0.1757 -0.8469 -0.2262
  702MOL0     C94663   8.689   2.727   3.933 -0.7190 -0.6247  0.5325
  702MOL0     C94664   8.594   2.816   3.863  0.3744  0.2663 -0.0856
  702MOL0     O94665   8.626   2.839   3.734 -0.1469 -0.7561 -0.5428
  702MOL0     C94666   8.555   2.912   3.641  0.7163  0.1295 -0.9153
  702MOL0     C94667   8.418   2.942   3.636 -0.2458 -0.2695 -0.1952
  702MOL0     C94668   8.369   3.025   3.537  0.4075  0.1553  0.2382
  702MOL0     C94669   8.448   3.077   3.428  0.8710  0.5128 -0.0972
  702MOL0     O94670   8.384   3.157   3.329  0.0154 -0.2963  0.0516
  702MOL0     C94671   8.474   3.208   3.230  0.9314  0.1648 -0.0401
  702MOL0     C94672   8.385   3.279   3.125  1.0952  0.2540 -0.7601
  702MOL0     C94673   8.460   3.323   3.001 -0.4117 -0.0970  0.9303
  702MOL0     C94674   8.558   3.426   3.031 -0.4718  0.6458  1.4859
  702MOL0     C94675   8.594   3.494   2.909 -0.3915 -0.3614  0.6313
  702MOL0     C94676   8.666   3.620   2.928 -0.2023 -1.1520 -0.2133
  702MOL0     C94677   8.805   3.611   2.978 -0.0406  0.3677 -0.0234
  702MOL0     C94678   8.859   3.755   2.979  0.2869  0.0817  0.4356
  702MOL0    Cl94679   8.931   3.792   2.824  0.3148  0.0889  0.0052
  702MOL0     C94680   8.589   3.054   3.436  0.2866 -0.2638 -0.6656
  702MOL0     C94681   8.637   2.974   3.544  1.2108 -0.4585  0.1400
  702MOL0     O94682   8.499   2.862   3.933  0.1387 -0.4898  0.0662
  702MOL0     C94683   8.644   2.599   3.981  0.1618 -0.1569  0.1249
  702MOL0     C94684   8.733   2.516   4.061 -0.1642  0.2282 -0.0898
  702MOL0     N94685   9.489   2.410   4.304 -0.6789 -0.5026 -0.2871
  702MOL0     N94686   9.596   2.456   4.369 -0.0245 -0.9348  0.3560
  702MOL0     C94687  10.265   2.027   4.997 -0.2106 -0.4187 -0.4273
  702MOL0     C94688  10.400   2.044   4.985 -0.7890  0.3739  0.3470
  702MOL0     C94689  10.843   2.069   5.097 -0.5860  0.6125 -0.2629
  702MOL0     C94690  10.864   2.070   4.958 -0.6400  0.0376  0.6635
  702MOL0     C94691  10.996   2.073   4.903  0.7044  0.3781 -0.1250
  702MOL0     C94692  11.112   2.063   4.987  0.0983  0.2659 -0.5163
  702MOL0     O94693  11.231   2.078   4.919 -0.8546  0.0063  0.3675
  702MOL0     C94694  11.354   2.049   4.998 -0.3597 -0.0014 -0.7488
  702MOL0     C94695  11.472   2.019   4.914 -0.0828  0.4482 -0.1337
  702MOL0     C94696  11.594   1.981   5.006  0.2007  0.1670  0.8425
  702MOL0     C94697  11.671   1.854   4.967 -0.4389 -0.0347 -0.1340
  702MOL0     C94698  11.611   1.728   4.994 -0.4567  0.1075  0.2267
  702MOL0     C94699  11.558   1.623   5.026 -0.6161 -0.0179  0.4926
  702MOL0     C94700  11.092   2.061   5.127 -0.2365  0.3558  0.3081
  702MOL0     C94701  10.958   2.048   5.180 -0.6341 -0.0702  0.3024
  702MOL0     C94702  10.950   2.015   5.332  1.2341  0.2788 -0.4886
  702MOL0     H94703  10.462   2.191   5.287 -1.0075 -0.6004  0.1141
  702MOL0     H94704  10.245   2.168   5.307  1.4691  2.0444 -0.3346
  702MOL0     H94705  10.016   2.049   4.950  1.6728 -2.1592  0.6636
  702MOL0     H94706   9.998   1.890   5.028  1.4455 -0.2830 -0.9275
  702MOL0     H94707   9.829   1.962   5.163  2.0436  0.7616  1.0399
  702MOL0     H94708   9.784   1.956   4.994 -1.0918  0.5216  0.1668
  702MOL0     H94709   9.831   2.197   5.166 -2.9578  2.3003 -0.3952
  702MOL0     H94710   9.677   2.125   5.096 -0.6567  1.0581  0.1790
  702MOL0     H94711   9.904   2.289   4.966  0.4884  1.0353 -0.3257
  702MOL0     H94712   9.768   2.206   4.875 -3.9983  0.3237  1.8327
  702MOL0     H94713   9.612   2.354   4.984  0.4809 -2.0189  0.2794
  702MOL0     H94714   9.739   2.435   5.075 -1.0897  1.9175 -0.7733
  702MOL0     H94715   9.696   2.567   4.864 -1.6922  0.0210 -0.5820
  702MOL0     H94716   9.836   2.482   4.813 -0.1582 -1.0057  2.2144
  702MOL0     H94717   9.539   2.440   4.768 -1.3348  1.3531 -3.6421
  702MOL0     H94718   9.650   2.305   4.732  1.1596  0.5148 -2.8695
  702MOL0     H94719   9.678   2.565   4.592  2.4123  0.3657  1.6296
  702MOL0     H94720   9.775   2.423   4.568 -0.4675 -1.1632 -0.0699
  702MOL0     H94721   9.439   2.256   4.587  0.5242 -4.3291 -3.1275
  702MOL0     H94722   9.310   2.205   4.258  0.5159  0.5172  0.1284
  702MOL0     H94723   9.250   2.192   4.427  0.2226  1.4736  0.9753
  702MOL0     H94724   9.132   2.401   4.389  1.7053 -2.5672  2.5091
  702MOL0     H94725   9.221   2.431   4.236  0.0872 -0.7633 -0.4223
  702MOL0     H94726   9.029   2.189   4.299 -2.6033 -0.0974 -0.6607
  702MOL0     H94727   9.094   2.229   4.150 -3.4256 -1.9681 -0.2359
  702MOL0     H94728   8.887   2.381   4.306  2.1825 -0.0682  1.0075
  702MOL0     H94729   8.864   2.300   4.147 -0.9992  1.4164  1.3113
  702MOL0     H94730   9.018   2.709   4.041  0.5316 -0.2017 -1.1059
  702MOL0     H94731   8.849   2.864   3.911 -1.5995 -1.9035 -4.1153
  702MOL0     H94732   8.358   2.897   3.714 -2.3574  2.3089 -0.1714
  702MOL0     H94733   8.269   3.066   3.533  0.5689  0.5761 -4.4770
  702MOL0     H94734   8.556   3.273   3.264 -0.7016  1.6713  1.1826
  702MOL0     H94735   8.517   3.118   3.185  1.4893  1.0538 -1.3476
  702MOL0     H94736   8.305   3.212   3.093 -0.0199  1.8510 -1.4204
  702MOL0     H94737   8.334   3.365   3.170 -0.1688 -2.2416  3.0878
  702MOL0     H94738   8.504   3.234   2.954 -3.9265 -0.6657 -1.7138
  702MOL0     H94739   8.387   3.366   2.932 -2.3353 -1.5543  1.9547
  702MOL0     H94740   8.643   3.372   3.074  1.1401  2.2280  0.3927
  702MOL0     H94741   8.516   3.501   3.100 -3.4254  1.0005 -0.5017
  702MOL0     H94742   8.506   3.511   2.845  0.0347 -1.0386 -0.1635
  702MOL0     H94743   8.666   3.424   2.866  0.8014  0.6480  0.9364
  702MOL0     H94744   8.674   3.660   2.826 -1.5595  0.2379  0.1967
  702MOL0     H94745   8.615   3.692   2.992  0.6856 -2.0840  1.6208
  702MOL0     H94746   8.871   3.557   2.909 -0.7197  2.4173 -2.4296
  702MOL0     H94747   8.802   3.559   3.074 -0.6604 -3.3607 -1.8681
  702MOL0     H94748   8.772   3.821   2.980  0.9294  1.1249 -2.2935
  702MOL0     H94749   8.928   3.764   3.063  1.7313  0.2515 -0.7193
  702MOL0     H94750   8.653   3.078   3.352 -1.4574 -0.1693 -2.0447
  702MOL0     H94751   8.743   2.954   3.551  1.0654 -1.3770 -0.1366
  702MOL0     H94752   8.545   2.560   3.960 -0.1541  0.3890  0.5528
  702MOL0     H94753   8.697   2.419   4.096  1.5177 -0.3378  0.1628
  702MOL0     H94754  10.205   1.994   4.913 -0.4377  2.0456 -1.3384
  702MOL0     H94755  10.448   2.023   4.890 -1.4812  1.2259 -0.2053
  702MOL0     H94756  10.788   2.086   4.882  0.9752 -2.9544 -1.8344
  702MOL0     H94757  11.015   2.087   4.797  1.0507 -1.6441 -0.3560
  702MOL0     H94758  11.345   1.967   5.069 -2.2410  3.4430  3.4673
  702MOL0     H94759  11.368   2.136   5.063 -2.6868 -0.8035  0.9391
  702MOL0     H94760  11.490   2.096   4.837 -1.7820  0.1233 -0.8853
  702MOL0     H94761  11.437   1.931   4.859 -3.9367  2.2384 -0.8600
  702MOL0     H94762  11.559   1.984   5.110  1.8323  0.7446  1.4048
  702MOL0     H94763  11.654   2.071   4.988 -2.6439  1.7374 -1.8585
  702MOL0     H94764  11.676   1.869   4.859 -4.6802 -2.0699 -0.8509
  702MOL0     H94765  11.773   1.862   5.005 -0.7158 -2.1114  1.1977
  702MOL0     H94766  11.520   1.530   5.062 -0.3838 -1.0149 -1.6817
  702MOL0     H94767  11.171   2.048   5.200  1.4726 -3.4488 -1.8912
  702MOL0     H94768  11.038   2.042   5.391  1.7598 -1.1615 -0.5670
  702MOL0     H94769  10.858   2.062   5.369 -1.2538 -4.0264 -0.5074
  702MOL0     H94770  10.934   1.907   5.339  0.4855  0.3759 -0.5846
  703MOL0     O94771   0.862   6.408   8.631  0.0022 -0.7734 -0.2554
  703MOL0     C94772   0.919   6.512   8.597 -0.2066  0.1518  1.1005
  703MOL0     O94773   0.863   6.618   8.530 -0.0192 -0.3005 -0.0681
  703MOL0     C94774   0.728   6.623   8.500 -0.2350 -0.1940 -0.0606
  703MOL0     C94775   0.682   6.611   8.364  0.2300  0.9615 -0.2123
  703MOL0     C94776   0.546   6.612   8.337 -1.0087 -0.2109  0.0583
  703MOL0     C94777   0.451   6.624   8.442  0.1095 -0.3826 -0.3918
  703MOL0     O94778   0.320   6.633   8.395 -0.3668 -0.0211 -0.4518
  703MOL0     C94779   0.217   6.674   8.486  0.1274 -0.6432  0.3054
  703MOL0     C94780   0.139   6.556   8.550  0.8024  0.8359  0.0257
  703MOL0     C94781   0.029   6.601   8.652 -0.1987 -0.3272 -0.7027
  703MOL0     C94782  -0.030   6.482   8.724 -0.1814  0.1664 -0.3816
  703MOL0     C94783  -0.159   6.514   8.786  0.2484 -0.0863 -0.7273
  703MOL0     C94784  -0.265   6.509   8.677  0.3800 -0.1696 -0.1189
  703MOL0     C94785  -0.412   6.528   8.723 -0.5395  0.6571  0.0371
  703MOL0     C94786  -0.495   6.594   8.604 -0.1693  0.2835  0.0702
  703MOL0     N94787  -0.617   6.667   8.648 -0.1640 -0.1628 -0.6743
  703MOL0     C94788  -0.633   6.802   8.670 -0.0414 -0.5242  1.4143
  703MOL0     C94789  -0.763   6.826   8.710 -0.5404 -0.0181 -0.1731
  703MOL0     C94790  -0.814   6.962   8.731 -0.4241 -0.0483  0.8683
  703MOL0     C94791  -0.924   6.962   8.839  0.0796  0.1558  0.7949
  703MOL0     C94792  -1.004   7.091   8.807 -0.2906 -0.4129 -0.3649
  703MOL0     C94793  -1.102   7.116   8.925  0.3082  0.6810 -0.1043
  703MOL0     O94794  -1.199   7.213   8.889  0.0693  0.3698 -0.0335
  703MOL0     C94795  -1.327   7.176   8.840  0.3098  1.1815  0.2289
  703MOL0     C94796  -1.427   7.279   8.869  0.2671  0.1002  0.0963
  703MOL0     C94797  -1.563   7.232   8.854 -0.0355 -1.1313 -0.0591
  703MOL0     C94798  -1.600   7.101   8.833  0.9033  0.4295  0.5244
  703MOL0     C94799  -1.739   7.054   8.826  0.4991 -0.3134 -0.1545
  703MOL0     O94800  -1.778   6.937   8.883  0.0808 -0.6432 -0.1360
  703MOL0     C94801  -1.906   6.903   8.862 -0.3310  0.1680  0.1942
  703MOL0     C94802  -1.960   6.883   8.726  0.7245 -0.2920 -0.1828
  703MOL0     C94803  -2.097   6.844   8.717 -0.9428 -0.1979 -0.6829
  703MOL0     C94804  -2.178   6.846   8.836  0.0686  0.2438 -0.5787
  703MOL0     O94805  -2.319   6.847   8.830  0.5859  0.4086 -0.0013
  703MOL0     C94806  -2.397   6.818   8.706 -0.3167 -0.2910  0.2632
  703MOL0     C94807  -2.547   6.828   8.742  0.5819  0.7343  0.2721
  703MOL0     C94808  -2.580   6.968   8.793  0.1754 -0.3815  0.2121
  703MOL0     C94809  -2.728   6.997   8.814 -0.4126 -0.3794 -0.6979
  703MOL0     C94810  -2.826   6.933   8.714 -0.1596 -0.6426 -0.1980
  703MOL0     C94811  -2.975   6.973   8.744  0.3376  0.2420 -0.8527
  703MOL0     C94812  -3.077   6.906   8.647  0.4024 -0.0624 -1.0144
  703MOL0     C94813  -3.215   6.952   8.691 -0.6308 -0.2331  0.3222
  703MOL0    Cl94814  -3.270   6.923   8.862 -0.3153  0.0428  0.2334
  703MOL0     C94815  -2.118   6.868   8.964 -0.6146 -0.1398 -0.6041
  703MOL0     C94816  -1.984   6.894   8.976  0.8612  0.3411 -0.5785
  703MOL0     O94817  -1.816   7.132   8.777  0.1875  0.1833 -0.7495
  703MOL0     C94818  -1.496   7.011   8.800 -0.2621 -0.5637 -0.9662
  703MOL0     C94819  -1.364   7.045   8.800 -1.1425  0.5310 -0.2115
  703MOL0     N94820  -0.823   6.703   8.690  0.0170 -0.8072 -0.6750
  703MOL0     N94821  -0.743   6.614   8.647 -0.4649 -0.1035  0.3922
  703MOL0     C94822   0.495   6.636   8.581 -0.3317  0.2663  0.0375
  703MOL0     C94823   0.635   6.642   8.605 -0.8247 -0.9215 -0.4912
  703MOL0     C94824   1.068   6.517   8.626 -0.5595  0.0161 -0.0523
  703MOL0     C94825   1.148   6.573   8.523  0.0608  1.4901  0.0413
  703MOL0     C94826   1.277   6.610   8.552 -0.1157  0.0760  0.5522
  703MOL0     C94827   1.336   6.571   8.672  0.1992  0.3335  0.0453
  703MOL0     O94828   1.471   6.585   8.675 -0.2427 -0.3190 -0.1953
  703MOL0     C94829   1.543   6.504   8.765 -0.1532  0.6621 -0.3384
  703MOL0     C94830   1.686   6.545   8.785  0.7620  0.2818  0.9774
  703MOL0     C94831   1.762   6.511   8.919 -0.0115 -0.2359  0.0821
  703MOL0     C94832   1.905   6.551   8.907  0.5714 -0.6069 -0.2830
  703MOL0     C94833   1.963   6.590   9.040  0.2370  0.1486  1.1827
  703MOL0     C94834   2.030   6.629   9.132 -0.2680  0.7000  0.7072
  703MOL0     C94835   1.252   6.504   8.771 -0.6036  0.2300  0.1537
  703MOL0     C94836   1.118   6.474   8.751 -1.4365 -0.7881 -0.1384
  703MOL0     C94837   1.046   6.414   8.867  0.9813 -0.3891 -0.5571
  703MOL0     H94838   0.758   6.604   8.286 -1.6773  2.4501 -2.3390
  703MOL0     H94839   0.509   6.610   8.235 -1.0109 -0.2867  0.0604
  703MOL0     H94840   0.260   6.740   8.562  1.6083  0.7468 -1.6472
  703MOL0     H94841   0.141   6.731   8.433 -1.1229 -2.3662  0.1581
  703MOL0     H94842   0.220   6.494   8.589  1.7329  0.7263 -1.9124
  703MOL0     H94843   0.090   6.500   8.469  0.6507 -0.8713  1.2529
  703MOL0     H94844  -0.049   6.656   8.599 -2.2688 -1.9462  0.4898
  703MOL0     H94845   0.072   6.667   8.728  3.9135 -3.2437 -0.1234
  703MOL0     H94846  -0.042   6.408   8.644 -0.9034  0.5517 -0.6382
  703MOL0     H94847   0.040   6.441   8.797  1.3285  3.2209  0.0366
  703MOL0     H94848  -0.192   6.435   8.855  0.2792  0.3464 -0.2160
  703MOL0     H94849  -0.154   6.614   8.828  1.3966  0.6443 -2.4940
  703MOL0     H94850  -0.236   6.581   8.600  2.2642 -1.0687 -0.3051
  703MOL0     H94851  -0.263   6.411   8.630  1.8930  0.2768 -1.0251
  703MOL0     H94852  -0.400   6.595   8.809  0.9831  0.4167  0.0298
  703MOL0     H94853  -0.464   6.435   8.751 -2.5703  2.3829  2.5502
  703MOL0     H94854  -0.430   6.651   8.537  0.7512 -2.3118 -1.3686
  703MOL0     H94855  -0.534   6.520   8.533  1.9639 -2.1099  1.2361
  703MOL0     H94856  -0.550   6.871   8.661 -0.7605  0.4648  2.1666
  703MOL0     H94857  -0.724   7.017   8.759  2.1267 -2.0144 -2.5556
  703MOL0     H94858  -0.853   7.006   8.639 -0.2391 -1.7162 -0.0625
  703MOL0     H94859  -0.994   6.881   8.815 -0.5640  1.8035 -4.1141
  703MOL0     H94860  -0.889   6.939   8.940 -1.2377  1.0899  1.4967
  703MOL0     H94861  -1.069   7.077   8.721 -3.4653 -0.7530  1.8951
  703MOL0     H94862  -0.933   7.173   8.794 -0.2763  0.1298  2.5038
  703MOL0     H94863  -1.049   7.143   9.017  2.8936  0.0331 -1.3208
  703MOL0     H94864  -1.153   7.020   8.940  1.8197 -1.0037 -4.2671
  703MOL0     H94865  -1.393   7.381   8.885  1.1025 -0.0211 -0.8309
  703MOL0     H94866  -1.644   7.303   8.872  1.8990  2.0411 -2.6860
  703MOL0     H94867  -1.895   6.891   8.639  0.0252 -1.6069 -0.8467
  703MOL0     H94868  -2.132   6.850   8.614 -0.0588 -0.6057 -1.0262
  703MOL0     H94869  -2.377   6.890   8.625  1.8399  0.3052  1.2397
  703MOL0     H94870  -2.380   6.715   8.674 -4.4119 -0.6234 -1.4667
  703MOL0     H94871  -2.600   6.812   8.648  0.8596 -2.4688  0.5386
  703MOL0     H94872  -2.584   6.757   8.817 -1.6460  0.6103 -0.8553
  703MOL0     H94873  -2.538   6.982   8.893  0.1280 -1.8118  0.4543
  703MOL0     H94874  -2.536   7.045   8.729 -1.9451 -0.0502 -0.9530
  703MOL0     H94875  -2.737   7.106   8.828  3.4772 -0.1603  1.4409
  703MOL0     H94876  -2.749   6.963   8.916  1.3204  3.1653  1.0329
  703MOL0     H94877  -2.813   6.824   8.711 -1.3955 -0.8091 -0.2401
  703MOL0     H94878  -2.815   6.961   8.609 -3.1751  0.5795 -0.3150
  703MOL0     H94879  -3.000   6.950   8.848 -1.6491 -3.9256 -2.0754
  703MOL0     H94880  -2.984   7.082   8.737  1.5943  0.4378  0.2217
  703MOL0     H94881  -3.065   6.800   8.668  3.2281  0.4552  0.5901
  703MOL0     H94882  -3.054   6.924   8.541 -1.4046 -1.7870 -1.7449
  703MOL0     H94883  -3.231   7.058   8.670 -0.8560 -0.1063  1.0851
  703MOL0     H94884  -3.279   6.895   8.623  0.9702  0.3535 -1.7671
  703MOL0     H94885  -2.172   6.883   9.057  0.3784  1.7096 -0.2805
  703MOL0     H94886  -1.953   6.926   9.075 -1.9750  2.5363 -0.2707
  703MOL0     H94887  -1.512   6.908   8.770  1.9684 -1.3640  0.3400
  703MOL0     H94888  -1.289   6.967   8.791 -0.9645  0.7702 -0.7834
  703MOL0     H94889   0.430   6.647   8.667 -0.2619 -0.5439  0.2006
  703MOL0     H94890   0.674   6.657   8.705  0.6178  4.0749 -1.5685
  703MOL0     H94891   1.089   6.609   8.439  0.1595 -0.0281 -0.7049
  703MOL0     H94892   1.331   6.654   8.468  0.7418  0.5189  1.3191
  703MOL0     H94893   1.540   6.397   8.743  0.8580  0.1256  1.7751
  703MOL0     H94894   1.497   6.522   8.863 -0.6841  2.5897 -0.9000
  703MOL0     H94895   1.708   6.644   8.744 -0.1865 -0.9118 -2.8369
  703MOL0     H94896   1.732   6.487   8.704 -3.7735 -0.9954 -0.9601
  703MOL0     H94897   1.757   6.408   8.956  0.4899  0.3769  2.0062
  703MOL0     H94898   1.722   6.571   9.002 -0.1931  0.1374 -0.2716
  703MOL0     H94899   1.958   6.464   8.867 -2.7545 -2.6553 -0.6051
  703MOL0     H94900   1.921   6.625   8.829 -1.3217 -0.4761 -0.5751
  703MOL0     H94901   2.097   6.668   9.206 -0.7808  1.5076  0.7528
  703MOL0     H94902   1.298   6.458   8.859  1.1913 -1.2739 -1.4729
  703MOL0     H94903   0.952   6.468   8.876  0.6164 -0.9461 -1.0065
  703MOL0     H94904   1.032   6.308   8.845  3.3375 -0.6057 -1.3247
  703MOL0     H94905   1.098   6.427   8.963 -0.4394 -1.9977  0.4794
  704MOL0     O94906   9.717   5.263   9.147 -0.5489 -0.7210  0.0909
  704MOL0     C94907   9.614   5.208   9.107  0.3650  1.0772  0.2710
  704MOL0     O94908   9.564   5.221   8.980 -0.2000  0.6776 -0.3882
  704MOL0     C94909   9.608   5.308   8.887  0.0219 -0.3337 -0.6805
  704MOL0     C94910   9.662   5.439   8.905  1.0546 -0.3357 -0.6021
  704MOL0     C94911   9.710   5.516   8.794 -0.3268  0.5412  0.4945
  704MOL0     C94912   9.685   5.468   8.664  0.8752 -0.3252 -0.6461
  704MOL0     O94913   9.703   5.546   8.552 -0.9092 -0.6161 -0.6807
  704MOL0     C94914   9.605   5.558   8.450 -0.0414  0.5247  0.2120
  704MOL0     C94915   9.468   5.576   8.500  0.0458 -0.6161 -0.1672
  704MOL0     C94916   9.394   5.670   8.404 -0.0657 -0.4815 -0.0396
  704MOL0     C94917   9.379   5.605   8.262 -0.2493 -0.4340  0.1850
  704MOL0     C94918   9.285   5.675   8.163  0.1941 -0.7833  0.7087
  704MOL0     C94919   9.336   5.799   8.092 -0.5966 -0.5007 -0.1876
  704MOL0     C94920   9.269   5.827   7.962  0.0546 -0.9843 -0.1830
  704MOL0     C94921   9.133   5.894   7.982 -0.1842  0.1216 -0.1562
  704MOL0     N94922   9.053   5.893   7.859 -0.9814 -0.1988  0.4794
  704MOL0     C94923   9.010   5.777   7.796  1.4959 -0.5203  0.2708
  704MOL0     C94924   8.967   5.823   7.674  0.6731 -0.4811  0.2073
  704MOL0     C94925   8.920   5.747   7.557  0.0766 -0.6693 -0.1015
  704MOL0     C94926   8.782   5.773   7.493  1.0150  0.3092 -0.4962
  704MOL0     C94927   8.660   5.690   7.549 -1.0721 -0.5611 -0.2101
  704MOL0     C94928   8.635   5.754   7.689  0.3650 -0.2535 -0.5236
  704MOL0     O94929   8.509   5.710   7.740  0.2785 -0.3903  0.7166
  704MOL0     C94930   8.499   5.643   7.856  0.0041 -1.1727 -0.2434
  704MOL0     C94931   8.606   5.577   7.920 -0.5824 -0.7274 -0.5729
  704MOL0     C94932   8.583   5.526   8.046  0.2530  0.3327  0.2447
  704MOL0     C94933   8.458   5.539   8.106 -0.7311  0.1562 -0.4755
  704MOL0     C94934   8.430   5.461   8.235  0.1866  0.2701  0.6325
  704MOL0     O94935   8.534   5.390   8.278 -0.2555 -0.1107  0.2577
  704MOL0     C94936   8.545   5.285   8.369 -0.0127  0.1800 -0.0262
  704MOL0     C94937   8.670   5.223   8.379 -0.3262 -0.3630 -0.7965
  704MOL0     C94938   8.690   5.112   8.465 -0.0845  0.9341 -1.2916
  704MOL0     C94939   8.586   5.064   8.545  0.3755  0.4663 -1.1020
  704MOL0     O94940   8.602   4.939   8.613  0.4536 -0.5001 -0.5459
  704MOL0     C94941   8.732   4.894   8.657  0.3602 -0.2339 -1.3467
  704MOL0     C94942   8.723   4.760   8.730 -0.4178 -1.1116  0.3600
  704MOL0     C94943   8.714   4.641   8.629 -0.1807  1.2400  0.5748
  704MOL0     C94944   8.574   4.606   8.584 -0.1209  0.7890 -0.7871
  704MOL0     C94945   8.568   4.471   8.509  0.1940  0.3486  0.8290
  704MOL0     C94946   8.427   4.472   8.425  0.5141  0.7415 -0.2284
  704MOL0     C94947   8.312   4.405   8.503  0.3320 -0.7294  0.0695
  704MOL0     C94948   8.183   4.442   8.429  0.0510 -0.0155 -0.0520
  704MOL0    Cl94949   8.037   4.386   8.528 -0.4828 -0.2544  0.2904
  704MOL0     C94950   8.471   5.136   8.548  0.6008  0.2826  0.6970
  704MOL0     C94951   8.439   5.242   8.456  0.1079 -0.3625 -0.5263
  704MOL0     O94952   8.321   5.464   8.288 -0.1978  0.2830  0.1035
  704MOL0     C94953   8.356   5.607   8.056  0.4796  0.4255  0.1937
  704MOL0     C94954   8.375   5.663   7.932 -0.7043 -0.2963  0.3662
  704MOL0     N94955   8.985   5.959   7.663  0.5092 -0.5394 -0.4240
  704MOL0     N94956   9.043   6.000   7.773 -0.4139 -0.6574 -0.8385
  704MOL0     C94957   9.622   5.341   8.645 -0.6862  0.0824 -0.5556
  704MOL0     C94958   9.588   5.270   8.754  0.2701  0.1890  0.3016
  704MOL0     C94959   9.551   5.125   9.209  0.9413  0.4316 -1.0567
  704MOL0     C94960   9.578   5.142   9.347 -0.2222 -0.7200  0.5805
  704MOL0     C94961   9.502   5.076   9.448 -0.2675  0.0302 -0.2774
  704MOL0     C94962   9.395   4.994   9.409 -0.4341 -0.0618  0.0278
  704MOL0     O94963   9.316   4.916   9.490  0.3378 -0.0293  0.7885
  704MOL0     C94964   9.295   4.949   9.626 -0.1658 -0.6581 -0.1935
  704MOL0     C94965   9.377   4.858   9.719  0.5408 -0.2368 -0.0901
  704MOL0     C94966   9.520   4.886   9.742 -1.3639 -0.8386  0.0196
  704MOL0     C94967   9.584   4.758   9.807  0.0708 -0.0188 -0.6664
  704MOL0     C94968   9.587   4.625   9.733 -1.6173 -0.1011 -1.0409
  704MOL0     C94969   9.609   4.513   9.688 -0.5971  0.8059  0.4997
  704MOL0     C94970   9.369   4.970   9.272 -0.7791 -0.5946  0.9659
  704MOL0     C94971   9.445   5.039   9.173  0.3271 -0.5399 -0.4239
  704MOL0     C94972   9.403   5.007   9.039 -1.2329  0.3912  0.1198
  704MOL0     H94973   9.685   5.481   9.002 -0.5153  1.7072 -1.0496
  704MOL0     H94974   9.763   5.609   8.809  1.7056 -0.0224 -2.2737
  704MOL0     H94975   9.633   5.644   8.389  3.0245 -0.8841 -0.5934
  704MOL0     H94976   9.607   5.467   8.388  1.4931 -0.0324  1.0176
  704MOL0     H94977   9.484   5.639   8.588  0.0551  0.5133 -0.9643
  704MOL0     H94978   9.421   5.482   8.531  0.6517 -0.8963 -0.0892
  704MOL0     H94979   9.443   5.768   8.412  0.2729 -0.7633  1.7262
  704MOL0     H94980   9.291   5.685   8.437 -0.3709 -2.4697  0.0437
  704MOL0     H94981   9.479   5.588   8.220  0.4911 -1.3027  2.1750
  704MOL0     H94982   9.333   5.510   8.290 -0.3351 -0.4384  0.0314
  704MOL0     H94983   9.272   5.602   8.083 -2.2886  0.8929 -0.5354
  704MOL0     H94984   9.189   5.710   8.201  0.9704  1.4460  0.7331
  704MOL0     H94985   9.338   5.884   8.162  0.1022 -0.0877 -0.6953
  704MOL0     H94986   9.441   5.773   8.078 -0.8507 -0.8526 -1.5935
  704MOL0     H94987   9.267   5.740   7.895  1.5419  0.7468 -2.6198
  704MOL0     H94988   9.334   5.882   7.894  1.6671 -1.1271  1.1681
  704MOL0     H94989   9.089   5.824   8.054  2.3658  0.8407  2.2719
  704MOL0     H94990   9.135   6.001   8.005  1.3985  0.2574 -0.7865
  704MOL0     H94991   9.027   5.677   7.833  3.4371  0.1382  1.3415
  704MOL0     H94992   8.995   5.766   7.479 -2.2087  1.4414 -1.9437
  704MOL0     H94993   8.929   5.643   7.589 -0.1023  0.0901  2.6089
  704MOL0     H94994   8.756   5.878   7.474  0.5717  0.1614 -0.7114
  704MOL0     H94995   8.787   5.724   7.395  1.6558  0.2291 -0.4276
  704MOL0     H94996   8.684   5.584   7.558  2.7881  0.3636  3.4739
  704MOL0     H94997   8.578   5.694   7.477 -1.4298 -0.7714  0.1795
  704MOL0     H94998   8.624   5.862   7.674  2.3678 -0.0592 -0.8741
  704MOL0     H94999   8.718   5.740   7.758  1.4331  3.5427 -0.8119
  704MOL0     H95000   8.707   5.569   7.880 -1.5295 -1.2557 -3.0276
  704MOL0     H95001   8.662   5.478   8.103 -2.1963 -0.8031  2.9045
  704MOL0     H95002   8.758   5.267   8.333  0.8026  1.0443  2.4829
  704MOL0     H95003   8.787   5.066   8.452  0.0933  0.9542 -0.1297
  704MOL0     H95004   8.806   4.890   8.577  1.8643  1.1041 -0.0935
  704MOL0     H95005   8.765   4.966   8.733 -2.8670 -0.5665  0.5336
  704MOL0     H95006   8.815   4.749   8.789 -0.6559 -0.3788  0.8870
  704MOL0     H95007   8.643   4.771   8.803 -0.9788  0.8818 -0.4733
  704MOL0     H95008   8.772   4.659   8.538 -3.1171 -0.3423 -1.7679
  704MOL0     H95009   8.756   4.551   8.673 -2.2906 -0.0462  0.0927
  704MOL0     H95010   8.537   4.687   8.520 -0.8335  0.1473 -1.1932
  704MOL0     H95011   8.504   4.594   8.667 -1.8600  2.6150 -1.9024
  704MOL0     H95012   8.576   4.398   8.590 -0.0819  2.5449  2.9501
  704MOL0     H95013   8.659   4.471   8.448 -0.4164  0.2061 -0.0986
  704MOL0     H95014   8.413   4.575   8.391  1.7566  0.1592 -2.6930
  704MOL0     H95015   8.432   4.409   8.336 -2.8516  1.4697 -1.0651
  704MOL0     H95016   8.304   4.434   8.608 -2.8438 -3.2883  0.7115
  704MOL0     H95017   8.319   4.296   8.510  0.0101 -0.6889  1.3276
  704MOL0     H95018   8.175   4.551   8.420 -2.0270  0.0359  1.5221
  704MOL0     H95019   8.181   4.382   8.338  2.7129 -0.4617  0.1091
  704MOL0     H95020   8.396   5.100   8.618 -0.2413  1.8097  0.6202
  704MOL0     H95021   8.339   5.283   8.450  0.6738  0.9191 -2.0838
  704MOL0     H95022   8.259   5.627   8.101 -0.3969 -1.3955 -0.7946
  704MOL0     H95023   8.292   5.718   7.888  0.2773  1.3215  0.4452
  704MOL0     H95024   9.601   5.299   8.546 -2.1609 -0.0532 -0.2120
  704MOL0     H95025   9.545   5.174   8.725  0.8776  0.4541 -1.6343
  704MOL0     H95026   9.661   5.204   9.377 -2.2207  0.2826  4.7743
  704MOL0     H95027   9.518   5.085   9.555  0.0786  0.0581 -0.3286
  704MOL0     H95028   9.190   4.940   9.653  0.0405  0.0636  0.9314
  704MOL0     H95029   9.317   5.052   9.657 -0.7249  0.2142 -2.4986
  704MOL0     H95030   9.368   4.758   9.676  3.1056 -0.8636  0.6874
  704MOL0     H95031   9.336   4.865   9.821 -1.4915 -0.3575 -0.8579
  704MOL0     H95032   9.544   4.971   9.806 -2.0243 -0.1508 -0.6260
  704MOL0     H95033   9.562   4.916   9.645 -0.7002 -2.1043 -0.1157
  704MOL0     H95034   9.680   4.793   9.844  0.4885 -0.8546 -0.9341
  704MOL0     H95035   9.523   4.750   9.897 -3.3368  1.5609 -2.6080
  704MOL0     H95036   9.613   4.415   9.644 -1.9472  0.7364  0.5053
  704MOL0     H95037   9.284   4.908   9.243  1.2508 -3.6239  1.0664
  704MOL0     H95038   9.491   4.987   8.977  0.3011  2.7664  1.3806
  704MOL0     H95039   9.351   4.911   9.051 -1.8564  0.9115  1.9997
  704MOL0     H95040   9.332   5.079   8.999 -1.1729 -0.6023 -1.9183
  705MOL0     O95041   8.524   8.164   7.507  0.3299  0.0959 -0.0835
  705MOL0     C95042   8.546   8.048   7.505  0.3480  0.5587 -0.6121
  705MOL0     O95043   8.457   7.943   7.477  0.0661  0.0489 -0.5552
  705MOL0     C95044   8.331   7.973   7.423 -0.8669  1.1606 -0.2262
  705MOL0     C95045   8.281   7.903   7.308 -0.0022 -0.6981  0.3063
  705MOL0     C95046   8.152   7.923   7.257 -0.2706 -0.5251  0.4163
  705MOL0     C95047   8.064   8.012   7.322 -0.4232 -0.0538  0.0908
  705MOL0     O95048   7.939   8.017   7.270  0.3796 -0.3115 -0.4086
  705MOL0     C95049   7.901   8.157   7.258  0.1635  0.3981 -0.9692
  705MOL0     C95050   7.990   8.232   7.161 -0.0868  0.5905 -0.2523
  705MOL0     C95051   7.994   8.161   7.022 -0.0947  0.2590  0.7484
  705MOL0     C95052   8.060   8.244   6.913 -0.0536 -0.2808 -0.5688
  705MOL0     C95053   8.076   8.156   6.783 -0.2905 -0.1358 -0.3706
  705MOL0     C95054   8.144   8.227   6.661  0.2732  0.9216 -0.1612
  705MOL0     C95055   8.294   8.251   6.679 -0.4299 -0.1759  0.7031
  705MOL0     C95056   8.369   8.293   6.553  0.6416  0.3145 -0.3227
  705MOL0     N95057   8.338   8.434   6.515 -0.5234  0.5273 -0.2004
  705MOL0     C95058   8.222   8.479   6.455  0.1436  0.0613 -0.7724
  705MOL0     C95059   8.246   8.600   6.413  0.1340  0.1134 -0.2035
  705MOL0     C95060   8.138   8.696   6.361 -0.4267 -0.1448 -0.4538
  705MOL0     C95061   8.181   8.846   6.376  1.1509 -0.2364  0.3715
  705MOL0     C95062   8.194   8.885   6.531  0.4904  0.2874  0.3696
  705MOL0     C95063   8.288   9.005   6.547  0.2776  0.0110  0.1115
  705MOL0     O95064   8.285   9.053   6.679  0.0413  0.2982  0.6103
  705MOL0     C95065   8.379   9.011   6.769 -0.3705  0.0384  0.9284
  705MOL0     C95066   8.402   9.092   6.879 -0.1764  0.7285  0.0776
  705MOL0     C95067   8.472   9.048   6.991 -0.1673 -0.1033  0.6796
  705MOL0     C95068   8.533   8.926   6.985 -1.0182  1.1476 -0.3143
  705MOL0     C95069   8.616   8.882   7.096 -0.5257 -0.2304 -0.4942
  705MOL0     O95070   8.708   8.776   7.075 -0.4637 -0.3480  0.3560
  705MOL0     C95071   8.753   8.712   7.189  0.0804 -0.2980  0.5175
  705MOL0     C95072   8.694   8.600   7.250 -0.1089  0.7444  0.0635
  705MOL0     C95073   8.753   8.551   7.371 -0.5105 -0.0507  0.2917
  705MOL0     C95074   8.865   8.612   7.419  0.2600  1.1573  0.1544
  705MOL0     O95075   8.918   8.557   7.535 -0.1022  0.7268  0.1631
  705MOL0     C95076   8.934   8.645   7.644 -0.5875 -0.9112 -0.4435
  705MOL0     C95077   8.905   8.583   7.782 -1.0549 -0.7942  1.3398
  705MOL0     C95078   8.791   8.498   7.784 -0.2597  0.0238  0.7942
  705MOL0     C95079   8.782   8.412   7.906  1.0289 -0.3377 -0.2874
  705MOL0     C95080   8.657   8.317   7.901 -0.0403 -0.6984  0.2916
  705MOL0     C95081   8.545   8.359   7.985  1.1162 -0.3215 -0.6212
  705MOL0     C95082   8.558   8.356   8.139  0.2711  0.4251 -0.3127
  705MOL0     C95083   8.632   8.226   8.180 -0.3599  0.4925 -0.3393
  705MOL0    Cl95084   8.548   8.088   8.109  0.4328  0.4371 -0.0607
  705MOL0     C95085   8.937   8.712   7.352  0.3012 -0.2191  0.1590
  705MOL0     C95086   8.871   8.763   7.240  0.6667  0.4296 -0.2799
  705MOL0     O95087   8.580   8.927   7.205 -0.0506  0.1102  0.7133
  705MOL0     C95088   8.501   8.837   6.880  0.1897 -0.2615  0.6954
  705MOL0     C95089   8.423   8.877   6.767 -0.7220  0.5056  0.7039
  705MOL0     N95090   8.376   8.631   6.426  0.1616  0.0399 -0.0705
  705MOL0     N95091   8.433   8.532   6.483  1.0370  0.1776  0.1871
  705MOL0     C95092   8.105   8.065   7.440  0.2986 -1.1625  0.5399
  705MOL0     C95093   8.237   8.051   7.489  0.2307 -0.1794  0.4805
  705MOL0     C95094   8.680   8.014   7.546 -1.0766  0.9234 -0.5006
  705MOL0     C95095   8.790   8.047   7.470  0.0045  0.1490  0.4922
  705MOL0     C95096   8.921   8.013   7.505 -1.3039 -0.4394 -0.8805
  705MOL0     C95097   8.943   7.949   7.629  0.6483 -0.6352  1.1071
  705MOL0     O95098   9.067   7.911   7.673  0.6300  0.7168 -0.3315
  705MOL0     C95099   9.188   7.977   7.620 -0.0506 -0.0937 -0.0780
  705MOL0     C95100   9.308   7.909   7.690  0.8365 -0.6538 -0.1334
  705MOL0     C95101   9.303   7.911   7.841 -0.0677  0.3748  0.4149
  705MOL0     C95102   9.317   8.047   7.897  0.6391 -0.0025 -0.2486
  705MOL0     C95103   9.266   8.051   8.039  0.7545 -0.2137 -0.7038
  705MOL0     C95104   9.233   8.073   8.154  0.7777  0.3753  0.8077
  705MOL0     C95105   8.830   7.927   7.708  0.3712  0.7168 -1.3231
  705MOL0     C95106   8.699   7.953   7.674 -0.6209 -0.2853  1.1766
  705MOL0     C95107   8.587   7.931   7.773  0.4828 -1.0246  0.6987
  705MOL0     H95108   8.353   7.859   7.240 -0.3847 -0.9123  0.0344
  705MOL0     H95109   8.115   7.872   7.169  0.5756 -1.1099  0.3949
  705MOL0     H95110   7.803   8.134   7.214  0.5830 -1.8234 -0.8266
  705MOL0     H95111   7.900   8.226   7.342  2.5157 -0.4776 -0.1566
  705MOL0     H95112   8.090   8.242   7.205 -0.0943  0.5571 -0.2270
  705MOL0     H95113   7.964   8.336   7.140  2.9422  1.5018 -0.0375
  705MOL0     H95114   7.892   8.136   6.992 -0.3207  1.3944  0.5079
  705MOL0     H95115   8.053   8.070   7.027 -0.0175  0.3317  1.1371
  705MOL0     H95116   8.013   8.338   6.884 -0.5951 -1.1283 -2.5732
  705MOL0     H95117   8.164   8.265   6.940 -0.0778 -0.6774 -0.1479
  705MOL0     H95118   8.124   8.060   6.803  3.0404  1.5750  0.5288
  705MOL0     H95119   7.976   8.133   6.747 -0.7602  1.8201 -0.4690
  705MOL0     H95120   8.123   8.160   6.577  0.2700  1.3980 -0.5426
  705MOL0     H95121   8.082   8.316   6.649 -0.4289  0.9557  2.9192
  705MOL0     H95122   8.335   8.156   6.716 -3.0807 -2.5193 -1.8545
  705MOL0     H95123   8.317   8.322   6.759  1.5081 -2.1726  2.0384
  705MOL0     H95124   8.473   8.273   6.579  0.2672  0.5053  1.4468
  705MOL0     H95125   8.332   8.233   6.469  0.8346 -0.3733  0.0764
  705MOL0     H95126   8.125   8.429   6.454  0.0843  0.1680 -0.3656
  705MOL0     H95127   8.115   8.671   6.257 -2.6447  0.0561 -0.0596
  705MOL0     H95128   8.049   8.685   6.424  0.4648  1.8797  1.3093
  705MOL0     H95129   8.280   8.858   6.329  1.1257  1.2042  0.6338
  705MOL0     H95130   8.110   8.894   6.308  3.5185 -1.1264 -3.0131
  705MOL0     H95131   8.233   8.799   6.586  1.2497  1.1841  1.2749
  705MOL0     H95132   8.103   8.903   6.589  0.4156 -2.2868  1.1904
  705MOL0     H95133   8.258   9.087   6.480  0.6823  0.2447  0.2115
  705MOL0     H95134   8.393   8.977   6.535  0.7250  0.2202  2.8841
  705MOL0     H95135   8.363   9.193   6.871  0.2829  1.2754  3.3988
  705MOL0     H95136   8.493   9.114   7.074  1.9606  1.8084 -1.2694
  705MOL0     H95137   8.605   8.551   7.211  0.3575  2.3261 -3.3403
  705MOL0     H95138   8.708   8.468   7.426 -1.7635  0.6839  0.4174
  705MOL0     H95139   9.035   8.686   7.653 -1.4295  0.7553  3.6462
  705MOL0     H95140   8.870   8.730   7.619  1.8109  1.4514  0.9888
  705MOL0     H95141   8.993   8.528   7.818 -0.4555  0.8682  2.5369
  705MOL0     H95142   8.884   8.659   7.858  0.2979  0.3540  0.6349
  705MOL0     H95143   8.700   8.556   7.765 -0.2108 -0.3779 -0.7806
  705MOL0     H95144   8.797   8.429   7.699  7.1016  2.1042 -1.1049
  705MOL0     H95145   8.787   8.456   8.007 -0.2938 -1.7677  0.4426
  705MOL0     H95146   8.876   8.357   7.892  0.5837 -1.0177 -0.6258
  705MOL0     H95147   8.700   8.218   7.916  0.8190 -0.5064 -0.8367
  705MOL0     H95148   8.616   8.312   7.800  0.1428 -0.3567  0.1998
  705MOL0     H95149   8.505   8.455   7.950 -0.1062  0.0901  1.6914
  705MOL0     H95150   8.475   8.276   7.973  2.9777 -1.9664 -0.7490
  705MOL0     H95151   8.459   8.363   8.187 -1.6918 -1.9941 -3.5495
  705MOL0     H95152   8.628   8.432   8.175 -1.5488  1.1452  1.9635
  705MOL0     H95153   8.734   8.229   8.140  0.3095 -1.4833  1.1068
  705MOL0     H95154   8.640   8.217   8.289 -2.0281  1.1052 -0.1297
  705MOL0     H95155   9.026   8.756   7.396 -0.4222  0.3885  1.0498
  705MOL0     H95156   8.920   8.846   7.192  2.3933 -2.5391 -4.2411
  705MOL0     H95157   8.543   8.738   6.866 -1.5398 -0.8249 -1.0120
  705MOL0     H95158   8.408   8.805   6.687  3.0004  0.7446 -0.3748
  705MOL0     H95159   8.042   8.125   7.505 -0.0781 -0.0292 -0.8424
  705MOL0     H95160   8.278   8.108   7.573  1.1121 -1.0182  0.6268
  705MOL0     H95161   8.778   8.077   7.366  0.0035 -0.6886  0.2368
  705MOL0     H95162   9.013   8.018   7.448  1.0286  2.7462  2.6220
  705MOL0     H95163   9.185   8.085   7.638 -1.7257 -0.0401 -0.5338
  705MOL0     H95164   9.203   7.978   7.512  0.3068  2.4673 -0.0786
  705MOL0     H95165   9.400   7.966   7.674 -1.1670  3.2764  1.1455
  705MOL0     H95166   9.312   7.808   7.647 -0.2186 -0.4423 -0.7474
  705MOL0     H95167   9.381   7.843   7.877 -0.3796 -1.9068 -2.7747
  705MOL0     H95168   9.205   7.874   7.872 -0.4448  0.8660 -0.1605
  705MOL0     H95169   9.420   8.083   7.886  1.6826 -2.9330 -1.0956
  705MOL0     H95170   9.257   8.125   7.850  2.2778  1.3929 -0.1261
  705MOL0     H95171   9.220   8.083   8.260 -0.7297 -1.5862  0.8807
  705MOL0     H95172   8.855   7.908   7.812  3.1401 -0.3608 -2.0924
  705MOL0     H95173   8.638   7.926   7.869  0.2286  0.2414  0.9236
  705MOL0     H95174   8.529   8.022   7.790 -0.0697 -1.1571 -0.3741
  705MOL0     H95175   8.525   7.841   7.761 -0.3719 -0.8764  3.2451
  706MOL0     O95176   4.555   1.963   3.807 -0.8677  0.9672  0.1189
  706MOL0     C95177   4.562   1.839   3.818 -0.7305  0.0667 -0.1705
  706MOL0     O95178   4.589   1.754   3.717  0.2405 -0.0908 -0.6313
  706MOL0     C95179   4.670   1.794   3.616  0.2635 -0.6744  0.1113
  706MOL0     C95180   4.635   1.883   3.513  0.9831  0.9133 -0.6213
  706MOL0     C95181   4.723   1.934   3.423 -0.5046  0.3856  1.0878
  706MOL0     C95182   4.856   1.886   3.423  0.2442 -0.4733 -0.7294
  706MOL0     O95183   4.948   1.930   3.341  0.1823  0.5421 -0.2218
  706MOL0     C95184   4.933   2.054   3.263 -1.0170  0.2932 -0.3222
  706MOL0     C95185   5.070   2.078   3.189  0.5291 -0.1777 -0.5665
  706MOL0     C95186   5.078   1.957   3.089  0.2195 -0.0096  0.2552
  706MOL0     C95187   5.204   1.941   3.011 -0.0804  0.1754  0.8798
  706MOL0     C95188   5.179   1.823   2.912  0.5410  0.0330  1.3937
  706MOL0     C95189   5.308   1.795   2.840 -0.0429  0.5471  0.7268
  706MOL0     C95190   5.301   1.667   2.758  0.3187  0.4089 -0.7174
  706MOL0     C95191   5.401   1.663   2.644 -0.7003  0.0336 -0.1516
  706MOL0     N95192   5.540   1.655   2.693  0.1897  0.0536  0.3366
  706MOL0     C95193   5.641   1.579   2.635 -0.9655  0.9220  0.0914
  706MOL0     C95194   5.755   1.643   2.671 -0.3575  0.4184  0.3771
  706MOL0     C95195   5.896   1.615   2.623  0.5403 -0.0771 -0.7918
  706MOL0     C95196   5.981   1.549   2.744 -0.1457 -0.4515 -0.1316
  706MOL0     C95197   6.111   1.496   2.684 -0.3068 -0.3269  0.0990
  706MOL0     C95198   6.219   1.437   2.776 -0.1511  0.0573 -0.4343
  706MOL0     O95199   6.277   1.539   2.855 -0.3434  0.0274  0.4177
  706MOL0     C95200   6.385   1.506   2.930 -1.0191 -0.0069  0.1265
  706MOL0     C95201   6.488   1.408   2.900 -0.3050  0.1055  0.1993
  706MOL0     C95202   6.610   1.386   2.964  0.3182  0.8488  0.6280
  706MOL0     C95203   6.639   1.461   3.080  0.0877 -0.4964  0.0833
  706MOL0     C95204   6.755   1.438   3.168  0.2656 -0.1976  0.4739
  706MOL0     O95205   6.733   1.446   3.309  0.0726  0.0731  1.0432
  706MOL0     C95206   6.845   1.434   3.389  0.5000 -0.4165  0.3272
  706MOL0     C95207   6.854   1.323   3.469 -0.2460  0.3108 -0.2921
  706MOL0     C95208   6.968   1.296   3.551 -0.2378 -0.2539 -0.3478
  706MOL0     C95209   7.076   1.384   3.542 -1.1394 -0.0627 -0.2431
  706MOL0     O95210   7.203   1.365   3.606  0.6365 -0.0497 -0.1872
  706MOL0     C95211   7.198   1.325   3.739  0.1071  0.3329  0.4874
  706MOL0     C95212   7.324   1.375   3.803  0.6158  0.1627  0.5959
  706MOL0     C95213   7.343   1.332   3.953 -0.8423 -0.0577  0.7584
  706MOL0     C95214   7.478   1.359   4.010  0.6066  0.7774  1.1981
  706MOL0     C95215   7.516   1.284   4.127  0.0019 -0.1237 -0.1453
  706MOL0     C95216   7.512   1.127   4.122 -0.3565  0.9110 -0.1949
  706MOL0     C95217   7.585   1.064   4.251  0.0277 -0.6097 -0.1472
  706MOL0     C95218   7.636   0.930   4.216 -0.2562 -0.4370 -0.5519
  706MOL0    Cl95219   7.743   0.878   4.342  0.0550 -0.1257 -0.2926
  706MOL0     C95220   7.069   1.494   3.459  0.2788 -0.5144 -0.1978
  706MOL0     C95221   6.956   1.531   3.383  0.2312  0.7682  0.0579
  706MOL0     O95222   6.865   1.443   3.117  0.3711  0.3408  0.6016
  706MOL0     C95223   6.543   1.560   3.117 -0.1020 -1.1015 -0.2039
  706MOL0     C95224   6.428   1.581   3.037 -0.4290 -1.7463  1.2542
  706MOL0     N95225   5.728   1.757   2.746 -0.5061 -0.5649  0.5408
  706MOL0     N95226   5.600   1.765   2.757 -0.1505  0.0722 -0.4164
  706MOL0     C95227   4.895   1.795   3.522  0.2150 -0.1140  0.0239
  706MOL0     C95228   4.805   1.760   3.625 -0.7577 -0.8289 -0.6210
  706MOL0     C95229   4.507   1.789   3.945 -0.2811 -0.2372 -0.3637
  706MOL0     C95230   4.440   1.877   4.033 -1.1392 -0.0404  0.1095
  706MOL0     C95231   4.393   1.835   4.161 -0.5846 -0.2452 -0.6362
  706MOL0     C95232   4.429   1.705   4.204 -0.0958  0.5838 -0.3145
  706MOL0     O95233   4.388   1.659   4.327 -0.6260  0.2671 -0.1330
  706MOL0     C95234   4.299   1.732   4.402 -0.8412  0.3623  0.3337
  706MOL0     C95235   4.362   1.842   4.499 -0.2011 -0.8777 -0.0719
  706MOL0     C95236   4.257   1.940   4.562  0.1472  0.8515 -0.6025
  706MOL0     C95237   4.322   2.079   4.601  0.0448  0.4514 -0.1332
  706MOL0     C95238   4.333   2.156   4.476  0.3520  1.2558  0.3958
  706MOL0     C95239   4.352   2.217   4.371 -1.2429 -0.2761 -0.2793
  706MOL0     C95240   4.489   1.616   4.120 -1.2998 -0.7713 -0.0814
  706MOL0     C95241   4.533   1.652   3.986  1.1093 -0.6417 -0.0530
  706MOL0     C95242   4.612   1.543   3.904 -0.6767 -0.4097  1.0242
  706MOL0     H95243   4.528   1.901   3.502  1.1634  2.0486 -0.5727
  706MOL0     H95244   4.700   2.002   3.343  1.8483  0.2927  0.2356
  706MOL0     H95245   4.846   2.042   3.198 -0.9395 -0.5758 -0.2761
  706MOL0     H95246   4.919   2.140   3.329  1.9875 -1.0720  2.3309
  706MOL0     H95247   5.150   2.088   3.262  0.6810 -2.3529 -0.3660
  706MOL0     H95248   5.072   2.175   3.138  1.8247  1.5770  2.6001
  706MOL0     H95249   4.987   1.959   3.029 -2.1553 -1.2658  3.5072
  706MOL0     H95250   5.071   1.867   3.150 -2.9577  1.8299  2.9399
  706MOL0     H95251   5.232   2.028   2.951 -1.1307 -0.8285 -1.1929
  706MOL0     H95252   5.287   1.923   3.080  2.0293  0.6597 -1.3864
  706MOL0     H95253   5.141   1.738   2.970  1.1129 -0.7344  0.6719
  706MOL0     H95254   5.102   1.834   2.835 -1.2389 -1.1247  2.9240
  706MOL0     H95255   5.328   1.881   2.775 -1.6038 -1.5613 -2.8018
  706MOL0     H95256   5.387   1.780   2.915 -0.3512 -0.6566  0.8242
  706MOL0     H95257   5.201   1.646   2.718  0.3482 -1.5405  0.1300
  706MOL0     H95258   5.324   1.580   2.820  0.8450 -0.9774 -2.7425
  706MOL0     H95259   5.379   1.570   2.591 -0.7590 -0.2690  0.3925
  706MOL0     H95260   5.392   1.749   2.578  1.7224 -1.6430 -2.9069
  706MOL0     H95261   5.627   1.498   2.564 -2.6535 -0.5143  1.9528
  706MOL0     H95262   5.894   1.553   2.533 -1.5388  0.5811 -1.2636
  706MOL0     H95263   5.940   1.711   2.592  1.6043 -0.0174  0.8005
  706MOL0     H95264   6.012   1.625   2.817  0.5804 -0.9512  0.0982
  706MOL0     H95265   5.937   1.463   2.794 -2.7512  0.4224 -0.7629
  706MOL0     H95266   6.158   1.584   2.638 -0.1804 -0.5518 -0.2080
  706MOL0     H95267   6.078   1.421   2.611 -1.3227 -1.8460  2.0326
  706MOL0     H95268   6.308   1.405   2.721  0.3336  1.0773 -0.2508
  706MOL0     H95269   6.180   1.358   2.841  0.2812 -1.2852 -1.7508
  706MOL0     H95270   6.474   1.327   2.830 -2.8188  0.0630  0.6383
  706MOL0     H95271   6.676   1.302   2.945 -2.9225 -2.4674  2.5926
  706MOL0     H95272   6.775   1.249   3.470  1.3253 -1.4148  0.0005
  706MOL0     H95273   6.969   1.210   3.618 -0.3116  1.2929  1.7397
  706MOL0     H95274   7.106   1.354   3.789  0.1879  3.5631 -0.9555
  706MOL0     H95275   7.192   1.216   3.731 -0.7139  0.4321 -0.4359
  706MOL0     H95276   7.404   1.347   3.734 -0.4312 -3.0015  0.4903
  706MOL0     H95277   7.317   1.483   3.793 -0.8649 -0.1470 -4.6577
  706MOL0     H95278   7.266   1.376   4.017  0.0051  1.2453  0.9098
  706MOL0     H95279   7.333   1.223   3.962 -0.7859  0.0376  2.1707
  706MOL0     H95280   7.475   1.468   4.020 -3.0364  0.9484 -0.2596
  706MOL0     H95281   7.555   1.330   3.936 -0.6319 -2.5659  1.0572
  706MOL0     H95282   7.465   1.324   4.215 -4.1000 -1.8010 -1.5150
  706MOL0     H95283   7.623   1.306   4.141 -0.3470  1.9501 -0.3847
  706MOL0     H95284   7.410   1.090   4.115 -0.2693  0.7466 -0.5707
  706MOL0     H95285   7.561   1.101   4.028 -0.1441  1.2398 -0.1773
  706MOL0     H95286   7.517   1.066   4.337 -1.2465  2.7944 -1.0465
  706MOL0     H95287   7.656   1.140   4.285  0.9285 -0.6856 -1.7305
  706MOL0     H95288   7.550   0.862   4.212 -0.0846 -0.5975 -1.5932
  706MOL0     H95289   7.689   0.922   4.121 -0.2500 -0.3794 -0.5537
  706MOL0     H95290   7.161   1.549   3.442  1.5324 -2.2548  0.6562
  706MOL0     H95291   6.950   1.618   3.318  0.6754  0.0215 -1.0082
  706MOL0     H95292   6.560   1.617   3.207 -1.8163 -0.1441 -0.4395
  706MOL0     H95293   6.367   1.667   3.061  1.6917 -0.9357  4.4497
  706MOL0     H95294   4.991   1.744   3.525  0.1914 -0.2254 -0.7363
  706MOL0     H95295   4.840   1.697   3.706 -1.3928 -0.3426  0.0453
  706MOL0     H95296   4.434   1.981   4.002 -1.5058  0.0205  0.3835
  706MOL0     H95297   4.332   1.898   4.225  1.9235 -0.1376  1.8573
  706MOL0     H95298   4.246   1.663   4.468  0.7741 -1.0098  0.2776
  706MOL0     H95299   4.225   1.777   4.335  1.0833 -0.0496 -2.2659
  706MOL0     H95300   4.435   1.896   4.438 -2.0593 -1.5475 -3.0450
  706MOL0     H95301   4.415   1.786   4.577  1.5320  1.3292  0.4541
  706MOL0     H95302   4.222   1.892   4.654  0.5580  0.6311 -0.5597
  706MOL0     H95303   4.171   1.967   4.500  2.2588  4.5487 -2.2082
  706MOL0     H95304   4.270   2.139   4.676  1.9940 -1.5675  3.0869
  706MOL0     H95305   4.423   2.066   4.641  0.1522  1.1823 -0.1662
  706MOL0     H95306   4.388   2.286   4.297  0.1568  0.9326  1.4575
  706MOL0     H95307   4.524   1.518   4.153  2.3445  0.9872  1.9848
  706MOL0     H95308   4.716   1.570   3.884 -0.4411 -0.1446  2.4534
  706MOL0     H95309   4.644   1.461   3.968 -2.3770 -0.0154  2.4754
  706MOL0     H95310   4.557   1.503   3.819 -0.4895  3.3468 -1.0984
  707MOL0     O95311   0.700   5.035   4.781  0.1288  0.1572  0.5396
  707MOL0     C95312   0.696   5.105   4.677  0.3739  0.0663  0.1109
  707MOL0     O95313   0.803   5.163   4.619  0.9670  0.0552 -0.1241
  707MOL0     C95314   0.915   5.188   4.690 -0.0173  0.6809 -0.1020
  707MOL0     C95315   1.032   5.181   4.612  0.7141  0.6931  0.1139
  707MOL0     C95316   1.159   5.211   4.659 -0.2224 -0.0479  1.2213
  707MOL0     C95317   1.179   5.259   4.793 -0.0812  0.7456 -0.1522
  707MOL0     O95318   1.309   5.293   4.824  0.3291 -0.3513  0.0955
  707MOL0     C95319   1.339   5.302   4.964 -1.3378 -0.4244  0.1994
  707MOL0     C95320   1.494   5.319   4.991  0.7916  0.1823  0.1533
  707MOL0     C95321   1.569   5.209   4.925  0.2312  0.2228  0.2314
  707MOL0     C95322   1.553   5.073   4.987 -0.3179  0.7110  0.0207
  707MOL0     C95323   1.590   4.954   4.895  0.6110 -0.4913  0.5629
  707MOL0     C95324   1.496   4.952   4.772 -1.0747  1.1525 -0.5905
  707MOL0     C95325   1.535   4.830   4.687 -0.7675  0.5305  0.8226
  707MOL0     C95326   1.481   4.697   4.742  0.1510 -0.3255 -0.3893
  707MOL0     N95327   1.512   4.573   4.666  0.1634 -0.0482  0.8330
  707MOL0     C95328   1.558   4.564   4.533 -0.4760 -0.3255 -1.5848
  707MOL0     C95329   1.581   4.435   4.508  0.3947 -0.5919 -0.7434
  707MOL0     C95330   1.631   4.365   4.385 -1.0172 -0.5628 -0.4989
  707MOL0     C95331   1.514   4.334   4.295 -0.3525  0.2015  0.4883
  707MOL0     C95332   1.542   4.251   4.172 -0.9144  0.1387 -0.3581
  707MOL0     C95333   1.578   4.109   4.221  0.2824 -0.3528  0.2770
  707MOL0     O95334   1.503   4.011   4.142 -0.1168  0.1309 -0.2445
  707MOL0     C95335   1.386   3.959   4.190 -0.6007 -0.2470 -0.6103
  707MOL0     C95336   1.376   3.914   4.324 -0.7679  0.2809 -0.9570
  707MOL0     C95337   1.257   3.864   4.368  0.4727 -0.2180  0.6879
  707MOL0     C95338   1.144   3.858   4.282 -0.7763 -0.7661  0.1482
  707MOL0     C95339   1.015   3.814   4.334  0.3812  1.4133 -0.3960
  707MOL0     O95340   0.893   3.850   4.269  0.8480  0.0509 -0.2134
  707MOL0     C95341   0.767   3.808   4.308  0.4053  0.4827  0.0806
  707MOL0     C95342   0.738   3.681   4.361  0.0688 -0.7348  0.1522
  707MOL0     C95343   0.609   3.649   4.397  0.0709 -1.1379  0.7006
  707MOL0     C95344   0.492   3.727   4.374 -0.8206 -0.7211  0.0792
  707MOL0     O95345   0.368   3.701   4.425 -0.6104 -0.0875 -0.5065
  707MOL0     C95346   0.270   3.650   4.337 -0.1698  1.4130  0.6897
  707MOL0     C95347   0.304   3.499   4.308  0.4389 -0.7171 -1.0241
  707MOL0     C95348   0.173   3.413   4.272  0.5932 -1.0375 -0.9816
  707MOL0     C95349   0.075   3.387   4.393  0.2370  0.0488  0.5345
  707MOL0     C95350  -0.017   3.265   4.366 -0.3406 -0.3495  0.3903
  707MOL0     C95351  -0.124   3.271   4.479  0.7868 -0.3698 -0.1386
  707MOL0     C95352  -0.151   3.137   4.536 -0.2499 -0.4187  0.8829
  707MOL0     C95353  -0.227   3.144   4.675  0.1412 -0.0626  1.0486
  707MOL0    Cl95354  -0.399   3.183   4.638 -0.2546  0.0731  0.1557
  707MOL0     C95355   0.517   3.854   4.321 -0.7627 -0.0649  0.7260
  707MOL0     C95356   0.649   3.886   4.282  0.1560 -0.0087  0.2234
  707MOL0     O95357   1.021   3.738   4.437 -0.5355  0.2795  0.3630
  707MOL0     C95358   1.160   3.893   4.149  0.3746 -0.6281  0.3299
  707MOL0     C95359   1.277   3.947   4.108  0.6501  0.2420  0.4826
  707MOL0     N95360   1.556   4.365   4.625  0.2470 -0.8473 -0.3724
  707MOL0     N95361   1.515   4.441   4.714  0.7260 -0.0508 -0.7950
  707MOL0     C95362   1.062   5.269   4.874 -0.9241  0.6820  0.2333
  707MOL0     C95363   0.929   5.238   4.823  0.7418 -0.3435  0.2338
  707MOL0     C95364   0.568   5.119   4.598  0.1471 -0.5088  0.0507
  707MOL0     C95365   0.551   5.216   4.483  0.8099 -0.1419 -0.4772
  707MOL0     C95366   0.429   5.231   4.416 -0.0416 -0.3114 -0.1678
  707MOL0     C95367   0.318   5.161   4.446 -0.5289  0.6927  0.5575
  707MOL0     O95368   0.200   5.161   4.377 -0.1289 -0.3534 -0.1584
  707MOL0     C95369   0.191   5.224   4.247 -0.3527 -0.2680  0.8593
  707MOL0     C95370   0.081   5.153   4.183 -0.1377  0.0545 -0.2842
  707MOL0     C95371   0.092   5.190   4.038  0.5780  0.2079  0.7913
  707MOL0     C95372  -0.017   5.111   3.958  0.1041 -0.3870  0.2346
  707MOL0     C95373  -0.028   5.134   3.814  0.5638 -0.7328 -0.1905
  707MOL0     C95374  -0.044   5.152   3.694  0.4477 -0.3070 -0.2811
  707MOL0     C95375   0.329   5.077   4.556 -0.7306 -0.3667  0.4556
  707MOL0     C95376   0.451   5.064   4.634  0.7461 -0.2021 -0.5928
  707MOL0     C95377   0.419   4.989   4.761 -0.0469 -0.7361 -0.4885
  707MOL0     H95378   1.011   5.174   4.506  0.5841  1.0009  0.1162
  707MOL0     H95379   1.244   5.198   4.593  1.0102 -1.1158  2.9187
  707MOL0     H95380   1.292   5.389   5.010  3.8439  1.4678  2.7161
  707MOL0     H95381   1.306   5.207   5.006 -0.9176 -0.9748 -0.6681
  707MOL0     H95382   1.502   5.308   5.099  0.6350 -0.4951  0.1022
  707MOL0     H95383   1.534   5.417   4.965 -1.0195  0.8195 -0.4103
  707MOL0     H95384   1.674   5.231   4.947  0.0429 -0.7334  2.3189
  707MOL0     H95385   1.555   5.202   4.816  0.1036 -5.2290  0.3407
  707MOL0     H95386   1.618   5.060   5.073  0.3311 -0.1377 -0.5765
  707MOL0     H95387   1.447   5.057   5.010 -0.9164 -1.1448 -3.3313
  707MOL0     H95388   1.692   4.964   4.856 -0.2317  1.7189 -1.2994
  707MOL0     H95389   1.584   4.862   4.955  2.1371 -0.2770  1.0774
  707MOL0     H95390   1.390   4.941   4.796 -0.9607  0.3443 -0.4264
  707MOL0     H95391   1.502   5.047   4.718 -1.1093  3.3665  2.9571
  707MOL0     H95392   1.643   4.820   4.676 -1.1168 -0.9143 -2.0922
  707MOL0     H95393   1.508   4.846   4.583 -0.4218 -0.6687  0.5381
  707MOL0     H95394   1.540   4.672   4.831  1.3099 -1.3883 -1.4312
  707MOL0     H95395   1.373   4.702   4.758  0.4697  1.6420  1.8501
  707MOL0     H95396   1.561   4.636   4.453 -0.8203  0.3226 -1.0279
  707MOL0     H95397   1.698   4.437   4.338 -0.4314 -0.2957  0.6933
  707MOL0     H95398   1.702   4.285   4.408  0.3916  0.0551 -2.4450
  707MOL0     H95399   1.441   4.273   4.350  0.6117 -2.2130 -0.7650
  707MOL0     H95400   1.473   4.431   4.264  0.4419  1.6127  3.4890
  707MOL0     H95401   1.628   4.295   4.122 -1.7023 -0.0714 -1.9752
  707MOL0     H95402   1.461   4.251   4.098 -1.9716  2.8547  0.6607
  707MOL0     H95403   1.564   4.095   4.329  0.5184 -0.8527  0.2458
  707MOL0     H95404   1.683   4.101   4.193 -0.1458 -1.5654 -1.1034
  707MOL0     H95405   1.448   3.928   4.404 -1.1343  0.7018 -0.6976
  707MOL0     H95406   1.244   3.850   4.475 -0.8868 -0.5518  0.4995
  707MOL0     H95407   0.822   3.621   4.393  0.7107  1.2605  2.5469
  707MOL0     H95408   0.595   3.559   4.455  0.2883 -1.8882 -0.3685
  707MOL0     H95409   0.172   3.648   4.387 -0.3972  5.3393  0.6801
  707MOL0     H95410   0.256   3.710   4.247  0.2432  1.5858  0.7387
  707MOL0     H95411   0.385   3.481   4.236  0.9819 -2.8016  0.0045
  707MOL0     H95412   0.350   3.452   4.396 -0.4319  1.6316  0.7733
  707MOL0     H95413   0.119   3.461   4.190  0.4571 -0.6338 -0.6607
  707MOL0     H95414   0.208   3.314   4.243 -1.4876 -2.2174  0.2797
  707MOL0     H95415   0.016   3.477   4.412 -1.2025 -0.9550  0.9752
  707MOL0     H95416   0.130   3.375   4.488 -3.0010 -0.2392  2.5231
  707MOL0     H95417   0.048   3.177   4.365 -0.9867 -0.9337  2.8329
  707MOL0     H95418  -0.064   3.280   4.268 -0.0602  2.3334  0.5899
  707MOL0     H95419  -0.088   3.337   4.559 -0.5432  0.9736 -0.5942
  707MOL0     H95420  -0.208   3.326   4.435  2.5437  3.8153  1.1482
  707MOL0     H95421  -0.053   3.100   4.568 -0.3934 -0.3443  1.4183
  707MOL0     H95422  -0.216   3.085   4.465 -1.1536  1.8146 -0.0098
  707MOL0     H95423  -0.221   3.052   4.732  1.1321  0.9465  2.6477
  707MOL0     H95424  -0.187   3.219   4.744 -1.2638  1.3607  0.3995
  707MOL0     H95425   0.434   3.919   4.296 -1.7943 -1.0461  1.5366
  707MOL0     H95426   0.679   3.987   4.254  0.9888 -0.8175 -2.0364
  707MOL0     H95427   1.078   3.890   4.078  1.5861  5.8786 -2.1202
  707MOL0     H95428   1.284   3.963   4.000  0.9124 -2.1739  0.0923
  707MOL0     H95429   1.068   5.304   4.976  0.6021 -0.8137  0.6988
  707MOL0     H95430   0.832   5.247   4.870  0.2476  0.6506 -0.9386
  707MOL0     H95431   0.635   5.267   4.439 -0.2922 -0.0450 -2.6095
  707MOL0     H95432   0.425   5.307   4.339 -1.2334 -0.6868 -0.4967
  707MOL0     H95433   0.284   5.205   4.193 -0.4219 -2.9648  1.5446
  707MOL0     H95434   0.177   5.333   4.251  2.8183  0.2420  0.9953
  707MOL0     H95435  -0.011   5.166   4.240  0.0980  1.7569 -0.2452
  707MOL0     H95436   0.099   5.045   4.187 -0.2460  0.0457 -0.0614
  707MOL0     H95437   0.188   5.162   3.993 -0.2262  1.0648 -1.6088
  707MOL0     H95438   0.082   5.299   4.039  1.6000  0.3047  2.1483
  707MOL0     H95439   0.004   5.004   3.967  0.8708 -0.3510 -0.9642
  707MOL0     H95440  -0.113   5.141   4.002 -0.3452  2.3092 -2.3046
  707MOL0     H95441  -0.042   5.183   3.592  0.4088  1.2858  0.1882
  707MOL0     H95442   0.246   5.017   4.592  0.4653 -1.8370  0.8524
  707MOL0     H95443   0.313   4.960   4.766 -0.9502  2.2600 -0.4647
  707MOL0     H95444   0.469   4.894   4.782  2.8272  0.9636  1.0085
  707MOL0     H95445   0.431   5.054   4.848  0.4874  1.4094 -2.1025
  708MOL0     O95446  11.473   0.508   7.854  0.1516  0.1690  0.2495
  708MOL0     C95447  11.399   0.430   7.902  0.3627  0.0152 -0.4918
  708MOL0     O95448  11.429   0.310   7.953  0.0236  0.7124  0.8118
  708MOL0     C95449  11.553   0.242   7.942  0.1073  0.5199  0.9881
  708MOL0     C95450  11.662   0.277   7.859 -0.2158  0.1996  0.7128
  708MOL0     C95451  11.783   0.211   7.869 -0.3687  0.2243  0.1114
  708MOL0     C95452  11.807   0.105   7.955 -0.6105  1.0755  0.4039
  708MOL0     O95453  11.924   0.047   7.980 -0.6055 -0.8030  0.2566
  708MOL0     C95454  12.050   0.120   7.946 -0.2538  0.3030  0.3465
  708MOL0     C95455  12.158   0.002   7.963  0.0170 -1.3310 -0.6064
  708MOL0     C95456  12.198  -0.041   8.110 -0.4177  0.4791  0.2229
  708MOL0     C95457  12.340  -0.100   8.110 -0.5299 -0.9857  0.0378
  708MOL0     C95458  12.438   0.021   8.130 -0.4131  0.2685 -0.4048
  708MOL0     C95459  12.592  -0.024   8.144  0.1255 -0.6803  0.1744
  708MOL0     C95460  12.649  -0.119   8.043  0.1005 -1.2820  0.6593
  708MOL0     C95461  12.668  -0.056   7.904 -0.8052  0.8062  1.4171
  708MOL0     N95462  12.661  -0.169   7.804 -0.1692  0.0840 -0.4534
  708MOL0     C95463  12.753  -0.277   7.799 -0.5316 -0.4431  0.3545
  708MOL0     C95464  12.719  -0.357   7.697 -0.6934 -0.6731 -1.0685
  708MOL0     C95465  12.799  -0.468   7.643  0.7711 -0.3927  0.8223
  708MOL0     C95466  12.919  -0.414   7.556 -0.5581  0.0017  0.7974
  708MOL0     C95467  13.031  -0.515   7.532  0.9059  0.0414  0.3929
  708MOL0     C95468  13.127  -0.479   7.419  0.6360  0.5154  0.2347
  708MOL0     O95469  13.155  -0.336   7.432 -0.1467 -0.0926 -0.5265
  708MOL0     C95470  13.257  -0.288   7.513 -0.1535  0.2655 -0.9474
  708MOL0     C95471  13.298  -0.157   7.506  0.3134 -0.4643 -0.0475
  708MOL0     C95472  13.394  -0.104   7.578 -0.4974  0.4546 -0.7461
  708MOL0     C95473  13.471  -0.188   7.668 -0.3059 -0.1114 -0.8070
  708MOL0     C95474  13.583  -0.135   7.745 -0.4760 -0.2187 -0.6646
  708MOL0     O95475  13.654  -0.225   7.812 -0.3815 -0.0311  0.1286
  708MOL0     C95476  13.711  -0.187   7.928  0.0164 -0.0201 -0.2200
  708MOL0     C95477  13.648  -0.256   8.035 -1.0119  0.3355  1.4976
  708MOL0     C95478  13.678  -0.213   8.166 -0.6160 -0.3554  0.4550
  708MOL0     C95479  13.787  -0.120   8.192 -0.5804  0.8621  0.3037
  708MOL0     O95480  13.818  -0.084   8.315  0.0617  0.7493  0.3828
  708MOL0     C95481  13.811  -0.173   8.430  0.3362 -1.2446 -0.2268
  708MOL0     C95482  13.894  -0.119   8.539 -0.4859  0.6235 -0.1452
  708MOL0     C95483  13.875   0.018   8.609 -0.2854  0.8136  0.2376
  708MOL0     C95484  13.968   0.027   8.728 -0.3034 -0.0967  0.3095
  708MOL0     C95485  13.921   0.150   8.815 -0.7984 -0.2516  0.4985
  708MOL0     C95486  14.020   0.187   8.927  0.1085 -0.0139  0.4962
  708MOL0     C95487  14.161   0.215   8.882  0.5999 -0.5233  1.3346
  708MOL0     C95488  14.260   0.227   8.995  0.1678 -1.0233 -0.7254
  708MOL0    Cl95489  14.212   0.348   9.121 -0.1097  0.0517 -0.6097
  708MOL0     C95490  13.842  -0.055   8.084 -0.1520 -0.2746 -0.2235
  708MOL0     C95491  13.808  -0.087   7.955 -0.5632 -0.0999 -0.2928
  708MOL0     O95492  13.599  -0.018   7.746 -0.3730  0.3893  0.0343
  708MOL0     C95493  13.444  -0.325   7.672  1.4191  0.4781 -0.0824
  708MOL0     C95494  13.333  -0.373   7.596 -0.2199 -0.4239 -0.9622
  708MOL0     N95495  12.611  -0.289   7.637 -0.5144 -0.2158 -0.3709
  708MOL0     N95496  12.574  -0.177   7.701  0.6110 -0.0983 -0.1662
  708MOL0     C95497  11.696   0.052   8.023 -0.1132 -0.6148  0.7675
  708MOL0     C95498  11.574   0.117   8.024  1.0206 -0.7808  1.1570
  708MOL0     C95499  11.257   0.477   7.922  0.2457  0.4963 -0.3490
  708MOL0     C95500  11.187   0.414   8.027 -0.1532  0.8590 -0.3817
  708MOL0     C95501  11.063   0.449   8.067  0.0320  0.0517 -0.3918
  708MOL0     C95502  10.992   0.536   7.999 -0.2880 -0.2938  0.2283
  708MOL0     O95503  10.863   0.568   8.019  0.5518  0.1762  0.0814
  708MOL0     C95504  10.764   0.476   8.068 -0.5082  0.0642  0.8219
  708MOL0     C95505  10.620   0.502   8.006 -0.0862  0.3026 -0.8806
  708MOL0     C95506  10.613   0.470   7.860  0.9188  0.4092  0.9631
  708MOL0     C95507  10.480   0.479   7.795  0.4588 -0.1180 -0.7428
  708MOL0     C95508  10.412   0.609   7.815 -0.1954  0.2894  0.7608
  708MOL0     C95509  10.365   0.721   7.827  0.5383 -0.2598 -0.2032
  708MOL0     C95510  11.054   0.603   7.894 -0.4685  0.0007  0.0896
  708MOL0     C95511  11.184   0.577   7.845  0.1843 -1.4302  0.2526
  708MOL0     C95512  11.245   0.645   7.722 -0.6177 -0.0465  0.0949
  708MOL0     H95513  11.665   0.371   7.806 -1.1188 -0.1328  0.0532
  708MOL0     H95514  11.870   0.257   7.824  0.4169  2.3270  3.4558
  708MOL0     H95515  12.036   0.152   7.843 -1.6922  0.2878  0.5225
  708MOL0     H95516  12.062   0.216   7.998  2.1330  0.1272  0.2478
  708MOL0     H95517  12.251   0.035   7.916  0.1514 -0.7240  0.0812
  708MOL0     H95518  12.116  -0.088   7.917 -1.8298 -0.1077 -1.4534
  708MOL0     H95519  12.128  -0.123   8.126 -0.6428  0.4966 -0.5849
  708MOL0     H95520  12.178   0.036   8.186  3.0063 -1.0658  2.9456
  708MOL0     H95521  12.348  -0.177   8.187 -1.3193 -0.1438  0.9941
  708MOL0     H95522  12.356  -0.151   8.015 -0.5884 -1.3351  0.2124
  708MOL0     H95523  12.424   0.080   8.039 -3.2150  3.2647  1.7295
  708MOL0     H95524  12.412   0.074   8.222 -1.2722 -1.1633  0.2134
  708MOL0     H95525  12.647   0.070   8.154  2.1494 -2.0072  4.0999
  708MOL0     H95526  12.611  -0.068   8.243  2.0755 -1.1992 -0.3846
  708MOL0     H95527  12.575  -0.198   8.027 -1.0674 -0.1553  0.3257
  708MOL0     H95528  12.744  -0.153   8.086 -0.1234  0.2363  2.4892
  708MOL0     H95529  12.586   0.010   7.876  0.9996  2.1550 -1.1507
  708MOL0     H95530  12.762  -0.001   7.888  0.7791 -1.2730  2.9394
  708MOL0     H95531  12.847  -0.295   7.851 -1.6810 -0.2174  2.6551
  708MOL0     H95532  12.852  -0.515   7.728  0.3445 -0.0368  1.2901
  708MOL0     H95533  12.739  -0.540   7.587 -1.7516  0.5160  2.2113
  708MOL0     H95534  12.875  -0.383   7.461  0.3105  1.2084  0.7780
  708MOL0     H95535  12.970  -0.327   7.597  2.2773  0.0929 -2.5081
  708MOL0     H95536  12.977  -0.610   7.517  1.7525 -0.7461  2.0842
  708MOL0     H95537  13.096  -0.521   7.619  5.5331 -3.4460 -2.7620
  708MOL0     H95538  13.078  -0.504   7.325  1.6656 -3.3546  0.5838
  708MOL0     H95539  13.220  -0.536   7.423  0.2857 -0.0869 -0.1480
  708MOL0     H95540  13.233  -0.087   7.455  1.1639 -0.7361 -1.5451
  708MOL0     H95541  13.412   0.003   7.568  0.3836  0.3522 -0.4186
  708MOL0     H95542  13.582  -0.338   8.007  0.4907 -0.9148  1.5001
  708MOL0     H95543  13.630  -0.262   8.250  1.8047 -2.5285  0.6992
  708MOL0     H95544  13.708  -0.168   8.466  0.8407  2.5351  1.2068
  708MOL0     H95545  13.839  -0.275   8.406  0.9590 -1.1360  0.0256
  708MOL0     H95546  13.882  -0.201   8.611 -2.0248  1.2709  0.3721
  708MOL0     H95547  14.000  -0.111   8.511 -0.3959  1.0237  0.2891
  708MOL0     H95548  13.872   0.096   8.532 -0.9309 -1.6386 -2.4194
  708MOL0     H95549  13.778   0.000   8.655 -0.8669 -2.4549 -1.8899
  708MOL0     H95550  14.067   0.046   8.687 -0.2399 -1.1099 -0.0242
  708MOL0     H95551  13.977  -0.064   8.788 -5.0935 -0.3962  0.9677
  708MOL0     H95552  13.827   0.129   8.866  0.1075 -0.7418  2.0618
  708MOL0     H95553  13.910   0.235   8.746 -0.0875  1.6839  2.6376
  708MOL0     H95554  13.980   0.275   8.979 -2.8586 -0.2936 -1.1132
  708MOL0     H95555  14.036   0.094   8.983  0.9497 -1.0083 -1.3299
  708MOL0     H95556  14.161   0.310   8.827  0.9924 -1.0507  0.4071
  708MOL0     H95557  14.202   0.149   8.806 -0.4143  1.5884 -1.2191
  708MOL0     H95558  14.264   0.125   9.033  1.0871 -0.7954 -0.1685
  708MOL0     H95559  14.362   0.248   8.960  0.2496 -1.5853 -0.8400
  708MOL0     H95560  13.918   0.021   8.100  1.3597 -1.7188 -0.3093
  708MOL0     H95561  13.855  -0.028   7.877  1.1575 -1.1066 -0.0650
  708MOL0     H95562  13.494  -0.395   7.738  0.9994 -0.0053 -0.2773
  708MOL0     H95563  13.306  -0.478   7.596 -1.3422 -0.2371  1.7344
  708MOL0     H95564  11.705  -0.033   8.090 -2.8053 -1.9995 -0.4538
  708MOL0     H95565  11.493   0.084   8.088 -0.9259  1.7619  0.1867
  708MOL0     H95566  11.236   0.329   8.075  1.6191  1.2039 -1.4704
  708MOL0     H95567  11.026   0.394   8.153  2.3148  3.1449  2.8201
  708MOL0     H95568  10.780   0.478   8.176  0.7737  1.1962  0.6443
  708MOL0     H95569  10.801   0.382   8.027  1.1901  1.9472 -2.3515
  708MOL0     H95570  10.592   0.602   8.040 -1.3388 -0.4521  0.4337
  708MOL0     H95571  10.563   0.426   8.061  0.3486 -0.3395 -1.3082
  708MOL0     H95572  10.635   0.365   7.839 -0.7245  0.2428 -0.0454
  708MOL0     H95573  10.687   0.525   7.802  1.5644  0.5504  1.8922
  708MOL0     H95574  10.472   0.456   7.688 -2.2572 -2.4919 -0.1346
  708MOL0     H95575  10.417   0.410   7.851  0.9373  1.3605  1.7537
  708MOL0     H95576  10.325   0.820   7.839 -2.3389 -1.1624 -1.4293
  708MOL0     H95577  10.991   0.669   7.836 -1.9903 -0.4897  1.1378
  708MOL0     H95578  11.293   0.734   7.761  0.8570 -1.5830  2.0160
  708MOL0     H95579  11.324   0.587   7.673  0.9213 -1.2269  3.6423
  708MOL0     H95580  11.168   0.673   7.649  0.9720  1.3673 -1.1077
  709MOL0     O95581   3.394   7.808   3.939  0.6004  0.9860  0.4082
  709MOL0     C95582   3.299   7.812   4.017 -0.6278 -0.0691  0.0987
  709MOL0     O95583   3.195   7.722   4.024  0.4358 -0.5328  0.5680
  709MOL0     C95584   3.206   7.614   3.938 -0.1784  0.1929 -0.7181
  709MOL0     C95585   3.264   7.498   3.995  0.0602  0.6840  0.5888
  709MOL0     C95586   3.279   7.379   3.931 -0.6062  0.2787  0.3229
  709MOL0     C95587   3.226   7.377   3.798  0.8871  0.5056 -0.8349
  709MOL0     O95588   3.243   7.252   3.739 -0.2284 -0.2020 -0.3548
  709MOL0     C95589   3.118   7.188   3.729  1.0194  0.5039  0.1478
  709MOL0     C95590   3.133   7.059   3.637  0.4069 -0.8384 -0.1430
  709MOL0     C95591   2.999   6.982   3.627  0.0084 -1.2675  0.1997
  709MOL0     C95592   2.978   6.957   3.471 -0.4124  0.1240  0.6409
  709MOL0     C95593   2.837   6.923   3.443  1.0991  0.3735  0.3353
  709MOL0     C95594   2.732   7.033   3.467  0.5309  0.8624 -0.8339
  709MOL0     C95595   2.587   6.986   3.431 -0.6517  0.7350  0.4739
  709MOL0     C95596   2.547   6.981   3.279 -0.4232 -0.1589 -0.3787
  709MOL0     N95597   2.614   6.890   3.202  0.2635  0.8808 -0.7753
  709MOL0     C95598   2.693   6.914   3.098  0.2583  1.1340 -0.2738
  709MOL0     C95599   2.720   6.793   3.042  0.1742  1.1682 -0.3220
  709MOL0     C95600   2.799   6.767   2.917 -0.1618  0.6402 -0.0660
  709MOL0     C95601   2.887   6.882   2.871 -0.0855 -0.1904 -0.1365
  709MOL0     C95602   2.982   6.823   2.755 -0.6813  0.0836 -0.4513
  709MOL0     C95603   3.126   6.866   2.776  0.6544  0.8622 -0.6182
  709MOL0     O95604   3.219   6.815   2.687 -0.3674 -1.0766  0.1672
  709MOL0     C95605   3.344   6.876   2.683  0.2107  0.7694  1.4767
  709MOL0     C95606   3.411   6.956   2.771 -0.2999  0.1936 -0.2112
  709MOL0     C95607   3.537   7.008   2.746 -0.2855  0.1186  0.2932
  709MOL0     C95608   3.616   6.965   2.639  0.4755 -0.4184 -0.8603
  709MOL0     C95609   3.753   7.002   2.619  0.1262 -0.3280 -0.4729
  709MOL0     O95610   3.817   7.078   2.708 -0.2259  0.8195  0.1399
  709MOL0     C95611   3.943   7.129   2.671  0.1179  1.1941 -0.1136
  709MOL0     C95612   3.955   7.246   2.595  0.1519  0.6484  0.4444
  709MOL0     C95613   4.076   7.306   2.554 -0.1925 -0.8248  0.8433
  709MOL0     C95614   4.194   7.235   2.590  0.6057 -0.6450  0.5457
  709MOL0     O95615   4.323   7.265   2.546 -0.5321  1.0009 -0.3676
  709MOL0     C95616   4.343   7.383   2.470  0.0767 -0.5573 -0.7540
  709MOL0     C95617   4.343   7.509   2.560 -0.3232 -0.1980 -0.1369
  709MOL0     C95618   4.406   7.632   2.491  0.1395 -0.2418  0.9908
  709MOL0     C95619   4.389   7.762   2.571 -0.4853 -0.1175  0.3120
  709MOL0     C95620   4.461   7.887   2.517  0.0959 -1.3038 -0.3414
  709MOL0     C95621   4.427   8.016   2.607 -0.1208  0.1832  0.3096
  709MOL0     C95622   4.504   8.012   2.746 -0.2145 -1.3727  0.3020
  709MOL0     C95623   4.634   8.092   2.732  0.1627  0.1908  0.0944
  709MOL0    Cl95624   4.608   8.267   2.743  0.2239  0.2781 -0.2756
  709MOL0     C95625   4.184   7.127   2.665 -0.0521  0.4130 -0.4354
  709MOL0     C95626   4.057   7.067   2.704  0.1056 -1.1470 -0.7134
  709MOL0     O95627   3.805   6.955   2.517  0.6403  0.3651  0.1573
  709MOL0     C95628   3.551   6.877   2.545  1.0045 -0.5725  0.1012
  709MOL0     C95629   3.418   6.839   2.560 -0.0247 -0.0623 -0.2985
  709MOL0     N95630   2.653   6.700   3.115  0.1660 -0.7486 -0.0101
  709MOL0     N95631   2.602   6.754   3.216  0.9259 -0.7388 -0.1052
  709MOL0     C95632   3.168   7.487   3.735 -0.0609 -0.1398 -0.6203
  709MOL0     C95633   3.161   7.618   3.806 -0.4427  0.1106  0.1921
  709MOL0     C95634   3.311   7.912   4.133  0.7314 -0.3254 -0.2243
  709MOL0     C95635   3.249   7.872   4.253  1.1505  0.2547 -0.5169
  709MOL0     C95636   3.252   7.954   4.371 -1.6007  0.4964  0.1727
  709MOL0     C95637   3.302   8.082   4.358 -0.6444 -0.1571 -1.4421
  709MOL0     O95638   3.287   8.184   4.455  0.3898  0.6699  0.5517
  709MOL0     C95639   3.223   8.152   4.585 -0.0226 -0.3233  0.2900
  709MOL0     C95640   3.234   8.261   4.687  0.0939 -0.5319  0.5617
  709MOL0     C95641   3.146   8.390   4.656  0.2105 -0.3763  0.1163
  709MOL0     C95642   3.173   8.456   4.519 -0.3456 -0.5228 -0.3562
  709MOL0     C95643   3.091   8.404   4.408  0.1998 -0.1588 -0.2818
  709MOL0     C95644   3.035   8.387   4.309  1.3220  0.2011  0.1564
  709MOL0     C95645   3.354   8.131   4.233 -0.2967 -0.1271 -1.0532
  709MOL0     C95646   3.365   8.045   4.127 -0.3439 -0.3788  0.1889
  709MOL0     C95647   3.435   8.105   4.010  0.6996 -0.2114 -0.0724
  709MOL0     H95648   3.290   7.487   4.100 -4.2735 -1.9109  1.6195
  709MOL0     H95649   3.331   7.303   3.988  0.4928  0.7974  0.0245
  709MOL0     H95650   3.076   7.171   3.829 -0.5626  0.4121 -0.5071
  709MOL0     H95651   3.046   7.248   3.673 -0.3618 -2.4557 -1.4923
  709MOL0     H95652   3.205   6.999   3.693  1.5080  1.2965  0.8648
  709MOL0     H95653   3.182   7.069   3.540  4.4138 -3.9599  1.2625
  709MOL0     H95654   2.914   7.045   3.659 -0.0293 -1.8932  1.3920
  709MOL0     H95655   3.003   6.890   3.686 -3.8222  0.3593  3.5126
  709MOL0     H95656   3.001   7.048   3.415 -0.2161 -0.0995  0.3578
  709MOL0     H95657   3.043   6.876   3.437 -2.8547 -2.8250  2.4701
  709MOL0     H95658   2.839   6.903   3.336 -2.2561  0.2675  0.2180
  709MOL0     H95659   2.805   6.826   3.483  0.6615  0.3707 -0.0235
  709MOL0     H95660   2.727   7.061   3.572  1.6488 -0.4080 -0.4121
  709MOL0     H95661   2.751   7.129   3.418  0.8031  1.6838  0.8456
  709MOL0     H95662   2.520   7.057   3.480 -0.2774  0.2149  1.7886
  709MOL0     H95663   2.560   6.893   3.481  1.9696  0.9957  2.6148
  709MOL0     H95664   2.441   6.953   3.286 -0.7632 -0.0318 -3.4947
  709MOL0     H95665   2.549   7.085   3.247  1.0324  0.5416  1.7941
  709MOL0     H95666   2.735   7.007   3.062  1.4343 -0.1382 -2.3977
  709MOL0     H95667   2.870   6.689   2.943 -0.4453  0.3050 -0.2816
  709MOL0     H95668   2.724   6.730   2.846 -0.1014  0.9945 -0.3169
  709MOL0     H95669   2.826   6.962   2.828  0.3478  0.1073 -0.1992
  709MOL0     H95670   2.938   6.925   2.957  3.2353 -0.0212 -2.0508
  709MOL0     H95671   2.954   6.854   2.654  4.5650  2.0487 -1.6093
  709MOL0     H95672   2.978   6.714   2.751 -1.5991 -0.0326  1.9081
  709MOL0     H95673   3.153   6.836   2.878 -0.6406  1.5939 -0.0270
  709MOL0     H95674   3.128   6.976   2.784 -1.7800  0.8766  0.8785
  709MOL0     H95675   3.362   6.986   2.863 -0.8649  2.3656 -1.1506
  709MOL0     H95676   3.571   7.074   2.825 -0.6574  0.5678  0.0855
  709MOL0     H95677   3.861   7.287   2.560 -0.7955 -0.2101  1.8652
  709MOL0     H95678   4.077   7.374   2.469 -4.7015  1.1346  2.0419
  709MOL0     H95679   4.440   7.388   2.421 -0.8251  0.5117 -2.5769
  709MOL0     H95680   4.265   7.397   2.394 -0.1795 -0.0165 -0.4031
  709MOL0     H95681   4.239   7.524   2.588 -0.5338  0.4029 -1.1831
  709MOL0     H95682   4.410   7.484   2.643 -0.8534 -1.3294 -0.0302
  709MOL0     H95683   4.514   7.630   2.473  0.1801  0.8625  1.0433
  709MOL0     H95684   4.374   7.644   2.387 -1.0907 -0.4297  1.3421
  709MOL0     H95685   4.423   7.746   2.673  1.7499  1.1790 -0.1482
  709MOL0     H95686   4.280   7.770   2.564 -0.6365 -0.8691  1.5329
  709MOL0     H95687   4.439   7.907   2.412  1.1875  0.1775 -0.3228
  709MOL0     H95688   4.569   7.867   2.510 -0.0483 -2.1403 -0.2827
  709MOL0     H95689   4.427   8.112   2.554 -4.3714  1.0995  1.5981
  709MOL0     H95690   4.320   8.010   2.625 -0.4700 -2.3153 -2.0137
  709MOL0     H95691   4.519   7.913   2.791 -2.0913 -0.8153  2.3097
  709MOL0     H95692   4.428   8.068   2.801  0.1819  0.5241 -1.0013
  709MOL0     H95693   4.703   8.059   2.810  2.1005 -0.4238 -1.7717
  709MOL0     H95694   4.676   8.060   2.636  1.4821  2.0922 -0.0289
  709MOL0     H95695   4.267   7.063   2.696 -0.3223  0.5241  0.5461
  709MOL0     H95696   4.058   7.001   2.790  1.0101 -0.2643 -0.0132
  709MOL0     H95697   3.602   6.844   2.455  1.9542 -3.8006  1.6647
  709MOL0     H95698   3.352   6.794   2.486  1.1499 -0.6669 -1.0079
  709MOL0     H95699   3.144   7.478   3.630 -4.4398  1.3158  0.0600
  709MOL0     H95700   3.117   7.703   3.755 -0.8892 -0.2522 -0.0286
  709MOL0     H95701   3.203   7.775   4.268  0.1503  0.8076  0.1206
  709MOL0     H95702   3.219   7.917   4.468  0.9035  0.1261  0.9480
  709MOL0     H95703   3.275   8.069   4.633  1.3847  1.0041  1.1631
  709MOL0     H95704   3.118   8.123   4.582  0.5708 -3.0766  2.2613
  709MOL0     H95705   3.339   8.294   4.689 -0.6131  1.9916  3.6388
  709MOL0     H95706   3.223   8.221   4.788  0.3602 -0.2298  0.7098
  709MOL0     H95707   3.173   8.450   4.743  1.2449 -1.5335  0.6361
  709MOL0     H95708   3.038   8.376   4.664  0.4000 -0.9845  3.0491
  709MOL0     H95709   3.166   8.565   4.515 -2.4458 -0.6473 -2.5731
  709MOL0     H95710   3.277   8.435   4.493  0.3314 -0.2455  1.9771
  709MOL0     H95711   3.000   8.362   4.211  1.3097  1.1146 -0.0758
  709MOL0     H95712   3.389   8.231   4.254 -0.6426 -0.4086  1.1678
  709MOL0     H95713   3.367   8.166   3.949 -2.4709 -2.3936  0.9889
  709MOL0     H95714   3.526   8.159   4.035  1.1473 -0.3290 -1.3755
  709MOL0     H95715   3.453   8.025   3.938 -2.2417 -0.5677 -0.5538
  710MOL0     O95716   6.272  11.243   7.134 -1.1302 -0.2016  0.2623
  710MOL0     C95717   6.294  11.123   7.149  0.1660  0.4104  0.6507
  710MOL0     O95718   6.206  11.017   7.139  0.4332  0.1844 -0.2133
  710MOL0     C95719   6.092  11.045   7.068  0.1448  0.0230 -0.3364
  710MOL0     C95720   6.094  11.099   6.940  0.7828 -0.7919  0.4030
  710MOL0     C95721   5.970  11.128   6.882 -0.1284 -0.0079  0.5178
  710MOL0     C95722   5.851  11.104   6.943  0.1481  0.2607  0.8087
  710MOL0     O95723   5.728  11.136   6.890 -0.2416  0.8089  0.4366
  710MOL0     C95724   5.720  11.260   6.816  0.0599  0.0348 -0.0323
  710MOL0     C95725   5.593  11.330   6.836  0.1930  0.0994 -0.7514
  710MOL0     C95726   5.474  11.240   6.798 -0.1603 -0.0497  0.3804
  710MOL0     C95727   5.352  11.334   6.799  1.0941 -0.5876  0.7216
  710MOL0     C95728   5.229  11.245   6.793  0.5257  0.2815 -0.7088
  710MOL0     C95729   5.096  11.308   6.805 -0.3014  0.5548 -0.3532
  710MOL0     C95730   5.070  11.363   6.946  0.9696 -0.6511  0.1964
  710MOL0     C95731   4.995  11.265   7.036 -0.7791 -0.1065 -0.3703
  710MOL0     N95732   5.053  11.137   7.080 -0.3228  0.0746  0.3107
  710MOL0     C95733   5.171  11.125   7.146 -0.1481  0.1477 -0.7344
  710MOL0     C95734   5.202  10.994   7.135 -0.0582  0.8112 -1.1157
  710MOL0     C95735   5.297  10.928   7.235  0.5606 -0.8618 -0.5252
  710MOL0     C95736   5.430  10.924   7.160 -0.2183  0.6499 -0.4081
  710MOL0     C95737   5.435  10.822   7.047 -0.6572  1.2332 -0.4403
  710MOL0     C95738   5.568  10.773   7.018 -0.5318 -0.4751 -0.1768
  710MOL0     O95739   5.562  10.645   6.947 -0.4452  0.7381 -0.6947
  710MOL0     C95740   5.670  10.582   6.888 -0.4977 -0.1421  0.1061
  710MOL0     C95741   5.653  10.469   6.804 -0.6016 -0.8078 -0.1398
  710MOL0     C95742   5.760  10.403   6.736 -0.2723 -0.6036 -0.6332
  710MOL0     C95743   5.885  10.455   6.744  0.0047 -0.4166 -0.2731
  710MOL0     C95744   5.997  10.400   6.664  0.6354  0.0657  0.0076
  710MOL0     O95745   5.973  10.274   6.603  0.2290 -0.0171  0.0930
  710MOL0     C95746   6.077  10.211   6.537  0.8196  0.1891  0.6072
  710MOL0     C95747   6.093  10.238   6.402 -1.5105  0.8754  0.2537
  710MOL0     C95748   6.183  10.156   6.332  0.4119  0.3935  0.0056
  710MOL0     C95749   6.259  10.054   6.393  0.2400 -0.3409  0.1461
  710MOL0     O95750   6.354   9.967   6.336  0.4076 -0.6246 -0.0244
  710MOL0     C95751   6.364   9.974   6.197 -0.5306  0.3928 -0.2826
  710MOL0     C95752   6.463   9.869   6.145 -0.9169 -0.6125  0.4935
  710MOL0     C95753   6.396   9.732   6.124 -0.6797 -0.2837  0.7723
  710MOL0     C95754   6.496   9.639   6.047 -0.3542 -0.3377  0.1521
  710MOL0     C95755   6.424   9.535   5.954 -0.1813 -0.3845  0.0673
  710MOL0     C95756   6.526   9.466   5.874  0.2774  0.2874  0.2383
  710MOL0     C95757   6.453   9.359   5.785 -0.5712 -0.3292 -0.2902
  710MOL0     C95758   6.426   9.417   5.643  0.8683  0.3369 -0.6298
  710MOL0    Cl95759   6.329   9.283   5.552  0.3157 -0.5091 -0.0309
  710MOL0     C95760   6.254  10.046   6.530  0.4676  0.0528 -0.4606
  710MOL0     C95761   6.164  10.125   6.603 -0.0286 -0.3196  0.0916
  710MOL0     O95762   6.099  10.467   6.656 -0.2975 -0.6540  0.2731
  710MOL0     C95763   5.906  10.577   6.813 -0.4800 -0.0813 -0.5443
  710MOL0     C95764   5.798  10.630   6.886 -0.6249  0.1079  0.6479
  710MOL0     N95765   5.110  10.927   7.056  0.1266 -0.2145 -0.1028
  710MOL0     N95766   5.018  11.017   7.029  0.3436  1.1742 -0.6459
  710MOL0     C95767   5.853  11.050   7.071  0.7872  0.3549 -0.4881
  710MOL0     C95768   5.970  11.019   7.134  0.1659 -0.4502  0.0244
  710MOL0     C95769   6.447  11.086   7.147 -0.6232  0.8463  0.0907
  710MOL0     C95770   6.494  10.983   7.067  0.1218  0.9933 -1.0937
  710MOL0     C95771   6.626  10.945   7.060  0.7498  0.4189  0.3768
  710MOL0     C95772   6.721  11.005   7.144 -1.1866 -0.1119 -0.2331
  710MOL0     O95773   6.855  10.980   7.135 -0.6061  0.9521  0.1282
  710MOL0     C95774   6.910  10.883   7.043  1.1874 -0.5351  0.1250
  710MOL0     C95775   6.912  10.749   7.102 -0.3327  1.4697 -0.7474
  710MOL0     C95776   6.980  10.657   6.999 -0.2577 -0.3349  0.2142
  710MOL0     C95777   7.004  10.517   7.059  0.2895  0.2814 -0.4961
  710MOL0     C95778   7.122  10.452   6.995 -0.7966  0.0659  0.0540
  710MOL0     C95779   7.220  10.414   6.945  0.3856  0.5343  0.6565
  710MOL0     C95780   6.678  11.102   7.229 -0.8881  0.3417 -0.7287
  710MOL0     C95781   6.546  11.141   7.234 -0.1293 -0.9789  0.0181
  710MOL0     C95782   6.501  11.258   7.324  0.9060  0.2553 -0.3121
  710MOL0     H95783   6.192  11.123   6.899 -0.2497  4.9413  0.4351
  710MOL0     H95784   5.973  11.164   6.779 -1.3457 -2.7795 -0.5821
  710MOL0     H95785   5.795  11.334   6.847 -0.8081  1.2409 -0.7234
  710MOL0     H95786   5.719  11.234   6.710  1.7387 -1.9413  0.3833
  710MOL0     H95787   5.589  11.423   6.779  1.3399  1.4887  1.2843
  710MOL0     H95788   5.580  11.364   6.939 -0.5684 -3.6240  0.5248
  710MOL0     H95789   5.468  11.158   6.869  1.0500 -1.0740 -0.6590
  710MOL0     H95790   5.491  11.211   6.694 -1.5198  2.3483 -0.6045
  710MOL0     H95791   5.341  11.396   6.888  1.3696  1.9858 -0.9281
  710MOL0     H95792   5.355  11.409   6.720  2.0397  1.2535  2.4288
  710MOL0     H95793   5.230  11.191   6.698  0.7062 -2.7508  0.8759
  710MOL0     H95794   5.235  11.171   6.874  3.3087  0.9046 -0.2510
  710MOL0     H95795   5.083  11.387   6.730  1.4680  0.7417 -0.4997
  710MOL0     H95796   5.018  11.232   6.792 -2.4099  1.5551  4.3419
  710MOL0     H95797   5.003  11.448   6.930 -1.0506 -2.3531 -0.8264
  710MOL0     H95798   5.159  11.396   7.000  0.3383 -0.9802  1.4717
  710MOL0     H95799   4.978  11.332   7.121 -0.7643 -1.8168  1.0395
  710MOL0     H95800   4.900  11.232   6.994 -0.5184  1.2464 -2.1234
  710MOL0     H95801   5.215  11.184   7.226  0.0103 -0.7567 -0.1344
  710MOL0     H95802   5.312  10.979   7.331  3.6579  0.2160 -1.4554
  710MOL0     H95803   5.261  10.832   7.273  0.6078  0.9864  5.1998
  710MOL0     H95804   5.479  11.018   7.132  3.7223 -1.0060  0.1386
  710MOL0     H95805   5.502  10.887   7.234 -1.1082 -4.5939 -1.7222
  710MOL0     H95806   5.387  10.861   6.956  0.7985 -1.8360 -2.6970
  710MOL0     H95807   5.370  10.737   7.068  1.2249  0.0411  0.8657
  710MOL0     H95808   5.615  10.757   7.116  2.9901 -0.7478 -1.7540
  710MOL0     H95809   5.637  10.839   6.964  1.1752 -1.3435  0.8432
  710MOL0     H95810   5.551  10.434   6.790 -1.2094  1.7052 -3.1024
  710MOL0     H95811   5.742  10.306   6.693  3.4886 -1.4099 -0.7737
  710MOL0     H95812   6.027  10.306   6.350 -1.4367  1.0363  0.3713
  710MOL0     H95813   6.172  10.169   6.225 -1.2429 -0.6114  0.0183
  710MOL0     H95814   6.266   9.966   6.149 -1.0529  0.5256  0.7442
  710MOL0     H95815   6.406  10.072   6.169  4.1897 -0.8358  1.4876
  710MOL0     H95816   6.500   9.905   6.048  4.5758 -0.3800  2.3049
  710MOL0     H95817   6.553   9.864   6.208  2.2594 -1.2057 -3.6652
  710MOL0     H95818   6.369   9.685   6.219  2.1561  0.3735  2.0023
  710MOL0     H95819   6.299   9.747   6.075 -0.5702  1.9003  1.1282
  710MOL0     H95820   6.564   9.582   6.111 -1.2796 -4.4277 -2.1457
  710MOL0     H95821   6.561   9.703   5.986  0.6997 -0.9740  0.5708
  710MOL0     H95822   6.349   9.585   5.891  0.6401  0.6941 -0.0857
  710MOL0     H95823   6.361   9.465   6.010  0.6130 -0.9149  0.3217
  710MOL0     H95824   6.599   9.522   5.814  1.3478  2.1840  3.1255
  710MOL0     H95825   6.591   9.408   5.939 -0.6674 -1.8355 -0.6165
  710MOL0     H95826   6.353   9.341   5.826  0.1416 -1.5868  0.9661
  710MOL0     H95827   6.510   9.266   5.788 -2.7745 -1.8087  4.0532
  710MOL0     H95828   6.360   9.503   5.660  2.2199  1.0203  1.4923
  710MOL0     H95829   6.517   9.436   5.586  0.6551  2.3897 -0.3580
  710MOL0     H95830   6.307   9.967   6.582 -1.6957 -0.9857  0.3033
  710MOL0     H95831   6.150  10.114   6.711  0.3263 -3.6885 -0.1054
  710MOL0     H95832   6.002  10.628   6.820 -1.2005  1.3481 -0.8150
  710MOL0     H95833   5.821  10.732   6.913  1.2483  0.5921 -2.2908
  710MOL0     H95834   5.771  11.030   7.138  2.6487 -0.2407  1.7249
  710MOL0     H95835   5.961  10.975   7.233  0.8119 -0.9017 -0.1106
  710MOL0     H95836   6.426  10.926   7.004  1.2616 -2.1852  0.3447
  710MOL0     H95837   6.657  10.862   6.998 -0.1467  0.6193 -0.3561
  710MOL0     H95838   7.007  10.913   7.001  1.2680 -2.9440 -1.6279
  710MOL0     H95839   6.857  10.889   6.948  0.3098  0.4181  0.6459
  710MOL0     H95840   6.813  10.709   7.125  0.3417  0.0731 -0.1842
  710MOL0     H95841   6.966  10.730   7.195 -0.4287 -0.5450 -1.0541
  710MOL0     H95842   7.073  10.712   6.978 -1.5479  2.2387  0.8023
  710MOL0     H95843   6.922  10.644   6.908  0.4523 -3.3544  0.1023
  710MOL0     H95844   7.029  10.536   7.164  2.0078 -3.6671 -0.0333
  710MOL0     H95845   6.921  10.446   7.050  0.1613  0.3322  0.2171
  710MOL0     H95846   7.303  10.377   6.887 -1.2560 -0.0078 -1.4940
  710MOL0     H95847   6.750  11.166   7.278  0.4953 -1.7127  0.0829
  710MOL0     H95848   6.416  11.221   7.381  0.2877 -0.5748 -1.7176
  710MOL0     H95849   6.582  11.282   7.394  0.4392 -3.8293  1.9361
  710MOL0     H95850   6.470  11.347   7.269 -1.9605 -1.4943 -1.7791
  711MOL0     O95851   3.127   4.857  10.027  0.4041 -0.0010  0.2029
  711MOL0     C95852   3.121   4.783  10.127  0.4425 -0.2358  0.4313
  711MOL0     O95853   3.065   4.660  10.129  0.4585  0.4683 -0.2700
  711MOL0     C95854   3.059   4.594  10.005  0.0836 -0.8892 -0.7447
  711MOL0     C95855   2.936   4.519   9.990  0.6991 -0.3412 -0.0579
  711MOL0     C95856   2.924   4.417   9.887  0.8606 -0.2216  0.4437
  711MOL0     C95857   3.030   4.398   9.801  0.4922 -0.5227 -0.0818
  711MOL0     O95858   3.018   4.286   9.720  0.6730  0.3513 -0.1650
  711MOL0     C95859   3.117   4.183   9.725  0.1267 -0.1422  0.8875
  711MOL0     C95860   3.106   4.097   9.594  0.6700 -0.4993 -0.2562
  711MOL0     C95861   3.029   3.966   9.613  0.3936 -0.3632  0.7245
  711MOL0     C95862   2.952   3.901   9.490  0.8531  1.1853 -0.2498
  711MOL0     C95863   2.900   3.756   9.520 -0.1614 -0.0006  0.2402
  711MOL0     C95864   2.841   3.695   9.384 -0.1388 -0.2811 -0.8957
  711MOL0     C95865   2.725   3.608   9.417 -1.0210  0.7259  0.4298
  711MOL0     C95866   2.761   3.477   9.494  0.7509  0.1110 -0.9793
  711MOL0     N95867   2.832   3.377   9.405  0.5251 -0.2008  0.2573
  711MOL0     C95868   2.798   3.342   9.270 -0.1009  0.0655  0.4556
  711MOL0     C95869   2.893   3.249   9.251 -1.1019 -0.3348  0.1255
  711MOL0     C95870   2.924   3.182   9.125  0.8693 -0.3560  1.3931
  711MOL0     C95871   2.866   3.260   8.995 -0.0203  0.7560 -0.3438
  711MOL0     C95872   2.924   3.195   8.865 -0.0457 -0.4708  0.1546
  711MOL0     C95873   2.848   3.242   8.741  1.5833 -0.6571 -0.6059
  711MOL0     O95874   2.861   3.385   8.741 -0.1507  0.0591  0.5400
  711MOL0     C95875   2.948   3.426   8.634  0.0216  0.0378  0.4270
  711MOL0     C95876   2.892   3.505   8.534  0.5261 -0.7184  0.2892
  711MOL0     C95877   2.970   3.522   8.414 -0.3430  0.0191 -0.5397
  711MOL0     C95878   3.097   3.459   8.402 -0.0398  0.0268  0.2943
  711MOL0     C95879   3.174   3.475   8.281 -0.4537  0.9299 -0.3500
  711MOL0     O95880   3.122   3.533   8.178  0.0292 -0.1538  0.1795
  711MOL0     C95881   3.182   3.529   8.058 -0.0737  0.7652 -0.0440
  711MOL0     C95882   3.177   3.642   7.981 -0.1939 -0.4983  0.5686
  711MOL0     C95883   3.239   3.652   7.857  0.3972 -0.2612 -1.0694
  711MOL0     C95884   3.323   3.546   7.808  0.3484  0.1985  0.5932
  711MOL0     O95885   3.378   3.565   7.690  0.2125  0.0185 -0.8594
  711MOL0     C95886   3.510   3.513   7.664  0.5942 -0.7539  0.0855
  711MOL0     C95887   3.565   3.594   7.550  0.3059  0.5364  0.4321
  711MOL0     C95888   3.478   3.554   7.421  0.6478  0.2184  0.7886
  711MOL0     C95889   3.512   3.642   7.301  0.2325  0.1187  0.0532
  711MOL0     C95890   3.486   3.791   7.303 -0.2114  0.1142 -0.1127
  711MOL0     C95891   3.342   3.821   7.353  0.6657  0.6655 -0.2524
  711MOL0     C95892   3.310   3.973   7.362 -0.2100  0.2989 -1.3585
  711MOL0     C95893   3.338   4.027   7.222 -0.5095  0.1735  0.1921
  711MOL0    Cl95894   3.266   4.187   7.209  0.2278 -0.4748 -0.2902
  711MOL0     C95895   3.334   3.432   7.885  0.4530 -0.1604  0.0030
  711MOL0     C95896   3.263   3.423   8.004  0.0659 -0.0733  1.2059
  711MOL0     O95897   3.286   3.427   8.290 -0.4659  0.0628  0.5413
  711MOL0     C95898   3.146   3.378   8.505 -0.0600 -0.0911  0.1902
  711MOL0     C95899   3.071   3.377   8.626 -0.5599  0.0751 -0.5228
  711MOL0     N95900   2.944   3.195   9.367 -0.6335 -0.0647 -0.6635
  711MOL0     N95901   2.913   3.285   9.459  0.6544  1.0141  0.0688
  711MOL0     C95902   3.153   4.480   9.809  0.5190  0.8798  0.4323
  711MOL0     C95903   3.163   4.576   9.912 -0.1131  0.2756  0.5292
  711MOL0     C95904   3.184   4.828  10.252  0.5072 -0.1061  0.8761
  711MOL0     C95905   3.134   4.924  10.336  0.2509 -0.3508  0.2524
  711MOL0     C95906   3.190   4.963  10.465  0.0350  1.0069  0.3098
  711MOL0     C95907   3.312   4.899  10.500  0.2033 -0.4198 -0.0799
  711MOL0     O95908   3.381   4.911  10.620  0.1134 -0.3048  0.6661
  711MOL0     C95909   3.311   4.957  10.742 -0.6346 -0.0669  0.7704
  711MOL0     C95910   3.209   4.848  10.786  0.0970 -0.3780  0.5550
  711MOL0     C95911   3.146   4.901  10.915 -0.4820 -0.1658  0.0556
  711MOL0     C95912   3.070   4.808  11.007 -1.2779  0.0138  0.1764
  711MOL0     C95913   2.970   4.720  10.955  0.7997  0.8241 -0.8240
  711MOL0     C95914   2.888   4.645  10.902  0.7386  0.7909  0.2595
  711MOL0     C95915   3.368   4.812  10.408  0.4841 -0.1843  0.6886
  711MOL0     C95916   3.302   4.774  10.292 -0.3846  0.1954 -0.0019
  711MOL0     C95917   3.356   4.670  10.206  0.1172  0.2283 -0.4690
  711MOL0     H95918   2.857   4.518  10.065  0.0867  1.4002 -0.6450
  711MOL0     H95919   2.830   4.364   9.874  0.1265  1.1194  0.1294
  711MOL0     H95920   3.217   4.226   9.733  1.3114 -2.8171  1.7814
  711MOL0     H95921   3.110   4.113   9.809  1.1942 -1.1700  0.1617
  711MOL0     H95922   3.205   4.093   9.547  0.3305 -0.2801 -1.0206
  711MOL0     H95923   3.063   4.156   9.512  4.5901 -0.5328 -2.5930
  711MOL0     H95924   2.954   3.984   9.690 -2.3784  2.9025 -2.3688
  711MOL0     H95925   3.102   3.891   9.645  0.4216  0.1137  1.8222
  711MOL0     H95926   2.865   3.958   9.456  1.0040  1.0924 -0.8123
  711MOL0     H95927   3.007   3.888   9.396 -1.5098 -1.2558 -1.4337
  711MOL0     H95928   2.988   3.699   9.552  1.1390  0.7315 -1.7741
  711MOL0     H95929   2.828   3.759   9.601 -0.1933  1.8196  0.1850
  711MOL0     H95930   2.805   3.781   9.326 -1.0785  0.5538  0.8436
  711MOL0     H95931   2.911   3.643   9.317  1.4185 -0.3506  0.7126
  711MOL0     H95932   2.667   3.588   9.327 -1.8860 -0.8886  1.2991
  711MOL0     H95933   2.659   3.667   9.481 -2.1517  0.8672 -0.8355
  711MOL0     H95934   2.810   3.489   9.591  1.9643 -2.3721 -1.1879
  711MOL0     H95935   2.669   3.420   9.512 -0.9417  2.7265 -0.7717
  711MOL0     H95936   2.731   3.394   9.202 -0.0542 -1.6344 -0.9602
  711MOL0     H95937   3.033   3.181   9.111  0.7143 -2.0352 -0.0640
  711MOL0     H95938   2.886   3.080   9.111  0.4503  0.2155 -2.9801
  711MOL0     H95939   2.757   3.250   9.006  0.0509  0.9409  0.6651
  711MOL0     H95940   2.895   3.365   9.009 -0.6603  0.6429  2.5048
  711MOL0     H95941   2.916   3.086   8.866  0.7258 -0.5592 -1.0061
  711MOL0     H95942   3.027   3.224   8.843 -1.0619 -0.0662 -5.6261
  711MOL0     H95943   2.742   3.215   8.747  0.4600  3.3989  1.1688
  711MOL0     H95944   2.881   3.182   8.656  1.8524 -3.1536  1.1466
  711MOL0     H95945   2.796   3.552   8.551  0.5038 -0.6554 -0.0116
  711MOL0     H95946   2.939   3.595   8.340  0.3699  1.8444  0.8758
  711MOL0     H95947   3.114   3.718   8.027 -2.9985 -2.0436 -0.5192
  711MOL0     H95948   3.220   3.742   7.799  1.6650  0.2614 -0.7185
  711MOL0     H95949   3.581   3.519   7.748 -1.1365 -1.9757  1.7275
  711MOL0     H95950   3.502   3.405   7.651 -0.3307 -1.2559  3.6330
  711MOL0     H95951   3.571   3.700   7.575 -1.8479  0.0806  3.3704
  711MOL0     H95952   3.668   3.582   7.516 -0.0497  2.2678 -1.4665
  711MOL0     H95953   3.495   3.450   7.394 -0.7048  0.4919 -1.4192
  711MOL0     H95954   3.371   3.569   7.437 -0.2177 -1.4838 -2.4643
  711MOL0     H95955   3.460   3.598   7.215  0.1609  1.6297 -0.6974
  711MOL0     H95956   3.620   3.635   7.286  0.7412  1.4250  2.5749
  711MOL0     H95957   3.495   3.823   7.199  1.0242  4.9013  1.2014
  711MOL0     H95958   3.562   3.842   7.364 -0.5698  0.2932  0.1883
  711MOL0     H95959   3.270   3.765   7.292 -0.1084 -0.3890  1.5473
  711MOL0     H95960   3.320   3.782   7.453 -0.9574  0.5212 -0.6464
  711MOL0     H95961   3.378   4.015   7.436  4.4725 -3.0288 -3.3000
  711MOL0     H95962   3.211   4.002   7.397 -0.3922 -1.7103 -0.0616
  711MOL0     H95963   3.445   4.048   7.210 -1.0194  2.9302 -0.1514
  711MOL0     H95964   3.304   3.964   7.140 -2.9407  1.0585  0.4410
  711MOL0     H95965   3.395   3.345   7.865  0.8054 -0.3520  1.7967
  711MOL0     H95966   3.288   3.340   8.070 -3.6042  0.5514  3.6574
  711MOL0     H95967   3.235   3.316   8.508  0.9112  1.2483 -0.2115
  711MOL0     H95968   3.128   3.311   8.690 -0.3516  1.6206  0.9620
  711MOL0     H95969   3.234   4.465   9.739 -1.5986 -2.4452 -1.5599
  711MOL0     H95970   3.264   4.615   9.911 -1.2670  3.6170 -1.5911
  711MOL0     H95971   3.048   4.985  10.308 -0.3870 -1.9876 -1.6256
  711MOL0     H95972   3.149   5.039  10.531  1.8933  3.0938 -0.8200
  711MOL0     H95973   3.260   5.054  10.736 -0.7785  0.0344  2.7743
  711MOL0     H95974   3.384   4.954  10.824 -0.0548  0.3024  0.2752
  711MOL0     H95975   3.246   4.746  10.776  0.3685 -0.4433  1.9477
  711MOL0     H95976   3.121   4.850  10.722 -1.9136 -1.7649  3.0705
  711MOL0     H95977   3.077   4.985  10.897 -0.8683 -0.6712 -0.8834
  711MOL0     H95978   3.223   4.946  10.979 -1.0358  1.0181 -0.0791
  711MOL0     H95979   3.149   4.753  11.058 -0.4794  0.1976 -0.8246
  711MOL0     H95980   3.031   4.870  11.088  1.1877 -2.5784  3.6162
  711MOL0     H95981   2.816   4.573  10.870 -2.7504  4.4404 -0.9849
  711MOL0     H95982   3.453   4.748  10.431  0.0855 -1.8104 -2.0533
  711MOL0     H95983   3.453   4.628  10.235 -0.3779  0.4400  1.5954
  711MOL0     H95984   3.289   4.585  10.190 -0.1616  0.3433  0.0627
  711MOL0     H95985   3.379   4.719  10.110  1.1404 -0.7978 -0.7728
  712MOL0     O95986   1.723   5.691   7.289  0.9467  0.2499 -0.1538
  712MOL0     C95987   1.742   5.667   7.172 -0.6652  0.2900  0.4409
  712MOL0     O95988   1.847   5.595   7.125 -0.2090  0.7006  0.7178
  712MOL0     C95989   1.951   5.561   7.215  0.6917  0.1966 -0.5322
  712MOL0     C95990   1.928   5.476   7.327  0.0462  0.3071 -0.0164
  712MOL0     C95991   2.029   5.463   7.421 -0.8306  0.3914 -0.3442
  712MOL0     C95992   2.157   5.534   7.409  0.6132 -0.5688 -0.4524
  712MOL0     O95993   2.265   5.513   7.492 -0.3711  0.2457 -0.2460
  712MOL0     C95994   2.223   5.496   7.634 -0.2524 -0.3783 -1.1174
  712MOL0     C95995   2.267   5.358   7.670  0.5112  0.0393 -0.1819
  712MOL0     C95996   2.216   5.303   7.805  0.0642 -0.8227 -1.1116
  712MOL0     C95997   2.265   5.172   7.862 -0.0235  0.4196 -0.0480
  712MOL0     C95998   2.189   5.124   7.988  1.3106  0.0035 -0.7482
  712MOL0     C95999   2.038   5.095   7.961 -0.2211  0.0136 -0.0448
  712MOL0     C96000   1.987   4.983   8.050 -0.2268 -0.9337 -0.7344
  712MOL0     C96001   1.860   4.943   7.991  0.0346 -0.8442 -0.4262
  712MOL0     N96002   1.803   4.813   8.046 -0.0127 -0.3839 -0.0479
  712MOL0     C96003   1.874   4.690   8.043 -0.0584  0.7067 -0.3594
  712MOL0     C96004   1.810   4.620   8.133  0.5683 -0.7025 -0.5150
  712MOL0     C96005   1.854   4.493   8.194 -0.4418 -0.0085  0.3458
  712MOL0     C96006   1.733   4.406   8.226 -0.3569  0.4981 -0.3652
  712MOL0     C96007   1.792   4.260   8.249  0.2503  0.2869 -1.1904
  712MOL0     C96008   1.680   4.149   8.266  0.4303 -0.0395  0.1102
  712MOL0     O96009   1.743   4.020   8.280  0.7479 -0.6712 -0.7567
  712MOL0     C96010   1.661   3.915   8.262  0.5464 -0.2204  0.0648
  712MOL0     C96011   1.534   3.911   8.315 -0.4196  1.0124 -0.5490
  712MOL0     C96012   1.441   3.817   8.267 -0.2446  0.0918 -0.0108
  712MOL0     C96013   1.470   3.721   8.174 -0.7325 -0.3642  0.2352
  712MOL0     C96014   1.369   3.630   8.108 -0.0761  0.1644 -0.1228
  712MOL0     O96015   1.250   3.608   8.181 -0.4769  0.2891  0.7373
  712MOL0     C96016   1.165   3.502   8.141 -0.2647  1.1933 -0.4310
  712MOL0     C96017   1.143   3.447   8.011 -0.1542  0.2269 -0.2169
  712MOL0     C96018   1.035   3.356   7.994 -0.0765  0.3349  0.8623
  712MOL0     C96019   0.968   3.305   8.101 -0.7036 -0.3717 -0.8557
  712MOL0     O96020   0.891   3.196   8.086 -0.4002  0.4912 -0.3428
  712MOL0     C96021   0.763   3.204   8.021 -0.5464 -0.4821  0.1568
  712MOL0     C96022   0.668   3.124   8.110 -0.9485  0.1847 -0.8280
  712MOL0     C96023   0.647   3.173   8.259 -0.1003 -0.0652  0.2297
  712MOL0     C96024   0.694   3.087   8.378 -0.9587  0.7221  1.2112
  712MOL0     C96025   0.597   3.095   8.500  0.1732  0.0714  0.2388
  712MOL0     C96026   0.663   3.049   8.630 -0.2248 -0.4267 -0.0919
  712MOL0     C96027   0.553   3.054   8.740  0.2640 -0.0932 -0.0753
  712MOL0     C96028   0.618   3.048   8.878 -0.6741  0.1149 -0.4979
  712MOL0    Cl96029   0.484   3.055   8.995  0.1369 -0.4390 -0.2990
  712MOL0     C96030   1.005   3.344   8.226  1.2048  0.1078 -0.1418
  712MOL0     C96031   1.100   3.447   8.243 -0.4143  0.0728 -0.6044
  712MOL0     O96032   1.394   3.589   7.990 -0.2709 -0.8501 -1.2198
  712MOL0     C96033   1.604   3.719   8.123  0.4809  0.7632  0.6912
  712MOL0     C96034   1.695   3.823   8.165  0.2446  0.1389 -0.6608
  712MOL0     N96035   1.705   4.690   8.187 -0.4813  0.5353  0.7028
  712MOL0     N96036   1.695   4.800   8.131 -0.2093 -0.1198 -0.4980
  712MOL0     C96037   2.164   5.622   7.296  0.4790 -0.2583  0.0279
  712MOL0     C96038   2.063   5.631   7.200  0.3493  1.0841  0.1795
  712MOL0     C96039   1.630   5.693   7.080 -0.4978  0.1592 -1.3358
  712MOL0     C96040   1.505   5.707   7.140  0.7661 -0.1678 -1.2486
  712MOL0     C96041   1.392   5.730   7.066 -1.0697  1.1280 -0.5160
  712MOL0     C96042   1.402   5.749   6.925 -0.2478  0.5857  0.7247
  712MOL0     O96043   1.285   5.763   6.852  0.7938  0.7398 -0.0671
  712MOL0     C96044   1.298   5.762   6.710  0.0812  0.2714  0.3039
  712MOL0     C96045   1.157   5.769   6.644 -0.9950  1.1057  0.3792
  712MOL0     C96046   1.055   5.881   6.686 -0.5181  0.8793 -0.2948
  712MOL0     C96047   1.110   6.021   6.653  1.6014  0.3614 -0.4505
  712MOL0     C96048   1.141   6.032   6.513  0.0409  0.0963 -0.3431
  712MOL0     C96049   1.166   6.035   6.394 -0.1818 -0.7238 -0.1992
  712MOL0     C96050   1.524   5.726   6.865 -0.2916  0.7340  1.0760
  712MOL0     C96051   1.641   5.711   6.938 -0.3521  0.3756  0.4819
  712MOL0     C96052   1.774   5.696   6.874  0.6207  0.2886 -0.2734
  712MOL0     H96053   1.831   5.430   7.343 -0.0163  1.3067  3.2483
  712MOL0     H96054   2.016   5.391   7.501  0.6840 -1.9560 -2.0738
  712MOL0     H96055   2.291   5.566   7.684  1.3895  0.3790 -4.1331
  712MOL0     H96056   2.116   5.510   7.650 -0.2775 -0.3481 -1.3100
  712MOL0     H96057   2.376   5.356   7.666  0.5240  0.1383  0.1513
  712MOL0     H96058   2.221   5.294   7.593  1.6161 -1.5695  0.4411
  712MOL0     H96059   2.107   5.300   7.794  0.2040 -1.1590 -2.5924
  712MOL0     H96060   2.237   5.385   7.874 -2.5972 -0.2754 -0.8204
  712MOL0     H96061   2.262   5.094   7.786 -1.8265  1.2860 -0.9238
  712MOL0     H96062   2.369   5.183   7.893 -0.8427  1.5222  2.6576
  712MOL0     H96063   2.246   5.039   8.027  1.8397  1.0523  0.9116
  712MOL0     H96064   2.207   5.203   8.062  0.9896 -1.3223  0.8141
  712MOL0     H96065   1.978   5.185   7.974  2.0365  1.3221  2.4731
  712MOL0     H96066   2.019   5.079   7.855  2.9416  2.1132 -1.0874
  712MOL0     H96067   1.966   4.999   8.156  0.2987  1.1223 -0.9070
  712MOL0     H96068   2.057   4.901   8.033  1.3964  0.5127 -1.2745
  712MOL0     H96069   1.779   5.016   7.994  1.0472  0.5276 -3.1576
  712MOL0     H96070   1.863   4.946   7.881 -0.4781 -0.7958 -0.4428
  712MOL0     H96071   1.964   4.657   7.994  1.4408  0.1072  2.5426
  712MOL0     H96072   1.915   4.442   8.119 -0.9167 -1.3572  0.8436
  712MOL0     H96073   1.916   4.516   8.281 -0.2688  1.9742 -0.2586
  712MOL0     H96074   1.671   4.433   8.312  1.0920 -1.4784  1.4200
  712MOL0     H96075   1.666   4.413   8.140  1.6413 -1.0148 -2.1635
  712MOL0     H96076   1.853   4.274   8.338 -2.0596  0.4747  0.4407
  712MOL0     H96077   1.846   4.223   8.161 -0.8708 -0.5012 -1.5604
  712MOL0     H96078   1.618   4.153   8.176  0.3687 -0.1653  0.1474
  712MOL0     H96079   1.622   4.179   8.353  3.3007  0.3934  1.9873
  712MOL0     H96080   1.498   3.975   8.395 -0.2824  2.3985 -1.5598
  712MOL0     H96081   1.334   3.824   8.285 -0.7003 -0.3465 -2.2052
  712MOL0     H96082   1.198   3.478   7.922 -1.4375  0.2550 -1.0144
  712MOL0     H96083   1.016   3.315   7.895  0.8846  1.0944  0.3485
  712MOL0     H96084   0.726   3.306   8.013 -1.2433 -0.5987  1.5764
  712MOL0     H96085   0.779   3.153   7.926  2.9326 -1.5536  1.1475
  712MOL0     H96086   0.576   3.128   8.051 -2.3520 -0.9993  1.1522
  712MOL0     H96087   0.701   3.022   8.130  0.8993  1.1589  1.4688
  712MOL0     H96088   0.686   3.275   8.268  2.3815 -0.4834 -3.4172
  712MOL0     H96089   0.540   3.196   8.265 -0.2751 -1.2179  3.3957
  712MOL0     H96090   0.797   3.110   8.408 -0.0913 -0.3414 -0.7238
  712MOL0     H96091   0.701   2.980   8.355 -2.7545  0.6180  1.0645
  712MOL0     H96092   0.505   3.044   8.470  0.0992  1.3304 -1.8701
  712MOL0     H96093   0.587   3.204   8.506  1.2084  0.1671  0.4524
  712MOL0     H96094   0.716   2.954   8.619  0.0455 -0.1919 -0.8838
  712MOL0     H96095   0.741   3.117   8.664  1.8719 -2.6068 -0.3418
  712MOL0     H96096   0.490   2.964   8.735  0.2132  0.0155 -2.4400
  712MOL0     H96097   0.485   3.138   8.731 -2.5492 -1.9313  2.1982
  712MOL0     H96098   0.668   2.951   8.875 -0.0066  0.4671 -2.3303
  712MOL0     H96099   0.695   3.126   8.889  1.1878 -1.3708 -2.0858
  712MOL0     H96100   0.952   3.298   8.308 -1.2094  1.5801 -0.7527
  712MOL0     H96101   1.137   3.476   8.342 -0.3314  0.9632 -0.8833
  712MOL0     H96102   1.639   3.643   8.053 -1.5575  0.1345  0.2573
  712MOL0     H96103   1.795   3.812   8.122  0.1959  2.8710 -1.6360
  712MOL0     H96104   2.258   5.671   7.274 -1.0632  2.7210 -0.3903
  712MOL0     H96105   2.073   5.693   7.111  0.3380  2.2061  0.9304
  712MOL0     H96106   1.486   5.704   7.246 -1.6435 -0.0803 -1.6164
  712MOL0     H96107   1.302   5.759   7.121  0.5166  2.1207  1.7046
  712MOL0     H96108   1.341   5.667   6.677  1.2196  0.4739  1.1456
  712MOL0     H96109   1.358   5.846   6.674  0.9162 -0.6297 -0.4842
  712MOL0     H96110   1.107   5.682   6.687 -2.1730  0.9541 -1.1846
  712MOL0     H96111   1.152   5.755   6.535 -1.1145 -2.2216  0.7101
  712MOL0     H96112   1.034   5.867   6.793 -1.0954 -1.2796 -0.6430
  712MOL0     H96113   0.958   5.868   6.636  1.0921 -0.4465 -3.3308
  712MOL0     H96114   1.026   6.086   6.680 -1.1701 -3.3328  0.6303
  712MOL0     H96115   1.197   6.043   6.714 -0.3322  0.8147  2.3115
  712MOL0     H96116   1.196   6.018   6.293 -2.8100 -0.5314 -1.0716
  712MOL0     H96117   1.540   5.730   6.758  0.4333 -0.0833  1.1422
  712MOL0     H96118   1.782   5.739   6.773 -0.2005 -1.5117 -1.1591
  712MOL0     H96119   1.848   5.741   6.941 -1.0636  1.4394  0.8877
  712MOL0     H96120   1.794   5.589   6.885 -1.6864  0.0493  2.9692
  713MOL0     O96121   3.041   0.171   4.660  0.0725  0.4085 -0.9878
  713MOL0     C96122   3.145   0.102   4.637  1.0117  0.0250  0.0476
  713MOL0     O96123   3.154  -0.005   4.554  0.2040 -1.2959 -0.8943
  713MOL0     C96124   3.033  -0.049   4.516 -0.6311 -0.8191 -0.9611
  713MOL0     C96125   2.969  -0.001   4.403  0.1755 -0.0126 -0.0571
  713MOL0     C96126   2.853  -0.059   4.358 -0.1519 -0.1313 -0.2102
  713MOL0     C96127   2.794  -0.166   4.428 -0.5333  0.1727 -0.2835
  713MOL0     O96128   2.678  -0.221   4.387  0.1149 -0.4434 -0.7641
  713MOL0     C96129   2.565  -0.228   4.479  0.8368 -0.0715  0.2954
  713MOL0     C96130   2.497  -0.369   4.467 -0.5789  0.4416  0.5516
  713MOL0     C96131   2.358  -0.375   4.526 -0.3825  0.2034 -0.3828
  713MOL0     C96132   2.375  -0.356   4.682  0.0625 -0.1954  0.2506
  713MOL0     C96133   2.248  -0.417   4.754  0.7321 -0.0552  0.7471
  713MOL0     C96134   2.108  -0.351   4.703  0.6556  0.0286 -0.5042
  713MOL0     C96135   1.999  -0.461   4.725 -0.7181  0.2787  0.0916
  713MOL0     C96136   1.851  -0.417   4.712 -0.0902 -0.5984 -0.0825
  713MOL0     N96137   1.753  -0.517   4.757 -0.3148 -0.1956 -0.1766
  713MOL0     C96138   1.726  -0.641   4.694 -1.2808 -0.4064 -1.4479
  713MOL0     C96139   1.607  -0.684   4.756  0.3039  0.4893 -0.8935
  713MOL0     C96140   1.538  -0.815   4.721 -0.3162  0.2693  0.2529
  713MOL0     C96141   1.583  -0.914   4.829  1.0955  0.7000  0.8275
  713MOL0     C96142   1.519  -1.054   4.793  0.4111  0.7216  0.0132
  713MOL0     C96143   1.364  -1.078   4.809 -0.6109 -0.2129 -0.0387
  713MOL0     O96144   1.350  -1.115   4.949  0.8818  0.4592  0.5642
  713MOL0     C96145   1.215  -1.138   4.992 -1.5704  0.1373 -1.1337
  713MOL0     C96146   1.102  -1.144   4.918  0.5196  0.8717  0.2042
  713MOL0     C96147   0.981  -1.173   4.972 -0.7023  0.3932 -1.0463
  713MOL0     C96148   0.976  -1.203   5.109  0.0843  1.1577 -0.0919
  713MOL0     C96149   0.848  -1.253   5.174 -1.0972 -0.3957  0.4004
  713MOL0     O96150   0.841  -1.257   5.312  0.7778 -0.9284 -0.2099
  713MOL0     C96151   0.713  -1.264   5.366 -0.0456  0.7204 -0.3436
  713MOL0     C96152   0.670  -1.364   5.450 -0.2449  0.0301 -0.7930
  713MOL0     C96153   0.545  -1.379   5.514 -0.5569 -0.1690  0.9820
  713MOL0     C96154   0.459  -1.274   5.492 -0.1375 -0.8877 -0.5297
  713MOL0     O96155   0.336  -1.287   5.557 -0.3963  0.3976  0.2137
  713MOL0     C96156   0.253  -1.379   5.488  0.1732  0.3034  0.7937
  713MOL0     C96157   0.107  -1.360   5.531 -0.0901  1.0923 -0.2630
  713MOL0     C96158   0.087  -1.330   5.684  0.0883 -1.0278  0.2809
  713MOL0     C96159  -0.055  -1.368   5.728 -0.5941  0.2301 -0.7799
  713MOL0     C96160  -0.074  -1.305   5.867  0.3250  0.1326  0.3994
  713MOL0     C96161  -0.212  -1.342   5.927  0.0431  0.3729 -0.5010
  713MOL0     C96162  -0.239  -1.242   6.049 -0.5123 -0.1694 -0.0585
  713MOL0     C96163  -0.374  -1.277   6.120 -0.3904  0.5107 -0.1065
  713MOL0    Cl96164  -0.507  -1.231   6.018  0.3426 -0.1551  0.8347
  713MOL0     C96165   0.489  -1.172   5.400 -0.1471  0.4699 -0.6151
  713MOL0     C96166   0.617  -1.168   5.342 -1.0601 -0.7789 -0.4248
  713MOL0     O96167   0.761  -1.300   5.103  0.2340 -0.0697 -0.5949
  713MOL0     C96168   1.093  -1.183   5.191 -0.0007 -0.1300  0.6231
  713MOL0     C96169   1.213  -1.154   5.126 -0.6897  0.2766 -0.5848
  713MOL0     N96170   1.571  -0.588   4.852  0.4724  0.3381 -0.6591
  713MOL0     N96171   1.661  -0.492   4.859 -0.3655 -0.2144 -0.0715
  713MOL0     C96172   2.857  -0.208   4.547  0.6573  1.0038  0.1480
  713MOL0     C96173   2.972  -0.152   4.586  0.0204  0.2193  0.6786
  713MOL0     C96174   3.268   0.131   4.706  0.4108 -0.1285  0.4304
  713MOL0     C96175   3.376   0.133   4.620 -0.4284  0.4951 -0.8541
  713MOL0     C96176   3.502   0.170   4.666  0.8431 -0.2715 -1.0462
  713MOL0     C96177   3.528   0.201   4.803  0.5351 -0.0228 -0.3270
  713MOL0     O96178   3.641   0.264   4.848 -0.1539  0.5980 -0.9997
  713MOL0     C96179   3.749   0.272   4.764 -0.0983  0.1070  0.1999
  713MOL0     C96180   3.869   0.290   4.843  0.0629 -0.2375  0.1215
  713MOL0     C96181   3.888   0.408   4.937  0.4504  0.4102  0.7351
  713MOL0     C96182   4.021   0.433   4.989  0.3225 -0.0065 -0.4281
  713MOL0     C96183   4.036   0.554   5.076  0.4295  0.2661 -0.3533
  713MOL0     C96184   4.067   0.654   5.139 -0.1813 -0.2959 -0.3944
  713MOL0     C96185   3.426   0.192   4.890  0.1553  0.0426 -0.2918
  713MOL0     C96186   3.293   0.159   4.844  0.3861 -1.3325  0.5374
  713MOL0     C96187   3.178   0.188   4.936  0.4976 -0.5180 -0.0414
  713MOL0     H96188   3.025   0.074   4.347 -0.1596 -0.5409 -1.1401
  713MOL0     H96189   2.796  -0.006   4.282  0.4289 -0.1819 -0.6848
  713MOL0     H96190   2.604  -0.208   4.579  0.1501  0.5801  0.4364
  713MOL0     H96191   2.490  -0.151   4.461  1.0605  0.5320  1.7969
  713MOL0     H96192   2.555  -0.446   4.518  1.4717  0.9451 -0.8858
  713MOL0     H96193   2.487  -0.402   4.364 -0.4091 -4.9347  1.9657
  713MOL0     H96194   2.312  -0.471   4.500  0.7461 -0.2048 -0.9580
  713MOL0     H96195   2.309  -0.290   4.477 -1.4600 -0.0904  0.1420
  713MOL0     H96196   2.462  -0.415   4.711  1.1394  1.2314  0.0141
  713MOL0     H96197   2.383  -0.250   4.708 -1.2883  0.7164 -2.6049
  713MOL0     H96198   2.260  -0.523   4.730  4.0669  0.0261  1.4722
  713MOL0     H96199   2.254  -0.405   4.862 -0.6678  0.5036  0.7863
  713MOL0     H96200   2.089  -0.249   4.738 -3.7369  0.2508 -2.8247
  713MOL0     H96201   2.114  -0.336   4.594  1.9714 -2.1005 -0.7807
  713MOL0     H96202   2.017  -0.502   4.825  0.6980  2.5638  0.8473
  713MOL0     H96203   2.009  -0.541   4.650  0.5203 -0.1480  0.6726
  713MOL0     H96204   1.833  -0.329   4.774  3.6663  0.5458 -0.3728
  713MOL0     H96205   1.831  -0.392   4.607 -0.2312  2.1596  0.5096
  713MOL0     H96206   1.779  -0.684   4.609 -1.3924 -0.7249 -1.3552
  713MOL0     H96207   1.429  -0.805   4.725 -0.1660  2.9108 -0.5542
  713MOL0     H96208   1.573  -0.855   4.625  2.2530  0.5579  1.0057
  713MOL0     H96209   1.692  -0.913   4.835  1.2544 -0.1807 -1.1670
  713MOL0     H96210   1.552  -0.878   4.927  0.3616  2.8591 -0.1216
  713MOL0     H96211   1.584  -1.113   4.859  0.8050  1.2359  0.0896
  713MOL0     H96212   1.551  -1.084   4.693  3.7467 -1.0588  1.4330
  713MOL0     H96213   1.323  -1.156   4.744  1.4834 -0.1508 -1.5335
  713MOL0     H96214   1.304  -0.990   4.782 -0.7461 -0.4621 -0.5657
  713MOL0     H96215   1.120  -1.128   4.812 -1.2284 -1.9710 -0.6338
  713MOL0     H96216   0.892  -1.191   4.913  1.0788 -3.0981 -2.9948
  713MOL0     H96217   0.746  -1.434   5.484  0.3443  1.9072  2.1332
  713MOL0     H96218   0.519  -1.455   5.587 -0.2848 -0.4792  0.7563
  713MOL0     H96219   0.267  -1.373   5.380 -0.4397 -0.7541  0.6478
  713MOL0     H96220   0.282  -1.482   5.508  1.1524  0.2362 -0.8231
  713MOL0     H96221   0.058  -1.278   5.478  1.1064  1.1439 -1.3346
  713MOL0     H96222   0.059  -1.451   5.497 -0.5246  2.1984 -2.8024
  713MOL0     H96223   0.146  -1.392   5.751 -2.0531 -0.9805  2.3336
  713MOL0     H96224   0.111  -1.226   5.709  4.3851 -2.0130  0.9805
  713MOL0     H96225  -0.056  -1.477   5.730  0.7058  0.2033 -0.9784
  713MOL0     H96226  -0.133  -1.349   5.654 -0.9470  1.6606 -0.0913
  713MOL0     H96227  -0.069  -1.196   5.860  2.3492  0.0532 -0.1089
  713MOL0     H96228  -0.004  -1.334   5.946 -2.6884  1.8917  4.0081
  713MOL0     H96229  -0.287  -1.332   5.848  0.0792 -3.9446 -1.2922
  713MOL0     H96230  -0.225  -1.441   5.971  0.8491  1.2938  1.9877
  713MOL0     H96231  -0.243  -1.137   6.018 -3.2440  0.2771  1.4915
  713MOL0     H96232  -0.155  -1.239   6.119 -1.9998  2.1281  1.7682
  713MOL0     H96233  -0.381  -1.385   6.140 -1.1431  0.4947 -0.4287
  713MOL0     H96234  -0.371  -1.219   6.213 -1.5792  0.7316 -0.1925
  713MOL0     H96235   0.405  -1.106   5.380  0.7420  1.6860 -0.4192
  713MOL0     H96236   0.620  -1.089   5.268 -0.2383  0.3156  0.7487
  713MOL0     H96237   1.088  -1.194   5.299  3.5401  1.7622  1.1365
  713MOL0     H96238   1.305  -1.136   5.181 -0.6398  1.5334 -1.0621
  713MOL0     H96239   2.800  -0.283   4.601  1.3592  1.4698  1.5695
  713MOL0     H96240   3.016  -0.180   4.681  3.3464 -2.5485 -1.4307
  713MOL0     H96241   3.377   0.115   4.514 -1.8803  2.0002 -1.1718
  713MOL0     H96242   3.582   0.170   4.593 -0.0804  0.8968 -2.1112
  713MOL0     H96243   3.727   0.357   4.699 -2.3333 -0.2687  0.3810
  713MOL0     H96244   3.765   0.178   4.709  0.9832 -0.6017  1.6627
  713MOL0     H96245   3.951   0.293   4.771 -0.9998  2.4213 -1.1490
  713MOL0     H96246   3.882   0.197   4.898  1.4305  0.6549  1.3784
  713MOL0     H96247   3.827   0.399   5.028 -1.4757 -1.5065 -0.6302
  713MOL0     H96248   3.861   0.501   4.886  1.3454  1.6839  2.4968
  713MOL0     H96249   4.052   0.338   5.034  3.5621 -0.2326 -2.8024
  713MOL0     H96250   4.090   0.440   4.905  1.4050  2.1648  0.5735
  713MOL0     H96251   4.094   0.737   5.201  0.3971  0.9431 -2.2398
  713MOL0     H96252   3.460   0.218   4.989  1.0865  2.5231 -1.1705
  713MOL0     H96253   3.108   0.104   4.940 -0.5467  0.3842  2.2376
  713MOL0     H96254   3.222   0.189   5.036  1.3409  1.2442 -0.3890
  713MOL0     H96255   3.123   0.278   4.906 -2.6697 -2.0844  0.6102
  714MOL0     O96256   6.604   8.016   5.587 -0.4165 -0.3058 -0.6169
  714MOL0     C96257   6.678   7.922   5.552 -0.2434  0.2212  0.3263
  714MOL0     O96258   6.808   7.904   5.593  0.0171  0.2788 -1.0797
  714MOL0     C96259   6.861   8.000   5.681 -0.2728  0.2430  0.1063
  714MOL0     C96260   6.990   8.035   5.652 -0.7700 -0.2406 -0.5531
  714MOL0     C96261   7.068   8.121   5.735  0.1889  0.7228 -0.7436
  714MOL0     C96262   7.022   8.180   5.852  1.2370 -0.3504 -0.1818
  714MOL0     O96263   7.101   8.267   5.931 -0.1387 -0.6001  0.5840
  714MOL0     C96264   7.219   8.318   5.873  0.5463 -0.3554 -0.7348
  714MOL0     C96265   7.261   8.436   5.952 -0.6290  0.2433  0.1573
  714MOL0     C96266   7.339   8.413   6.076  0.2244 -0.2119  0.5267
  714MOL0     C96267   7.371   8.553   6.135 -0.5438 -0.6331 -0.5663
  714MOL0     C96268   7.485   8.556   6.237  0.1740 -0.1862 -0.1272
  714MOL0     C96269   7.618   8.481   6.203  0.1262 -0.1275 -0.1587
  714MOL0     C96270   7.684   8.498   6.064 -0.2111 -0.1630  0.6981
  714MOL0     C96271   7.802   8.597   6.049 -0.4664  0.0336  0.0372
  714MOL0     N96272   7.759   8.740   6.067  0.0617  0.9449 -0.8899
  714MOL0     C96273   7.818   8.825   6.154  0.5096  0.0996  0.6483
  714MOL0     C96274   7.744   8.936   6.140  0.3839  0.4414  0.5737
  714MOL0     C96275   7.754   9.072   6.196  0.0725 -0.1341 -0.5919
  714MOL0     C96276   7.786   9.176   6.083  0.6742 -0.3709  0.6145
  714MOL0     C96277   7.765   9.327   6.135 -0.0842  0.9373 -0.3541
  714MOL0     C96278   7.885   9.343   6.233 -0.0377 -0.0157 -0.0499
  714MOL0     O96279   7.905   9.474   6.291  0.4007  0.0649  0.4322
  714MOL0     C96280   7.994   9.490   6.391 -0.4332 -0.5159 -0.3483
  714MOL0     C96281   7.975   9.607   6.468 -0.0588  0.4118  0.3971
  714MOL0     C96282   8.068   9.646   6.569  0.1767  0.4073 -0.3398
  714MOL0     C96283   8.170   9.551   6.606 -0.7381  0.6081  0.0085
  714MOL0     C96284   8.275   9.580   6.712  0.4034 -0.3209  0.5397
  714MOL0     O96285   8.384   9.493   6.730  0.4710  0.7262 -0.4316
  714MOL0     C96286   8.473   9.534   6.823 -0.6782  0.2845 -0.0219
  714MOL0     C96287   8.590   9.612   6.787  0.0775  0.7267 -0.4392
  714MOL0     C96288   8.676   9.653   6.892 -0.0259 -0.4818  0.2829
  714MOL0     C96289   8.644   9.634   7.025  0.1704  0.1450  0.1222
  714MOL0     O96290   8.744   9.669   7.104 -0.2886  0.0194 -0.1481
  714MOL0     C96291   8.730   9.673   7.247  0.2928 -0.1135  0.5906
  714MOL0     C96292   8.849   9.759   7.292 -0.4749  1.0695 -0.9494
  714MOL0     C96293   8.863   9.895   7.235  0.2388 -0.1288 -0.6498
  714MOL0     C96294   8.995   9.954   7.274 -0.3613  0.5943  0.0055
  714MOL0     C96295   9.000  10.066   7.384  0.1761 -0.1618 -0.0222
  714MOL0     C96296   8.959  10.008   7.515  0.1438  0.2727 -1.3935
  714MOL0     C96297   8.946  10.106   7.633  0.1187  0.1104  0.0339
  714MOL0     C96298   9.076  10.187   7.666  0.3202  0.3009  0.2019
  714MOL0    Cl96299   9.231  10.105   7.617 -0.2606 -0.3768  0.0843
  714MOL0     C96300   8.520   9.563   7.057  0.0652  0.1556 -0.6703
  714MOL0     C96301   8.439   9.520   6.958  0.1212  0.3218 -1.2268
  714MOL0     O96302   8.267   9.693   6.761  0.2032 -0.2796 -0.0961
  714MOL0     C96303   8.169   9.424   6.537 -0.8512 -0.0784  0.6990
  714MOL0     C96304   8.091   9.391   6.427 -0.4911 -0.7572  0.6351
  714MOL0     N96305   7.639   8.913   6.047 -0.0436  0.2737 -0.9334
  714MOL0     N96306   7.642   8.792   6.010 -0.6875 -0.0588  0.8070
  714MOL0     C96307   6.881   8.146   5.882  0.0049 -0.0148  0.3640
  714MOL0     C96308   6.797   8.063   5.793  0.0260 -0.9077 -0.3476
  714MOL0     C96309   6.634   7.821   5.443  0.7010 -0.8368  0.2948
  714MOL0     C96310   6.720   7.721   5.418 -0.9423 -0.2804 -0.1146
  714MOL0     C96311   6.692   7.619   5.329 -0.0747 -0.0366  0.2518
  714MOL0     C96312   6.583   7.626   5.251 -0.1741  1.0760  0.3558
  714MOL0     O96313   6.568   7.521   5.155  0.8901  0.2951  0.5573
  714MOL0     C96314   6.441   7.510   5.080 -1.0290  0.3820 -0.0216
  714MOL0     C96315   6.457   7.414   4.958 -0.6800 -0.6273 -0.3519
  714MOL0     C96316   6.512   7.275   4.987 -0.4140  0.0052  0.3174
  714MOL0     C96317   6.569   7.198   4.859  0.2039 -0.7750  0.5608
  714MOL0     C96318   6.640   7.076   4.904  0.6322  0.5463  0.0613
  714MOL0     C96319   6.682   6.964   4.935  0.2224  0.1639 -0.3943
  714MOL0     C96320   6.485   7.719   5.278  0.5817  0.2325 -0.2287
  714MOL0     C96321   6.505   7.815   5.379 -0.2456 -0.0011 -0.5021
  714MOL0     C96322   6.396   7.925   5.407  0.5159 -0.4252  0.1397
  714MOL0     H96323   7.041   7.982   5.572 -1.2296 -1.6882  0.0836
  714MOL0     H96324   7.172   8.135   5.706 -0.2838 -1.2767 -3.8000
  714MOL0     H96325   7.304   8.250   5.862 -0.9445 -2.1973 -1.4694
  714MOL0     H96326   7.199   8.356   5.772 -0.9529  0.6744 -0.0994
  714MOL0     H96327   7.178   8.504   5.971  0.1768  0.9121  1.4062
  714MOL0     H96328   7.327   8.491   5.884  1.3597 -0.0207  1.7739
  714MOL0     H96329   7.432   8.366   6.043  1.2034  2.1131 -0.1739
  714MOL0     H96330   7.278   8.347   6.140 -1.1737 -2.1732 -2.6039
  714MOL0     H96331   7.398   8.623   6.056 -2.0054  0.1769 -0.3950
  714MOL0     H96332   7.276   8.583   6.182 -0.5246 -1.7899  0.2504
  714MOL0     H96333   7.504   8.660   6.263 -0.9938  0.7224 -2.5382
  714MOL0     H96334   7.449   8.521   6.334 -0.4244  1.5247  0.3117
  714MOL0     H96335   7.688   8.515   6.280 -0.4695  0.8101 -0.0193
  714MOL0     H96336   7.604   8.373   6.218 -0.5559  0.1663  1.5607
  714MOL0     H96337   7.608   8.528   5.990  0.3542 -3.2227 -1.3321
  714MOL0     H96338   7.725   8.405   6.025  2.4721  1.0304  0.5084
  714MOL0     H96339   7.857   8.577   6.142 -1.6994  2.3362  1.3567
  714MOL0     H96340   7.853   8.577   5.955 -0.7469 -0.1893 -0.0703
  714MOL0     H96341   7.904   8.812   6.218  0.5840  2.2466  1.0793
  714MOL0     H96342   7.658   9.094   6.242 -0.6306 -0.6320 -1.7559
  714MOL0     H96343   7.832   9.068   6.272  1.4876 -4.9606 -1.8892
  714MOL0     H96344   7.889   9.155   6.054 -0.0465 -4.2927  0.3322
  714MOL0     H96345   7.735   9.166   5.986  1.6960  1.3706 -0.1440
  714MOL0     H96346   7.665   9.337   6.179  0.6002  0.3238  1.4499
  714MOL0     H96347   7.772   9.399   6.053 -3.3438  1.2153 -0.5534
  714MOL0     H96348   7.979   9.317   6.184  0.7871  3.0666 -0.3324
  714MOL0     H96349   7.877   9.267   6.311 -0.3938 -0.8901 -0.9178
  714MOL0     H96350   7.899   9.682   6.452 -0.6405  0.4099  2.7601
  714MOL0     H96351   8.066   9.740   6.622  0.1071  0.8781 -1.1568
  714MOL0     H96352   8.628   9.629   6.686  1.4131  0.8537  0.0546
  714MOL0     H96353   8.770   9.701   6.866 -0.4155  0.7324  1.0249
  714MOL0     H96354   8.638   9.726   7.270  0.2441  0.1438 -0.1927
  714MOL0     H96355   8.722   9.576   7.298  0.9456  0.7429  2.4197
  714MOL0     H96356   8.835   9.758   7.400 -3.2524 -1.6001 -1.2120
  714MOL0     H96357   8.937   9.696   7.274 -0.0572  1.6208 -0.8527
  714MOL0     H96358   8.855   9.902   7.126  3.2976 -1.1929 -1.0551
  714MOL0     H96359   8.792   9.967   7.276  3.0033  2.0691  0.5905
  714MOL0     H96360   9.045   9.983   7.181 -0.0584  1.8625  0.5367
  714MOL0     H96361   9.052   9.873   7.319 -0.8520 -0.3488 -1.0245
  714MOL0     H96362   8.947  10.157   7.355  0.5200 -0.7133 -2.5468
  714MOL0     H96363   9.108  10.081   7.394  0.1298 -0.2758  0.7415
  714MOL0     H96364   8.858   9.965   7.511  1.3026 -2.7747 -0.9252
  714MOL0     H96365   9.025   9.924   7.541 -0.2925  0.2134 -0.4407
  714MOL0     H96366   8.917  10.054   7.725  0.3567  2.8113  1.7366
  714MOL0     H96367   8.868  10.176   7.601 -0.3716 -0.4894 -0.1136
  714MOL0     H96368   9.064  10.287   7.623  0.5138 -0.0636 -0.7212
  714MOL0     H96369   9.077  10.200   7.774 -1.2742 -0.9426  0.3918
  714MOL0     H96370   8.494   9.535   7.158  1.8574  0.0696 -0.2005
  714MOL0     H96371   8.344   9.472   6.978  0.8448 -0.5081  0.3731
  714MOL0     H96372   8.242   9.357   6.582 -1.2065  1.1572  3.3473
  714MOL0     H96373   8.108   9.301   6.369 -0.7351 -2.2339  2.7463
  714MOL0     H96374   6.834   8.199   5.964 -2.2205  1.9909 -2.0724
  714MOL0     H96375   6.694   8.045   5.822  0.1698 -1.6164 -0.2466
  714MOL0     H96376   6.812   7.708   5.473 -1.4052  0.4864  0.8828
  714MOL0     H96377   6.755   7.531   5.320  0.9362  0.6126  0.8330
  714MOL0     H96378   6.417   7.613   5.054  2.4177  0.8160 -2.0721
  714MOL0     H96379   6.357   7.469   5.137 -1.6016  1.9980  0.3487
  714MOL0     H96380   6.536   7.455   4.893 -0.7115 -0.4235 -0.2616
  714MOL0     H96381   6.368   7.413   4.894 -0.2982  2.0202 -1.0305
  714MOL0     H96382   6.436   7.208   5.028  0.1359 -1.0543 -0.3677
  714MOL0     H96383   6.588   7.290   5.065  1.4907 -0.5052 -1.3582
  714MOL0     H96384   6.492   7.185   4.783 -2.2515  2.5328  2.2358
  714MOL0     H96385   6.653   7.253   4.815  0.4332  0.2637  2.1663
  714MOL0     H96386   6.708   6.862   4.958  0.7910  0.1248 -1.1844
  714MOL0     H96387   6.391   7.719   5.225 -1.1549 -1.1659  2.6320
  714MOL0     H96388   6.389   7.944   5.515 -1.0264  0.3708 -0.0810
  714MOL0     H96389   6.410   8.026   5.367 -4.1137  1.3659  2.3043
  714MOL0     H96390   6.298   7.896   5.370 -0.5040  1.6500  1.0584
  715MOL0     O96391   6.103  10.740  10.428 -0.0849  0.6584 -0.1363
  715MOL0     C96392   6.105  10.630  10.494 -0.3215  0.3267 -0.3586
  715MOL0     O96393   6.199  10.551  10.536 -0.3304  1.1061  0.6088
  715MOL0     C96394   6.326  10.580  10.502  0.5942  0.2853 -0.2747
  715MOL0     C96395   6.381  10.698  10.466 -0.8865  0.9363  0.7409
  715MOL0     C96396   6.516  10.709  10.414  0.1276 -0.2895 -0.4163
  715MOL0     C96397   6.607  10.598  10.405  0.0367 -0.4156 -0.7916
  715MOL0     O96398   6.733  10.598  10.347 -0.5337  0.5114  0.5889
  715MOL0     C96399   6.795  10.723  10.309  0.1146 -0.8093  0.3034
  715MOL0     C96400   6.842  10.801  10.432  0.2450 -0.3575 -0.3292
  715MOL0     C96401   6.894  10.942  10.412 -0.0828 -0.4200 -0.1909
  715MOL0     C96402   6.869  11.033  10.534 -0.2192  0.4863 -0.2927
  715MOL0     C96403   6.922  11.172  10.517  0.1328  0.2010  0.5721
  715MOL0     C96404   6.891  11.263  10.640 -0.6994  0.5527  0.3405
  715MOL0     C96405   6.998  11.381  10.646  0.4299  0.6445 -0.6782
  715MOL0     C96406   6.999  11.468  10.523 -0.3204 -0.8502  0.2432
  715MOL0     N96407   7.109  11.571  10.532  0.1803  0.2509 -0.8704
  715MOL0     C96408   7.116  11.684  10.609 -0.6395  0.2636 -0.7763
  715MOL0     C96409   7.231  11.737  10.566  0.2589 -0.2839 -0.4122
  715MOL0     C96410   7.286  11.871  10.608  0.8561 -0.7854  0.9049
  715MOL0     C96411   7.185  11.987  10.560 -0.2980  0.1493 -0.3543
  715MOL0     C96412   7.195  12.119  10.641 -0.5062  0.2565  0.2245
  715MOL0     C96413   7.099  12.219  10.583  0.0699  0.0992  0.1015
  715MOL0     O96414   7.089  12.227  10.436 -0.3535 -0.6620 -0.3730
  715MOL0     C96415   7.195  12.260  10.357 -0.5550 -0.6522  0.2497
  715MOL0     C96416   7.178  12.225  10.221 -0.1386 -0.1077 -0.7959
  715MOL0     C96417   7.272  12.249  10.115  0.0625 -0.1895 -0.1495
  715MOL0     C96418   7.386  12.330  10.158 -0.6179  0.3212  0.0453
  715MOL0     C96419   7.479  12.376  10.057 -0.2812 -0.8105  0.8745
  715MOL0     O96420   7.433  12.402   9.930  0.4327 -0.0627 -0.1062
  715MOL0     C96421   7.535  12.444   9.848 -1.3040 -0.0486  0.8651
  715MOL0     C96422   7.551  12.585   9.837  0.8825  0.5259  0.3297
  715MOL0     C96423   7.656  12.641   9.782  0.7300  0.8999 -0.2079
  715MOL0     C96424   7.752  12.555   9.719  0.0975 -0.0363 -0.2068
  715MOL0     O96425   7.858  12.617   9.660  0.3427 -0.2869  0.6049
  715MOL0     C96426   7.963  12.542   9.586  0.0000 -1.1800 -0.0842
  715MOL0     C96427   8.019  12.642   9.479 -0.0873  0.4296  0.7249
  715MOL0     C96428   8.099  12.749   9.555  1.0983  0.1098  0.2886
  715MOL0     C96429   8.154  12.837   9.448 -0.1576  0.3428  0.7980
  715MOL0     C96430   8.252  12.941   9.518 -0.6487  1.0191 -0.3502
  715MOL0     C96431   8.324  13.026   9.415 -0.7541 -0.0094  0.0243
  715MOL0     C96432   8.433  13.120   9.469 -0.2282 -0.3293 -0.0042
  715MOL0     C96433   8.512  13.082   9.595  0.1268  0.3932  0.0273
  715MOL0    Cl96434   8.595  12.927   9.564 -0.1262 -0.2006  0.0203
  715MOL0     C96435   7.729  12.414   9.715  0.6564 -0.4630  0.3960
  715MOL0     C96436   7.620  12.360   9.780  0.2699 -0.6276  1.0799
  715MOL0     O96437   7.595  12.408  10.089  1.0308  0.0462 -0.6649
  715MOL0     C96438   7.410  12.371  10.291 -0.6735  0.7044 -0.5503
  715MOL0     C96439   7.312  12.335  10.386  0.0281  0.3086  1.0840
  715MOL0     N96440   7.294  11.662  10.465  0.4859 -0.0268 -0.5851
  715MOL0     N96441   7.213  11.564  10.445 -0.1890 -0.1442  0.0826
  715MOL0     C96442   6.541  10.472  10.447  0.1936 -0.6335  0.1380
  715MOL0     C96443   6.414  10.464  10.497  0.6091 -0.7305  1.5174
  715MOL0     C96444   5.974  10.582  10.529 -0.6132 -0.2115 -0.3092
  715MOL0     C96445   5.870  10.675  10.545 -0.8751  0.1288 -0.0596
  715MOL0     C96446   5.743  10.643  10.584 -0.5526 -1.0236  0.0833
  715MOL0     C96447   5.713  10.515  10.618 -0.1879  0.0214  1.0893
  715MOL0     O96448   5.584  10.504  10.665 -0.1174 -0.5304  0.5573
  715MOL0     C96449   5.544  10.390  10.727  0.3834  0.3685  0.4026
  715MOL0     C96450   5.428  10.327  10.649 -0.2849  0.8746  0.0589
  715MOL0     C96451   5.492  10.273  10.520  0.1799  0.5866 -0.4007
  715MOL0     C96452   5.410  10.162  10.454 -0.3945  0.7947 -0.6635
  715MOL0     C96453   5.283  10.215  10.416  0.1843 -0.2095  0.9427
  715MOL0     C96454   5.166  10.250  10.401 -1.1409 -0.0237  0.5891
  715MOL0     C96455   5.804  10.414  10.596  0.2382 -0.5582 -1.0816
  715MOL0     C96456   5.940  10.444  10.557  0.4534 -0.3517 -0.1089
  715MOL0     C96457   6.030  10.329  10.549  0.0206  0.7524  1.0480
  715MOL0     H96458   6.323  10.790  10.466 -0.5058  1.2791 -2.5907
  715MOL0     H96459   6.564  10.800  10.381  2.7165 -2.1659 -2.2547
  715MOL0     H96460   6.880  10.696  10.245  0.9583 -1.4601  1.6387
  715MOL0     H96461   6.735  10.784  10.241 -2.7398 -0.8180  2.6373
  715MOL0     H96462   6.908  10.737  10.491 -0.5225  1.2347  2.3984
  715MOL0     H96463   6.753  10.816  10.494 -0.2450  1.4123 -1.3946
  715MOL0     H96464   6.844  10.982  10.323 -0.6644 -0.1140  0.2637
  715MOL0     H96465   6.999  10.958  10.388 -1.2158  4.8161 -2.9411
  715MOL0     H96466   6.762  11.051  10.538 -0.2186  0.4324 -0.0433
  715MOL0     H96467   6.894  10.991  10.632 -2.0072 -1.6744 -0.7058
  715MOL0     H96468   7.030  11.166  10.501  0.0626 -1.8618  0.5667
  715MOL0     H96469   6.887  11.218  10.425  2.2491  0.6954 -0.0572
  715MOL0     H96470   6.797  11.313  10.615  0.2635  1.6500 -1.3137
  715MOL0     H96471   6.896  11.212  10.736  0.9233  1.0717  0.5741
  715MOL0     H96472   7.093  11.332  10.667  0.1954  0.3285 -0.3358
  715MOL0     H96473   6.963  11.444  10.728 -1.6714 -0.4316 -0.6644
  715MOL0     H96474   7.012  11.412  10.430  3.0043  0.0867  0.0064
  715MOL0     H96475   6.903  11.519  10.511  1.0501  1.3645 -2.9356
  715MOL0     H96476   7.050  11.725  10.685 -0.7720  3.8041 -2.5794
  715MOL0     H96477   7.297  11.886  10.715  0.3617  3.1518  0.5455
  715MOL0     H96478   7.384  11.885  10.561  0.2081 -1.1216 -0.6063
  715MOL0     H96479   7.203  12.013  10.455  4.3429  1.0938  0.4527
  715MOL0     H96480   7.086  11.943  10.573  0.6342 -1.9728  0.1063
  715MOL0     H96481   7.298  12.151  10.659 -0.9162  1.6537  0.1827
  715MOL0     H96482   7.180  12.101  10.747  1.2176  0.9428  0.6127
  715MOL0     H96483   7.119  12.316  10.629  4.5259 -0.5512 -0.0002
  715MOL0     H96484   6.999  12.193  10.618  0.4246  0.9554  1.8527
  715MOL0     H96485   7.082  12.182  10.196 -1.9306  2.0480  1.7741
  715MOL0     H96486   7.267  12.223  10.010 -0.9421 -2.6905  0.4506
  715MOL0     H96487   7.468  12.636   9.886 -2.7160 -3.7851 -0.5936
  715MOL0     H96488   7.656  12.749   9.778 -0.7811  0.9071 -0.4422
  715MOL0     H96489   8.051  12.512   9.643  3.9118  2.7342 -3.3116
  715MOL0     H96490   7.923  12.457   9.530 -2.2401  0.4999 -1.2144
  715MOL0     H96491   8.095  12.604   9.410  1.5700  2.0858  1.5542
  715MOL0     H96492   7.944  12.686   9.413  0.2546 -0.5765 -0.3624
  715MOL0     H96493   8.031  12.803   9.621 -2.0761 -1.6666 -1.3157
  715MOL0     H96494   8.185  12.700   9.601  2.2001  3.6526  2.3325
  715MOL0     H96495   8.076  12.893   9.396 -0.5203 -0.4032  0.5353
  715MOL0     H96496   8.205  12.776   9.373 -0.6398  0.2677  0.5336
  715MOL0     H96497   8.327  12.879   9.568 -0.9953 -1.1489 -2.3054
  715MOL0     H96498   8.191  13.002   9.586 -0.1934 -1.3606  2.3778
  715MOL0     H96499   8.386  12.960   9.353 -0.5244  0.0083  0.2283
  715MOL0     H96500   8.247  13.077   9.357 -1.2691 -2.1230 -1.2686
  715MOL0     H96501   8.380  13.215   9.479  3.1074  1.8058 -1.0092
  715MOL0     H96502   8.504  13.146   9.390  1.9700  1.7440  2.4451
  715MOL0     H96503   8.578  13.165   9.619  1.2125 -0.9081  1.8006
  715MOL0     H96504   8.441  13.071   9.678 -0.5740 -0.5814 -0.6705
  715MOL0     H96505   7.802  12.355   9.659 -0.1417 -0.2207 -0.9327
  715MOL0     H96506   7.587  12.257   9.770  0.8060 -0.8698  1.7620
  715MOL0     H96507   7.498  12.423  10.326 -1.2633  1.1903  0.2772
  715MOL0     H96508   7.322  12.382  10.483 -0.4710  1.6741  0.4970
  715MOL0     H96509   6.597  10.381  10.468 -0.2400  0.1090  6.6604
  715MOL0     H96510   6.377  10.367  10.529  0.0946 -1.1640 -0.2900
  715MOL0     H96511   5.896  10.773  10.504 -0.3435  0.6225  1.3897
  715MOL0     H96512   5.675  10.727  10.601  0.1138 -0.3410 -0.5593
  715MOL0     H96513   5.506  10.418  10.826  0.3716  2.2021 -0.0726
  715MOL0     H96514   5.624  10.319  10.752  0.0205  0.1277  0.8801
  715MOL0     H96515   5.336  10.386  10.641 -0.0519  1.5027  1.5702
  715MOL0     H96516   5.398  10.240  10.708 -1.6786 -0.5572 -2.6112
  715MOL0     H96517   5.579  10.217  10.554 -1.7953 -1.0831  2.2607
  715MOL0     H96518   5.514  10.354  10.450  0.1292  0.2520 -0.8107
  715MOL0     H96519   5.465  10.128  10.366  1.3003  2.6429 -0.3918
  715MOL0     H96520   5.379  10.080  10.519 -1.1765 -0.4878 -2.5718
  715MOL0     H96521   5.063  10.266  10.376 -1.1713  3.6645  2.3629
  715MOL0     H96522   5.776  10.311  10.614 -2.8520 -0.1708 -2.9545
  715MOL0     H96523   5.975  10.240  10.515  0.5770  0.5770  0.5947
  715MOL0     H96524   6.104  10.348  10.472 -0.8538  1.3915  0.3523
  715MOL0     H96525   6.073  10.309  10.648 -0.0434  4.3730  1.9462
  716MOL0     O96526   1.332   4.028   3.623 -0.1456 -0.1978 -0.0174
  716MOL0     C96527   1.315   4.085   3.731 -0.6363 -0.5289  0.1186
  716MOL0     O96528   1.406   4.158   3.792 -0.1051  0.6217  0.4716
  716MOL0     C96529   1.522   4.195   3.732  0.0337 -0.3868  0.6619
  716MOL0     C96530   1.552   4.228   3.594  0.9253  0.4250  0.9165
  716MOL0     C96531   1.678   4.268   3.554  0.5491 -0.3958  0.2990
  716MOL0     C96532   1.787   4.281   3.648  0.2780  0.2864  0.7059
  716MOL0     O96533   1.915   4.319   3.618 -0.0667  0.1652 -0.4779
  716MOL0     C96534   1.950   4.379   3.495  0.2784 -0.5881  0.2096
  716MOL0     C96535   2.012   4.267   3.416  0.0046  0.1306  0.6290
  716MOL0     C96536   2.149   4.223   3.479 -0.0246  0.0673 -0.1920
  716MOL0     C96537   2.226   4.113   3.397  0.0131 -0.2615 -0.5542
  716MOL0     C96538   2.372   4.112   3.457  1.1724  0.5499  0.4196
  716MOL0     C96539   2.474   4.006   3.404 -0.4738 -0.0613  1.0986
  716MOL0     C96540   2.610   4.010   3.477 -0.4460 -0.6261  0.1143
  716MOL0     C96541   2.718   3.937   3.398 -0.1938 -0.1174  0.6114
  716MOL0     N96542   2.702   3.788   3.408  0.7964  0.1947  0.4217
  716MOL0     C96543   2.655   3.698   3.313  0.9110  0.3430  0.1901
  716MOL0     C96544   2.679   3.572   3.361 -0.0180 -0.0076  0.6669
  716MOL0     C96545   2.606   3.445   3.293  0.3787  0.0843 -0.6268
  716MOL0     C96546   2.714   3.374   3.208  0.2671  0.0391  0.0497
  716MOL0     C96547   2.673   3.249   3.129  0.0025 -0.2161  0.4617
  716MOL0     C96548   2.655   3.128   3.215  0.3016 -0.0313 -0.6272
  716MOL0     O96549   2.664   3.009   3.133 -0.5878 -0.0111 -0.5280
  716MOL0     C96550   2.663   2.882   3.191 -0.2406 -0.9460 -0.0392
  716MOL0     C96551   2.623   2.849   3.318 -0.1864 -0.0245  0.1346
  716MOL0     C96552   2.643   2.727   3.379  0.1545  0.4926  0.0646
  716MOL0     C96553   2.708   2.620   3.306 -0.2549  0.1962 -0.2127
  716MOL0     C96554   2.749   2.484   3.354  0.2466  0.0432  0.3487
  716MOL0     O96555   2.825   2.404   3.282 -0.2629 -0.6292  0.8346
  716MOL0     C96556   2.854   2.288   3.338 -0.3798 -0.6437  0.0180
  716MOL0     C96557   2.991   2.280   3.381  0.4949 -0.1684 -0.0287
  716MOL0     C96558   3.034   2.152   3.436 -0.3096 -0.2094  0.3275
  716MOL0     C96559   2.944   2.052   3.481 -0.9724 -0.0874 -1.0670
  716MOL0     O96560   2.974   1.944   3.572  0.1864  0.0017  0.7361
  716MOL0     C96561   3.108   1.960   3.629 -0.0317  0.0670 -0.2425
  716MOL0     C96562   3.130   1.834   3.720 -0.0648  0.3201  0.4032
  716MOL0     C96563   3.072   1.851   3.856 -0.1327 -0.3678 -0.2131
  716MOL0     C96564   3.159   1.773   3.965  0.0983  0.1352 -0.0638
  716MOL0     C96565   3.153   1.616   3.957  0.9267 -0.3611  0.5695
  716MOL0     C96566   3.032   1.558   4.030  0.3930 -0.0417  0.0882
  716MOL0     C96567   3.036   1.407   4.007 -0.3348  0.1041  0.1305
  716MOL0     C96568   2.918   1.356   3.923  0.0172  0.5276  0.5155
  716MOL0    Cl96569   2.753   1.369   4.018 -0.3824  0.2704  0.6503
  716MOL0     C96570   2.817   2.063   3.420 -0.4339  0.6778 -0.3810
  716MOL0     C96571   2.774   2.171   3.349  0.0113  0.7059 -0.6681
  716MOL0     O96572   2.692   2.462   3.466 -0.5574  0.0174  0.0882
  716MOL0     C96573   2.746   2.653   3.175 -0.2208  0.1462 -0.5224
  716MOL0     C96574   2.721   2.783   3.118  1.0365  0.2574  0.6472
  716MOL0     N96575   2.723   3.584   3.490  1.2227 -0.1957 -0.0218
  716MOL0     N96576   2.742   3.716   3.517  0.7546 -0.2453 -0.2801
  716MOL0     C96577   1.756   4.252   3.778  0.2423 -0.4758  0.5586
  716MOL0     C96578   1.637   4.194   3.819 -0.6475 -0.4829  0.0050
  716MOL0     C96579   1.179   4.072   3.795  0.1746 -0.5659  0.5178
  716MOL0     C96580   1.099   3.955   3.766 -0.7418 -0.3996  0.3884
  716MOL0     C96581   0.971   3.944   3.817 -0.0718 -0.4983 -0.5303
  716MOL0     C96582   0.908   4.037   3.896  0.6295 -0.5386  1.0053
  716MOL0     O96583   0.779   4.053   3.926  0.7472  0.6273  0.2445
  716MOL0     C96584   0.696   3.963   3.856  0.2461 -0.0658  0.7930
  716MOL0     C96585   0.549   3.998   3.865  0.6607  1.0700 -0.0122
  716MOL0     C96586   0.508   4.033   4.016  0.4385 -0.2900  0.2162
  716MOL0     C96587   0.383   4.119   4.002 -0.4194  0.0223  0.5483
  716MOL0     C96588   0.323   4.132   4.136  0.7135  0.8874  0.4499
  716MOL0     C96589   0.258   4.153   4.238 -0.2158 -0.1759 -0.8526
  716MOL0     C96590   0.990   4.150   3.924 -0.7032 -0.4085 -0.0228
  716MOL0     C96591   1.123   4.177   3.878 -0.7190  0.3828 -0.2165
  716MOL0     C96592   1.181   4.317   3.901  0.2047  0.7660  0.7994
  716MOL0     H96593   1.479   4.217   3.513  0.0947 -2.6661  1.9192
  716MOL0     H96594   1.691   4.274   3.447 -2.8931 -2.7560 -0.4120
  716MOL0     H96595   1.860   4.420   3.448 -1.6495 -1.0558  3.1702
  716MOL0     H96596   2.013   4.467   3.511  1.8342 -1.6973  0.4111
  716MOL0     H96597   2.041   4.300   3.316  2.8553  0.3547  1.4358
  716MOL0     H96598   1.940   4.185   3.407 -0.2666  0.3694  0.6246
  716MOL0     H96599   2.118   4.187   3.577 -1.7717 -1.6855 -1.3120
  716MOL0     H96600   2.199   4.320   3.472 -2.5424  1.3663 -1.5429
  716MOL0     H96601   2.189   4.014   3.424  1.8101 -0.5397  1.1436
  716MOL0     H96602   2.222   4.123   3.288 -0.6210  3.0184 -0.3236
  716MOL0     H96603   2.417   4.211   3.443  0.7831  0.6617 -0.0736
  716MOL0     H96604   2.356   4.081   3.561 -1.5190 -0.0053 -0.1003
  716MOL0     H96605   2.422   3.912   3.424  1.8251 -1.7367 -0.2780
  716MOL0     H96606   2.485   4.025   3.297 -0.0533 -0.0730  1.1345
  716MOL0     H96607   2.594   3.980   3.581 -0.4130  1.2582  0.7009
  716MOL0     H96608   2.635   4.116   3.487 -0.2514 -0.4255 -1.9228
  716MOL0     H96609   2.722   3.976   3.295 -0.3950  2.3930  1.4873
  716MOL0     H96610   2.813   3.956   3.449 -0.3206 -0.4189  0.9612
  716MOL0     H96611   2.621   3.733   3.216 -1.9484  1.8602  1.6111
  716MOL0     H96612   2.557   3.377   3.364 -0.1738 -0.2238 -1.2910
  716MOL0     H96613   2.535   3.483   3.219  0.4943 -1.2573 -1.4647
  716MOL0     H96614   2.759   3.454   3.149  1.2641  0.5259  1.4331
  716MOL0     H96615   2.797   3.341   3.269  1.0318 -0.5224 -1.2518
  716MOL0     H96616   2.755   3.224   3.061  0.5191  1.4843  0.4200
  716MOL0     H96617   2.586   3.265   3.065 -0.7460 -2.7062  0.7389
  716MOL0     H96618   2.564   3.138   3.276  1.5891 -0.2293  1.4003
  716MOL0     H96619   2.738   3.125   3.285  0.6833 -1.2690 -1.1155
  716MOL0     H96620   2.573   2.928   3.372  0.0910  0.5752 -0.4694
  716MOL0     H96621   2.608   2.705   3.479 -4.5190 -0.0327 -1.4001
  716MOL0     H96622   3.057   2.363   3.357 -2.0924  2.3984  1.2150
  716MOL0     H96623   3.139   2.147   3.466 -0.3793 -0.2115  0.5754
  716MOL0     H96624   3.190   1.959   3.558 -1.6864  1.2109 -2.2977
  716MOL0     H96625   3.115   2.053   3.686  1.8819  0.4431 -1.0210
  716MOL0     H96626   3.078   1.748   3.677  0.2559  0.6402 -0.6408
  716MOL0     H96627   3.235   1.808   3.729  0.5744  2.5115 -0.0680
  716MOL0     H96628   3.067   1.959   3.876  0.7924 -0.5463  1.1279
  716MOL0     H96629   2.969   1.820   3.872  0.5610 -2.0242  1.2951
  716MOL0     H96630   3.122   1.812   4.060  0.6848 -1.1556  0.7118
  716MOL0     H96631   3.264   1.804   3.961 -0.3193  1.8087  0.9057
  716MOL0     H96632   3.246   1.580   4.001 -0.2618 -2.0344  1.8385
  716MOL0     H96633   3.146   1.580   3.854  1.6433 -0.4771  0.5567
  716MOL0     H96634   3.045   1.568   4.138  1.5598 -0.5906  0.0135
  716MOL0     H96635   2.938   1.605   3.998  0.7824 -0.0216 -1.0715
  716MOL0     H96636   3.015   1.374   4.109 -0.7998  1.5192  0.5224
  716MOL0     H96637   3.133   1.369   3.975 -0.7512 -0.3989 -0.5481
  716MOL0     H96638   2.913   1.419   3.834  1.8931 -0.4770 -0.3459
  716MOL0     H96639   2.948   1.254   3.897 -1.5900 -0.2034  1.3388
  716MOL0     H96640   2.744   1.985   3.434  0.2503 -0.1225 -1.1403
  716MOL0     H96641   2.670   2.169   3.316 -1.1045 -0.3118  2.5375
  716MOL0     H96642   2.802   2.583   3.114  2.8293  0.3480  1.8479
  716MOL0     H96643   2.756   2.805   3.018  1.2202  2.2819  1.1169
  716MOL0     H96644   1.841   4.259   3.845  2.6747 -0.4271 -2.3311
  716MOL0     H96645   1.629   4.160   3.922 -0.5040 -2.0320 -0.4751
  716MOL0     H96646   1.138   3.875   3.704 -1.6190 -1.7212  1.4922
  716MOL0     H96647   0.935   3.844   3.799 -1.4076  0.2447 -2.2186
  716MOL0     H96648   0.705   3.857   3.883 -1.3445 -0.5435 -0.3254
  716MOL0     H96649   0.727   3.969   3.751 -0.0843 -0.4901  0.6671
  716MOL0     H96650   0.496   3.911   3.824 -2.2780  2.6689  0.1697
  716MOL0     H96651   0.524   4.077   3.794  0.3541  0.9601 -0.0251
  716MOL0     H96652   0.588   4.085   4.070  0.4678 -0.3693  0.2489
  716MOL0     H96653   0.487   3.937   4.064  0.8189  1.0825  3.4267
  716MOL0     H96654   0.412   4.223   3.985 -2.1359  0.5373  0.6321
  716MOL0     H96655   0.315   4.075   3.929  1.3752 -0.0849 -1.1505
  716MOL0     H96656   0.197   4.158   4.326 -0.1447 -2.0894 -0.6478
  716MOL0     H96657   0.940   4.229   3.980  1.3824  1.4544 -0.6207
  716MOL0     H96658   1.270   4.323   3.838 -0.6350 -1.1219 -0.6896
  716MOL0     H96659   1.105   4.387   3.865 -1.8362 -2.2612 -1.2740
  716MOL0     H96660   1.212   4.338   4.004 -0.3909  0.0369  1.1411
  717MOL0     O96661   9.354   6.413   4.659  0.3345 -0.0373  0.7138
  717MOL0     C96662   9.376   6.469   4.763  0.9554  1.2813 -0.4305
  717MOL0     O96663   9.435   6.406   4.871 -0.7416  0.3627  0.1946
  717MOL0     C96664   9.525   6.303   4.844  0.1531  0.1479 -1.1780
  717MOL0     C96665   9.533   6.189   4.927  0.2970  0.9651  0.6251
  717MOL0     C96666   9.638   6.093   4.916  0.4914  0.5380 -0.1019
  717MOL0     C96667   9.732   6.112   4.809  0.1219  0.2948 -1.2360
  717MOL0     O96668   9.836   6.024   4.793  0.2153 -0.5063  0.1231
  717MOL0     C96669   9.803   5.878   4.796  0.6073  0.1004 -0.5909
  717MOL0     C96670   9.913   5.782   4.749  0.6440  0.7983 -0.0536
  717MOL0     C96671  10.053   5.808   4.822  0.5998  1.0111  0.5100
  717MOL0     C96672  10.052   5.717   4.958 -0.2078  0.3121  0.3095
  717MOL0     C96673  10.168   5.727   5.046 -1.3648 -0.0603 -0.5856
  717MOL0     C96674  10.301   5.685   4.980  0.2648  0.3936  0.5831
  717MOL0     C96675  10.414   5.701   5.097  0.4080  0.0258 -0.0908
  717MOL0     C96676  10.557   5.673   5.045 -0.8700 -0.6134 -0.3033
  717MOL0     N96677  10.577   5.534   5.006  0.3832 -0.4688  0.4862
  717MOL0     C96678  10.638   5.443   5.088  0.4652 -0.0783  0.4305
  717MOL0     C96679  10.651   5.331   5.023 -0.7326 -0.3006 -0.0113
  717MOL0     C96680  10.717   5.203   5.061 -0.2493 -0.2566  0.3150
  717MOL0     C96681  10.863   5.222   5.101 -0.0659  0.4054 -0.6265
  717MOL0     C96682  10.940   5.095   5.155 -0.6940  0.1165 -0.3059
  717MOL0     C96683  11.083   5.120   5.198 -0.0590 -0.7591 -1.0186
  717MOL0     O96684  11.166   5.177   5.099 -0.2091 -0.9125  0.7620
  717MOL0     C96685  11.232   5.293   5.130 -0.6029 -0.1544 -0.0645
  717MOL0     C96686  11.171   5.419   5.140 -0.7571 -0.1361 -0.2390
  717MOL0     C96687  11.237   5.532   5.194  0.4660 -0.2343  0.5073
  717MOL0     C96688  11.372   5.523   5.242 -0.1263  0.0938 -0.0943
  717MOL0     C96689  11.445   5.640   5.297  0.1917 -0.2060 -1.1650
  717MOL0     O96690  11.398   5.763   5.262  0.2393  0.7113 -0.0205
  717MOL0     C96691  11.479   5.874   5.276 -0.4884 -0.2064  0.9368
  717MOL0     C96692  11.420   5.996   5.321 -0.7369 -0.8351 -0.2229
  717MOL0     C96693  11.511   6.110   5.324  0.0180  0.6005  1.1025
  717MOL0     C96694  11.648   6.099   5.295 -0.2752  0.1429  1.0417
  717MOL0     O96695  11.728   6.214   5.301 -0.3607 -0.2848  0.4560
  717MOL0     C96696  11.845   6.227   5.213 -0.5425 -1.0015  0.4241
  717MOL0     C96697  11.888   6.372   5.193  0.0846  0.2753  0.5062
  717MOL0     C96698  12.006   6.381   5.083 -0.1128 -0.8297 -0.5644
  717MOL0     C96699  12.139   6.322   5.131  0.3882  0.6320  0.0243
  717MOL0     C96700  12.256   6.368   5.038  0.6409 -0.3794 -0.6340
  717MOL0     C96701  12.388   6.309   5.089  1.2681  0.9866  0.6375
  717MOL0     C96702  12.404   6.156   5.044  0.5721  0.1437  0.4547
  717MOL0     C96703  12.535   6.095   5.093  0.5133 -0.7508  0.1167
  717MOL0    Cl96704  12.547   6.092   5.276  0.6181  0.5715 -0.3311
  717MOL0     C96705  11.700   5.975   5.257 -0.0370  0.1676  0.0447
  717MOL0     C96706  11.616   5.859   5.234  0.0258 -0.1428  0.0496
  717MOL0     O96707  11.544   5.616   5.361 -0.0618 -0.3924  0.9866
  717MOL0     C96708  11.430   5.392   5.220 -0.4045  0.7826  0.7390
  717MOL0     C96709  11.359   5.278   5.176  0.1852 -0.8874 -0.1034
  717MOL0     N96710  10.603   5.352   4.887 -0.9458  0.1404 -0.2008
  717MOL0     N96711  10.553   5.478   4.886 -0.6152  0.0183 -0.0463
  717MOL0     C96712   9.732   6.227   4.738 -0.0156  0.0236 -0.4725
  717MOL0     C96713   9.619   6.316   4.743  0.0874 -1.0510 -0.4094
  717MOL0     C96714   9.324   6.599   4.771  1.2248 -0.1753 -0.5310
  717MOL0     C96715   9.372   6.703   4.691 -0.2148  0.2116 -0.0577
  717MOL0     C96716   9.318   6.835   4.703  0.7510  0.2796  1.0083
  717MOL0     C96717   9.226   6.863   4.802 -0.4371 -0.0904  0.9756
  717MOL0     O96718   9.165   6.981   4.800 -0.3507 -0.7653  0.7174
  717MOL0     C96719   9.020   6.980   4.788 -0.4928 -0.0339 -0.1334
  717MOL0     C96720   8.962   7.112   4.840  0.0024 -0.0763  0.0683
  717MOL0     C96721   9.028   7.239   4.786  0.0412 -0.3024 -0.3695
  717MOL0     C96722   8.952   7.361   4.833  1.0549 -0.4566 -0.8137
  717MOL0     C96723   9.021   7.494   4.820  0.9933  0.4562 -0.3977
  717MOL0     C96724   9.061   7.602   4.804  0.6149 -0.3517  0.1907
  717MOL0     C96725   9.200   6.764   4.896  0.0470 -0.0672  0.0559
  717MOL0     C96726   9.243   6.630   4.886 -1.4146 -0.2864 -1.8723
  717MOL0     C96727   9.182   6.527   4.981 -0.2964  0.2197 -0.1073
  717MOL0     H96728   9.476   6.199   5.019 -0.8633 -0.6253  0.1052
  717MOL0     H96729   9.645   6.015   4.992 -5.2560  1.4029  1.7906
  717MOL0     H96730   9.781   5.863   4.902  5.0690  4.3231  1.3617
  717MOL0     H96731   9.718   5.854   4.732 -0.0737  2.0240 -0.4593
  717MOL0     H96732   9.934   5.808   4.645  0.5688 -0.3326 -0.3645
  717MOL0     H96733   9.884   5.677   4.747  0.1786  0.9079 -2.6463
  717MOL0     H96734  10.065   5.913   4.849 -2.9861  2.2685 -2.0789
  717MOL0     H96735  10.141   5.781   4.762  1.5156  1.6306  1.5336
  717MOL0     H96736   9.972   5.764   5.015 -1.2525  1.0424 -1.6698
  717MOL0     H96737  10.029   5.611   4.942  0.8056  0.0829  0.3388
  717MOL0     H96738  10.171   5.828   5.087 -0.2551 -0.9691  1.7829
  717MOL0     H96739  10.148   5.666   5.135 -0.2722  1.2161  0.5944
  717MOL0     H96740  10.283   5.582   4.948  0.2541  0.5469  0.0777
  717MOL0     H96741  10.336   5.736   4.889  1.4546 -0.2344  0.6698
  717MOL0     H96742  10.393   5.631   5.179  0.0142  2.7180  2.2783
  717MOL0     H96743  10.407   5.800   5.143 -1.2903 -0.8236  1.5849
  717MOL0     H96744  10.582   5.743   4.965 -2.8623 -0.3796 -0.7628
  717MOL0     H96745  10.617   5.699   5.132 -2.3582  0.5364  0.4158
  717MOL0     H96746  10.675   5.450   5.189  0.5028  0.2281  0.3950
  717MOL0     H96747  10.661   5.143   5.133 -1.0890 -2.0149 -1.7260
  717MOL0     H96748  10.718   5.142   4.971  2.2726 -0.7745  0.6094
  717MOL0     H96749  10.916   5.260   5.013 -0.3954  1.6554 -0.3007
  717MOL0     H96750  10.867   5.306   5.171 -2.0922  1.4803 -1.7115
  717MOL0     H96751  10.941   5.008   5.089  0.7513 -0.0348 -0.1008
  717MOL0     H96752  10.882   5.069   5.244  0.7825 -0.6560  0.4641
  717MOL0     H96753  11.130   5.029   5.238 -0.9444 -0.4065  0.8851
  717MOL0     H96754  11.070   5.187   5.283  0.3003 -1.8382 -0.0931
  717MOL0     H96755  11.069   5.449   5.117 -0.0012  1.7043 -1.3656
  717MOL0     H96756  11.194   5.631   5.204  0.9130  0.1229 -0.9287
  717MOL0     H96757  11.316   6.011   5.346 -0.4449 -1.3838  1.4884
  717MOL0     H96758  11.476   6.211   5.346  2.1065  1.2601  1.5976
  717MOL0     H96759  11.927   6.177   5.264  0.6761 -2.3114 -2.5513
  717MOL0     H96760  11.829   6.181   5.115 -0.7459 -0.1858  0.0697
  717MOL0     H96761  11.802   6.431   5.158 -0.0212 -0.2629 -0.1696
  717MOL0     H96762  11.925   6.411   5.288 -1.2035  0.9028  0.7810
  717MOL0     H96763  11.974   6.333   4.990 -0.7799 -0.1105 -0.7093
  717MOL0     H96764  12.021   6.488   5.072 -0.3070 -0.5201  1.6742
  717MOL0     H96765  12.124   6.214   5.123 -0.8687  0.5921  2.0829
  717MOL0     H96766  12.159   6.352   5.234  2.2093 -0.0738 -0.0928
  717MOL0     H96767  12.263   6.477   5.043  1.4927 -0.4563  0.5513
  717MOL0     H96768  12.232   6.327   4.940  0.1205 -2.8893  0.4581
  717MOL0     H96769  12.471   6.358   5.036  0.6409 -1.8821 -3.4714
  717MOL0     H96770  12.409   6.315   5.196  3.1113 -1.1333  0.4800
  717MOL0     H96771  12.405   6.154   4.935  3.0176 -0.1475  0.4144
  717MOL0     H96772  12.322   6.092   5.077 -0.8776  1.6598 -0.0992
  717MOL0     H96773  12.543   5.993   5.053 -0.6717 -0.0397 -2.1647
  717MOL0     H96774  12.610   6.151   5.037 -1.0616 -1.2302 -2.6889
  717MOL0     H96775  11.808   5.969   5.243 -0.3798 -0.0115 -3.3988
  717MOL0     H96776  11.661   5.767   5.199 -1.5583 -1.6587  1.7639
  717MOL0     H96777  11.533   5.387   5.254 -0.2446  3.2027  0.8225
  717MOL0     H96778  11.422   5.191   5.159 -2.0305 -3.2010  2.5276
  717MOL0     H96779   9.813   6.234   4.667  1.3948  1.3574  1.1754
  717MOL0     H96780   9.634   6.406   4.684 -0.2634 -2.9099 -3.5505
  717MOL0     H96781   9.440   6.684   4.609  0.6316 -3.6859  1.3627
  717MOL0     H96782   9.334   6.908   4.624  0.6470 -1.2096 -0.4624
  717MOL0     H96783   8.973   6.889   4.827 -2.5572 -0.2597 -2.8196
  717MOL0     H96784   9.005   6.977   4.680 -0.8667  1.5084 -0.1403
  717MOL0     H96785   8.970   7.110   4.949 -2.2054 -0.4043  0.2682
  717MOL0     H96786   8.854   7.109   4.820 -0.1236 -1.2434  0.8522
  717MOL0     H96787   9.032   7.231   4.677 -0.5787  1.0978 -0.5207
  717MOL0     H96788   9.131   7.245   4.825  0.8746 -1.0977 -2.3093
  717MOL0     H96789   8.853   7.361   4.784  0.6561  3.0370 -0.2718
  717MOL0     H96790   8.934   7.343   4.939 -0.7021 -0.2431 -1.0389
  717MOL0     H96791   9.095   7.701   4.784 -1.9241  0.7427  0.8687
  717MOL0     H96792   9.141   6.775   4.986  0.6324 -1.7253  0.6728
  717MOL0     H96793   9.178   6.555   5.087 -2.6484 -1.3298  0.3070
  717MOL0     H96794   9.074   6.537   4.962 -0.0817  4.3048  0.0755
  717MOL0     H96795   9.222   6.425   4.974 -0.6481  0.0828 -0.1782
  718MOL0     O96796   4.346   9.404   0.567  0.0234  0.2602  0.0617
  718MOL0     C96797   4.340   9.336   0.462 -1.0827 -0.8476 -0.8459
  718MOL0     O96798   4.365   9.201   0.448  0.1206  0.4588 -0.1839
  718MOL0     C96799   4.404   9.128   0.556  0.8701 -0.4459  0.0750
  718MOL0     C96800   4.532   9.075   0.581 -0.2043  0.4044  0.6253
  718MOL0     C96801   4.564   8.999   0.700  0.2491 -0.4271  0.1666
  718MOL0     C96802   4.456   8.967   0.788  0.7671  0.0206 -0.1298
  718MOL0     O96803   4.485   8.901   0.905 -0.1985 -0.2128 -0.3210
  718MOL0     C96804   4.567   8.788   0.904  0.3270 -0.7818 -0.3338
  718MOL0     C96805   4.528   8.709   1.015  0.7100  0.2596  0.3715
  718MOL0     C96806   4.592   8.568   1.040 -0.1823  0.3360  0.2332
  718MOL0     C96807   4.502   8.481   1.144  0.3066 -0.7516 -0.4776
  718MOL0     C96808   4.581   8.372   1.218 -0.4126  0.0647 -0.0738
  718MOL0     C96809   4.677   8.442   1.314  0.3184  0.4287  0.1387
  718MOL0     C96810   4.783   8.354   1.381  0.8864  0.4199  0.7556
  718MOL0     C96811   4.879   8.268   1.291 -0.4681  0.9704  0.3971
  718MOL0     N96812   4.953   8.367   1.205  0.1964  0.9929 -0.1822
  718MOL0     C96813   5.062   8.436   1.247  0.7862  0.3721 -0.5960
  718MOL0     C96814   5.089   8.526   1.152  0.4433 -0.3440 -0.1678
  718MOL0     C96815   5.182   8.643   1.168  0.3730 -1.6192  0.7602
  718MOL0     C96816   5.302   8.633   1.067 -0.3014 -0.9860 -1.0701
  718MOL0     C96817   5.379   8.772   1.067  0.6542  0.8465 -0.0481
  718MOL0     C96818   5.459   8.793   0.940 -0.1259  0.3356 -0.2490
  718MOL0     O96819   5.540   8.678   0.930  0.0167 -0.5661  0.3463
  718MOL0     C96820   5.661   8.700   0.872 -0.0316 -1.0756  0.0149
  718MOL0     C96821   5.693   8.796   0.772 -0.4943 -0.0806 -0.7027
  718MOL0     C96822   5.830   8.803   0.725 -0.9219  0.3225 -0.0840
  718MOL0     C96823   5.928   8.720   0.776  1.2674  0.0848 -0.5456
  718MOL0     C96824   6.067   8.734   0.740  0.2604  0.1949 -0.0644
  718MOL0     O96825   6.097   8.794   0.618 -0.5961  0.5219  0.2663
  718MOL0     C96826   6.231   8.809   0.579  0.0916  0.0394 -0.8190
  718MOL0     C96827   6.349   8.801   0.656  0.4435 -0.2449  0.1431
  718MOL0     C96828   6.472   8.818   0.600  0.4172  0.1508  0.7931
  718MOL0     C96829   6.486   8.847   0.459  1.0565  0.0827 -0.5029
  718MOL0     O96830   6.603   8.857   0.388 -0.4384 -0.3644  0.3024
  718MOL0     C96831   6.727   8.855   0.463 -1.1834  0.0405  0.0777
  718MOL0     C96832   6.841   8.866   0.347  0.6437 -1.1410  0.0495
  718MOL0     C96833   6.978   8.850   0.402 -0.0640  1.0709  0.2566
  718MOL0     C96834   7.039   8.974   0.472  0.3145  0.2085  0.2698
  718MOL0     C96835   7.164   8.937   0.547 -0.2334  0.9545 -0.0525
  718MOL0     C96836   7.108   8.893   0.678  0.5809  0.6487  0.1688
  718MOL0     C96837   7.232   8.840   0.752 -0.6462  0.1391  0.1506
  718MOL0     C96838   7.198   8.771   0.879 -0.3640  0.2394 -0.5345
  718MOL0    Cl96839   7.302   8.813   1.017  0.2308 -0.0673 -0.5271
  718MOL0     C96840   6.368   8.863   0.382  0.3989 -0.0848  0.8063
  718MOL0     C96841   6.243   8.851   0.442  0.2191  0.2098  0.4046
  718MOL0     O96842   6.144   8.682   0.824 -0.3235  0.6161 -0.1932
  718MOL0     C96843   5.888   8.619   0.863 -0.2572  0.1559  0.7690
  718MOL0     C96844   5.759   8.610   0.910 -0.0093 -0.3343 -0.1315
  718MOL0     N96845   5.009   8.511   1.047  0.0234  0.2089  0.2002
  718MOL0     N96846   4.925   8.414   1.082  0.7954 -0.1038  0.7141
  718MOL0     C96847   4.323   9.018   0.769 -0.8722 -0.2375  1.1760
  718MOL0     C96848   4.299   9.086   0.644  0.1479 -0.7074 -0.1626
  718MOL0     C96849   4.310   9.409   0.346  0.7885 -0.1253 -0.2249
  718MOL0     C96850   4.360   9.363   0.226 -0.4049  0.3016 -0.3565
  718MOL0     C96851   4.339   9.427   0.100  0.2415  0.4537  0.9008
  718MOL0     C96852   4.265   9.542   0.092  0.6231  0.4085  0.1543
  718MOL0     O96853   4.245   9.610  -0.028  0.3441 -0.0246 -0.2581
  718MOL0     C96854   4.201   9.540  -0.139  0.5000 -0.1120 -0.1754
  718MOL0     C96855   4.058   9.570  -0.179 -0.2818  0.5406 -0.1261
  718MOL0     C96856   4.040   9.722  -0.206 -0.6200 -0.1885  0.1267
  718MOL0     C96857   4.078   9.763  -0.347  0.0853 -0.5137  0.2736
  718MOL0     C96858   4.115   9.906  -0.348 -0.6803 -0.3222  0.5674
  718MOL0     C96859   4.141  10.028  -0.357  0.1289  0.6631 -0.3087
  718MOL0     C96860   4.210   9.594   0.205  0.6508 -0.8656  0.3255
  718MOL0     C96861   4.232   9.531   0.336 -0.1938  0.7707  0.1262
  718MOL0     C96862   4.157   9.599   0.442 -0.3987 -0.1666 -0.0606
  718MOL0     H96863   4.609   9.079   0.505 -0.9286  0.0063 -0.1447
  718MOL0     H96864   4.663   8.966   0.728 -0.2080  0.4822  3.2290
  718MOL0     H96865   4.542   8.734   0.813 -1.7109 -0.0006 -0.2863
  718MOL0     H96866   4.671   8.820   0.912  0.4097 -0.3380 -2.5344
  718MOL0     H96867   4.428   8.676   0.984  1.8784 -4.5030  0.9624
  718MOL0     H96868   4.538   8.770   1.105  0.4195 -0.3454  0.8203
  718MOL0     H96869   4.694   8.593   1.072  1.2466  0.5784 -3.9181
  718MOL0     H96870   4.601   8.515   0.945  2.0712 -1.8851  1.5684
  718MOL0     H96871   4.460   8.553   1.215  1.0549 -1.2300  0.4922
  718MOL0     H96872   4.431   8.423   1.086 -1.3160  0.6932 -0.0107
  718MOL0     H96873   4.512   8.306   1.271 -0.2571 -0.3151 -0.3368
  718MOL0     H96874   4.634   8.317   1.140 -1.3936 -1.5354  0.3463
  718MOL0     H96875   4.739   8.508   1.251  1.6178 -0.9840 -0.1331
  718MOL0     H96876   4.623   8.506   1.384  2.2028  0.8188  1.3213
  718MOL0     H96877   4.739   8.284   1.453  0.6596 -2.1616 -1.7122
  718MOL0     H96878   4.840   8.432   1.432  2.6603  0.3798 -1.0543
  718MOL0     H96879   4.947   8.205   1.349 -0.0640  0.1300 -0.9379
  718MOL0     H96880   4.831   8.203   1.217  2.3627 -2.1542  1.0833
  718MOL0     H96881   5.102   8.435   1.348  0.9117 -0.7708 -0.6422
  718MOL0     H96882   5.117   8.728   1.147  1.0100 -0.5437  2.8960
  718MOL0     H96883   5.215   8.647   1.272 -1.1777 -1.7103  1.2705
  718MOL0     H96884   5.369   8.550   1.091 -1.0423 -1.9406 -2.1307
  718MOL0     H96885   5.256   8.613   0.969 -0.6021  0.0078 -1.1420
  718MOL0     H96886   5.446   8.781   1.154 -0.4803  1.0653  0.8327
  718MOL0     H96887   5.307   8.852   1.086  0.3277  0.4311  0.5105
  718MOL0     H96888   5.520   8.883   0.952  0.8058 -0.4913  1.5360
  718MOL0     H96889   5.389   8.806   0.857 -1.9181 -0.1482  1.1209
  718MOL0     H96890   5.618   8.869   0.745 -2.7515 -1.5218  1.2895
  718MOL0     H96891   5.861   8.900   0.687 -3.7159  0.8663 -1.2561
  718MOL0     H96892   6.360   8.795   0.763 -0.3354  1.3975  0.3546
  718MOL0     H96893   6.563   8.798   0.657  0.2323 -0.9567  0.7227
  718MOL0     H96894   6.739   8.938   0.534 -2.4791 -0.5284  1.0274
  718MOL0     H96895   6.745   8.765   0.523  0.8073 -0.3600 -1.0346
  718MOL0     H96896   6.830   8.777   0.284 -0.0293  1.5352 -3.9331
  718MOL0     H96897   6.842   8.962   0.295  1.3358 -1.7061 -1.0138
  718MOL0     H96898   6.983   8.755   0.457 -2.2926  0.9897  0.4429
  718MOL0     H96899   7.040   8.828   0.315 -0.8494  2.4206 -0.6695
  718MOL0     H96900   6.956   9.008   0.536 -1.6312 -3.1108 -0.2113
  718MOL0     H96901   7.066   9.047   0.396  0.2552  1.1813  1.1570
  718MOL0     H96902   7.237   9.017   0.561 -0.0510  0.6363  0.9068
  718MOL0     H96903   7.214   8.849   0.505 -1.9754  0.3981 -1.0647
  718MOL0     H96904   7.064   8.978   0.730  2.6911  0.6964  2.0833
  718MOL0     H96905   7.032   8.815   0.669  1.2924 -0.1241  0.6402
  718MOL0     H96906   7.295   8.928   0.766 -0.1926  0.7644 -4.3047
  718MOL0     H96907   7.292   8.777   0.686  1.8483  0.2152  2.2208
  718MOL0     H96908   7.099   8.797   0.916  0.0176  1.5151 -0.3328
  718MOL0     H96909   7.192   8.663   0.860 -0.9425  0.3085 -0.7457
  718MOL0     H96910   6.369   8.884   0.275 -1.5773 -3.3538  0.0218
  718MOL0     H96911   6.156   8.869   0.379  1.4530 -1.1889 -1.8492
  718MOL0     H96912   5.951   8.538   0.898  1.9813  1.0943 -0.8112
  718MOL0     H96913   5.744   8.536   0.988  1.2705 -1.6124 -1.0425
  718MOL0     H96914   4.233   9.002   0.829 -1.5824 -0.0657  0.1871
  718MOL0     H96915   4.199   9.119   0.621  0.6014 -0.1384 -1.4411
  718MOL0     H96916   4.410   9.267   0.215 -2.4333 -1.0974  1.6958
  718MOL0     H96917   4.384   9.382   0.012 -4.4315 -3.5536  0.1308
  718MOL0     H96918   4.212   9.433  -0.122 -0.4002 -0.0622  0.7752
  718MOL0     H96919   4.270   9.572  -0.218 -0.5248 -0.2513 -1.1650
  718MOL0     H96920   3.998   9.538  -0.093 -1.1489  0.4305 -0.7529
  718MOL0     H96921   4.037   9.505  -0.264 -0.3468 -0.7774  0.8534
  718MOL0     H96922   4.104   9.782  -0.140 -0.3466  0.6046 -0.8420
  718MOL0     H96923   3.935   9.743  -0.184 -1.0502 -1.6298 -0.4438
  718MOL0     H96924   4.166   9.701  -0.368  0.0668 -0.1479 -0.9575
  718MOL0     H96925   3.997   9.745  -0.418  1.0560  0.5954 -1.1982
  718MOL0     H96926   4.161  10.131  -0.378 -3.6085  1.5732 -0.0543
  718MOL0     H96927   4.144   9.679   0.193 -0.8226 -1.8801  0.8317
  718MOL0     H96928   4.065   9.638   0.398  0.0537 -0.4895 -1.3385
  718MOL0     H96929   4.133   9.528   0.521 -0.1497 -1.6476 -1.2821
  718MOL0     H96930   4.223   9.679   0.479  0.4119 -0.5600 -0.6179
  719MOL0     O96931   8.120  10.171   3.470  0.2159 -0.5888 -0.7124
  719MOL0     C96932   8.238  10.184   3.443  0.0060 -0.9885 -0.3422
  719MOL0     O96933   8.311  10.090   3.378  0.3843 -0.5253 -0.2872
  719MOL0     C96934   8.249   9.966   3.341  0.0723  0.1203  0.2700
  719MOL0     C96935   8.318   9.900   3.240  0.5596 -0.7668 -0.3828
  719MOL0     C96936   8.283   9.769   3.204 -0.5742  1.1850 -0.4575
  719MOL0     C96937   8.180   9.700   3.260  0.2621 -0.0382  0.4219
  719MOL0     O96938   8.147   9.574   3.193  0.0426 -0.7004 -0.1885
  719MOL0     C96939   8.030   9.506   3.245 -0.0190  0.3122  0.1462
  719MOL0     C96940   8.047   9.409   3.362 -0.1519 -0.6140 -0.5324
  719MOL0     C96941   8.186   9.331   3.353 -0.1010  0.4056  0.3229
  719MOL0     C96942   8.192   9.209   3.449  0.3939  0.0510  0.5467
  719MOL0     C96943   8.307   9.122   3.418 -0.0839 -0.3766  0.7561
  719MOL0     C96944   8.287   8.987   3.477 -0.4253 -0.2469 -0.4790
  719MOL0     C96945   8.409   8.881   3.475 -0.1940 -0.5204  0.0332
  719MOL0     C96946   8.551   8.955   3.508  1.7727  0.6409 -0.8383
  719MOL0     N96947   8.644   8.848   3.560  0.4696  0.5937 -0.2953
  719MOL0     C96948   8.734   8.775   3.490 -0.2653  0.6414  0.7155
  719MOL0     C96949   8.832   8.721   3.570 -0.4911 -0.4172 -0.3818
  719MOL0     C96950   8.950   8.639   3.535 -0.2229  0.3152 -0.3237
  719MOL0     C96951   8.987   8.552   3.659 -0.4831 -0.6652  0.1232
  719MOL0     C96952   9.084   8.439   3.616 -0.7158  0.1252  0.2861
  719MOL0     C96953   9.190   8.414   3.720  0.8632  0.2740 -0.3772
  719MOL0     O96954   9.257   8.303   3.679 -0.3666 -0.4799  0.2207
  719MOL0     C96955   9.385   8.272   3.708 -0.3348  0.6694 -0.2443
  719MOL0     C96956   9.463   8.341   3.794  0.3999  0.8352  0.2274
  719MOL0     C96957   9.584   8.280   3.839 -0.6821  0.0093 -0.2946
  719MOL0     C96958   9.618   8.145   3.800 -0.3551  0.3555  0.1176
  719MOL0     C96959   9.738   8.073   3.846  0.5468  0.9325  0.1641
  719MOL0     O96960   9.817   8.131   3.939  0.0280 -0.0860 -0.2257
  719MOL0     C96961   9.920   8.064   3.989 -1.0106  0.5794 -0.6463
  719MOL0     C96962   9.925   8.013   4.124 -0.4340 -0.3378 -0.0009
  719MOL0     C96963  10.033   7.933   4.178 -0.3030 -0.2038  0.2801
  719MOL0     C96964  10.146   7.919   4.096  0.2481 -0.4846  1.0581
  719MOL0     O96965  10.262   7.862   4.146  0.8555 -0.2917 -0.0428
  719MOL0     C96966  10.315   7.765   4.056 -0.4359  0.6937 -1.0201
  719MOL0     C96967  10.460   7.815   4.011  0.8966  0.6915 -0.1194
  719MOL0     C96968  10.567   7.838   4.125  0.8783 -0.5033  0.3946
  719MOL0     C96969  10.564   7.743   4.242  0.6946 -0.2703 -1.1105
  719MOL0     C96970  10.688   7.751   4.335  0.5127  0.5636 -0.5654
  719MOL0     C96971  10.679   7.873   4.432 -0.1937  0.3653 -0.2411
  719MOL0     C96972  10.731   8.014   4.382 -0.0074  0.2131 -0.5710
  719MOL0     C96973  10.880   8.034   4.352  0.0760 -0.0044 -0.9102
  719MOL0    Cl96974  10.919   8.209   4.320 -0.1892 -0.1104  0.0684
  719MOL0     C96975  10.146   7.978   3.971  0.7142 -0.8117 -0.2673
  719MOL0     C96976  10.031   8.039   3.910 -0.3445 -0.3611  1.1819
  719MOL0     O96977   9.752   7.961   3.794  0.2200  0.1341  0.1521
  719MOL0     C96978   9.532   8.069   3.717  0.1386  0.6859  0.2860
  719MOL0     C96979   9.415   8.138   3.668  0.5746  0.7979  1.0820
  719MOL0     N96980   8.798   8.761   3.703 -0.0791  1.0594 -0.2798
  719MOL0     N96981   8.680   8.824   3.690 -1.2442 -0.0132  0.0538
  719MOL0     C96982   8.112   9.762   3.367 -0.0696  0.3834 -0.7174
  719MOL0     C96983   8.152   9.891   3.415  0.0881 -1.2289  0.6579
  719MOL0     C96984   8.316  10.305   3.478  0.0643  0.0254  0.9404
  719MOL0     C96985   8.441  10.314   3.420  0.4395 -0.0996  0.5379
  719MOL0     C96986   8.523  10.422   3.456 -0.5841  0.2186  0.1500
  719MOL0     C96987   8.488  10.525   3.543  0.2438 -0.8927 -1.4001
  719MOL0     O96988   8.574  10.620   3.586  0.2092  0.1159  0.5170
  719MOL0     C96989   8.567  10.735   3.503  0.3156  0.8883  0.2463
  719MOL0     C96990   8.693  10.762   3.418 -1.0153 -0.5565 -0.1755
  719MOL0     C96991   8.829  10.742   3.505  0.6061  0.4165  1.0858
  719MOL0     C96992   8.861  10.857   3.594  0.7381  0.2703  0.8177
  719MOL0     C96993   8.895  10.984   3.522  0.6162  0.3067 -0.9149
  719MOL0     C96994   8.931  11.079   3.462  0.0075  0.6231 -0.1681
  719MOL0     C96995   8.356  10.530   3.581 -0.6805  1.1193  0.4510
  719MOL0     C96996   8.273  10.419   3.545 -0.6900 -1.0169  0.5364
  719MOL0     C96997   8.138  10.433   3.609  0.4792 -0.0321 -0.2020
  719MOL0     H96998   8.400   9.951   3.190  1.1726 -2.5953 -1.3308
  719MOL0     H96999   8.332   9.718   3.122  0.4392 -0.2541  0.9767
  719MOL0     H97000   7.949   9.571   3.278  0.4735  0.4865  1.0560
  719MOL0     H97001   7.987   9.440   3.169 -0.6041 -0.3570  1.0257
  719MOL0     H97002   7.958   9.347   3.374 -1.8848  2.0153  1.4330
  719MOL0     H97003   8.036   9.472   3.451 -1.2580 -1.9670  0.3295
  719MOL0     H97004   8.268   9.401   3.369  0.8341 -0.5957  0.0205
  719MOL0     H97005   8.198   9.300   3.249 -1.3766  1.9401 -0.3080
  719MOL0     H97006   8.199   9.238   3.554 -3.0568 -0.9348  1.1725
  719MOL0     H97007   8.097   9.156   3.436 -1.0875  2.0101  2.6084
  719MOL0     H97008   8.312   9.106   3.310  0.8701  0.4474  0.6592
  719MOL0     H97009   8.400   9.175   3.442 -0.0939  0.2816 -0.5449
  719MOL0     H97010   8.262   9.006   3.582 -1.9361 -1.4142 -0.6090
  719MOL0     H97011   8.202   8.938   3.430  0.5227 -3.5782  1.0198
  719MOL0     H97012   8.415   8.837   3.375 -1.6139 -1.2561  0.2518
  719MOL0     H97013   8.393   8.815   3.561  0.7781 -0.6838  0.1023
  719MOL0     H97014   8.580   9.014   3.421 -1.9140  1.7753 -1.4722
  719MOL0     H97015   8.543   9.019   3.596  2.2664  1.7758 -1.6054
  719MOL0     H97016   8.726   8.751   3.384 -1.6356 -2.3449  1.3774
  719MOL0     H97017   8.925   8.562   3.462  1.0378 -4.7295  3.9799
  719MOL0     H97018   9.023   8.716   3.512 -3.2563  3.9775  1.1184
  719MOL0     H97019   9.033   8.617   3.734 -1.2998 -0.9754  0.9099
  719MOL0     H97020   8.891   8.511   3.692 -0.5890 -1.0291 -0.6260
  719MOL0     H97021   9.143   8.468   3.528 -2.0968  1.1376 -0.3321
  719MOL0     H97022   9.028   8.346   3.605 -2.3257  1.1185 -0.1182
  719MOL0     H97023   9.146   8.391   3.818 -0.2941 -3.2221 -1.5758
  719MOL0     H97024   9.251   8.505   3.723  0.5786  0.6278 -2.8694
  719MOL0     H97025   9.426   8.434   3.836 -1.1320 -0.0651  0.9729
  719MOL0     H97026   9.649   8.332   3.908  0.3995 -2.0383  0.3069
  719MOL0     H97027   9.834   8.014   4.183  0.9861  1.3050  2.3079
  719MOL0     H97028  10.035   7.883   4.274 -1.1939 -3.2939 -1.1939
  719MOL0     H97029  10.331   7.677   4.120  0.3542 -0.8611 -3.2502
  719MOL0     H97030  10.253   7.725   3.976  0.6792 -2.9047 -0.2739
  719MOL0     H97031  10.483   7.733   3.942 -0.2252  0.8631 -0.7198
  719MOL0     H97032  10.449   7.907   3.952  0.2809  0.8642  0.2520
  719MOL0     H97033  10.661   7.818   4.073  0.4167 -1.6245 -0.0286
  719MOL0     H97034  10.561   7.941   4.161  0.2183  0.2064 -1.5959
  719MOL0     H97035  10.553   7.641   4.205 -1.2667  0.0167 -1.4417
  719MOL0     H97036  10.472   7.758   4.300  0.3809  1.0208 -1.8863
  719MOL0     H97037  10.783   7.760   4.281  1.5714  0.1763  1.1576
  719MOL0     H97038  10.689   7.664   4.401 -0.6137  0.8143 -0.2051
  719MOL0     H97039  10.575   7.886   4.465  0.3778 -0.3465  2.0067
  719MOL0     H97040  10.726   7.846   4.527 -1.0930  2.0102  0.7253
  719MOL0     H97041  10.717   8.089   4.461  2.6782  0.1848  0.0148
  719MOL0     H97042  10.657   8.057   4.314  0.3422  2.7450  0.5222
  719MOL0     H97043  10.929   7.981   4.434 -0.7383  1.1794  0.3799
  719MOL0     H97044  10.911   7.972   4.267  1.8292  0.2720 -0.5253
  719MOL0     H97045  10.236   7.964   3.911  2.1413  0.7397  1.4071
  719MOL0     H97046  10.036   8.057   3.803  1.2758 -2.1386  0.8955
  719MOL0     H97047   9.553   7.965   3.694 -4.4807 -0.3036 -0.4063
  719MOL0     H97048   9.350   8.081   3.602  2.3624  1.7630 -1.7117
  719MOL0     H97049   8.028   9.711   3.413  0.8136 -0.8945 -0.4525
  719MOL0     H97050   8.109   9.930   3.507  4.1920  0.9001  1.9072
  719MOL0     H97051   8.477  10.228   3.364 -2.8372 -1.0031 -0.3678
  719MOL0     H97052   8.625  10.403   3.423 -0.4059 -0.8726  1.2677
  719MOL0     H97053   8.550  10.827   3.560  3.7305  0.5976  1.9612
  719MOL0     H97054   8.479  10.725   3.439 -0.3514  0.1890  1.2491
  719MOL0     H97055   8.696  10.860   3.369  0.7615  0.6154  2.0667
  719MOL0     H97056   8.704  10.691   3.335  2.1069 -0.3469 -0.0703
  719MOL0     H97057   8.914  10.705   3.446  0.8234  1.8200  0.4711
  719MOL0     H97058   8.814  10.656   3.571  1.1707  1.8324  3.1272
  719MOL0     H97059   8.780  10.881   3.663  0.8924  0.8646  0.7978
  719MOL0     H97060   8.942  10.827   3.661 -0.3611 -1.2165  1.5395
  719MOL0     H97061   8.975  11.166   3.417  0.4458  0.1967 -0.5764
  719MOL0     H97062   8.322  10.618   3.636  0.8213  1.5691  0.7047
  719MOL0     H97063   8.104  10.344   3.662 -0.8467  2.1213  2.8875
  719MOL0     H97064   8.128  10.507   3.689 -1.8583 -0.8051  0.2975
  719MOL0     H97065   8.056  10.452   3.538  0.2664  2.3643  0.6010
  720MOL0     O97066   8.536   2.401   1.864 -0.1063 -0.3820  0.7958
  720MOL0     C97067   8.509   2.290   1.823  0.2493 -0.4147  0.2543
  720MOL0     O97068   8.594   2.184   1.829  0.3424  0.3441  0.0996
  720MOL0     C97069   8.710   2.177   1.898 -0.7694  0.5153  0.4581
  720MOL0     C97070   8.809   2.077   1.860 -0.2561 -0.4939 -0.7210
  720MOL0     C97071   8.943   2.079   1.900 -0.2339  0.2380 -1.0491
  720MOL0     C97072   8.975   2.174   2.001 -0.3089 -0.2754  0.5242
  720MOL0     O97073   9.109   2.181   2.042  0.0765 -0.3417  0.7471
  720MOL0     C97074   9.215   2.130   1.957  0.2644  0.1146 -0.4464
  720MOL0     C97075   9.345   2.166   2.022 -0.5991  0.2110  0.2785
  720MOL0     C97076   9.384   2.322   2.001 -0.1210  0.5829 -0.0934
  720MOL0     C97077   9.450   2.380   2.133  0.5349  0.2717  0.2319
  720MOL0     C97078   9.573   2.309   2.193 -0.5056  0.4383  0.2928
  720MOL0     C97079   9.676   2.403   2.261  0.0198  0.0916  0.3659
  720MOL0     C97080   9.784   2.331   2.345  0.2095 -0.3351 -1.4572
  720MOL0     C97081   9.864   2.429   2.431  0.3190  0.1681 -0.7353
  720MOL0     N97082   9.781   2.513   2.524  0.9599  0.0015 -0.5549
  720MOL0     C97083   9.733   2.456   2.639 -0.2825 -0.4052  0.5921
  720MOL0     C97084   9.652   2.552   2.692 -0.3625  0.2456 -0.4504
  720MOL0     C97085   9.572   2.530   2.813 -0.4172 -0.9775 -0.1716
  720MOL0     C97086   9.463   2.429   2.774 -0.5499  0.9010  0.0863
  720MOL0     C97087   9.373   2.409   2.893  1.2726 -0.0112  0.7391
  720MOL0     C97088   9.263   2.512   2.901  0.0585 -0.2093 -0.4744
  720MOL0     O97089   9.178   2.458   2.997  0.4627 -0.4598 -0.2681
  720MOL0     C97090   9.044   2.460   2.969  0.4945 -1.8207  0.4149
  720MOL0     C97091   8.987   2.349   2.914  0.6658 -0.0341  0.9378
  720MOL0     C97092   8.850   2.341   2.897  0.4320  0.7500 -1.4425
  720MOL0     C97093   8.764   2.450   2.927  0.0357  0.2232  0.5366
  720MOL0     C97094   8.617   2.435   2.915 -0.0260 -0.0228 -0.7727
  720MOL0     O97095   8.573   2.310   2.877 -0.2477  0.0835  0.2153
  720MOL0     C97096   8.451   2.307   2.817  0.0049  0.3046 -0.6507
  720MOL0     C97097   8.339   2.255   2.882 -0.9956  0.3738 -1.2605
  720MOL0     C97098   8.221   2.250   2.802  1.2095 -0.0183  0.5461
  720MOL0     C97099   8.198   2.295   2.674 -1.2131  0.0458  0.7722
  720MOL0     O97100   8.071   2.279   2.620  0.5158 -0.2083 -0.4659
  720MOL0     C97101   8.065   2.363   2.500 -0.0591  0.4335  0.2608
  720MOL0     C97102   7.921   2.406   2.484 -0.6560  0.7978 -0.4189
  720MOL0     C97103   7.891   2.511   2.381 -0.8470 -0.1820 -0.3223
  720MOL0     C97104   7.738   2.535   2.372 -0.1377 -0.0535 -0.3641
  720MOL0     C97105   7.695   2.633   2.271  0.8493 -0.0413  0.7032
  720MOL0     C97106   7.538   2.671   2.297  0.1675 -0.3363  0.3726
  720MOL0     C97107   7.497   2.801   2.223  0.0552  0.2077 -0.0207
  720MOL0     C97108   7.344   2.808   2.189  0.1445 -0.1741  0.2197
  720MOL0    Cl97109   7.345   2.958   2.086  0.3327  0.2531 -0.3480
  720MOL0     C97110   8.318   2.345   2.608  0.1430 -0.2286  0.3012
  720MOL0     C97111   8.436   2.363   2.687 -0.4018 -0.9207  0.7669
  720MOL0     O97112   8.546   2.535   2.933 -0.6532  0.4609 -0.1125
  720MOL0     C97113   8.830   2.571   2.968  0.3698  0.5284 -0.2934
  720MOL0     C97114   8.972   2.574   2.988  0.5469  0.5321  0.4319
  720MOL0     N97115   9.643   2.667   2.604  0.1272  0.2697  1.2875
  720MOL0     N97116   9.719   2.631   2.502  1.2216 -0.1288 -0.6811
  720MOL0     C97117   8.885   2.263   2.055  0.2570 -2.3415  0.5773
  720MOL0     C97118   8.753   2.267   1.994  0.0676 -0.0611 -0.5056
  720MOL0     C97119   8.380   2.269   1.762 -0.1942 -0.1184 -0.6664
  720MOL0     C97120   8.373   2.168   1.663 -0.3208  0.1773 -0.1841
  720MOL0     C97121   8.263   2.146   1.588  0.3672 -1.2432  0.4606
  720MOL0     C97122   8.153   2.233   1.607 -0.8521  1.1308  0.0178
  720MOL0     O97123   8.038   2.222   1.552 -0.0129  0.9885 -0.1093
  720MOL0     C97124   8.042   2.171   1.422 -0.2186 -0.6424  0.5327
  720MOL0     C97125   7.911   2.188   1.348 -0.0512 -0.0822 -0.0919
  720MOL0     C97126   7.806   2.098   1.426 -0.4109  0.5048  0.0450
  720MOL0     C97127   7.659   2.108   1.370 -0.2545  0.3417  0.8772
  720MOL0     C97128   7.614   2.237   1.415  0.2224 -0.0178 -0.8007
  720MOL0     C97129   7.579   2.347   1.433  0.7012  0.0557 -0.2055
  720MOL0     C97130   8.163   2.343   1.697  0.4282 -0.7102  0.8791
  720MOL0     C97131   8.271   2.365   1.766  0.7227  0.1147 -0.3052
  720MOL0     C97132   8.270   2.481   1.869 -0.2815  0.6104  0.3835
  720MOL0     H97133   8.774   1.996   1.797  0.1563 -0.0756 -1.4997
  720MOL0     H97134   9.008   2.001   1.863 -1.6734 -0.9657 -1.1400
  720MOL0     H97135   9.211   2.021   1.945 -0.5432  0.0714  0.1271
  720MOL0     H97136   9.215   2.186   1.864  2.5821  0.7256 -0.1423
  720MOL0     H97137   9.419   2.097   1.981  0.0627  0.5971  0.7902
  720MOL0     H97138   9.346   2.149   2.130  0.0041 -0.4856  0.1692
  720MOL0     H97139   9.291   2.374   1.981 -0.2350  0.2844 -0.3523
  720MOL0     H97140   9.449   2.336   1.914 -0.7053  1.1154 -0.4463
  720MOL0     H97141   9.483   2.478   2.099 -2.0439  0.4551 -2.1019
  720MOL0     H97142   9.375   2.409   2.208  0.8335  4.5561 -0.8886
  720MOL0     H97143   9.535   2.235   2.265  1.6440 -1.0532 -0.0163
  720MOL0     H97144   9.626   2.260   2.110 -1.6739  1.7045 -1.2654
  720MOL0     H97145   9.723   2.469   2.187 -2.4939  1.3204 -0.2352
  720MOL0     H97146   9.617   2.466   2.327 -3.0106  0.5377 -2.5287
  720MOL0     H97147   9.830   2.258   2.278 -1.9115  1.6742 -5.4971
  720MOL0     H97148   9.727   2.268   2.413  3.2226 -1.7108 -0.0048
  720MOL0     H97149   9.931   2.366   2.490 -1.4384 -0.5364  0.5835
  720MOL0     H97150   9.930   2.487   2.365  2.2245 -0.7300  0.3141
  720MOL0     H97151   9.766   2.358   2.674  4.6829  0.8226  0.0770
  720MOL0     H97152   9.640   2.511   2.895  0.7940  1.9720 -0.3888
  720MOL0     H97153   9.526   2.627   2.831 -1.7689 -1.3903 -1.1885
  720MOL0     H97154   9.403   2.452   2.685  0.6005 -0.0418 -0.9721
  720MOL0     H97155   9.511   2.334   2.747 -3.3115 -0.7684  0.6320
  720MOL0     H97156   9.430   2.406   2.986 -1.1178  0.7308  2.3497
  720MOL0     H97157   9.324   2.312   2.876  0.1006  0.2976  2.1321
  720MOL0     H97158   9.218   2.535   2.804  3.0375  0.7059 -1.7677
  720MOL0     H97159   9.295   2.606   2.946  0.6027 -1.1141  1.0904
  720MOL0     H97160   9.056   2.268   2.892 -2.9451 -3.1807  0.1701
  720MOL0     H97161   8.824   2.247   2.850  1.5505  1.1171 -2.8526
  720MOL0     H97162   8.352   2.223   2.985  0.2478 -0.1459 -1.5603
  720MOL0     H97163   8.138   2.205   2.856  1.2109 -2.4002 -1.2317
  720MOL0     H97164   8.124   2.455   2.503  2.9201 -1.1963 -2.0427
  720MOL0     H97165   8.097   2.300   2.416  0.4196 -1.4518  1.7703
  720MOL0     H97166   7.869   2.310   2.473  1.9889 -1.3070  3.2163
  720MOL0     H97167   7.909   2.444   2.586  0.6175 -2.3270  1.0086
  720MOL0     H97168   7.942   2.603   2.411 -1.9562  0.3639 -0.0359
  720MOL0     H97169   7.935   2.474   2.289 -0.1994  0.0728 -0.1193
  720MOL0     H97170   7.707   2.579   2.468  1.8253  1.7036 -0.4415
  720MOL0     H97171   7.683   2.441   2.361  0.2677 -0.3189 -0.1592
  720MOL0     H97172   7.700   2.597   2.167  0.0953  0.1756  0.5838
  720MOL0     H97173   7.749   2.727   2.284  1.3559 -0.2801  0.3743
  720MOL0     H97174   7.465   2.597   2.263  0.9004 -0.9977  0.2116
  720MOL0     H97175   7.522   2.695   2.403 -1.6775  1.8221 -0.3218
  720MOL0     H97176   7.549   2.793   2.127  0.4016  2.4575 -0.0964
  720MOL0     H97177   7.529   2.894   2.271  0.0302  1.1844 -1.8061
  720MOL0     H97178   7.308   2.722   2.132  3.1989 -1.0856 -0.5408
  720MOL0     H97179   7.273   2.823   2.271 -1.5434 -2.2114 -0.7496
  720MOL0     H97180   8.316   2.389   2.509 -0.2025  1.6865  1.1140
  720MOL0     H97181   8.522   2.415   2.644 -3.1982  0.7570 -3.5778
  720MOL0     H97182   8.773   2.661   2.987 -0.8746 -0.2891 -0.0625
  720MOL0     H97183   9.015   2.664   3.031 -0.9112  0.5476  1.9268
  720MOL0     H97184   8.915   2.325   2.139  0.5350  0.1117 -1.1863
  720MOL0     H97185   8.691   2.345   2.036 -1.7700 -2.0410  0.6257
  720MOL0     H97186   8.459   2.112   1.629  0.0267  1.9165 -2.3917
  720MOL0     H97187   8.255   2.064   1.517 -3.1870 -1.1678  0.6266
  720MOL0     H97188   8.066   2.065   1.435 -0.8538 -0.5363  3.2041
  720MOL0     H97189   8.119   2.221   1.364  2.3442 -2.5935  2.0325
  720MOL0     H97190   7.924   2.171   1.241 -2.8322 -0.4290 -0.4595
  720MOL0     H97191   7.870   2.290   1.349  0.4927  0.1948 -1.9266
  720MOL0     H97192   7.820   2.110   1.534  2.4644  1.9267 -0.3788
  720MOL0     H97193   7.824   1.991   1.418  0.0628  0.5657  0.2661
  720MOL0     H97194   7.648   2.095   1.262 -1.5860 -0.6093  1.1005
  720MOL0     H97195   7.593   2.028   1.406 -0.3273 -1.1374 -2.2216
  720MOL0     H97196   7.546   2.448   1.446 -2.2878 -0.3925 -2.9591
  720MOL0     H97197   8.074   2.401   1.718 -0.5019 -2.1052  0.9481
  720MOL0     H97198   8.167   2.488   1.904 -1.7080  1.1459 -3.4404
  720MOL0     H97199   8.336   2.472   1.955  1.3025 -0.6191 -0.8924
  720MOL0     H97200   8.298   2.571   1.813  0.6018  1.2627  1.8409
  721MOL0     O97201   8.815   3.790   9.380 -0.8632 -0.3201  0.5196
  721MOL0     C97202   8.754   3.872   9.301 -1.3275  0.9105  0.3372
  721MOL0     O97203   8.778   4.003   9.295 -0.2104 -0.7811  0.1257
  721MOL0     C97204   8.859   4.054   9.395 -0.0681 -0.4260  0.2490
  721MOL0     C97205   8.976   4.122   9.364 -0.2127 -0.1595 -0.7231
  721MOL0     C97206   9.059   4.166   9.469 -0.3052 -1.0810  0.0943
  721MOL0     C97207   9.025   4.150   9.605 -0.1298  0.2245 -0.4773
  721MOL0     O97208   9.089   4.210   9.719  0.0473 -0.2843  0.5839
  721MOL0     C97209   9.215   4.275   9.700 -0.8817  1.0797  0.0286
  721MOL0     C97210   9.289   4.300   9.828 -0.5748  0.1249  0.9957
  721MOL0     C97211   9.250   4.421   9.917 -0.0894  0.2836 -0.0778
  721MOL0     C97212   9.107   4.448   9.936  0.4954 -0.4859  0.0653
  721MOL0     C97213   9.069   4.576  10.019  0.3374  0.6756  0.1726
  721MOL0     C97214   9.154   4.700   9.986 -0.0676  0.3426 -0.7999
  721MOL0     C97215   9.112   4.814  10.080  0.1751 -0.0761 -0.3402
  721MOL0     C97216   9.220   4.925  10.076  0.4470 -0.6760 -0.6787
  721MOL0     N97217   9.356   4.896  10.116  0.8292 -0.0344 -0.0406
  721MOL0     C97218   9.389   4.799  10.205 -0.6355  0.0539 -0.3885
  721MOL0     C97219   9.521   4.790  10.201 -0.1131  0.5494  1.3746
  721MOL0     C97220   9.587   4.674  10.271 -0.9141  0.1284  0.8665
  721MOL0     C97221   9.544   4.530  10.223 -0.9067  0.4403  0.1112
  721MOL0     C97222   9.557   4.420  10.341  0.3220  0.0344 -0.4502
  721MOL0     C97223   9.694   4.389  10.391  0.2853 -0.9157  0.1326
  721MOL0     O97224   9.704   4.306  10.504  0.2370  0.2702  0.4441
  721MOL0     C97225   9.646   4.353  10.617  0.2021  0.3635 -0.5633
  721MOL0     C97226   9.604   4.484  10.652 -0.6743  0.5729 -0.3667
  721MOL0     C97227   9.569   4.511  10.783 -0.3090  0.2262 -0.8211
  721MOL0     C97228   9.573   4.413  10.883  0.2939 -0.8895  0.5741
  721MOL0     C97229   9.535   4.461  11.026 -0.6672  1.1773 -0.0442
  721MOL0     O97230   9.548   4.368  11.121  0.4024  0.8961  0.7428
  721MOL0     C97231   9.512   4.405  11.253  0.7274  0.1845 -0.4947
  721MOL0     C97232   9.374   4.423  11.283  0.3705  0.6237 -0.4527
  721MOL0     C97233   9.337   4.434  11.419  0.4338  0.2004 -0.0465
  721MOL0     C97234   9.440   4.450  11.522  0.7134 -1.1377 -0.2809
  721MOL0     O97235   9.418   4.460  11.659  0.8334 -0.1234 -0.1972
  721MOL0     C97236   9.287   4.496  11.709  0.1184 -0.0026  0.3750
  721MOL0     C97237   9.298   4.572  11.843 -0.6353  0.7203  0.3791
  721MOL0     C97238   9.157   4.610  11.890 -0.3519 -0.7297  0.1607
  721MOL0     C97239   9.173   4.726  11.989  0.1807  0.4472  0.4817
  721MOL0     C97240   9.040   4.794  12.010 -0.7804 -0.2455  1.2109
  721MOL0     C97241   9.035   4.908  11.903 -0.1499  0.8280 -0.7431
  721MOL0     C97242   8.934   5.017  11.933 -0.2902 -0.0412  0.2453
  721MOL0     C97243   8.984   5.156  11.874  0.4042  0.9780  0.6689
  721MOL0    Cl97244   9.083   5.243  11.970 -0.3326  0.3060 -0.0665
  721MOL0     C97245   9.573   4.424  11.490 -0.0486  0.0228 -0.0472
  721MOL0     C97246   9.607   4.412  11.357 -0.6946 -0.4948  0.0746
  721MOL0     O97247   9.488   4.574  11.044 -0.2097 -0.4359 -0.0570
  721MOL0     C97248   9.611   4.282  10.853 -0.2739  0.1224  0.1314
  721MOL0     C97249   9.654   4.257  10.722  0.6362 -0.4114  0.6121
  721MOL0     N97250   9.562   4.893  10.119  0.0409 -0.3001 -0.1408
  721MOL0     N97251   9.465   4.958  10.065  0.3764  0.3567  0.7906
  721MOL0     C97252   8.909   4.094   9.630 -0.1184 -0.3628 -0.0169
  721MOL0     C97253   8.821   4.053   9.530 -0.5555  0.1169  0.2351
  721MOL0     C97254   8.656   3.811   9.204  0.4483 -0.6204  0.1520
  721MOL0     C97255   8.579   3.702   9.250  0.3051  0.4276  0.3913
  721MOL0     C97256   8.506   3.618   9.168  0.4367  0.3091 -0.1105
  721MOL0     C97257   8.484   3.652   9.032  0.6695 -0.7040 -0.4382
  721MOL0     O97258   8.395   3.573   8.956  0.1888  0.1591  1.1190
  721MOL0     C97259   8.266   3.557   9.010 -0.6868 -0.0222  0.6401
  721MOL0     C97260   8.206   3.687   9.056  0.1320 -0.2577  0.7403
  721MOL0     C97261   8.059   3.650   9.077 -0.0731  0.0485  0.7970
  721MOL0     C97262   7.985   3.765   9.129  0.5612  0.2448 -0.3066
  721MOL0     C97263   7.838   3.732   9.153 -0.0558  0.0693  0.0176
  721MOL0     C97264   7.715   3.715   9.166  0.6522  0.2083 -0.0742
  721MOL0     C97265   8.546   3.768   8.984 -0.0952 -0.2524 -0.6833
  721MOL0     C97266   8.630   3.854   9.067 -0.1883 -0.8807 -0.6194
  721MOL0     C97267   8.692   3.979   9.008 -0.0901 -0.2260 -0.7888
  721MOL0     H97268   9.015   4.126   9.262  2.8761 -0.9278  0.3036
  721MOL0     H97269   9.145   4.226   9.441 -0.9492 -0.3261 -0.2981
  721MOL0     H97270   9.285   4.220   9.637 -0.1071  1.8489  0.2069
  721MOL0     H97271   9.197   4.373   9.655 -1.2434 -0.0992 -2.5639
  721MOL0     H97272   9.395   4.321   9.809  0.3276 -2.5217  2.5182
  721MOL0     H97273   9.291   4.210   9.891  1.8973 -0.1381  0.6454
  721MOL0     H97274   9.303   4.509   9.880  1.7786 -0.8815 -0.2956
  721MOL0     H97275   9.296   4.402  10.015 -2.2185  1.5334  1.2532
  721MOL0     H97276   9.065   4.451   9.835 -0.9011  4.0503  0.5251
  721MOL0     H97277   9.059   4.364   9.986 -2.7823  2.0312  1.5337
  721MOL0     H97278   8.962   4.592  10.003 -0.0494 -2.3448 -0.7403
  721MOL0     H97279   9.097   4.563  10.124  4.1718  2.7886 -0.3956
  721MOL0     H97280   9.259   4.682  10.011 -0.4241 -0.6616  0.0365
  721MOL0     H97281   9.133   4.737   9.886 -3.1598 -2.8368 -1.5383
  721MOL0     H97282   9.108   4.781  10.185  2.2861  2.2164  0.5751
  721MOL0     H97283   9.017   4.847  10.038  0.6950  0.2977 -1.2542
  721MOL0     H97284   9.220   4.971   9.977 -0.1144  0.0190 -0.3675
  721MOL0     H97285   9.189   5.006  10.143  1.7312 -0.5554 -0.1907
  721MOL0     H97286   9.319   4.727  10.244 -0.5142  0.1480  0.0037
  721MOL0     H97287   9.695   4.687  10.260 -0.7483  1.3248  3.1994
  721MOL0     H97288   9.566   4.672  10.379 -0.1972  0.4006  1.0170
  721MOL0     H97289   9.438   4.535  10.195 -1.1135  0.9513  0.9186
  721MOL0     H97290   9.607   4.505  10.137 -3.1410  0.0915 -1.5034
  721MOL0     H97291   9.518   4.334  10.285  1.6890 -0.9737  0.1028
  721MOL0     H97292   9.488   4.460  10.416 -1.7075 -2.7905 -0.6174
  721MOL0     H97293   9.741   4.487  10.406 -0.2292 -0.4402 -1.1992
  721MOL0     H97294   9.762   4.353  10.312 -0.7778 -1.1353 -0.7024
  721MOL0     H97295   9.588   4.566  10.583 -0.7605  1.2826  0.4755
  721MOL0     H97296   9.547   4.613  10.814  1.4986  0.3051  0.3781
  721MOL0     H97297   9.303   4.394  11.206 -2.3859  3.1418  0.9575
  721MOL0     H97298   9.233   4.419  11.446  0.6912 -1.9955 -0.0496
  721MOL0     H97299   9.226   4.566  11.651 -0.3363  1.7260  2.7393
  721MOL0     H97300   9.224   4.409  11.727  0.2353 -0.3372 -0.7702
  721MOL0     H97301   9.348   4.509  11.916  0.2144  2.1514  1.0771
  721MOL0     H97302   9.377   4.647  11.842 -0.4013  0.4705 -0.5513
  721MOL0     H97303   9.101   4.648  11.805  0.6834  0.5823  0.0226
  721MOL0     H97304   9.112   4.518  11.928 -1.6998 -0.6558 -1.1886
  721MOL0     H97305   9.243   4.808  11.970  0.1364  0.1526 -1.0478
  721MOL0     H97306   9.191   4.675  12.084  2.5087  0.2983  0.0041
  721MOL0     H97307   9.049   4.835  12.111  2.6818  0.4276  0.7677
  721MOL0     H97308   8.955   4.726  12.012 -2.4920  1.8199  1.7432
  721MOL0     H97309   9.129   4.961  11.887  0.3645 -0.5170 -2.4626
  721MOL0     H97310   9.007   4.871  11.804 -0.6192 -0.2871 -0.2125
  721MOL0     H97311   8.904   5.026  12.038 -0.4685 -0.3090  0.2171
  721MOL0     H97312   8.849   4.990  11.870  1.7862 -1.4419 -2.1574
  721MOL0     H97313   9.031   5.122  11.781 -2.0105 -0.9749  0.0437
  721MOL0     H97314   8.899   5.224  11.856  0.6047  0.6875 -1.6972
  721MOL0     H97315   9.645   4.432  11.571  3.7594 -2.2163 -2.8946
  721MOL0     H97316   9.713   4.404  11.337 -0.6373 -1.0065  0.5514
  721MOL0     H97317   9.598   4.213  10.936 -1.0430  1.1754  0.8994
  721MOL0     H97318   9.704   4.162  10.705 -0.8446 -1.4882  1.9810
  721MOL0     H97319   8.880   4.082   9.734  0.2436 -0.8799  0.0287
  721MOL0     H97320   8.717   4.024   9.547 -0.7489  0.6131 -0.0915
  721MOL0     H97321   8.590   3.665   9.352  0.4819  1.2323  0.6737
  721MOL0     H97322   8.461   3.527   9.206 -2.8475  2.2323  0.9254
  721MOL0     H97323   8.266   3.484   9.091  1.0035 -0.5498  0.2080
  721MOL0     H97324   8.221   3.512   8.921  1.4364  1.2753 -1.2167
  721MOL0     H97325   8.191   3.765   8.981 -0.8464 -0.5185  0.6491
  721MOL0     H97326   8.248   3.738   9.143  0.6302 -1.5690  1.2914
  721MOL0     H97327   8.048   3.574   9.155 -1.0731 -1.8396 -1.0847
  721MOL0     H97328   8.011   3.617   8.985  0.8171  1.6217 -0.2775
  721MOL0     H97329   8.017   3.786   9.232 -0.5868 -0.3297  0.1896
  721MOL0     H97330   8.004   3.857   9.073  1.9642  0.0329 -0.2083
  721MOL0     H97331   7.612   3.691   9.183  1.1197 -2.7444 -0.8809
  721MOL0     H97332   8.517   3.803   8.886 -1.4776 -0.5261 -0.3946
  721MOL0     H97333   8.657   4.061   9.072 -1.1235 -1.8389  0.7941
  721MOL0     H97334   8.801   3.976   8.997 -0.2150 -1.9563 -1.9530
  721MOL0     H97335   8.659   3.997   8.905 -1.7215  2.8152  0.1329
  722MOL0     O97336   3.196   4.546   5.317  0.1059 -0.3147 -0.1838
  722MOL0     C97337   3.192   4.472   5.218  1.2010 -0.8498 -0.2820
  722MOL0     O97338   3.162   4.336   5.229  0.3558  0.4402  0.5458
  722MOL0     C97339   3.144   4.272   5.344 -0.7642 -0.3122 -0.1369
  722MOL0     C97340   3.080   4.327   5.451  1.1708  0.0635  0.4707
  722MOL0     C97341   3.060   4.253   5.566  0.2535 -0.8259  0.5987
  722MOL0     C97342   3.112   4.129   5.581 -0.5778 -0.1096 -0.0116
  722MOL0     O97343   3.077   4.071   5.699 -0.4176  0.1779 -0.5160
  722MOL0     C97344   3.130   3.946   5.734  0.6756 -0.7742 -0.8900
  722MOL0     C97345   3.048   3.882   5.847  0.1911 -0.1473 -0.4113
  722MOL0     C97346   2.901   3.874   5.824  0.0386  0.7086  0.2116
  722MOL0     C97347   2.854   3.835   5.961  0.4125 -0.2120 -0.4846
  722MOL0     C97348   2.706   3.805   5.952 -0.2593  0.4731  0.2756
  722MOL0     C97349   2.614   3.926   5.942  0.1701 -0.4687  0.5567
  722MOL0     C97350   2.476   3.888   5.888  0.3999  0.2058  0.1915
  722MOL0     C97351   2.393   3.815   5.992 -0.6681  0.0730  0.0896
  722MOL0     N97352   2.267   3.775   5.938  0.3893  0.6124  0.8522
  722MOL0     C97353   2.253   3.673   5.844  0.1537 -0.4320 -0.0745
  722MOL0     C97354   2.121   3.664   5.830 -0.2048  0.6756 -0.5715
  722MOL0     C97355   2.052   3.586   5.736 -0.4494  0.1097  0.3524
  722MOL0     C97356   1.905   3.606   5.752  0.7025 -0.8533  0.3907
  722MOL0     C97357   1.818   3.558   5.632  0.4821  0.1517 -0.2879
  722MOL0     C97358   1.833   3.643   5.494  0.3453 -0.1891  0.0583
  722MOL0     O97359   1.760   3.577   5.388  0.3394 -0.3713  0.2593
  722MOL0     C97360   1.787   3.444   5.361 -0.0247 -0.6003 -0.3385
  722MOL0     C97361   1.918   3.403   5.348 -0.1706 -0.3638  0.0013
  722MOL0     C97362   1.942   3.268   5.344 -0.5638  0.8461  0.2648
  722MOL0     C97363   1.835   3.176   5.345  0.2467  0.4989 -0.7831
  722MOL0     C97364   1.864   3.035   5.343  0.2966  1.4456  0.8858
  722MOL0     O97365   1.770   2.952   5.400 -1.1364  0.1534 -0.1788
  722MOL0     C97366   1.793   2.817   5.400  0.9020  0.1916  0.1009
  722MOL0     C97367   1.810   2.745   5.520  0.4717  0.4709 -0.7743
  722MOL0     C97368   1.843   2.612   5.521 -0.4009  0.5544  0.7436
  722MOL0     C97369   1.861   2.548   5.405  0.4054  1.2401  1.4435
  722MOL0     O97370   1.863   2.407   5.393 -0.1023  0.4800 -0.8018
  722MOL0     C97371   1.940   2.334   5.489 -0.1695 -0.3080  1.0918
  722MOL0     C97372   1.967   2.201   5.418 -0.1649 -0.3128 -0.9337
  722MOL0     C97373   2.120   2.175   5.409  0.4328  0.0979  0.0232
  722MOL0     C97374   2.152   2.025   5.388 -0.9366  0.4540  0.3780
  722MOL0     C97375   2.294   1.979   5.404 -0.0088  0.0494 -0.1633
  722MOL0     C97376   2.385   2.058   5.302  0.6485  0.1512 -0.6674
  722MOL0     C97377   2.506   1.982   5.265  0.1819 -0.5439 -0.1628
  722MOL0     C97378   2.581   2.074   5.153 -0.2851 -0.0265 -0.7203
  722MOL0    Cl97379   2.659   2.205   5.241 -0.0087  0.3836  0.4265
  722MOL0     C97380   1.828   2.609   5.290 -0.7272 -0.1952  0.6511
  722MOL0     C97381   1.788   2.737   5.284 -0.9264 -0.4588  0.5632
  722MOL0     O97382   1.968   2.996   5.287 -0.1120  0.4482  0.1431
  722MOL0     C97383   1.703   3.226   5.328 -0.0849  0.3830 -0.5708
  722MOL0     C97384   1.680   3.360   5.335  0.2886 -0.6762  0.8836
  722MOL0     N97385   2.063   3.748   5.933  0.1483  0.4977  0.2104
  722MOL0     N97386   2.148   3.799   6.007 -0.0744  0.2523 -0.4783
  722MOL0     C97387   3.189   4.072   5.479 -0.2397 -0.2326  0.8385
  722MOL0     C97388   3.207   4.144   5.357 -0.6386 -0.1806  0.1977
  722MOL0     C97389   3.194   4.534   5.081 -0.7263  0.4591 -0.9383
  722MOL0     C97390   3.151   4.459   4.975  0.7625 -0.3062  0.1476
  722MOL0     C97391   3.146   4.507   4.846 -0.5329  1.1673  0.1360
  722MOL0     C97392   3.192   4.636   4.814  0.2251  0.4231  0.3404
  722MOL0     O97393   3.204   4.674   4.684  0.0149  0.3614 -0.8313
  722MOL0     C97394   3.080   4.689   4.611 -0.4319 -0.2029  0.6466
  722MOL0     C97395   3.078   4.564   4.510  0.5664 -0.9721 -0.2247
  722MOL0     C97396   3.207   4.580   4.430  0.8999 -0.1093  0.6852
  722MOL0     C97397   3.205   4.498   4.305  0.1266 -0.5046 -0.7266
  722MOL0     C97398   3.113   4.553   4.204  0.7293 -0.1383  0.0594
  722MOL0     C97399   3.030   4.570   4.115  0.9733 -0.7325 -0.2772
  722MOL0     C97400   3.259   4.701   4.912  1.0010 -0.1284  0.8014
  722MOL0     C97401   3.253   4.661   5.042 -0.7127 -0.3600 -0.4713
  722MOL0     C97402   3.319   4.750   5.144  0.0264  0.5970 -1.3454
  722MOL0     H97403   3.018   4.416   5.445  0.7545  0.0326  3.1045
  722MOL0     H97404   2.987   4.277   5.643 -0.1699 -2.1601  0.6312
  722MOL0     H97405   3.114   3.884   5.645 -2.7004  1.0887 -1.7307
  722MOL0     H97406   3.235   3.966   5.759  0.0283  1.8867  0.0302
  722MOL0     H97407   3.072   3.933   5.940  0.6586 -1.0251 -0.0388
  722MOL0     H97408   3.083   3.778   5.853  1.1031 -0.1911 -4.1385
  722MOL0     H97409   2.872   3.807   5.742  1.5101  2.0361 -1.4785
  722MOL0     H97410   2.866   3.971   5.789  2.6046  2.0004  0.9782
  722MOL0     H97411   2.910   3.749   6.000  1.1736  1.9644  3.7611
  722MOL0     H97412   2.873   3.909   6.039  0.9848  0.1678 -0.9767
  722MOL0     H97413   2.687   3.742   5.865 -0.1341  1.3749 -0.4259
  722MOL0     H97414   2.680   3.753   6.045  1.3514  0.8138  0.9601
  722MOL0     H97415   2.609   3.967   6.043  0.5136 -0.6601  0.6532
  722MOL0     H97416   2.655   3.998   5.870  0.5827 -1.3615 -0.1289
  722MOL0     H97417   2.495   3.820   5.805  0.3849  0.3193  0.0943
  722MOL0     H97418   2.424   3.971   5.839  4.5599  2.1593 -1.3777
  722MOL0     H97419   2.446   3.726   6.029  1.9948  1.4506 -0.2058
  722MOL0     H97420   2.390   3.887   6.074 -1.9810 -0.0554  0.1833
  722MOL0     H97421   2.338   3.625   5.796 -0.1285 -1.6273  0.5723
  722MOL0     H97422   2.083   3.615   5.636 -1.6088  2.0751  0.5220
  722MOL0     H97423   2.083   3.482   5.754  3.0114  1.0008  0.1838
  722MOL0     H97424   1.887   3.552   5.846  1.3716 -2.8262 -0.5472
  722MOL0     H97425   1.873   3.709   5.769  1.8683 -0.2389 -0.9771
  722MOL0     H97426   1.712   3.575   5.650  0.5157  0.7240 -0.6075
  722MOL0     H97427   1.826   3.450   5.617  2.7208  0.2295 -0.0578
  722MOL0     H97428   1.938   3.660   5.465  1.5062 -1.4376  3.1415
  722MOL0     H97429   1.784   3.740   5.503 -0.2576 -0.6562  2.6450
  722MOL0     H97430   2.001   3.472   5.347  0.7602 -1.3682 -2.7121
  722MOL0     H97431   2.045   3.237   5.330 -0.2865  1.2096  1.3877
  722MOL0     H97432   1.795   2.808   5.608 -0.3207  3.0892 -2.6656
  722MOL0     H97433   1.863   2.571   5.619  1.7381  4.8703  2.4036
  722MOL0     H97434   2.033   2.392   5.497 -0.3412 -0.0877  1.5372
  722MOL0     H97435   1.892   2.318   5.586 -0.5445 -2.3863  0.6155
  722MOL0     H97436   1.930   2.118   5.479 -0.3956  0.1550 -0.4309
  722MOL0     H97437   1.919   2.209   5.320  0.0754 -0.2906 -1.0516
  722MOL0     H97438   2.158   2.241   5.330 -2.0899  1.6799  0.0224
  722MOL0     H97439   2.174   2.221   5.493  0.6564  2.1946 -1.1892
  722MOL0     H97440   2.109   2.008   5.289 -3.5248  3.9629  0.6869
  722MOL0     H97441   2.097   1.958   5.454  0.1264 -1.1003 -0.2717
  722MOL0     H97442   2.310   1.871   5.391  1.4123  0.4891 -2.7792
  722MOL0     H97443   2.330   1.997   5.506 -0.7029 -2.8357  0.7063
  722MOL0     H97444   2.333   2.083   5.210  1.5182  3.2413 -0.4584
  722MOL0     H97445   2.407   2.159   5.340  2.0956 -0.0563 -0.8981
  722MOL0     H97446   2.489   1.880   5.230 -1.1436 -1.0594  1.8449
  722MOL0     H97447   2.573   1.971   5.351  3.5948 -1.2576 -2.7003
  722MOL0     H97448   2.654   2.002   5.114 -2.7926 -1.4613 -3.1809
  722MOL0     H97449   2.522   2.105   5.067 -2.0854 -3.9345 -1.1267
  722MOL0     H97450   1.823   2.560   5.193  0.2984  0.4328  0.2709
  722MOL0     H97451   1.747   2.781   5.194 -2.6625  1.7725  2.3390
  722MOL0     H97452   1.620   3.160   5.306 -0.7319  0.6160  1.0375
  722MOL0     H97453   1.576   3.392   5.332  1.0296  2.0174  1.5675
  722MOL0     H97454   3.244   3.981   5.497 -2.3169 -1.5121  1.0942
  722MOL0     H97455   3.277   4.112   5.281 -1.8631  0.7106 -1.3580
  722MOL0     H97456   3.124   4.356   4.996 -3.9039  0.5277 -0.6000
  722MOL0     H97457   3.134   4.427   4.773 -1.2565  1.4204 -0.0351
  722MOL0     H97458   3.083   4.782   4.554  1.4904  0.2106  1.3340
  722MOL0     H97459   2.991   4.693   4.673 -0.7363 -1.1067  0.2936
  722MOL0     H97460   2.989   4.592   4.453  0.4123  3.6268  1.7828
  722MOL0     H97461   3.060   4.470   4.563 -3.7291 -0.0377  0.3615
  722MOL0     H97462   3.292   4.532   4.478  0.1355 -3.8318 -1.2592
  722MOL0     H97463   3.232   4.681   4.396 -0.2939  0.3269  1.0343
  722MOL0     H97464   3.308   4.484   4.270  1.2278  2.4131  1.0021
  722MOL0     H97465   3.170   4.398   4.333 -1.6757  0.3468  0.1905
  722MOL0     H97466   2.942   4.589   4.057  1.7994  1.3263 -0.9784
  722MOL0     H97467   3.307   4.793   4.879  0.1062 -0.0553 -0.3706
  722MOL0     H97468   3.241   4.768   5.219  0.6994  0.1552 -0.5143
  722MOL0     H97469   3.394   4.686   5.193 -0.7156 -0.1827 -1.2086
  722MOL0     H97470   3.356   4.844   5.102 -1.4752  2.0084  0.3696
  723MOL0     O97471   3.799  11.253   5.405  0.6164 -0.0330 -0.0916
  723MOL0     C97472   3.770  11.338   5.485  0.7298 -0.2776  1.0745
  723MOL0     O97473   3.785  11.329   5.620  1.4119  0.4374  0.9081
  723MOL0     C97474   3.888  11.247   5.661 -0.5351 -0.7898  1.3744
  723MOL0     C97475   3.894  11.112   5.642  0.9457  0.1518 -0.0992
  723MOL0     C97476   4.002  11.037   5.686  0.6975 -0.2819 -0.0905
  723MOL0     C97477   4.110  11.103   5.755 -0.0989  0.8699 -0.1549
  723MOL0     O97478   4.214  11.026   5.796 -0.6219  0.1093  0.0080
  723MOL0     C97479   4.239  11.023   5.934  0.8863 -2.0516  1.0903
  723MOL0     C97480   4.378  10.956   5.951  0.1405 -0.0852  0.3906
  723MOL0     C97481   4.488  11.001   5.862 -0.2382 -0.2565  0.3474
  723MOL0     C97482   4.629  10.957   5.916  0.7296  0.4325 -0.4743
  723MOL0     C97483   4.737  11.020   5.822 -0.0708  0.4132 -0.4340
  723MOL0     C97484   4.795  11.146   5.888 -0.1553 -0.1358  0.5332
  723MOL0     C97485   4.907  11.210   5.807 -0.1563 -1.4982  0.2307
  723MOL0     C97486   4.886  11.255   5.662  1.4331 -0.1023 -0.0610
  723MOL0     N97487   4.756  11.325   5.645 -0.5638 -0.4208 -0.1729
  723MOL0     C97488   4.664  11.254   5.584 -0.2451  0.0186 -0.4890
  723MOL0     C97489   4.554  11.335   5.602  0.7341 -0.3789 -0.0481
  723MOL0     C97490   4.414  11.293   5.594  0.0708  0.8699  0.0497
  723MOL0     C97491   4.373  11.279   5.445 -0.7395  0.9249 -0.9498
  723MOL0     C97492   4.222  11.263   5.436  0.3517  0.1199 -0.9496
  723MOL0     C97493   4.167  11.313   5.303  0.3423 -0.1500  0.8970
  723MOL0     O97494   4.218  11.252   5.184  0.1543  0.0431 -0.1820
  723MOL0     C97495   4.172  11.280   5.059  0.8171 -0.0856  0.5897
  723MOL0     C97496   4.226  11.384   4.996 -0.3002 -0.1082  1.6963
  723MOL0     C97497   4.160  11.429   4.882 -0.3789 -0.8160  0.7377
  723MOL0     C97498   4.043  11.363   4.830 -0.2495  0.1281  0.1504
  723MOL0     C97499   3.962  11.420   4.721 -0.2042 -0.1218 -0.0712
  723MOL0     O97500   3.855  11.346   4.675 -0.0018 -0.1270  0.6516
  723MOL0     C97501   3.777  11.387   4.570  0.0772  0.6904  0.9895
  723MOL0     C97502   3.647  11.344   4.562 -0.0216  0.3805 -0.0056
  723MOL0     C97503   3.563  11.374   4.451 -1.3626 -0.0712 -0.0019
  723MOL0     C97504   3.615  11.436   4.348 -0.3383  0.1137 -0.4737
  723MOL0     O97505   3.521  11.434   4.242  0.0729 -0.5107  0.6992
  723MOL0     C97506   3.578  11.442   4.117  0.3730 -0.9112 -0.4158
  723MOL0     C97507   3.475  11.402   4.020  0.3918 -0.1399 -0.1331
  723MOL0     C97508   3.517  11.441   3.875 -0.9065 -0.2823 -0.1674
  723MOL0     C97509   3.628  11.364   3.825 -0.4503  0.5433  0.6703
  723MOL0     C97510   3.653  11.397   3.678 -0.0874  0.8144  0.3634
  723MOL0     C97511   3.701  11.541   3.657  0.3376  0.3140 -0.5915
  723MOL0     C97512   3.844  11.563   3.717 -0.3784  0.2809  0.2307
  723MOL0     C97513   3.886  11.707   3.700 -0.4982 -0.9989  0.3967
  723MOL0    Cl97514   3.885  11.775   3.854  0.0880  0.0063  0.2057
  723MOL0     C97515   3.743  11.480   4.347 -0.7920  0.0856  0.3090
  723MOL0     C97516   3.826  11.448   4.458 -0.5491 -0.4875 -1.1250
  723MOL0     O97517   4.004  11.523   4.667 -0.1959  0.3791 -0.2360
  723MOL0     C97518   3.998  11.248   4.897  1.0176  0.4210  0.5204
  723MOL0     C97519   4.065  11.206   5.004 -0.3943  0.2332  0.6404
  723MOL0     N97520   4.593  11.449   5.673  0.5043  0.3678 -0.5888
  723MOL0     N97521   4.714  11.440   5.710  0.1651 -0.3997  0.3825
  723MOL0     C97522   4.103  11.233   5.773 -0.4869 -0.6635 -0.3012
  723MOL0     C97523   3.997  11.306   5.711 -0.2137  0.7335 -0.3752
  723MOL0     C97524   3.699  11.456   5.431  0.5631  0.3229  0.6365
  723MOL0     C97525   3.631  11.547   5.513  0.0217  0.4235 -0.5989
  723MOL0     C97526   3.570  11.660   5.474 -0.8173 -0.4503 -0.3479
  723MOL0     C97527   3.583  11.704   5.340  0.2701 -0.4112  0.1573
  723MOL0     O97528   3.524  11.821   5.298  0.8841  0.3557 -0.5310
  723MOL0     C97529   3.404  11.864   5.379 -0.2362  0.7192 -0.6479
  723MOL0     C97530   3.302  11.934   5.298  0.9245 -0.8010 -0.2275
  723MOL0     C97531   3.177  11.966   5.388  0.5494 -0.5813  0.7188
  723MOL0     C97532   3.073  12.027   5.297  0.2361  0.4157  0.7776
  723MOL0     C97533   2.956  12.043   5.373 -0.0780  0.0108  0.5178
  723MOL0     C97534   2.868  12.059   5.449  1.0183 -0.8925 -0.1205
  723MOL0     C97535   3.649  11.614   5.250  0.5915 -0.0985  0.2521
  723MOL0     C97536   3.712  11.497   5.294  0.2312  0.3905 -0.0232
  723MOL0     C97537   3.785  11.418   5.186 -0.2187  0.7145  0.3930
  723MOL0     H97538   3.802  11.064   5.609  0.5256 -1.1253  2.6677
  723MOL0     H97539   4.009  10.932   5.659  0.7643 -0.4582  0.5816
  723MOL0     H97540   4.238  11.125   5.972 -0.1255 -0.0430 -3.6259
  723MOL0     H97541   4.160  10.966   5.982  0.4101 -1.6261  0.8213
  723MOL0     H97542   4.369  10.848   5.942  5.0032 -0.9005  2.3951
  723MOL0     H97543   4.411  10.967   6.054  2.7689 -2.6286 -0.0573
  723MOL0     H97544   4.482  11.110   5.856  2.1433 -0.1582 -3.5663
  723MOL0     H97545   4.476  10.970   5.758  1.6602  0.9675 -0.2869
  723MOL0     H97546   4.652  10.996   6.016  1.4109  0.7993 -0.7690
  723MOL0     H97547   4.646  10.850   5.924  1.8741  0.7358  2.6401
  723MOL0     H97548   4.812  10.940   5.820 -0.5595 -0.0479 -1.3115
  723MOL0     H97549   4.699  11.040   5.721 -0.9022  4.1070  0.4460
  723MOL0     H97550   4.710  11.214   5.895 -1.0439 -1.4040  5.0153
  723MOL0     H97551   4.823  11.137   5.993  1.7184 -1.0575  0.0015
  723MOL0     H97552   4.985  11.133   5.808  1.9697  0.5164  0.1452
  723MOL0     H97553   4.946  11.298   5.859  4.4136 -5.4069  4.4166
  723MOL0     H97554   4.961  11.330   5.636 -1.1977  2.4138 -0.9728
  723MOL0     H97555   4.892  11.164   5.601  0.7250 -1.2649  1.5214
  723MOL0     H97556   4.663  11.162   5.526 -1.2605  0.9536 -2.0435
  723MOL0     H97557   4.394  11.193   5.636 -4.6242  2.1622  1.5518
  723MOL0     H97558   4.348  11.372   5.632 -1.0297  0.0634 -0.1212
  723MOL0     H97559   4.401  11.368   5.388 -1.6540  2.3150  0.6828
  723MOL0     H97560   4.421  11.191   5.400 -2.3838  0.2568 -1.4665
  723MOL0     H97561   4.171  11.318   5.516  1.0016 -0.4141 -0.1583
  723MOL0     H97562   4.205  11.157   5.457  1.7029 -0.7994 -4.0054
  723MOL0     H97563   4.180  11.421   5.287  3.7022  0.0386  3.6533
  723MOL0     H97564   4.062  11.281   5.307  0.0255  0.6572 -0.2931
  723MOL0     H97565   4.316  11.432   5.034 -0.2921  1.0885  0.2202
  723MOL0     H97566   4.196  11.515   4.827  0.8062 -0.4905  1.9609
  723MOL0     H97567   3.599  11.296   4.647  2.3051 -2.5540 -0.1823
  723MOL0     H97568   3.463  11.334   4.445 -0.4056 -2.4269 -1.8961
  723MOL0     H97569   3.609  11.546   4.103 -0.7803  0.0452  3.2037
  723MOL0     H97570   3.661  11.371   4.115 -0.4935 -2.0412  1.5568
  723MOL0     H97571   3.476  11.293   4.032 -2.3421 -0.3789 -1.3477
  723MOL0     H97572   3.388  11.457   4.058  2.0922  1.2608  1.9809
  723MOL0     H97573   3.428  11.436   3.811 -0.1059  1.2976 -1.4721
  723MOL0     H97574   3.551  11.543   3.896  2.7445 -1.9345  3.2594
  723MOL0     H97575   3.598  11.259   3.837  1.1625 -0.0229  0.0368
  723MOL0     H97576   3.713  11.375   3.892 -0.2819  4.9213  0.0155
  723MOL0     H97577   3.560  11.384   3.622 -0.6162 -2.5835  1.7520
  723MOL0     H97578   3.734  11.332   3.643 -1.5170 -0.2537 -1.1247
  723MOL0     H97579   3.719  11.558   3.550  0.9882  0.0827 -0.5217
  723MOL0     H97580   3.632  11.616   3.697  1.0808 -0.3141  2.0273
  723MOL0     H97581   3.911  11.498   3.659  0.1554 -0.2102  1.3751
  723MOL0     H97582   3.849  11.530   3.821 -0.1169  0.6561  0.3385
  723MOL0     H97583   3.989  11.713   3.664  0.0940 -2.7120  1.6540
  723MOL0     H97584   3.820  11.767   3.637  1.1168  1.5723  0.9935
  723MOL0     H97585   3.791  11.529   4.263 -2.2183  2.2370  0.6335
  723MOL0     H97586   3.930  11.474   4.440 -0.7678  3.8295  2.2020
  723MOL0     H97587   3.920  11.179   4.867  0.1934  0.2540  2.8498
  723MOL0     H97588   4.037  11.116   5.058  2.0758 -1.0228 -0.0117
  723MOL0     H97589   4.173  11.294   5.830 -0.1552 -1.7330  0.4664
  723MOL0     H97590   4.003  11.413   5.729  4.5439  0.3589  1.7105
  723MOL0     H97591   3.626  11.523   5.619 -1.3829  3.4760  0.1467
  723MOL0     H97592   3.529  11.732   5.543  0.2265 -1.4690  1.4025
  723MOL0     H97593   3.443  11.933   5.455  1.4686  1.9872 -2.5390
  723MOL0     H97594   3.351  11.784   5.431 -0.0286 -0.3872 -2.0643
  723MOL0     H97595   3.267  11.855   5.231  1.1628 -1.4936  0.4548
  723MOL0     H97596   3.330  12.032   5.257  0.3871 -0.4192  0.2955
  723MOL0     H97597   3.203  12.026   5.476  0.5683 -0.3560  0.5610
  723MOL0     H97598   3.141  11.870   5.424 -0.5648 -0.5786 -0.3299
  723MOL0     H97599   3.110  12.124   5.262  2.3788 -0.3345  0.7741
  723MOL0     H97600   3.048  11.957   5.217 -0.7678  0.4004  1.0927
  723MOL0     H97601   2.791  12.068   5.523  2.3349  0.4019  1.1680
  723MOL0     H97602   3.658  11.637   5.145  1.2296 -1.4030  0.0050
  723MOL0     H97603   3.882  11.376   5.214 -0.4558  0.2375  0.5094
  723MOL0     H97604   3.726  11.330   5.159  1.0397  0.2521 -1.0251
  723MOL0     H97605   3.795  11.476   5.094  2.1213  0.9050  0.7068
  724MOL0     O97606   0.443   2.127   4.753 -0.0597 -0.2077  0.1630
  724MOL0     C97607   0.504   2.151   4.645  0.3090  0.4708  0.0750
  724MOL0     O97608   0.632   2.111   4.608 -0.3986 -0.1963 -0.0205
  724MOL0     C97609   0.719   2.042   4.688  0.1511 -0.0506  0.4224
  724MOL0     C97610   0.698   2.009   4.828  0.0737 -0.2108  0.1671
  724MOL0     C97611   0.798   1.923   4.883 -0.6928 -0.1717  0.4484
  724MOL0     C97612   0.916   1.874   4.809  0.0992  0.1890  0.0674
  724MOL0     O97613   1.003   1.795   4.886 -0.4807  0.0927 -0.4856
  724MOL0     C97614   1.143   1.788   4.837 -0.2392 -0.1643  0.2848
  724MOL0     C97615   1.243   1.754   4.950 -0.1113 -0.3081 -0.1861
  724MOL0     C97616   1.249   1.842   5.073 -0.2106 -0.6909 -0.2093
  724MOL0     C97617   1.149   1.815   5.183 -0.6977  0.1212  0.4645
  724MOL0     C97618   1.162   1.896   5.322 -0.5307 -0.4469 -0.5526
  724MOL0     C97619   1.152   2.056   5.297 -0.2347  0.1090  0.3160
  724MOL0     C97620   1.147   2.117   5.446 -0.1283 -0.0521  0.8643
  724MOL0     C97621   1.098   2.257   5.434  0.1600  0.6966  1.2969
  724MOL0     N97622   1.054   2.327   5.559 -0.0850  0.0912 -0.5607
  724MOL0     C97623   1.124   2.337   5.674  0.6064  0.1862  0.6052
  724MOL0     C97624   1.050   2.418   5.760 -0.3673 -0.0564  0.3969
  724MOL0     C97625   1.101   2.460   5.892 -0.0072  0.6956 -0.1802
  724MOL0     C97626   0.986   2.517   5.979  0.1774  0.0413  0.3298
  724MOL0     C97627   1.023   2.557   6.121 -0.9775 -0.1622  0.3612
  724MOL0     C97628   1.063   2.710   6.141 -0.4120 -0.8219 -0.6909
  724MOL0     O97629   1.185   2.745   6.068 -0.2267  0.2753  0.5038
  724MOL0     C97630   1.262   2.852   6.106  0.6921  0.7725 -0.3626
  724MOL0     C97631   1.396   2.831   6.136  0.3946  0.0106 -0.4752
  724MOL0     C97632   1.461   2.940   6.197  0.6712  0.3712  0.6480
  724MOL0     C97633   1.404   3.061   6.228  0.3009  0.6400  0.4568
  724MOL0     C97634   1.476   3.161   6.312 -0.6820  0.6190 -1.4843
  724MOL0     O97635   1.406   3.283   6.345 -0.3357 -0.0222  0.3193
  724MOL0     C97636   1.466   3.360   6.442  0.6129 -0.8248  0.7066
  724MOL0     C97637   1.449   3.339   6.578  0.3278  0.1044 -0.6785
  724MOL0     C97638   1.537   3.402   6.670 -0.0600 -0.1083 -0.6540
  724MOL0     C97639   1.607   3.516   6.630 -0.2471  0.5891  0.1095
  724MOL0     O97640   1.686   3.584   6.724  0.1461 -0.1036  0.5100
  724MOL0     C97641   1.723   3.721   6.693 -0.6480 -0.5859 -0.4491
  724MOL0     C97642   1.816   3.766   6.801 -0.4909  0.5574 -0.4483
  724MOL0     C97643   1.851   3.908   6.789 -0.5467  0.2246  0.7372
  724MOL0     C97644   1.927   3.966   6.899 -0.3757 -0.0029 -0.2886
  724MOL0     C97645   2.008   4.094   6.856  0.3802  1.0931  0.0033
  724MOL0     C97646   1.923   4.211   6.794  0.4099  0.0805 -0.0350
  724MOL0     C97647   2.003   4.342   6.785 -0.3315  0.1671  0.7954
  724MOL0     C97648   1.910   4.459   6.745 -0.2372  0.3833  0.0252
  724MOL0    Cl97649   1.874   4.466   6.567  0.0280  0.0302  0.0544
  724MOL0     C97650   1.622   3.541   6.489 -0.0892  0.4721 -0.4522
  724MOL0     C97651   1.553   3.462   6.397 -0.7039 -0.3695  0.3570
  724MOL0     O97652   1.576   3.122   6.369  0.2259  0.4455 -0.1344
  724MOL0     C97653   1.285   3.084   6.154  1.6041 -0.9038 -0.8239
  724MOL0     C97654   1.208   2.978   6.107 -0.5470 -0.5555  0.1337
  724MOL0     N97655   0.940   2.465   5.699  0.1247  0.4093  0.2620
  724MOL0     N97656   0.948   2.413   5.575 -0.2558 -0.1483  0.1724
  724MOL0     C97657   0.937   1.910   4.677  0.1903  0.2476  0.0307
  724MOL0     C97658   0.831   1.989   4.617  0.0033  0.0144 -0.4851
  724MOL0     C97659   0.438   2.234   4.546 -0.8927 -0.0926  0.7203
  724MOL0     C97660   0.523   2.315   4.465 -0.1080  0.2726 -0.7086
  724MOL0     C97661   0.467   2.403   4.370  0.5012  0.4014 -0.4651
  724MOL0     C97662   0.331   2.405   4.349  0.1709 -0.5992  0.6442
  724MOL0     O97663   0.274   2.487   4.251 -0.3437 -0.2179 -0.0591
  724MOL0     C97664   0.130   2.519   4.271 -0.6460 -0.2215 -0.5067
  724MOL0     C97665   0.108   2.657   4.212  0.0418 -0.3430 -0.2403
  724MOL0     C97666   0.158   2.767   4.306  0.4377  0.2375 -0.8750
  724MOL0     C97667   0.100   2.896   4.274  0.6296  0.1185  0.5478
  724MOL0     C97668   0.141   2.957   4.144 -0.5212  1.1500  0.0766
  724MOL0     C97669   0.175   3.009   4.036  0.1794 -0.1010  0.1824
  724MOL0     C97670   0.249   2.330   4.439  1.1727 -0.3551 -0.2238
  724MOL0     C97671   0.300   2.227   4.515 -0.3001 -0.3157 -0.0440
  724MOL0     C97672   0.204   2.133   4.590  0.7598  0.1010  0.9870
  724MOL0     H97673   0.620   2.049   4.891 -1.1957 -1.7102 -0.3958
  724MOL0     H97674   0.794   1.902   4.989  3.5947 -1.9667  0.4455
  724MOL0     H97675   1.147   1.725   4.748 -1.3755 -0.5306  0.4762
  724MOL0     H97676   1.171   1.889   4.806  3.5351 -1.4908 -1.1242
  724MOL0     H97677   1.340   1.754   4.901  0.4477 -2.6895  0.7795
  724MOL0     H97678   1.238   1.648   4.976  0.2114 -0.0390  1.0259
  724MOL0     H97679   1.237   1.945   5.037 -1.3504 -1.0524 -0.9007
  724MOL0     H97680   1.352   1.820   5.103 -0.9042 -0.2552  2.7925
  724MOL0     H97681   1.047   1.831   5.147 -1.5119 -0.5470  2.3622
  724MOL0     H97682   1.156   1.707   5.194 -0.3228  0.3247  2.6592
  724MOL0     H97683   1.088   1.869   5.398  2.1731 -2.4172  1.5543
  724MOL0     H97684   1.255   1.872   5.374 -1.8711  0.0947  2.2801
  724MOL0     H97685   1.245   2.090   5.251  0.3883 -1.8309  0.0587
  724MOL0     H97686   1.066   2.091   5.239 -1.0881  1.1696  2.1102
  724MOL0     H97687   1.241   2.114   5.502 -1.3103  0.1181  2.9706
  724MOL0     H97688   1.073   2.069   5.511 -2.6921  4.5366  1.7757
  724MOL0     H97689   1.176   2.311   5.380  0.2592 -0.6848 -0.0172
  724MOL0     H97690   1.016   2.256   5.361  1.1281  1.0679  0.1781
  724MOL0     H97691   1.217   2.286   5.695 -0.8939 -2.4405  1.2696
  724MOL0     H97692   1.140   2.371   5.943  0.4145 -0.7292 -2.8027
  724MOL0     H97693   1.186   2.528   5.883  1.3182 -0.5875  1.8038
  724MOL0     H97694   0.945   2.597   5.917  1.0971 -0.9145 -1.5997
  724MOL0     H97695   0.914   2.437   5.997 -0.5236  1.1552  2.9983
  724MOL0     H97696   1.105   2.493   6.153 -1.6254 -0.5203  1.3508
  724MOL0     H97697   0.942   2.548   6.193 -0.7258  2.2613  1.0425
  724MOL0     H97698   1.070   2.730   6.248 -1.0037  0.9273 -0.9339
  724MOL0     H97699   0.987   2.779   6.103 -0.3598  2.2761  4.0471
  724MOL0     H97700   1.434   2.730   6.125  1.3154  0.4244 -1.2414
  724MOL0     H97701   1.560   2.908   6.230 -0.6311 -3.4857  1.2909
  724MOL0     H97702   1.390   3.263   6.629 -0.2490  1.1785  0.2883
  724MOL0     H97703   1.534   3.379   6.776  0.9359  2.2412 -0.0506
  724MOL0     H97704   1.771   3.734   6.596  0.4200 -3.2350 -0.3684
  724MOL0     H97705   1.633   3.784   6.692  0.1477  0.5821 -2.0255
  724MOL0     H97706   1.770   3.744   6.898  2.5391  1.4155  1.3189
  724MOL0     H97707   1.898   3.694   6.795  0.7382  1.9084 -0.3565
  724MOL0     H97708   1.906   3.918   6.695  1.0952  0.0870  1.6391
  724MOL0     H97709   1.763   3.967   6.761  0.9545  1.3710 -1.9939
  724MOL0     H97710   1.999   3.895   6.940 -1.5260  0.9959  3.9388
  724MOL0     H97711   1.853   3.990   6.976 -1.3483  2.3984 -1.8424
  724MOL0     H97712   2.082   4.077   6.778 -0.1510  3.2145 -1.0179
  724MOL0     H97713   2.067   4.133   6.940  0.9850  0.0199  0.0986
  724MOL0     H97714   1.890   4.179   6.695  2.3467 -0.8675 -0.4345
  724MOL0     H97715   1.840   4.219   6.864  1.1050  1.9501  0.6473
  724MOL0     H97716   2.082   4.325   6.712  0.5623  1.1364  1.5065
  724MOL0     H97717   2.055   4.359   6.880  2.8254 -0.0357 -0.7759
  724MOL0     H97718   1.814   4.457   6.797 -0.2950 -1.7875 -0.1106
  724MOL0     H97719   1.974   4.545   6.767  0.4622 -0.2915  0.6567
  724MOL0     H97720   1.693   3.615   6.454  0.2320  0.7491  0.7480
  724MOL0     H97721   1.572   3.472   6.291 -1.5556 -0.3370  0.2025
  724MOL0     H97722   1.242   3.183   6.164 -0.0055 -1.8246  4.4119
  724MOL0     H97723   1.103   2.998   6.088 -0.2461  2.0191  0.8152
  724MOL0     H97724   1.030   1.874   4.635  0.1569 -0.6563  0.7063
  724MOL0     H97725   0.842   2.021   4.515 -1.2151  3.7794  0.4226
  724MOL0     H97726   0.630   2.314   4.481 -0.2638  0.1372  0.3971
  724MOL0     H97727   0.536   2.464   4.313  2.0774 -0.4779  0.4261
  724MOL0     H97728   0.094   2.535   4.373 -0.5769  3.5444 -0.9315
  724MOL0     H97729   0.067   2.449   4.216 -2.4642  0.4239  0.6898
  724MOL0     H97730   0.002   2.673   4.188 -0.5379  0.6826  2.6477
  724MOL0     H97731   0.159   2.672   4.116  0.9400 -3.1681 -0.3052
  724MOL0     H97732   0.267   2.781   4.300  0.6862 -1.0763  0.0827
  724MOL0     H97733   0.135   2.750   4.411  1.1501 -0.6268 -0.8480
  724MOL0     H97734  -0.009   2.888   4.270  0.4565  2.1921 -0.3340
  724MOL0     H97735   0.104   2.960   4.363 -4.4173  0.8897  0.5156
  724MOL0     H97736   0.197   3.033   3.934  2.0930  1.0628  0.8200
  724MOL0     H97737   0.141   2.331   4.430  1.1420  0.0997  0.1393
  724MOL0     H97738   0.247   2.068   4.667 -0.6585  0.5003  2.1622
  724MOL0     H97739   0.118   2.190   4.627  1.2102 -0.0041  2.2403
  724MOL0     H97740   0.167   2.056   4.521  1.4744 -0.0064  0.7144
  725MOL0     O97741   1.062   2.596   7.129 -0.1053 -1.5442  0.5549
  725MOL0     C97742   0.941   2.607   7.147  0.8347 -0.1905  0.0007
  725MOL0     O97743   0.880   2.716   7.208  0.0050  1.0486  0.2477
  725MOL0     C97744   0.963   2.826   7.237  0.1477  0.7265  0.7801
  725MOL0     C97745   1.066   2.878   7.152 -0.5563  0.0050 -0.3333
  725MOL0     C97746   1.142   2.989   7.188  0.1483  0.0533 -0.1407
  725MOL0     C97747   1.100   3.058   7.303 -0.0853  0.0700 -0.0732
  725MOL0     O97748   1.178   3.167   7.340 -0.2788 -0.0804  0.0732
  725MOL0     C97749   1.115   3.273   7.414 -0.8050 -0.0700  0.2722
  725MOL0     C97750   1.031   3.344   7.318  0.5339  0.3055 -1.0081
  725MOL0     C97751   1.021   3.490   7.353 -0.1333 -0.2007 -0.4701
  725MOL0     C97752   0.905   3.554   7.278 -0.5670  0.1748  0.2765
  725MOL0     C97753   0.867   3.694   7.337  0.2009 -0.4131  0.5168
  725MOL0     C97754   0.720   3.733   7.306 -0.5335 -0.6943  0.7687
  725MOL0     C97755   0.611   3.633   7.354 -0.1792 -0.3361  0.0714
  725MOL0     C97756   0.470   3.678   7.308  0.1360  0.1777  0.4648
  725MOL0     N97757   0.356   3.604   7.370 -0.1414 -0.0140 -0.4832
  725MOL0     C97758   0.372   3.475   7.424 -0.1018  0.5027  0.8779
  725MOL0     C97759   0.241   3.456   7.469 -0.7853 -0.5188  0.7256
  725MOL0     C97760   0.204   3.342   7.556 -0.4466 -0.3925  0.2449
  725MOL0     C97761   0.230   3.355   7.704 -0.6460  0.3600 -0.7263
  725MOL0     C97762   0.158   3.230   7.767 -1.4952 -0.0962 -0.6376
  725MOL0     C97763   0.188   3.218   7.919  0.2229  0.6053  0.6142
  725MOL0     O97764   0.102   3.119   7.980 -0.7308 -0.0188 -0.7444
  725MOL0     C97765   0.121   3.104   8.113  0.1155  0.1279  0.2729
  725MOL0     C97766   0.034   3.016   8.165 -0.8637  0.2344 -0.2072
  725MOL0     C97767   0.031   2.983   8.293 -0.4188 -0.0443 -0.7335
  725MOL0     C97768   0.126   3.044   8.384 -0.2326  1.5899  0.8188
  725MOL0     C97769   0.107   3.028   8.530  0.6047  0.0232 -0.2874
  725MOL0     O97770   0.204   3.084   8.613 -0.1804  0.8155 -0.2466
  725MOL0     C97771   0.217   3.034   8.741 -0.6490  0.4161 -0.1001
  725MOL0     C97772   0.188   3.130   8.835  0.2439 -0.1586 -1.2120
  725MOL0     C97773   0.156   3.086   8.959 -0.6140  0.3806 -0.1702
  725MOL0     C97774   0.173   2.954   9.003 -0.9939 -0.4791  0.3597
  725MOL0     O97775   0.131   2.910   9.124  0.0676  0.1547 -0.7238
  725MOL0     C97776   0.142   3.001   9.232  0.7620 -0.1727 -1.1402
  725MOL0     C97777   0.077   2.945   9.361  0.3164  0.2670  0.5567
  725MOL0     C97778   0.075   3.044   9.473  0.2746  0.7684 -0.1180
  725MOL0     C97779   0.032   2.967   9.598 -0.9373  0.0252  0.8388
  725MOL0     C97780   0.160   2.918   9.680  0.5857  0.0881  0.5617
  725MOL0     C97781   0.117   2.833   9.799 -0.2768 -0.3937  0.0156
  725MOL0     C97782   0.229   2.787   9.895  0.0713  0.2053 -0.2181
  725MOL0     C97783   0.280   2.878  10.000  0.2659 -0.2626  0.0027
  725MOL0    Cl97784   0.372   3.021   9.935  0.1610 -0.0340 -0.2973
  725MOL0     C97785   0.210   2.860   8.908  0.5227  1.0273 -0.3065
  725MOL0     C97786   0.225   2.894   8.781 -0.8117 -0.6811 -0.6585
  725MOL0     O97787   0.009   2.973   8.572  0.0477  0.1174  1.2922
  725MOL0     C97788   0.222   3.125   8.335  0.3423 -0.7316  0.0042
  725MOL0     C97789   0.214   3.160   8.200 -0.1112  0.6104 -0.7642
  725MOL0     N97790   0.165   3.566   7.442  0.9496  0.1369 -0.5668
  725MOL0     N97791   0.238   3.657   7.387  0.0626  0.8038  0.2840
  725MOL0     C97792   0.999   3.012   7.386  0.4773 -0.4099 -0.6674
  725MOL0     C97793   0.927   2.897   7.350  0.4504  0.3729 -0.3921
  725MOL0     C97794   0.862   2.485   7.107 -0.9996  0.2278  0.5283
  725MOL0     C97795   0.921   2.374   7.036  0.7156  0.4657 -0.0658
  725MOL0     C97796   0.848   2.262   7.004  0.0138  0.2691  0.1680
  725MOL0     C97797   0.716   2.244   7.047 -0.2939 -0.3457 -0.5424
  725MOL0     O97798   0.628   2.136   7.020 -0.3512  0.4493 -0.4461
  725MOL0     C97799   0.683   2.001   7.007  0.2267  0.9653 -0.1668
  725MOL0     C97800   0.586   1.891   7.040 -0.2957 -0.2427 -0.7910
  725MOL0     C97801   0.469   1.878   6.939 -0.8136 -0.5437  1.4107
  725MOL0     C97802   0.392   1.750   6.948 -0.8771 -0.5861  0.2302
  725MOL0     C97803   0.257   1.760   6.899 -0.3741 -0.1432 -0.6785
  725MOL0     C97804   0.141   1.782   6.861 -0.4863  0.7389  1.2236
  725MOL0     C97805   0.662   2.351   7.116 -0.2016 -0.0079 -0.2633
  725MOL0     C97806   0.730   2.469   7.155  1.2546 -0.0399 -0.1009
  725MOL0     C97807   0.648   2.567   7.229  0.8010  0.5957 -0.5183
  725MOL0     H97808   1.082   2.829   7.056 -4.0606 -0.1613 -0.9477
  725MOL0     H97809   1.230   3.035   7.147  0.1188  0.0254 -0.2358
  725MOL0     H97810   1.063   3.249   7.506  1.8310  0.6462  2.0857
  725MOL0     H97811   1.206   3.328   7.442 -0.3880 -0.1431 -0.8755
  725MOL0     H97812   0.933   3.296   7.328  0.6924 -0.1469 -1.5451
  725MOL0     H97813   1.062   3.341   7.213  1.7470 -1.0631 -0.6265
  725MOL0     H97814   1.112   3.542   7.323 -0.3444  1.8572  2.0589
  725MOL0     H97815   1.001   3.505   7.460 -2.9105  0.5897 -1.0180
  725MOL0     H97816   0.947   3.571   7.178 -2.0733  0.3624 -0.3523
  725MOL0     H97817   0.831   3.478   7.255  0.3737 -0.6299 -0.1689
  725MOL0     H97818   0.880   3.691   7.446 -0.0981  5.5731  1.0520
  725MOL0     H97819   0.934   3.777   7.315  2.7721 -1.9183  2.1700
  725MOL0     H97820   0.702   3.824   7.364 -1.3312 -2.2268  3.0855
  725MOL0     H97821   0.702   3.737   7.198 -0.7934 -1.3010  0.7858
  725MOL0     H97822   0.606   3.610   7.461  0.3027  0.7752  0.3437
  725MOL0     H97823   0.611   3.537   7.302 -1.2046 -0.5081  0.3532
  725MOL0     H97824   0.454   3.784   7.333 -2.9039  0.1520 -0.8528
  725MOL0     H97825   0.465   3.679   7.199  1.2524  0.9504  0.3992
  725MOL0     H97826   0.460   3.412   7.426 -0.8372 -0.7012 -1.1455
  725MOL0     H97827   0.097   3.320   7.542  0.4022 -3.4593 -2.6068
  725MOL0     H97828   0.254   3.260   7.505  1.1632  1.9038 -2.1574
  725MOL0     H97829   0.333   3.357   7.739 -0.6323 -0.9031 -0.6550
  725MOL0     H97830   0.193   3.452   7.739  3.9268  2.9243 -2.1820
  725MOL0     H97831   0.208   3.144   7.722  1.2405 -0.1318  2.1515
  725MOL0     H97832   0.049   3.228   7.757 -1.7891 -2.5559  1.8347
  725MOL0     H97833   0.164   3.316   7.961 -1.4198  0.8745 -0.8324
  725MOL0     H97834   0.295   3.201   7.935 -0.2113 -1.0240  2.1385
  725MOL0     H97835  -0.036   2.969   8.096  1.0489 -2.6432 -0.3422
  725MOL0     H97836  -0.043   2.912   8.328  2.7813 -2.9290  0.8277
  725MOL0     H97837   0.185   3.234   8.804 -2.6144 -0.0978 -0.9752
  725MOL0     H97838   0.122   3.175   9.011  2.1235  3.0320 -2.4956
  725MOL0     H97839   0.245   3.033   9.248  0.7489 -0.2254 -0.9402
  725MOL0     H97840   0.082   3.091   9.217  1.0046  0.2449  0.2353
  725MOL0     H97841  -0.022   2.905   9.335  1.7662 -2.3889 -1.3902
  725MOL0     H97842   0.141   2.863   9.396 -0.3326  0.6042  2.6462
  725MOL0     H97843   0.176   3.084   9.485 -0.4607  3.3764 -1.7287
  725MOL0     H97844   0.011   3.125   9.438 -1.8530 -0.5186  0.5895
  725MOL0     H97845  -0.039   2.891   9.563 -0.9295  1.2204 -2.1358
  725MOL0     H97846  -0.032   3.028   9.662 -0.6371 -0.3669  1.5187
  725MOL0     H97847   0.214   3.002   9.723  1.7561 -0.7946  0.8910
  725MOL0     H97848   0.231   2.863   9.616 -2.4661 -1.4314 -1.7535
  725MOL0     H97849   0.057   2.898   9.863  0.7082  1.3121 -0.7231
  725MOL0     H97850   0.067   2.746   9.754 -1.8926  1.1788 -1.3368
  725MOL0     H97851   0.322   2.749   9.851  0.1392  0.2740 -0.1326
  725MOL0     H97852   0.174   2.708   9.946 -1.2015  1.0586 -0.2278
  725MOL0     H97853   0.195   2.901  10.065 -0.6592 -1.7663 -0.6084
  725MOL0     H97854   0.362   2.836  10.058  0.1491  0.6063  0.8199
  725MOL0     H97855   0.221   2.758   8.945 -1.2709  0.4625 -1.2366
  725MOL0     H97856   0.241   2.813   8.711  0.6125 -0.7102 -0.3290
  725MOL0     H97857   0.289   3.188   8.393 -0.6441  1.0547 -0.7292
  725MOL0     H97858   0.296   3.212   8.151  1.6154 -1.3815 -0.1121
  725MOL0     H97859   0.965   3.059   7.477  0.1757  2.8458 -2.3136
  725MOL0     H97860   0.839   2.870   7.407 -0.7401  2.5470 -1.0474
  725MOL0     H97861   1.024   2.376   7.003 -0.0209  1.7022 -2.5415
  725MOL0     H97862   0.900   2.175   6.964 -1.1377 -2.3376  3.8137
  725MOL0     H97863   0.752   1.986   7.090 -3.0387 -1.1169  2.3740
  725MOL0     H97864   0.734   1.978   6.913 -1.0869 -1.8217 -0.2759
  725MOL0     H97865   0.547   1.902   7.141  0.8629 -1.2939 -0.2031
  725MOL0     H97866   0.636   1.795   7.028 -1.7675 -1.2702  0.7886
  725MOL0     H97867   0.512   1.884   6.838 -3.2949 -0.8367  0.2381
  725MOL0     H97868   0.391   1.953   6.957 -1.1590 -0.2776 -0.8862
  725MOL0     H97869   0.448   1.671   6.896 -0.3855 -1.2294  1.6678
  725MOL0     H97870   0.386   1.709   7.049  4.2188 -0.2600  0.9354
  725MOL0     H97871   0.039   1.797   6.832 -0.4646 -2.2448 -0.8514
  725MOL0     H97872   0.557   2.347   7.146  0.7593 -2.9404  3.4149
  725MOL0     H97873   0.648   2.657   7.167 -1.9703 -0.0851 -1.6219
  725MOL0     H97874   0.541   2.547   7.235  0.6447  1.7708  2.4371
  725MOL0     H97875   0.693   2.576   7.329 -1.0511 -2.2504  0.6937
  726MOL0     O97876   2.199   7.557   3.752  0.5086  0.6062 -0.1605
  726MOL0     C97877   2.240   7.503   3.646  0.5886  1.1451  0.8773
  726MOL0     O97878   2.361   7.503   3.600 -1.0197  0.2777 -0.8614
  726MOL0     C97879   2.461   7.586   3.651  0.4625  0.6477 -0.5341
  726MOL0     C97880   2.439   7.711   3.703 -1.2659  0.5428 -0.0591
  726MOL0     C97881   2.546   7.793   3.724 -0.5716 -1.1703  0.5056
  726MOL0     C97882   2.681   7.747   3.714  0.6143 -0.5372  0.7177
  726MOL0     O97883   2.798   7.810   3.726 -0.5520  0.6706  0.0128
  726MOL0     C97884   2.809   7.924   3.816 -0.1448  0.6122  0.4432
  726MOL0     C97885   2.954   7.950   3.850  0.1598 -0.5913  0.0982
  726MOL0     C97886   3.022   7.986   3.713  0.3721 -0.0519  0.6672
  726MOL0     C97887   3.164   8.020   3.736  0.2105  0.3283 -0.7120
  726MOL0     C97888   3.234   8.052   3.612 -0.6791  0.0712  0.0616
  726MOL0     C97889   3.380   8.003   3.625  0.1084 -0.2844  0.2032
  726MOL0     C97890   3.402   7.862   3.604  0.5773 -0.3327 -0.1992
  726MOL0     C97891   3.550   7.839   3.596 -0.1403 -0.2129  0.5784
  726MOL0     N97892   3.575   7.693   3.582 -0.2463  0.9338  0.4867
  726MOL0     C97893   3.557   7.599   3.679 -0.4449  0.2801  0.9083
  726MOL0     C97894   3.594   7.479   3.623 -0.8703 -0.2635  0.0322
  726MOL0     C97895   3.612   7.349   3.698  0.8259 -0.9222  0.8894
  726MOL0     C97896   3.738   7.274   3.663 -1.5486  0.8521  0.0814
  726MOL0     C97897   3.863   7.356   3.694 -0.6779  0.1667  0.1192
  726MOL0     C97898   3.989   7.282   3.635 -0.3415  0.7527 -0.4940
  726MOL0     O97899   4.019   7.162   3.711  0.8248 -0.3694  0.0604
  726MOL0     C97900   4.109   7.067   3.668  0.5942 -0.0103 -0.4106
  726MOL0     C97901   4.116   6.948   3.740  0.0137  0.6613 -0.6634
  726MOL0     C97902   4.215   6.850   3.703  0.1842  0.0844 -0.1643
  726MOL0     C97903   4.302   6.877   3.586  0.6869  0.3330 -0.3122
  726MOL0     C97904   4.403   6.775   3.541  0.3027 -0.5027  0.4300
  726MOL0     O97905   4.422   6.663   3.611 -0.1643  0.0515 -0.2927
  726MOL0     C97906   4.513   6.577   3.576  0.2707 -0.1719 -0.0654
  726MOL0     C97907   4.631   6.554   3.636 -0.2931  0.8555 -0.1204
  726MOL0     C97908   4.719   6.445   3.599  0.6273 -0.8771 -0.9097
  726MOL0     C97909   4.686   6.357   3.502 -0.6563 -0.9881 -0.2697
  726MOL0     O97910   4.761   6.244   3.485 -0.3449  0.9067 -0.4612
  726MOL0     C97911   4.711   6.135   3.395  0.2173 -0.2805 -0.1702
  726MOL0     C97912   4.799   6.005   3.384  0.4444 -0.1340 -0.6650
  726MOL0     C97913   4.939   6.043   3.317 -0.6089 -0.9796 -0.9914
  726MOL0     C97914   4.942   6.057   3.163  0.6959  0.0648 -0.4438
  726MOL0     C97915   4.960   5.919   3.106 -0.6576  0.3502 -0.1033
  726MOL0     C97916   5.006   5.937   2.958  0.5867 -0.4834 -0.5080
  726MOL0     C97917   5.003   5.808   2.875 -0.2984  0.4983  0.1700
  726MOL0     C97918   5.047   5.835   2.733  0.5779 -0.3712 -1.1090
  726MOL0    Cl97919   4.918   5.934   2.645  0.5970 -0.1178 -0.6101
  726MOL0     C97920   4.562   6.367   3.443 -0.1751 -0.6759 -0.5516
  726MOL0     C97921   4.486   6.479   3.485 -0.2728 -0.0011 -0.1933
  726MOL0     O97922   4.451   6.805   3.435 -0.1727 -0.1015  0.4757
  726MOL0     C97923   4.290   7.008   3.523  0.0653  0.0049  0.1445
  726MOL0     C97924   4.197   7.102   3.563 -0.2927 -0.3998 -0.3738
  726MOL0     N97925   3.623   7.511   3.492 -0.0152 -0.0208 -0.6835
  726MOL0     N97926   3.605   7.637   3.464  0.6100  0.3482  0.2482
  726MOL0     C97927   2.699   7.613   3.661  0.9031  0.2992  0.9595
  726MOL0     C97928   2.589   7.539   3.618 -0.0796 -0.0543 -1.0158
  726MOL0     C97929   2.141   7.435   3.552  0.2684 -0.2884 -0.4185
  726MOL0     C97930   2.150   7.472   3.416 -0.6356  0.1007  0.6282
  726MOL0     C97931   2.066   7.408   3.326 -0.0559  0.7790  0.8415
  726MOL0     C97932   1.974   7.318   3.365 -1.4642 -0.0369  0.4021
  726MOL0     O97933   1.914   7.257   3.262  0.0642  0.2673 -0.2628
  726MOL0     C97934   1.799   7.172   3.289  0.0378  0.2042  0.3704
  726MOL0     C97935   1.726   7.131   3.166  0.3450 -0.3854 -0.0317
  726MOL0     C97936   1.686   7.252   3.092  0.4110  0.5365 -0.2061
  726MOL0     C97937   1.616   7.215   2.965 -1.2642  0.0566  0.7806
  726MOL0     C97938   1.595   7.341   2.886  0.5495  0.2683 -0.5855
  726MOL0     C97939   1.571   7.437   2.818 -0.1465  0.2366  0.1019
  726MOL0     C97940   1.975   7.277   3.490  0.6979  0.6846  0.6469
  726MOL0     C97941   2.046   7.333   3.587 -0.3032 -0.1509  0.2578
  726MOL0     C97942   2.043   7.278   3.727 -0.6732  0.3056  0.1788
  726MOL0     H97943   2.335   7.743   3.710 -3.5749 -5.4150 -1.2516
  726MOL0     H97944   2.518   7.894   3.754 -1.1540 -0.1334 -3.0616
  726MOL0     H97945   2.765   8.014   3.773 -1.0236 -0.1350 -0.2493
  726MOL0     H97946   2.751   7.906   3.907  1.5611  1.2676  1.7435
  726MOL0     H97947   3.006   7.864   3.894  0.1703 -0.9101 -0.5375
  726MOL0     H97948   2.957   8.034   3.921  0.9026  1.3144 -2.0929
  726MOL0     H97949   2.974   8.071   3.664  2.4497  0.9262  0.2300
  726MOL0     H97950   3.019   7.898   3.647  0.3374  2.4406 -2.9146
  726MOL0     H97951   3.166   8.109   3.799  1.7105 -0.4368  0.3976
  726MOL0     H97952   3.213   7.942   3.795 -0.0304  0.9203  0.2884
  726MOL0     H97953   3.188   7.995   3.530  0.9912 -1.1522 -0.0945
  726MOL0     H97954   3.224   8.160   3.604 -0.8382  0.4361  3.7113
  726MOL0     H97955   3.444   8.059   3.556  2.7408 -2.7695  0.4318
  726MOL0     H97956   3.427   8.030   3.720  0.3549 -1.2088  0.3569
  726MOL0     H97957   3.360   7.825   3.510 -2.8546  0.2990  0.9713
  726MOL0     H97958   3.351   7.798   3.677 -0.9121  0.5266 -0.4536
  726MOL0     H97959   3.577   7.899   3.509 -1.3796 -0.3473  0.0941
  726MOL0     H97960   3.609   7.879   3.680 -1.4955  0.2554  1.3481
  726MOL0     H97961   3.518   7.618   3.779 -1.6356  0.8840  0.3593
  726MOL0     H97962   3.631   7.371   3.804  1.1708 -3.4193  1.3987
  726MOL0     H97963   3.528   7.281   3.687 -1.6135  1.7539  1.7660
  726MOL0     H97964   3.750   7.185   3.726  1.4590  0.6281 -0.6599
  726MOL0     H97965   3.735   7.244   3.557  0.4875 -0.9373  0.4559
  726MOL0     H97966   3.869   7.382   3.800  1.8670 -0.2702  0.1573
  726MOL0     H97967   3.866   7.443   3.627  3.1165 -0.3730 -0.6881
  726MOL0     H97968   4.082   7.339   3.639 -0.9380  1.6618  2.7908
  726MOL0     H97969   3.974   7.247   3.532 -0.5858 -0.0474 -0.1931
  726MOL0     H97970   4.040   6.908   3.806 -0.3101 -1.2334 -2.0764
  726MOL0     H97971   4.222   6.763   3.768  2.2139 -2.4374 -3.4100
  726MOL0     H97972   4.661   6.620   3.717 -0.0054  1.5850 -0.8031
  726MOL0     H97973   4.811   6.428   3.654 -0.8961 -0.7234  1.8918
  726MOL0     H97974   4.610   6.108   3.426 -0.6169  2.8377  0.0834
  726MOL0     H97975   4.702   6.165   3.290 -0.9152 -1.3903 -0.4246
  726MOL0     H97976   4.813   5.963   3.484 -1.7347 -2.0587 -1.0876
  726MOL0     H97977   4.746   5.923   3.334 -1.8187  0.9161 -0.1282
  726MOL0     H97978   4.970   6.144   3.347 -1.6256  1.2677 -6.3377
  726MOL0     H97979   5.018   5.976   3.352 -1.2835 -0.1331  2.5592
  726MOL0     H97980   5.023   6.125   3.135 -0.2113  1.5721  0.4795
  726MOL0     H97981   4.849   6.098   3.122  0.6549 -2.4629 -3.2372
  726MOL0     H97982   4.875   5.851   3.112  1.7729 -2.8041  1.4830
  726MOL0     H97983   5.036   5.861   3.159 -0.7718  0.3144  0.0209
  726MOL0     H97984   4.943   6.010   2.906  2.4477  0.2789 -1.7695
  726MOL0     H97985   5.105   5.982   2.964 -0.1644  1.1608  0.9002
  726MOL0     H97986   4.900   5.770   2.872  0.2904 -2.0696  4.0522
  726MOL0     H97987   5.059   5.727   2.923 -2.4254 -0.9201  0.3825
  726MOL0     H97988   5.145   5.882   2.722  1.8282 -1.8986  2.2630
  726MOL0     H97989   5.044   5.733   2.693  0.5722 -0.2040 -1.5467
  726MOL0     H97990   4.519   6.290   3.379 -0.6767  0.2664 -1.3753
  726MOL0     H97991   4.388   6.490   3.439  0.7904  0.9048 -2.3735
  726MOL0     H97992   4.364   7.022   3.445 -1.1753  2.8757 -0.6446
  726MOL0     H97993   4.213   7.198   3.514  2.3793 -1.2350 -1.3412
  726MOL0     H97994   2.798   7.581   3.628  0.3095  0.4457 -1.0874
  726MOL0     H97995   2.599   7.441   3.573 -0.2511  0.1965 -1.6120
  726MOL0     H97996   2.210   7.551   3.374 -1.7108 -0.0326 -1.2847
  726MOL0     H97997   2.093   7.431   3.224  2.2199  1.8269  1.6137
  726MOL0     H97998   1.726   7.217   3.357  0.0015  0.2106  0.3267
  726MOL0     H97999   1.830   7.080   3.338  2.2437  0.3681 -0.6056
  726MOL0     H98000   1.643   7.064   3.190  1.4090 -1.5697  0.4265
  726MOL0     H98001   1.797   7.074   3.106  0.3217  3.4771 -4.2580
  726MOL0     H98002   1.774   7.308   3.059  0.2811  2.5750  2.5085
  726MOL0     H98003   1.629   7.324   3.152  0.8172  0.7492 -0.0689
  726MOL0     H98004   1.691   7.154   2.913  0.5149  1.2947  1.8103
  726MOL0     H98005   1.522   7.161   2.980  0.0389 -3.3460 -1.9817
  726MOL0     H98006   1.542   7.516   2.752  0.0942  0.5129  0.3280
  726MOL0     H98007   1.900   7.203   3.516 -0.1166  1.5330  0.7878
  726MOL0     H98008   2.144   7.277   3.768 -0.0862 -0.0959 -1.2146
  726MOL0     H98009   1.977   7.337   3.792 -1.7381 -0.1495 -0.4471
  726MOL0     H98010   2.010   7.174   3.717  2.3622 -0.6066 -1.6540
  727MOL0     O98011   7.697   7.428   7.584  0.0741 -0.1604  0.4174
  727MOL0     C98012   7.600   7.510   7.570 -0.1491 -0.1691  0.4024
  727MOL0     O98013   7.469   7.478   7.571  0.1419 -0.5923  0.2485
  727MOL0     C98014   7.431   7.346   7.597  0.3544  0.6507  0.3308
  727MOL0     C98015   7.371   7.264   7.502  0.5305 -0.1481  0.6709
  727MOL0     C98016   7.329   7.138   7.547  0.0845 -0.6836 -0.4524
  727MOL0     C98017   7.360   7.083   7.673  0.8325  0.1561  0.1099
  727MOL0     O98018   7.313   6.959   7.717 -0.4889 -0.3376  0.5942
  727MOL0     C98019   7.301   6.855   7.613  0.4042 -0.5088 -1.1358
  727MOL0     C98020   7.256   6.716   7.668 -0.0757  0.1727  0.0071
  727MOL0     C98021   7.367   6.627   7.725 -0.3162 -0.4055  0.3703
  727MOL0     C98022   7.441   6.691   7.848 -0.5366 -0.2093 -0.7127
  727MOL0     C98023   7.504   6.578   7.946  0.0579 -0.0038  0.0407
  727MOL0     C98024   7.403   6.475   7.994 -0.2574 -0.3240 -0.7249
  727MOL0     C98025   7.453   6.412   8.125  0.7185 -0.2518  0.6924
  727MOL0     C98026   7.604   6.358   8.109  0.3273 -0.5141 -0.5954
  727MOL0     N98027   7.620   6.257   8.221 -0.2208 -0.0524  0.7133
  727MOL0     C98028   7.693   6.276   8.334  0.8574 -0.7682  0.0984
  727MOL0     C98029   7.705   6.152   8.393 -0.4789  0.8420  0.1097
  727MOL0     C98030   7.778   6.124   8.521  0.6035  0.3561 -0.1504
  727MOL0     C98031   7.874   6.006   8.525 -0.6294  0.1041  0.5499
  727MOL0     C98032   7.936   5.987   8.665  0.9561 -0.0854 -0.2208
  727MOL0     C98033   8.007   5.863   8.679 -0.5086  0.3063  0.6218
  727MOL0     O98034   7.940   5.737   8.636 -0.3240 -0.1195 -0.0818
  727MOL0     C98035   8.001   5.620   8.671 -0.1745 -0.2132  0.6482
  727MOL0     C98036   7.940   5.495   8.641  0.3813 -0.1853  1.0999
  727MOL0     C98037   7.989   5.375   8.678  0.2445  0.7113 -0.5015
  727MOL0     C98038   8.113   5.369   8.740 -1.7118  0.3043  0.4557
  727MOL0     C98039   8.179   5.244   8.786 -0.1903  0.5035  0.8739
  727MOL0     O98040   8.101   5.136   8.783  0.8021  0.1736  0.1753
  727MOL0     C98041   8.162   5.014   8.795  1.2930  0.0631  0.5946
  727MOL0     C98042   8.215   4.975   8.913 -0.3826 -0.0287  0.4911
  727MOL0     C98043   8.260   4.845   8.935 -0.3585  0.0283 -0.6691
  727MOL0     C98044   8.236   4.758   8.830  0.2192 -0.6524  0.9262
  727MOL0     O98045   8.255   4.626   8.851 -0.7677 -0.6692 -0.2117
  727MOL0     C98046   8.164   4.570   8.943  0.3581 -1.0614 -0.6735
  727MOL0     C98047   8.238   4.470   9.024  0.7033  0.1568  0.4846
  727MOL0     C98048   8.148   4.371   9.092 -0.0696 -0.4222  0.1876
  727MOL0     C98049   8.242   4.279   9.176 -0.7315 -0.3257  0.1190
  727MOL0     C98050   8.163   4.172   9.255 -0.0231 -0.0903  0.0521
  727MOL0     C98051   8.208   4.095   9.375  0.4144  1.3188  0.3160
  727MOL0     C98052   8.345   4.029   9.339  0.5821 -0.7548 -0.1317
  727MOL0     C98053   8.406   3.980   9.475  0.5658 -0.9743  0.9707
  727MOL0    Cl98054   8.453   4.127   9.578  0.7052 -0.1332 -0.1773
  727MOL0     C98055   8.183   4.795   8.706  0.7882  0.1839 -0.6589
  727MOL0     C98056   8.143   4.923   8.684  0.0957  0.1646  0.3755
  727MOL0     O98057   8.298   5.249   8.825  0.1257 -0.2123  0.4357
  727MOL0     C98058   8.181   5.487   8.765  0.7702  0.1469  0.8457
  727MOL0     C98059   8.127   5.612   8.728 -0.6092 -0.5679 -0.0632
  727MOL0     N98060   7.661   6.062   8.302 -0.1336 -0.4101  0.0119
  727MOL0     N98061   7.599   6.122   8.209 -0.3300  0.5892  1.1760
  727MOL0     C98062   7.431   7.156   7.757  0.1710  0.6706 -0.0877
  727MOL0     C98063   7.464   7.287   7.726  0.8214  0.2502 -0.6824
  727MOL0     C98064   7.641   7.655   7.535  0.2882 -0.2131 -0.4848
  727MOL0     C98065   7.534   7.749   7.533 -0.5842 -0.3509  0.4774
  727MOL0     C98066   7.558   7.877   7.503  0.0999  0.9217  0.5846
  727MOL0     C98067   7.679   7.931   7.486 -0.3305 -0.1265 -0.1502
  727MOL0     O98068   7.678   8.067   7.468  0.9693  0.6071  0.0282
  727MOL0     C98069   7.744   8.132   7.577  0.2798 -0.9858  0.0665
  727MOL0     C98070   7.680   8.115   7.712  1.1768  0.3347 -0.3250
  727MOL0     C98071   7.531   8.171   7.711  0.1253 -0.5043  0.1384
  727MOL0     C98072   7.525   8.321   7.712  0.6419  0.5002 -0.4617
  727MOL0     C98073   7.388   8.363   7.749  0.2679 -0.4452  0.5435
  727MOL0     C98074   7.268   8.394   7.778 -0.2887  1.4301  0.0583
  727MOL0     C98075   7.784   7.844   7.477 -0.2746  0.6954  0.0511
  727MOL0     C98076   7.769   7.704   7.516  0.3664 -0.4053 -0.4026
  727MOL0     C98077   7.896   7.619   7.519  0.3786 -0.2623 -0.2636
  727MOL0     H98078   7.360   7.304   7.402 -0.3956  3.0383  1.9239
  727MOL0     H98079   7.259   7.092   7.478 -2.4207 -2.4122  2.9773
  727MOL0     H98080   7.226   6.904   7.550 -1.1224  0.9007  1.5921
  727MOL0     H98081   7.388   6.840   7.549 -0.9526 -0.1584 -3.1685
  727MOL0     H98082   7.206   6.667   7.584  1.9656 -0.6310 -0.7933
  727MOL0     H98083   7.189   6.737   7.752  2.5993  3.3633  1.5741
  727MOL0     H98084   7.434   6.615   7.640  0.3701  0.2192  0.8053
  727MOL0     H98085   7.329   6.528   7.748 -2.2904  0.9235  3.5468
  727MOL0     H98086   7.518   6.746   7.795 -0.8134  1.2560  0.3508
  727MOL0     H98087   7.373   6.760   7.898 -1.0255  0.1456 -1.8472
  727MOL0     H98088   7.575   6.529   7.878 -0.1855  0.8959 -0.8809
  727MOL0     H98089   7.548   6.633   8.029 -0.4487 -1.8148  1.6011
  727MOL0     H98090   7.303   6.516   8.009  0.7814  3.2615 -2.4724
  727MOL0     H98091   7.393   6.396   7.919  1.8018  1.3329 -2.9247
  727MOL0     H98092   7.403   6.317   8.146  3.3307 -1.2741  2.9704
  727MOL0     H98093   7.440   6.482   8.209  1.6856  2.1928 -1.0736
  727MOL0     H98094   7.620   6.310   8.012  2.6441  1.2163 -1.1414
  727MOL0     H98095   7.676   6.440   8.112  1.6448 -1.5108  4.3307
  727MOL0     H98096   7.747   6.359   8.377  0.5643 -1.4852  1.9227
  727MOL0     H98097   7.832   6.212   8.560 -0.6959  0.8303  0.6275
  727MOL0     H98098   7.695   6.105   8.589  1.6113  0.8913  1.2942
  727MOL0     H98099   7.830   5.911   8.492 -0.8519  0.6341 -0.7414
  727MOL0     H98100   7.957   6.025   8.457 -0.5506  4.7547  1.6680
  727MOL0     H98101   7.863   5.982   8.747 -0.4775 -1.6787 -1.4952
  727MOL0     H98102   7.991   6.075   8.696  1.5326 -1.5278  3.3077
  727MOL0     H98103   8.040   5.846   8.782 -0.1715 -4.6485 -0.0247
  727MOL0     H98104   8.095   5.879   8.615 -0.8526  1.4465  0.4204
  727MOL0     H98105   7.844   5.502   8.590  0.1073 -1.3720  1.4262
  727MOL0     H98106   7.921   5.294   8.653 -0.0715  0.1625  1.8774
  727MOL0     H98107   8.229   5.057   8.983  2.8455  0.7963 -0.9096
  727MOL0     H98108   8.308   4.821   9.029 -0.3456 -0.8888 -0.9041
  727MOL0     H98109   8.121   4.640   9.016  0.6689 -2.2627  0.7191
  727MOL0     H98110   8.088   4.521   8.882  2.9777 -2.0445 -3.4054
  727MOL0     H98111   8.319   4.418   8.972  2.9806  1.8656  2.1233
  727MOL0     H98112   8.291   4.527   9.101  0.8247  2.5338 -1.2261
  727MOL0     H98113   8.073   4.419   9.156 -0.1612  1.2473 -1.1090
  727MOL0     H98114   8.088   4.318   9.018 -1.2698  0.8176  0.2251
  727MOL0     H98115   8.299   4.343   9.245  1.6729 -0.9806 -1.1213
  727MOL0     H98116   8.315   4.235   9.107 -1.3945  0.5449 -1.1779
  727MOL0     H98117   8.129   4.098   9.181  0.2373  2.5191 -2.8979
  727MOL0     H98118   8.068   4.218   9.283 -1.2164 -0.4675 -2.9026
  727MOL0     H98119   8.220   4.158   9.463 -2.2263  1.3440  0.7372
  727MOL0     H98120   8.136   4.014   9.392  0.5524  1.0095 -0.5115
  727MOL0     H98121   8.406   4.104   9.287 -0.0730 -0.0054  0.1526
  727MOL0     H98122   8.349   3.947   9.267  2.7747  0.6867 -1.7831
  727MOL0     H98123   8.337   3.915   9.531 -0.1360 -0.4807  0.6970
  727MOL0     H98124   8.495   3.918   9.463  0.5627 -1.0685  1.4238
  727MOL0     H98125   8.163   4.720   8.630 -0.2607  1.3947 -1.6521
  727MOL0     H98126   8.094   4.944   8.590  0.0622 -0.2236  0.3027
  727MOL0     H98127   8.279   5.502   8.810  0.7663 -1.7990  1.6210
  727MOL0     H98128   8.180   5.703   8.755 -2.6920  0.5649  0.4244
  727MOL0     H98129   7.460   7.121   7.855  0.2663 -0.6399 -0.5534
  727MOL0     H98130   7.493   7.355   7.805  0.1616  1.1369 -1.1825
  727MOL0     H98131   7.434   7.731   7.570 -0.2697 -0.7399  1.1516
  727MOL0     H98132   7.471   7.940   7.491  0.6157  1.8977  1.7569
  727MOL0     H98133   7.747   8.238   7.549 -0.0424 -0.5271  1.6329
  727MOL0     H98134   7.847   8.098   7.592  0.8752 -1.0467 -3.4480
  727MOL0     H98135   7.742   8.168   7.785 -0.9140  2.4277  0.0543
  727MOL0     H98136   7.670   8.009   7.738 -0.4135  0.9823  2.0163
  727MOL0     H98137   7.496   8.128   7.806  0.1976  0.2569  0.5219
  727MOL0     H98138   7.474   8.125   7.630  2.0163 -1.8440 -0.4934
  727MOL0     H98139   7.598   8.356   7.787 -1.9210  0.4143  2.2483
  727MOL0     H98140   7.543   8.363   7.613 -1.6550 -0.1993 -1.2368
  727MOL0     H98141   7.162   8.407   7.787 -1.2830 -2.9477 -2.4850
  727MOL0     H98142   7.885   7.875   7.452 -0.3005 -0.3448 -1.5165
  727MOL0     H98143   7.883   7.537   7.448  3.0189 -1.4775  0.5603
  727MOL0     H98144   7.979   7.685   7.494  0.2834  0.2078  0.6165
  727MOL0     H98145   7.905   7.581   7.621 -1.9165 -0.7926 -0.2080
  728MOL0     O98146   0.720   0.179   7.258 -0.9189 -0.0676  0.3510
  728MOL0     C98147   0.828   0.214   7.199 -0.3001 -0.5465 -0.5781
  728MOL0     O98148   0.867   0.349   7.173 -0.4433  0.1629 -0.4610
  728MOL0     C98149   0.793   0.455   7.226 -0.1916 -0.2408 -0.2946
  728MOL0     C98150   0.807   0.504   7.357 -0.8968 -0.2495  0.2203
  728MOL0     C98151   0.727   0.613   7.396  0.4736  0.1580 -0.5993
  728MOL0     C98152   0.614   0.648   7.325 -0.0298 -0.1633 -0.4335
  728MOL0     O98153   0.525   0.750   7.353 -0.7664 -0.9696  0.6001
  728MOL0     C98154   0.566   0.877   7.285 -0.0137  0.0578 -0.6325
  728MOL0     C98155   0.493   0.990   7.341 -0.2309  1.4589 -0.2098
  728MOL0     C98156   0.342   1.005   7.298 -0.3468 -0.8085 -0.0861
  728MOL0     C98157   0.324   1.117   7.193  0.2122 -0.9044  0.0079
  728MOL0     C98158   0.184   1.124   7.139 -0.4679 -0.0294  0.3069
  728MOL0     C98159   0.144   1.005   7.063  0.3556 -0.6245  0.1003
  728MOL0     C98160   0.038   1.031   6.948  0.0642  0.0731 -0.6568
  728MOL0     C98161  -0.021   0.909   6.878  0.1433 -0.0443  0.1207
  728MOL0     N98162  -0.130   0.940   6.782 -0.6989 -0.3062 -0.2786
  728MOL0     C98163  -0.263   0.919   6.797 -0.2656  0.7968 -0.4114
  728MOL0     C98164  -0.319   0.980   6.682 -0.0058 -0.5785  0.6178
  728MOL0     C98165  -0.467   1.012   6.660 -0.3873  0.3895  1.0088
  728MOL0     C98166  -0.566   0.916   6.734 -0.9072 -0.1117 -0.1095
  728MOL0     C98167  -0.577   0.771   6.674 -0.7924 -0.1712 -0.8745
  728MOL0     C98168  -0.679   0.766   6.559  0.1314  0.8789 -0.2515
  728MOL0     O98169  -0.811   0.772   6.619 -0.3920  0.5130 -0.9012
  728MOL0     C98170  -0.919   0.760   6.534  1.2546 -0.9699  0.0832
  728MOL0     C98171  -1.046   0.791   6.593  0.5658 -0.2121  0.5532
  728MOL0     C98172  -1.163   0.805   6.514 -0.4723  0.0641  0.9528
  728MOL0     C98173  -1.157   0.783   6.371  0.4244 -0.3164 -0.2709
  728MOL0     C98174  -1.285   0.803   6.299 -0.2687  0.7102 -0.8511
  728MOL0     O98175  -1.298   0.739   6.175 -1.2134  0.3717  0.5770
  728MOL0     C98176  -1.420   0.732   6.111  0.5843  0.0623  0.4712
  728MOL0     C98177  -1.549   0.774   6.151  1.2822  0.9242 -0.2904
  728MOL0     C98178  -1.663   0.780   6.072 -0.3166 -0.6145 -0.1382
  728MOL0     C98179  -1.660   0.733   5.938  0.0164 -0.9080 -0.8494
  728MOL0     O98180  -1.759   0.735   5.840  0.4016  1.1273 -0.2681
  728MOL0     C98181  -1.905   0.701   5.872 -1.3941 -0.4979  0.3653
  728MOL0     C98182  -1.992   0.719   5.752  0.8046  0.5831  0.1444
  728MOL0     C98183  -1.950   0.610   5.644 -0.4098 -0.9735  0.7076
  728MOL0     C98184  -2.043   0.614   5.517 -0.5144  0.0498 -1.1351
  728MOL0     C98185  -1.974   0.525   5.405 -0.4361  0.6224 -0.6232
  728MOL0     C98186  -2.062   0.480   5.288 -0.2827 -1.3634  0.6042
  728MOL0     C98187  -2.173   0.382   5.342  0.1577 -0.2620 -1.0669
  728MOL0     C98188  -2.303   0.374   5.262 -0.2353 -0.7012 -0.0814
  728MOL0    Cl98189  -2.304   0.257   5.128  0.0347 -0.4438 -0.0028
  728MOL0     C98190  -1.532   0.683   5.892  0.4277 -0.2220  0.5434
  728MOL0     C98191  -1.416   0.692   5.980 -0.1400 -0.6029 -0.0036
  728MOL0     O98192  -1.358   0.894   6.340 -0.6059  0.0264 -0.0188
  728MOL0     C98193  -1.035   0.762   6.314 -1.1938  0.6752  0.2242
  728MOL0     C98194  -0.919   0.751   6.388  0.1384  0.5160 -1.1229
  728MOL0     N98195  -0.210   1.041   6.602 -0.6019 -0.0789 -0.5670
  728MOL0     N98196  -0.107   1.019   6.676  0.0461 -0.0163  0.0580
  728MOL0     C98197   0.598   0.592   7.199  1.0202  0.2092  1.0874
  728MOL0     C98198   0.683   0.493   7.149 -0.1758  0.0747  0.2458
  728MOL0     C98199   0.908   0.113   7.129  0.1816 -0.1671  0.2700
  728MOL0     C98200   0.934   0.128   6.990  0.2461  0.5591 -0.3470
  728MOL0     C98201   0.996   0.022   6.919 -0.2204 -0.3299 -0.5064
  728MOL0     C98202   1.056  -0.089   6.985 -0.4790 -0.2862 -0.2887
  728MOL0     O98203   1.123  -0.189   6.914  0.0624 -1.1312  0.0807
  728MOL0     C98204   1.127  -0.325   6.971  0.1875  0.5515  0.7181
  728MOL0     C98205   1.190  -0.416   6.866  0.6106  0.7539  0.4620
  728MOL0     C98206   1.342  -0.395   6.868  0.2516 -0.0938  0.4127
  728MOL0     C98207   1.426  -0.499   6.789 -0.2513 -0.3458 -0.5864
  728MOL0     C98208   1.413  -0.496   6.645 -0.3067  1.2420  0.1562
  728MOL0     C98209   1.413  -0.494   6.521  0.0180 -0.7497  0.1649
  728MOL0     C98210   1.035  -0.110   7.128 -0.1229 -0.4502  0.1289
  728MOL0     C98211   0.970  -0.005   7.200  0.4775 -0.1523  0.6596
  728MOL0     C98212   0.948  -0.022   7.351 -0.3233  0.5079 -0.0893
  728MOL0     H98213   0.893   0.486   7.421 -0.3449 -2.8942 -1.1573
  728MOL0     H98214   0.728   0.663   7.492 -1.0154 -0.6536 -0.1250
  728MOL0     H98215   0.673   0.893   7.302  0.3422 -2.5405  0.0327
  728MOL0     H98216   0.547   0.878   7.178  0.7514  1.8855 -0.7905
  728MOL0     H98217   0.544   1.083   7.314 -0.1952  1.8714  1.1711
  728MOL0     H98218   0.504   0.978   7.449  1.1365  0.6549 -0.4143
  728MOL0     H98219   0.287   1.022   7.391 -0.8807 -4.3920  0.3913
  728MOL0     H98220   0.296   0.910   7.271  1.5295 -2.8579  3.1647
  728MOL0     H98221   0.333   1.215   7.241  1.4755 -0.0419 -1.8697
  728MOL0     H98222   0.405   1.090   7.125  0.3452 -1.8576  0.5242
  728MOL0     H98223   0.105   1.145   7.212 -3.0794  1.0947 -2.5922
  728MOL0     H98224   0.170   1.207   7.069 -0.8360 -1.8601 -1.9296
  728MOL0     H98225   0.230   0.956   7.017 -1.7587 -1.8551 -2.8137
  728MOL0     H98226   0.097   0.928   7.126 -1.9014  0.8535  0.3631
  728MOL0     H98227   0.087   1.079   6.863 -1.2205  1.6702 -0.5556
  728MOL0     H98228  -0.033   1.105   6.985 -1.1215 -1.6330  0.6547
  728MOL0     H98229   0.059   0.847   6.838 -1.0713 -2.6458  1.4841
  728MOL0     H98230  -0.064   0.858   6.966 -2.7878  0.8726 -0.6603
  728MOL0     H98231  -0.312   0.875   6.883  1.6777 -0.9757 -0.1584
  728MOL0     H98232  -0.495   1.111   6.695 -0.4328  0.3590  1.0579
  728MOL0     H98233  -0.483   1.021   6.552 -0.7707 -1.4551  0.8711
  728MOL0     H98234  -0.529   0.898   6.835 -0.4452  1.8975  0.1082
  728MOL0     H98235  -0.662   0.967   6.741 -0.1771  1.0975  3.1930
  728MOL0     H98236  -0.608   0.709   6.759  1.1407 -0.2337 -0.1626
  728MOL0     H98237  -0.478   0.734   6.643 -1.1625 -0.0220 -2.3115
  728MOL0     H98238  -0.664   0.672   6.506  1.7168  0.2060  1.2970
  728MOL0     H98239  -0.661   0.840   6.480 -0.4960 -1.5278 -2.7919
  728MOL0     H98240  -1.060   0.803   6.700 -6.6983  1.7967 -0.0668
  728MOL0     H98241  -1.256   0.821   6.567 -0.7475 -2.7494  1.4738
  728MOL0     H98242  -1.565   0.800   6.255 -0.6889 -1.9634  0.2235
  728MOL0     H98243  -1.748   0.834   6.111  1.9179  3.8480 -0.8105
  728MOL0     H98244  -1.903   0.594   5.895 -1.9896 -0.7148 -0.5253
  728MOL0     H98245  -1.931   0.761   5.960  4.4255 -0.6916  2.6169
  728MOL0     H98246  -2.092   0.695   5.789  1.0657 -1.1848 -0.2090
  728MOL0     H98247  -1.993   0.820   5.710  1.1961 -0.3803 -2.3217
  728MOL0     H98248  -1.849   0.619   5.604 -0.9867 -0.4416 -0.7117
  728MOL0     H98249  -1.951   0.509   5.688  1.8095 -1.4909 -0.3234
  728MOL0     H98250  -2.055   0.713   5.472 -3.4017 -0.3611 -1.4624
  728MOL0     H98251  -2.141   0.578   5.551  0.2490 -0.3968  0.7070
  728MOL0     H98252  -1.924   0.438   5.450 -0.9140 -0.0829 -1.4185
  728MOL0     H98253  -1.891   0.587   5.371 -0.8355  0.8586 -1.1707
  728MOL0     H98254  -2.097   0.577   5.251  2.5962  0.2833  1.8265
  728MOL0     H98255  -1.996   0.439   5.210  0.1376 -1.3976  0.9757
  728MOL0     H98256  -2.203   0.418   5.441  0.1012  1.8548 -1.8071
  728MOL0     H98257  -2.135   0.280   5.351 -2.3534 -1.1228  1.0709
  728MOL0     H98258  -2.375   0.336   5.335  1.7032 -1.0133  1.7479
  728MOL0     H98259  -2.328   0.477   5.234  1.4158 -0.6136 -1.4211
  728MOL0     H98260  -1.522   0.653   5.788 -0.3030  1.3627 -0.0145
  728MOL0     H98261  -1.323   0.648   5.945 -0.1779 -0.0953 -0.7818
  728MOL0     H98262  -1.029   0.745   6.207 -0.4745 -1.4772  0.5430
  728MOL0     H98263  -0.827   0.746   6.331 -0.2239 -4.5624 -1.6951
  728MOL0     H98264   0.504   0.609   7.148  0.9059  1.2150  1.6015
  728MOL0     H98265   0.660   0.433   7.062  1.3331 -1.4063  0.8135
  728MOL0     H98266   0.901   0.220   6.943  0.2775  0.0651 -1.3586
  728MOL0     H98267   1.021   0.030   6.814  0.3002  0.1736 -0.3520
  728MOL0     H98268   1.025  -0.356   6.993  0.1740  1.1462  1.5432
  728MOL0     H98269   1.183  -0.339   7.065 -0.3616 -0.9867  0.8396
  728MOL0     H98270   1.146  -0.410   6.766  0.4989 -1.1514  0.3690
  728MOL0     H98271   1.174  -0.520   6.896 -4.1579  1.2916  0.5305
  728MOL0     H98272   1.382  -0.398   6.969  0.0611  0.8141  0.5204
  728MOL0     H98273   1.370  -0.294   6.836  0.7765 -0.6623 -1.0057
  728MOL0     H98274   1.529  -0.464   6.804 -1.0679  3.0347 -1.9772
  728MOL0     H98275   1.421  -0.599   6.833  0.2199  0.3442  1.1552
  728MOL0     H98276   1.417  -0.492   6.413  1.0537 -2.4015  0.1438
  728MOL0     H98277   1.081  -0.195   7.177  3.2618  1.3088  0.2366
  728MOL0     H98278   1.008   0.053   7.404 -0.3943 -0.4747  1.4345
  728MOL0     H98279   0.843  -0.024   7.381 -0.4394  0.2806 -0.4894
  728MOL0     H98280   0.993  -0.116   7.385 -0.8875  1.1179  2.5029
  729MOL0     O98281   1.067   8.190   7.420  0.0094  0.5553 -0.5508
  729MOL0     C98282   1.057   8.308   7.461  0.5462 -0.2015 -0.6277
  729MOL0     O98283   1.132   8.357   7.576  0.6140 -0.8905  0.5294
  729MOL0     C98284   1.225   8.279   7.633  0.3977  0.0575  0.4881
  729MOL0     C98285   1.225   8.241   7.766 -0.2991 -0.0021 -0.0308
  729MOL0     C98286   1.341   8.170   7.829 -0.0778 -0.1838 -0.0345
  729MOL0     C98287   1.452   8.136   7.748 -0.4359 -0.1180 -0.4802
  729MOL0     O98288   1.545   8.064   7.816  0.4746  0.1686  0.2977
  729MOL0     C98289   1.620   7.964   7.744  0.5551 -0.7219 -0.2978
  729MOL0     C98290   1.742   7.923   7.835  0.3248 -0.0444 -0.1702
  729MOL0     C98291   1.841   7.842   7.748  0.2927 -0.8255  0.1235
  729MOL0     C98292   1.794   7.702   7.707 -0.3761  0.3199  0.0069
  729MOL0     C98293   1.873   7.654   7.581  0.2599  0.1376  0.0355
  729MOL0     C98294   1.807   7.686   7.449 -0.6173  0.0564 -0.8941
  729MOL0     C98295   1.677   7.604   7.439 -0.6502  0.5288 -0.5898
  729MOL0     C98296   1.651   7.561   7.297  0.3704  0.5362  0.7134
  729MOL0     N98297   1.513   7.524   7.278 -0.0172 -0.6144  0.2056
  729MOL0     C98298   1.442   7.422   7.333 -0.4321  0.4952 -0.4333
  729MOL0     C98299   1.346   7.406   7.232 -0.2351 -0.3965 -0.1606
  729MOL0     C98300   1.244   7.298   7.234  0.3099  0.4992 -0.2471
  729MOL0     C98301   1.144   7.301   7.350 -0.2159  0.9159 -0.6151
  729MOL0     C98302   1.043   7.413   7.362 -0.1806 -0.8577  0.2853
  729MOL0     C98303   1.100   7.541   7.422  1.0469 -0.8247 -0.5385
  729MOL0     O98304   0.996   7.644   7.438 -0.4994  0.5388  0.8307
  729MOL0     C98305   0.957   7.715   7.324 -0.0375  0.7653 -0.3870
  729MOL0     C98306   1.017   7.714   7.193 -0.5396  0.6045  0.4359
  729MOL0     C98307   0.950   7.773   7.087  0.4786  0.7080  0.1505
  729MOL0     C98308   0.826   7.832   7.107  0.5078 -0.3153 -0.6104
  729MOL0     C98309   0.762   7.909   6.999  0.1538  0.4428  0.0064
  729MOL0     O98310   0.797   7.878   6.866  0.6055 -0.2852 -0.2505
  729MOL0     C98311   0.721   7.946   6.771  0.5058  0.9006  0.4859
  729MOL0     C98312   0.585   7.959   6.767 -0.1336 -0.3779  0.8326
  729MOL0     C98313   0.517   8.017   6.658  1.0152 -0.3584  0.0371
  729MOL0     C98314   0.597   8.064   6.555  0.2700  0.4141  0.1615
  729MOL0     O98315   0.551   8.116   6.441 -0.7468 -0.1301  0.3346
  729MOL0     C98316   0.428   8.189   6.438 -1.1764  0.1410 -1.6578
  729MOL0     C98317   0.314   8.116   6.370  0.3941 -0.0626 -0.8753
  729MOL0     C98318   0.172   8.166   6.412  0.0234  0.7995 -0.4756
  729MOL0     C98319   0.070   8.107   6.313  0.0069 -0.3163  0.7549
  729MOL0     C98320  -0.068   8.079   6.380  0.2851 -0.1838 -0.0953
  729MOL0     C98321  -0.164   8.005   6.285  0.2587 -0.2834 -0.3997
  729MOL0     C98322  -0.303   7.992   6.341  0.7583 -0.1122 -0.1983
  729MOL0     C98323  -0.391   7.955   6.230  0.2966 -0.4928  0.3577
  729MOL0    Cl98324  -0.561   7.987   6.285  0.0757  0.1180  0.1671
  729MOL0     C98325   0.739   8.055   6.558 -0.1301 -0.5218 -0.2366
  729MOL0     C98326   0.799   7.990   6.665 -0.6966 -0.3620  0.3508
  729MOL0     O98327   0.688   7.998   7.035  0.3062  0.1915 -0.1922
  729MOL0     C98328   0.782   7.844   7.243 -0.0441  0.1859  0.4432
  729MOL0     C98329   0.847   7.785   7.348 -0.6937 -0.9330  0.4840
  729MOL0     N98330   1.366   7.496   7.132 -0.7326 -0.0015 -0.3945
  729MOL0     N98331   1.456   7.575   7.165  0.1281 -0.2637 -0.2118
  729MOL0     C98332   1.449   8.167   7.613  0.7845  0.7910 -0.0528
  729MOL0     C98333   1.340   8.238   7.552  0.7203  0.7894  0.4471
  729MOL0     C98334   0.940   8.389   7.430 -0.5694  0.3981  0.2919
  729MOL0     C98335   0.945   8.527   7.448 -0.4875 -0.1173  0.3162
  729MOL0     C98336   0.839   8.610   7.407 -0.1402 -0.8078  0.4950
  729MOL0     C98337   0.731   8.555   7.345 -0.2102 -0.1316 -0.1834
  729MOL0     O98338   0.623   8.640   7.330 -0.0271 -0.3952  0.3774
  729MOL0     C98339   0.537   8.621   7.213 -0.4774  0.4746 -1.0286
  729MOL0     C98340   0.466   8.758   7.197 -0.6423  0.6083  0.5456
  729MOL0     C98341   0.410   8.777   7.064  0.5955 -0.7416 -0.7144
  729MOL0     C98342   0.345   8.919   7.044  0.4995  0.3680 -0.0704
  729MOL0     C98343   0.340   8.959   6.902  0.7127  1.0986 -0.6622
  729MOL0     C98344   0.349   9.003   6.788  0.4909  0.0630 -0.5759
  729MOL0     C98345   0.730   8.421   7.322  0.1853  0.6060 -0.6507
  729MOL0     C98346   0.833   8.335   7.360 -0.0114 -0.1174 -0.2186
  729MOL0     C98347   0.821   8.192   7.311 -0.5719 -0.1730 -0.4548
  729MOL0     H98348   1.136   8.245   7.828  0.3612 -0.5747  0.9749
  729MOL0     H98349   1.337   8.144   7.934  0.2599  0.1168  0.0554
  729MOL0     H98350   1.564   7.877   7.709  2.7133 -1.3885 -2.3831
  729MOL0     H98351   1.656   7.996   7.646  1.7894 -0.9489  0.0695
  729MOL0     H98352   1.706   7.863   7.919 -0.6860  0.4007 -0.2693
  729MOL0     H98353   1.790   8.015   7.870  0.9866  0.1653 -1.5512
  729MOL0     H98354   1.940   7.839   7.796  0.5245 -4.3663 -0.3554
  729MOL0     H98355   1.851   7.898   7.655 -4.9628 -2.0708 -1.5565
  729MOL0     H98356   1.826   7.632   7.784  1.5359  2.5063  1.3571
  729MOL0     H98357   1.685   7.700   7.697 -1.0985  1.0091  5.0383
  729MOL0     H98358   1.975   7.693   7.581  0.2275  0.3374  2.2464
  729MOL0     H98359   1.891   7.548   7.596  3.6389  0.6197  0.1352
  729MOL0     H98360   1.785   7.791   7.431 -3.8197 -0.0396  1.4397
  729MOL0     H98361   1.883   7.665   7.373  1.1054  0.3110  0.6945
  729MOL0     H98362   1.588   7.656   7.475  0.8527  3.9725 -1.4805
  729MOL0     H98363   1.692   7.510   7.494  5.2026  1.0715 -0.7027
  729MOL0     H98364   1.665   7.650   7.235 -2.0051  2.0260  2.1374
  729MOL0     H98365   1.721   7.481   7.269  1.2175  0.7143  2.2041
  729MOL0     H98366   1.447   7.358   7.420 -0.5774  2.8949  1.4182
  729MOL0     H98367   1.197   7.304   7.135  3.3886 -2.0760 -2.0669
  729MOL0     H98368   1.286   7.198   7.244 -0.4832 -0.3200 -3.8294
  729MOL0     H98369   1.080   7.213   7.341 -1.7011  1.7557  1.0305
  729MOL0     H98370   1.203   7.286   7.441 -0.0772 -0.9850 -0.9793
  729MOL0     H98371   0.966   7.373   7.429  1.8249 -0.6301  2.9150
  729MOL0     H98372   1.015   7.433   7.258 -2.1093 -1.9852  0.5534
  729MOL0     H98373   1.174   7.585   7.354  2.0418 -0.1887  0.9091
  729MOL0     H98374   1.140   7.527   7.522  1.1164  1.1109 -0.2612
  729MOL0     H98375   1.111   7.664   7.171  0.0936  1.4273  1.2013
  729MOL0     H98376   0.983   7.768   6.984 -2.1030  0.1169 -0.7254
  729MOL0     H98377   0.522   7.929   6.850 -1.3319  0.9628  0.4396
  729MOL0     H98378   0.411   8.041   6.659  1.3393  1.8996 -3.2335
  729MOL0     H98379   0.387   8.221   6.534 -0.8001 -1.6487 -0.8654
  729MOL0     H98380   0.449   8.272   6.369  0.4456 -0.1665 -1.5785
  729MOL0     H98381   0.330   8.113   6.262  2.5651 -0.3955 -0.5955
  729MOL0     H98382   0.323   8.012   6.402 -0.4923  1.1040  4.0708
  729MOL0     H98383   0.159   8.130   6.515  0.9038  2.8161  0.3929
  729MOL0     H98384   0.170   8.275   6.414 -1.3279  0.7917  1.0331
  729MOL0     H98385   0.106   8.024   6.251  1.7008 -0.5881  2.0358
  729MOL0     H98386   0.030   8.177   6.239 -1.5010 -0.9441  0.9246
  729MOL0     H98387  -0.112   8.172   6.418  2.5288 -0.0509  2.4688
  729MOL0     H98388  -0.045   8.011   6.462 -0.9767  0.4060  0.7603
  729MOL0     H98389  -0.173   8.061   6.191 -1.0911 -0.9157 -0.6683
  729MOL0     H98390  -0.124   7.904   6.280  2.4762  0.3896  1.8398
  729MOL0     H98391  -0.334   8.084   6.392  2.8474 -0.7826  2.4985
  729MOL0     H98392  -0.298   7.917   6.420  2.6617 -0.8547 -0.9494
  729MOL0     H98393  -0.385   8.012   6.136 -1.8700  1.5724  1.3764
  729MOL0     H98394  -0.380   7.848   6.205 -2.1063 -0.8873  0.7541
  729MOL0     H98395   0.791   8.114   6.483 -2.1660  0.2507 -1.1124
  729MOL0     H98396   0.908   7.992   6.672 -0.4345 -1.7498 -2.0667
  729MOL0     H98397   0.695   7.904   7.269 -0.6355 -0.2399 -0.5138
  729MOL0     H98398   0.810   7.784   7.451 -0.6921 -0.3766  0.4941
  729MOL0     H98399   1.542   8.150   7.559 -0.8932  2.5603 -3.8215
  729MOL0     H98400   1.350   8.274   7.450  1.5530 -1.1367 -0.2059
  729MOL0     H98401   1.030   8.587   7.479 -1.2928  0.3971  1.6290
  729MOL0     H98402   0.838   8.716   7.427 -0.5702 -0.7450  0.1635
  729MOL0     H98403   0.460   8.545   7.227 -0.0826  0.5376  2.4582
  729MOL0     H98404   0.609   8.599   7.134  2.6173  1.6039  1.2678
  729MOL0     H98405   0.537   8.836   7.226 -0.7666 -0.7692  5.4697
  729MOL0     H98406   0.388   8.781   7.271 -1.1919 -3.4509  1.4765
  729MOL0     H98407   0.344   8.696   7.031  1.3994 -0.9542 -1.8649
  729MOL0     H98408   0.485   8.776   6.985  0.6609 -0.1477 -0.6650
  729MOL0     H98409   0.240   8.927   7.075 -0.1326  0.8799 -2.1841
  729MOL0     H98410   0.403   9.004   7.082  1.1153  1.3983 -3.0523
  729MOL0     H98411   0.364   9.038   6.688 -1.0821  1.4598 -0.3771
  729MOL0     H98412   0.642   8.381   7.272 -0.2228 -0.3295  0.7504
  729MOL0     H98413   0.894   8.170   7.232  0.0978 -0.7193  0.2973
  729MOL0     H98414   0.840   8.116   7.387  3.2296  0.4216 -0.6200
  729MOL0     H98415   0.730   8.172   7.254  0.7676 -3.2893 -1.7300
  730MOL0     O98416   1.898   8.805  10.863  0.1017  0.0612 -0.4918
  730MOL0     C98417   1.907   8.893  10.951 -0.2724 -0.3624  0.5911
  730MOL0     O98418   2.007   8.907  11.042  0.4390 -0.5312  0.0976
  730MOL0     C98419   2.113   8.811  11.042  1.3626 -0.5058  0.9003
  730MOL0     C98420   2.212   8.807  10.951 -0.5470  0.3187 -0.6248
  730MOL0     C98421   2.319   8.710  10.961 -0.2834 -0.1662 -0.2550
  730MOL0     C98422   2.294   8.604  11.038  1.4982 -0.3334 -0.9307
  730MOL0     O98423   2.381   8.499  11.030 -0.2591  0.8212  0.3316
  730MOL0     C98424   2.507   8.511  11.109  0.2309  0.1879 -0.0064
  730MOL0     C98425   2.486   8.449  11.249 -0.9446 -0.4770  0.4527
  730MOL0     C98426   2.477   8.300  11.238  0.2139 -0.1037 -0.2267
  730MOL0     C98427   2.471   8.219  11.368  1.0099 -0.2688 -0.4964
  730MOL0     C98428   2.486   8.071  11.354  0.2032  0.5472 -0.0814
  730MOL0     C98429   2.620   8.040  11.296 -0.0654  1.4103 -0.0443
  730MOL0     C98430   2.635   7.888  11.319 -0.1499 -0.9325  0.1910
  730MOL0     C98431   2.759   7.832  11.261 -0.3836 -0.4086  0.6460
  730MOL0     N98432   2.770   7.696  11.306  0.5354  0.3722  0.3475
  730MOL0     C98433   2.803   7.585  11.240 -0.0842 -0.1663 -0.0070
  730MOL0     C98434   2.830   7.499  11.338  0.2240  0.3369  0.5639
  730MOL0     C98435   2.848   7.357  11.309 -0.6542  0.6771 -0.6071
  730MOL0     C98436   2.956   7.301  11.404  0.5686  1.1745 -0.3465
  730MOL0     C98437   3.086   7.366  11.407 -0.0685  0.2488 -0.8698
  730MOL0     C98438   3.195   7.321  11.501 -0.4599 -0.5982 -0.3733
  730MOL0     O98439   3.244   7.184  11.479 -0.2410  0.2629 -0.0723
  730MOL0     C98440   3.322   7.126  11.575 -0.5462 -0.6912  0.0587
  730MOL0     C98441   3.444   7.187  11.611  0.6621 -0.9372 -0.2448
  730MOL0     C98442   3.522   7.151  11.720  0.3152 -0.7407  0.8590
  730MOL0     C98443   3.486   7.037  11.787 -0.1777 -0.2685  0.1813
  730MOL0     C98444   3.565   6.983  11.897  0.3394 -0.5479 -0.4405
  730MOL0     O98445   3.515   6.879  11.965  0.4563  0.2193  0.1950
  730MOL0     C98446   3.599   6.804  12.045 -0.1216  0.0273  0.6545
  730MOL0     C98447   3.655   6.693  11.978  0.5160  1.0525  0.0013
  730MOL0     C98448   3.741   6.606  12.046  0.0092 -1.0132  0.4607
  730MOL0     C98449   3.781   6.643  12.179  0.9251 -0.4088  0.6734
  730MOL0     O98450   3.877   6.566  12.249 -0.2082  0.2375  0.1563
  730MOL0     C98451   3.940   6.604  12.377 -0.1610 -0.2349  0.2809
  730MOL0     C98452   4.077   6.524  12.383  0.9590 -0.4013 -0.5576
  730MOL0     C98453   4.165   6.582  12.490 -0.1870 -0.4869  0.7577
  730MOL0     C98454   4.198   6.728  12.458 -0.6997 -0.5110  0.0896
  730MOL0     C98455   4.344   6.752  12.487 -0.2705  0.9210  0.2817
  730MOL0     C98456   4.405   6.888  12.445 -0.2152  0.7491  0.8189
  730MOL0     C98457   4.560   6.884  12.440  0.2742 -0.2764 -0.0365
  730MOL0     C98458   4.630   7.015  12.414 -0.0144  0.8260  0.0384
  730MOL0    Cl98459   4.613   7.089  12.576 -0.0836  0.2283 -0.2189
  730MOL0     C98460   3.728   6.753  12.250  0.1643 -0.7841 -0.4058
  730MOL0     C98461   3.630   6.835  12.180 -0.9285  0.8742  0.8965
  730MOL0     O98462   3.669   7.041  11.929 -0.2445  0.3781  0.2508
  730MOL0     C98463   3.372   6.962  11.752  0.2752  0.1046 -0.0996
  730MOL0     C98464   3.290   7.013  11.642 -0.9880 -0.2611  0.9047
  730MOL0     N98465   2.807   7.546  11.464 -0.4796 -0.3657 -0.6810
  730MOL0     N98466   2.780   7.665  11.437  0.5330 -0.7090 -0.0483
  730MOL0     C98467   2.176   8.595  11.122 -0.3612 -0.8486  0.6121
  730MOL0     C98468   2.094   8.707  11.131 -0.1558  0.9629 -0.8076
  730MOL0     C98469   1.793   8.992  10.952 -0.0574 -0.3951  0.3304
  730MOL0     C98470   1.664   8.945  10.936  0.5656  0.5935  0.0338
  730MOL0     C98471   1.551   9.026  10.922  1.3920 -0.3234 -0.1562
  730MOL0     C98472   1.568   9.159  10.945 -0.4564  0.2602 -0.2817
  730MOL0     O98473   1.460   9.233  10.955 -0.6793  0.6098  0.2538
  730MOL0     C98474   1.448   9.351  11.039  0.4536  0.5414 -0.3817
  730MOL0     C98475   1.320   9.417  10.987 -0.5304 -0.1101  0.1558
  730MOL0     C98476   1.186   9.349  11.007 -0.4511 -0.7750  0.6451
  730MOL0     C98477   1.072   9.460  11.011 -0.1261 -0.7463 -1.0965
  730MOL0     C98478   1.066   9.531  11.142 -0.0073  0.2586  0.3469
  730MOL0     C98479   1.064   9.589  11.249  0.2515 -0.6989  0.1727
  730MOL0     C98480   1.695   9.207  10.956 -0.4827  0.0131 -0.7588
  730MOL0     C98481   1.806   9.129  10.956 -0.0694 -0.9850  0.5529
  730MOL0     C98482   1.941   9.201  10.976  0.0493  0.2146 -0.6310
  730MOL0     H98483   2.224   8.886  10.877  1.4477 -0.0186 -0.7285
  730MOL0     H98484   2.408   8.709  10.899 -0.6888 -1.5463 -0.8450
  730MOL0     H98485   2.597   8.462  11.070  1.5442  0.7306  2.1739
  730MOL0     H98486   2.530   8.616  11.129 -3.6938  1.0253  0.9514
  730MOL0     H98487   2.399   8.491  11.300  0.8225  3.1996  0.7340
  730MOL0     H98488   2.572   8.484  11.306 -1.5620  1.4735  0.2793
  730MOL0     H98489   2.563   8.265  11.180 -0.6570  0.9218 -2.2313
  730MOL0     H98490   2.394   8.280  11.170  1.9552 -1.7234 -2.0150
  730MOL0     H98491   2.542   8.269  11.436  1.6522 -0.4156 -1.0459
  730MOL0     H98492   2.369   8.232  11.405  1.1247 -3.7559  1.5472
  730MOL0     H98493   2.468   8.036  11.456  2.4552 -0.9641 -0.1455
  730MOL0     H98494   2.406   8.033  11.290  0.2424  0.2729  0.0305
  730MOL0     H98495   2.629   8.078  11.194  0.8832 -0.0951 -0.5450
  730MOL0     H98496   2.699   8.088  11.355  0.0896  2.0290 -0.7426
  730MOL0     H98497   2.542   7.838  11.291 -1.0551  0.3464  0.8036
  730MOL0     H98498   2.633   7.888  11.429  0.2962 -1.7064  0.2057
  730MOL0     H98499   2.763   7.839  11.152  1.5412 -1.0038  0.6413
  730MOL0     H98500   2.841   7.894  11.298 -1.6531  1.4849  0.4509
  730MOL0     H98501   2.822   7.570  11.134  3.1379  1.9691  0.1347
  730MOL0     H98502   2.754   7.305  11.323  1.5343 -3.2891  0.8480
  730MOL0     H98503   2.862   7.335  11.202 -1.5843  0.6703 -0.7342
  730MOL0     H98504   2.922   7.285  11.507 -1.2136 -3.3447 -1.3788
  730MOL0     H98505   2.968   7.198  11.368  0.9207  0.5938  1.2939
  730MOL0     H98506   3.068   7.470  11.435  3.7877  0.5606  1.0646
  730MOL0     H98507   3.125   7.369  11.305 -3.3343  1.0633 -2.2218
  730MOL0     H98508   3.160   7.338  11.603 -1.2635  0.4016 -0.7993
  730MOL0     H98509   3.278   7.392  11.497 -0.1031 -0.8153  1.8172
  730MOL0     H98510   3.484   7.266  11.548 -0.1860 -1.0776 -0.9814
  730MOL0     H98511   3.614   7.201  11.747  0.6959 -1.1933  0.4205
  730MOL0     H98512   3.647   6.672  11.872  2.6228 -0.9362  0.1560
  730MOL0     H98513   3.796   6.529  11.992 -0.4023  0.3918 -2.1352
  730MOL0     H98514   3.961   6.711  12.365  0.2089 -0.6090 -5.5888
  730MOL0     H98515   3.867   6.581  12.454 -0.6575  1.1830  0.2700
  730MOL0     H98516   4.046   6.420  12.396 -0.1469  0.0106  0.2580
  730MOL0     H98517   4.127   6.526  12.285  0.8174 -2.4657 -0.7189
  730MOL0     H98518   4.110   6.573  12.584 -5.5458 -0.4275 -1.9629
  730MOL0     H98519   4.254   6.519  12.496  2.5334  2.7726 -1.5593
  730MOL0     H98520   4.138   6.791  12.524  2.6099  0.1826  2.7420
  730MOL0     H98521   4.183   6.753  12.352 -2.4346  3.6121  1.0857
  730MOL0     H98522   4.396   6.675  12.429 -3.2357  0.4504 -1.9647
  730MOL0     H98523   4.368   6.742  12.594 -3.2520  0.1906  0.9604
  730MOL0     H98524   4.380   6.917  12.343  1.1184  1.9596  0.8035
  730MOL0     H98525   4.370   6.956  12.524  2.0921  1.0162  1.6897
  730MOL0     H98526   4.592   6.816  12.362 -2.1060 -0.3749 -0.9946
  730MOL0     H98527   4.615   6.856  12.531  0.4667  2.1984  0.6864
  730MOL0     H98528   4.735   7.011  12.384 -0.3659  1.2370 -1.3278
  730MOL0     H98529   4.575   7.074  12.340 -1.5182 -0.9529 -0.3274
  730MOL0     H98530   3.752   6.781  12.353  0.7249 -1.5309 -0.3232
  730MOL0     H98531   3.583   6.920  12.230 -3.0198  0.4768 -0.2683
  730MOL0     H98532   3.333   6.876  11.805 -0.4031  1.5512  1.8807
  730MOL0     H98533   3.193   6.967  11.624 -0.2238 -0.6906 -2.7341
  730MOL0     H98534   2.168   8.508  11.187 -1.8087  0.0630  1.7180
  730MOL0     H98535   2.015   8.716  11.204  1.6308 -1.9421  1.7226
  730MOL0     H98536   1.631   8.843  10.916  2.8585 -0.4562  1.2615
  730MOL0     H98537   1.450   8.994  10.901  0.1904  3.7236 -1.4100
  730MOL0     H98538   1.531   9.421  11.029  1.9148 -0.9310  0.7414
  730MOL0     H98539   1.437   9.316  11.142  0.1509  0.2593 -0.5076
  730MOL0     H98540   1.333   9.436  10.880 -0.1009  0.4482  0.2975
  730MOL0     H98541   1.329   9.519  11.025  3.9361 -0.9807  2.0496
  730MOL0     H98542   1.195   9.273  11.085  4.1786 -1.1143  0.0329
  730MOL0     H98543   1.168   9.287  10.920  2.6440 -2.6798  1.2247
  730MOL0     H98544   1.092   9.532  10.932  1.2719  0.8010  0.5817
  730MOL0     H98545   0.970   9.421  11.002 -1.6597  2.2778  1.3397
  730MOL0     H98546   1.067   9.614  11.353 -0.0722 -1.4127  0.3666
  730MOL0     H98547   1.709   9.313  10.974 -0.5995 -0.2285  0.9424
  730MOL0     H98548   1.958   9.300  10.933  1.2945  0.0213 -0.6194
  730MOL0     H98549   1.960   9.218  11.083 -1.7031 -0.3002 -0.1874
  730MOL0     H98550   2.025   9.147  10.932  0.2365 -0.0907  0.0690
  731MOL0     O98551   7.173   8.203   5.254 -0.0346 -0.2158 -0.8660
  731MOL0     C98552   7.223   8.107   5.311 -0.3617 -0.0621 -0.8062
  731MOL0     O98553   7.325   8.111   5.401 -0.5124  0.0956  0.0066
  731MOL0     C98554   7.383   8.222   5.448 -0.2516 -0.4304  0.2921
  731MOL0     C98555   7.336   8.356   5.439  0.0803 -0.5057 -0.4521
  731MOL0     C98556   7.392   8.456   5.531  0.2047 -0.3651  0.7811
  731MOL0     C98557   7.495   8.435   5.616 -0.1081  0.2191  0.1282
  731MOL0     O98558   7.544   8.519   5.720  0.0876 -0.6769  0.5622
  731MOL0     C98559   7.485   8.648   5.747  1.1241  0.4842 -0.0687
  731MOL0     C98560   7.566   8.755   5.681  0.9839 -0.7217 -0.0496
  731MOL0     C98561   7.504   8.890   5.714 -0.0666 -0.0288  1.3633
  731MOL0     C98562   7.585   9.011   5.680  0.6566 -0.4659 -0.3058
  731MOL0     C98563   7.494   9.136   5.687 -1.1813  0.3401 -0.6618
  731MOL0     C98564   7.558   9.264   5.621 -0.7795 -0.0144 -0.4168
  731MOL0     C98565   7.562   9.260   5.473  0.6010 -0.1392  0.7611
  731MOL0     C98566   7.600   9.397   5.407 -0.2522  0.0458  0.1988
  731MOL0     N98567   7.538   9.515   5.473  0.2590 -0.3832 -0.3254
  731MOL0     C98568   7.596   9.577   5.581  0.3360 -0.5539  0.7302
  731MOL0     C98569   7.498   9.665   5.616 -0.3217  1.7452 -0.1237
  731MOL0     C98570   7.522   9.760   5.730 -0.7556 -0.2195  0.5674
  731MOL0     C98571   7.496   9.697   5.865 -0.1576  0.5246  0.8306
  731MOL0     C98572   7.359   9.621   5.870 -0.6433 -0.5535 -0.3535
  731MOL0     C98573   7.226   9.694   5.851 -0.3993 -0.7000 -0.2411
  731MOL0     O98574   7.208   9.773   5.966  0.2413  0.2565  0.3925
  731MOL0     C98575   7.104   9.854   5.988 -0.0067  0.3972  1.0162
  731MOL0     C98576   7.101   9.919   6.107 -0.2236  0.4089  0.2822
  731MOL0     C98577   6.984   9.981   6.155 -0.0945 -0.3701  0.8842
  731MOL0     C98578   6.881  10.006   6.054  0.3195 -0.6510  0.6986
  731MOL0     C98579   6.756  10.072   6.096  0.5645  0.4691 -0.5993
  731MOL0     O98580   6.772  10.153   6.201 -0.9058  0.6705 -0.0910
  731MOL0     C98581   6.673  10.246   6.219  0.1895  0.3405 -0.4655
  731MOL0     C98582   6.578  10.228   6.325 -0.4468  0.3487  0.4806
  731MOL0     C98583   6.480  10.325   6.342 -0.2184  0.3766  0.1387
  731MOL0     C98584   6.481  10.442   6.268  0.6285 -0.1635 -0.1232
  731MOL0     O98585   6.400  10.547   6.311 -0.0843  0.4699  0.3419
  731MOL0     C98586   6.284  10.558   6.227  0.5207 -0.9123 -0.4107
  731MOL0     C98587   6.199  10.675   6.276 -0.0042 -0.4046  0.9068
  731MOL0     C98588   6.091  10.716   6.178 -0.0027  0.6124 -0.1279
  731MOL0     C98589   5.993  10.809   6.251  0.9712 -0.9088  0.6095
  731MOL0     C98590   5.877  10.856   6.155 -0.0366  0.1509  0.0660
  731MOL0     C98591   5.762  10.926   6.223 -0.5086  0.0897 -0.4014
  731MOL0     C98592   5.678  11.003   6.127  1.3678 -0.5186  0.4014
  731MOL0     C98593   5.547  10.927   6.084 -0.3140  0.4052 -0.3109
  731MOL0    Cl98594   5.587  10.803   5.967 -0.0895 -0.6227  0.1882
  731MOL0     C98595   6.568  10.447   6.157 -0.4525  0.3010 -0.3437
  731MOL0     C98596   6.658  10.349   6.138 -0.5302  0.3038 -0.0571
  731MOL0     O98597   6.661  10.079   6.022 -0.0590 -1.0533  1.2361
  731MOL0     C98598   6.892   9.958   5.927  0.0748  0.4468 -0.1306
  731MOL0     C98599   6.999   9.876   5.890  0.3652 -0.3940 -0.4076
  731MOL0     N98600   7.381   9.650   5.546  0.4172  0.4118  0.0432
  731MOL0     N98601   7.403   9.550   5.466 -0.3746 -1.1970 -0.1566
  731MOL0     C98602   7.543   8.306   5.614  0.0102 -0.3753 -0.5544
  731MOL0     C98603   7.495   8.201   5.531  0.3663 -0.0445 -0.1967
  731MOL0     C98604   7.163   7.958   5.288 -0.0581 -0.3904 -0.0225
  731MOL0     C98605   7.231   7.850   5.340  0.6325  0.2409  1.3581
  731MOL0     C98606   7.194   7.719   5.305  0.0858 -0.8016  0.1010
  731MOL0     C98607   7.090   7.688   5.218  0.0249  0.0473 -0.6427
  731MOL0     O98608   7.072   7.559   5.176 -0.3459  0.1113  0.0625
  731MOL0     C98609   7.149   7.533   5.057 -0.7662  0.6255  0.9078
  731MOL0     C98610   7.058   7.479   4.959  0.0562 -0.3559  0.1584
  731MOL0     C98611   7.038   7.329   4.965 -0.0323 -0.8591  0.0259
  731MOL0     C98612   6.922   7.276   4.875 -0.3446 -0.9024  0.7539
  731MOL0     C98613   6.967   7.314   4.737 -0.9840  0.1174  0.5386
  731MOL0     C98614   7.015   7.323   4.624 -0.0167 -0.3326  1.1535
  731MOL0     C98615   7.017   7.791   5.179  0.1534 -1.0970  0.8808
  731MOL0     C98616   7.050   7.927   5.205  0.2054 -0.3539  0.0993
  731MOL0     C98617   6.953   8.025   5.130  0.2211 -0.1139 -0.3839
  731MOL0     H98618   7.258   8.373   5.365  1.5434 -0.1215 -1.9530
  731MOL0     H98619   7.360   8.559   5.521  1.3336  0.1313  2.0078
  731MOL0     H98620   7.384   8.657   5.708  1.0820 -1.6648 -0.5493
  731MOL0     H98621   7.481   8.664   5.855 -2.2302 -2.3027  0.3782
  731MOL0     H98622   7.550   8.740   5.574  1.4523 -0.0852 -0.2130
  731MOL0     H98623   7.672   8.748   5.707  0.7810 -1.8423  0.5941
  731MOL0     H98624   7.477   8.892   5.820  0.0372  2.5585  1.3943
  731MOL0     H98625   7.411   8.901   5.657  0.6686  2.3586  0.5040
  731MOL0     H98626   7.674   9.011   5.744 -1.0654 -1.0105  2.2415
  731MOL0     H98627   7.615   8.994   5.577 -1.4465 -3.1393 -0.5836
  731MOL0     H98628   7.393   9.117   5.651 -1.7020 -0.2764  1.0037
  731MOL0     H98629   7.493   9.144   5.796 -0.0609  0.9588 -0.6854
  731MOL0     H98630   7.490   9.340   5.661 -0.3010 -0.8641  2.1894
  731MOL0     H98631   7.657   9.275   5.668 -0.0943  1.0911 -2.0187
  731MOL0     H98632   7.464   9.241   5.429 -0.2101  0.7040  2.1165
  731MOL0     H98633   7.640   9.190   5.442  2.7739  2.6645 -0.5587
  731MOL0     H98634   7.709   9.408   5.409 -0.3784  1.2557  1.1510
  731MOL0     H98635   7.564   9.401   5.304 -0.6612  3.2918  0.3702
  731MOL0     H98636   7.700   9.566   5.612  1.0197 -0.4930 -1.4014
  731MOL0     H98637   7.624   9.801   5.722 -0.2076 -1.8712 -1.8969
  731MOL0     H98638   7.455   9.847   5.722 -1.4396 -0.6340  1.5943
  731MOL0     H98639   7.570   9.620   5.887 -1.8996 -1.2614  0.7272
  731MOL0     H98640   7.499   9.774   5.943 -1.3291  0.1961  1.2304
  731MOL0     H98641   7.362   9.579   5.971  1.6817 -2.6132 -1.1463
  731MOL0     H98642   7.362   9.536   5.801 -1.2056 -2.0626  1.4091
  731MOL0     H98643   7.157   9.610   5.867  2.3611 -2.7212  2.1079
  731MOL0     H98644   7.201   9.741   5.756  2.7583  1.2805 -0.2299
  731MOL0     H98645   7.185   9.919   6.175  1.0864  0.8575 -1.2669
  731MOL0     H98646   6.976  10.009   6.259  0.6689  0.3201  0.7627
  731MOL0     H98647   6.592  10.139   6.386 -0.4438 -0.2737 -0.4102
  731MOL0     H98648   6.397  10.324   6.412  0.4575 -0.8845  0.9756
  731MOL0     H98649   6.324  10.586   6.129 -0.3153 -0.7163 -0.7038
  731MOL0     H98650   6.219  10.472   6.208  1.0530 -0.7958 -3.0684
  731MOL0     H98651   6.152  10.645   6.369 -1.5557  2.4070  1.1619
  731MOL0     H98652   6.265  10.761   6.293  0.3044 -0.4802  0.1560
  731MOL0     H98653   6.129  10.748   6.080  2.1776  0.6908  0.6887
  731MOL0     H98654   6.026  10.628   6.170 -1.3167  1.5487 -0.0622
  731MOL0     H98655   6.041  10.906   6.270 -0.2883  0.1107 -1.1097
  731MOL0     H98656   5.958  10.769   6.346 -1.3990 -0.5231 -0.0230
  731MOL0     H98657   5.835  10.766   6.108 -2.0779  1.0808  0.0045
  731MOL0     H98658   5.933  10.918   6.084 -0.2929  2.2810  1.6493
  731MOL0     H98659   5.715  10.842   6.273  2.1575 -1.5503 -0.4795
  731MOL0     H98660   5.807  11.005   6.284  1.9472  0.7191 -2.7941
  731MOL0     H98661   5.738  11.040   6.044  2.2175 -2.4327  0.1420
  731MOL0     H98662   5.623  11.087   6.171  0.5522  0.8136 -2.8430
  731MOL0     H98663   5.499  10.893   6.176  1.2102  0.3468  0.4920
  731MOL0     H98664   5.477  10.993   6.033  0.0207  1.6045  0.7501
  731MOL0     H98665   6.559  10.529   6.087  0.5167 -0.5101 -1.4582
  731MOL0     H98666   6.732  10.375   6.062 -0.3226  3.6722  1.0981
  731MOL0     H98667   6.820   9.962   5.846 -1.0222 -0.3650  0.7863
  731MOL0     H98668   7.012   9.837   5.789 -3.2223 -0.8239 -0.8423
  731MOL0     H98669   7.614   8.275   5.689 -0.6350 -1.4761 -0.3742
  731MOL0     H98670   7.550   8.107   5.537 -1.0219 -0.8110  1.4256
  731MOL0     H98671   7.312   7.873   5.409  1.2444 -0.7009  0.9807
  731MOL0     H98672   7.241   7.631   5.347  0.0206 -0.6350  0.5295
  731MOL0     H98673   7.218   7.449   5.070 -1.3309 -0.0062 -0.0775
  731MOL0     H98674   7.199   7.623   5.021 -1.8454  0.5649 -0.8571
  731MOL0     H98675   7.108   7.503   4.864  1.0131 -1.0316  0.4782
  731MOL0     H98676   6.962   7.532   4.956 -0.2747 -0.9879 -1.2250
  731MOL0     H98677   7.015   7.297   5.067  1.8923  0.5449  0.9662
  731MOL0     H98678   7.130   7.271   4.952  2.1676  1.2827  4.1062
  731MOL0     H98679   6.906   7.169   4.885 -2.1535 -0.5605  2.2479
  731MOL0     H98680   6.828   7.324   4.907 -0.7277  0.7550 -2.3992
  731MOL0     H98681   7.074   7.345   4.538 -0.5158 -0.7867  0.6752
  731MOL0     H98682   6.949   7.764   5.099 -2.2219 -1.3523  2.8300
  731MOL0     H98683   6.882   7.972   5.066 -0.4775 -2.2349  1.9927
  731MOL0     H98684   6.881   8.060   5.205  3.3268  0.1946  2.6520
  731MOL0     H98685   6.992   8.118   5.087 -2.3917  0.5242 -1.5821
  732MOL0     O98686   1.276   9.570   3.725 -0.7460  0.5470 -0.1591
  732MOL0     C98687   1.266   9.628   3.620  0.1408  0.0930  0.6343
  732MOL0     O98688   1.163   9.620   3.539  0.1311 -0.4120  0.8711
  732MOL0     C98689   1.043   9.582   3.592  0.1440  0.9251 -0.2733
  732MOL0     C98690   0.950   9.669   3.639  0.1449 -1.3594 -0.8648
  732MOL0     C98691   0.828   9.628   3.682  0.1553  0.4958  0.0748
  732MOL0     C98692   0.794   9.490   3.683  0.4607 -0.7142 -0.0745
  732MOL0     O98693   0.677   9.433   3.731  0.2924 -0.6744  0.3263
  732MOL0     C98694   0.616   9.489   3.849 -0.2161 -0.0214  0.4286
  732MOL0     C98695   0.671   9.441   3.985  0.0573  0.4046 -0.3368
  732MOL0     C98696   0.579   9.489   4.098 -0.0912 -0.4337 -0.9779
  732MOL0     C98697   0.642   9.490   4.236  0.6664 -0.1594  0.7352
  732MOL0     C98698   0.528   9.472   4.340  0.7749 -0.8302 -0.1905
  732MOL0     C98699   0.583   9.456   4.486  0.6232 -0.2946 -0.8462
  732MOL0     C98700   0.557   9.320   4.550 -0.0814  0.4671 -0.6747
  732MOL0     C98701   0.602   9.310   4.698 -0.5156 -0.3234  0.3777
  732MOL0     N98702   0.596   9.173   4.759 -0.9196 -0.7934 -0.6328
  732MOL0     C98703   0.664   9.058   4.726  0.4654 -0.2978  0.3533
  732MOL0     C98704   0.593   8.962   4.803 -1.0244 -0.2398 -0.1260
  732MOL0     C98705   0.649   8.817   4.818  0.2965  0.3835  0.1273
  732MOL0     C98706   0.795   8.815   4.840 -0.3235 -0.7351  0.0188
  732MOL0     C98707   0.856   8.679   4.880  1.2824 -0.9400 -0.7230
  732MOL0     C98708   0.966   8.701   4.983  0.0544 -0.0108  1.2940
  732MOL0     O98709   1.036   8.580   4.994 -0.6079  0.9875  0.4111
  732MOL0     C98710   1.133   8.558   4.890  0.1746 -0.1112  0.0638
  732MOL0     C98711   1.178   8.653   4.795 -0.4235 -0.3666 -0.0362
  732MOL0     C98712   1.243   8.619   4.672  0.1974  0.3978 -0.2242
  732MOL0     C98713   1.282   8.484   4.647 -0.4500 -0.8938  0.1823
  732MOL0     C98714   1.355   8.438   4.527  0.2868 -0.7144  0.4401
  732MOL0     O98715   1.349   8.512   4.411  0.1055 -0.4024  0.0128
  732MOL0     C98716   1.422   8.480   4.296  0.2145 -0.1703  0.7489
  732MOL0     C98717   1.453   8.583   4.206  0.9971 -0.4837  0.6352
  732MOL0     C98718   1.519   8.560   4.082 -0.5833 -1.6581  0.0854
  732MOL0     C98719   1.574   8.442   4.054 -0.8090 -0.1106  0.3665
  732MOL0     O98720   1.629   8.427   3.928 -0.1264  0.9250 -0.5618
  732MOL0     C98721   1.680   8.299   3.876  0.1165 -0.1196  0.6212
  732MOL0     C98722   1.810   8.264   3.948 -0.1047 -0.0641 -1.2036
  732MOL0     C98723   1.919   8.354   3.895 -0.0797 -0.6271 -0.2842
  732MOL0     C98724   1.991   8.431   4.014 -0.7190 -0.0065 -0.0203
  732MOL0     C98725   2.127   8.351   4.065 -0.8802  0.6965  0.3691
  732MOL0     C98726   2.188   8.400   4.192  0.2089  1.0915 -0.0195
  732MOL0     C98727   2.292   8.301   4.250  0.5655 -0.7953 -0.0095
  732MOL0     C98728   2.324   8.347   4.392  0.2071  0.2855 -0.8106
  732MOL0    Cl98729   2.427   8.229   4.479 -0.5575 -0.2422  0.0883
  732MOL0     C98730   1.555   8.335   4.142 -0.2892 -0.4317  0.4425
  732MOL0     C98731   1.481   8.352   4.259 -0.1840  0.1639  0.3722
  732MOL0     O98732   1.436   8.347   4.551 -0.4878 -0.0704 -0.6261
  732MOL0     C98733   1.251   8.392   4.745  0.3435 -0.9169  0.9153
  732MOL0     C98734   1.170   8.425   4.860  0.6184 -0.2285  0.2086
  732MOL0     N98735   0.494   9.030   4.868 -0.1488 -0.8125 -0.1154
  732MOL0     N98736   0.509   9.155   4.852 -0.7319  0.1921  0.0613
  732MOL0     C98737   0.882   9.400   3.628  0.2822 -0.0209 -0.7998
  732MOL0     C98738   1.008   9.443   3.580 -0.0992  0.0949  0.8173
  732MOL0     C98739   1.382   9.695   3.559 -0.4028  0.6100  0.4985
  732MOL0     C98740   1.418   9.676   3.423  0.0706 -0.0238 -0.3361
  732MOL0     C98741   1.530   9.741   3.366  0.2930  0.1045  0.0442
  732MOL0     C98742   1.622   9.825   3.434 -0.7602  1.0322  0.9163
  732MOL0     O98743   1.740   9.881   3.377 -0.1283  0.3907 -0.6036
  732MOL0     C98744   1.796   9.845   3.251 -0.2686 -0.0248 -0.7285
  732MOL0     C98745   1.856   9.970   3.177 -0.0630 -0.0945  0.5096
  732MOL0     C98746   1.910   9.921   3.039 -0.3744 -0.9746 -0.0609
  732MOL0     C98747   2.015  10.016   2.984  0.8483 -0.2625  0.4498
  732MOL0     C98748   1.946  10.144   2.931  0.5257 -0.2935  0.1752
  732MOL0     C98749   1.886  10.243   2.899  1.0275 -0.3228  0.0540
  732MOL0     C98750   1.590   9.821   3.574 -0.7746 -0.2403 -0.2497
  732MOL0     C98751   1.474   9.770   3.635 -0.1579 -0.0562 -0.6477
  732MOL0     C98752   1.457   9.787   3.788  0.4602  0.1574  0.6838
  732MOL0     H98753   0.964   9.777   3.632 -1.4577 -1.0125  0.5323
  732MOL0     H98754   0.749   9.694   3.716 -2.8844 -1.9665 -1.5991
  732MOL0     H98755   0.613   9.598   3.839  2.2788 -0.0944 -4.5815
  732MOL0     H98756   0.509   9.467   3.844 -0.2273 -0.4478  2.0260
  732MOL0     H98757   0.772   9.475   4.012  0.7615 -1.2968 -0.6637
  732MOL0     H98758   0.667   9.332   3.985 -1.5551  0.4408 -0.3633
  732MOL0     H98759   0.498   9.416   4.092 -1.3459  1.0151 -2.5855
  732MOL0     H98760   0.530   9.585   4.081 -1.3478 -1.4023 -3.0919
  732MOL0     H98761   0.710   9.405   4.246 -2.5094 -3.0475 -0.4407
  732MOL0     H98762   0.693   9.585   4.255 -0.3711  0.5067  0.2752
  732MOL0     H98763   0.457   9.555   4.341  2.5233  0.7457 -1.2931
  732MOL0     H98764   0.477   9.376   4.326  1.1715 -1.2099  0.9162
  732MOL0     H98765   0.689   9.478   4.498  0.8917 -2.7079  2.4480
  732MOL0     H98766   0.520   9.522   4.547  1.5740  0.9429 -1.1615
  732MOL0     H98767   0.630   9.255   4.501  1.3735 -0.5442  2.5607
  732MOL0     H98768   0.453   9.291   4.533 -0.4274  2.4685 -2.4618
  732MOL0     H98769   0.710   9.327   4.695 -0.3713 -1.2986 -0.4026
  732MOL0     H98770   0.550   9.387   4.755  2.6939  3.2425 -1.1045
  732MOL0     H98771   0.746   9.052   4.656 -0.1846  1.2640 -0.6065
  732MOL0     H98772   0.602   8.776   4.907  1.1257  1.2629  0.9920
  732MOL0     H98773   0.619   8.762   4.728  0.5365  1.6869 -0.7858
  732MOL0     H98774   0.840   8.854   4.748  0.1952 -1.4145 -0.0276
  732MOL0     H98775   0.825   8.883   4.920  2.9140 -0.9049 -0.8934
  732MOL0     H98776   0.897   8.629   4.792  0.8287  0.5813 -1.8249
  732MOL0     H98777   0.772   8.630   4.930 -0.5942  1.3749 -1.4692
  732MOL0     H98778   0.921   8.715   5.081 -0.0172  1.3128  1.0964
  732MOL0     H98779   1.035   8.782   4.955 -1.6366  2.1788  3.1639
  732MOL0     H98780   1.152   8.758   4.799  1.1962  0.0161  1.0323
  732MOL0     H98781   1.258   8.696   4.597 -1.7106  0.2362 -0.8249
  732MOL0     H98782   1.421   8.687   4.214 -0.0314 -0.8174  0.9598
  732MOL0     H98783   1.544   8.641   4.015  2.5909 -3.9351 -1.7788
  732MOL0     H98784   1.604   8.222   3.889  3.0561 -3.4130 -0.2845
  732MOL0     H98785   1.695   8.298   3.768 -0.1092 -1.8084  0.5877
  732MOL0     H98786   1.802   8.259   4.057  0.3198 -1.0820 -1.2142
  732MOL0     H98787   1.823   8.163   3.908 -0.4561 -0.0256 -1.4224
  732MOL0     H98788   1.990   8.285   3.848 -0.9829 -1.2474 -0.7795
  732MOL0     H98789   1.892   8.415   3.809 -0.4188 -1.5881 -0.8847
  732MOL0     H98790   1.923   8.451   4.097 -0.1531 -0.6709  0.6132
  732MOL0     H98791   2.035   8.524   3.976  2.0163 -2.3482 -3.2713
  732MOL0     H98792   2.202   8.350   3.985 -2.3838 -1.0481 -1.0998
  732MOL0     H98793   2.098   8.247   4.080 -4.1060  0.8839 -3.0427
  732MOL0     H98794   2.224   8.503   4.189 -0.8891  1.4773 -0.5767
  732MOL0     H98795   2.105   8.416   4.260 -0.2140  0.8169 -0.4626
  732MOL0     H98796   2.388   8.306   4.198  1.3824  1.3990  1.5583
  732MOL0     H98797   2.247   8.202   4.256  1.1361 -1.0424  0.2526
  732MOL0     H98798   2.376   8.443   4.380  1.2353 -0.4743 -2.9892
  732MOL0     H98799   2.238   8.367   4.457 -0.5365  1.2260 -2.0433
  732MOL0     H98800   1.609   8.244   4.118  1.3963  0.2831  1.3683
  732MOL0     H98801   1.465   8.267   4.325 -1.0210  1.9373  2.5995
  732MOL0     H98802   1.275   8.287   4.730  2.1219 -0.1763 -2.1183
  732MOL0     H98803   1.138   8.347   4.928  1.1330  0.3259  1.0996
  732MOL0     H98804   0.844   9.299   3.614  1.8122 -0.9064  1.0622
  732MOL0     H98805   1.082   9.377   3.536  1.7304  1.1065  2.2373
  732MOL0     H98806   1.364   9.611   3.355  0.3830 -0.2783 -0.3383
  732MOL0     H98807   1.543   9.709   3.263  3.6527 -3.7952  1.3916
  732MOL0     H98808   1.717   9.800   3.190 -0.8327 -0.6783  0.4526
  732MOL0     H98809   1.877   9.772   3.259 -0.9506 -0.7734 -0.6361
  732MOL0     H98810   1.940  10.008   3.237 -0.1761  1.5804 -0.3387
  732MOL0     H98811   1.772  10.039   3.164 -1.6896 -2.2394 -0.9043
  732MOL0     H98812   1.820   9.909   2.978 -0.1386 -0.5330 -0.4997
  732MOL0     H98813   1.953   9.820   3.042  2.5255  0.0695 -1.9038
  732MOL0     H98814   2.088  10.040   3.061  3.1038 -0.1985 -1.5686
  732MOL0     H98815   2.071   9.961   2.908  1.2824  2.3867 -1.2875
  732MOL0     H98816   1.814  10.318   2.873  1.4926  0.2383  0.3705
  732MOL0     H98817   1.653   9.884   3.636 -3.3123  2.4015 -0.1609
  732MOL0     H98818   1.467   9.685   3.827 -3.9783 -1.1800 -1.0679
  732MOL0     H98819   1.523   9.870   3.815 -1.0141  2.3281 -1.9604
  732MOL0     H98820   1.353   9.813   3.808  0.8428  3.1432 -0.7611
  733MOL0     O98821   6.063   7.514   6.155 -0.1178 -0.7036 -0.4660
  733MOL0     C98822   5.946   7.526   6.174  0.2953  0.3959  0.4295
  733MOL0     O98823   5.887   7.624   6.240 -0.5124  0.2727  0.1524
  733MOL0     C98824   5.958   7.728   6.298 -0.0249  0.5857  0.6357
  733MOL0     C98825   5.892   7.785   6.403 -0.3367 -0.5887 -0.4552
  733MOL0     C98826   5.949   7.897   6.461 -0.3595 -0.2144  0.6837
  733MOL0     C98827   6.069   7.955   6.422  0.4268  0.7540 -0.0673
  733MOL0     O98828   6.103   8.058   6.502  0.2811 -0.1456 -0.0166
  733MOL0     C98829   6.213   8.144   6.461  0.6150  0.0964  0.4810
  733MOL0     C98830   6.229   8.257   6.564  0.0516 -0.6879 -0.5578
  733MOL0     C98831   6.332   8.362   6.528 -0.2679 -0.9449 -0.0731
  733MOL0     C98832   6.479   8.323   6.537 -0.4158  0.1607 -0.0428
  733MOL0     C98833   6.527   8.319   6.677  0.0104 -0.4161  0.3200
  733MOL0     C98834   6.662   8.250   6.677  0.0657  0.0404  0.1553
  733MOL0     C98835   6.737   8.243   6.813 -0.4086  0.2410  0.6335
  733MOL0     C98836   6.746   8.377   6.886  0.5139  0.7165  1.5052
  733MOL0     N98837   6.813   8.356   7.012  0.3166 -0.4471 -0.3127
  733MOL0     C98838   6.947   8.318   7.030 -0.7888 -1.6992  0.3808
  733MOL0     C98839   6.971   8.318   7.166  0.8804 -0.7323  0.4737
  733MOL0     C98840   7.106   8.297   7.227 -1.6275  0.5442 -0.8121
  733MOL0     C98841   7.147   8.145   7.218 -0.8080 -0.8191  0.5275
  733MOL0     C98842   7.062   8.053   7.303 -0.3120 -0.2415 -0.3169
  733MOL0     C98843   7.111   8.057   7.455  1.3347  0.5643  0.1215
  733MOL0     O98844   7.213   7.956   7.473 -0.5706  0.0869  0.5493
  733MOL0     C98845   7.187   7.866   7.568 -0.0898  0.2255 -0.3577
  733MOL0     C98846   7.217   7.893   7.702  0.0151 -0.9592  0.3435
  733MOL0     C98847   7.193   7.789   7.795 -0.0628  0.3508 -0.4453
  733MOL0     C98848   7.129   7.663   7.765 -0.7846 -0.9690  0.1303
  733MOL0     C98849   7.102   7.556   7.861 -0.3149 -0.0228  0.0290
  733MOL0     O98850   7.007   7.473   7.834 -0.4953 -0.5376  0.4248
  733MOL0     C98851   6.995   7.359   7.901 -0.4298 -0.8193  0.0715
  733MOL0     C98852   6.922   7.329   8.014  1.3958 -0.9012 -0.4244
  733MOL0     C98853   6.943   7.209   8.088 -0.3356 -0.0212 -0.0610
  733MOL0     C98854   7.025   7.110   8.037  0.7476 -0.7508  0.0719
  733MOL0     O98855   7.046   6.990   8.108 -0.4481 -0.0464  0.2790
  733MOL0     C98856   7.028   6.874   8.019  0.6369  0.6469 -0.8093
  733MOL0     C98857   7.034   6.742   8.093 -0.0785 -0.7085 -0.2748
  733MOL0     C98858   6.923   6.731   8.202 -0.4025  0.6599  0.3790
  733MOL0     C98859   6.780   6.736   8.152 -0.1843  0.1082 -0.0311
  733MOL0     C98860   6.675   6.675   8.246 -0.5685  0.2038 -0.1885
  733MOL0     C98861   6.540   6.720   8.180  0.3650  0.3802 -0.7004
  733MOL0     C98862   6.426   6.660   8.268 -0.2832 -0.3765  0.4551
  733MOL0     C98863   6.289   6.743   8.248  0.8090  0.1755 -0.1849
  733MOL0    Cl98864   6.240   6.744   8.075  0.0953  0.2749  0.1483
  733MOL0     C98865   7.082   7.134   7.911 -1.1592  0.2168 -0.7837
  733MOL0     C98866   7.071   7.250   7.843  0.0831 -0.2032 -0.6624
  733MOL0     O98867   7.152   7.570   7.974  0.6562  0.2306  0.7308
  733MOL0     C98868   7.102   7.642   7.630 -0.7303 -0.8828 -0.8099
  733MOL0     C98869   7.132   7.739   7.531  1.0968  0.0105 -0.5206
  733MOL0     N98870   6.849   8.352   7.227 -0.1058 -0.0433  0.0606
  733MOL0     N98871   6.759   8.378   7.136 -0.4509  0.5021 -0.7615
  733MOL0     C98872   6.123   7.904   6.304 -1.3715 -0.1138 -0.4748
  733MOL0     C98873   6.071   7.794   6.239  0.5985 -0.0084  0.6140
  733MOL0     C98874   5.853   7.427   6.117 -0.1020  0.9323 -0.9048
  733MOL0     C98875   5.722   7.418   6.181 -0.4142  0.3279 -0.2591
  733MOL0     C98876   5.631   7.316   6.152 -0.4860  0.1279 -0.2499
  733MOL0     C98877   5.656   7.237   6.034  0.0969 -0.0247  0.0303
  733MOL0     O98878   5.563   7.153   5.981  0.2501 -0.0596 -1.3556
  733MOL0     C98879   5.572   7.014   5.960  0.6102  0.1640  1.1403
  733MOL0     C98880   5.566   6.920   6.087  0.3748 -0.8257  0.3378
  733MOL0     C98881   5.421   6.890   6.128 -0.5721  0.0284  0.6006
  733MOL0     C98882   5.426   6.772   6.228 -0.8606 -0.9272  0.3081
  733MOL0     C98883   5.476   6.831   6.351  0.2653 -0.1454 -0.4779
  733MOL0     C98884   5.515   6.872   6.464 -0.1508 -0.6079  0.1540
  733MOL0     C98885   5.783   7.246   5.972  0.2287  0.2618 -0.8052
  733MOL0     C98886   5.881   7.331   6.016  0.1072  0.9174  0.6059
  733MOL0     C98887   6.011   7.326   5.944 -0.5971 -0.5572  1.1383
  733MOL0     H98888   5.794   7.749   6.435 -1.3367 -0.1931 -2.8181
  733MOL0     H98889   5.911   7.942   6.553 -0.8367 -0.6128  0.6873
  733MOL0     H98890   6.307   8.090   6.447  1.0348  0.7568  0.7154
  733MOL0     H98891   6.188   8.187   6.363 -1.6136  0.6495  1.2200
  733MOL0     H98892   6.244   8.204   6.659  0.6936  0.6778  0.1314
  733MOL0     H98893   6.134   8.310   6.570  0.3247 -0.3069  0.9573
  733MOL0     H98894   6.316   8.446   6.596  1.2915 -2.2942  2.1083
  733MOL0     H98895   6.306   8.403   6.430 -0.6318 -1.8740 -0.3748
  733MOL0     H98896   6.485   8.223   6.493  1.2605  1.1267 -2.2368
  733MOL0     H98897   6.542   8.388   6.475 -1.2011  0.0589 -0.9663
  733MOL0     H98898   6.535   8.426   6.700  2.8717  0.0046 -2.0129
  733MOL0     H98899   6.464   8.256   6.740 -0.1585 -1.0194 -0.4383
  733MOL0     H98900   6.652   8.148   6.640  0.6635 -0.2780  0.8440
  733MOL0     H98901   6.732   8.302   6.611  2.1383  1.3424  3.1250
  733MOL0     H98902   6.841   8.219   6.789 -0.4410  1.2291 -0.5852
  733MOL0     H98903   6.697   8.160   6.873  2.2151 -2.6699 -1.3545
  733MOL0     H98904   6.805   8.439   6.818  0.3181 -0.5670  0.1036
  733MOL0     H98905   6.652   8.426   6.911  1.0436  2.2155  0.6709
  733MOL0     H98906   7.018   8.303   6.949  0.2040  1.3349  0.5567
  733MOL0     H98907   7.177   8.359   7.171 -2.9130  3.5213  0.6452
  733MOL0     H98908   7.121   8.334   7.328 -0.7705  1.4719 -1.2645
  733MOL0     H98909   7.122   8.122   7.113  0.0525  3.1252 -0.6829
  733MOL0     H98910   7.254   8.128   7.227  0.0542  1.6513 -2.9602
  733MOL0     H98911   7.078   7.951   7.266 -1.2728 -0.2722 -0.6956
  733MOL0     H98912   6.956   8.073   7.284  0.2955  0.4661 -3.4764
  733MOL0     H98913   7.033   8.028   7.525  0.3501 -0.4206 -1.3147
  733MOL0     H98914   7.148   8.157   7.481  0.1364  1.0099  0.2172
  733MOL0     H98915   7.263   7.988   7.729 -0.6765 -0.5020 -0.0646
  733MOL0     H98916   7.222   7.810   7.897 -0.2746  0.4064 -0.3971
  733MOL0     H98917   6.868   7.415   8.053  4.4949  1.0900 -0.1875
  733MOL0     H98918   6.886   7.204   8.180  0.1417 -0.1744  0.2317
  733MOL0     H98919   6.931   6.882   7.969  0.3783  0.4167 -0.3493
  733MOL0     H98920   7.100   6.874   7.936  0.9805  1.9276 -0.5252
  733MOL0     H98921   7.035   6.665   8.015 -0.6536  0.9882 -2.0452
  733MOL0     H98922   7.132   6.725   8.137 -1.4486 -2.6880  2.3059
  733MOL0     H98923   6.929   6.631   8.245  0.3860  1.3491  1.9369
  733MOL0     H98924   6.934   6.795   8.290  2.0552 -1.3989  1.6755
  733MOL0     H98925   6.766   6.686   8.056  0.3752  0.9624 -0.5660
  733MOL0     H98926   6.759   6.839   8.124  0.0684 -0.3442 -2.0560
  733MOL0     H98927   6.678   6.709   8.350 -0.7210  0.3218 -0.2216
  733MOL0     H98928   6.675   6.566   8.243 -1.8933  0.2056 -1.2355
  733MOL0     H98929   6.528   6.827   8.201  4.2063  0.3822  2.7763
  733MOL0     H98930   6.537   6.694   8.074  0.9223 -2.2491 -0.1475
  733MOL0     H98931   6.446   6.671   8.375 -2.3575  1.2375  0.7413
  733MOL0     H98932   6.405   6.555   8.245 -0.0918  0.0220 -1.7880
  733MOL0     H98933   6.212   6.688   8.303  1.4081  1.3468  1.9624
  733MOL0     H98934   6.303   6.846   8.284 -0.2751 -0.1131  1.1524
  733MOL0     H98935   7.145   7.057   7.868 -0.0721 -0.2598  1.4877
  733MOL0     H98936   7.138   7.275   7.761  1.0275  0.1291  0.1892
  733MOL0     H98937   7.061   7.549   7.592 -0.3120 -1.9626  1.2603
  733MOL0     H98938   7.112   7.717   7.427 -2.2978  0.3619 -0.0536
  733MOL0     H98939   6.211   7.945   6.257 -1.6308 -1.0184 -1.8143
  733MOL0     H98940   6.120   7.746   6.154 -2.7838  0.2305 -1.6470
  733MOL0     H98941   5.687   7.478   6.264  0.6740 -1.6218  1.7350
  733MOL0     H98942   5.531   7.308   6.194 -1.0539 -0.3938 -1.6412
  733MOL0     H98943   5.664   6.990   5.905  1.1850  3.5187  0.4347
  733MOL0     H98944   5.495   6.983   5.890  2.6320 -2.7816  0.0085
  733MOL0     H98945   5.634   6.969   6.157  0.9022 -0.0288 -0.7080
  733MOL0     H98946   5.615   6.828   6.054 -3.9174 -2.4599 -2.2798
  733MOL0     H98947   5.367   6.850   6.041 -0.8639 -1.6230  1.4960
  733MOL0     H98948   5.381   6.977   6.180  0.0237 -0.6768  2.3016
  733MOL0     H98949   5.327   6.729   6.250 -2.9005  0.3311 -4.8837
  733MOL0     H98950   5.483   6.691   6.182  0.9839  0.9482 -0.8805
  733MOL0     H98951   5.539   6.894   6.566  1.8757 -3.7395  0.4903
  733MOL0     H98952   5.799   7.185   5.883 -0.9759 -0.9055 -0.2605
  733MOL0     H98953   6.060   7.420   5.917  3.1895 -2.8932 -1.0186
  733MOL0     H98954   6.098   7.274   5.985 -0.1199 -0.2971  0.4592
  733MOL0     H98955   5.977   7.287   5.848 -1.3729  1.2469  0.6233
  734MOL0     O98956   5.246   4.517   2.765  0.6652  0.2773 -0.1448
  734MOL0     C98957   5.216   4.399   2.752 -0.6122  0.9233 -0.0482
  734MOL0     O98958   5.179   4.318   2.860  0.2259 -0.4310 -0.2769
  734MOL0     C98959   5.163   4.391   2.974  1.0284 -0.6562 -0.0031
  734MOL0     C98960   5.284   4.411   3.047 -0.3638 -0.5706 -0.0643
  734MOL0     C98961   5.289   4.499   3.153 -0.5181 -0.0770  0.4092
  734MOL0     C98962   5.178   4.571   3.190 -0.1686 -0.1161  0.7069
  734MOL0     O98963   5.197   4.669   3.286 -0.3621  0.0304  0.8642
  734MOL0     C98964   5.099   4.669   3.381  0.2771 -0.6686 -0.1736
  734MOL0     C98965   5.123   4.782   3.489 -0.2084 -0.2367  0.4977
  734MOL0     C98966   5.247   4.751   3.573  0.0474  0.4135 -0.0711
  734MOL0     C98967   5.256   4.813   3.712  0.6148 -0.1125 -0.7343
  734MOL0     C98968   5.392   4.777   3.784  0.8828 -0.2807  0.5991
  734MOL0     C98969   5.402   4.871   3.900 -0.6090  0.4399 -0.6948
  734MOL0     C98970   5.556   4.912   3.916 -0.0040  0.1046 -0.0976
  734MOL0     C98971   5.643   4.795   3.973  0.0704  0.7487 -0.1946
  734MOL0     N98972   5.601   4.725   4.104  0.4428 -0.1763  0.1221
  734MOL0     C98973   5.610   4.790   4.217 -0.3650 -0.0050 -1.2329
  734MOL0     C98974   5.514   4.733   4.289  0.6374 -0.3715 -1.2891
  734MOL0     C98975   5.473   4.764   4.436  0.0294  0.6208  0.1344
  734MOL0     C98976   5.436   4.908   4.451  0.0644  0.1430  0.0233
  734MOL0     C98977   5.421   4.949   4.605  0.0453  0.7680  0.5924
  734MOL0     C98978   5.532   5.014   4.664  0.6511  0.1726 -0.3297
  734MOL0     O98979   5.491   5.058   4.795  0.2222  0.2647  0.3918
  734MOL0     C98980   5.590   5.097   4.878  0.0125  0.3279 -0.5719
  734MOL0     C98981   5.711   5.029   4.915 -0.3020 -0.1218  0.4190
  734MOL0     C98982   5.805   5.091   5.003  0.7005 -0.1993 -0.3885
  734MOL0     C98983   5.777   5.222   5.059  1.0452  0.8802  0.1206
  734MOL0     C98984   5.860   5.299   5.153  0.0282  0.1003  0.2267
  734MOL0     O98985   5.992   5.263   5.141  1.3072 -0.2077  0.0426
  734MOL0     C98986   6.087   5.351   5.193  0.0331 -0.3012  0.6112
  734MOL0     C98987   6.115   5.483   5.148  0.2733  0.7240  0.6914
  734MOL0     C98988   6.217   5.561   5.195  0.1562 -0.3697 -0.7071
  734MOL0     C98989   6.311   5.505   5.281  0.5955 -0.1239  0.0432
  734MOL0     O98990   6.404   5.594   5.322 -0.2061 -0.3519 -0.1837
  734MOL0     C98991   6.528   5.544   5.381 -0.6604 -0.3989  0.4977
  734MOL0     C98992   6.618   5.474   5.276 -0.1502 -0.4701  0.4962
  734MOL0     C98993   6.763   5.533   5.272  0.6565  0.5068  0.3180
  734MOL0     C98994   6.770   5.638   5.163  0.5656  0.9436  0.0121
  734MOL0     C98995   6.908   5.692   5.165 -0.0138  0.7823 -0.0727
  734MOL0     C98996   6.935   5.788   5.055 -1.5745  0.2970  0.7002
  734MOL0     C98997   6.859   5.914   5.072  0.7452 -0.2347  0.4123
  734MOL0     C98998   6.888   6.015   4.964  0.4070  0.0652  0.3010
  734MOL0    Cl98999   7.056   6.033   4.905 -0.0366  0.5843  0.4276
  734MOL0     C99000   6.283   5.375   5.328  0.4526 -0.0726  0.4306
  734MOL0     C99001   6.176   5.300   5.287 -0.5414 -0.7344 -1.1843
  734MOL0     O99002   5.813   5.391   5.223  0.6320  0.2279 -0.4940
  734MOL0     C99003   5.653   5.279   5.019  1.0041 -0.8225  0.6560
  734MOL0     C99004   5.565   5.222   4.930  0.3081 -0.1785  0.1005
  734MOL0     N99005   5.461   4.622   4.224 -0.8226 -0.8149 -0.2596
  734MOL0     N99006   5.510   4.615   4.112 -0.4110  0.1421  0.4851
  734MOL0     C99007   5.055   4.553   3.115 -0.5217 -0.0183  0.8756
  734MOL0     C99008   5.045   4.455   3.016 -0.5648  0.1033  0.3287
  734MOL0     C99009   5.228   4.324   2.625 -0.6528  0.3574  0.2761
  734MOL0     C99010   5.269   4.193   2.611  0.0525 -0.4030  0.4065
  734MOL0     C99011   5.277   4.120   2.490  0.5345 -0.2674  0.1020
  734MOL0     C99012   5.255   4.178   2.371  0.6017 -0.5251  0.4716
  734MOL0     O99013   5.280   4.112   2.253 -0.3868 -0.1443  0.7679
  734MOL0     C99014   5.231   4.173   2.138 -0.9221  0.1760 -0.3009
  734MOL0     C99015   5.249   4.070   2.029 -0.0652  0.9451 -0.0610
  734MOL0     C99016   5.159   3.948   2.029 -0.0970 -0.4740 -0.0096
  734MOL0     C99017   5.176   3.842   2.129 -0.6003  1.1065 -0.6785
  734MOL0     C99018   5.088   3.874   2.252  0.0696 -0.1935  0.2601
  734MOL0     C99019   5.018   3.899   2.348  0.2989  0.2156 -0.9542
  734MOL0     C99020   5.210   4.315   2.378 -0.2668 -0.2274  0.1959
  734MOL0     C99021   5.191   4.388   2.500  0.2430  0.6656  0.0367
  734MOL0     C99022   5.153   4.540   2.495 -0.1548  0.3436 -0.6894
  734MOL0     H99023   5.375   4.360   3.015 -0.2083 -0.7415  0.6389
  734MOL0     H99024   5.376   4.513   3.217  1.3667  0.8425 -2.1872
  734MOL0     H99025   4.998   4.673   3.339 -0.2518 -2.8709  0.7030
  734MOL0     H99026   5.103   4.570   3.429 -0.8783 -2.0159 -2.6536
  734MOL0     H99027   5.030   4.794   3.545  0.4119 -1.3357  1.8088
  734MOL0     H99028   5.130   4.874   3.430  0.7272 -0.0668  0.8654
  734MOL0     H99029   5.326   4.780   3.504  2.0903 -3.2317  0.5022
  734MOL0     H99030   5.259   4.645   3.596 -3.4050  0.4202  2.8130
  734MOL0     H99031   5.245   4.920   3.690 -0.0059  0.0128  0.1055
  734MOL0     H99032   5.166   4.776   3.762 -1.2729  2.4725 -1.9874
  734MOL0     H99033   5.398   4.671   3.812  0.5348 -0.0163  1.7240
  734MOL0     H99034   5.474   4.797   3.714  0.0299  1.3764  0.0117
  734MOL0     H99035   5.356   4.970   3.892 -0.4903  1.1321  4.0258
  734MOL0     H99036   5.373   4.823   3.994 -1.8205 -1.0249 -1.7777
  734MOL0     H99037   5.558   4.997   3.985 -5.7912 -0.5877  1.4858
  734MOL0     H99038   5.608   4.940   3.825  0.2863  0.5259  0.1969
  734MOL0     H99039   5.656   4.725   3.889 -0.5588  0.6434 -0.2059
  734MOL0     H99040   5.736   4.849   3.992 -0.0185  0.4834  1.0486
  734MOL0     H99041   5.675   4.869   4.253 -1.0184  0.1288 -0.3086
  734MOL0     H99042   5.379   4.712   4.452  0.4111 -1.0911 -2.4512
  734MOL0     H99043   5.555   4.731   4.501  0.1327  2.8271  1.2196
  734MOL0     H99044   5.512   4.967   4.400  2.9358 -2.2086  1.3066
  734MOL0     H99045   5.341   4.931   4.400  0.6050 -1.6302 -1.9171
  734MOL0     H99046   5.367   4.864   4.648 -0.2770  0.7719  0.2049
  734MOL0     H99047   5.350   5.032   4.617 -1.1746 -0.4834  2.6564
  734MOL0     H99048   5.577   5.102   4.615 -0.8596  0.2801 -1.5932
  734MOL0     H99049   5.613   4.941   4.677 -0.5802 -1.3029 -0.7209
  734MOL0     H99050   5.737   4.933   4.873 -1.4234 -0.6501  0.8883
  734MOL0     H99051   5.899   5.040   5.022  1.1798  1.2523  1.4419
  734MOL0     H99052   6.039   5.515   5.076 -0.0903  0.4824  0.9648
  734MOL0     H99053   6.245   5.663   5.170 -2.4388  0.9166  1.2087
  734MOL0     H99054   6.581   5.630   5.422  3.0899 -2.1039 -0.3419
  734MOL0     H99055   6.503   5.479   5.466  2.5504  1.4333  3.0890
  734MOL0     H99056   6.613   5.367   5.301  2.7289 -0.2344  2.5215
  734MOL0     H99057   6.574   5.484   5.177 -0.5624 -2.8672  0.3673
  734MOL0     H99058   6.785   5.561   5.375  0.1465  1.0606  0.2847
  734MOL0     H99059   6.847   5.467   5.249  0.2639 -0.5481  1.7560
  734MOL0     H99060   6.708   5.718   5.204 -1.3021 -1.4222  2.1854
  734MOL0     H99061   6.730   5.608   5.066 -2.4887  0.5700  1.2588
  734MOL0     H99062   6.976   5.608   5.147 -0.3555  1.0319 -2.9255
  734MOL0     H99063   6.936   5.752   5.252 -0.1593  3.3589 -1.7214
  734MOL0     H99064   7.042   5.808   5.070 -0.8356 -3.0814  0.8152
  734MOL0     H99065   6.926   5.751   4.953 -1.2983  0.5363  0.5872
  734MOL0     H99066   6.890   5.965   5.164 -0.3201 -1.1785  1.3323
  734MOL0     H99067   6.751   5.894   5.065  0.9944 -1.1429 -1.6339
  734MOL0     H99068   6.818   5.996   4.882 -3.2243 -0.6822  3.3115
  734MOL0     H99069   6.863   6.115   5.002 -1.7122 -0.8543  1.5194
  734MOL0     H99070   6.354   5.323   5.391 -1.6863 -1.4230  1.8493
  734MOL0     H99071   6.169   5.198   5.324 -1.9148  0.0989  1.0113
  734MOL0     H99072   5.624   5.375   5.060 -0.5567 -1.1773  0.4489
  734MOL0     H99073   5.471   5.267   4.899 -0.6217 -1.0835  1.4495
  734MOL0     H99074   4.979   4.628   3.128 -3.3051 -2.2203 -1.3153
  734MOL0     H99075   4.964   4.450   2.945  1.1445 -0.3586 -1.7014
  734MOL0     H99076   5.279   4.133   2.701 -2.6960 -0.0618  1.0211
  734MOL0     H99077   5.299   4.014   2.481 -0.7903 -0.6701  1.3699
  734MOL0     H99078   5.287   4.264   2.116 -3.4607  2.0626  0.4884
  734MOL0     H99079   5.126   4.191   2.163 -1.2261 -1.6402 -0.1802
  734MOL0     H99080   5.349   4.029   2.046  0.1933  1.0544 -1.2315
  734MOL0     H99081   5.250   4.116   1.930  1.8390  3.4215  0.9803
  734MOL0     H99082   5.189   3.906   1.932  0.6135  3.1716 -1.5521
  734MOL0     H99083   5.055   3.981   2.029 -0.0741 -0.2746  2.1557
  734MOL0     H99084   5.144   3.743   2.095 -2.0044  1.5632 -0.7703
  734MOL0     H99085   5.281   3.827   2.156 -0.6764  0.9830 -0.4442
  734MOL0     H99086   4.951   3.923   2.428 -1.1539  0.0322 -2.0967
  734MOL0     H99087   5.198   4.376   2.289  0.2244  0.7587  0.7841
  734MOL0     H99088   5.149   4.578   2.393  0.6997 -0.8585 -1.1848
  734MOL0     H99089   5.056   4.557   2.545 -1.4637 -1.6383 -2.3755
  734MOL0     H99090   5.236   4.594   2.542  0.2566  2.8604 -3.9412
  735MOL0     O99091   5.168   2.639  10.185 -0.1211 -0.0512 -0.1186
  735MOL0     C99092   5.164   2.752  10.247  0.3167  0.3866  0.3525
  735MOL0     O99093   5.227   2.870  10.211 -0.5520  0.2937  0.4385
  735MOL0     C99094   5.344   2.864  10.140  0.4683 -0.0802  0.3456
  735MOL0     C99095   5.433   2.959  10.184  0.0891 -0.2977 -0.2628
  735MOL0     C99096   5.557   2.984  10.118 -0.0263 -0.6479 -0.3390
  735MOL0     C99097   5.597   2.894  10.010 -0.0680 -0.4919  0.0057
  735MOL0     O99098   5.707   2.911   9.938 -0.2812 -0.1491  0.2174
  735MOL0     C99099   5.734   3.049   9.895 -0.8153 -0.5564  0.1782
  735MOL0     C99100   5.778   3.044   9.750  0.7737 -0.3032 -0.3941
  735MOL0     C99101   5.766   3.179   9.692  0.0392  0.7720  1.0522
  735MOL0     C99102   5.887   3.220   9.621 -1.1763  0.7697  0.1743
  735MOL0     C99103   5.896   3.180   9.482  1.1864 -0.2367 -0.4923
  735MOL0     C99104   6.042   3.164   9.442 -0.2261 -0.1169  0.5906
  735MOL0     C99105   6.085   3.021   9.421 -0.1710  0.0063  0.1785
  735MOL0     C99106   6.231   2.995   9.407  0.9374  0.1055 -0.2274
  735MOL0     N99107   6.288   2.954   9.279  0.1256  0.4814  0.3791
  735MOL0     C99108   6.370   3.032   9.200  0.2925  0.2639  0.0586
  735MOL0     C99109   6.411   2.955   9.091  0.8500  0.3608 -0.2833
  735MOL0     C99110   6.524   2.981   8.988  0.1371 -0.5212 -1.1560
  735MOL0     C99111   6.664   2.935   9.056 -0.1533  0.2332  0.9467
  735MOL0     C99112   6.782   2.927   8.961  0.2667 -0.0431 -0.4038
  735MOL0     C99113   6.801   3.039   8.870 -0.1410  0.1786 -0.2636
  735MOL0     O99114   6.938   3.044   8.830  0.7191 -0.2902  0.8129
  735MOL0     C99115   6.981   2.980   8.723 -0.6890 -0.1469 -0.3915
  735MOL0     C99116   6.909   2.890   8.655  0.1389 -0.1887  1.1126
  735MOL0     C99117   6.963   2.825   8.543 -0.5212 -0.0319 -0.0442
  735MOL0     C99118   7.088   2.862   8.491 -0.7781 -0.4330  0.5176
  735MOL0     C99119   7.149   2.793   8.364  0.1692 -0.1769 -0.3831
  735MOL0     O99120   7.081   2.685   8.312 -0.2495 -0.3312  0.2800
  735MOL0     C99121   7.123   2.617   8.202 -0.4794  0.5505  0.2822
  735MOL0     C99122   7.259   2.582   8.167  0.0401 -0.1811 -0.1037
  735MOL0     C99123   7.282   2.512   8.047 -0.0487 -0.1350  0.1297
  735MOL0     C99124   7.181   2.485   7.960 -0.0010  0.7980  0.5248
  735MOL0     O99125   7.210   2.405   7.849 -0.2657 -0.3550  0.1318
  735MOL0     C99126   7.142   2.445   7.729 -0.6577 -0.0535  0.3952
  735MOL0     C99127   7.176   2.341   7.616 -0.1480  1.1804 -0.1930
  735MOL0     C99128   7.090   2.368   7.491 -0.2402  0.0468  0.1089
  735MOL0     C99129   7.128   2.277   7.370 -0.0455 -0.5596 -0.3419
  735MOL0     C99130   7.030   2.311   7.257 -0.0237 -0.0940  0.0379
  735MOL0     C99131   7.067   2.235   7.120  0.0524  0.0212  0.8872
  735MOL0     C99132   6.954   2.274   7.021 -0.4939  0.4468 -0.1843
  735MOL0     C99133   6.960   2.189   6.900  0.9310 -0.0314 -0.5816
  735MOL0    Cl99134   7.096   2.241   6.813 -0.0283 -0.6901  0.4898
  735MOL0     C99135   7.046   2.514   7.991  0.1641 -0.2989 -0.2331
  735MOL0     C99136   7.020   2.582   8.107 -0.6888 -0.5450 -0.0630
  735MOL0     O99137   7.254   2.843   8.320 -0.1015 -0.2688  0.5080
  735MOL0     C99138   7.170   2.954   8.571  1.0295  0.2438 -0.5195
  735MOL0     C99139   7.105   3.013   8.688 -1.3857  0.0427  0.1715
  735MOL0     N99140   6.363   2.822   9.115  0.4140 -0.3939  0.5159
  735MOL0     N99141   6.284   2.827   9.217 -0.2999  0.2689 -0.0870
  735MOL0     C99142   5.502   2.799   9.966 -0.2743 -0.7461 -0.3395
  735MOL0     C99143   5.374   2.793  10.022 -0.2587  0.9884 -0.2570
  735MOL0     C99144   5.069   2.755  10.366 -0.8016 -0.0656 -0.3423
  735MOL0     C99145   4.950   2.691  10.358  0.1042  0.9516  0.8687
  735MOL0     C99146   4.854   2.680  10.457  0.2534  0.6844  0.3873
  735MOL0     C99147   4.889   2.732  10.582 -0.0820  0.3065  0.5484
  735MOL0     O99148   4.816   2.721  10.691  1.0907  0.3638 -0.2879
  735MOL0     C99149   4.760   2.841  10.747 -1.4438  0.6600  0.0917
  735MOL0     C99150   4.626   2.828  10.801 -0.7949  0.3781 -0.1715
  735MOL0     C99151   4.563   2.946  10.882 -0.2160  0.9248  0.0342
  735MOL0     C99152   4.420   2.917  10.933  0.8746 -0.5982 -0.4924
  735MOL0     C99153   4.388   3.036  11.010 -0.8400  0.0511  0.3737
  735MOL0     C99154   4.372   3.131  11.085  0.3466 -0.3306  0.0631
  735MOL0     C99155   5.014   2.794  10.598  0.0398 -0.1898  0.0408
  735MOL0     C99156   5.110   2.808  10.490  0.5000 -0.2122  0.2487
  735MOL0     C99157   5.238   2.883  10.533  0.1419 -0.3709  0.2678
  735MOL0     H99158   5.402   3.024  10.264 -0.1475  0.6051 -1.0666
  735MOL0     H99159   5.611   3.067  10.162  0.8112 -2.4592  2.2709
  735MOL0     H99160   5.644   3.107   9.917 -0.6309 -0.0570 -0.3695
  735MOL0     H99161   5.818   3.092   9.951 -0.5927 -1.8796  0.9209
  735MOL0     H99162   5.712   2.978   9.692  0.2096 -0.2062  0.1267
  735MOL0     H99163   5.877   2.998   9.745  2.4647  3.1195 -2.4418
  735MOL0     H99164   5.739   3.253   9.767 -1.2144  1.0997  0.2952
  735MOL0     H99165   5.681   3.164   9.625 -0.6687  2.3818  1.5591
  735MOL0     H99166   5.892   3.329   9.631 -0.2635  0.6318  1.4279
  735MOL0     H99167   5.972   3.184   9.680  0.0232  3.5503  0.2928
  735MOL0     H99168   5.837   3.090   9.462  3.1050 -1.3466 -1.3413
  735MOL0     H99169   5.858   3.270   9.432 -1.9056 -0.3126  1.4011
  735MOL0     H99170   6.052   3.219   9.348 -1.1135  0.1402  0.6328
  735MOL0     H99171   6.097   3.219   9.520  0.5490 -0.4952  0.3196
  735MOL0     H99172   6.042   2.975   9.331 -1.1881 -2.3283  1.7485
  735MOL0     H99173   6.052   2.964   9.508 -0.3310 -2.3892 -1.3503
  735MOL0     H99174   6.280   3.084   9.449  0.4831 -0.6390  2.0113
  735MOL0     H99175   6.259   2.913   9.474  2.4303  1.4470  0.8811
  735MOL0     H99176   6.404   3.135   9.203 -1.3533  1.0819 -3.5579
  735MOL0     H99177   6.492   2.922   8.901 -1.4140 -2.7927  0.8139
  735MOL0     H99178   6.539   3.084   8.956 -0.2184 -0.4714 -1.1636
  735MOL0     H99179   6.693   3.009   9.132 -1.4058  0.6395  1.0556
  735MOL0     H99180   6.646   2.841   9.110  1.3390 -0.3452  0.4813
  735MOL0     H99181   6.763   2.842   8.894  0.6985 -2.3997  2.2611
  735MOL0     H99182   6.868   2.889   9.017  1.5222  0.7886 -1.7164
  735MOL0     H99183   6.787   3.130   8.930  1.1182 -0.0124  0.3628
  735MOL0     H99184   6.730   3.048   8.788  1.2579 -0.5656 -1.6137
  735MOL0     H99185   6.816   2.860   8.703 -1.3221  2.4424  0.1464
  735MOL0     H99186   6.899   2.755   8.490 -0.0572 -0.9907  0.6378
  735MOL0     H99187   7.348   2.599   8.226  1.4394 -0.4450 -2.0124
  735MOL0     H99188   7.382   2.474   8.026  0.4229  0.2833  1.5116
  735MOL0     H99189   7.034   2.452   7.741 -0.3473  2.2296  2.7100
  735MOL0     H99190   7.174   2.542   7.690  2.8299 -0.8638  0.9079
  735MOL0     H99191   7.284   2.346   7.602 -0.2262  1.0987 -0.8651
  735MOL0     H99192   7.153   2.243   7.658  1.9033  1.1049  0.9154
  735MOL0     H99193   6.986   2.364   7.524  0.0097  2.7368  1.5634
  735MOL0     H99194   7.112   2.468   7.454  0.5687  0.1669  0.8709
  735MOL0     H99195   7.114   2.176   7.408  0.0075 -0.7420 -0.7936
  735MOL0     H99196   7.233   2.292   7.340 -0.0875 -0.9716 -0.7085
  735MOL0     H99197   7.031   2.419   7.239 -1.1562 -0.2671 -1.1963
  735MOL0     H99198   6.930   2.282   7.292 -0.2737  0.5106 -0.1566
  735MOL0     H99199   7.166   2.262   7.084 -0.4984 -1.2014 -1.7821
  735MOL0     H99200   7.066   2.126   7.123 -2.3224 -0.3891 -4.1356
  735MOL0     H99201   6.970   2.381   7.003 -0.0367  0.0445 -2.5688
  735MOL0     H99202   6.856   2.261   7.067  0.2326  0.2190  1.3567
  735MOL0     H99203   6.971   2.085   6.932  0.3952  0.6369  1.9726
  735MOL0     H99204   6.872   2.196   6.834  1.0495  1.0699 -0.6417
  735MOL0     H99205   6.962   2.470   7.938 -1.0384 -0.1140  1.4274
  735MOL0     H99206   6.914   2.593   8.131 -1.0951 -3.2613 -0.3043
  735MOL0     H99207   7.273   2.979   8.549  0.8225 -1.0359 -3.3390
  735MOL0     H99208   7.158   3.083   8.752  0.7819 -0.0371 -1.3909
  735MOL0     H99209   5.527   2.739   9.879  0.3063  0.0095 -0.7084
  735MOL0     H99210   5.290   2.735   9.987 -1.2695  2.8862 -1.1294
  735MOL0     H99211   4.908   2.634  10.276  1.2570  2.1042 -0.5869
  735MOL0     H99212   4.763   2.623  10.446 -0.2294  1.6620 -0.9516
  735MOL0     H99213   4.762   2.918  10.670 -2.1421  0.8582  0.2652
  735MOL0     H99214   4.810   2.878  10.837 -0.9376 -0.7859  0.4354
  735MOL0     H99215   4.643   2.747  10.874 -0.5085 -0.4879 -1.1787
  735MOL0     H99216   4.554   2.784  10.732  1.1809 -2.8639 -0.3687
  735MOL0     H99217   4.558   3.026  10.808 -2.9103  1.0460  0.2675
  735MOL0     H99218   4.627   2.970  10.968 -1.2772  2.8041  0.3412
  735MOL0     H99219   4.342   2.910  10.856  1.7668 -1.2328 -1.3620
  735MOL0     H99220   4.433   2.830  10.998  0.8129 -0.2463  0.0017
  735MOL0     H99221   4.351   3.212  11.151  4.9943 -0.0116  1.4462
  735MOL0     H99222   5.039   2.843  10.691 -0.9775  0.3950  0.0249
  735MOL0     H99223   5.248   2.991  10.522 -0.9822 -0.2947 -0.0671
  735MOL0     H99224   5.248   2.862  10.640 -0.2968  2.6754  1.0035
  735MOL0     H99225   5.325   2.844  10.479  0.7200  0.0215  0.8854
  736MOL0     O99226   5.909   3.094   2.309 -0.4883  0.3696 -0.1513
  736MOL0     C99227   5.961   3.127   2.206  0.1321 -0.1495 -0.2598
  736MOL0     O99228   5.914   3.226   2.122 -0.1070 -0.0990 -0.2958
  736MOL0     C99229   5.824   3.313   2.176 -0.6778 -0.1512  0.6046
  736MOL0     C99230   5.698   3.274   2.222 -0.1597 -0.0952  0.0632
  736MOL0     C99231   5.613   3.378   2.280  0.5758 -0.1510 -0.0657
  736MOL0     C99232   5.649   3.514   2.287 -0.2626 -0.3208 -0.1985
  736MOL0     O99233   5.575   3.615   2.346  0.1609 -0.3916 -0.2889
  736MOL0     C99234   5.431   3.613   2.354  0.5370  0.3301  0.2134
  736MOL0     C99235   5.380   3.707   2.469 -0.9272 -1.0079 -0.3318
  736MOL0     C99236   5.400   3.658   2.610  0.1575  0.5397 -0.0313
  736MOL0     C99237   5.382   3.769   2.722 -0.6382  0.1944 -0.3607
  736MOL0     C99238   5.432   3.722   2.860  1.1595 -0.5082 -0.4779
  736MOL0     C99239   5.579   3.729   2.874  1.3258 -0.1450  0.3905
  736MOL0     C99240   5.630   3.711   3.022 -0.4228  0.2413  0.4956
  736MOL0     C99241   5.666   3.852   3.072 -0.7525 -0.5386  0.0149
  736MOL0     N99242   5.789   3.909   3.007  0.4324  0.0582  0.3529
  736MOL0     C99243   5.803   4.040   2.951 -0.5072  0.4272  0.5617
  736MOL0     C99244   5.936   4.051   2.896  0.5354  0.1188 -0.6576
  736MOL0     C99245   6.003   4.164   2.829 -0.8480 -0.3614 -0.0069
  736MOL0     C99246   6.161   4.165   2.850  1.0859  1.2261 -0.3461
  736MOL0     C99247   6.223   4.303   2.805 -0.8718 -0.4210 -0.3845
  736MOL0     C99248   6.378   4.315   2.810 -0.0812  0.1994  0.6392
  736MOL0     O99249   6.433   4.228   2.707 -0.0937  0.2633 -1.1154
  736MOL0     C99250   6.567   4.206   2.716  1.4133  0.6954  0.3288
  736MOL0     C99251   6.613   4.102   2.629  1.0666  0.5772 -0.0110
  736MOL0     C99252   6.742   4.048   2.641  0.2631 -0.2446 -0.3596
  736MOL0     C99253   6.830   4.102   2.735  0.4003  0.1927  0.2026
  736MOL0     C99254   6.972   4.054   2.754 -0.3999 -0.0926 -0.1701
  736MOL0     O99255   6.990   3.924   2.727 -0.7205 -0.3351 -0.0066
  736MOL0     C99256   7.110   3.875   2.660  0.6885  0.0142 -0.4956
  736MOL0     C99257   7.141   3.738   2.662 -0.3657 -0.0081  0.8923
  736MOL0     C99258   7.246   3.687   2.581 -0.3512 -0.7611  0.0049
  736MOL0     C99259   7.327   3.773   2.506  0.4325 -0.9909  1.0417
  736MOL0     O99260   7.435   3.738   2.432 -0.2836  0.0871 -0.4707
  736MOL0     C99261   7.431   3.606   2.363 -0.3827 -0.3130  0.0521
  736MOL0     C99262   7.523   3.533   2.458 -0.1850  0.7320  0.3431
  736MOL0     C99263   7.582   3.411   2.393  0.4243 -0.2372 -0.5149
  736MOL0     C99264   7.643   3.313   2.497 -0.4582  0.4135  0.4601
  736MOL0     C99265   7.674   3.190   2.418 -1.2307 -0.4559  0.2502
  736MOL0     C99266   7.759   3.083   2.488  0.9861  0.7787 -0.4820
  736MOL0     C99267   7.905   3.131   2.525  0.4504 -0.7174  0.2043
  736MOL0     C99268   7.983   3.024   2.604 -0.2690  0.0962 -0.5656
  736MOL0    Cl99269   7.973   2.878   2.510  0.9090  0.1457  0.1037
  736MOL0     C99270   7.315   3.908   2.527  1.4147  0.2131  0.1725
  736MOL0     C99271   7.195   3.962   2.594 -0.5755  0.2501  0.4593
  736MOL0     O99272   7.059   4.139   2.770 -0.1840  0.4768  0.2576
  736MOL0     C99273   6.786   4.201   2.826 -0.9724  0.7652  0.4862
  736MOL0     C99274   6.657   4.256   2.817 -0.2124  0.0567  0.2654
  736MOL0     N99275   5.999   3.931   2.938  0.4624  0.0942 -0.4702
  736MOL0     N99276   5.906   3.848   2.993 -0.4527  0.1344 -0.4391
  736MOL0     C99277   5.774   3.546   2.238 -0.8236 -0.0583  0.1761
  736MOL0     C99278   5.865   3.450   2.189 -0.0283 -0.1777 -1.1495
  736MOL0     C99279   6.068   3.037   2.154 -0.0493 -0.6033 -0.6534
  736MOL0     C99280   6.067   3.031   2.017  0.1849  0.1597  0.4917
  736MOL0     C99281   6.154   2.944   1.945  0.1736 -0.5674 -0.9508
  736MOL0     C99282   6.240   2.855   2.009 -0.2040  0.6604  0.4625
  736MOL0     O99283   6.322   2.770   1.946 -0.5027 -0.0980 -0.0396
  736MOL0     C99284   6.357   2.787   1.808 -0.2238 -1.5605 -0.2537
  736MOL0     C99285   6.258   2.713   1.717  0.6526  0.0762 -0.1461
  736MOL0     C99286   6.276   2.562   1.718  0.9609 -1.0759 -0.4852
  736MOL0     C99287   6.162   2.492   1.649  0.5267  0.4335  0.2777
  736MOL0     C99288   6.179   2.507   1.501  1.1360 -1.1440 -0.0422
  736MOL0     C99289   6.172   2.515   1.379 -1.1783  0.4969 -0.3590
  736MOL0     C99290   6.239   2.861   2.148  1.1895 -0.9039 -0.7400
  736MOL0     C99291   6.151   2.942   2.223  0.1303 -0.6192  0.3433
  736MOL0     C99292   6.159   2.944   2.379 -0.1259  0.6539 -0.4063
  736MOL0     H99293   5.664   3.171   2.221  1.1512 -0.5383  0.0892
  736MOL0     H99294   5.516   3.342   2.315  0.1613  0.6893 -0.3181
  736MOL0     H99295   5.394   3.647   2.257  1.7085 -0.6875 -0.6226
  736MOL0     H99296   5.395   3.513   2.379  0.8422  0.1977  0.1353
  736MOL0     H99297   5.272   3.711   2.455 -0.9783 -2.5128 -0.5168
  736MOL0     H99298   5.418   3.809   2.459 -0.3199 -1.1038  0.8283
  736MOL0     H99299   5.484   3.589   2.619  0.1461  0.6854  1.2981
  736MOL0     H99300   5.317   3.589   2.629 -0.0861  1.2059  1.3985
  736MOL0     H99301   5.438   3.861   2.702 -0.3352 -0.3484 -2.2045
  736MOL0     H99302   5.278   3.802   2.727 -0.4502  1.8857 -4.0815
  736MOL0     H99303   5.383   3.779   2.939  3.3477  0.7821  0.0562
  736MOL0     H99304   5.405   3.617   2.872 -2.8935  0.4174 -0.3086
  736MOL0     H99305   5.619   3.649   2.811 -1.7190  0.8567 -3.2045
  736MOL0     H99306   5.616   3.819   2.824  1.6070 -1.7937 -2.5836
  736MOL0     H99307   5.719   3.650   3.038  0.4008  1.3452  0.2747
  736MOL0     H99308   5.548   3.676   3.085 -1.3740  4.3093  1.8176
  736MOL0     H99309   5.586   3.915   3.032 -0.4682  0.0512  0.3717
  736MOL0     H99310   5.666   3.851   3.181  0.2798 -5.6650  0.2017
  736MOL0     H99311   5.725   4.115   2.951 -1.9472 -0.9770  2.9765
  736MOL0     H99312   5.979   4.172   2.723  2.1552  1.1661 -0.7096
  736MOL0     H99313   5.961   4.249   2.883  0.5564 -0.7928  1.8594
  736MOL0     H99314   6.172   4.135   2.955  1.3616 -1.9715 -1.1607
  736MOL0     H99315   6.218   4.091   2.793  1.4745  1.0098  0.3079
  736MOL0     H99316   6.192   4.378   2.878  3.1752  0.2511  0.9488
  736MOL0     H99317   6.191   4.350   2.711 -2.8850 -1.4962 -0.2663
  736MOL0     H99318   6.424   4.297   2.908  1.5782  1.5383  0.1654
  736MOL0     H99319   6.404   4.417   2.782 -0.2422 -0.3105 -1.5771
  736MOL0     H99320   6.550   4.069   2.547  0.6634 -0.3272  0.6375
  736MOL0     H99321   6.780   3.964   2.584  0.1041 -1.1832  0.8856
  736MOL0     H99322   7.081   3.670   2.722 -0.9899  0.2176  0.5340
  736MOL0     H99323   7.248   3.579   2.576 -0.7294 -0.7044 -2.0810
  736MOL0     H99324   7.331   3.564   2.356 -2.1850  3.4196  1.0736
  736MOL0     H99325   7.457   3.622   2.258  0.0036  0.0181  0.1970
  736MOL0     H99326   7.613   3.590   2.482  0.9069 -0.1441 -1.4516
  736MOL0     H99327   7.457   3.517   2.544  1.5312 -0.3850  1.5114
  736MOL0     H99328   7.496   3.355   2.353 -3.1860  3.5429  1.1518
  736MOL0     H99329   7.654   3.434   2.314  1.3719 -2.9999 -0.5706
  736MOL0     H99330   7.588   3.284   2.586  1.2278  0.6852  1.6312
  736MOL0     H99331   7.733   3.362   2.536  1.9308 -1.9002 -1.7350
  736MOL0     H99332   7.729   3.228   2.331 -1.8917  0.6269  0.2829
  736MOL0     H99333   7.583   3.138   2.386 -2.1779 -1.2426  3.8501
  736MOL0     H99334   7.703   3.050   2.576  0.9659  2.0059 -0.0068
  736MOL0     H99335   7.761   2.994   2.425  1.7365  0.4173  0.0506
  736MOL0     H99336   7.910   3.220   2.588 -0.2260 -1.4096  1.2652
  736MOL0     H99337   7.974   3.147   2.442 -2.5678  1.0178 -2.2264
  736MOL0     H99338   8.091   3.041   2.611 -0.4808  1.4124 -0.2167
  736MOL0     H99339   7.937   2.995   2.699 -0.1560  0.1290 -0.5003
  736MOL0     H99340   7.378   3.974   2.469  0.7110  2.9010  2.2443
  736MOL0     H99341   7.173   4.068   2.591 -2.9919 -0.1931 -0.8122
  736MOL0     H99342   6.850   4.248   2.901  0.5224  1.7853 -1.3196
  736MOL0     H99343   6.621   4.332   2.886  0.2202  1.5018 -1.0554
  736MOL0     H99344   5.801   3.651   2.230 -0.2903 -0.1398  0.8312
  736MOL0     H99345   5.972   3.454   2.168  0.7136 -3.2448  1.3075
  736MOL0     H99346   6.003   3.096   1.958  0.2199 -0.5265 -0.3221
  736MOL0     H99347   6.149   2.967   1.840 -2.4548  0.0031 -0.7666
  736MOL0     H99348   6.463   2.768   1.786  0.4126  1.5591 -0.4352
  736MOL0     H99349   6.349   2.894   1.785 -1.6995 -2.0646 -2.3621
  736MOL0     H99350   6.253   2.751   1.615 -3.0736  0.6037  0.0847
  736MOL0     H99351   6.162   2.733   1.766  1.0554 -0.1078  0.7358
  736MOL0     H99352   6.280   2.514   1.817 -2.2292  2.3378  1.5530
  736MOL0     H99353   6.372   2.536   1.671  1.6529  0.3183  0.1006
  736MOL0     H99354   6.170   2.384   1.665  1.6423  0.6078  1.0036
  736MOL0     H99355   6.068   2.521   1.696  0.4672  0.2373  0.2803
  736MOL0     H99356   6.171   2.512   1.272 -1.9291  0.4477 -0.3547
  736MOL0     H99357   6.305   2.807   2.215  0.4018  1.0952  1.8138
  736MOL0     H99358   6.232   2.873   2.422 -0.6881 -0.5053 -1.3151
  736MOL0     H99359   6.166   3.046   2.419 -2.6232  0.5476  0.4918
  736MOL0     H99360   6.067   2.906   2.424 -0.5268  2.2397  0.1656
  737MOL0     O99361   7.976   3.960   7.737  0.3772 -0.3475 -0.0096
  737MOL0     C99362   7.925   3.858   7.782 -0.4047 -1.0348 -0.2406
  737MOL0     O99363   7.816   3.793   7.740 -0.8219 -0.0909 -0.1603
  737MOL0     C99364   7.724   3.870   7.679  1.7272  0.1979 -0.2998
  737MOL0     C99365   7.650   3.960   7.757  0.0294  0.1223  0.0784
  737MOL0     C99366   7.533   4.018   7.702  0.6135 -0.2901 -0.5444
  737MOL0     C99367   7.497   3.999   7.570 -0.2931 -0.8113 -0.7324
  737MOL0     O99368   7.383   4.061   7.522 -0.4438  0.1613 -0.3041
  737MOL0     C99369   7.290   3.960   7.498 -0.0042 -0.2300 -0.7733
  737MOL0     C99370   7.152   4.015   7.449  1.2787  0.0247  0.4919
  737MOL0     C99371   7.039   3.900   7.470 -1.1169 -1.2857  1.2426
  737MOL0     C99372   6.916   3.947   7.533  0.1106 -0.1315 -0.0767
  737MOL0     C99373   6.790   3.856   7.515  0.7322 -0.0643 -0.4646
  737MOL0     C99374   6.665   3.888   7.603  0.3552  0.0299 -0.8123
  737MOL0     C99375   6.621   4.038   7.599  1.1010 -0.6925  0.5270
  737MOL0     C99376   6.576   4.096   7.458 -0.0182  0.5110 -0.7354
  737MOL0     N99377   6.457   4.029   7.401 -0.3909  0.6514  0.0091
  737MOL0     C99378   6.469   3.905   7.337  0.7798  0.2134  0.5017
  737MOL0     C99379   6.341   3.865   7.323 -0.1496 -0.0233 -1.1008
  737MOL0     C99380   6.303   3.736   7.266 -0.0349  0.3082  0.1020
  737MOL0     C99381   6.249   3.627   7.366 -0.0176 -0.3601 -0.1571
  737MOL0     C99382   6.351   3.600   7.478 -0.8432 -0.4296  0.2278
  737MOL0     C99383   6.489   3.560   7.417 -0.1724 -0.1683  0.1939
  737MOL0     O99384   6.534   3.456   7.503  0.7943 -0.0570  0.0758
  737MOL0     C99385   6.641   3.489   7.575 -0.3220 -0.2022 -0.0572
  737MOL0     C99386   6.772   3.459   7.510  0.0884 -0.6328  0.6574
  737MOL0     C99387   6.886   3.478   7.586 -0.2044 -0.4050  0.9194
  737MOL0     C99388   6.883   3.522   7.722 -0.6750 -0.1882  0.5571
  737MOL0     C99389   6.999   3.571   7.798  0.1636 -0.3772  1.1794
  737MOL0     O99390   7.126   3.572   7.737  0.1811  0.4527  0.4253
  737MOL0     C99391   7.237   3.589   7.821 -0.4165 -1.2930  0.0573
  737MOL0     C99392   7.276   3.719   7.861  0.5847 -0.2517 -0.6763
  737MOL0     C99393   7.392   3.738   7.944  0.0922 -0.4002  0.3286
  737MOL0     C99394   7.461   3.624   7.991 -0.6931 -0.2655  0.4866
  737MOL0     O99395   7.560   3.646   8.081  0.4769 -0.5715  0.0336
  737MOL0     C99396   7.648   3.538   8.123  0.3758  0.4831  0.2100
  737MOL0     C99397   7.759   3.568   8.228 -0.1038  0.0949 -0.0581
  737MOL0     C99398   7.867   3.461   8.241  0.6037 -0.1123 -0.4235
  737MOL0     C99399   7.993   3.490   8.326 -0.0673 -0.0629 -0.3768
  737MOL0     C99400   7.961   3.549   8.471  0.2012  0.1848 -0.3371
  737MOL0     C99401   8.078   3.548   8.576  0.3782  0.6579 -0.1916
  737MOL0     C99402   8.195   3.641   8.531  0.4160 -0.1190 -0.4554
  737MOL0     C99403   8.318   3.617   8.623 -0.1594 -0.2299 -0.1620
  737MOL0    Cl99404   8.446   3.706   8.557 -0.1536  0.0398  0.1757
  737MOL0     C99405   7.421   3.497   7.937 -0.7286 -0.1191  0.1434
  737MOL0     C99406   7.311   3.479   7.856 -0.3881  0.1653 -0.2475
  737MOL0     O99407   6.982   3.595   7.922 -0.4345  0.2991  0.3949
  737MOL0     C99408   6.754   3.540   7.781 -0.2636  0.3502 -0.9825
  737MOL0     C99409   6.631   3.523   7.708 -0.3013 -0.2762  0.0522
  737MOL0     N99410   6.253   3.951   7.382 -0.8201  0.0817  0.3537
  737MOL0     N99411   6.326   4.048   7.436 -0.6920 -0.2439  0.0177
  737MOL0     C99412   7.571   3.918   7.483 -0.0293  0.1240 -0.1182
  737MOL0     C99413   7.683   3.850   7.543  0.9473 -0.0548  0.0097
  737MOL0     C99414   8.001   3.772   7.874 -1.5468 -0.7963 -0.5943
  737MOL0     C99415   8.039   3.639   7.842  0.8746  0.2465 -0.0911
  737MOL0     C99416   8.125   3.578   7.921 -0.2232  0.1944 -0.3240
  737MOL0     C99417   8.184   3.637   8.034 -0.7558 -0.4819  1.0229
  737MOL0     O99418   8.257   3.562   8.112  0.4482  0.5755 -0.2338
  737MOL0     C99419   8.379   3.615   8.142  0.4995  0.3800 -0.0249
  737MOL0     C99420   8.481   3.559   8.043 -0.1241  0.5074 -0.2337
  737MOL0     C99421   8.470   3.402   8.012 -0.4986 -0.9420 -0.1733
  737MOL0     C99422   8.513   3.309   8.123 -0.1284  0.1302  0.1052
  737MOL0     C99423   8.656   3.331   8.136 -0.0925 -0.4959 -1.1804
  737MOL0     C99424   8.778   3.362   8.134 -0.8928  0.0465  0.1059
  737MOL0     C99425   8.143   3.765   8.074  0.7778  0.2370 -0.4806
  737MOL0     C99426   8.046   3.832   7.994 -1.7965  0.8219  0.2847
  737MOL0     C99427   7.995   3.967   8.039  1.2373  0.9544  0.2654
  737MOL0     H99428   7.677   3.976   7.861  0.2529  3.8436 -0.4173
  737MOL0     H99429   7.467   4.081   7.759 -1.5500  0.0941 -3.2553
  737MOL0     H99430   7.330   3.872   7.446  0.0127  0.4211 -1.8803
  737MOL0     H99431   7.283   3.926   7.602 -0.3564 -1.6090 -1.2159
  737MOL0     H99432   7.150   4.028   7.340  1.0592 -1.1446  0.3459
  737MOL0     H99433   7.128   4.107   7.502  0.9840 -0.8323  1.8949
  737MOL0     H99434   7.079   3.818   7.530  0.0660 -1.6455  0.0355
  737MOL0     H99435   7.010   3.865   7.370 -0.4334  0.9959  0.1912
  737MOL0     H99436   6.930   3.960   7.640 -0.1817  1.4612 -0.2117
  737MOL0     H99437   6.882   4.045   7.498 -3.4092 -0.2569  2.4634
  737MOL0     H99438   6.775   3.855   7.407  0.3569  0.1280 -0.4159
  737MOL0     H99439   6.826   3.756   7.539  0.0518 -0.2156 -0.0557
  737MOL0     H99440   6.586   3.824   7.562 -1.2215 -1.4128  3.8227
  737MOL0     H99441   6.683   3.853   7.704  0.2993  0.9196 -0.4838
  737MOL0     H99442   6.703   4.095   7.642  0.6091 -0.9999  1.9359
  737MOL0     H99443   6.536   4.063   7.664 -1.7581 -1.2569 -2.6496
  737MOL0     H99444   6.542   4.198   7.479  3.5219  1.4072  1.5650
  737MOL0     H99445   6.660   4.106   7.389 -0.0282 -1.1366 -1.0280
  737MOL0     H99446   6.554   3.846   7.303  1.3554  0.1638  1.9195
  737MOL0     H99447   6.222   3.758   7.195  0.6188 -1.3539 -1.1993
  737MOL0     H99448   6.383   3.695   7.205  0.1965  1.8940 -0.7237
  737MOL0     H99449   6.160   3.668   7.416  1.8220 -1.0127  4.1635
  737MOL0     H99450   6.234   3.531   7.316  2.3073 -2.6321  3.0650
  737MOL0     H99451   6.309   3.517   7.535  0.5409 -0.1011  1.8224
  737MOL0     H99452   6.364   3.688   7.541  0.5880  0.4192 -1.1704
  737MOL0     H99453   6.549   3.651   7.412 -2.4296  1.3883  0.2137
  737MOL0     H99454   6.488   3.536   7.311  1.0283 -0.5710  0.2606
  737MOL0     H99455   6.797   3.418   7.413  1.0287  0.1388  0.5678
  737MOL0     H99456   6.987   3.466   7.547  0.3813 -2.0974  2.7666
  737MOL0     H99457   7.214   3.806   7.838  0.9925 -0.0544 -1.0382
  737MOL0     H99458   7.429   3.832   7.983 -0.7051 -0.6425  1.7468
  737MOL0     H99459   7.591   3.452   8.160 -1.0140  1.4220  0.2946
  737MOL0     H99460   7.705   3.508   8.034  0.5855 -0.1797  0.5599
  737MOL0     H99461   7.805   3.662   8.198 -0.4584  0.2197 -0.2245
  737MOL0     H99462   7.716   3.590   8.327  2.2029  2.8375  0.4405
  737MOL0     H99463   7.809   3.372   8.268  2.7241 -2.8219 -3.9076
  737MOL0     H99464   7.909   3.437   8.143  2.6413  1.6120 -0.0319
  737MOL0     H99465   8.055   3.565   8.276  1.3458 -0.6445  0.4290
  737MOL0     H99466   8.055   3.401   8.338 -1.3073 -0.7036  1.9558
  737MOL0     H99467   7.884   3.480   8.507 -1.3241  0.7431 -2.3480
  737MOL0     H99468   7.918   3.649   8.465  1.1031  0.5540 -0.9134
  737MOL0     H99469   8.041   3.571   8.676  4.1160  0.7573  1.3346
  737MOL0     H99470   8.113   3.444   8.584 -0.6487  0.0963 -2.3207
  737MOL0     H99471   8.170   3.747   8.539 -0.8238 -0.4948  0.8269
  737MOL0     H99472   8.218   3.633   8.424  0.2558 -1.2226 -0.4132
  737MOL0     H99473   8.291   3.647   8.724 -2.7056  1.5303 -1.2713
  737MOL0     H99474   8.353   3.514   8.619 -1.7541 -0.7667 -3.0663
  737MOL0     H99475   7.462   3.405   7.979  0.7953 -0.3113 -1.6549
  737MOL0     H99476   7.266   3.382   7.837 -1.9486  1.0235 -1.0820
  737MOL0     H99477   6.752   3.581   7.881  2.4653  2.7476 -1.7808
  737MOL0     H99478   6.530   3.533   7.748 -0.1547 -1.1954  0.6994
  737MOL0     H99479   7.557   3.894   7.379 -1.5417  0.2627  0.0353
  737MOL0     H99480   7.742   3.782   7.482  2.0692  1.7959 -1.0685
  737MOL0     H99481   8.001   3.587   7.755 -2.0951  1.7223  0.1768
  737MOL0     H99482   8.147   3.476   7.893  2.0518 -0.2821  2.6289
  737MOL0     H99483   8.402   3.578   8.242  2.1893  1.6374  0.0732
  737MOL0     H99484   8.374   3.724   8.143 -1.4529  0.3347  1.4326
  737MOL0     H99485   8.574   3.590   8.091 -1.7062  5.0394  0.4044
  737MOL0     H99486   8.480   3.612   7.948  1.5571 -0.9744 -1.1331
  737MOL0     H99487   8.543   3.378   7.933  0.6779 -0.7911  0.8349
  737MOL0     H99488   8.365   3.391   7.983 -0.2363  3.8662 -4.4528
  737MOL0     H99489   8.464   3.331   8.218 -3.1439 -0.3729 -1.2306
  737MOL0     H99490   8.492   3.204   8.100 -1.1083 -0.5495  3.5190
  737MOL0     H99491   8.884   3.365   8.116 -0.6947 -1.0292  1.0305
  737MOL0     H99492   8.178   3.807   8.168  0.5368  2.3024 -1.2486
  737MOL0     H99493   8.054   4.045   7.990 -0.7362 -0.3765 -4.8560
  737MOL0     H99494   7.889   3.973   8.011  1.0655  0.0825  0.6908
  737MOL0     H99495   8.003   3.963   8.148  2.2305 -2.7525  0.1844
  738MOL0     O99496   0.238   7.903   2.951  0.1616  0.2440  0.0544
  738MOL0     C99497   0.240   7.815   2.863 -0.4381  0.0116  0.8098
  738MOL0     O99498   0.132   7.778   2.794  0.1356  0.4166 -0.7909
  738MOL0     C99499   0.011   7.841   2.803  0.8094 -0.0889 -0.2302
  738MOL0     C99500  -0.028   7.946   2.717 -0.3584 -0.4824  0.7921
  738MOL0     C99501  -0.165   7.993   2.719 -0.3625 -0.4412  1.1403
  738MOL0     C99502  -0.253   7.944   2.808 -0.3202  0.7783 -0.1911
  738MOL0     O99503  -0.374   8.016   2.812 -0.1063  1.2857 -0.2492
  738MOL0     C99504  -0.455   8.006   2.929  0.0072  0.5440  1.2115
  738MOL0     C99505  -0.586   8.056   2.877  0.6267 -0.9773  0.7838
  738MOL0     C99506  -0.670   7.956   2.784 -0.1035  0.6397 -0.2425
  738MOL0     C99507  -0.818   7.998   2.766 -0.4748 -0.6332 -0.0755
  738MOL0     C99508  -0.890   7.916   2.650  0.2908 -0.3596 -0.5809
  738MOL0     C99509  -0.894   7.767   2.661  0.4566  0.4430 -0.2859
  738MOL0     C99510  -1.018   7.696   2.606  0.0562  0.2730  0.0706
  738MOL0     C99511  -1.142   7.685   2.697 -0.7928 -0.2255 -0.7484
  738MOL0     N99512  -1.236   7.600   2.630 -0.7399  0.3235  0.4316
  738MOL0     C99513  -1.216   7.465   2.624  0.0134 -0.6355 -0.9123
  738MOL0     C99514  -1.321   7.428   2.548  0.4205 -0.7233 -0.4341
  738MOL0     C99515  -1.321   7.292   2.505  0.5182  0.9597  0.6510
  738MOL0     C99516  -1.365   7.267   2.356  0.4413 -0.4330  0.0605
  738MOL0     C99517  -1.407   7.124   2.327 -0.3605 -0.6225  0.0193
  738MOL0     C99518  -1.297   7.019   2.338 -0.5194  0.9671 -0.4504
  738MOL0     O99519  -1.331   6.883   2.303 -0.1148  0.3540  0.4371
  738MOL0     C99520  -1.225   6.783   2.302  0.3180 -0.2479  0.5389
  738MOL0     C99521  -1.240   6.684   2.204 -0.4682 -0.4764 -0.8656
  738MOL0     C99522  -1.142   6.583   2.181 -0.4455 -0.1241 -1.0641
  738MOL0     C99523  -1.016   6.597   2.251 -0.8668  0.3400  0.1057
  738MOL0     C99524  -0.912   6.498   2.203  1.6684  0.2716 -0.1250
  738MOL0     O99525  -0.798   6.497   2.279  0.5632  0.2704 -0.0105
  738MOL0     C99526  -0.695   6.411   2.243 -0.1050 -0.9500  0.2582
  738MOL0     C99527  -0.682   6.278   2.284 -0.4501 -0.4755 -0.3752
  738MOL0     C99528  -0.560   6.207   2.265 -0.7719  0.4874  0.1433
  738MOL0     C99529  -0.446   6.264   2.206  1.5709 -0.4743  0.7358
  738MOL0     O99530  -0.342   6.180   2.193  0.0110 -0.4755  0.5827
  738MOL0     C99531  -0.237   6.221   2.105 -0.5107  0.1308  0.0972
  738MOL0     C99532  -0.123   6.306   2.165  0.5366 -0.7117  0.2137
  738MOL0     C99533  -0.062   6.394   2.057  0.2287 -0.2102 -0.2565
  738MOL0     C99534   0.017   6.511   2.130  0.8814  0.7889 -0.7570
  738MOL0     C99535   0.136   6.456   2.209 -0.1790  1.0202  0.2458
  738MOL0     C99536   0.215   6.573   2.272  1.0004 -0.1862  0.8255
  738MOL0     C99537   0.352   6.570   2.331  0.5812  0.2606  0.5136
  738MOL0     C99538   0.462   6.529   2.231 -1.2450 -0.4678 -0.2699
  738MOL0    Cl99539   0.626   6.522   2.299 -0.3619 -0.1158  0.0586
  738MOL0     C99540  -0.450   6.397   2.172 -0.0842  0.1734  0.2193
  738MOL0     C99541  -0.585   6.459   2.179  0.4149 -0.4263 -0.4899
  738MOL0     O99542  -0.932   6.421   2.108 -0.0200  0.0784  0.4954
  738MOL0     C99543  -1.012   6.674   2.367 -0.5860 -0.2441 -0.2549
  738MOL0     C99544  -1.114   6.769   2.390  0.0811  0.2393 -0.2205
  738MOL0     N99545  -1.390   7.546   2.510  0.0013 -0.1998 -0.1769
  738MOL0     N99546  -1.340   7.649   2.564 -0.5087  0.9944  0.5893
  738MOL0     C99547  -0.214   7.840   2.897 -0.2303  0.4326  0.2133
  738MOL0     C99548  -0.081   7.790   2.886  0.6565  0.1474  0.0399
  738MOL0     C99549   0.357   7.728   2.848 -0.6547  0.1671 -0.4592
  738MOL0     C99550   0.354   7.613   2.768 -0.2707  1.0690 -0.1988
  738MOL0     C99551   0.457   7.526   2.763 -0.4883 -0.6622 -0.3729
  738MOL0     C99552   0.581   7.546   2.830  0.7580 -0.2372  0.6595
  738MOL0     O99553   0.678   7.445   2.805  0.2526 -0.0814 -0.2459
  738MOL0     C99554   0.818   7.475   2.805 -0.5911  0.1042 -0.1511
  738MOL0     C99555   0.870   7.526   2.668  0.1866  0.4638  0.1026
  738MOL0     C99556   0.829   7.430   2.551  0.0394  0.1609  0.8588
  738MOL0     C99557   0.835   7.503   2.415 -0.1931  0.3518 -0.7264
  738MOL0     C99558   0.792   7.424   2.303  0.3451 -0.1547  0.4698
  738MOL0     C99559   0.751   7.354   2.208 -0.7401  0.2763  0.0230
  738MOL0     C99560   0.604   7.669   2.894  0.5688 -0.2999 -0.2251
  738MOL0     C99561   0.492   7.763   2.904  1.2585 -0.0916  0.8042
  738MOL0     C99562   0.508   7.902   2.959 -0.4490 -0.4039  0.7394
  738MOL0     H99563   0.035   7.986   2.638 -0.3988 -0.4905  0.7551
  738MOL0     H99564  -0.201   8.080   2.665 -1.6531 -1.6488 -0.0547
  738MOL0     H99565  -0.470   7.901   2.955  2.9525 -1.0993 -2.6370
  738MOL0     H99566  -0.418   8.070   3.010  2.1874  1.8085 -0.6423
  738MOL0     H99567  -0.579   8.140   2.808  1.4538 -1.6932 -0.0457
  738MOL0     H99568  -0.651   8.066   2.964 -0.5022 -0.1564 -0.1303
  738MOL0     H99569  -0.680   7.855   2.824 -1.8800  1.4539  1.5919
  738MOL0     H99570  -0.615   7.960   2.690 -2.9589 -0.9620 -2.1480
  738MOL0     H99571  -0.874   8.001   2.859 -1.6382  2.5920 -0.7577
  738MOL0     H99572  -0.820   8.104   2.737  0.1477 -0.6270 -0.1061
  738MOL0     H99573  -0.995   7.948   2.644  0.9705  1.8547 -1.8066
  738MOL0     H99574  -0.848   7.943   2.553 -1.2071 -2.2746 -1.8337
  738MOL0     H99575  -0.808   7.725   2.608  0.3970  1.6599 -1.4055
  738MOL0     H99576  -0.886   7.740   2.766  0.7828 -0.2498 -0.4861
  738MOL0     H99577  -0.981   7.596   2.578 -1.6432  0.1590 -2.0692
  738MOL0     H99578  -1.042   7.731   2.505 -2.4375 -4.9235 -1.5360
  738MOL0     H99579  -1.115   7.629   2.786  0.1169  1.1195 -0.1472
  738MOL0     H99580  -1.179   7.787   2.716 -0.0409  0.4039 -2.4353
  738MOL0     H99581  -1.136   7.410   2.673 -1.0526 -0.5535  1.0174
  738MOL0     H99582  -1.221   7.246   2.504  0.3571  0.6144  0.1608
  738MOL0     H99583  -1.378   7.219   2.563 -0.2200 -1.6853 -3.0173
  738MOL0     H99584  -1.449   7.333   2.332  1.8427  2.5593  2.7000
  738MOL0     H99585  -1.281   7.304   2.297  0.2501  0.8372  0.5703
  738MOL0     H99586  -1.443   7.109   2.225  0.9335  0.8551 -0.7045
  738MOL0     H99587  -1.495   7.087   2.380 -3.7224 -1.3644 -5.3036
  738MOL0     H99588  -1.245   7.021   2.434  0.2153  0.2805 -0.8285
  738MOL0     H99589  -1.223   7.045   2.263 -3.3273  0.6326 -3.5699
  738MOL0     H99590  -1.313   6.704   2.127  2.1961  0.0193 -3.4503
  738MOL0     H99591  -1.160   6.508   2.105  0.7258 -1.3871 -0.1236
  738MOL0     H99592  -0.754   6.223   2.344  0.3576  1.1043  2.2389
  738MOL0     H99593  -0.551   6.107   2.306 -0.3611 -0.7514 -2.7486
  738MOL0     H99594  -0.177   6.136   2.070  2.7707  1.4802  2.0548
  738MOL0     H99595  -0.285   6.271   2.020  2.2894 -0.9589 -2.2901
  738MOL0     H99596  -0.167   6.366   2.245 -0.6136 -1.5201  0.2123
  738MOL0     H99597  -0.050   6.238   2.211 -0.5696 -1.0919  1.4673
  738MOL0     H99598   0.010   6.335   1.999 -1.0892 -1.6413 -0.5098
  738MOL0     H99599  -0.133   6.442   1.989  1.9100  0.9426 -1.2809
  738MOL0     H99600  -0.048   6.553   2.207 -0.0178 -0.4384 -0.8240
  738MOL0     H99601   0.050   6.591   2.064  0.2000  1.8760  0.1844
  738MOL0     H99602   0.199   6.393   2.145 -3.2925 -3.7065  1.2997
  738MOL0     H99603   0.115   6.379   2.284 -1.4995 -1.0152 -2.0590
  738MOL0     H99604   0.215   6.653   2.198 -0.0074  0.1318  1.1617
  738MOL0     H99605   0.142   6.613   2.343 -1.5283  0.3532 -1.9017
  738MOL0     H99606   0.343   6.508   2.420 -2.8248  0.8980  0.7109
  738MOL0     H99607   0.377   6.672   2.361 -2.3326  1.1387  0.2622
  738MOL0     H99608   0.433   6.432   2.188 -1.7956 -1.4131  2.0258
  738MOL0     H99609   0.470   6.605   2.154  2.4540  0.9848  1.3361
  738MOL0     H99610  -0.386   6.456   2.108 -1.2352 -1.0435 -2.1717
  738MOL0     H99611  -0.594   6.558   2.135 -0.3160  0.2014  0.9921
  738MOL0     H99612  -0.928   6.653   2.433 -1.6265 -3.9212  0.1784
  738MOL0     H99613  -1.101   6.842   2.469  3.5983 -0.5937  0.1540
  738MOL0     H99614  -0.270   7.806   2.983  0.7125 -1.9350 -0.0228
  738MOL0     H99615  -0.058   7.714   2.960 -1.9043 -0.5356  0.2539
  738MOL0     H99616   0.260   7.581   2.723  0.3908  2.2326 -2.5063
  738MOL0     H99617   0.445   7.430   2.713  0.8239 -0.1008 -1.8568
  738MOL0     H99618   0.874   7.389   2.843  0.2857  1.3149  1.4443
  738MOL0     H99619   0.834   7.551   2.883  0.3654  0.7929 -0.9984
  738MOL0     H99620   0.977   7.549   2.664 -0.1937  2.9810  1.6999
  738MOL0     H99621   0.823   7.624   2.655  1.1824  1.2851  2.1966
  738MOL0     H99622   0.734   7.376   2.562  0.4832 -1.5232 -2.3462
  738MOL0     H99623   0.901   7.347   2.542 -0.0522 -0.1056  2.2697
  738MOL0     H99624   0.779   7.597   2.425  2.4797  1.8092  5.5699
  738MOL0     H99625   0.939   7.532   2.403  0.9174 -1.0105  3.6909
  738MOL0     H99626   0.706   7.296   2.130  2.3323 -1.3966 -0.6830
  738MOL0     H99627   0.695   7.702   2.943 -1.1025  0.8642  2.2800
  738MOL0     H99628   0.610   7.941   2.960 -0.8535  0.9848 -2.3109
  738MOL0     H99629   0.471   7.974   2.886  2.7956  2.3698  1.6161
  738MOL0     H99630   0.458   7.923   3.055 -2.3153  0.9864 -0.4603
  739MOL0     O99631   5.701   2.275   2.756  0.2077  0.1032 -0.1360
  739MOL0     C99632   5.651   2.229   2.648 -0.2918 -0.4629  0.4516
  739MOL0     O99633   5.517   2.246   2.619 -0.5410 -0.0489  0.0194
  739MOL0     C99634   5.438   2.300   2.716  0.1138 -0.0641  0.2826
  739MOL0     C99635   5.376   2.427   2.690  0.4970  0.3055  0.1248
  739MOL0     C99636   5.306   2.496   2.793  0.0732  0.2316 -0.5333
  739MOL0     C99637   5.268   2.435   2.912 -0.3374  0.5978  0.5634
  739MOL0     O99638   5.192   2.506   3.003 -0.2128  0.1101 -0.6786
  739MOL0     C99639   5.226   2.493   3.145  0.6281 -0.2037  0.2701
  739MOL0     C99640   5.091   2.504   3.224  0.1295 -0.0376 -0.4575
  739MOL0     C99641   5.044   2.648   3.216 -0.5154  0.3599  0.4678
  739MOL0     C99642   4.930   2.669   3.324  0.4063 -0.3663 -0.2654
  739MOL0     C99643   4.792   2.611   3.289  0.1582 -0.1348 -0.2932
  739MOL0     C99644   4.689   2.684   3.361  0.0086 -0.3413 -0.4188
  739MOL0     C99645   4.686   2.662   3.514  0.6079  0.4913  0.8162
  739MOL0     C99646   4.598   2.761   3.584 -0.3439 -0.8392  0.0393
  739MOL0     N99647   4.575   2.709   3.718 -0.5931 -0.0916 -0.2005
  739MOL0     C99648   4.662   2.673   3.814 -0.0429 -0.4160 -0.7640
  739MOL0     C99649   4.592   2.651   3.928  0.7665  0.1313 -0.0547
  739MOL0     C99650   4.653   2.625   4.067  0.1907 -0.0584  0.0521
  739MOL0     C99651   4.705   2.478   4.078 -0.0210  0.0780 -0.3500
  739MOL0     C99652   4.616   2.367   4.036  0.8116  0.1213  0.2716
  739MOL0     C99653   4.678   2.229   4.040 -0.3047  0.5639 -0.7055
  739MOL0     O99654   4.655   2.199   4.188 -0.7710  0.7348 -0.3743
  739MOL0     C99655   4.701   2.078   4.228 -1.0441  0.1070 -0.3972
  739MOL0     C99656   4.672   2.045   4.364 -1.2698 -0.8341 -0.5785
  739MOL0     C99657   4.713   1.929   4.424  0.2144  0.7315  0.5732
  739MOL0     C99658   4.765   1.823   4.342  0.2687 -0.4478 -0.7161
  739MOL0     C99659   4.786   1.690   4.391  0.5077 -0.2384 -0.4101
  739MOL0     O99660   4.852   1.590   4.323  0.2496 -0.0131  0.9589
  739MOL0     C99661   4.858   1.457   4.365  0.1712 -0.3844  0.6406
  739MOL0     C99662   4.749   1.383   4.388  0.1795 -0.7290  0.0611
  739MOL0     C99663   4.750   1.257   4.433  0.2000  0.2007  0.5531
  739MOL0     C99664   4.871   1.195   4.461 -0.0017 -0.2085  0.5354
  739MOL0     O99665   4.883   1.063   4.515 -1.2545 -0.4625  0.8451
  739MOL0     C99666   4.765   0.981   4.523 -0.6804  0.4888 -0.7324
  739MOL0     C99667   4.816   0.847   4.566 -0.2430  0.2133 -0.6158
  739MOL0     C99668   4.691   0.752   4.607  0.3854  0.4622  0.4870
  739MOL0     C99669   4.747   0.639   4.692  0.6592  1.1689 -0.1975
  739MOL0     C99670   4.649   0.532   4.742 -0.2197 -0.6496 -0.2749
  739MOL0     C99671   4.552   0.585   4.844  0.6339 -0.7871  0.7370
  739MOL0     C99672   4.428   0.494   4.873  0.0901 -0.6710  0.6533
  739MOL0     C99673   4.463   0.345   4.899 -0.9286 -0.0837 -0.8245
  739MOL0    Cl99674   4.325   0.248   4.906  0.1816 -0.1833  0.1145
  739MOL0     C99675   4.991   1.269   4.425 -0.7552 -0.6398  0.0919
  739MOL0     C99676   4.988   1.402   4.384  0.0832  0.3535  0.1417
  739MOL0     O99677   4.750   1.674   4.512 -0.3648 -0.1677 -0.7521
  739MOL0     C99678   4.798   1.856   4.211  0.7453  0.6092 -0.0344
  739MOL0     C99679   4.764   1.980   4.149 -0.6031 -0.9274  0.8228
  739MOL0     N99680   4.462   2.670   3.890  0.1633 -0.2987 -0.5462
  739MOL0     N99681   4.447   2.699   3.764  0.3484  0.8113 -0.5066
  739MOL0     C99682   5.325   2.304   2.931 -0.2208 -0.5430  0.0434
  739MOL0     C99683   5.412   2.242   2.842  1.0869 -0.1190 -0.2873
  739MOL0     C99684   5.737   2.193   2.535  1.2644  0.3649 -0.2748
  739MOL0     C99685   5.688   2.206   2.409 -0.1297  0.4871 -0.0597
  739MOL0     C99686   5.755   2.178   2.291 -0.5038 -0.0313  0.0676
  739MOL0     C99687   5.878   2.120   2.309 -0.2732 -0.4099  0.0342
  739MOL0     O99688   5.962   2.089   2.209  0.2271 -0.1490 -0.5334
  739MOL0     C99689   5.975   2.186   2.100  0.3999 -0.3326 -0.0810
  739MOL0     C99690   6.042   2.313   2.156  0.6578  0.1646 -0.2499
  739MOL0     C99691   5.936   2.432   2.171 -0.3268  0.4405  0.2701
  739MOL0     C99692   6.010   2.564   2.177 -1.0042 -0.3688 -0.1581
  739MOL0     C99693   5.922   2.677   2.142  0.5549 -0.2264 -0.5521
  739MOL0     C99694   5.840   2.756   2.115 -0.0161  0.2812 -0.9698
  739MOL0     C99695   5.935   2.106   2.436  0.4003 -0.2668 -0.6180
  739MOL0     C99696   5.868   2.142   2.557  0.0637 -0.5457  0.4393
  739MOL0     C99697   5.914   2.104   2.696 -0.2878 -0.1539 -0.3692
  739MOL0     H99698   5.398   2.470   2.593 -1.4297  1.6596  0.2303
  739MOL0     H99699   5.251   2.589   2.780 -1.1632 -0.0037  2.1785
  739MOL0     H99700   5.278   2.399   3.164 -0.1270 -0.8117 -0.5676
  739MOL0     H99701   5.299   2.572   3.161  2.3977 -1.8765  0.7513
  739MOL0     H99702   5.109   2.482   3.330  0.7854 -1.6405 -0.8752
  739MOL0     H99703   5.013   2.432   3.199 -0.1256  0.3732 -0.8534
  739MOL0     H99704   5.021   2.681   3.114  1.7795  3.7806  0.9142
  739MOL0     H99705   5.130   2.706   3.250 -1.0367  1.5641 -0.2089
  739MOL0     H99706   4.956   2.621   3.419  0.6649  0.3985  0.0626
  739MOL0     H99707   4.918   2.775   3.347  2.5797 -0.3102  0.8795
  739MOL0     H99708   4.745   2.620   3.191  0.2386 -0.1546 -0.3337
  739MOL0     H99709   4.787   2.510   3.329  0.0387 -0.8943 -2.1482
  739MOL0     H99710   4.681   2.793   3.347 -0.5154  0.0515  2.3139
  739MOL0     H99711   4.594   2.644   3.325 -0.6712 -0.3610  1.2881
  739MOL0     H99712   4.789   2.661   3.550 -0.4367 -2.2783  4.2667
  739MOL0     H99713   4.653   2.559   3.533  3.1796 -0.8152 -1.1523
  739MOL0     H99714   4.647   2.859   3.592 -1.2367 -0.2417 -1.2753
  739MOL0     H99715   4.516   2.777   3.513  1.6209  2.5285 -1.7592
  739MOL0     H99716   4.770   2.669   3.802  0.3173 -0.0355  1.7283
  739MOL0     H99717   4.730   2.694   4.101 -1.8806  1.4878  1.9387
  739MOL0     H99718   4.572   2.631   4.140  0.7235  0.6443  0.5930
  739MOL0     H99719   4.794   2.478   4.014  1.4066 -0.1163  1.5396
  739MOL0     H99720   4.733   2.463   4.183  3.5209  0.0042 -1.1641
  739MOL0     H99721   4.579   2.380   3.934 -2.6043 -2.9972  0.8909
  739MOL0     H99722   4.524   2.369   4.096 -1.7265  2.2872 -3.3378
  739MOL0     H99723   4.783   2.229   4.008  0.0587 -1.8269  0.2605
  739MOL0     H99724   4.617   2.171   3.970 -2.9303  2.3975 -0.0468
  739MOL0     H99725   4.624   2.117   4.429 -1.1523 -0.8517 -0.4702
  739MOL0     H99726   4.701   1.904   4.529  2.1297 -0.4206  0.5596
  739MOL0     H99727   4.652   1.425   4.363  1.0158  1.3117  0.1110
  739MOL0     H99728   4.654   1.208   4.442  0.2086  0.0469 -0.1187
  739MOL0     H99729   4.685   1.016   4.589 -1.3263  1.1747 -1.8402
  739MOL0     H99730   4.725   0.956   4.424  2.4960 -0.6543 -1.8692
  739MOL0     H99731   4.863   0.795   4.482  1.1948 -1.3118  1.0587
  739MOL0     H99732   4.872   0.855   4.659 -0.6626 -0.5520 -0.2882
  739MOL0     H99733   4.616   0.804   4.667  0.0343 -0.0304  0.4782
  739MOL0     H99734   4.640   0.710   4.520  1.2606 -1.3595  0.8066
  739MOL0     H99735   4.801   0.685   4.776 -2.2720  0.6251  2.1471
  739MOL0     H99736   4.827   0.589   4.636 -0.2063 -1.0142  0.4249
  739MOL0     H99737   4.710   0.452   4.786  0.0497 -1.3648 -1.8589
  739MOL0     H99738   4.599   0.499   4.651 -1.0940  1.1388 -0.4763
  739MOL0     H99739   4.599   0.588   4.943 -0.5680  1.2343  1.3104
  739MOL0     H99740   4.520   0.686   4.820 -0.8237 -1.1475  1.0449
  739MOL0     H99741   4.364   0.499   4.785  3.0768  0.9388 -1.6156
  739MOL0     H99742   4.383   0.543   4.960  0.9684 -2.0631  1.9625
  739MOL0     H99743   4.512   0.309   4.808 -1.6698 -0.8606 -0.9358
  739MOL0     H99744   4.528   0.329   4.986 -3.5208  0.7462  1.4066
  739MOL0     H99745   5.089   1.223   4.429 -0.9067 -0.9361  0.4067
  739MOL0     H99746   5.071   1.456   4.340 -0.7495  0.2070 -1.7214
  739MOL0     H99747   4.842   1.778   4.149 -0.0606  1.7485 -2.1194
  739MOL0     H99748   4.771   1.999   4.043  1.7925  1.4701  1.2690
  739MOL0     H99749   5.283   2.247   3.013  0.7821 -0.7346  0.4357
  739MOL0     H99750   5.454   2.146   2.871  0.0548 -1.1179 -1.8841
  739MOL0     H99751   5.584   2.230   2.389 -0.9395 -1.9983  0.7970
  739MOL0     H99752   5.707   2.182   2.194  1.1583  0.2755 -0.7751
  739MOL0     H99753   5.874   2.211   2.067 -0.9085  1.4866  4.5097
  739MOL0     H99754   6.044   2.154   2.021 -0.1805 -3.2365  0.4558
  739MOL0     H99755   6.112   2.336   2.075  1.1938 -1.5776 -0.3258
  739MOL0     H99756   6.098   2.300   2.248  1.3813 -0.3230 -0.7473
  739MOL0     H99757   5.886   2.409   2.265  1.8468 -2.7417  0.8342
  739MOL0     H99758   5.866   2.436   2.087  0.8880  3.2035 -0.7057
  739MOL0     H99759   6.058   2.577   2.275  0.1615  2.0282 -0.9800
  739MOL0     H99760   6.106   2.557   2.125 -1.5305  1.1715 -1.3961
  739MOL0     H99761   5.771   2.833   2.085 -0.4677 -0.5557 -2.1571
  739MOL0     H99762   6.032   2.058   2.452  1.5980  1.5475 -2.0658
  739MOL0     H99763   5.833   2.052   2.749 -2.6207  1.8782 -1.7640
  739MOL0     H99764   6.005   2.043   2.694 -0.5629 -0.6543  0.9560
  739MOL0     H99765   5.935   2.196   2.753 -1.5885  1.8611 -2.9639
  740MOL0     O99766   4.828   5.923   6.593 -0.5332 -0.5119  0.2929
  740MOL0     C99767   4.756   5.927   6.692 -0.7227  0.4598  0.3373
  740MOL0     O99768   4.723   6.044   6.753  0.8423 -0.7095  0.4687
  740MOL0     C99769   4.667   6.025   6.864 -0.0717 -0.2066 -0.4394
  740MOL0     C99770   4.734   5.978   6.978  1.1902 -1.0148  0.0055
  740MOL0     C99771   4.675   5.973   7.110  0.5288 -0.3542  0.4243
  740MOL0     C99772   4.529   6.015   7.117  0.3563 -0.0743 -0.2812
  740MOL0     O99773   4.464   6.043   7.235  0.0687 -0.2593 -0.5812
  740MOL0     C99774   4.507   5.989   7.367  1.0491 -0.4120  0.3876
  740MOL0     C99775   4.511   6.112   7.455 -0.9832 -0.4938  0.1612
  740MOL0     C99776   4.632   6.206   7.417 -0.4856  0.9637  0.1866
  740MOL0     C99777   4.764   6.133   7.453 -0.2091 -0.6979  0.0176
  740MOL0     C99778   4.886   6.220   7.438 -0.0411  0.2891  0.2637
  740MOL0     C99779   4.911   6.235   7.288 -0.3129 -0.8958 -0.4714
  740MOL0     C99780   5.040   6.316   7.265 -0.3211 -0.2921 -0.1686
  740MOL0     C99781   5.025   6.461   7.323  0.2994 -0.0578 -1.0205
  740MOL0     N99782   4.908   6.530   7.267 -0.3510  0.4587 -0.4011
  740MOL0     C99783   4.886   6.549   7.128  0.4242  0.6430  0.6241
  740MOL0     C99784   4.768   6.622   7.119 -0.3443  0.0094  0.5874
  740MOL0     C99785   4.687   6.645   6.990 -0.2077 -0.3313 -0.3888
  740MOL0     C99786   4.614   6.521   6.952  0.1765 -0.2203  0.9557
  740MOL0     C99787   4.529   6.537   6.820 -0.1197  0.5156 -0.6421
  740MOL0     C99788   4.427   6.656   6.833 -0.0703  0.5739  0.2272
  740MOL0     O99789   4.332   6.628   6.730  0.4663 -0.3990  0.7827
  740MOL0     C99790   4.234   6.721   6.711 -0.5676  0.7901 -0.9564
  740MOL0     C99791   4.183   6.816   6.799 -0.0766  0.9175 -0.6072
  740MOL0     C99792   4.071   6.901   6.779  0.1781 -0.3049 -0.0684
  740MOL0     C99793   3.988   6.872   6.667  0.4843  0.4865  0.4729
  740MOL0     C99794   3.866   6.949   6.636 -0.0710  0.7675 -0.0998
  740MOL0     O99795   3.824   6.922   6.504  0.1406 -0.5528  0.8112
  740MOL0     C99796   3.729   7.018   6.460  0.3388 -0.7199  0.8194
  740MOL0     C99797   3.763   7.131   6.384  0.3345  0.5394 -0.0435
  740MOL0     C99798   3.664   7.220   6.330 -0.1793 -0.1724 -0.3267
  740MOL0     C99799   3.530   7.191   6.354  0.0856  0.3190 -0.7664
  740MOL0     O99800   3.430   7.269   6.305 -0.0492 -0.6963 -0.5039
  740MOL0     C99801   3.455   7.360   6.201  1.1367 -0.3028 -0.6849
  740MOL0     C99802   3.330   7.388   6.121 -0.5430 -0.1121 -0.5616
  740MOL0     C99803   3.323   7.298   5.999  0.5041  1.0391 -0.0540
  740MOL0     C99804   3.197   7.321   5.910 -1.0299  0.5927  0.1696
  740MOL0     C99805   3.072   7.279   5.986 -0.4692  0.0564  0.1025
  740MOL0     C99806   2.944   7.267   5.901 -0.1464  0.1252  0.6502
  740MOL0     C99807   2.817   7.265   5.987  0.5184  0.0354 -0.6261
  740MOL0     C99808   2.718   7.157   5.945  0.2895 -0.0735 -0.0817
  740MOL0    Cl99809   2.785   6.989   5.924 -0.0305  0.0533  0.0479
  740MOL0     C99810   3.495   7.082   6.435  1.1934  0.5622 -0.3156
  740MOL0     C99811   3.592   6.995   6.495 -0.4826 -0.1263  1.4842
  740MOL0     O99812   3.833   7.042   6.714 -0.2896 -0.9477  0.4492
  740MOL0     C99813   4.028   6.768   6.584  0.6373  0.8057  0.1043
  740MOL0     C99814   4.145   6.691   6.600  0.3817  0.6376 -0.7225
  740MOL0     N99815   4.724   6.650   7.241 -0.3313 -0.3528 -0.8014
  740MOL0     N99816   4.817   6.595   7.331  0.0953 -0.7418 -0.4882
  740MOL0     C99817   4.472   6.075   7.004  0.4269  1.0333  0.2035
  740MOL0     C99818   4.534   6.071   6.881  0.6646  0.9449 -0.2459
  740MOL0     C99819   4.727   5.799   6.742  0.5103  0.4921  0.7077
  740MOL0     C99820   4.589   5.767   6.742 -0.6049  0.5691 -0.6494
  740MOL0     C99821   4.540   5.634   6.773 -0.2206 -0.1043 -0.8405
  740MOL0     C99822   4.638   5.536   6.805 -0.1652 -0.2682  0.1546
  740MOL0     O99823   4.590   5.413   6.849 -0.1112  0.1387 -0.0971
  740MOL0     C99824   4.681   5.312   6.887  1.0408  0.6469  0.5791
  740MOL0     C99825   4.609   5.178   6.890 -0.7404  0.1683  0.5568
  740MOL0     C99826   4.706   5.077   6.969  0.3909 -0.1752 -0.9412
  740MOL0     C99827   4.815   5.035   6.870 -0.7000 -0.3636  0.4746
  740MOL0     C99828   4.764   4.936   6.788  0.0726  0.0158 -0.0572
  740MOL0     C99829   4.692   4.865   6.714 -0.1191 -0.2525  0.1355
  740MOL0     C99830   4.769   5.578   6.814 -0.0760 -0.1820 -0.2545
  740MOL0     C99831   4.817   5.707   6.783  0.1634  0.7076 -0.6443
  740MOL0     C99832   4.964   5.741   6.810  0.3897 -0.1814  1.2404
  740MOL0     H99833   4.836   5.944   6.967  1.1039 -1.0772 -0.6155
  740MOL0     H99834   4.721   5.942   7.203 -2.4745 -2.1402  1.4594
  740MOL0     H99835   4.432   5.924   7.413  2.8118 -3.3692 -0.6035
  740MOL0     H99836   4.595   5.923   7.367 -0.5141 -2.6492  2.0319
  740MOL0     H99837   4.527   6.095   7.562  0.5979  2.9630  0.5962
  740MOL0     H99838   4.415   6.163   7.447 -0.6882  0.5649  2.4806
  740MOL0     H99839   4.625   6.301   7.470  3.6760 -0.0092  2.9769
  740MOL0     H99840   4.622   6.224   7.309 -5.2381  2.3270  0.6444
  740MOL0     H99841   4.752   6.102   7.557 -3.7512  2.0388  0.5967
  740MOL0     H99842   4.766   6.032   7.411 -4.3049 -1.1895  0.5934
  740MOL0     H99843   4.874   6.320   7.480  3.1403  1.1407 -0.6366
  740MOL0     H99844   4.972   6.180   7.494  0.2488  0.8362  0.2093
  740MOL0     H99845   4.915   6.135   7.244 -0.2452 -1.2427  0.3213
  740MOL0     H99846   4.826   6.286   7.242 -0.9103 -0.5465  0.9883
  740MOL0     H99847   5.072   6.316   7.160 -0.3901 -0.1774 -0.1892
  740MOL0     H99848   5.126   6.276   7.320  1.0043  1.7381 -0.6644
  740MOL0     H99849   5.016   6.473   7.431 -0.7492  1.5416 -1.2525
  740MOL0     H99850   5.111   6.523   7.296  0.0478  0.4265 -0.7217
  740MOL0     H99851   4.949   6.505   7.051  0.5108 -2.4318  2.2943
  740MOL0     H99852   4.611   6.720   7.012  1.5289  1.7967 -1.2114
  740MOL0     H99853   4.755   6.689   6.916  2.7379 -0.3916  2.0876
  740MOL0     H99854   4.685   6.443   6.925 -1.1606 -0.2678 -3.1316
  740MOL0     H99855   4.554   6.476   7.032  1.0391 -0.6275  1.3809
  740MOL0     H99856   4.480   6.439   6.817  0.3074  0.2232  1.2567
  740MOL0     H99857   4.579   6.546   6.723 -0.2896  2.2768 -0.5901
  740MOL0     H99858   4.479   6.748   6.804  0.1385 -0.6657 -3.9233
  740MOL0     H99859   4.387   6.664   6.935  0.4313  0.7121  0.4172
  740MOL0     H99860   4.241   6.834   6.889 -2.2023  2.8638  0.4784
  740MOL0     H99861   4.039   6.971   6.855  3.0861  1.6179 -0.4684
  740MOL0     H99862   3.867   7.161   6.374 -0.2249  2.2211 -1.4258
  740MOL0     H99863   3.697   7.308   6.274  3.6417 -0.4194  1.2078
  740MOL0     H99864   3.501   7.452   6.240  0.8981  0.2628 -1.6837
  740MOL0     H99865   3.530   7.325   6.130  0.7811  0.3729 -1.4138
  740MOL0     H99866   3.250   7.370   6.193  0.3718  0.9082  0.7377
  740MOL0     H99867   3.335   7.491   6.085 -1.3125 -0.4030 -1.5718
  740MOL0     H99868   3.410   7.318   5.935  0.7492 -1.1551 -0.5122
  740MOL0     H99869   3.334   7.195   6.035 -0.4789  0.5131 -1.2055
  740MOL0     H99870   3.217   7.255   5.825  2.8675 -0.3982  1.6138
  740MOL0     H99871   3.184   7.425   5.879 -4.6395  0.5077  0.9341
  740MOL0     H99872   3.064   7.355   6.065  0.0478 -0.8573  1.0425
  740MOL0     H99873   3.086   7.187   6.042  0.9523 -1.7844 -3.0231
  740MOL0     H99874   2.923   7.354   5.839 -2.5162 -0.0923  1.0375
  740MOL0     H99875   2.944   7.180   5.836  0.9195 -0.2162  1.0871
  740MOL0     H99876   2.784   7.369   5.994  1.6179  0.3266  1.1616
  740MOL0     H99877   2.843   7.247   6.092 -5.0145  1.9212  1.3883
  740MOL0     H99878   2.638   7.152   6.019  1.6526  3.2562  1.8435
  740MOL0     H99879   2.675   7.200   5.854  0.2405  2.2688  0.9547
  740MOL0     H99880   3.392   7.073   6.465  1.5257  0.8574  0.9753
  740MOL0     H99881   3.548   6.917   6.555 -2.9188  0.9368  1.1825
  740MOL0     H99882   3.965   6.732   6.503 -1.0511 -2.5535  2.6170
  740MOL0     H99883   4.170   6.616   6.525 -0.5230 -0.6530  0.2147
  740MOL0     H99884   4.377   6.127   7.008 -2.0447 -3.1186  1.7549
  740MOL0     H99885   4.486   6.117   6.795  1.5135  3.0652  0.3374
  740MOL0     H99886   4.506   5.833   6.720 -2.2079 -0.7219  1.1440
  740MOL0     H99887   4.433   5.623   6.783 -0.8870  3.1118 -2.8793
  740MOL0     H99888   4.729   5.353   6.976  2.3880  3.4835 -1.2930
  740MOL0     H99889   4.754   5.314   6.805  1.7639  1.3918  1.2242
  740MOL0     H99890   4.564   5.155   6.793 -3.8346  3.4095  1.0006
  740MOL0     H99891   4.516   5.189   6.947 -2.1003 -1.4162 -1.2476
  740MOL0     H99892   4.659   4.990   7.015 -0.0862  0.3534 -0.4069
  740MOL0     H99893   4.749   5.124   7.058  1.3645 -3.0215  0.2218
  740MOL0     H99894   4.852   5.118   6.809 -1.6040  0.3398  0.8581
  740MOL0     H99895   4.898   5.012   6.938 -0.0913 -0.4682 -0.2890
  740MOL0     H99896   4.626   4.810   6.649 -0.1547  1.4568 -1.3673
  740MOL0     H99897   4.839   5.503   6.849 -1.3283 -0.1154  2.7015
  740MOL0     H99898   4.981   5.743   6.918 -0.6227 -2.7340  1.5326
  740MOL0     H99899   5.034   5.662   6.778  1.2215  0.5054  1.3260
  740MOL0     H99900   4.996   5.836   6.768  0.7873 -1.2211 -0.9250
  741MOL0     O99901   4.664   2.657   4.413 -0.0198 -0.3649  0.0941
  741MOL0     C99902   4.617   2.654   4.525 -0.4213  0.7878  0.3539
  741MOL0     O99903   4.661   2.587   4.635  0.0470  0.1522 -0.0713
  741MOL0     C99904   4.757   2.491   4.606  0.3521 -0.6174  0.1311
  741MOL0     C99905   4.883   2.527   4.557 -0.7636  0.4239  0.2594
  741MOL0     C99906   4.981   2.427   4.531 -0.4212  0.2663 -0.9981
  741MOL0     C99907   4.954   2.300   4.565  0.3001 -0.5159  0.4253
  741MOL0     O99908   5.042   2.199   4.529 -0.1555 -0.8171  0.2795
  741MOL0     C99909   5.015   2.138   4.404 -0.9489 -0.2187  0.2649
  741MOL0     C99910   5.131   2.046   4.380 -1.1706  0.4015  0.3275
  741MOL0     C99911   5.112   1.931   4.488 -0.3631  0.0883 -0.1872
  741MOL0     C99912   5.220   1.820   4.467  0.4502  0.3413 -0.1986
  741MOL0     C99913   5.169   1.684   4.532 -0.4920 -1.0031  0.4686
  741MOL0     C99914   5.171   1.706   4.684  0.0210 -0.8331  0.3573
  741MOL0     C99915   5.137   1.579   4.772 -0.3615  0.1353  0.9877
  741MOL0     C99916   5.005   1.517   4.741 -0.0534 -0.3425 -0.6847
  741MOL0     N99917   4.969   1.393   4.816 -0.4577  0.5049 -0.2411
  741MOL0     C99918   4.858   1.312   4.779 -0.2449  0.1590 -0.0247
  741MOL0     C99919   4.846   1.214   4.876 -0.3806  0.0396  0.7504
  741MOL0     C99920   4.730   1.121   4.891 -0.1894  0.1537 -0.2891
  741MOL0     C99921   4.681   1.109   5.036  0.0633 -0.3548  0.5410
  741MOL0     C99922   4.633   0.967   5.060 -0.7953 -0.0910 -0.2379
  741MOL0     C99923   4.486   0.952   5.004 -0.0373  0.0076 -0.0710
  741MOL0     O99924   4.427   0.831   5.045 -0.6993 -0.9453  0.2944
  741MOL0     C99925   4.411   0.813   5.179  0.0719 -0.3728 -0.8099
  741MOL0     C99926   4.314   0.884   5.246  0.0489  0.5587  0.3303
  741MOL0     C99927   4.300   0.861   5.387  1.2293 -0.4346  0.0313
  741MOL0     C99928   4.392   0.775   5.449  0.1269  0.0129  0.5158
  741MOL0     C99929   4.375   0.742   5.591 -0.6643 -0.0279  0.1283
  741MOL0     O99930   4.261   0.784   5.655 -0.1728  0.5834  0.3652
  741MOL0     C99931   4.240   0.752   5.786 -1.3451 -0.5964 -0.6059
  741MOL0     C99932   4.210   0.855   5.870  0.4292  0.2483  1.1608
  741MOL0     C99933   4.171   0.828   6.002  0.0289 -0.4070  0.4528
  741MOL0     C99934   4.183   0.698   6.057 -0.5727 -0.7263 -0.3927
  741MOL0     O99935   4.145   0.649   6.179  0.7918  0.2469  0.5393
  741MOL0     C99936   4.033   0.719   6.235  1.1935  0.0396 -0.2547
  741MOL0     C99937   3.968   0.647   6.353  0.1015  0.5489  0.0846
  741MOL0     C99938   4.064   0.637   6.469 -0.1167 -0.8894 -1.0386
  741MOL0     C99939   4.005   0.572   6.591 -0.3742  0.3162 -1.0120
  741MOL0     C99940   4.114   0.549   6.691 -0.4881 -0.6053  0.2941
  741MOL0     C99941   4.064   0.475   6.815  0.5034 -0.2711 -0.1015
  741MOL0     C99942   3.995   0.340   6.782  0.0051 -0.3500 -0.2726
  741MOL0     C99943   3.987   0.240   6.894  0.2898  0.0509 -0.3597
  741MOL0    Cl99944   4.153   0.178   6.925  0.0337  0.0824 -0.1938
  741MOL0     C99945   4.231   0.600   5.969 -0.7977 -0.8550 -0.9142
  741MOL0     C99946   4.251   0.627   5.835  0.9583 -0.3211 -0.0213
  741MOL0     O99947   4.469   0.686   5.651 -0.4955 -0.0363 -0.6788
  741MOL0     C99948   4.482   0.698   5.370  0.7280  0.3599  0.1863
  741MOL0     C99949   4.494   0.726   5.232 -0.2341  0.1274 -0.2465
  741MOL0     N99950   4.939   1.234   4.967 -0.4151  0.1596 -0.6915
  741MOL0     N99951   5.013   1.338   4.933 -0.8328 -0.3369 -0.9807
  741MOL0     C99952   4.833   2.258   4.616 -0.0542 -1.0402  1.2648
  741MOL0     C99953   4.733   2.359   4.625 -1.1063  0.1120  0.2742
  741MOL0     C99954   4.510   2.747   4.548 -0.4460 -0.9267  0.1292
  741MOL0     C99955   4.520   2.888   4.511  0.6637  0.1882  0.7052
  741MOL0     C99956   4.407   2.971   4.528  0.3704  0.0126  0.2895
  741MOL0     C99957   4.291   2.922   4.589 -0.7272  0.4838 -0.3511
  741MOL0     O99958   4.178   2.997   4.623 -0.9627 -0.2980  0.0486
  741MOL0     C99959   4.191   3.139   4.614 -0.0245  0.8471 -0.2731
  741MOL0     C99960   4.069   3.198   4.669 -0.5792 -0.2432  0.0625
  741MOL0     C99961   4.052   3.182   4.819 -0.2911  0.2617  0.1443
  741MOL0     C99962   3.926   3.248   4.876 -0.0833 -0.9938  0.8506
  741MOL0     C99963   3.890   3.176   4.999  0.2311 -0.1181 -0.7087
  741MOL0     C99964   3.850   3.110   5.097  0.3590 -0.2629 -0.0437
  741MOL0     C99965   4.280   2.781   4.615  0.2622  0.5520 -1.3526
  741MOL0     C99966   4.389   2.700   4.601  0.2396 -0.0826 -0.6092
  741MOL0     C99967   4.366   2.552   4.632 -1.0957 -0.6387 -0.0530
  741MOL0     H99968   4.906   2.632   4.542  0.7772 -0.2314 -2.7720
  741MOL0     H99969   5.073   2.458   4.483 -0.5259  0.3543 -1.1417
  741MOL0     H99970   4.926   2.075   4.402 -0.8432 -0.3609  0.0113
  741MOL0     H99971   5.013   2.204   4.318  0.9191 -3.3355 -2.4008
  741MOL0     H99972   5.229   2.092   4.400 -0.8985 -0.6263  1.4563
  741MOL0     H99973   5.136   2.017   4.275 -1.2271  1.0805  0.1287
  741MOL0     H99974   5.013   1.888   4.472  0.2287 -1.7165  0.7184
  741MOL0     H99975   5.126   1.978   4.585  1.4911  0.9887 -0.8423
  741MOL0     H99976   5.244   1.809   4.361  1.2244  1.1792 -0.1187
  741MOL0     H99977   5.308   1.845   4.527  0.0695 -4.2184  2.7780
  741MOL0     H99978   5.069   1.675   4.489 -0.0440  2.1868 -1.6526
  741MOL0     H99979   5.234   1.599   4.507  0.5616 -0.7063  2.0702
  741MOL0     H99980   5.276   1.726   4.710  0.6630 -1.4278 -1.5990
  741MOL0     H99981   5.111   1.795   4.708 -2.4241 -1.4333 -2.9200
  741MOL0     H99982   5.151   1.601   4.878  2.3623  0.6408  0.5880
  741MOL0     H99983   5.216   1.510   4.743  0.3003  1.1957  0.1779
  741MOL0     H99984   4.923   1.589   4.747 -0.2450 -0.6798  1.2423
  741MOL0     H99985   5.004   1.475   4.639 -2.0868 -3.1445  0.3531
  741MOL0     H99986   4.793   1.333   4.695  0.9690  4.8991 -0.1117
  741MOL0     H99987   4.655   1.151   4.817  1.0284 -1.4556 -2.2757
  741MOL0     H99988   4.771   1.025   4.859 -0.3136 -0.9268  2.5060
  741MOL0     H99989   4.756   1.126   5.114  2.1620  1.1065 -1.6238
  741MOL0     H99990   4.595   1.173   5.056  1.4584  1.4602  0.9254
  741MOL0     H99991   4.617   0.953   5.168 -4.2262  2.9112 -0.1540
  741MOL0     H99992   4.698   0.892   5.014 -1.5483 -0.2319 -1.0701
  741MOL0     H99993   4.488   0.946   4.895 -0.8219 -1.4839 -0.0263
  741MOL0     H99994   4.424   1.038   5.032  3.0487  1.8966  1.6176
  741MOL0     H99995   4.259   0.955   5.186 -0.1264 -1.6973 -2.3848
  741MOL0     H99996   4.222   0.918   5.437  0.5179  0.4931 -2.0040
  741MOL0     H99997   4.202   0.958   5.838 -0.7742 -1.2629 -4.6006
  741MOL0     H99998   4.146   0.911   6.068 -1.6264  0.1537 -0.8090
  741MOL0     H99999   4.065   0.817   6.272  2.1008 -1.3018  2.8585
  741MOL0     H    0   3.957   0.736   6.158  1.2173 -3.7367 -1.2887
  741MOL0     H    1   3.879   0.700   6.386 -0.2425 -1.2420  2.2122
  741MOL0     H    2   3.950   0.542   6.328  3.3605 -0.2953  0.8039
  741MOL0     H    3   4.160   0.587   6.448 -0.7693 -3.4377  1.5150
  741MOL0     H    4   4.086   0.742   6.493  1.7990 -1.2602 -0.9536
  741MOL0     H    5   3.960   0.476   6.562 -1.7141  1.3011 -2.3313
  741MOL0     H    6   3.928   0.636   6.636  1.0952  2.7611 -1.8031
  741MOL0     H    7   4.149   0.646   6.727 -0.6747 -1.1533  2.0256
  741MOL0     H    8   4.199   0.500   6.643  2.3316  2.5484  1.6246
  741MOL0     H    9   4.144   0.450   6.886 -0.8822 -1.4503  1.1204
  741MOL0     H   10   3.990   0.541   6.862 -0.3345 -0.2687 -1.3652
  741MOL0     H   11   4.052   0.281   6.709 -0.1148 -0.3475 -0.3681
  741MOL0     H   12   3.894   0.350   6.741  0.5588  1.2260 -1.3608
  741MOL0     H   13   3.938   0.286   6.980 -2.0330 -2.0940 -0.4281
  741MOL0     H   14   3.910   0.169   6.861 -2.4701  2.6762  0.0212
  741MOL0     H   15   4.235   0.496   5.999  1.4164  0.1964  3.2860
  741MOL0     H   16   4.278   0.558   5.755 -0.1381  0.1196 -0.7814
  741MOL0     H   17   4.549   0.628   5.420  1.8745  0.3187 -1.3494
  741MOL0     H   18   4.563   0.667   5.172  1.5140  1.9772 -0.1780
  741MOL0     H   19   4.814   2.152   4.632  1.1270 -1.0705  2.6660
  741MOL0     H   20   4.637   2.333   4.669 -1.1864  1.3456  0.8729
  741MOL0     H   21   4.610   2.923   4.462  1.4307 -2.8604 -0.3215
  741MOL0     H   22   4.422   3.074   4.498  1.7647 -0.5161 -0.9495
  741MOL0     H   23   4.203   3.171   4.510 -1.7645  3.2445  0.1920
  741MOL0     H   24   4.283   3.169   4.663  0.9996  0.8358 -2.1176
  741MOL0     H   25   3.988   3.164   4.604 -1.5405  0.4605  0.8703
  741MOL0     H   26   4.081   3.306   4.653  3.3680 -0.4754  0.4707
  741MOL0     H   27   4.143   3.226   4.859 -1.2639  1.0713  1.5316
  741MOL0     H   28   4.046   3.074   4.835  0.4879 -0.1828 -2.2194
  741MOL0     H   29   3.949   3.355   4.886 -1.9121 -0.2904 -1.5093
  741MOL0     H   30   3.846   3.236   4.802 -2.3176  1.3183  2.7083
  741MOL0     H   31   3.795   3.063   5.175  0.9192 -0.5905  0.1580
  741MOL0     H   32   4.184   2.745   4.651 -0.3800  2.5844 -0.9300
  741MOL0     H   33   4.397   2.482   4.555 -1.2815 -0.8350  0.0500
  741MOL0     H   34   4.413   2.524   4.727 -1.4596  2.4384  1.1633
  741MOL0     H   35   4.261   2.536   4.656 -1.0345 -0.1676  0.5631
  742MOL0     O   36  10.729   7.076   9.140 -0.2333  0.3876 -0.2683
  742MOL0     C   37  10.746   7.187   9.091  0.3447  0.5027 -0.4929
  742MOL0     O   38  10.859   7.222   9.027 -0.1881 -0.0924  0.6367
  742MOL0     C   39  10.972   7.145   9.020  0.6309  0.3870  0.8278
  742MOL0     C   40  11.100   7.221   8.997  0.5448  0.3896 -0.6937
  742MOL0     C   41  11.224   7.158   8.995  0.2452 -0.3166 -0.0454
  742MOL0     C   42  11.230   7.025   9.007  0.0106  0.4371 -0.6303
  742MOL0     O   43  11.363   6.963   9.013  0.3866  0.4809  0.0016
  742MOL0     C   44  11.373   6.825   9.039  0.0247  0.3780  0.3604
  742MOL0     C   45  11.507   6.777   8.992 -0.3903  0.3830  0.7055
  742MOL0     C   46  11.628   6.838   9.068  0.8028 -0.3079 -0.0528
  742MOL0     C   47  11.762   6.770   9.056  0.4239 -1.3264  0.3357
  742MOL0     C   48  11.858   6.870   8.997 -0.5495  0.0715 -0.5325
  742MOL0     C   49  11.998   6.814   8.977 -0.0169 -0.3426  1.2783
  742MOL0     C   50  12.069   6.765   9.100 -0.5993 -1.3970 -0.5894
  742MOL0     C   51  12.217   6.794   9.105 -0.1436 -0.1104 -0.3148
  742MOL0     N   52  12.269   6.734   9.231 -0.9980  0.1932 -0.7059
  742MOL0     C   53  12.278   6.796   9.351 -0.2842 -0.3104 -0.5256
  742MOL0     C   54  12.333   6.696   9.435 -0.0786  0.2296  0.0561
  742MOL0     C   55  12.351   6.712   9.586 -0.2293  0.2317  0.3708
  742MOL0     C   56  12.366   6.865   9.637  0.2992  0.2251  0.0764
  742MOL0     C   57  12.448   6.875   9.775  0.7744  0.5448 -0.4536
  742MOL0     C   58  12.456   7.024   9.805 -0.1183 -0.0208 -0.5146
  742MOL0     O   59  12.487   7.094   9.686 -0.4738 -0.6073  0.2067
  742MOL0     C   60  12.503   7.226   9.687  0.2824 -0.2974 -0.4477
  742MOL0     C   61  12.422   7.315   9.759  0.3846 -0.2209  0.8079
  742MOL0     C   62  12.451   7.454   9.769  0.1574  1.4503  0.4498
  742MOL0     C   63  12.562   7.500   9.685 -0.4109 -0.6361 -0.1940
  742MOL0     C   64  12.583   7.647   9.664  0.2054 -0.2932 -0.0168
  742MOL0     O   65  12.490   7.728   9.722 -0.6263 -0.4951 -0.1510
  742MOL0     C   66  12.499   7.862   9.692  0.8996  0.6396  0.5877
  742MOL0     C   67  12.410   7.913   9.591 -0.3164 -1.0901 -0.3689
  742MOL0     C   68  12.420   8.053   9.556 -0.3203  0.2770  0.4354
  742MOL0     C   69  12.509   8.133   9.627  0.6463 -0.5018  1.1852
  742MOL0     O   70  12.529   8.261   9.593 -0.8494  0.0449 -0.2752
  742MOL0     C   71  12.474   8.310   9.467  0.2863  0.2663  0.2074
  742MOL0     C   72  12.546   8.447   9.440  0.1861  0.2457 -0.3972
  742MOL0     C   73  12.472   8.529   9.351 -0.0028  0.2938  1.1532
  742MOL0     C   74  12.509   8.675   9.368 -0.2094 -0.5210 -0.6691
  742MOL0     C   75  12.416   8.758   9.291 -0.0755  0.2794  0.1303
  742MOL0     C   76  12.437   8.903   9.318  0.2572 -0.7495 -0.0066
  742MOL0     C   77  12.370   9.000   9.216 -0.8035 -0.6303  0.2368
  742MOL0     C   78  12.386   9.149   9.236  0.0475 -0.2209 -0.5215
  742MOL0    Cl   79  12.328   9.186   9.402  0.2239  0.1093 -0.5868
  742MOL0     C   80  12.597   8.078   9.711 -0.5544 -0.1751 -0.3554
  742MOL0     C   81  12.601   7.940   9.743  0.5028 -0.2655  0.8069
  742MOL0     O   82  12.673   7.678   9.589 -0.6282  0.3428 -0.3649
  742MOL0     C   83  12.640   7.412   9.617 -0.2720  0.0315  0.6044
  742MOL0     C   84  12.616   7.277   9.625  0.3684 -0.7661  0.2633
  742MOL0     N   85  12.364   6.581   9.365 -0.4247  0.1170 -0.1409
  742MOL0     N   86  12.320   6.610   9.247  0.0862 -0.0786  0.9178
  742MOL0     C   87  11.114   6.955   9.034 -1.0542 -0.0711 -0.2267
  742MOL0     C   88  10.983   7.005   9.039  0.5539  0.1456  0.8611
  742MOL0     C   89  10.644   7.295   9.100  0.7098  0.4631  0.8610
  742MOL0     C   90  10.642   7.408   9.018 -0.8763  0.0680  0.7741
  742MOL0     C   91  10.535   7.495   9.007  0.6345  0.1602  0.2509
  742MOL0     C   92  10.419   7.472   9.080 -0.4546  0.5771 -0.7086
  742MOL0     O   93  10.305   7.547   9.062 -0.1976  0.3639  0.8629
  742MOL0     C   94  10.178   7.515   9.120  0.0270 -0.1525  0.2500
  742MOL0     C   95  10.077   7.622   9.088  0.6760  0.3848 -0.3069
  742MOL0     C   96   9.959   7.600   9.192  0.2079  0.2814 -0.2402
  742MOL0     C   97   9.862   7.714   9.179 -0.5333  0.8108  0.4300
  742MOL0     C   98   9.753   7.694   9.273  0.1680 -0.2120 -0.1920
  742MOL0     C   99   9.652   7.672   9.338 -1.7261  0.1451  0.5977
  742MOL0     C  100  10.435   7.372   9.180  0.5518  0.2829  0.4440
  742MOL0     C  101  10.537   7.275   9.189  0.1476 -0.8865  0.2901
  742MOL0     C  102  10.546   7.176   9.307 -0.5479 -0.8864  0.3665
  742MOL0     H  103  11.093   7.326   8.973 -1.6316  0.3613 -0.3345
  742MOL0     H  104  11.312   7.215   8.968  0.4792 -0.4609  0.4038
  742MOL0     H  105  11.364   6.797   9.144 -1.8204 -1.9427 -0.3406
  742MOL0     H  106  11.301   6.759   8.990 -0.9911  0.5068  1.6246
  742MOL0     H  107  11.505   6.807   8.887  1.8349  0.5261  0.6593
  742MOL0     H  108  11.526   6.669   8.988  0.0981  0.4735  0.4987
  742MOL0     H  109  11.611   6.831   9.176  0.4333 -0.4049 -0.1163
  742MOL0     H  110  11.638   6.944   9.043 -4.0929  0.7863  1.4561
  742MOL0     H  111  11.788   6.746   9.160  0.1250 -0.6364  0.5703
  742MOL0     H  112  11.747   6.682   8.993 -4.6280  0.0696 -0.8116
  742MOL0     H  113  11.823   6.906   8.900 -0.6080 -0.2581 -0.6348
  742MOL0     H  114  11.872   6.957   9.062  0.8068  3.3075 -4.6845
  742MOL0     H  115  11.986   6.717   8.928 -2.1994  0.7315 -0.5125
  742MOL0     H  116  12.050   6.893   8.921 -3.7990  2.2796  1.1152
  742MOL0     H  117  12.052   6.659   9.119  1.6752 -1.6335  0.4959
  742MOL0     H  118  12.011   6.817   9.177 -1.2242 -1.4159 -1.0408
  742MOL0     H  119  12.265   6.737   9.024 -0.4955 -2.5668  1.0895
  742MOL0     H  120  12.250   6.898   9.102  0.2891  0.1153  4.2675
  742MOL0     H  121  12.247   6.898   9.375  1.6262  0.0603  0.5575
  742MOL0     H  122  12.261   6.675   9.637  0.4071  0.6466  1.8327
  742MOL0     H  123  12.431   6.644   9.615 -0.3051 -0.8325 -1.7264
  742MOL0     H  124  12.416   6.920   9.557  2.2939 -2.5856 -0.7585
  742MOL0     H  125  12.271   6.919   9.638 -0.2583 -0.7038  2.2736
  742MOL0     H  126  12.550   6.835   9.770  1.3069  1.6644  0.7992
  742MOL0     H  127  12.397   6.822   9.855 -0.5891  0.7028 -1.1943
  742MOL0     H  128  12.536   7.044   9.877 -1.8555 -0.1472  1.5459
  742MOL0     H  129  12.361   7.061   9.846 -0.0859 -0.0116 -0.4475
  742MOL0     H  130  12.347   7.267   9.822 -0.5259  0.7343  0.4745
  742MOL0     H  131  12.397   7.524   9.832 -0.8730 -1.1510  2.7015
  742MOL0     H  132  12.343   7.841   9.545  2.4731 -2.5117 -2.5048
  742MOL0     H  133  12.363   8.078   9.467  0.3155 -2.1783 -0.7330
  742MOL0     H  134  12.512   8.243   9.390  2.9630  1.3731  0.4513
  742MOL0     H  135  12.365   8.304   9.466  0.3620 -1.6193 -0.2522
  742MOL0     H  136  12.565   8.497   9.535  1.9915  0.0108 -0.6069
  742MOL0     H  137  12.645   8.422   9.402  1.1046  0.9343  1.4362
  742MOL0     H  138  12.490   8.495   9.248  2.5903  3.4109  0.4043
  742MOL0     H  139  12.365   8.520   9.369 -0.4218 -0.4688 -1.3417
  742MOL0     H  140  12.612   8.691   9.336  0.4768 -0.8075  1.2735
  742MOL0     H  141  12.495   8.698   9.474 -0.6053  1.1812 -1.0664
  742MOL0     H  142  12.311   8.728   9.291  0.1675 -0.6289  1.1435
  742MOL0     H  143  12.434   8.727   9.187  0.8679  2.1154 -0.3016
  742MOL0     H  144  12.405   8.923   9.420  1.9076  3.6189 -0.1061
  742MOL0     H  145  12.545   8.919   9.312  1.0295 -5.2476 -2.1962
  742MOL0     H  146  12.262   8.980   9.216 -0.7117 -1.5681  3.1320
  742MOL0     H  147  12.405   8.960   9.120  0.7591  0.8285  0.1636
  742MOL0     H  148  12.492   9.178   9.228  0.6255 -2.2855 -0.8888
  742MOL0     H  149  12.325   9.197   9.159 -1.7323 -2.0763 -0.3431
  742MOL0     H  150  12.653   8.145   9.775  3.7761 -2.1332 -1.7296
  742MOL0     H  151  12.682   7.908   9.808  0.1890 -1.1917  0.7578
  742MOL0     H  152  12.724   7.451   9.560  0.7009 -0.9607  1.3320
  742MOL0     H  153  12.676   7.204   9.572 -0.2635 -2.0494  1.2419
  742MOL0     H  154  11.109   6.853   9.070 -1.3879  0.7608  2.3348
  742MOL0     H  155  10.906   6.933   9.063 -1.1497  1.4895 -0.3530
  742MOL0     H  156  10.724   7.437   8.954 -2.9038  0.0383 -2.0005
  742MOL0     H  157  10.540   7.552   8.915  2.5478  0.9284  0.7787
  742MOL0     H  158  10.193   7.508   9.228 -3.9679  0.7646  1.0223
  742MOL0     H  159  10.148   7.417   9.081  1.1589 -1.0927  1.6083
  742MOL0     H  160  10.042   7.616   8.985 -0.2334  3.0519 -0.2229
  742MOL0     H  161  10.127   7.719   9.098  3.2051 -0.9337  0.7150
  742MOL0     H  162  10.001   7.594   9.293  2.4889  1.8435 -1.0007
  742MOL0     H  163   9.912   7.503   9.175 -1.4237  1.1753 -1.0249
  742MOL0     H  164   9.926   7.798   9.208 -0.4834  0.0321  2.7614
  742MOL0     H  165   9.818   7.731   9.080 -1.4931  3.0443  1.1659
  742MOL0     H  166   9.555   7.649   9.377 -1.6335 -2.0320 -0.3157
  742MOL0     H  167  10.355   7.361   9.253  0.1595 -1.8360 -0.2262
  742MOL0     H  168  10.483   7.211   9.389 -0.1077  1.6782 -0.2973
  742MOL0     H  169  10.520   7.074   9.277 -1.1912 -0.6410  0.0755
  742MOL0     H  170  10.648   7.183   9.347 -0.6846  0.3503  0.5458
  743MOL0     O  171  10.202   5.781   2.170  0.0120  0.0576  0.0392
  743MOL0     C  172  10.204   5.746   2.054  0.0285  0.1356  0.1975
  743MOL0     O  173  10.099   5.754   1.966  0.6256  0.3580  0.1572
  743MOL0     C  174   9.983   5.819   1.989  1.3699 -0.3649  0.8645
  743MOL0     C  175   9.915   5.848   2.113  0.1339  0.3521 -0.6427
  743MOL0     C  176   9.796   5.920   2.127  0.1654  0.3804 -0.6257
  743MOL0     C  177   9.726   5.952   2.023 -0.7190  0.1827  0.7741
  743MOL0     O  178   9.606   6.018   2.032 -0.3298 -0.4977 -0.2094
  743MOL0     C  179   9.522   5.998   2.159 -0.5162  0.5130 -0.1957
  743MOL0     C  180   9.558   6.108   2.251 -0.2062  0.2250 -0.9957
  743MOL0     C  181   9.481   6.229   2.217 -0.2746 -0.3846 -0.1292
  743MOL0     C  182   9.508   6.352   2.312 -0.2697 -0.0424 -0.6925
  743MOL0     C  183   9.436   6.480   2.259  0.5461 -0.0171 -1.0102
  743MOL0     C  184   9.454   6.602   2.347  0.6414  0.6368 -0.3032
  743MOL0     C  185   9.333   6.710   2.349  0.4939  0.1567  0.0897
  743MOL0     C  186   9.241   6.703   2.480  0.3866 -0.1645 -0.4583
  743MOL0     N  187   9.318   6.759   2.591  0.0093  0.4817 -0.6102
  743MOL0     C  188   9.350   6.673   2.695  0.4361 -0.0512 -0.6438
  743MOL0     C  189   9.403   6.753   2.789 -0.3132 -0.2272 -0.4027
  743MOL0     C  190   9.447   6.723   2.933 -0.4635  0.3434  0.4998
  743MOL0     C  191   9.332   6.656   3.015  0.6586  0.0687 -0.5850
  743MOL0     C  192   9.195   6.736   3.024 -0.2785 -0.0357  0.0674
  743MOL0     C  193   9.072   6.670   3.086  0.1344  0.0177  0.7768
  743MOL0     O  194   9.029   6.560   3.006  0.0130 -0.3576  0.5115
  743MOL0     C  195   8.964   6.581   2.882  0.3694 -0.3960 -0.0753
  743MOL0     C  196   8.894   6.698   2.848 -0.0034  0.2809  0.1459
  743MOL0     C  197   8.828   6.708   2.722 -0.6979  0.6482  0.0158
  743MOL0     C  198   8.838   6.612   2.625  0.2042 -0.3534  0.8257
  743MOL0     C  199   8.777   6.632   2.493  0.4704 -0.0300  0.3398
  743MOL0     O  200   8.691   6.740   2.474 -0.8403 -0.1929 -0.2789
  743MOL0     C  201   8.682   6.802   2.353 -0.0324  1.1849 -0.6531
  743MOL0     C  202   8.793   6.812   2.271  0.1093 -0.3861  0.1460
  743MOL0     C  203   8.784   6.885   2.158  1.0393  0.9652 -0.3832
  743MOL0     C  204   8.659   6.952   2.123  0.3156 -0.7002  0.8093
  743MOL0     O  205   8.653   7.026   2.003  1.1465 -0.0221 -0.2293
  743MOL0     C  206   8.763   7.093   1.950  0.9243 -0.1174  0.2225
  743MOL0     C  207   8.733   7.103   1.796 -0.4387 -0.1779  0.0311
  743MOL0     C  208   8.799   6.997   1.718 -0.1485  0.6536 -0.2030
  743MOL0     C  209   8.740   6.865   1.716  0.9741 -0.2402 -0.0485
  743MOL0     C  210   8.774   6.777   1.593 -0.0493  0.4350  0.2369
  743MOL0     C  211   8.689   6.657   1.562  0.2009  0.2979 -0.2118
  743MOL0     C  212   8.547   6.676   1.516  0.8799 -0.2384  0.9078
  743MOL0     C  213   8.536   6.749   1.384 -0.6664 -0.5506  0.6673
  743MOL0    Cl  214   8.577   6.651   1.253 -0.0120  0.2152 -0.1522
  743MOL0     C  215   8.551   6.943   2.210 -0.3975  0.2982  0.1863
  743MOL0     C  216   8.558   6.871   2.333  0.2831 -0.5863 -0.7000
  743MOL0     O  217   8.823   6.562   2.397  0.3988 -0.1505  0.2414
  743MOL0     C  218   8.907   6.494   2.660 -1.2296  0.4427  0.2914
  743MOL0     C  219   8.974   6.480   2.782  0.4212 -0.4692  0.6221
  743MOL0     N  220   9.401   6.886   2.742 -0.2748  0.3311 -0.2913
  743MOL0     N  221   9.353   6.894   2.624 -0.1341  0.4370  0.6152
  743MOL0     C  222   9.781   5.925   1.895  0.2078  0.5364 -0.1179
  743MOL0     C  223   9.908   5.863   1.876  0.2093  0.2026 -0.2389
  743MOL0     C  224  10.332   5.696   2.002  0.6305 -0.1605  0.4887
  743MOL0     C  225  10.386   5.748   1.880  1.3610 -0.3405 -0.1672
  743MOL0     C  226  10.509   5.716   1.839 -0.0909 -0.0707 -0.4601
  743MOL0     C  227  10.590   5.620   1.912 -0.4239 -0.3657  0.4562
  743MOL0     O  228  10.724   5.591   1.877 -0.0196 -0.0331 -0.4069
  743MOL0     C  229  10.796   5.668   1.784 -0.5425 -0.5010 -0.1849
  743MOL0     C  230  10.758   5.618   1.644 -0.1433 -0.2469 -0.4044
  743MOL0     C  231  10.821   5.692   1.527 -0.4484  0.4971 -0.0878
  743MOL0     C  232  10.815   5.612   1.404 -0.3299  0.2275  0.2986
  743MOL0     C  233  10.852   5.468   1.407  0.4569  0.0415  0.0321
  743MOL0     C  234  10.874   5.349   1.408  0.7561  0.5658  0.5350
  743MOL0     C  235  10.535   5.564   2.022  0.1036  0.4614  0.3624
  743MOL0     C  236  10.413   5.595   2.066  0.4689 -0.0509  0.6955
  743MOL0     C  237  10.358   5.514   2.183  0.1478  0.4162  1.5185
  743MOL0     H  238   9.971   5.813   2.199  1.5887 -1.6251 -2.2760
  743MOL0     H  239   9.776   5.948   2.230 -1.0877 -0.3083 -0.6557
  743MOL0     H  240   9.418   5.985   2.129  0.4795 -5.0433 -2.5060
  743MOL0     H  241   9.546   5.904   2.209  1.4639  2.5179  3.0005
  743MOL0     H  242   9.666   6.122   2.246 -0.2471  0.6063 -0.8614
  743MOL0     H  243   9.529   6.079   2.353 -1.4679  2.0538 -0.7948
  743MOL0     H  244   9.374   6.207   2.215 -1.4252  3.6490 -5.1406
  743MOL0     H  245   9.495   6.264   2.114  3.6930 -2.4323 -0.4968
  743MOL0     H  246   9.473   6.330   2.413  2.8637 -0.6622  0.3851
  743MOL0     H  247   9.617   6.360   2.314 -0.0366 -2.5858 -0.3013
  743MOL0     H  248   9.459   6.508   2.155  2.4016  1.6507 -0.2114
  743MOL0     H  249   9.328   6.463   2.247  0.7672 -0.9678 -1.7893
  743MOL0     H  250   9.466   6.564   2.449 -1.3885  2.7883  0.8281
  743MOL0     H  251   9.546   6.656   2.320  0.6960  0.0296 -1.3956
  743MOL0     H  252   9.268   6.697   2.262 -2.7027  0.9954  2.1764
  743MOL0     H  253   9.363   6.815   2.335  2.3360 -0.4908 -1.2784
  743MOL0     H  254   9.150   6.762   2.468  0.1349  0.8109  4.3298
  743MOL0     H  255   9.209   6.602   2.505  2.2668 -0.2599  1.9252
  743MOL0     H  256   9.328   6.568   2.703  1.2791 -0.5319 -3.4756
  743MOL0     H  257   9.548   6.680   2.939 -0.1271  0.5234 -2.5263
  743MOL0     H  258   9.466   6.811   2.995  2.1559  0.1022  0.1503
  743MOL0     H  259   9.312   6.560   2.967 -0.1794 -0.8735  1.5335
  743MOL0     H  260   9.360   6.618   3.113  0.7039 -0.2134 -0.7071
  743MOL0     H  261   9.166   6.761   2.921 -1.7457  2.8209  1.0746
  743MOL0     H  262   9.200   6.834   3.072 -1.6246  0.3035 -0.4472
  743MOL0     H  263   8.993   6.745   3.097 -2.5508 -2.7685  1.9682
  743MOL0     H  264   9.099   6.655   3.191 -3.3549  1.0412  1.9473
  743MOL0     H  265   8.889   6.786   2.911  0.6606 -0.7791  1.7368
  743MOL0     H  266   8.784   6.807   2.712 -3.6669 -0.2499  2.5337
  743MOL0     H  267   8.895   6.790   2.303  0.9391  2.4435 -0.2380
  743MOL0     H  268   8.877   6.897   2.103  2.1428  1.5718  1.5159
  743MOL0     H  269   8.754   7.194   1.992  1.8798 -0.1498  0.5342
  743MOL0     H  270   8.869   7.074   1.969  1.0765  1.8158  1.6470
  743MOL0     H  271   8.627   7.095   1.772 -0.7750  0.9148  1.0670
  743MOL0     H  272   8.769   7.198   1.755 -0.2706 -0.3113 -0.1331
  743MOL0     H  273   8.796   7.051   1.622 -0.0095  3.0056  1.0276
  743MOL0     H  274   8.898   6.978   1.761  0.5032 -0.0483 -1.9350
  743MOL0     H  275   8.632   6.883   1.716  0.6065 -2.1230 -1.3453
  743MOL0     H  276   8.754   6.802   1.804 -0.2730 -0.4872 -0.0037
  743MOL0     H  277   8.871   6.732   1.620 -0.4134  0.0890  1.0098
  743MOL0     H  278   8.771   6.843   1.507 -0.5389 -0.9979 -0.8808
  743MOL0     H  279   8.747   6.610   1.482  3.5187  1.8287  1.1233
  743MOL0     H  280   8.689   6.587   1.646 -2.4027  0.4281 -0.0311
  743MOL0     H  281   8.512   6.745   1.593  2.7334  1.4740  0.3148
  743MOL0     H  282   8.503   6.577   1.514  2.3431 -0.9599  2.0459
  743MOL0     H  283   8.431   6.773   1.369 -0.4094  1.1417  1.3828
  743MOL0     H  284   8.589   6.845   1.383 -3.2729  0.9725 -1.0130
  743MOL0     H  285   8.466   7.006   2.188 -2.0588 -2.0901 -0.5983
  743MOL0     H  286   8.486   6.875   2.414 -0.8944  1.3593 -1.7742
  743MOL0     H  287   8.913   6.413   2.587 -1.8821 -0.9164  1.6935
  743MOL0     H  288   9.032   6.390   2.799 -1.0135 -1.0744  2.6094
  743MOL0     H  289   9.730   5.968   1.809  1.4784 -0.1250 -1.2553
  743MOL0     H  290   9.948   5.877   1.777  0.8188 -3.0645 -0.5497
  743MOL0     H  291  10.334   5.828   1.828  0.0756 -2.3272 -2.1615
  743MOL0     H  292  10.556   5.760   1.751  0.0167 -0.6579 -0.7003
  743MOL0     H  293  10.903   5.657   1.803 -0.4568  3.8335  3.1437
  743MOL0     H  294  10.777   5.775   1.795  1.9881  0.0459 -0.5181
  743MOL0     H  295  10.650   5.620   1.631 -0.2326  1.1936  0.4469
  743MOL0     H  296  10.777   5.510   1.634  0.6787 -0.0803 -0.8156
  743MOL0     H  297  10.922   5.730   1.548 -1.1300  1.5426  1.4667
  743MOL0     H  298  10.752   5.774   1.505 -2.1412 -0.5858  1.0060
  743MOL0     H  299  10.707   5.618   1.383  0.0217 -1.3573 -2.4202
  743MOL0     H  300  10.871   5.655   1.320  2.2527  0.4604  2.0228
  743MOL0     H  301  10.881   5.242   1.411 -0.2961  0.4896  0.6795
  743MOL0     H  302  10.590   5.489   2.078  1.6323 -0.8907 -2.6855
  743MOL0     H  303  10.386   5.552   2.281 -2.7837  2.8210  1.5535
  743MOL0     H  304  10.251   5.528   2.167  0.4526 -0.0650 -1.7528
  743MOL0     H  305  10.391   5.411   2.164  0.4841  1.1260 -3.0751
  744MOL0     O  306  10.331   1.079   7.855  0.0829 -0.1180  0.4539
  744MOL0     C  307  10.291   1.191   7.821  0.2380 -0.3599 -0.1933
  744MOL0     O  308  10.184   1.212   7.744  0.4022  0.2772  0.2930
  744MOL0     C  309  10.152   1.341   7.726  0.2894  0.1276  0.2778
  744MOL0     C  310  10.213   1.417   7.619  0.9551  0.1522 -0.3652
  744MOL0     C  311  10.188   1.553   7.601 -0.8512  0.6521 -0.0598
  744MOL0     C  312  10.099   1.610   7.694  0.0672 -0.3848  0.5770
  744MOL0     O  313  10.084   1.747   7.703 -0.4476 -0.2386  0.1297
  744MOL0     C  314  10.075   1.820   7.575 -0.1506 -0.4450  0.0620
  744MOL0     C  315   9.993   1.944   7.595  1.0977  0.0175 -0.6500
  744MOL0     C  316  10.039   2.032   7.718 -0.2872 -0.3286 -0.6575
  744MOL0     C  317   9.963   2.153   7.741 -0.7034  0.7047 -0.3766
  744MOL0     C  318  10.018   2.258   7.836  0.7273  0.4313 -0.2469
  744MOL0     C  319   9.930   2.383   7.851  0.1905 -0.3662 -0.5262
  744MOL0     C  320   9.777   2.368   7.867  0.1717  1.4260  0.7390
  744MOL0     C  321   9.706   2.505   7.905 -0.1074 -0.8570  0.1315
  744MOL0     N  322   9.728   2.606   7.798 -0.6572  0.6379  0.0259
  744MOL0     C  323   9.691   2.606   7.669 -0.7070 -0.8542  0.6822
  744MOL0     C  324   9.734   2.724   7.616  0.0678  0.2938  0.6351
  744MOL0     C  325   9.734   2.771   7.477  0.8528  0.2555  0.3116
  744MOL0     C  326   9.605   2.853   7.465 -1.5916  0.3073  0.9120
  744MOL0     C  327   9.589   2.902   7.320 -0.6892 -0.0638  0.4877
  744MOL0     C  328   9.445   2.961   7.293  0.5210 -0.2678 -1.5588
  744MOL0     O  329   9.415   2.967   7.160 -0.2160 -1.0059  0.0098
  744MOL0     C  330   9.293   2.979   7.099  0.1305 -0.5171  0.5497
  744MOL0     C  331   9.272   3.067   6.993  0.3041 -0.0858  0.5238
  744MOL0     C  332   9.147   3.078   6.928 -1.2187 -0.6426  0.0265
  744MOL0     C  333   9.032   3.015   6.985  0.3297 -0.6027 -0.1727
  744MOL0     C  334   8.902   3.028   6.911  0.1810  0.0059 -0.6389
  744MOL0     O  335   8.878   3.153   6.859  0.1821  0.0688  0.4969
  744MOL0     C  336   8.773   3.164   6.777 -0.1531 -0.3796  0.2749
  744MOL0     C  337   8.669   3.264   6.792 -1.3063  0.7933  0.2671
  744MOL0     C  338   8.566   3.285   6.702  1.0834 -0.4267 -0.5500
  744MOL0     C  339   8.554   3.199   6.588  0.2744  0.4335 -0.7979
  744MOL0     O  340   8.448   3.211   6.498 -0.4036 -0.8156 -0.2939
  744MOL0     C  341   8.319   3.144   6.532 -0.8102  0.2132  0.0193
  744MOL0     C  342   8.324   3.002   6.487 -0.4977  0.7031  0.7556
  744MOL0     C  343   8.182   2.949   6.441  0.1221  0.4147  0.3329
  744MOL0     C  344   8.191   2.816   6.369  0.1991  0.5655  0.4437
  744MOL0     C  345   8.044   2.790   6.319  0.0107  0.0702  0.4899
  744MOL0     C  346   8.008   2.649   6.255  0.1042 -0.0798 -0.2191
  744MOL0     C  347   8.000   2.537   6.347  0.3666 -0.2752 -0.0631
  744MOL0     C  348   7.989   2.407   6.264  0.3812  0.1932  0.2206
  744MOL0    Cl  349   7.840   2.405   6.175 -0.2464  0.0346  0.0919
  744MOL0     C  350   8.647   3.092   6.576  0.3859 -0.4236 -1.3001
  744MOL0     C  351   8.755   3.080   6.667 -0.5148 -0.0767 -0.4290
  744MOL0     O  352   8.819   2.937   6.912 -0.4741  0.1212 -0.1490
  744MOL0     C  353   9.052   2.931   7.094 -0.5160  0.1184 -0.6220
  744MOL0     C  354   9.176   2.913   7.146 -0.5962 -1.0898 -0.2869
  744MOL0     N  355   9.783   2.802   7.718 -0.4002  0.6633  0.0486
  744MOL0     N  356   9.782   2.728   7.825 -0.1554 -1.5297 -0.2292
  744MOL0     C  357  10.029   1.536   7.787  0.0459 -0.8014 -0.6199
  744MOL0     C  358  10.052   1.405   7.807  1.2791 -0.0626  0.5436
  744MOL0     C  359  10.404   1.286   7.859  0.4732 -1.2591 -0.5940
  744MOL0     C  360  10.502   1.297   7.764  0.0115  0.4116  0.2375
  744MOL0     C  361  10.605   1.392   7.792 -0.6683  0.0798 -0.3175
  744MOL0     C  362  10.606   1.469   7.910 -0.1950  0.3124  0.2597
  744MOL0     O  363  10.712   1.555   7.940 -0.2963  0.6718  0.0796
  744MOL0     C  364  10.832   1.556   7.865 -0.0662 -0.5099  0.0675
  744MOL0     C  365  10.921   1.426   7.881  0.4399  0.6674 -0.1858
  744MOL0     C  366  11.058   1.459   7.832 -0.7119 -0.2074  0.2888
  744MOL0     C  367  11.175   1.346   7.851  0.3449  0.0522  0.0724
  744MOL0     C  368  11.187   1.324   7.999 -0.7115 -0.0235 -0.7422
  744MOL0     C  369  11.188   1.298   8.121 -0.5336 -0.4836 -0.7920
  744MOL0     C  370  10.510   1.448   8.007  0.0624  0.0370  0.2918
  744MOL0     C  371  10.405   1.356   7.971 -0.2690  0.1346 -0.6073
  744MOL0     C  372  10.306   1.328   8.069 -0.2386  1.0558  0.2143
  744MOL0     H  373  10.273   1.364   7.546 -1.9889 -1.5171 -1.7587
  744MOL0     H  374  10.237   1.619   7.529 -0.4341 -2.3304 -2.7338
  744MOL0     H  375  10.174   1.852   7.541  0.3419 -2.3462 -0.4427
  744MOL0     H  376  10.037   1.761   7.490  2.2532 -1.7369 -0.2303
  744MOL0     H  377   9.893   1.908   7.622  2.6704 -3.8629  0.8117
  744MOL0     H  378  10.002   1.999   7.502  3.0506  1.6600  0.4180
  744MOL0     H  379  10.143   2.058   7.698 -0.7313  0.6825 -1.7866
  744MOL0     H  380  10.032   1.969   7.807  2.1015  0.9121  0.5140
  744MOL0     H  381   9.944   2.203   7.645 -1.2533  1.2251 -0.0003
  744MOL0     H  382   9.868   2.118   7.781 -1.1080  0.6583 -1.3385
  744MOL0     H  383  10.037   2.212   7.933  0.7636  3.1255  1.0962
  744MOL0     H  384  10.114   2.292   7.796  2.2812 -1.7940  1.3369
  744MOL0     H  385   9.967   2.440   7.937  1.7387  1.8384 -2.5309
  744MOL0     H  386   9.950   2.444   7.762  1.4255 -3.2893 -2.4113
  744MOL0     H  387   9.749   2.293   7.942  0.7371 -0.0457 -0.4649
  744MOL0     H  388   9.736   2.336   7.770 -0.2200  2.3079  0.6029
  744MOL0     H  389   9.601   2.497   7.931  0.6500 -0.1510  4.0789
  744MOL0     H  390   9.747   2.550   7.995  0.1704  0.1655 -0.4830
  744MOL0     H  391   9.657   2.522   7.609 -0.6594 -0.3901 -0.0049
  744MOL0     H  392   9.818   2.841   7.465 -0.7861  2.2359 -0.2552
  744MOL0     H  393   9.741   2.692   7.401  2.1752 -0.4632  1.1401
  744MOL0     H  394   9.516   2.800   7.501 -0.2717 -2.5964  0.1462
  744MOL0     H  395   9.615   2.941   7.529  0.5863  0.0982  0.9134
  744MOL0     H  396   9.604   2.823   7.247  1.8657  2.4385 -1.9648
  744MOL0     H  397   9.663   2.978   7.293 -0.8293 -0.1043 -0.0212
  744MOL0     H  398   9.441   3.059   7.340 -0.8419 -0.7297 -0.6469
  744MOL0     H  399   9.376   2.894   7.346  0.2948  2.0776  1.3528
  744MOL0     H  400   9.346   3.131   6.946  2.4429 -3.9243 -1.9550
  744MOL0     H  401   9.149   3.138   6.837  0.2983 -2.5969 -1.3206
  744MOL0     H  402   8.673   3.326   6.882 -0.1508  0.7187  0.2728
  744MOL0     H  403   8.488   3.359   6.723 -0.4542 -2.1166 -0.0430
  744MOL0     H  404   8.293   3.155   6.638  0.4347  2.2597  0.1617
  744MOL0     H  405   8.247   3.196   6.469 -2.0662  0.9913  2.0022
  744MOL0     H  406   8.395   2.993   6.404  0.4405  0.6789  1.5366
  744MOL0     H  407   8.370   2.941   6.566  3.4229 -1.1819 -2.5738
  744MOL0     H  408   8.132   2.919   6.533 -0.4932 -3.0004 -0.9791
  744MOL0     H  409   8.115   3.018   6.388 -2.3382 -2.9998 -1.3424
  744MOL0     H  410   8.230   2.733   6.430 -1.5540 -0.9680 -0.4017
  744MOL0     H  411   8.250   2.831   6.278 -2.6319  1.5951 -1.3394
  744MOL0     H  412   8.021   2.868   6.246  3.2883  0.3916 -0.3346
  744MOL0     H  413   7.971   2.794   6.401 -1.8949 -3.7685 -0.7672
  744MOL0     H  414   7.913   2.657   6.200  0.3143 -0.9510 -0.7279
  744MOL0     H  415   8.085   2.632   6.180 -3.7601 -1.0091 -4.4743
  744MOL0     H  416   7.914   2.553   6.412  2.6267  3.0833  2.3674
  744MOL0     H  417   8.088   2.541   6.410  0.7275 -0.3383 -0.5567
  744MOL0     H  418   8.072   2.405   6.192  0.1528  2.7236 -0.1861
  744MOL0     H  419   7.990   2.315   6.323  1.8539  0.1213  0.1163
  744MOL0     H  420   8.631   3.034   6.486 -0.7501  1.7558 -2.5931
  744MOL0     H  421   8.821   2.996   6.650  2.2746  1.6416  1.0979
  744MOL0     H  422   8.962   2.889   7.137  0.3586 -0.0200  1.2140
  744MOL0     H  423   9.192   2.852   7.234 -0.8692  3.3249  3.1429
  744MOL0     H  424   9.961   1.596   7.847  2.5894  3.1175 -1.3158
  744MOL0     H  425   9.987   1.356   7.878 -0.6573  1.9904  0.3099
  744MOL0     H  426  10.503   1.232   7.677 -0.0871  1.2593 -0.4130
  744MOL0     H  427  10.693   1.397   7.730  0.5489 -1.4653  1.1785
  744MOL0     H  428  10.886   1.645   7.898  0.1334 -0.3979 -0.5452
  744MOL0     H  429  10.809   1.579   7.760  0.3010 -0.3450  0.0190
  744MOL0     H  430  10.878   1.337   7.836  0.6097  0.4834  0.0170
  744MOL0     H  431  10.927   1.415   7.990  0.5296 -0.0663 -0.2631
  744MOL0     H  432  11.095   1.554   7.872  3.4187 -1.3393 -0.3866
  744MOL0     H  433  11.034   1.471   7.726  0.6101  0.3731  0.0384
  744MOL0     H  434  11.152   1.254   7.797  1.9118 -0.0231 -0.5224
  744MOL0     H  435  11.271   1.378   7.809  1.0968 -4.8561 -2.6013
  744MOL0     H  436  11.186   1.276   8.226  2.4411 -0.4081 -0.6361
  744MOL0     H  437  10.497   1.502   8.100 -1.6725  2.5227 -1.2584
  744MOL0     H  438  10.294   1.219   8.077 -3.5728  1.2987 -0.2063
  744MOL0     H  439  10.345   1.376   8.159 -1.2218  0.7747  0.7989
  744MOL0     H  440  10.212   1.382   8.059 -1.4973 -1.1070 -0.2486
  745MOL0     O  441   1.628   1.130   1.070  0.4276 -0.3813 -0.5445
  745MOL0     C  442   1.673   1.191   0.973  1.4765  0.1429  0.4840
  745MOL0     O  443   1.636   1.161   0.849 -0.6149 -0.9339 -0.0524
  745MOL0     C  444   1.527   1.081   0.839  0.7636  1.3246 -0.4329
  745MOL0     C  445   1.542   0.951   0.793 -0.6577  0.1727  0.3133
  745MOL0     C  446   1.428   0.869   0.776  0.4066 -0.3922 -0.6788
  745MOL0     C  447   1.303   0.908   0.821 -0.2698  0.3620  0.7225
  745MOL0     O  448   1.204   0.813   0.822  0.4588 -0.5086 -0.6209
  745MOL0     C  449   1.124   0.792   0.941  0.1076 -0.3888  0.1164
  745MOL0     C  450   1.165   0.673   1.028 -0.0992 -0.1358 -1.0803
  745MOL0     C  451   1.078   0.653   1.147  0.2154 -0.4007  0.4663
  745MOL0     C  452   1.123   0.540   1.236  0.2672  0.1695 -0.2755
  745MOL0     C  453   1.085   0.563   1.384  0.0099  0.6232  0.2210
  745MOL0     C  454   0.932   0.577   1.405 -1.0971 -0.4877 -0.7069
  745MOL0     C  455   0.894   0.551   1.550 -0.1299 -0.1126  0.1998
  745MOL0     C  456   0.753   0.506   1.565  0.2816  0.1938  0.0308
  745MOL0     N  457   0.662   0.591   1.479  0.8229  0.2399  0.1645
  745MOL0     C  458   0.616   0.554   1.354 -1.2252 -0.4264 -0.1293
  745MOL0     C  459   0.537   0.653   1.310  0.7014 -0.0436  0.1715
  745MOL0     C  460   0.459   0.659   1.174  0.2589 -0.1005 -0.6719
  745MOL0     C  461   0.313   0.664   1.180 -0.1180 -0.4796 -0.0742
  745MOL0     C  462   0.253   0.788   1.253 -0.2032  0.8860 -1.4571
  745MOL0     C  463   0.120   0.854   1.202 -0.9502 -0.1523 -0.0932
  745MOL0     O  464   0.013   0.761   1.211 -0.3070 -0.4325  0.1947
  745MOL0     C  465  -0.037   0.728   1.332  0.2938 -0.1714 -0.0454
  745MOL0     C  466   0.012   0.612   1.398  0.3694  0.2993  0.0015
  745MOL0     C  467  -0.022   0.581   1.531  0.3924 -0.7238 -0.4851
  745MOL0     C  468  -0.117   0.662   1.600  0.1591  0.4441  0.4614
  745MOL0     C  469  -0.163   0.638   1.736 -0.2216  0.4227 -0.7142
  745MOL0     O  470  -0.241   0.735   1.800  0.0169  0.4592 -0.5559
  745MOL0     C  471  -0.307   0.709   1.922  0.9474  0.8802  0.2847
  745MOL0     C  472  -0.372   0.811   1.970  0.0697 -0.4989 -0.0757
  745MOL0     C  473  -0.446   0.805   2.088 -0.0566  1.2693 -0.0660
  745MOL0     C  474  -0.475   0.682   2.156  0.0421  0.8261 -0.1581
  745MOL0     O  475  -0.542   0.691   2.274  0.3607  0.0183 -0.0592
  745MOL0     C  476  -0.580   0.564   2.337 -0.0281 -0.2863  0.2930
  745MOL0     C  477  -0.705   0.589   2.419  0.3984 -0.1736 -0.6113
  745MOL0     C  478  -0.682   0.709   2.511  0.4511 -0.4199  0.3414
  745MOL0     C  479  -0.800   0.756   2.602 -0.3752  0.4883 -0.4100
  745MOL0     C  480  -0.905   0.839   2.522 -0.4467  0.2245  0.5926
  745MOL0     C  481  -1.013   0.897   2.612  0.2829 -0.0705  0.0566
  745MOL0     C  482  -1.121   0.967   2.525 -0.1607  0.1797 -0.3494
  745MOL0     C  483  -1.202   1.064   2.601 -0.5643  0.1629 -0.1749
  745MOL0    Cl  484  -1.269   0.986   2.745  0.4039 -0.1635 -0.4813
  745MOL0     C  485  -0.418   0.570   2.088  1.3614  1.1956  0.2471
  745MOL0     C  486  -0.325   0.586   1.985  0.2326  0.0018 -0.2037
  745MOL0     O  487  -0.125   0.528   1.787 -0.1187 -0.3681 -0.1269
  745MOL0     C  488  -0.175   0.769   1.529  0.9835 -0.2933 -0.8393
  745MOL0     C  489  -0.137   0.805   1.401  0.0123  0.3607  0.2279
  745MOL0     N  490   0.530   0.745   1.418  0.9459 -0.6726 -0.3473
  745MOL0     N  491   0.599   0.709   1.520 -0.9009  0.5035  0.0183
  745MOL0     C  492   1.290   1.036   0.864  0.7166  0.0961  0.0043
  745MOL0     C  493   1.395   1.126   0.866  0.0919  0.6170 -0.9101
  745MOL0     C  494   1.776   1.292   0.995 -0.0272 -0.4172  0.1023
  745MOL0     C  495   1.815   1.362   0.874  0.3247 -0.8667 -0.1883
  745MOL0     C  496   1.911   1.464   0.881 -0.8509  0.6235 -0.5123
  745MOL0     C  497   1.973   1.502   1.006  0.3071 -0.0985 -0.2324
  745MOL0     O  498   2.066   1.609   0.999 -0.5872 -0.1641  0.5501
  745MOL0     C  499   2.095   1.680   1.125  0.4252  0.1841 -0.4259
  745MOL0     C  500   2.244   1.734   1.117  0.7326 -0.4296  0.4474
  745MOL0     C  501   2.346   1.622   1.153 -0.4904 -0.8436  0.2222
  745MOL0     C  502   2.497   1.656   1.121 -0.5921 -0.0751  0.3280
  745MOL0     C  503   2.537   1.782   1.168  0.5343 -1.2053 -0.4873
  745MOL0     C  504   2.556   1.898   1.212 -0.5425  0.2179  0.4906
  745MOL0     C  505   1.929   1.426   1.120 -0.3765 -0.1753 -0.6704
  745MOL0     C  506   1.837   1.327   1.115 -0.7521 -0.1067 -0.4835
  745MOL0     C  507   1.805   1.270   1.254  0.8868 -0.1353 -0.3068
  745MOL0     H  508   1.636   0.911   0.755 -0.2193 -3.1094  4.2472
  745MOL0     H  509   1.442   0.768   0.740  1.5076 -1.1003  1.5205
  745MOL0     H  510   1.147   0.866   1.018  0.1655  0.6452 -0.8807
  745MOL0     H  511   1.017   0.802   0.920  0.5872 -0.2025 -2.4887
  745MOL0     H  512   1.269   0.688   1.059 -0.5712 -1.5977  1.4509
  745MOL0     H  513   1.171   0.581   0.970  3.3284 -1.0362  0.4412
  745MOL0     H  514   0.975   0.633   1.116  1.4883 -3.0988 -2.4826
  745MOL0     H  515   1.084   0.745   1.205 -1.0082 -0.1226  0.1805
  745MOL0     H  516   1.077   0.448   1.197  0.6745 -0.2841  0.3089
  745MOL0     H  517   1.231   0.524   1.236  0.3116 -1.1720 -4.9456
  745MOL0     H  518   1.127   0.481   1.443 -0.5682 -1.8453 -2.5302
  745MOL0     H  519   1.142   0.650   1.418  0.6684 -1.1512  4.2833
  745MOL0     H  520   0.900   0.674   1.366 -2.3788 -0.5530  0.1187
  745MOL0     H  521   0.887   0.504   1.336 -1.6916  0.1415 -0.9899
  745MOL0     H  522   0.904   0.640   1.612  2.9808 -0.0525 -0.2258
  745MOL0     H  523   0.962   0.491   1.612  1.3560  0.0978 -1.1521
  745MOL0     H  524   0.758   0.404   1.527  1.4832  1.6325 -4.1635
  745MOL0     H  525   0.725   0.510   1.671  2.2843 -1.7594  0.7093
  745MOL0     H  526   0.624   0.462   1.298 -0.3840  0.5222 -1.6291
  745MOL0     H  527   0.504   0.748   1.130  0.8279  0.5736  1.1774
  745MOL0     H  528   0.506   0.575   1.123  2.2306  0.1386  0.6511
  745MOL0     H  529   0.277   0.651   1.077 -1.6540 -1.4824  0.5466
  745MOL0     H  530   0.293   0.568   1.230  2.6130 -0.0294  2.0836
  745MOL0     H  531   0.326   0.869   1.262 -0.0174  0.5078  0.8000
  745MOL0     H  532   0.233   0.751   1.353 -3.6924 -0.1356 -2.3928
  745MOL0     H  533   0.134   0.888   1.099  1.0123  1.1137  0.5450
  745MOL0     H  534   0.092   0.942   1.260  0.6846  1.5164 -1.7103
  745MOL0     H  535   0.072   0.546   1.336 -2.3999 -2.8787  0.4170
  745MOL0     H  536   0.017   0.490   1.575 -2.0817 -1.3269  0.6248
  745MOL0     H  537  -0.358   0.900   1.909 -2.0514 -0.1803 -0.1689
  745MOL0     H  538  -0.467   0.906   2.123  0.8925  1.5575 -0.2998
  745MOL0     H  539  -0.611   0.492   2.260  0.2878 -0.4488  0.3177
  745MOL0     H  540  -0.492   0.530   2.392  0.5827 -1.5219 -1.3740
  745MOL0     H  541  -0.800   0.605   2.368 -0.8430 -0.5103  1.4888
  745MOL0     H  542  -0.706   0.506   2.490 -0.1675  1.2789  1.1695
  745MOL0     H  543  -0.587   0.684   2.559  3.1674  1.2561 -3.5366
  745MOL0     H  544  -0.664   0.795   2.445 -2.4366  1.3023  1.6241
  745MOL0     H  545  -0.762   0.811   2.689  1.6674 -1.6998  0.1892
  745MOL0     H  546  -0.841   0.661   2.638  4.0326 -3.2951 -4.1000
  745MOL0     H  547  -0.951   0.790   2.436 -1.4518  2.1507 -0.0220
  745MOL0     H  548  -0.843   0.912   2.469  1.3072 -2.5232 -1.4588
  745MOL0     H  549  -1.063   0.825   2.678  0.0284 -0.4231 -0.5121
  745MOL0     H  550  -0.965   0.969   2.680 -2.3058  1.1949  0.6726
  745MOL0     H  551  -1.185   0.889   2.484  2.5808 -0.8556 -3.1069
  745MOL0     H  552  -1.081   1.017   2.436 -1.8038 -0.0462 -1.2445
  745MOL0     H  553  -1.134   1.141   2.638  1.3142 -1.9316  0.9567
  745MOL0     H  554  -1.277   1.103   2.531  1.5373  1.1463 -1.9771
  745MOL0     H  555  -0.433   0.468   2.123 -0.7451  1.2020 -0.5026
  745MOL0     H  556  -0.286   0.495   1.940  1.3977  0.3300  0.0912
  745MOL0     H  557  -0.247   0.826   1.588 -0.3980 -3.1564  0.4281
  745MOL0     H  558  -0.183   0.881   1.339 -0.3601 -0.2499 -0.2529
  745MOL0     H  559   1.188   1.055   0.894  1.1504  2.2563  0.2710
  745MOL0     H  560   1.395   1.228   0.905  0.2148  0.2210  0.1584
  745MOL0     H  561   1.767   1.350   0.778  1.0810 -0.8439 -0.5783
  745MOL0     H  562   1.931   1.522   0.792  1.8804  1.4174  0.4986
  745MOL0     H  563   2.100   1.606   1.205  0.1907  0.3218 -0.2844
  745MOL0     H  564   2.021   1.758   1.145 -0.7206 -0.8707 -0.4907
  745MOL0     H  565   2.260   1.828   1.171  1.6267  1.0495 -2.1612
  745MOL0     H  566   2.254   1.756   1.010 -3.6597  0.2600 -0.0049
  745MOL0     H  567   2.318   1.537   1.091 -3.7825 -1.1632  1.9236
  745MOL0     H  568   2.333   1.600   1.259 -4.4354 -1.1565 -0.1721
  745MOL0     H  569   2.554   1.576   1.167 -1.2261 -0.4809  0.4172
  745MOL0     H  570   2.533   1.646   1.018 -0.7484 -0.3776  0.3033
  745MOL0     H  571   2.579   2.001   1.232  0.1678  0.4139 -1.2123
  745MOL0     H  572   1.979   1.453   1.212  0.5083 -4.7447  0.4370
  745MOL0     H  573   1.700   1.289   1.277  1.1391 -0.9311  1.7986
  745MOL0     H  574   1.824   1.162   1.250  0.7189 -0.2871  1.7659
  745MOL0     H  575   1.853   1.319   1.339 -2.3397  4.2659 -0.6951
  746MOL0     O  576   6.012   0.051   0.119  0.3772  0.4903  0.6222
  746MOL0     C  577   5.997   0.059  -0.003 -0.4157 -0.3568 -0.4778
  746MOL0     O  578   5.941  -0.042  -0.078  0.2844 -0.1861  0.0808
  746MOL0     C  579   5.936  -0.169  -0.033  0.1917 -0.5862  0.5207
  746MOL0     C  580   5.814  -0.232  -0.063  1.1045 -0.9529  0.5723
  746MOL0     C  581   5.796  -0.369  -0.037  0.2305  0.1846  0.2121
  746MOL0     C  582   5.900  -0.446   0.015 -0.7297 -0.4004  0.6710
  746MOL0     O  583   5.885  -0.584   0.026  0.3610  0.3090 -0.0045
  746MOL0     C  584   5.993  -0.669  -0.002 -0.1427  0.0195 -1.2442
  746MOL0     C  585   5.953  -0.809  -0.034 -0.3158  0.6697  0.0369
  746MOL0     C  586   6.079  -0.893  -0.071 -0.0128 -0.3817 -0.6028
  746MOL0     C  587   6.048  -1.042  -0.076 -0.2789  0.3588  0.6498
  746MOL0     C  588   6.149  -1.114  -0.173 -0.3594 -1.1927 -0.0630
  746MOL0     C  589   6.295  -1.120  -0.110  1.2496 -0.2840  0.0665
  746MOL0     C  590   6.307  -1.230  -0.003 -0.6467  0.2315 -0.2395
  746MOL0     C  591   6.301  -1.384  -0.053 -0.2690  0.3620  0.2614
  746MOL0     N  592   6.409  -1.424  -0.143 -0.1028 -0.3872  0.4877
  746MOL0     C  593   6.447  -1.551  -0.167 -0.5189 -0.4010 -0.2141
  746MOL0     C  594   6.550  -1.547  -0.257  0.6751  0.1648 -0.0483
  746MOL0     C  595   6.648  -1.638  -0.311  0.3055 -0.5727  0.4837
  746MOL0     C  596   6.794  -1.599  -0.280  0.0198 -1.3552  0.5676
  746MOL0     C  597   6.899  -1.710  -0.280  0.0663  0.8087 -0.6816
  746MOL0     C  598   6.883  -1.822  -0.176 -0.3087 -0.1216  0.5305
  746MOL0     O  599   6.884  -1.777  -0.039  1.6947 -0.5129 -0.2980
  746MOL0     C  600   6.978  -1.682   0.003 -0.3329 -0.1552  0.6791
  746MOL0     C  601   7.107  -1.683  -0.036 -1.0253 -0.3316 -0.0582
  746MOL0     C  602   7.203  -1.596   0.017  0.0130  0.0168 -0.2272
  746MOL0     C  603   7.163  -1.487   0.093 -0.4522 -0.0658  0.2230
  746MOL0     C  604   7.260  -1.390   0.133 -0.9206  0.2262  0.3287
  746MOL0     O  605   7.379  -1.393   0.067  0.1705 -0.3154 -0.4728
  746MOL0     C  606   7.465  -1.294   0.087 -0.5921  0.2129  0.3941
  746MOL0     C  607   7.443  -1.170   0.026 -0.9050  0.1012 -0.0593
  746MOL0     C  608   7.532  -1.068   0.072  0.7093 -0.2978  0.2949
  746MOL0     C  609   7.642  -1.089   0.160 -0.4776  0.9335  0.0751
  746MOL0     O  610   7.706  -0.990   0.220  0.2531  0.6341  1.3192
  746MOL0     C  611   7.669  -0.855   0.199  0.3936  0.2819  0.3775
  746MOL0     C  612   7.785  -0.750   0.228 -0.3178 -0.9592  0.4451
  746MOL0     C  613   7.780  -0.620   0.147  0.0496  0.7879  0.6823
  746MOL0     C  614   7.859  -0.508   0.211  0.1001 -0.4102 -0.0831
  746MOL0     C  615   7.849  -0.376   0.135  0.1245 -0.2176 -0.1428
  746MOL0     C  616   7.914  -0.376  -0.003 -0.1938  0.2800  0.3432
  746MOL0     C  617   7.909  -0.236  -0.068  0.0269  0.6534 -0.0004
  746MOL0     C  618   7.993  -0.220  -0.187 -0.8482 -0.3886  0.9045
  746MOL0    Cl  619   8.155  -0.167  -0.123  0.1639 -0.0912 -0.1894
  746MOL0     C  620   7.671  -1.216   0.193  0.4811  1.3862 -0.0321
  746MOL0     C  621   7.581  -1.318   0.152  0.0423 -0.4585 -0.7402
  746MOL0     O  622   7.230  -1.313   0.220  0.2291 -0.2598  0.0813
  746MOL0     C  623   7.029  -1.485   0.130  0.9731  0.2568  0.0142
  746MOL0     C  624   6.937  -1.591   0.088  0.7226  0.2645  0.5614
  746MOL0     N  625   6.568  -1.415  -0.288 -0.5384 -0.6741  0.1118
  746MOL0     N  626   6.480  -1.340  -0.230  0.5388  0.9017  0.3045
  746MOL0     C  627   6.019  -0.379   0.054 -0.2113  0.2211  0.1360
  746MOL0     C  628   6.039  -0.243   0.023  0.4340 -0.1756 -0.7104
  746MOL0     C  629   6.023   0.189  -0.072  0.0181  0.7544 -0.0797
  746MOL0     C  630   5.955   0.218  -0.188 -0.4390  0.3566  0.3797
  746MOL0     C  631   5.974   0.325  -0.269 -0.1905 -0.4297  0.6351
  746MOL0     C  632   6.062   0.424  -0.240 -0.3314 -0.6000 -0.4781
  746MOL0     O  633   6.094   0.538  -0.314 -0.4729  0.0838  0.1089
  746MOL0     C  634   6.011   0.571  -0.422  0.5939  1.0565 -0.5668
  746MOL0     C  635   5.864   0.622  -0.387 -0.4035 -0.0780  0.1306
  746MOL0     C  636   5.805   0.715  -0.495 -0.1076 -0.9874 -0.6477
  746MOL0     C  637   5.816   0.661  -0.640  0.1926 -0.0154 -0.5447
  746MOL0     C  638   5.782   0.762  -0.744 -0.2079 -0.2520 -0.4530
  746MOL0     C  639   5.726   0.843  -0.813 -0.7665 -0.5182 -0.5517
  746MOL0     C  640   6.131   0.411  -0.112 -0.5969  0.3916 -0.0285
  746MOL0     C  641   6.113   0.299  -0.035  0.0612 -0.8731  0.1053
  746MOL0     C  642   6.177   0.307   0.107  1.1044  0.1524 -0.0556
  746MOL0     H  643   5.746  -0.162  -0.111  1.8586 -0.6051 -0.0130
  746MOL0     H  644   5.703  -0.418  -0.063  0.3545 -0.8229  1.5607
  746MOL0     H  645   6.046  -0.637  -0.093 -1.7251  0.9717 -1.8894
  746MOL0     H  646   6.063  -0.666   0.081 -0.4248  2.7113 -1.0018
  746MOL0     H  647   5.876  -0.804  -0.111 -2.4779  1.8592  2.1432
  746MOL0     H  648   5.894  -0.839   0.053  0.8768  2.3612  1.5003
  746MOL0     H  649   6.154  -0.893   0.009 -0.2563 -3.1268 -0.2707
  746MOL0     H  650   6.121  -0.860  -0.167 -0.9480 -0.7094 -1.1353
  746MOL0     H  651   6.057  -1.081   0.026  0.0254  0.4860  0.6725
  746MOL0     H  652   5.946  -1.051  -0.116  0.0887 -1.0911 -0.0146
  746MOL0     H  653   6.113  -1.215  -0.198  2.0072 -1.9501 -0.6103
  746MOL0     H  654   6.148  -1.059  -0.268  1.5828 -2.8744 -1.1274
  746MOL0     H  655   6.366  -1.140  -0.191 -1.7333 -0.2811 -2.7445
  746MOL0     H  656   6.327  -1.023  -0.072  1.8765  0.0408 -1.2114
  746MOL0     H  657   6.221  -1.230   0.065 -0.5890 -3.7650  0.0729
  746MOL0     H  658   6.390  -1.209   0.065 -1.5224  0.8411  0.6808
  746MOL0     H  659   6.303  -1.446   0.037  2.9389  1.2953  0.9615
  746MOL0     H  660   6.204  -1.410  -0.098 -0.8956 -0.5933  2.0577
  746MOL0     H  661   6.410  -1.640  -0.116  0.1247 -0.2418  0.5506
  746MOL0     H  662   6.635  -1.739  -0.272 -0.1405  0.2202  2.4697
  746MOL0     H  663   6.624  -1.647  -0.418  1.9122 -4.0760  0.2652
  746MOL0     H  664   6.822  -1.533  -0.363 -3.7283  0.4008  0.5215
  746MOL0     H  665   6.806  -1.539  -0.190  1.3796 -0.2300 -0.3194
  746MOL0     H  666   7.002  -1.674  -0.285 -0.2413  1.5973 -1.5585
  746MOL0     H  667   6.895  -1.769  -0.372  0.3883 -0.9016  0.3654
  746MOL0     H  668   6.972  -1.881  -0.200 -0.4002  0.5637 -1.6916
  746MOL0     H  669   6.783  -1.863  -0.194 -0.7488  1.2477 -0.2903
  746MOL0     H  670   7.137  -1.776  -0.083 -1.2082 -0.2127 -0.4128
  746MOL0     H  671   7.308  -1.621   0.018  0.0378  0.1290 -0.0665
  746MOL0     H  672   7.358  -1.153  -0.039  0.7067  1.8874 -1.8606
  746MOL0     H  673   7.515  -0.971   0.028  0.3424  0.5196  2.1322
  746MOL0     H  674   7.656  -0.837   0.092  1.3476  2.2773  0.5512
  746MOL0     H  675   7.576  -0.828   0.251 -0.3353 -2.1617  0.4671
  746MOL0     H  676   7.775  -0.720   0.333  2.4821  4.4021 -0.4282
  746MOL0     H  677   7.886  -0.791   0.215 -0.5903 -1.3840 -0.3806
  746MOL0     H  678   7.797  -0.644   0.042 -0.5209 -1.0084  0.9623
  746MOL0     H  679   7.674  -0.596   0.154 -0.1298  0.6222 -1.0838
  746MOL0     H  680   7.965  -0.535   0.212  1.3389  3.6628 -0.2550
  746MOL0     H  681   7.823  -0.495   0.313  0.8092  1.8382 -0.0577
  746MOL0     H  682   7.903  -0.305   0.198  1.8784 -3.7606  2.7057
  746MOL0     H  683   7.745  -0.347   0.115  0.1418  0.6324  0.9058
  746MOL0     H  684   8.021  -0.398   0.008 -0.1307  1.3756  2.5158
  746MOL0     H  685   7.860  -0.443  -0.070 -0.3003 -4.1149  4.2804
  746MOL0     H  686   7.948  -0.169   0.009  0.6190 -0.9867  1.1827
  746MOL0     H  687   7.803  -0.211  -0.084  0.5944  2.5735 -1.1888
  746MOL0     H  688   7.997  -0.311  -0.247  1.0446  0.1845  0.0897
  746MOL0     H  689   7.962  -0.129  -0.239  1.4611  1.9885  3.3154
  746MOL0     H  690   7.753  -1.244   0.259  0.0289  0.2543  0.0664
  746MOL0     H  691   7.587  -1.425   0.169 -0.9983 -0.7194 -1.8555
  746MOL0     H  692   7.002  -1.399   0.190 -0.3534  1.6826 -2.4467
  746MOL0     H  693   6.840  -1.596   0.135 -0.3933  1.4413 -1.4614
  746MOL0     H  694   6.103  -0.436   0.094  0.8595  1.8079  0.2510
  746MOL0     H  695   6.139  -0.203   0.040  1.8466 -3.2924 -1.0753
  746MOL0     H  696   5.876   0.149  -0.216 -1.3823  1.5618 -0.0181
  746MOL0     H  697   5.915   0.334  -0.359  0.1358 -2.3411  0.1721
  746MOL0     H  698   6.010   0.489  -0.494 -2.1739 -3.1900  3.6825
  746MOL0     H  699   6.061   0.660  -0.461 -0.2596  2.5811  1.6043
  746MOL0     H  700   5.846   0.665  -0.288  0.7632  0.7073  0.0214
  746MOL0     H  701   5.808   0.529  -0.401  0.7099 -0.6744 -0.4718
  746MOL0     H  702   5.862   0.808  -0.493 -0.6677 -0.6524 -0.2591
  746MOL0     H  703   5.706   0.752  -0.469  0.5457  1.5605 -1.5669
  746MOL0     H  704   5.919   0.629  -0.660 -0.5015 -1.6905 -1.7372
  746MOL0     H  705   5.752   0.573  -0.651 -0.4652  0.4970 -0.9120
  746MOL0     H  706   5.672   0.913  -0.874 -3.2788 -1.2549  0.6583
  746MOL0     H  707   6.197   0.491  -0.081 -0.0043 -0.2342  0.3779
  746MOL0     H  708   6.116   0.287   0.195  1.0207  1.6033  0.2369
  746MOL0     H  709   6.254   0.229   0.117 -0.8495 -1.7272  1.2182
  746MOL0     H  710   6.223   0.404   0.124  0.0736  0.5754  0.4181
  747MOL0     O  711   6.445   5.128   5.141  0.8880 -0.4856  0.3022
  747MOL0     C  712   6.467   5.198   5.047  0.7056  0.0315 -0.1026
  747MOL0     O  713   6.586   5.261   5.021  0.4544  0.4557  0.1264
  747MOL0     C  714   6.706   5.218   5.068  0.7849 -0.2075 -0.6730
  747MOL0     C  715   6.737   5.100   5.140  0.0509  0.6152  0.2823
  747MOL0     C  716   6.870   5.079   5.191 -0.6171 -0.2038 -0.9522
  747MOL0     C  717   6.974   5.173   5.173  0.5935 -0.4338 -0.3007
  747MOL0     O  718   7.105   5.152   5.197  0.5732  0.8730  0.3548
  747MOL0     C  719   7.150   5.042   5.282 -0.0393 -0.4860 -0.1008
  747MOL0     C  720   7.258   5.098   5.377 -0.1102  0.3425 -0.4526
  747MOL0     C  721   7.383   5.169   5.303 -0.3871  0.6941  0.1937
  747MOL0     C  722   7.465   5.259   5.402 -0.0558  0.2402 -0.7717
  747MOL0     C  723   7.575   5.353   5.333  0.0990 -0.4375 -0.6212
  747MOL0     C  724   7.718   5.326   5.404  2.0220  0.0715  0.1395
  747MOL0     C  725   7.826   5.398   5.326  0.1473  0.5241 -0.5335
  747MOL0     C  726   7.857   5.330   5.193 -0.6446 -0.3856  0.2594
  747MOL0     N  727   7.965   5.404   5.128 -1.2565  0.2299 -0.1096
  747MOL0     C  728   7.948   5.513   5.051 -0.3786 -0.1596  0.0670
  747MOL0     C  729   8.067   5.532   4.991  0.7660 -0.5661 -0.7612
  747MOL0     C  730   8.090   5.643   4.885 -0.1437 -0.0330 -1.0218
  747MOL0     C  731   8.130   5.782   4.949  1.1989 -0.4085  0.4972
  747MOL0     C  732   8.272   5.787   5.002  0.1331 -0.9223  1.4353
  747MOL0     C  733   8.293   5.716   5.133  0.5282  0.3764  0.5991
  747MOL0     O  734   8.414   5.760   5.201 -0.0641 -0.1356  0.2799
  747MOL0     C  735   8.433   5.710   5.327  0.2689 -0.2035  0.1332
  747MOL0     C  736   8.352   5.621   5.395 -0.6618 -0.6017 -0.6936
  747MOL0     C  737   8.388   5.575   5.521 -0.5029 -0.2589  0.5808
  747MOL0     C  738   8.509   5.620   5.591 -0.1694  0.2549  0.5099
  747MOL0     C  739   8.549   5.563   5.723  0.0282  0.6175  0.4126
  747MOL0     O  740   8.660   5.608   5.787 -0.0593  0.0745  0.2079
  747MOL0     C  741   8.650   5.607   5.931  0.9733  0.5623 -0.2278
  747MOL0     C  742   8.772   5.570   5.994 -0.1733  0.5702 -0.7075
  747MOL0     C  743   8.783   5.567   6.135 -0.2246 -0.5991 -0.0481
  747MOL0     C  744   8.669   5.606   6.204  0.6584 -0.2262 -0.4351
  747MOL0     O  745   8.653   5.588   6.343 -0.0219 -0.2298 -0.2473
  747MOL0     C  746   8.770   5.583   6.432 -0.5897  0.4112 -0.3393
  747MOL0     C  747   8.749   5.516   6.565 -0.1018 -0.8172 -1.5008
  747MOL0     C  748   8.722   5.616   6.684  0.4835  1.0900 -0.1177
  747MOL0     C  749   8.744   5.543   6.813  1.2672 -0.8459 -0.3603
  747MOL0     C  750   8.691   5.613   6.935  0.0360 -0.4139 -0.5153
  747MOL0     C  751   8.789   5.640   7.052  0.6627 -0.5943  0.2941
  747MOL0     C  752   8.873   5.518   7.097 -0.6246 -0.1732 -0.6701
  747MOL0     C  753   8.963   5.543   7.222  0.1945 -0.9047  0.9386
  747MOL0    Cl  754   9.110   5.646   7.211  0.5640 -0.4407 -0.0360
  747MOL0     C  755   8.555   5.669   6.136  0.7877  0.5940  0.4299
  747MOL0     C  756   8.538   5.670   6.004  0.2468  0.7902  0.6896
  747MOL0     O  757   8.472   5.483   5.773 -1.3721  0.2060  0.5853
  747MOL0     C  758   8.588   5.711   5.518 -0.6541  0.5234  0.3068
  747MOL0     C  759   8.549   5.756   5.397  0.6352  0.1279  0.2910
  747MOL0     N  760   8.148   5.423   5.026 -0.4709 -0.4740 -0.1543
  747MOL0     N  761   8.085   5.345   5.105  0.2175  0.4548  0.3732
  747MOL0     C  762   6.942   5.265   5.075 -0.2313 -0.3663  0.5149
  747MOL0     C  763   6.811   5.298   5.035 -0.0084  0.0116  0.5400
  747MOL0     C  764   6.339   5.248   4.974 -0.0277 -0.3202  0.6861
  747MOL0     C  765   6.338   5.383   4.935  0.0586 -0.5387 -0.4891
  747MOL0     C  766   6.225   5.438   4.863  0.3299  0.1964 -0.5729
  747MOL0     C  767   6.115   5.365   4.821  0.7952  0.2854  0.0890
  747MOL0     O  768   6.000   5.431   4.770 -0.5783  0.2872 -0.2232
  747MOL0     C  769   5.940   5.359   4.652 -0.3684 -0.3696 -0.0172
  747MOL0     C  770   5.943   5.477   4.548 -0.4265  0.0313 -0.0063
  747MOL0     C  771   6.083   5.523   4.501 -0.2284  0.3705  0.2427
  747MOL0     C  772   6.091   5.624   4.384 -0.3997 -0.1114 -0.6446
  747MOL0     C  773   6.219   5.689   4.385  0.0904 -0.4787  0.3587
  747MOL0     C  774   6.332   5.740   4.375 -0.5304 -0.0368 -0.4392
  747MOL0     C  775   6.122   5.229   4.862 -0.2189  0.0111  0.9261
  747MOL0     C  776   6.221   5.176   4.938 -2.1868  0.2066 -0.6561
  747MOL0     C  777   6.209   5.029   4.979 -1.2558 -0.6196  0.5160
  747MOL0     H  778   6.673   5.015   5.161  1.2441 -0.0827  1.2655
  747MOL0     H  779   6.886   4.989   5.250  1.1297  1.3852  1.1568
  747MOL0     H  780   7.065   5.013   5.344  0.0782 -2.9854 -0.9944
  747MOL0     H  781   7.198   4.957   5.233  1.0448  1.3763 -2.5405
  747MOL0     H  782   7.299   5.017   5.438  0.8880  0.3179 -1.1431
  747MOL0     H  783   7.201   5.171   5.436 -2.9510  0.1559 -2.7484
  747MOL0     H  784   7.349   5.227   5.217 -2.0435  0.2888  0.5391
  747MOL0     H  785   7.454   5.093   5.271 -1.5596 -0.6348  0.6195
  747MOL0     H  786   7.390   5.325   5.447  1.2780  2.7398 -1.9776
  747MOL0     H  787   7.513   5.197   5.479 -1.0178 -1.0790 -1.1967
  747MOL0     H  788   7.580   5.332   5.226 -1.4411  1.2673 -1.0798
  747MOL0     H  789   7.535   5.455   5.336 -0.7008 -0.7482  1.5053
  747MOL0     H  790   7.722   5.360   5.508 -1.3260 -0.2689  0.4839
  747MOL0     H  791   7.732   5.217   5.401 -0.8569 -0.3707 -0.6912
  747MOL0     H  792   7.909   5.395   5.397 -2.1023 -1.4381  2.2283
  747MOL0     H  793   7.790   5.500   5.310  0.5009  0.5709 -1.0756
  747MOL0     H  794   7.881   5.224   5.206  1.8268  0.3025  1.9977
  747MOL0     H  795   7.774   5.332   5.122 -0.2965  0.6385 -0.1384
  747MOL0     H  796   7.857   5.568   5.028 -0.3392  0.5970  1.6154
  747MOL0     H  797   8.175   5.613   4.824  0.8917  2.2364 -0.7734
  747MOL0     H  798   7.999   5.649   4.824 -0.8544 -1.8871 -0.2422
  747MOL0     H  799   8.120   5.860   4.873  1.2159  1.4973  2.3503
  747MOL0     H  800   8.053   5.807   5.022 -1.4936 -0.5890 -2.0888
  747MOL0     H  801   8.302   5.892   5.001 -3.1945  0.1821 -0.6534
  747MOL0     H  802   8.337   5.745   4.925  0.4134 -0.0659  1.1906
  747MOL0     H  803   8.304   5.609   5.112 -1.4458  0.5520 -1.6343
  747MOL0     H  804   8.207   5.739   5.197 -0.2445  1.3687 -0.7588
  747MOL0     H  805   8.274   5.564   5.347  0.7396 -1.6884 -1.7866
  747MOL0     H  806   8.321   5.502   5.565 -2.6140 -0.7977 -3.1490
  747MOL0     H  807   8.847   5.545   5.920 -0.7592  3.0229 -2.2595
  747MOL0     H  808   8.873   5.517   6.169  0.6114 -1.3144 -3.0187
  747MOL0     H  809   8.858   5.540   6.383 -0.2086  0.8225 -0.0283
  747MOL0     H  810   8.805   5.686   6.439 -1.0183  0.9076 -3.6414
  747MOL0     H  811   8.668   5.443   6.553 -1.7219  0.8864 -1.3556
  747MOL0     H  812   8.845   5.469   6.589  1.3809  3.0055  1.0418
  747MOL0     H  813   8.785   5.706   6.677 -1.2731  2.4814  1.0412
  747MOL0     H  814   8.619   5.648   6.671  0.1836  0.7190  1.1703
  747MOL0     H  815   8.852   5.529   6.826  1.5045  1.6486  0.8549
  747MOL0     H  816   8.687   5.450   6.808 -4.2356  1.8390  2.9482
  747MOL0     H  817   8.610   5.546   6.967 -0.2844 -0.4902 -1.4619
  747MOL0     H  818   8.653   5.712   6.909  4.8433  1.0436 -3.2194
  747MOL0     H  819   8.859   5.716   7.018  0.9875 -1.7299 -1.7170
  747MOL0     H  820   8.734   5.684   7.136 -0.9882 -1.1470 -0.4681
  747MOL0     H  821   8.938   5.481   7.017  0.0812 -0.7277  0.1369
  747MOL0     H  822   8.810   5.434   7.127 -0.1313  0.3029  1.9621
  747MOL0     H  823   8.894   5.594   7.291 -2.7121  2.0101 -3.5844
  747MOL0     H  824   8.991   5.446   7.264  0.3570 -2.4324 -2.4284
  747MOL0     H  825   8.484   5.709   6.208  1.8538 -0.7879  2.3709
  747MOL0     H  826   8.443   5.689   5.956  0.7004 -1.5244 -1.3593
  747MOL0     H  827   8.684   5.735   5.562  0.2622  0.4265 -1.5310
  747MOL0     H  828   8.608   5.835   5.352  1.1222  2.0985  3.9300
  747MOL0     H  829   7.021   5.326   5.033  0.0416 -0.8728  0.2710
  747MOL0     H  830   6.785   5.381   4.970 -0.9082  0.3762  1.3406
  747MOL0     H  831   6.413   5.459   4.956  0.0979 -1.0189  1.2134
  747MOL0     H  832   6.230   5.543   4.835 -0.2964  0.3851 -0.0260
  747MOL0     H  833   5.838   5.325   4.673 -0.6606 -0.1509 -0.9884
  747MOL0     H  834   5.998   5.277   4.608 -1.5154  0.0704 -2.5446
  747MOL0     H  835   5.879   5.557   4.586 -1.9378 -0.3997 -1.4683
  747MOL0     H  836   5.879   5.453   4.462 -2.5710 -1.1713  1.8187
  747MOL0     H  837   6.150   5.443   4.469  0.3823  1.0674 -0.2398
  747MOL0     H  838   6.131   5.571   4.587  1.0966  1.9205 -1.2848
  747MOL0     H  839   6.081   5.577   4.286 -2.7448  0.7421 -0.8832
  747MOL0     H  840   6.009   5.696   4.396 -0.1737 -0.2408  2.7856
  747MOL0     H  841   6.436   5.768   4.370 -0.7771  1.2113  0.8514
  747MOL0     H  842   6.045   5.158   4.835 -1.1831  1.1676  0.5414
  747MOL0     H  843   6.276   4.958   4.931 -0.7122 -0.9332  1.7174
  747MOL0     H  844   6.229   5.027   5.086  0.5435 -0.5585  0.1974
  747MOL0     H  845   6.114   4.985   4.947  0.1615 -3.8598  0.4363
  748MOL0     O  846   4.947   8.713   4.925  0.9600  0.6472  0.5953
  748MOL0     C  847   4.943   8.687   5.048  0.2442  0.7541  0.4790
  748MOL0     O  848   4.972   8.772   5.157  0.5589  0.5873  0.6488
  748MOL0     C  849   5.018   8.897   5.147  1.2558  0.2994 -0.2091
  748MOL0     C  850   5.105   8.953   5.057 -0.3277 -0.1874  0.2697
  748MOL0     C  851   5.146   9.084   5.063  0.9786 -0.7657 -0.9422
  748MOL0     C  852   5.105   9.167   5.168  0.4780  0.4042  0.6338
  748MOL0     O  853   5.139   9.299   5.189  0.5177 -0.1949  0.4314
  748MOL0     C  854   5.218   9.380   5.105  0.0663  0.0394  0.2847
  748MOL0     C  855   5.128   9.480   5.038 -0.8521  0.1317  1.0401
  748MOL0     C  856   5.210   9.580   4.946  0.2239 -0.2923  0.0859
  748MOL0     C  857   5.100   9.668   4.871  0.1776  0.4219 -0.3100
  748MOL0     C  858   5.172   9.762   4.778  0.1502  0.5861 -0.4158
  748MOL0     C  859   5.227   9.875   4.857 -1.1646 -0.4592  0.1760
  748MOL0     C  860   5.319   9.967   4.776 -0.1843 -0.4848 -0.0282
  748MOL0     C  861   5.448   9.892   4.744 -0.6387  0.8182 -0.5977
  748MOL0     N  862   5.552   9.994   4.703 -1.2827  0.0729  0.0834
  748MOL0     C  863   5.547  10.077   4.589 -0.4181  0.2048  0.3376
  748MOL0     C  864   5.642  10.163   4.604 -0.3978 -0.4067  0.5554
  748MOL0     C  865   5.667  10.283   4.517 -0.0564  0.3896 -0.2949
  748MOL0     C  866   5.725  10.404   4.599 -0.3489  0.1219 -0.5789
  748MOL0     C  867   5.766  10.507   4.506  0.2789 -0.1908 -0.1726
  748MOL0     C  868   5.823  10.623   4.585  0.1369 -0.2444  0.7890
  748MOL0     O  869   5.856  10.734   4.488  0.1669 -0.2152  0.4603
  748MOL0     C  870   5.985  10.751   4.443  0.0028  0.1453 -0.7773
  748MOL0     C  871   6.013  10.879   4.399 -0.8948  0.0538  0.0100
  748MOL0     C  872   6.134  10.902   4.342 -0.1616 -0.1376  0.8398
  748MOL0     C  873   6.246  10.814   4.357  0.9155  0.1687  0.6835
  748MOL0     C  874   6.379  10.845   4.311 -0.2402 -0.7330 -0.2566
  748MOL0     O  875   6.490  10.760   4.348  0.3658  0.4221 -0.1390
  748MOL0     C  876   6.610  10.796   4.288 -0.5430 -0.7004 -0.5643
  748MOL0     C  877   6.696  10.902   4.315  0.1569  0.1263  0.0694
  748MOL0     C  878   6.794  10.937   4.224  1.0769  0.9072 -0.4506
  748MOL0     C  879   6.835  10.842   4.127 -0.2421 -0.2276  0.6617
  748MOL0     O  880   6.952  10.865   4.051 -0.5158  0.5278 -0.2662
  748MOL0     C  881   7.028  10.988   4.052 -0.6003  0.6217 -0.5133
  748MOL0     C  882   7.140  10.976   3.953 -0.5021  1.2918 -0.4206
  748MOL0     C  883   7.261  11.042   4.004  0.5833  0.5992 -0.3373
  748MOL0     C  884   7.264  11.199   3.991 -0.9889  0.1185 -0.5161
  748MOL0     C  885   7.379  11.276   4.046 -0.6751 -0.2661 -0.0206
  748MOL0     C  886   7.380  11.294   4.199 -0.2866 -0.8508 -0.0980
  748MOL0     C  887   7.492  11.397   4.243 -0.5551 -0.8069  0.0249
  748MOL0     C  888   7.456  11.436   4.394  0.6268 -0.3925 -0.2281
  748MOL0    Cl  889   7.611  11.456   4.500  0.5029 -0.0193  0.1201
  748MOL0     C  890   6.765  10.732   4.100  0.8567  0.5751 -0.5590
  748MOL0     C  891   6.647  10.710   4.182 -0.5861  0.6894  0.7223
  748MOL0     O  892   6.394  10.955   4.264  0.2378  0.5289  0.1873
  748MOL0     C  893   6.221  10.683   4.404 -1.0137  0.0913 -0.1195
  748MOL0     C  894   6.083  10.646   4.446 -0.8925  0.2890  0.2076
  748MOL0     N  895   5.713  10.136   4.714  1.2428 -0.1858  0.3619
  748MOL0     N  896   5.665  10.035   4.772 -0.2318  0.5477 -0.3478
  748MOL0     C  897   5.011   9.115   5.251  1.1851  0.7976  0.4043
  748MOL0     C  898   4.966   8.980   5.242 -0.7071  0.2077 -0.5091
  748MOL0     C  899   4.893   8.561   5.094 -0.3148 -0.7668 -0.5257
  748MOL0     C  900   4.801   8.561   5.199 -0.1183  1.1050  0.9735
  748MOL0     C  901   4.762   8.447   5.256 -0.0855  0.4461  0.7844
  748MOL0     C  902   4.799   8.322   5.202 -0.0220 -0.2483  0.7478
  748MOL0     O  903   4.733   8.215   5.254  0.1384  0.0795 -0.2914
  748MOL0     C  904   4.813   8.097   5.262 -0.1336 -0.1259  0.3690
  748MOL0     C  905   4.896   8.106   5.383 -0.8546  0.4565 -0.0572
  748MOL0     C  906   4.832   8.057   5.512 -0.4805 -0.0109 -1.0664
  748MOL0     C  907   4.923   8.071   5.628  0.1416 -0.0632 -0.9318
  748MOL0     C  908   4.833   8.036   5.738  0.0945 -0.1262 -0.7050
  748MOL0     C  909   4.785   7.999   5.843  0.3112 -0.1551  0.4882
  748MOL0     C  910   4.904   8.318   5.098  0.4468 -1.0533 -0.1715
  748MOL0     C  911   4.948   8.438   5.045  0.5661  0.1749  0.0093
  748MOL0     C  912   5.034   8.420   4.926  0.4502 -0.1760 -0.5267
  748MOL0     H  913   5.149   8.892   4.978 -0.1728  0.8013 -0.4263
  748MOL0     H  914   5.211   9.121   4.984  1.0029 -1.8639 -1.4529
  748MOL0     H  915   5.308   9.424   5.149  0.2298  2.3659 -2.0783
  748MOL0     H  916   5.255   9.324   5.018 -0.0226  2.2463 -1.2673
  748MOL0     H  917   5.079   9.543   5.113 -1.8151  1.2095 -0.4501
  748MOL0     H  918   5.054   9.415   4.990  3.6851 -2.7819 -2.9641
  748MOL0     H  919   5.272   9.528   4.872  0.5101 -3.9098  2.6162
  748MOL0     H  920   5.266   9.642   5.017  1.1667 -2.7963  1.6863
  748MOL0     H  921   5.022   9.612   4.818  0.2819 -0.4711  0.4512
  748MOL0     H  922   5.040   9.720   4.946 -1.8326  0.3256 -1.7673
  748MOL0     H  923   5.253   9.700   4.739 -0.4500 -1.7502  1.8000
  748MOL0     H  924   5.113   9.805   4.697 -0.7446 -3.4841 -2.1681
  748MOL0     H  925   5.144   9.938   4.892 -0.6247 -0.3589  1.3321
  748MOL0     H  926   5.275   9.844   4.950 -1.7774 -3.0103 -0.2898
  748MOL0     H  927   5.349  10.048   4.844 -2.0747 -1.9194  2.6980
  748MOL0     H  928   5.263  10.018   4.697  1.3076  0.8927 -0.2556
  748MOL0     H  929   5.476   9.835   4.833 -1.1332  1.7766  0.1936
  748MOL0     H  930   5.431   9.816   4.668 -0.7671 -0.4958  0.6938
  748MOL0     H  931   5.469  10.092   4.515  0.8338  2.0987 -0.6578
  748MOL0     H  932   5.732  10.242   4.439 -0.8962  0.0803 -0.8468
  748MOL0     H  933   5.584  10.329   4.464  1.3497  1.5743 -1.5485
  748MOL0     H  934   5.647  10.447   4.663 -1.1498 -1.5995 -0.3620
  748MOL0     H  935   5.809  10.378   4.664  0.3091  0.0920 -1.4153
  748MOL0     H  936   5.681  10.543   4.447  1.0772 -0.2405 -1.3693
  748MOL0     H  937   5.839  10.474   4.433  1.3850 -1.5538  1.4604
  748MOL0     H  938   5.909  10.582   4.639  2.5455  1.0537 -1.7881
  748MOL0     H  939   5.756  10.662   4.662 -0.7879  3.2653 -1.5207
  748MOL0     H  940   5.942  10.962   4.401 -0.1235  0.7446 -0.4332
  748MOL0     H  941   6.163  10.993   4.291  2.0689 -0.8268  0.7498
  748MOL0     H  942   6.664  10.968   4.395  0.1892  2.0685 -1.4384
  748MOL0     H  943   6.862  11.020   4.236  2.1433 -0.3057  2.9115
  748MOL0     H  944   6.964  11.064   4.006  1.8902  1.4439 -2.8951
  748MOL0     H  945   7.056  11.019   4.153 -0.0088  1.2360 -0.8637
  748MOL0     H  946   7.162  10.869   3.943 -1.0254  1.0677  0.6282
  748MOL0     H  947   7.110  11.013   3.855  3.1307  2.4569 -1.2564
  748MOL0     H  948   7.276  10.995   4.102  1.8418 -0.5611 -1.0600
  748MOL0     H  949   7.344  11.010   3.940  0.2148  1.1739 -1.1218
  748MOL0     H  950   7.174  11.249   4.028 -1.5730 -1.9538  0.9976
  748MOL0     H  951   7.259  11.209   3.882  0.4469  1.0661 -0.5289
  748MOL0     H  952   7.382  11.378   4.005  2.8321 -0.5511 -0.8147
  748MOL0     H  953   7.468  11.222   4.013 -0.5457  1.2995 -2.5435
  748MOL0     H  954   7.285  11.321   4.245 -1.1570 -3.4347 -0.2081
  748MOL0     H  955   7.409  11.205   4.255 -0.2727  0.2183  1.6857
  748MOL0     H  956   7.493  11.490   4.187  3.6948  0.9890  2.5989
  748MOL0     H  957   7.591  11.350   4.241  0.3383  1.0321 -0.5232
  748MOL0     H  958   7.394  11.527   4.388  1.0398 -0.1807 -4.3257
  748MOL0     H  959   7.384  11.374   4.449  0.0712  0.5099  0.0975
  748MOL0     H  960   6.804  10.658   4.032  1.7359  2.3363 -2.0703
  748MOL0     H  961   6.586  10.626   4.150 -0.7416  1.3867 -0.9252
  748MOL0     H  962   6.303  10.612   4.394  0.8311  2.1392 -0.2662
  748MOL0     H  963   6.064  10.547   4.485  3.4400 -0.8899 -0.1529
  748MOL0     H  964   4.975   9.172   5.336 -0.3097 -0.1373  0.4486
  748MOL0     H  965   4.900   8.949   5.322 -1.0214  4.6011  1.1912
  748MOL0     H  966   4.764   8.657   5.234 -2.0051  1.5170 -1.8017
  748MOL0     H  967   4.680   8.459   5.326 -1.0835 -1.9303  0.1177
  748MOL0     H  968   4.876   8.088   5.173  1.4960 -1.1896  1.5554
  748MOL0     H  969   4.746   8.014   5.283  0.0146 -0.4220 -0.3122
  748MOL0     H  970   4.936   8.207   5.390 -0.0725  0.1664 -0.2786
  748MOL0     H  971   4.981   8.039   5.369 -1.0173 -0.4460  2.6573
  748MOL0     H  972   4.813   7.949   5.515  1.0429 -0.3048  2.3544
  748MOL0     H  973   4.743   8.118   5.532 -0.3294  0.0409 -0.5505
  748MOL0     H  974   5.012   8.008   5.627  0.0649 -0.4598  2.6800
  748MOL0     H  975   4.961   8.172   5.645 -0.9449 -0.2946  5.4905
  748MOL0     H  976   4.757   7.974   5.943 -1.8058 -0.2156 -0.0689
  748MOL0     H  977   4.928   8.223   5.050 -0.0980 -1.6927  0.7847
  748MOL0     H  978   4.971   8.404   4.837 -0.1779 -1.0612  0.0540
  748MOL0     H  979   5.104   8.501   4.906  0.5941  0.6014  2.5686
  748MOL0     H  980   5.091   8.330   4.951 -2.3287 -0.9247  4.3433
  749MOL0     O  981   8.267   9.175   7.975  0.3575 -0.0481 -0.2387
  749MOL0     C  982   8.297   9.195   8.094  0.6578  0.0371 -0.3667
  749MOL0     O  983   8.201   9.184   8.199 -0.4828 -0.1314 -0.5156
  749MOL0     C  984   8.068   9.156   8.192 -0.2114  0.1214 -0.0131
  749MOL0     C  985   8.003   9.100   8.304  0.4471  0.1253  0.2223
  749MOL0     C  986   7.868   9.071   8.311  0.8723  0.5180  1.2448
  749MOL0     C  987   7.789   9.096   8.199 -0.1628 -0.1282  0.2149
  749MOL0     O  988   7.664   9.037   8.208 -0.7846  0.1787  0.1118
  749MOL0     C  989   7.565   9.133   8.193 -0.8500  0.1042  0.4117
  749MOL0     C  990   7.480   9.130   8.320 -0.3357  0.5199  0.1064
  749MOL0     C  991   7.357   9.217   8.312 -0.3350 -0.2480 -0.4296
  749MOL0     C  992   7.288   9.199   8.456  0.3784 -0.4885 -0.8548
  749MOL0     C  993   7.160   9.289   8.466 -0.2611  0.0010 -0.3614
  749MOL0     C  994   7.200   9.435   8.442  0.6986 -0.0761 -0.0137
  749MOL0     C  995   7.072   9.516   8.480 -0.2716  0.7784  0.5561
  749MOL0     C  996   7.097   9.666   8.464 -0.2522 -0.1912 -0.8318
  749MOL0     N  997   7.066   9.728   8.329  0.3869 -0.3035  0.0910
  749MOL0     C  998   6.993   9.682   8.223  0.3707  0.6288  0.4397
  749MOL0     C  999   6.972   9.778   8.139 -0.2964  0.1962 -0.7177
  749MOL0     C 1000   6.905   9.777   8.010 -0.5688 -1.0628  0.3784
  749MOL0     C 1001   6.901   9.908   7.919  0.7609  0.0655  0.4582
  749MOL0     C 1002   6.791   9.895   7.813 -0.6199 -1.0256  0.5511
  749MOL0     C 1003   6.817   9.992   7.702  0.5609 -0.4014  1.1960
  749MOL0     O 1004   6.862  10.121   7.752  0.1296  0.5965 -0.3146
  749MOL0     C 1005   6.983  10.171   7.714 -0.2336 -0.3408  0.0770
  749MOL0     C 1006   7.065  10.244   7.802  0.5794  0.0995  0.0164
  749MOL0     C 1007   7.177  10.310   7.768 -0.5644  0.4239  1.0240
  749MOL0     C 1008   7.235  10.266   7.643 -0.9283 -0.9604 -0.2767
  749MOL0     C 1009   7.365  10.317   7.603  0.5566 -0.5921 -0.3367
  749MOL0     O 1010   7.417  10.261   7.492 -0.3369  0.5602 -0.1273
  749MOL0     C 1011   7.552  10.278   7.460  0.0813 -0.8571  0.0182
  749MOL0     C 1012   7.609  10.395   7.422 -1.0005  0.5150 -0.1952
  749MOL0     C 1013   7.746  10.399   7.388 -0.5430 -0.0151 -0.0519
  749MOL0     C 1014   7.819  10.281   7.377  0.5086 -0.4167 -0.7397
  749MOL0     O 1015   7.956  10.286   7.341 -0.1080  0.7813  0.4181
  749MOL0     C 1016   8.014  10.178   7.260  1.2127  0.4520 -0.3199
  749MOL0     C 1017   8.153  10.235   7.227 -0.3249 -0.5090 -0.1101
  749MOL0     C 1018   8.139  10.350   7.127 -0.2609 -0.3877 -0.4819
  749MOL0     C 1019   8.276  10.417   7.105  0.5367  0.4656 -0.4510
  749MOL0     C 1020   8.261  10.564   7.122 -0.2061 -0.2246 -0.1719
  749MOL0     C 1021   8.381  10.638   7.057  0.2185  0.4816  0.2888
  749MOL0     C 1022   8.387  10.782   7.125  0.5773  0.5126  0.6210
  749MOL0     C 1023   8.267  10.864   7.122 -0.2988 -0.3107  0.4354
  749MOL0    Cl 1024   8.253  10.921   6.952  0.1862  0.0076  0.1713
  749MOL0     C 1025   7.769  10.159   7.411  0.6658 -0.4441 -0.1615
  749MOL0     C 1026   7.632  10.162   7.463  0.2230  0.4749 -0.7521
  749MOL0     O 1027   7.411  10.417   7.659 -0.0062 -0.1320 -0.2396
  749MOL0     C 1028   7.172  10.181   7.562  0.3505 -0.8424  0.0969
  749MOL0     C 1029   7.044  10.137   7.589  0.0717 -0.4143 -0.4513
  749MOL0     N 1030   7.036   9.893   8.197 -0.3739 -0.6219 -1.0140
  749MOL0     N 1031   7.089   9.859   8.309 -0.1062  0.3700 -0.1878
  749MOL0     C 1032   7.851   9.144   8.084 -0.1510  0.1851 -0.2943
  749MOL0     C 1033   7.985   9.182   8.077  0.3449  1.1609  0.6924
  749MOL0     C 1034   8.440   9.224   8.109 -0.7053  0.1793  0.8085
  749MOL0     C 1035   8.531   9.193   8.006 -0.1936  0.2891  0.3366
  749MOL0     C 1036   8.668   9.234   7.997  0.5362 -0.0791  0.4273
  749MOL0     C 1037   8.723   9.302   8.103  0.4774  0.5613 -0.1908
  749MOL0     O 1038   8.846   9.357   8.107 -0.3833 -0.1312 -0.3324
  749MOL0     C 1039   8.934   9.317   8.006 -0.6719 -0.8082 -0.1285
  749MOL0     C 1040   9.066   9.390   8.021 -0.1312  0.5470 -0.1611
  749MOL0     C 1041   9.064   9.540   8.062 -0.1978 -0.1713  0.1902
  749MOL0     C 1042   9.203   9.605   8.082 -0.4341  0.1237 -0.5108
  749MOL0     C 1043   9.286   9.597   7.966  0.3745 -0.0305  0.5081
  749MOL0     C 1044   9.385   9.589   7.888  0.9040 -0.6634  0.0480
  749MOL0     C 1045   8.646   9.308   8.223  0.4248  0.1929 -0.4243
  749MOL0     C 1046   8.501   9.285   8.223 -0.8604 -0.0376 -0.3377
  749MOL0     C 1047   8.412   9.333   8.334  0.2230 -0.3948 -0.7790
  749MOL0     H 1048   8.049   9.085   8.401  0.1904 -0.3228  0.2725
  749MOL0     H 1049   7.816   9.029   8.397 -0.8203  2.9793  1.5317
  749MOL0     H 1050   7.602   9.233   8.171 -0.5149 -0.4072 -1.6075
  749MOL0     H 1051   7.501   9.099   8.111  2.3876  1.6685 -3.0932
  749MOL0     H 1052   7.549   9.170   8.395 -0.6056  0.3776  0.4340
  749MOL0     H 1053   7.453   9.025   8.334  1.1231  0.3744  2.2047
  749MOL0     H 1054   7.302   9.197   8.220  0.3910  2.4303 -1.5700
  749MOL0     H 1055   7.394   9.320   8.312  0.2117 -0.3798  1.9205
  749MOL0     H 1056   7.265   9.092   8.464 -0.4055 -0.3322 -0.9143
  749MOL0     H 1057   7.354   9.241   8.532  0.8297  0.3935 -1.7018
  749MOL0     H 1058   7.076   9.276   8.397  1.0063 -1.7057 -1.6612
  749MOL0     H 1059   7.118   9.276   8.566 -0.0543  2.1146  0.0572
  749MOL0     H 1060   7.291   9.471   8.490  0.9319 -0.4287 -0.1880
  749MOL0     H 1061   7.214   9.455   8.335 -0.7607  0.0322 -0.2072
  749MOL0     H 1062   7.059   9.498   8.587 -0.1604 -0.2502  0.4033
  749MOL0     H 1063   6.978   9.488   8.431 -0.0225 -1.3775  1.1993
  749MOL0     H 1064   7.037   9.709   8.543 -0.3482  2.7579 -2.3637
  749MOL0     H 1065   7.199   9.681   8.502 -1.3794 -0.7711  2.7389
  749MOL0     H 1066   6.947   9.584   8.211  4.7007 -1.5229 -0.7159
  749MOL0     H 1067   6.948   9.704   7.941  0.2023 -0.3002  0.0349
  749MOL0     H 1068   6.805   9.746   8.042 -0.9277 -0.1945  0.1330
  749MOL0     H 1069   6.879   9.991   7.987  0.1846 -2.3933  3.5097
  749MOL0     H 1070   7.001   9.926   7.879  0.0364  1.8382 -0.6492
  749MOL0     H 1071   6.698   9.937   7.854  1.2379  4.1131  0.2057
  749MOL0     H 1072   6.765   9.793   7.783 -0.3829 -1.0371  0.3878
  749MOL0     H 1073   6.726  10.010   7.644 -0.3477  0.2644  2.7375
  749MOL0     H 1074   6.900   9.954   7.642  2.7195  1.6744  2.6984
  749MOL0     H 1075   7.042  10.250   7.908  2.7531 -1.8499  0.6984
  749MOL0     H 1076   7.218  10.383   7.837  3.1056  1.1478 -1.6139
  749MOL0     H 1077   7.551  10.485   7.437 -1.5357  0.6528 -2.6400
  749MOL0     H 1078   7.800  10.488   7.358 -1.9983  0.8570 -0.1815
  749MOL0     H 1079   8.030  10.083   7.313 -0.9906 -0.7239 -1.5949
  749MOL0     H 1080   7.963  10.163   7.164 -0.8489  3.9971  0.0490
  749MOL0     H 1081   8.195  10.269   7.322 -0.1957  0.4645 -0.5014
  749MOL0     H 1082   8.222  10.154   7.201 -0.5557 -0.4181 -1.0193
  749MOL0     H 1083   8.107  10.308   7.031  0.5214  1.0865 -1.4337
  749MOL0     H 1084   8.062  10.424   7.153  0.4228  0.4093 -0.6676
  749MOL0     H 1085   8.307  10.387   7.005 -2.1075 -2.4242 -0.5707
  749MOL0     H 1086   8.343  10.382   7.184 -0.0535  4.9968  2.4291
  749MOL0     H 1087   8.247  10.580   7.229  1.9436  0.5842  0.0603
  749MOL0     H 1088   8.172  10.581   7.062 -1.0995 -2.1396  0.5374
  749MOL0     H 1089   8.470  10.579   7.078  1.0936  1.1721 -1.3271
  749MOL0     H 1090   8.371  10.647   6.948  0.6987  3.3261  0.3989
  749MOL0     H 1091   8.466  10.834   7.070  1.7980 -1.1194  0.7275
  749MOL0     H 1092   8.416  10.789   7.230 -2.7626  2.5318  1.5461
  749MOL0     H 1093   8.179  10.807   7.152 -0.2355 -0.7022 -0.1108
  749MOL0     H 1094   8.276  10.955   7.182 -0.6559 -0.6451  1.0100
  749MOL0     H 1095   7.823  10.067   7.395 -1.4291 -1.5308 -1.3859
  749MOL0     H 1096   7.581  10.069   7.486  0.0729  0.5197 -0.9002
  749MOL0     H 1097   7.220  10.151   7.469  2.5265 -3.2228  1.8486
  749MOL0     H 1098   7.007  10.099   7.495  0.8621 -0.3809 -0.7776
  749MOL0     H 1099   7.787   9.146   7.996 -3.0183 -1.9941  1.5558
  749MOL0     H 1100   8.028   9.222   7.986  0.1599  1.5563  0.7711
  749MOL0     H 1101   8.487   9.159   7.913  1.9455  1.4985 -1.2150
  749MOL0     H 1102   8.719   9.232   7.902 -0.2102 -3.1961 -0.0376
  749MOL0     H 1103   8.901   9.328   7.902  0.5992  1.0629 -0.3805
  749MOL0     H 1104   8.946   9.209   8.020 -1.4707 -1.0770 -1.3127
  749MOL0     H 1105   9.112   9.387   7.921 -0.2970 -0.5538 -0.2158
  749MOL0     H 1106   9.127   9.325   8.085 -2.3255 -3.2322 -1.5967
  749MOL0     H 1107   9.012   9.549   8.158 -1.7638 -2.8972 -0.2830
  749MOL0     H 1108   9.001   9.595   7.992 -1.5388  0.0585  1.5114
  749MOL0     H 1109   9.186   9.711   8.104  1.1764  0.3736 -0.4081
  749MOL0     H 1110   9.255   9.554   8.163 -0.5412  1.4618  0.4445
  749MOL0     H 1111   9.469   9.569   7.825  0.7968  3.3646 -1.6325
  749MOL0     H 1112   8.707   9.341   8.307 -1.8194  0.5863  1.1365
  749MOL0     H 1113   8.328   9.387   8.290  1.0317  1.5562 -0.0547
  749MOL0     H 1114   8.379   9.256   8.404 -0.3065  0.2289 -0.3331
  749MOL0     H 1115   8.471   9.409   8.387  0.6341 -1.6322  0.6154
  750MOL0     O 1116   5.470   6.439   6.227  0.6573  0.7041 -0.4841
  750MOL0     C 1117   5.562   6.367   6.282 -0.4662 -0.3441  0.8630
  750MOL0     O 1118   5.647   6.298   6.210  1.0294  0.3237 -0.0282
  750MOL0     C 1119   5.607   6.273   6.084 -0.7258 -0.5498  0.1321
  750MOL0     C 1120   5.530   6.158   6.068  0.7723  0.4417 -0.5518
  750MOL0     C 1121   5.477   6.131   5.941  0.1319 -0.6085 -1.2690
  750MOL0     C 1122   5.497   6.219   5.834  0.4421 -0.9974 -0.8685
  750MOL0     O 1123   5.449   6.211   5.713  0.8297 -0.1402 -0.6449
  750MOL0     C 1124   5.447   6.097   5.630  0.0467 -0.3027 -0.2930
  750MOL0     C 1125   5.301   6.083   5.584 -0.1882 -0.3382  1.0845
  750MOL0     C 1126   5.200   6.060   5.701  0.1371  0.3259  0.0389
  750MOL0     C 1127   5.198   5.909   5.750  0.2580 -0.5422  1.2167
  750MOL0     C 1128   5.096   5.865   5.839  0.4144 -0.5392 -0.1564
  750MOL0     C 1129   5.105   5.942   5.980  0.2685  0.5938 -0.0061
  750MOL0     C 1130   5.002   5.886   6.077  0.3005 -1.2799 -0.4232
  750MOL0     C 1131   5.009   5.968   6.209 -0.9622 -0.0699  0.2051
  750MOL0     N 1132   4.994   6.116   6.210 -0.6494  0.4759  0.2301
  750MOL0     C 1133   5.101   6.207   6.203  0.3854 -0.1781 -0.3607
  750MOL0     C 1134   5.044   6.319   6.159 -0.2100 -1.4351  0.4592
  750MOL0     C 1135   5.124   6.451   6.144 -0.1121 -0.0151 -0.4959
  750MOL0     C 1136   5.157   6.464   5.997 -0.4090  0.1068  0.2608
  750MOL0     C 1137   5.281   6.568   5.962  0.3695  0.1903  0.1467
  750MOL0     C 1138   5.297   6.581   5.810 -0.2731  0.5206 -0.2079
  750MOL0     O 1139   5.404   6.672   5.777  0.8370  0.0633 -0.2946
  750MOL0     C 1140   5.414   6.723   5.653 -0.3997 -0.2105  0.3153
  750MOL0     C 1141   5.511   6.820   5.631  0.3600 -0.3278  0.4381
  750MOL0     C 1142   5.524   6.885   5.501 -0.3572 -0.2481 -0.6072
  750MOL0     C 1143   5.433   6.844   5.391 -0.3798  0.4831  0.1025
  750MOL0     C 1144   5.455   6.890   5.250  0.9654  0.3391  0.3037
  750MOL0     O 1145   5.546   6.988   5.232  0.4376 -0.3102 -0.4498
  750MOL0     C 1146   5.574   7.039   5.113  0.1438 -0.2282  0.3299
  750MOL0     C 1147   5.505   7.152   5.064  0.3064 -1.1847 -0.1729
  750MOL0     C 1148   5.538   7.221   4.946  0.6549  0.2079  1.0097
  750MOL0     C 1149   5.637   7.169   4.857  1.0167 -0.4092 -0.1740
  750MOL0     O 1150   5.665   7.243   4.737  0.1331  0.0519 -0.2130
  750MOL0     C 1151   5.790   7.205   4.670  0.6592  0.5218 -0.3742
  750MOL0     C 1152   5.797   7.277   4.540 -0.3441 -0.5678  0.0493
  750MOL0     C 1153   5.934   7.296   4.479  0.0417  0.5520  0.2775
  750MOL0     C 1154   6.038   7.192   4.521 -0.7136 -0.6248  0.1258
  750MOL0     C 1155   6.168   7.197   4.430  0.8539  0.3530  0.4142
  750MOL0     C 1156   6.279   7.104   4.470 -0.1997  0.0537 -0.1826
  750MOL0     C 1157   6.416   7.154   4.398  0.6852  0.8650 -0.4632
  750MOL0     C 1158   6.542   7.113   4.458  0.1917  0.0177  0.6430
  750MOL0    Cl 1159   6.646   7.185   4.335  0.3481  0.4698  0.6540
  750MOL0     C 1160   5.707   7.053   4.903 -0.0576  0.2220 -0.3980
  750MOL0     C 1161   5.682   6.995   5.033 -0.6521 -0.4545  1.3562
  750MOL0     O 1162   5.404   6.822   5.160  0.2484  0.2602 -0.4630
  750MOL0     C 1163   5.343   6.737   5.412  0.2427 -0.0536 -0.2914
  750MOL0     C 1164   5.337   6.684   5.546  0.1231  0.1610  0.5401
  750MOL0     N 1165   4.914   6.295   6.128 -0.8640  0.5539 -0.2053
  750MOL0     N 1166   4.884   6.178   6.162  0.4316 -0.4547  0.8354
  750MOL0     C 1167   5.575   6.332   5.857 -0.3384  0.1810  0.5157
  750MOL0     C 1168   5.636   6.366   5.980  0.2394  0.0236 -0.4831
  750MOL0     C 1169   5.588   6.382   6.432  0.8193  0.2303  0.3876
  750MOL0     C 1170   5.708   6.333   6.480 -0.4778  1.3704  0.1154
  750MOL0     C 1171   5.751   6.340   6.612  0.0843 -0.0358 -0.3365
  750MOL0     C 1172   5.664   6.406   6.698  0.4123 -1.2054 -0.4554
  750MOL0     O 1173   5.716   6.427   6.827 -0.2586  0.1134  0.8340
  750MOL0     C 1174   5.649   6.495   6.932 -0.8050 -0.1107  0.2775
  750MOL0     C 1175   5.754   6.561   7.019 -1.5305 -0.0841  0.4066
  750MOL0     C 1176   5.882   6.624   6.939  0.2308 -0.5530  0.3698
  750MOL0     C 1177   5.912   6.777   6.952 -0.6505 -0.0769  0.5687
  750MOL0     C 1178   5.797   6.841   6.882 -0.5463  0.4363  0.5706
  750MOL0     C 1179   5.705   6.903   6.836 -0.1982  0.5670 -0.8458
  750MOL0     C 1180   5.538   6.451   6.663 -0.4422  1.0705  0.2546
  750MOL0     C 1181   5.502   6.440   6.526  0.6538 -0.5554  0.5822
  750MOL0     C 1182   5.358   6.471   6.491 -0.0700  0.4737  0.1057
  750MOL0     H 1183   5.499   6.098   6.153  3.0493  0.8371  0.6522
  750MOL0     H 1184   5.407   6.051   5.921 -1.0158  0.6407 -2.4745
  750MOL0     H 1185   5.510   6.120   5.543  0.4370  0.2508  0.1222
  750MOL0     H 1186   5.480   6.010   5.687 -0.0137 -0.3680 -0.3584
  750MOL0     H 1187   5.302   6.001   5.512 -0.3543  0.1328  0.5378
  750MOL0     H 1188   5.284   6.175   5.527  3.9905 -0.7222 -1.1568
  750MOL0     H 1189   5.107   6.093   5.654  2.3739  2.8439 -3.0893
  750MOL0     H 1190   5.202   6.135   5.780 -0.6287  0.7528 -0.3412
  750MOL0     H 1191   5.186   5.837   5.668 -2.9012  1.2242 -0.0408
  750MOL0     H 1192   5.298   5.898   5.793  0.9509 -0.6926 -0.3799
  750MOL0     H 1193   4.997   5.875   5.795 -0.6418  1.8954  2.4562
  750MOL0     H 1194   5.111   5.757   5.850 -0.4415 -0.6022  0.4023
  750MOL0     H 1195   5.203   5.939   6.027  0.4221  0.4070 -0.3370
  750MOL0     H 1196   5.087   6.049   5.968 -0.1206  0.8164  2.0940
  750MOL0     H 1197   5.023   5.781   6.097 -0.1429 -1.3394 -0.2629
  750MOL0     H 1198   4.902   5.889   6.032 -0.7864  0.0736  1.8928
  750MOL0     H 1199   4.922   5.926   6.260 -0.7957  1.2609  1.6597
  750MOL0     H 1200   5.102   5.932   6.253  2.3712  4.0867 -2.5804
  750MOL0     H 1201   5.205   6.198   6.232  1.8196  0.9091 -4.5363
  750MOL0     H 1202   5.066   6.538   6.175  0.6092 -0.2350  1.5971
  750MOL0     H 1203   5.208   6.457   6.212  0.3687  4.7372 -1.2120
  750MOL0     H 1204   5.186   6.369   5.951  1.9763  1.5203 -1.4081
  750MOL0     H 1205   5.066   6.507   5.955 -0.3836  0.7843  0.8736
  750MOL0     H 1206   5.372   6.540   6.016 -1.3499 -2.9048  1.7632
  750MOL0     H 1207   5.258   6.670   5.996 -1.2227  0.6974 -2.2119
  750MOL0     H 1208   5.210   6.633   5.768  1.2865  2.4324 -1.2533
  750MOL0     H 1209   5.313   6.487   5.757  0.2035  0.1836  0.5261
  750MOL0     H 1210   5.557   6.856   5.722  0.0774  0.3572  0.3167
  750MOL0     H 1211   5.591   6.971   5.497 -0.5916  0.3502  3.6111
  750MOL0     H 1212   5.419   7.186   5.120 -1.7556 -4.1993 -1.2393
  750MOL0     H 1213   5.478   7.307   4.918  0.2851 -0.9601 -2.0934
  750MOL0     H 1214   5.873   7.237   4.733 -0.2448  0.5757  0.8379
  750MOL0     H 1215   5.796   7.097   4.652 -0.8451  0.4836 -0.7705
  750MOL0     H 1216   5.732   7.215   4.478 -1.2620  0.9179 -0.5309
  750MOL0     H 1217   5.752   7.377   4.542  0.0698 -0.3818  0.3531
  750MOL0     H 1218   5.927   7.283   4.370 -0.7632 -0.8647  0.4681
  750MOL0     H 1219   5.979   7.393   4.503  2.7206 -0.1284 -1.5630
  750MOL0     H 1220   6.000   7.090   4.525  0.2774 -0.9754  1.2859
  750MOL0     H 1221   6.075   7.198   4.624  1.4203 -3.7590 -0.3365
  750MOL0     H 1222   6.200   7.301   4.432  0.9266  0.3302  0.4209
  750MOL0     H 1223   6.139   7.176   4.326 -1.9094  0.8587  1.0010
  750MOL0     H 1224   6.278   7.092   4.579 -3.9522  1.3015  0.0371
  750MOL0     H 1225   6.260   7.001   4.438 -0.0832 -0.7538  2.1110
  750MOL0     H 1226   6.415   7.262   4.378 -0.6327  0.5665 -2.3053
  750MOL0     H 1227   6.407   7.098   4.304  1.4852 -0.8074  0.4184
  750MOL0     H 1228   6.543   7.169   4.551  2.4008  4.4168 -1.7428
  750MOL0     H 1229   6.567   7.007   4.470  0.6312  0.3701  3.9783
  750MOL0     H 1230   5.785   7.017   4.836 -1.5569  0.0658 -2.1517
  750MOL0     H 1231   5.740   6.910   5.068  1.4628  0.4539  0.2357
  750MOL0     H 1232   5.277   6.693   5.338 -0.8221 -2.4863  1.9176
  750MOL0     H 1233   5.255   6.615   5.559  0.3053 -0.4514 -1.3063
  750MOL0     H 1234   5.597   6.383   5.764 -0.2674 -4.2534 -2.1979
  750MOL0     H 1235   5.707   6.443   6.008  0.5505 -0.7563  1.0042
  750MOL0     H 1236   5.779   6.291   6.410  1.8441  2.2385  1.8089
  750MOL0     H 1237   5.845   6.300   6.648  0.5323 -1.2417 -2.6279
  750MOL0     H 1238   5.580   6.434   6.991 -2.9067  2.9898  1.2740
  750MOL0     H 1239   5.592   6.578   6.889 -2.6359 -0.4523  1.9383
  750MOL0     H 1240   5.786   6.471   7.071 -2.7536 -1.7230 -1.5247
  750MOL0     H 1241   5.700   6.633   7.082 -1.5640  0.0547  0.2214
  750MOL0     H 1242   5.884   6.596   6.834  2.1033 -0.9232  0.4547
  750MOL0     H 1243   5.972   6.566   6.965  1.1408 -0.0813 -1.5923
  750MOL0     H 1244   5.919   6.800   7.059  1.6185  0.3865  0.3757
  750MOL0     H 1245   6.001   6.811   6.898 -0.0836 -0.6267  1.1332
  750MOL0     H 1246   5.620   6.953   6.792 -2.3821 -1.7268  0.5041
  750MOL0     H 1247   5.474   6.490   6.742 -2.0116  0.5126 -0.7087
  750MOL0     H 1248   5.313   6.396   6.425  1.5100 -0.7913  0.4030
  750MOL0     H 1249   5.296   6.465   6.581 -0.2256 -1.8731 -0.0949
  750MOL0     H 1250   5.335   6.568   6.447 -1.4819 -0.6733 -1.9103
  751MOL0     O 1251   8.778   7.833   2.676  0.6525  1.0247  0.3714
  751MOL0     C 1252   8.762   7.811   2.557  0.9281 -0.3758  0.2184
  751MOL0     O 1253   8.854   7.767   2.470 -0.3236 -0.5339  0.0782
  751MOL0     C 1254   8.946   7.688   2.518 -1.0583  0.4470  0.6352
  751MOL0     C 1255   9.076   7.708   2.489  0.1245 -0.1564  0.8860
  751MOL0     C 1256   9.177   7.617   2.522 -0.4153 -0.3448  0.0103
  751MOL0     C 1257   9.140   7.492   2.594  0.6560  0.3639 -0.5691
  751MOL0     O 1258   9.225   7.390   2.629  0.5554 -0.6683  0.2579
  751MOL0     C 1259   9.344   7.398   2.548  0.2378  0.1272  0.2435
  751MOL0     C 1260   9.415   7.277   2.592 -0.8095  0.3864  0.9289
  751MOL0     C 1261   9.529   7.222   2.497  0.8621  0.8159  0.3192
  751MOL0     C 1262   9.482   7.116   2.384 -0.7649 -0.2869  0.1631
  751MOL0     C 1263   9.565   7.129   2.249 -0.4857 -1.5071  0.5366
  751MOL0     C 1264   9.702   7.072   2.250 -0.5517 -0.6889 -0.3628
  751MOL0     C 1265   9.713   6.937   2.180  0.4753  0.4350 -0.2532
  751MOL0     C 1266   9.767   6.943   2.040  0.6756 -0.1662 -0.2244
  751MOL0     N 1267   9.774   6.810   1.970  0.0875 -0.3548  0.3844
  751MOL0     C 1268   9.860   6.703   1.991  0.7018  0.2501  0.4012
  751MOL0     C 1269   9.822   6.612   1.899  0.5373  0.7421  0.1811
  751MOL0     C 1270   9.890   6.487   1.882 -0.4947  0.0913  0.8633
  751MOL0     C 1271   9.847   6.387   1.983  0.2192 -0.1102 -0.1028
  751MOL0     C 1272   9.916   6.254   1.996 -1.1100 -0.7328  0.1666
  751MOL0     C 1273  10.061   6.246   2.020 -0.5486 -1.0424  0.4801
  751MOL0     O 1274  10.145   6.299   1.917 -0.4512 -0.3008  0.1863
  751MOL0     C 1275  10.251   6.229   1.865  0.0886 -0.1738 -0.1885
  751MOL0     C 1276  10.358   6.158   1.931  0.9003  0.0555  0.0114
  751MOL0     C 1277  10.464   6.108   1.856  0.2248 -0.1186  0.8870
  751MOL0     C 1278  10.464   6.133   1.711  0.5149 -0.2994  0.3352
  751MOL0     C 1279  10.576   6.081   1.618 -0.4510 -0.3989  0.2371
  751MOL0     O 1280  10.566   6.099   1.482 -0.2209  1.0573 -0.0516
  751MOL0     C 1281  10.682   6.074   1.407 -0.4699 -0.4029  0.5593
  751MOL0     C 1282  10.817   6.053   1.452  0.3137 -0.8289 -0.7805
  751MOL0     C 1283  10.918   6.015   1.367 -0.1660  0.4922  0.2167
  751MOL0     C 1284  10.874   5.985   1.229 -0.6990 -0.5513 -0.6248
  751MOL0     O 1285  10.976   5.941   1.147 -0.4342  0.1257  0.2877
  751MOL0     C 1286  10.976   5.959   1.011  0.6335 -0.9929  0.4290
  751MOL0     C 1287  11.101   6.022   0.965 -0.4762  0.0686  0.2069
  751MOL0     C 1288  11.110   6.057   0.805  0.0796  0.1655 -0.3712
  751MOL0     C 1289  11.016   6.168   0.757  1.2290  0.8979  0.0881
  751MOL0     C 1290  11.079   6.307   0.766  1.0361  0.2927 -0.6286
  751MOL0     C 1291  11.166   6.344   0.643  0.1419  0.2416  0.0567
  751MOL0     C 1292  11.231   6.477   0.669 -0.4405 -0.1324  0.0249
  751MOL0     C 1293  11.325   6.508   0.549  0.4052  0.2257 -0.4037
  751MOL0    Cl 1294  11.474   6.415   0.542 -0.1931 -0.2855 -0.2915
  751MOL0     C 1295  10.745   6.019   1.185  0.3491 -0.0622 -0.4090
  751MOL0     C 1296  10.652   6.066   1.272  0.1295 -0.1023 -0.5664
  751MOL0     O 1297  10.658   6.005   1.670 -0.2822 -0.2037 -1.0262
  751MOL0     C 1298  10.372   6.220   1.653  0.4716  0.2753  0.1921
  751MOL0     C 1299  10.266   6.257   1.727 -1.4214  0.0631  0.6430
  751MOL0     N 1300   9.710   6.660   1.833  0.3276  0.4107  0.6365
  751MOL0     N 1301   9.686   6.780   1.872  0.4334 -0.0156  0.5798
  751MOL0     C 1302   9.008   7.468   2.625 -0.4702 -0.0339 -0.1103
  751MOL0     C 1303   8.914   7.567   2.581  0.1815 -0.4103  0.1526
  751MOL0     C 1304   8.618   7.838   2.491 -1.0392 -1.2471 -0.1435
  751MOL0     C 1305   8.593   7.762   2.375 -0.6042 -0.3729 -0.1755
  751MOL0     C 1306   8.464   7.775   2.319 -0.1943 -0.2566 -0.3798
  751MOL0     C 1307   8.363   7.846   2.380 -0.5812  0.0786  0.1610
  751MOL0     O 1308   8.241   7.867   2.321  0.5227 -0.5559  0.0643
  751MOL0     C 1309   8.217   8.000   2.260 -0.2752  0.9658  0.4245
  751MOL0     C 1310   8.288   8.016   2.129  0.1904 -0.2322  0.2578
  751MOL0     C 1311   8.246   7.909   2.019 -1.5050 -0.7645  0.0235
  751MOL0     C 1312   8.271   7.967   1.873  0.4037 -0.4575  1.2137
  751MOL0     C 1313   8.182   7.897   1.783 -0.2155  0.9760 -0.1612
  751MOL0     C 1314   8.116   7.836   1.703 -0.1963 -0.1923 -0.4937
  751MOL0     C 1315   8.383   7.898   2.507  0.8660  0.0267 -0.1468
  751MOL0     C 1316   8.508   7.901   2.557 -0.6888 -0.7316  0.2420
  751MOL0     C 1317   8.518   7.973   2.680 -0.2159  0.1267  0.2650
  751MOL0     H 1318   9.099   7.805   2.446  0.9012 -0.6515  0.1335
  751MOL0     H 1319   9.272   7.645   2.477 -1.7109 -0.8156 -3.3164
  751MOL0     H 1320   9.315   7.392   2.443 -0.3426  1.6571  0.2917
  751MOL0     H 1321   9.404   7.486   2.576 -1.3295  0.3584  3.3028
  751MOL0     H 1322   9.347   7.192   2.597 -0.6841  0.3417  2.6738
  751MOL0     H 1323   9.459   7.302   2.689  0.0893 -0.1456  0.6646
  751MOL0     H 1324   9.605   7.167   2.553 -1.7729 -4.0673 -0.3440
  751MOL0     H 1325   9.572   7.312   2.452  1.0964  1.1529  1.1789
  751MOL0     H 1326   9.495   7.017   2.430 -2.2520 -1.5381 -1.9537
  751MOL0     H 1327   9.376   7.123   2.357 -0.7908  1.6408  0.6306
  751MOL0     H 1328   9.506   7.098   2.162  1.9300  0.3192 -1.9227
  751MOL0     H 1329   9.570   7.236   2.229 -2.8430 -0.9529  2.3995
  751MOL0     H 1330   9.768   7.145   2.201  1.6448 -2.4492 -0.1921
  751MOL0     H 1331   9.747   7.059   2.348  2.7094 -0.4538 -1.7039
  751MOL0     H 1332   9.615   6.889   2.172  1.2310 -0.9207 -1.9945
  751MOL0     H 1333   9.773   6.864   2.234 -1.0880 -1.2756 -0.7207
  751MOL0     H 1334   9.692   6.999   1.984  1.3428 -0.7304 -1.7464
  751MOL0     H 1335   9.862   6.999   2.036  1.2181 -1.1268 -2.6014
  751MOL0     H 1336   9.940   6.702   2.065  0.0416  1.1098  1.1486
  751MOL0     H 1337   9.859   6.447   1.785  0.9705 -1.6040  1.0341
  751MOL0     H 1338   9.998   6.504   1.886 -0.3125 -0.0015 -1.7511
  751MOL0     H 1339   9.863   6.433   2.081  3.8352  0.5107 -0.8436
  751MOL0     H 1340   9.741   6.362   1.970  0.1430  0.4537 -0.6188
  751MOL0     H 1341   9.896   6.195   1.906 -1.7421 -0.7684  0.3267
  751MOL0     H 1342   9.883   6.196   2.083 -0.8543  1.6850  1.9866
  751MOL0     H 1343  10.083   6.140   2.034 -0.4916 -1.1307 -0.2798
  751MOL0     H 1344  10.092   6.307   2.105 -0.5626  3.3253 -2.3552
  751MOL0     H 1345  10.364   6.169   2.039  0.1049  1.1777 -0.0466
  751MOL0     H 1346  10.534   6.041   1.904 -0.8059 -0.6615  1.6629
  751MOL0     H 1347  10.837   6.068   1.558 -1.3980 -0.9590 -0.4103
  751MOL0     H 1348  11.020   5.991   1.393 -0.8076 -2.2280  0.5086
  751MOL0     H 1349  10.967   5.866   0.955 -1.5282 -0.8630  0.4764
  751MOL0     H 1350  10.894   6.021   0.972  2.1346  3.0541  3.0023
  751MOL0     H 1351  11.119   6.115   1.019 -0.6296 -0.1301  0.6042
  751MOL0     H 1352  11.177   5.947   0.989 -0.2508 -0.0048 -0.7070
  751MOL0     H 1353  11.208   6.088   0.769 -1.5655  6.3900 -0.5323
  751MOL0     H 1354  11.085   5.963   0.754 -3.3311 -0.6549  2.3659
  751MOL0     H 1355  10.929   6.171   0.824  0.9922  0.8683 -0.2128
  751MOL0     H 1356  10.978   6.140   0.659 -1.6649 -2.9529  2.0101
  751MOL0     H 1357  11.140   6.322   0.855 -2.2866  1.7927  1.5693
  751MOL0     H 1358  10.998   6.379   0.763  3.1682  3.0182  1.7076
  751MOL0     H 1359  11.232   6.258   0.630 -1.5513 -1.0742 -0.3339
  751MOL0     H 1360  11.095   6.349   0.560 -1.7489  0.2594  1.5968
  751MOL0     H 1361  11.289   6.477   0.762 -0.6599 -0.7096  0.1639
  751MOL0     H 1362  11.154   6.553   0.682  0.9402  1.7627 -2.0134
  751MOL0     H 1363  11.272   6.496   0.454  1.2129 -0.0720 -0.8278
  751MOL0     H 1364  11.357   6.613   0.550  2.3072 -0.3092 -0.1294
  751MOL0     H 1365  10.723   5.993   1.082 -1.3943  0.0835 -0.1133
  751MOL0     H 1366  10.547   6.087   1.251  0.1072  2.6722  1.7590
  751MOL0     H 1367  10.382   6.250   1.549 -0.9229 -2.4725 -0.8188
  751MOL0     H 1368  10.186   6.309   1.675 -0.4141 -1.3506 -2.5505
  751MOL0     H 1369   8.970   7.385   2.684  3.5995 -2.5863 -0.6769
  751MOL0     H 1370   8.811   7.535   2.600 -0.1054 -0.3436 -1.1962
  751MOL0     H 1371   8.667   7.700   2.325  0.8778  0.3691  1.0484
  751MOL0     H 1372   8.437   7.733   2.223 -1.5675  2.1465 -1.1349
  751MOL0     H 1373   8.257   8.070   2.333 -0.6435  1.6063  0.0158
  751MOL0     H 1374   8.109   8.017   2.251 -0.1787  2.6156  1.9582
  751MOL0     H 1375   8.396   8.014   2.140  0.4624  2.0309 -1.3607
  751MOL0     H 1376   8.263   8.114   2.088 -3.0547 -1.8339 -2.1196
  751MOL0     H 1377   8.144   7.872   2.035 -1.8367  0.3401  0.6403
  751MOL0     H 1378   8.312   7.824   2.037  1.6647  1.5299 -0.0057
  751MOL0     H 1379   8.243   8.072   1.864  0.0300 -0.6828 -0.7906
  751MOL0     H 1380   8.377   7.951   1.851  0.3201 -2.6618  2.1002
  751MOL0     H 1381   8.081   7.770   1.626  2.4438  0.5029 -2.4126
  751MOL0     H 1382   8.306   7.958   2.554 -1.3176  0.5386 -3.9703
  751MOL0     H 1383   8.543   7.906   2.762 -1.3909 -1.1332 -0.3712
  751MOL0     H 1384   8.596   8.050   2.674  0.6099 -0.6309  0.9962
  751MOL0     H 1385   8.430   8.018   2.726  0.0105  1.1932 -0.2994
  752MOL0     O 1386   4.969  10.349   2.613  0.1147  0.0926 -0.5067
  752MOL0     C 1387   4.952  10.272   2.708 -0.1577 -0.0214 -0.6381
  752MOL0     O 1388   5.005  10.296   2.831 -0.6009 -0.0531  0.4612
  752MOL0     C 1389   5.121  10.374   2.818  0.4330  0.2994  0.3437
  752MOL0     C 1390   5.111  10.508   2.848 -0.1507 -0.3293 -0.2424
  752MOL0     C 1391   5.223  10.594   2.831  0.9938 -0.2554  1.2011
  752MOL0     C 1392   5.351  10.553   2.796  0.9318 -1.3060 -0.1925
  752MOL0     O 1393   5.459  10.633   2.784  0.3226 -0.7277 -0.3980
  752MOL0     C 1394   5.443  10.766   2.729 -1.1933 -0.0114  0.4544
  752MOL0     C 1395   5.395  10.770   2.577 -1.0435 -0.9724 -1.7621
  752MOL0     C 1396   5.493  10.692   2.495 -0.0558  0.0308  0.1961
  752MOL0     C 1397   5.499  10.735   2.344 -0.2410 -0.1778 -0.7175
  752MOL0     C 1398   5.617  10.662   2.281 -0.0664  0.1282  0.8173
  752MOL0     C 1399   5.609  10.676   2.130  0.1621  0.6943  1.0305
  752MOL0     C 1400   5.506  10.563   2.082 -0.5916 -0.0903 -0.4016
  752MOL0     C 1401   5.440  10.601   1.948 -0.5141  0.1263  0.8465
  752MOL0     N 1402   5.405  10.477   1.873  0.8289  0.0820 -0.8195
  752MOL0     C 1403   5.295  10.399   1.909  0.6720 -0.1751 -0.0614
  752MOL0     C 1404   5.310  10.288   1.830 -0.1929 -0.0187 -0.1580
  752MOL0     C 1405   5.216  10.170   1.824  0.7318 -0.6432  0.2794
  752MOL0     C 1406   5.144  10.135   1.955  0.3826  0.4744 -0.0146
  752MOL0     C 1407   5.073  10.000   1.963  0.0080  0.4560  0.7983
  752MOL0     C 1408   5.031   9.965   2.105 -0.7798  0.0456  0.9284
  752MOL0     O 1409   5.144   9.950   2.184 -0.3808  0.2111 -0.8598
  752MOL0     C 1410   5.131   9.884   2.302 -0.6296  0.5083 -0.5680
  752MOL0     C 1411   5.003   9.844   2.359 -1.2546 -0.0447  0.2501
  752MOL0     C 1412   5.010   9.781   2.479 -0.4666  0.5668 -0.8791
  752MOL0     C 1413   5.120   9.753   2.550  0.0632  0.3361  0.3337
  752MOL0     C 1414   5.103   9.687   2.686  0.9644  0.1050  1.1001
  752MOL0     O 1415   4.979   9.630   2.713  0.7171  0.4870  0.5679
  752MOL0     C 1416   4.942   9.599   2.845  0.8870 -0.1967 -0.0333
  752MOL0     C 1417   5.007   9.630   2.962  0.2858 -0.1807  0.9657
  752MOL0     C 1418   4.953   9.583   3.087  0.3732  0.5262 -0.4241
  752MOL0     C 1419   4.832   9.514   3.099 -0.2187 -0.8925 -0.0413
  752MOL0     O 1420   4.769   9.465   3.214  0.3430  0.7473  0.5110
  752MOL0     C 1421   4.765   9.548   3.323  0.7632  0.3563  0.1386
  752MOL0     C 1422   4.669   9.495   3.426 -0.7165 -0.0759  0.4306
  752MOL0     C 1423   4.637   9.619   3.517 -0.2896  0.8079  0.5578
  752MOL0     C 1424   4.527   9.573   3.617 -0.8092  0.0264  0.0668
  752MOL0     C 1425   4.582   9.475   3.728 -0.1056  0.5647 -0.6632
  752MOL0     C 1426   4.475   9.447   3.826 -0.3077 -0.7288 -0.9290
  752MOL0     C 1427   4.506   9.341   3.939  0.5701 -0.3251  0.1681
  752MOL0     C 1428   4.527   9.198   3.886  0.6047  0.0433 -0.7860
  752MOL0    Cl 1429   4.362   9.131   3.865  0.1249  0.3520 -0.1387
  752MOL0     C 1430   4.769   9.487   2.976 -0.2412 -0.0121 -0.4948
  752MOL0     C 1431   4.818   9.537   2.854 -0.6572  0.3262 -0.2117
  752MOL0     O 1432   5.202   9.672   2.750  0.1315 -0.0935 -0.7247
  752MOL0     C 1433   5.243   9.781   2.492  0.1483 -0.0401 -0.2155
  752MOL0     C 1434   5.249   9.849   2.368  0.4626 -0.2011  0.1352
  752MOL0     N 1435   5.423  10.302   1.750  0.5745 -0.1535 -0.1769
  752MOL0     N 1436   5.470  10.414   1.773 -0.6190 -0.5133 -0.3049
  752MOL0     C 1437   5.360  10.416   2.767  0.2592  0.5406 -0.3864
  752MOL0     C 1438   5.249  10.328   2.772 -0.0845  0.4416  0.4828
  752MOL0     C 1439   4.869  10.155   2.687 -0.0981  0.2063  0.1069
  752MOL0     C 1440   4.767  10.157   2.585  0.6656 -0.5257 -0.2027
  752MOL0     C 1441   4.679  10.054   2.563  0.6819 -0.0491 -0.0611
  752MOL0     C 1442   4.709   9.936   2.637 -0.8792 -0.0027  0.7182
  752MOL0     O 1443   4.643   9.816   2.615  1.0766 -0.0554  0.0526
  752MOL0     C 1444   4.495   9.825   2.632 -0.2379 -0.3518 -1.1832
  752MOL0     C 1445   4.451   9.752   2.767  0.7438 -0.0358 -1.3768
  752MOL0     C 1446   4.450   9.851   2.885  1.1830 -0.6942  0.3641
  752MOL0     C 1447   4.350   9.806   2.997  0.3176 -0.7609  0.2280
  752MOL0     C 1448   4.379   9.681   3.059  0.0841  0.3869 -0.5114
  752MOL0     C 1449   4.388   9.573   3.105 -0.1841 -0.2912  0.2095
  752MOL0     C 1450   4.809   9.932   2.731 -0.6270  0.4521 -0.2856
  752MOL0     C 1451   4.880  10.044   2.764 -0.3415  0.3214 -0.9361
  752MOL0     C 1452   4.992  10.026   2.865  0.2956 -0.2730 -0.4382
  752MOL0     H 1453   5.017  10.555   2.875 -1.5202 -1.8778 -2.1318
  752MOL0     H 1454   5.215  10.700   2.853  0.2145  0.2635 -1.1940
  752MOL0     H 1455   5.362  10.820   2.780 -1.8734  2.1793 -2.6556
  752MOL0     H 1456   5.538  10.819   2.729 -0.6504 -0.9667  0.2316
  752MOL0     H 1457   5.400  10.874   2.542  0.7111 -1.2559 -2.4477
  752MOL0     H 1458   5.296  10.726   2.564 -0.5430 -1.7778 -3.0062
  752MOL0     H 1459   5.469  10.586   2.509 -1.8328  0.4636  0.6648
  752MOL0     H 1460   5.589  10.717   2.542 -2.0738  0.6813  4.3798
  752MOL0     H 1461   5.399  10.721   2.300 -1.6414  1.3491  1.7232
  752MOL0     H 1462   5.525  10.841   2.337  1.1032 -0.3852  0.6106
  752MOL0     H 1463   5.709  10.714   2.308 -0.5525  2.7819 -2.0384
  752MOL0     H 1464   5.620  10.560   2.320  3.1704  0.1878  0.9725
  752MOL0     H 1465   5.570  10.777   2.114 -0.2846  0.1962 -1.4042
  752MOL0     H 1466   5.702  10.662   2.074 -1.1868  2.7903 -2.0281
  752MOL0     H 1467   5.431  10.567   2.161 -0.1505  0.9003 -0.0203
  752MOL0     H 1468   5.553  10.465   2.076 -1.1728 -0.4555  0.6817
  752MOL0     H 1469   5.346  10.656   1.964 -0.9380 -0.7924  1.6394
  752MOL0     H 1470   5.504  10.660   1.882 -1.0490  0.5530  0.6935
  752MOL0     H 1471   5.222  10.424   1.985  2.4481 -1.1567  2.0903
  752MOL0     H 1472   5.140  10.185   1.746  0.6150 -1.4057  0.2387
  752MOL0     H 1473   5.275  10.083   1.796 -1.0829 -1.7363 -0.3085
  752MOL0     H 1474   5.223  10.120   2.029 -0.6579  1.0020  1.2270
  752MOL0     H 1475   5.078  10.209   2.001 -0.7529 -1.7589  2.1696
  752MOL0     H 1476   5.128   9.916   1.920 -0.1315 -1.0782  3.3997
  752MOL0     H 1477   4.981  10.008   1.903  0.3130  1.1337  0.4047
  752MOL0     H 1478   4.972   9.873   2.106  2.4200 -2.1908  0.8085
  752MOL0     H 1479   4.973  10.049   2.144  0.9160  2.9137 -2.1299
  752MOL0     H 1480   4.914   9.880   2.309 -0.4976  0.1389 -0.9840
  752MOL0     H 1481   4.919   9.750   2.531  0.7784 -1.3167  0.3154
  752MOL0     H 1482   5.100   9.685   2.969 -0.1967  0.7111  0.6020
  752MOL0     H 1483   5.013   9.610   3.174  0.6769  3.2802 -1.4027
  752MOL0     H 1484   4.863   9.575   3.363 -0.1549  2.8288  0.9159
  752MOL0     H 1485   4.725   9.642   3.284 -0.5053  0.7186  2.1967
  752MOL0     H 1486   4.584   9.458   3.368 -1.0712  0.6419  0.4812
  752MOL0     H 1487   4.720   9.420   3.488 -0.1777  2.4255  3.2935
  752MOL0     H 1488   4.726   9.659   3.567 -0.4210 -1.5895  2.9379
  752MOL0     H 1489   4.594   9.699   3.455  1.9990  0.2698 -1.8990
  752MOL0     H 1490   4.444   9.533   3.557 -0.3402 -1.6521  0.4815
  752MOL0     H 1491   4.497   9.667   3.666  2.0156  0.6992  0.6824
  752MOL0     H 1492   4.669   9.519   3.777  1.1856  0.1276 -2.4694
  752MOL0     H 1493   4.614   9.383   3.677  1.1021  0.4108  0.3183
  752MOL0     H 1494   4.446   9.542   3.874  2.6608  1.5651 -3.3148
  752MOL0     H 1495   4.387   9.414   3.770 -2.7559  0.2729  2.0170
  752MOL0     H 1496   4.415   9.349   3.998 -1.0537 -0.0403 -2.2454
  752MOL0     H 1497   4.595   9.376   3.991  0.9061 -1.8902  0.6954
  752MOL0     H 1498   4.596   9.187   3.802  0.6420  0.3827 -0.8011
  752MOL0     H 1499   4.590   9.151   3.962  4.5088  3.6337 -1.4762
  752MOL0     H 1500   4.674   9.434   2.982 -0.2478 -0.0215 -0.6756
  752MOL0     H 1501   4.756   9.506   2.771 -1.9368 -1.2265  1.2461
  752MOL0     H 1502   5.337   9.766   2.546  0.3034  0.2346 -0.4091
  752MOL0     H 1503   5.341   9.890   2.328  0.3037 -1.0971 -1.2480
  752MOL0     H 1504   5.460  10.387   2.736  0.1749  0.9283 -1.0486
  752MOL0     H 1505   5.250  10.220   2.755  1.0543  0.3955  0.7664
  752MOL0     H 1506   4.762  10.246   2.524  1.0373 -0.0949  0.3801
  752MOL0     H 1507   4.595  10.061   2.495  2.5249 -0.0568 -2.4894
  752MOL0     H 1508   4.436   9.778   2.553 -1.1630  0.0672 -0.7605
  752MOL0     H 1509   4.454   9.926   2.641 -1.6737 -0.9268 -0.9713
  752MOL0     H 1510   4.521   9.669   2.780  0.8623  0.1305 -0.9427
  752MOL0     H 1511   4.345   9.729   2.756  0.3194  0.9064  0.3992
  752MOL0     H 1512   4.421   9.949   2.847  0.9480 -1.0661 -0.4430
  752MOL0     H 1513   4.550   9.844   2.929 -0.7117 -1.2710  5.2425
  752MOL0     H 1514   4.349   9.889   3.068  2.0955  1.7148 -2.4335
  752MOL0     H 1515   4.251   9.802   2.950  1.5466  1.6543 -2.9366
  752MOL0     H 1516   4.394   9.475   3.146  0.5892  0.5928  2.3937
  752MOL0     H 1517   4.830   9.836   2.776 -0.0994  0.1894 -1.0676
  752MOL0     H 1518   5.086  10.065   2.826  0.0581  1.7862  0.8994
  752MOL0     H 1519   4.971  10.078   2.959  0.3731  1.1577 -1.1827
  752MOL0     H 1520   5.005   9.922   2.895  0.5716  0.2572  1.3589
  753MOL0     O 1521   6.979   7.618   0.612 -0.0745 -0.3524  0.5234
  753MOL0     C 1522   7.021   7.513   0.656 -0.5177 -0.3586  0.1200
  753MOL0     O 1523   7.053   7.490   0.782  0.0301 -0.3500 -0.8505
  753MOL0     C 1524   7.032   7.585   0.879 -0.9649 -0.3322  0.1154
  753MOL0     C 1525   6.903   7.630   0.917 -0.2837 -0.6975 -0.0743
  753MOL0     C 1526   6.879   7.724   1.023  0.6456 -0.2482  0.8370
  753MOL0     C 1527   6.994   7.776   1.085 -0.0126  0.6582 -0.7959
  753MOL0     O 1528   6.991   7.849   1.200  0.1455  0.2525 -0.0558
  753MOL0     C 1529   6.878   7.916   1.251 -0.1747  0.2051  1.3235
  753MOL0     C 1530   6.912   7.984   1.375 -0.8382  0.4065 -0.1840
  753MOL0     C 1531   7.019   8.085   1.336 -0.5396  0.5938  0.0125
  753MOL0     C 1532   7.059   8.171   1.455  0.2556  0.5489 -1.3563
  753MOL0     C 1533   6.971   8.297   1.491  0.0110 -0.2765  0.5601
  753MOL0     C 1534   6.990   8.411   1.391  0.3155  0.2132 -0.4317
  753MOL0     C 1535   6.916   8.529   1.434  0.0403 -1.0346  0.4809
  753MOL0     C 1536   6.947   8.655   1.352  0.0926  0.1330 -0.2848
  753MOL0     N 1537   6.908   8.652   1.218  0.2962  0.1420  0.1395
  753MOL0     C 1538   6.785   8.644   1.158  0.2030  0.2716  0.5995
  753MOL0     C 1539   6.801   8.640   1.023 -0.1337  1.0033 -0.2093
  753MOL0     C 1540   6.688   8.644   0.915  0.7739 -0.1787  0.1237
  753MOL0     C 1541   6.687   8.514   0.828 -0.6638  0.1841  0.3712
  753MOL0     C 1542   6.797   8.522   0.711  0.9843  0.7436 -0.6124
  753MOL0     C 1543   6.747   8.442   0.590 -1.0688 -0.3353 -0.5845
  753MOL0     O 1544   6.649   8.513   0.515  0.3577  0.4631 -0.2608
  753MOL0     C 1545   6.579   8.434   0.429 -0.1808 -0.4862  0.6300
  753MOL0     C 1546   6.464   8.485   0.393  0.0160 -0.6374 -0.3763
  753MOL0     C 1547   6.383   8.415   0.305  0.3375 -0.5162  1.6648
  753MOL0     C 1548   6.425   8.307   0.237  0.1768  0.2502  0.2009
  753MOL0     C 1549   6.347   8.239   0.128  0.0526 -0.3765  0.0325
  753MOL0     O 1550   6.383   8.113   0.087 -0.3337  1.0752 -0.0503
  753MOL0     C 1551   6.319   8.063  -0.011 -0.5988  1.1578 -0.1047
  753MOL0     C 1552   6.371   8.066  -0.144 -0.2343 -0.2874 -0.1184
  753MOL0     C 1553   6.293   8.011  -0.246 -0.6640 -0.9008 -0.9213
  753MOL0     C 1554   6.172   7.944  -0.225 -0.0887  0.8648 -0.3770
  753MOL0     O 1555   6.105   7.896  -0.337  0.0513 -0.6770 -0.0442
  753MOL0     C 1556   6.002   7.797  -0.327 -0.0576 -0.1241 -0.7087
  753MOL0     C 1557   6.054   7.656  -0.276  0.8748 -0.6470  0.4449
  753MOL0     C 1558   5.942   7.552  -0.266  0.7312 -0.6495  0.2508
  753MOL0     C 1559   5.919   7.493  -0.402  0.0550  0.9757  0.3941
  753MOL0     C 1560   5.874   7.351  -0.397 -0.7161 -0.4885 -0.8106
  753MOL0     C 1561   5.985   7.258  -0.340  0.3476 -0.2648  0.3371
  753MOL0     C 1562   5.932   7.116  -0.345 -0.0929 -0.0495 -0.6434
  753MOL0     C 1563   6.016   7.004  -0.278 -1.1379 -0.2920 -0.1599
  753MOL0    Cl 1564   6.180   6.981  -0.346 -0.0941  0.1413  0.6440
  753MOL0     C 1565   6.130   7.926  -0.098  0.0383  0.0823  0.1892
  753MOL0     C 1566   6.196   7.994   0.007  0.4857 -0.7272  0.2711
  753MOL0     O 1567   6.244   8.296   0.094 -0.2749  0.4981 -0.0915
  753MOL0     C 1568   6.558   8.266   0.260  0.2330  0.3581  0.3631
  753MOL0     C 1569   6.630   8.318   0.368 -1.1084 -0.4329  0.8294
  753MOL0     N 1570   6.939   8.636   0.998  0.5978  1.1695 -1.0463
  753MOL0     N 1571   6.996   8.657   1.113  0.6919 -0.7873  0.1165
  753MOL0     C 1572   7.120   7.730   1.052 -0.3800 -0.5541 -0.2800
  753MOL0     C 1573   7.141   7.641   0.946  0.3844 -0.3798 -0.0477
  753MOL0     C 1574   7.043   7.396   0.563 -0.8207 -0.2010  1.0100
  753MOL0     C 1575   7.060   7.274   0.624 -0.8967 -0.2123 -0.2354
  753MOL0     C 1576   7.072   7.162   0.553  0.3318  0.5632  0.2231
  753MOL0     C 1577   7.055   7.161   0.421 -0.1710 -0.0507 -0.5943
  753MOL0     O 1578   7.032   7.044   0.356  0.3774 -0.0754 -0.1448
  753MOL0     C 1579   6.961   7.040   0.229  0.6629 -0.1917  0.5759
  753MOL0     C 1580   6.814   7.078   0.238 -0.0142 -1.5626 -0.3337
  753MOL0     C 1581   6.746   7.020   0.358 -0.1754 -0.6474  0.3939
  753MOL0     C 1582   6.592   7.055   0.358 -0.1196  0.2894 -0.6235
  753MOL0     C 1583   6.558   7.193   0.389 -0.0204 -0.0981 -0.5642
  753MOL0     C 1584   6.532   7.306   0.410  0.2745 -0.1140 -0.1318
  753MOL0     C 1585   7.035   7.282   0.353  0.0719 -0.2336 -0.3353
  753MOL0     C 1586   7.033   7.412   0.417 -0.1751  0.6413 -0.7396
  753MOL0     C 1587   7.028   7.537   0.329 -0.4303 -0.3168  0.1912
  753MOL0     H 1588   6.813   7.575   0.891 -0.6796 -0.6324  1.1259
  753MOL0     H 1589   6.779   7.756   1.048  0.8654  2.3570 -1.1159
  753MOL0     H 1590   6.846   7.972   1.163  3.7463 -0.7201 -0.8938
  753MOL0     H 1591   6.804   7.841   1.280  0.7156 -0.5342  1.7301
  753MOL0     H 1592   6.956   7.918   1.450 -4.1472 -0.3422  1.2896
  753MOL0     H 1593   6.823   8.028   1.422  0.6444  3.3153  0.1161
  753MOL0     H 1594   6.989   8.156   1.258  1.6275  1.1086 -0.4398
  753MOL0     H 1595   7.116   8.040   1.312 -0.3168  0.6105  0.8491
  753MOL0     H 1596   7.060   8.107   1.544  2.5312 -0.2370 -1.8807
  753MOL0     H 1597   7.164   8.199   1.445  0.8692 -1.0957 -0.0622
  753MOL0     H 1598   6.865   8.268   1.496 -0.3117  0.1242 -2.2698
  753MOL0     H 1599   7.008   8.328   1.589  1.5447 -0.3118  0.0075
  753MOL0     H 1600   7.098   8.424   1.380  0.5963 -2.4223 -1.5411
  753MOL0     H 1601   6.945   8.392   1.293  0.5544 -3.7469  0.0738
  753MOL0     H 1602   6.938   8.543   1.541 -0.9072 -0.6837  0.6407
  753MOL0     H 1603   6.810   8.506   1.419  0.0330 -1.7200  1.4641
  753MOL0     H 1604   6.891   8.737   1.398  0.7203  2.1705 -2.9570
  753MOL0     H 1605   7.049   8.694   1.354  1.5884 -3.3898 -0.7982
  753MOL0     H 1606   6.696   8.647   1.220  0.8654 -1.7241  1.7589
  753MOL0     H 1607   6.606   8.637   0.987  1.8903 -1.5771  1.3163
  753MOL0     H 1608   6.696   8.740   0.863  0.9274  1.2127  2.5851
  753MOL0     H 1609   6.706   8.430   0.895 -1.0060  0.8789  1.3672
  753MOL0     H 1610   6.588   8.499   0.784 -1.8315  1.3100  2.4972
  753MOL0     H 1611   6.887   8.470   0.746  0.0195  0.2727  1.3660
  753MOL0     H 1612   6.815   8.626   0.682 -2.2188  1.5740  0.0150
  753MOL0     H 1613   6.710   8.352   0.639  3.1749 -1.1729  1.5562
  753MOL0     H 1614   6.840   8.424   0.536 -0.4205  0.5539  0.2030
  753MOL0     H 1615   6.438   8.574   0.448  2.5925  0.1832 -0.3423
  753MOL0     H 1616   6.282   8.455   0.294 -1.1477 -3.2913  3.7593
  753MOL0     H 1617   6.471   8.107  -0.158  1.0844 -3.1636  0.0464
  753MOL0     H 1618   6.327   8.014  -0.349 -3.0298 -2.4180 -1.8294
  753MOL0     H 1619   5.920   7.819  -0.259 -0.2311 -2.5259 -0.0855
  753MOL0     H 1620   5.967   7.794  -0.431 -2.5435  0.7352  0.0424
  753MOL0     H 1621   6.136   7.630  -0.343 -0.0499  1.9238 -1.8739
  753MOL0     H 1622   6.091   7.664  -0.173 -1.4261  4.0493  1.1677
  753MOL0     H 1623   5.954   7.470  -0.195 -5.4465 -3.3250 -1.1897
  753MOL0     H 1624   5.844   7.593  -0.243 -0.6056 -2.4586 -1.8434
  753MOL0     H 1625   6.008   7.495  -0.464 -0.0602  0.2649  0.1898
  753MOL0     H 1626   5.843   7.554  -0.452  1.7088  2.0161 -0.9325
  753MOL0     H 1627   5.835   7.317  -0.493 -0.7510 -0.3641 -0.8406
  753MOL0     H 1628   5.785   7.358  -0.335  0.4799 -0.3518  0.9695
  753MOL0     H 1629   6.077   7.261  -0.400  0.0491  0.5401 -0.0932
  753MOL0     H 1630   5.995   7.284  -0.234 -3.3556 -2.4380  1.4065
  753MOL0     H 1631   5.916   7.089  -0.450 -3.9678  2.7380 -1.0445
  753MOL0     H 1632   5.831   7.121  -0.302  0.2076 -3.4974  0.7941
  753MOL0     H 1633   6.024   7.032  -0.172  2.6811  2.5811 -0.9833
  753MOL0     H 1634   5.960   6.911  -0.291  1.6020 -1.6332 -4.3152
  753MOL0     H 1635   6.047   7.866  -0.065  1.0997 -1.0545  0.8916
  753MOL0     H 1636   6.157   8.004   0.108  1.8363  3.4709  0.5626
  753MOL0     H 1637   6.605   8.190   0.199  0.7752  3.2866 -3.2393
  753MOL0     H 1638   6.725   8.277   0.402 -1.2208  1.5245  3.8991
  753MOL0     H 1639   7.202   7.761   1.116  1.1303 -2.6821 -1.0597
  753MOL0     H 1640   7.237   7.602   0.916  0.4309 -0.3547  0.0684
  753MOL0     H 1641   7.051   7.256   0.731 -1.7882 -0.6625 -0.3758
  753MOL0     H 1642   7.058   7.063   0.596 -0.2111  0.4179 -0.2679
  753MOL0     H 1643   6.974   6.932   0.214  0.9026 -0.1649  0.5876
  753MOL0     H 1644   7.007   7.091   0.145  0.7933 -0.3825  0.5295
  753MOL0     H 1645   6.765   7.036   0.149 -0.7473  2.7985 -2.2422
  753MOL0     H 1646   6.801   7.187   0.234  3.8990 -0.9460 -0.4561
  753MOL0     H 1647   6.788   7.064   0.449 -2.4661 -0.2396  1.3166
  753MOL0     H 1648   6.757   6.911   0.361  1.4798 -0.5073  0.0595
  753MOL0     H 1649   6.550   7.032   0.259 -2.6415 -2.7793  0.9658
  753MOL0     H 1650   6.551   6.977   0.423 -1.2395 -2.0053 -3.7760
  753MOL0     H 1651   6.506   7.408   0.434  1.0502 -0.3215  1.7365
  753MOL0     H 1652   7.024   7.282   0.245  1.1261 -0.9882 -0.4585
  753MOL0     H 1653   7.116   7.598   0.349 -1.6618  2.6172 -2.5303
  753MOL0     H 1654   7.030   7.507   0.224 -1.1212  0.9561 -0.2027
  753MOL0     H 1655   6.937   7.593   0.351 -0.3640 -0.3577  0.5817
  754MOL0     O 1656   5.766   1.571  11.114  0.1059 -0.6318  0.5176
  754MOL0     C 1657   5.722   1.485  11.041 -0.8511 -0.1131  0.9150
  754MOL0     O 1658   5.768   1.457  10.916 -0.1526 -0.2942  0.1314
  754MOL0     C 1659   5.820   1.557  10.834  0.1711 -0.4021 -1.5278
  754MOL0     C 1660   5.821   1.692  10.861  0.3707 -0.4752  0.7593
  754MOL0     C 1661   5.895   1.783  10.788 -0.2297  0.1381 -0.6514
  754MOL0     C 1662   5.970   1.741  10.680  0.0240 -0.5269  0.1707
  754MOL0     O 1663   6.031   1.847  10.614  0.0704 -0.2323 -0.2239
  754MOL0     C 1664   6.091   1.820  10.481  0.2814 -0.7904  0.1923
  754MOL0     C 1665   6.161   1.954  10.447 -0.9881  0.4368 -0.1909
  754MOL0     C 1666   6.242   1.925  10.319 -0.0302 -0.3480  0.8617
  754MOL0     C 1667   6.323   2.047  10.287 -0.4694 -0.8874 -0.0435
  754MOL0     C 1668   6.399   2.014  10.154 -0.4687 -0.1858 -0.0104
  754MOL0     C 1669   6.527   1.946  10.210  0.3407  0.2408  0.0694
  754MOL0     C 1670   6.612   1.906  10.086 -0.8312 -0.0182 -0.9819
  754MOL0     C 1671   6.749   1.849  10.134  0.1751 -0.2151  0.8806
  754MOL0     N 1672   6.734   1.704  10.137 -1.0852 -0.5297  0.2586
  754MOL0     C 1673   6.749   1.607  10.034 -0.2428 -0.4693  0.2996
  754MOL0     C 1674   6.728   1.491  10.105  0.2087 -0.6434  0.5865
  754MOL0     C 1675   6.700   1.357  10.051 -0.3289  0.0812 -0.5735
  754MOL0     C 1676   6.545   1.336  10.062  0.3329 -0.4614 -0.1553
  754MOL0     C 1677   6.496   1.267   9.938  0.2205 -0.8235 -0.6900
  754MOL0     C 1678   6.554   1.123   9.934  0.6249 -0.2179  0.7570
  754MOL0     O 1679   6.535   1.056  10.059 -0.1588  0.7423  0.3633
  754MOL0     C 1680   6.439   0.958  10.076  0.7754  0.3115 -0.1326
  754MOL0     C 1681   6.425   0.855   9.986 -0.3560 -0.3640 -0.1636
  754MOL0     C 1682   6.334   0.760  10.014 -1.0636 -0.8360 -0.6490
  754MOL0     C 1683   6.248   0.760  10.128 -0.3438 -0.4227  0.7810
  754MOL0     C 1684   6.155   0.649  10.157 -0.2161  0.2072 -0.0570
  754MOL0     O 1685   6.170   0.519  10.104 -0.7966  0.0467 -0.4471
  754MOL0     C 1686   6.067   0.433  10.100 -0.5700 -0.9377 -0.1221
  754MOL0     C 1687   5.944   0.459  10.045  0.0177  0.5807  0.2105
  754MOL0     C 1688   5.852   0.353  10.025 -0.1742 -0.0015  0.9818
  754MOL0     C 1689   5.888   0.219  10.053  0.5970  0.0364 -0.5557
  754MOL0     O 1690   5.814   0.109  10.031  0.4332  0.7113  0.2680
  754MOL0     C 1691   5.682   0.109   9.957 -0.8298 -0.5374  1.0676
  754MOL0     C 1692   5.638  -0.030   9.935 -0.5541 -0.0094  0.7137
  754MOL0     C 1693   5.704  -0.099   9.819 -0.2439  0.8030  0.2786
  754MOL0     C 1694   5.669  -0.253   9.834 -0.6004 -0.4864  0.4257
  754MOL0     C 1695   5.703  -0.336   9.702 -0.2819  0.5045 -0.2067
  754MOL0     C 1696   5.647  -0.478   9.708 -0.2930  0.3316  0.6023
  754MOL0     C 1697   5.509  -0.502   9.776 -1.4202  0.1995 -0.0017
  754MOL0     C 1698   5.458  -0.645   9.747  0.6446  0.3774  0.1529
  754MOL0    Cl 1699   5.591  -0.766   9.794 -0.1614  0.0630  1.0106
  754MOL0     C 1700   6.008   0.195  10.122  0.5262  0.2905  0.5847
  754MOL0     C 1701   6.098   0.300  10.147  0.1759  0.6313  0.4673
  754MOL0     O 1702   6.063   0.685  10.231  0.0789 -0.3589 -0.0111
  754MOL0     C 1703   6.271   0.863  10.225  0.5987  0.2751  0.0178
  754MOL0     C 1704   6.366   0.962  10.194 -1.6132  0.0290  0.0335
  754MOL0     N 1705   6.726   1.510  10.237 -0.0693  0.6625  0.1772
  754MOL0     N 1706   6.733   1.634  10.251 -0.2125 -0.5681 -0.9393
  754MOL0     C 1707   5.965   1.601  10.648  0.6723  0.4528 -0.4589
  754MOL0     C 1708   5.898   1.516  10.738 -0.1584 -0.3464  0.1141
  754MOL0     C 1709   5.629   1.383  11.085 -0.6911  0.0048 -0.1475
  754MOL0     C 1710   5.531   1.438  11.168 -0.2430  0.1260  0.3747
  754MOL0     C 1711   5.453   1.365  11.256 -0.2622  0.5759  0.3206
  754MOL0     C 1712   5.471   1.225  11.260  0.7727 -0.1783  0.5930
  754MOL0     O 1713   5.406   1.145  11.344 -0.3377  0.2478  0.5696
  754MOL0     C 1714   5.499   1.063  11.420 -0.0978 -0.2075  0.5713
  754MOL0     C 1715   5.410   1.002  11.535 -0.4590  0.1032 -0.2216
  754MOL0     C 1716   5.492   0.878  11.590 -0.3595 -0.0093  0.2670
  754MOL0     C 1717   5.409   0.820  11.705  0.1141  0.2838  0.5932
  754MOL0     C 1718   5.456   0.697  11.758  0.2739 -0.2437 -0.3940
  754MOL0     C 1719   5.516   0.602  11.815  0.5596  0.0184  0.2006
  754MOL0     C 1720   5.554   1.166  11.163  0.0937  0.1599 -0.0778
  754MOL0     C 1721   5.634   1.239  11.074 -0.8060 -0.1051  0.1769
  754MOL0     C 1722   5.720   1.168  10.959  0.1845 -0.6066 -0.6820
  754MOL0     H 1723   5.773   1.735  10.949 -3.2864 -2.0030 -0.2970
  754MOL0     H 1724   5.903   1.886  10.819 -3.8127 -0.0362  1.4578
  754MOL0     H 1725   6.152   1.729  10.479  2.6495  0.7140 -1.9924
  754MOL0     H 1726   6.003   1.813  10.417  0.8688  0.0477 -0.7254
  754MOL0     H 1727   6.223   2.005  10.521  0.2226  5.4879 -4.0923
  754MOL0     H 1728   6.083   2.028  10.425  0.0914  1.4347 -0.7497
  754MOL0     H 1729   6.177   1.916  10.230  1.9618 -0.4445 -0.6588
  754MOL0     H 1730   6.311   1.841  10.333  2.1512  0.5989 -2.8768
  754MOL0     H 1731   6.263   2.135  10.264  1.7622  0.1847 -2.1385
  754MOL0     H 1732   6.384   2.073  10.375 -0.4369  1.3549 -0.6603
  754MOL0     H 1733   6.342   1.942  10.095  1.3981 -1.4764 -0.2967
  754MOL0     H 1734   6.422   2.102  10.093 -0.3878  0.4931  0.9636
  754MOL0     H 1735   6.581   2.016  10.273 -1.3220  2.6190 -0.9995
  754MOL0     H 1736   6.507   1.862  10.278 -1.6994  1.2116  0.7554
  754MOL0     H 1737   6.628   2.000  10.032  2.0997  0.2774  0.1938
  754MOL0     H 1738   6.556   1.831  10.030  0.1709 -1.1694 -0.4976
  754MOL0     H 1739   6.829   1.876  10.065 -1.6006  1.4447 -0.6481
  754MOL0     H 1740   6.777   1.887  10.232 -1.2647  2.2998  0.3915
  754MOL0     H 1741   6.775   1.609   9.929  1.1139  0.5269  0.6334
  754MOL0     H 1742   6.729   1.360   9.946  0.4817  4.4273 -0.3863
  754MOL0     H 1743   6.763   1.283  10.102 -1.1136 -1.7805 -2.1634
  754MOL0     H 1744   6.531   1.270  10.148 -0.9874 -2.5583 -1.8632
  754MOL0     H 1745   6.484   1.426  10.077 -0.1910 -1.1920  2.6117
  754MOL0     H 1746   6.527   1.328   9.852 -0.2999 -2.0011 -1.7491
  754MOL0     H 1747   6.387   1.262   9.940  0.1772 -4.5870  3.8129
  754MOL0     H 1748   6.660   1.117   9.906  0.6171 -0.2075  0.7236
  754MOL0     H 1749   6.499   1.068   9.857 -2.9556  0.1704  2.8204
  754MOL0     H 1750   6.484   0.867   9.896 -1.8067 -0.8046 -1.2155
  754MOL0     H 1751   6.328   0.677   9.944  0.6201 -0.2370 -1.5380
  754MOL0     H 1752   5.912   0.561  10.027  2.0681  1.6889  2.3596
  754MOL0     H 1753   5.756   0.382   9.986  1.0123  4.3564  0.7718
  754MOL0     H 1754   5.607   0.159  10.019  0.1409 -0.1864  1.9695
  754MOL0     H 1755   5.685   0.158   9.859 -1.6091  0.4214  1.5058
  754MOL0     H 1756   5.650  -0.091  10.025  0.9623 -3.9471 -1.8896
  754MOL0     H 1757   5.530  -0.033   9.919 -0.4505 -4.1919 -0.3279
  754MOL0     H 1758   5.659  -0.068   9.724 -1.1400  1.1141  0.7945
  754MOL0     H 1759   5.812  -0.084   9.813  0.0112 -1.1283 -0.7910
  754MOL0     H 1760   5.562  -0.261   9.856 -0.7032 -0.8883 -0.1773
  754MOL0     H 1761   5.725  -0.292   9.919  0.3537  1.1615  0.6024
  754MOL0     H 1762   5.809  -0.318   9.681 -0.6626  6.0440  1.1304
  754MOL0     H 1763   5.653  -0.291   9.616  0.7434  0.8917 -0.6060
  754MOL0     H 1764   5.626  -0.497   9.602 -4.0684  1.8127  0.9266
  754MOL0     H 1765   5.722  -0.544   9.752  0.1197 -0.7504 -1.5992
  754MOL0     H 1766   5.440  -0.430   9.732  2.3940  3.5034 -1.1644
  754MOL0     H 1767   5.503  -0.489   9.885  1.8578 -1.8070  0.5620
  754MOL0     H 1768   5.364  -0.667   9.798  0.4815  0.2228 -0.2100
  754MOL0     H 1769   5.448  -0.644   9.638  0.4299 -0.8570  0.1492
  754MOL0     H 1770   6.040   0.094  10.148 -0.4294 -0.0520  0.4541
  754MOL0     H 1771   6.187   0.288  10.208  0.0151  0.4643  0.6738
  754MOL0     H 1772   6.212   0.857  10.315 -0.9790 -1.9212 -1.0735
  754MOL0     H 1773   6.386   1.035  10.271  4.1347 -0.4795 -0.5670
  754MOL0     H 1774   6.023   1.550  10.573  2.8470  0.3370  1.1899
  754MOL0     H 1775   5.921   1.412  10.717 -2.0189 -0.9512  0.8648
  754MOL0     H 1776   5.518   1.546  11.168  0.5141  0.2297 -0.5321
  754MOL0     H 1777   5.385   1.419  11.320  1.4743  3.1666  0.1332
  754MOL0     H 1778   5.563   1.135  11.472 -0.7058 -0.1208  1.2196
  754MOL0     H 1779   5.537   0.982  11.357 -0.1562 -1.6394  2.3043
  754MOL0     H 1780   5.314   0.972  11.492 -0.5858 -1.3381  0.9808
  754MOL0     H 1781   5.391   1.078  11.612  3.1916  2.8153 -1.6604
  754MOL0     H 1782   5.592   0.905  11.627 -0.4591 -0.7104  1.0660
  754MOL0     H 1783   5.506   0.806  11.509  0.2731 -0.9213  1.1595
  754MOL0     H 1784   5.421   0.900  11.778  1.0322 -0.3423  1.1486
  754MOL0     H 1785   5.304   0.823  11.677 -0.1061 -4.3536  0.1795
  754MOL0     H 1786   5.573   0.517  11.846 -0.9637 -1.5164 -0.9892
  754MOL0     H 1787   5.567   1.058  11.163  1.6299  0.3144 -0.8215
  754MOL0     H 1788   5.824   1.150  10.988  0.5063  0.9036 -0.8505
  754MOL0     H 1789   5.689   1.067  10.929  0.0755 -0.6329 -0.4829
  754MOL0     H 1790   5.733   1.228  10.869  1.8243 -0.1560 -0.1827
  755MOL0     O 1791   5.666   6.159   2.640 -0.5912 -0.5684 -0.3692
  755MOL0     C 1792   5.672   6.080   2.736  0.4792  0.5398  0.1098
  755MOL0     O 1793   5.589   5.972   2.744 -0.3579  0.2463  0.4999
  755MOL0     C 1794   5.496   5.946   2.642  0.5851 -0.9965 -0.2058
  755MOL0     C 1795   5.373   6.015   2.628 -0.0327 -0.0636  0.0735
  755MOL0     C 1796   5.287   5.981   2.519  0.0610  0.1799  0.1454
  755MOL0     C 1797   5.333   5.897   2.419 -0.6490 -0.8283  0.0235
  755MOL0     O 1798   5.269   5.853   2.303  0.2748 -0.6715 -0.6320
  755MOL0     C 1799   5.147   5.909   2.265 -0.0536 -0.9744 -0.0235
  755MOL0     C 1800   5.044   5.807   2.322 -0.4422 -0.2864 -0.7243
  755MOL0     C 1801   4.909   5.803   2.265  0.3393  1.2115  0.1365
  755MOL0     C 1802   4.856   5.949   2.245  0.5818 -0.5516 -0.3767
  755MOL0     C 1803   4.698   5.957   2.207 -0.7876  0.7165  0.7103
  755MOL0     C 1804   4.678   5.881   2.071 -0.1459 -0.2825  0.6502
  755MOL0     C 1805   4.550   5.921   1.988 -0.6221 -0.7062  0.4663
  755MOL0     C 1806   4.520   5.840   1.866  0.2697  0.5327  0.4181
  755MOL0     N 1807   4.436   5.728   1.913 -0.7733  0.2805  0.4279
  755MOL0     C 1808   4.487   5.611   1.971  0.6496  0.5947 -0.5020
  755MOL0     C 1809   4.394   5.513   1.949 -0.0424  0.1015 -1.3400
  755MOL0     C 1810   4.407   5.375   1.989 -0.1606  0.1640  0.3942
  755MOL0     C 1811   4.475   5.289   1.878  0.3453 -0.1404 -0.5144
  755MOL0     C 1812   4.639   5.305   1.878  0.2853  0.0061  0.4471
  755MOL0     C 1813   4.698   5.217   1.771 -0.0471  0.0774  0.1373
  755MOL0     O 1814   4.838   5.183   1.796 -0.3058 -0.2638  0.0491
  755MOL0     C 1815   4.900   5.073   1.750  0.7064  0.0258  0.2819
  755MOL0     C 1816   4.849   4.992   1.653  0.7529  0.0145 -0.1291
  755MOL0     C 1817   4.917   4.877   1.605 -0.6326 -0.7168  0.5258
  755MOL0     C 1818   5.039   4.844   1.671  0.5773 -0.2333  0.8205
  755MOL0     C 1819   5.119   4.719   1.644  0.3228  0.0434  0.3334
  755MOL0     O 1820   5.248   4.716   1.698  1.1831  0.1159  0.3083
  755MOL0     C 1821   5.315   4.598   1.697 -0.3132  0.5441 -0.1575
  755MOL0     C 1822   5.324   4.505   1.801 -0.6615 -0.0277 -0.2215
  755MOL0     C 1823   5.408   4.389   1.789  0.2856 -0.7499  1.0721
  755MOL0     C 1824   5.482   4.363   1.674 -0.1215  1.0808 -0.5444
  755MOL0     O 1825   5.570   4.256   1.686 -0.4303  0.0889 -0.1896
  755MOL0     C 1826   5.652   4.226   1.575  0.3613 -0.4279  0.0567
  755MOL0     C 1827   5.733   4.102   1.611 -0.4004  0.2968 -0.1766
  755MOL0     C 1828   5.805   4.035   1.492  0.8217 -0.2244  0.0190
  755MOL0     C 1829   5.948   3.986   1.515 -0.5001  0.0503  0.8570
  755MOL0     C 1830   5.955   3.906   1.642 -0.3152  0.2782 -0.8946
  755MOL0     C 1831   6.057   3.787   1.625  1.2439  0.1790  0.6600
  755MOL0     C 1832   6.202   3.834   1.620 -0.8695 -0.0185 -0.1952
  755MOL0     C 1833   6.300   3.712   1.612 -0.1140  0.0400 -0.1380
  755MOL0    Cl 1834   6.291   3.637   1.461 -0.9660 -0.5599  0.2723
  755MOL0     C 1835   5.473   4.455   1.569  0.8455 -0.6693 -0.0574
  755MOL0     C 1836   5.388   4.560   1.580  0.1263  0.3744  0.5162
  755MOL0     O 1837   5.069   4.632   1.579  0.0517  0.1738  0.5039
  755MOL0     C 1838   5.092   4.928   1.766 -0.4304  0.1747  0.9250
  755MOL0     C 1839   5.019   5.037   1.810 -0.4557 -0.0543 -0.5323
  755MOL0     N 1840   4.284   5.569   1.881  0.6899 -0.3162  0.2919
  755MOL0     N 1841   4.321   5.692   1.858 -0.1745  0.1839 -0.1167
  755MOL0     C 1842   5.451   5.836   2.438 -0.4107  0.8353 -0.4652
  755MOL0     C 1843   5.541   5.860   2.539 -0.0527  0.0429 -0.0163
  755MOL0     C 1844   5.759   6.116   2.852  0.2617  0.5066 -0.7081
  755MOL0     C 1845   5.833   6.007   2.908  0.5265 -0.0752  0.0883
  755MOL0     C 1846   5.937   6.041   2.995 -0.3219  0.4482  1.1000
  755MOL0     C 1847   5.958   6.170   3.047 -0.3055  0.0249 -0.0235
  755MOL0     O 1848   6.042   6.178   3.154 -1.3470  0.0182 -0.0060
  755MOL0     C 1849   6.130   6.293   3.162 -0.2333  0.2404 -0.0717
  755MOL0     C 1850   6.117   6.355   3.304  0.1926  0.1569  0.3789
  755MOL0     C 1851   5.993   6.434   3.334  0.2158 -0.1621 -0.7805
  755MOL0     C 1852   5.974   6.571   3.252 -0.1584  0.4513 -0.3998
  755MOL0     C 1853   6.077   6.662   3.303 -0.5146 -0.2336  0.1318
  755MOL0     C 1854   6.155   6.750   3.351  1.0803  0.8472  0.4335
  755MOL0     C 1855   5.870   6.270   3.011 -0.0064 -0.0160  0.2234
  755MOL0     C 1856   5.775   6.245   2.912 -0.6980  0.4971  0.4988
  755MOL0     C 1857   5.674   6.353   2.888  0.3484 -0.4445  0.2861
  755MOL0     H 1858   5.350   6.104   2.687  2.0301 -0.3125  1.3300
  755MOL0     H 1859   5.194   6.034   2.504  0.5901  0.7739 -1.2214
  755MOL0     H 1860   5.126   6.009   2.303  1.1149 -0.6029 -0.3034
  755MOL0     H 1861   5.157   5.912   2.156  0.6727 -3.1338 -0.0587
  755MOL0     H 1862   5.031   5.818   2.430 -1.5266  2.8361 -1.0699
  755MOL0     H 1863   5.088   5.708   2.310  0.6243  0.0495  0.1526
  755MOL0     H 1864   4.843   5.734   2.319  0.8731  2.4294  2.4780
  755MOL0     H 1865   4.910   5.763   2.163  1.9598  1.5716 -0.0141
  755MOL0     H 1866   4.869   6.022   2.326 -1.1109  1.8896 -2.1597
  755MOL0     H 1867   4.907   5.990   2.157  0.6582  0.1156 -0.0313
  755MOL0     H 1868   4.634   5.928   2.291 -0.8153  3.7226  1.8605
  755MOL0     H 1869   4.680   6.062   2.182  0.3176  0.8905  0.5985
  755MOL0     H 1870   4.762   5.887   2.001 -1.1536 -2.3111 -0.8215
  755MOL0     H 1871   4.678   5.774   2.094  0.9562 -0.8287 -1.5614
  755MOL0     H 1872   4.561   6.019   1.941 -2.1284 -1.9068 -2.7490
  755MOL0     H 1873   4.461   5.931   2.051  0.3810 -0.4279  1.8735
  755MOL0     H 1874   4.476   5.898   1.784 -2.4630 -2.4876 -0.4666
  755MOL0     H 1875   4.608   5.785   1.831 -0.7877 -0.9987  0.1045
  755MOL0     H 1876   4.588   5.595   2.008  0.2850  2.7198  1.6716
  755MOL0     H 1877   4.475   5.357   2.072 -0.6077 -0.0503  0.7162
  755MOL0     H 1878   4.304   5.340   2.004 -0.2417 -0.9542 -2.1217
  755MOL0     H 1879   4.442   5.185   1.890 -1.4836  0.4170 -0.4130
  755MOL0     H 1880   4.435   5.320   1.781  0.2971  1.9263  0.1268
  755MOL0     H 1881   4.689   5.279   1.972  2.3622  0.4925 -0.4653
  755MOL0     H 1882   4.672   5.406   1.855  1.4411 -0.0928  1.5327
  755MOL0     H 1883   4.689   5.283   1.685 -0.1364 -0.3399 -0.1787
  755MOL0     H 1884   4.631   5.133   1.749 -1.6591  1.1506  0.8315
  755MOL0     H 1885   4.753   5.021   1.613  0.1549  0.4643  1.5533
  755MOL0     H 1886   4.890   4.822   1.515  2.5393  1.4975 -2.0042
  755MOL0     H 1887   5.270   4.528   1.893  2.3056 -0.2858  1.7507
  755MOL0     H 1888   5.415   4.309   1.862  2.0143 -1.5889  0.0432
  755MOL0     H 1889   5.584   4.218   1.489 -0.0291 -1.5475  0.4624
  755MOL0     H 1890   5.716   4.311   1.548  0.0119  0.0716  0.7933
  755MOL0     H 1891   5.798   4.110   1.699 -3.8234 -0.0344  2.5872
  755MOL0     H 1892   5.663   4.025   1.646  1.2159 -1.5963 -0.9217
  755MOL0     H 1893   5.746   3.946   1.474  1.3285 -0.2782 -1.4785
  755MOL0     H 1894   5.795   4.094   1.401 -1.2967 -2.7801 -1.5291
  755MOL0     H 1895   6.011   4.075   1.516 -0.3075  0.1544 -3.1864
  755MOL0     H 1896   5.979   3.922   1.432 -1.4552  1.5751 -0.7526
  755MOL0     H 1897   5.860   3.868   1.680  0.2803 -1.4375 -1.0235
  755MOL0     H 1898   5.992   3.970   1.722  1.0506  1.3544 -2.3325
  755MOL0     H 1899   6.029   3.707   1.694 -2.6443  0.5801 -0.2342
  755MOL0     H 1900   6.039   3.737   1.530 -0.0308  0.1489  0.9027
  755MOL0     H 1901   6.225   3.894   1.709 -0.2630 -3.1487  1.9599
  755MOL0     H 1902   6.223   3.900   1.536 -1.1647 -1.5638 -1.5201
  755MOL0     H 1903   6.402   3.744   1.632  0.4462 -0.1422 -2.4764
  755MOL0     H 1904   6.275   3.641   1.692  1.6165  0.6434  1.0005
  755MOL0     H 1905   5.535   4.446   1.480  0.3234 -1.5447 -0.3416
  755MOL0     H 1906   5.387   4.630   1.496 -2.1026  0.1695  0.2939
  755MOL0     H 1907   5.178   4.898   1.824  1.6447 -0.6993 -2.3526
  755MOL0     H 1908   5.057   5.072   1.905 -0.8282 -2.8998  0.7698
  755MOL0     H 1909   5.476   5.756   2.369 -2.5444  1.6761 -2.3158
  755MOL0     H 1910   5.627   5.799   2.566  0.6226  0.8385 -0.3034
  755MOL0     H 1911   5.820   5.903   2.880 -1.7087  0.1382  0.1741
  755MOL0     H 1912   5.995   5.961   3.041  0.1016 -1.3541 -2.2557
  755MOL0     H 1913   6.109   6.368   3.085  0.1922 -1.7098 -2.2113
  755MOL0     H 1914   6.232   6.259   3.142 -0.9313 -1.0971 -1.5497
  755MOL0     H 1915   6.203   6.421   3.316 -1.1532  2.2794 -1.0543
  755MOL0     H 1916   6.127   6.273   3.377  3.1051  1.8414  2.0634
  755MOL0     H 1917   6.005   6.453   3.441  2.0198 -3.3397 -0.2989
  755MOL0     H 1918   5.908   6.365   3.328 -0.5311  0.5215  0.8980
  755MOL0     H 1919   5.975   6.564   3.143  0.1828  1.4005 -0.4695
  755MOL0     H 1920   5.877   6.618   3.270  0.0743  0.5511  0.6382
  755MOL0     H 1921   6.213   6.830   3.391  1.3940  1.0488 -0.4040
  755MOL0     H 1922   5.853   6.364   3.062 -2.3818 -1.4086  2.1949
  755MOL0     H 1923   5.713   6.438   2.830 -0.4754  1.8597  2.8946
  755MOL0     H 1924   5.577   6.323   2.846 -0.9320  5.4874 -2.1216
  755MOL0     H 1925   5.657   6.408   2.981 -1.3866 -1.4510  0.6046
  756MOL0     O 1926   9.067   7.364   0.177 -0.3717 -0.2461 -0.3447
  756MOL0     C 1927   8.951   7.327   0.164 -0.9803  0.3551  0.2372
  756MOL0     O 1928   8.865   7.308   0.268 -0.8611 -0.2731  0.0107
  756MOL0     C 1929   8.910   7.318   0.396  0.3000  0.1525 -0.2874
  756MOL0     C 1930   8.993   7.416   0.450 -0.1226  0.0896 -0.6899
  756MOL0     C 1931   9.035   7.413   0.587  0.6359  0.1921 -0.2207
  756MOL0     C 1932   8.993   7.306   0.670 -0.3228  0.3868 -0.3967
  756MOL0     O 1933   9.055   7.270   0.792  0.4459  0.3523  0.0866
  756MOL0     C 1934   9.150   7.362   0.855  0.5027 -0.1664 -0.0072
  756MOL0     C 1935   9.166   7.324   1.001  0.5617  0.1353 -0.7011
  756MOL0     C 1936   9.256   7.200   1.001  0.1320 -0.7549 -1.1681
  756MOL0     C 1937   9.398   7.243   0.988 -0.7162  0.6159  0.2292
  756MOL0     C 1938   9.503   7.134   0.958 -0.8929 -0.1263  0.4204
  756MOL0     C 1939   9.648   7.189   0.989 -0.5659  0.3745  0.3072
  756MOL0     C 1940   9.749   7.072   0.988 -0.0961  0.4448 -0.7593
  756MOL0     C 1941   9.894   7.092   1.041 -0.5804  0.4931  0.9914
  756MOL0     N 1942   9.984   7.121   0.936  0.3125  0.5792 -0.4971
  756MOL0     C 1943  10.051   7.026   0.863 -0.3283 -0.3030 -0.2249
  756MOL0     C 1944  10.139   7.098   0.792  0.4565 -0.0500 -0.9398
  756MOL0     C 1945  10.244   7.048   0.703  0.9785  0.9268 -0.6791
  756MOL0     C 1946  10.230   7.105   0.561 -0.5159 -0.6937  0.3085
  756MOL0     C 1947  10.085   7.092   0.502 -0.9338 -0.9630  0.0569
  756MOL0     C 1948  10.065   7.100   0.363 -0.4669 -0.5289  0.3475
  756MOL0     O 1949  10.142   7.212   0.305 -0.9305  0.2783 -0.1345
  756MOL0     C 1950  10.146   7.216   0.171 -0.9777  0.3332 -0.0132
  756MOL0     C 1951  10.071   7.138   0.082 -0.3992  0.0690 -1.0590
  756MOL0     C 1952  10.091   7.144  -0.060  0.5748 -0.3018 -0.8212
  756MOL0     C 1953  10.204   7.214  -0.111  0.8029 -0.8010  0.3316
  756MOL0     C 1954  10.223   7.214  -0.259  0.0297 -0.9066 -0.7353
  756MOL0     O 1955  10.167   7.115  -0.344 -0.2242 -0.0918 -0.1258
  756MOL0     C 1956  10.199   7.138  -0.475 -0.6458 -0.8129 -0.6390
  756MOL0     C 1957  10.125   7.224  -0.566 -0.6077  0.1447 -1.0286
  756MOL0     C 1958  10.158   7.248  -0.695  0.5252 -0.3051  0.5739
  756MOL0     C 1959  10.260   7.184  -0.753  0.2536 -0.6848  0.0744
  756MOL0     O 1960  10.272   7.192  -0.886  0.3925 -0.4466 -0.4939
  756MOL0     C 1961  10.401   7.177  -0.941  0.1646 -0.1428 -0.0473
  756MOL0     C 1962  10.383   7.232  -1.075  0.0542  0.1599  1.1151
  756MOL0     C 1963  10.273   7.169  -1.161 -0.1101 -0.0769 -0.4676
  756MOL0     C 1964  10.278   7.019  -1.170  0.9471 -0.6591 -0.0946
  756MOL0     C 1965  10.174   6.974  -1.276  0.2713  0.2265  0.2407
  756MOL0     C 1966  10.151   6.822  -1.273 -0.2241  0.6766  0.1964
  756MOL0     C 1967  10.026   6.770  -1.349  0.0347 -0.2035  0.0512
  756MOL0     C 1968  10.003   6.620  -1.342 -0.3520  0.2985 -0.1030
  756MOL0    Cl 1969  10.142   6.536  -1.393  0.0702 -0.0009 -0.3045
  756MOL0     C 1970  10.342   7.101  -0.673 -0.6215 -0.4230 -0.5276
  756MOL0     C 1971  10.315   7.081  -0.533 -0.4537 -0.4011  0.0135
  756MOL0     O 1972  10.271   7.322  -0.300 -0.3831  0.4382 -0.4945
  756MOL0     C 1973  10.273   7.296  -0.022  0.0280 -0.7615 -0.7260
  756MOL0     C 1974  10.235   7.298   0.115 -0.3097 -0.6969  0.6015
  756MOL0     N 1975  10.107   7.231   0.806  0.2502 -0.4144  0.3058
  756MOL0     N 1976  10.023   7.250   0.896  0.4251  0.5656 -0.1026
  756MOL0     C 1977   8.916   7.209   0.622  0.5115 -0.2088  0.4927
  756MOL0     C 1978   8.878   7.220   0.484  0.5166 -0.0359  1.2933
  756MOL0     C 1979   8.889   7.288   0.036  0.8150  0.2019 -0.0986
  756MOL0     C 1980   8.781   7.193   0.036 -0.4765  0.5333 -0.1052
  756MOL0     C 1981   8.746   7.139  -0.087  0.7766 -0.3465 -0.2070
  756MOL0     C 1982   8.788   7.198  -0.208 -0.6713  0.9759 -0.2796
  756MOL0     O 1983   8.746   7.163  -0.333  0.8288 -0.4636 -0.5848
  756MOL0     C 1984   8.668   7.037  -0.336 -0.0998 -0.7275  0.0276
  756MOL0     C 1985   8.635   6.993  -0.479  0.8266  0.4189 -0.2300
  756MOL0     C 1986   8.596   6.844  -0.482 -0.5697 -0.0591 -0.4089
  756MOL0     C 1987   8.477   6.813  -0.398 -0.2396  0.0862  0.0424
  756MOL0     C 1988   8.450   6.672  -0.402 -0.2655 -0.5354 -0.2468
  756MOL0     C 1989   8.427   6.556  -0.417 -0.9426  0.0725  0.1762
  756MOL0     C 1990   8.879   7.302  -0.211 -0.5529 -0.3071  0.3579
  756MOL0     C 1991   8.927   7.350  -0.095  0.5339  0.7145  0.0537
  756MOL0     C 1992   9.037   7.451  -0.106  0.1566  0.3236 -0.6916
  756MOL0     H 1993   9.023   7.499   0.387 -0.1870  1.1159  0.5826
  756MOL0     H 1994   9.089   7.502   0.619  1.4870 -0.1445 -0.7109
  756MOL0     H 1995   9.243   7.381   0.801  1.3857 -2.0845  0.7513
  756MOL0     H 1996   9.104   7.460   0.868  2.5475  1.1381 -2.0334
  756MOL0     H 1997   9.064   7.301   1.035 -0.0228  2.6253 -0.5958
  756MOL0     H 1998   9.202   7.402   1.069  2.9644 -2.9399  1.9205
  756MOL0     H 1999   9.238   7.131   0.917 -3.4029  0.8000 -1.8617
  756MOL0     H 2000   9.236   7.134   1.086  0.6929 -1.0390 -1.2513
  756MOL0     H 2001   9.402   7.304   0.897  3.8360 -1.3432 -1.1994
  756MOL0     H 2002   9.428   7.310   1.069 -1.8246  0.0968  1.0943
  756MOL0     H 2003   9.492   7.050   1.027  0.6371  1.3273  2.5574
  756MOL0     H 2004   9.488   7.097   0.856 -0.1615  2.0735 -0.5545
  756MOL0     H 2005   9.671   7.267   0.915 -1.9890  1.1639  0.6444
  756MOL0     H 2006   9.656   7.243   1.083 -1.8633 -1.0323  1.2826
  756MOL0     H 2007   9.750   7.017   0.894  0.4444 -1.4168  0.2808
  756MOL0     H 2008   9.706   7.001   1.060  0.4115 -1.1853 -2.0173
  756MOL0     H 2009   9.899   7.176   1.112 -1.3627  1.1484  0.2890
  756MOL0     H 2010   9.916   6.996   1.089 -0.9456 -1.3323 -2.2530
  756MOL0     H 2011  10.041   6.919   0.879  2.2163 -0.2532  2.4249
  756MOL0     H 2012  10.342   7.080   0.740  1.6057 -1.5225 -0.0449
  756MOL0     H 2013  10.242   6.939   0.704 -0.5267  0.9344  0.2792
  756MOL0     H 2014  10.268   7.206   0.549 -4.2216  1.3961  3.7341
  756MOL0     H 2015  10.293   7.048   0.491  0.5649 -2.6074  2.6886
  756MOL0     H 2016  10.026   7.175   0.541  2.1620  1.4423  0.0546
  756MOL0     H 2017  10.050   6.998   0.546 -1.4268 -0.0987  1.5988
  756MOL0     H 2018   9.956   7.109   0.352 -0.4413 -0.5941  0.0501
  756MOL0     H 2019  10.106   7.008   0.321  1.8369  0.0666  1.1274
  756MOL0     H 2020   9.996   7.065   0.113 -0.5315  0.3898 -0.6092
  756MOL0     H 2021  10.035   7.079  -0.126  1.7843 -0.8771 -1.3095
  756MOL0     H 2022  10.042   7.270  -0.513 -1.3902 -2.1288 -0.1685
  756MOL0     H 2023  10.103   7.313  -0.761  0.0485  0.3098  1.5476
  756MOL0     H 2024  10.471   7.240  -0.886  2.3116  1.9130 -4.6887
  756MOL0     H 2025  10.435   7.074  -0.955  1.0362  0.3429 -1.7510
  756MOL0     H 2026  10.365   7.338  -1.056  3.2371  0.4950  2.8057
  756MOL0     H 2027  10.477   7.214  -1.126 -1.0044  1.0983 -1.3185
  756MOL0     H 2028  10.175   7.206  -1.129  1.1500  1.7498  1.5850
  756MOL0     H 2029  10.307   7.198  -1.261  1.3331 -0.1369 -0.0258
  756MOL0     H 2030  10.265   6.979  -1.069  0.3112  0.6606  0.3593
  756MOL0     H 2031  10.374   6.985  -1.211 -0.0919 -2.4208 -1.1999
  756MOL0     H 2032  10.204   6.993  -1.379  2.6023  0.2117  0.8635
  756MOL0     H 2033  10.081   7.021  -1.241  0.4192  0.6306  0.0933
  756MOL0     H 2034  10.234   6.771  -1.324 -0.1673  1.6471 -0.7231
  756MOL0     H 2035  10.136   6.788  -1.170 -1.8213 -1.3343 -0.6324
  756MOL0     H 2036  10.036   6.801  -1.454 -1.1539  0.7519  0.1924
  756MOL0     H 2037   9.934   6.814  -1.309 -0.9025 -3.9832  2.5639
  756MOL0     H 2038   9.982   6.602  -1.236  2.4652  1.2478  0.7009
  756MOL0     H 2039   9.921   6.573  -1.397 -1.9116  0.9315  1.5937
  756MOL0     H 2040  10.432   7.054  -0.712  0.2417  0.7533 -0.0129
  756MOL0     H 2041  10.385   7.030  -0.467 -0.9819  2.6923  3.2693
  756MOL0     H 2042  10.354   7.349  -0.072  1.1281 -2.2476 -0.6075
  756MOL0     H 2043  10.277   7.382   0.168  0.9623  1.3009 -3.2307
  756MOL0     H 2044   8.871   7.125   0.674 -1.9246  1.7383  1.7010
  756MOL0     H 2045   8.809   7.150   0.439 -3.5161  3.0670  2.1080
  756MOL0     H 2046   8.744   7.158   0.132  0.1464  1.7299  0.5960
  756MOL0     H 2047   8.673   7.061  -0.069  0.8869 -0.4254 -0.0952
  756MOL0     H 2048   8.580   7.055  -0.274  0.6485  4.2915  0.1032
  756MOL0     H 2049   8.738   6.961  -0.300  1.4144  0.0435 -1.1319
  756MOL0     H 2050   8.726   7.014  -0.536  3.2123 -1.4795  2.5531
  756MOL0     H 2051   8.552   7.054  -0.515  0.8244  1.2487  1.1065
  756MOL0     H 2052   8.681   6.779  -0.458  0.8326  0.7737 -2.7698
  756MOL0     H 2053   8.567   6.822  -0.585 -1.3629 -1.3410  0.0722
  756MOL0     H 2054   8.505   6.825  -0.294  4.8924  1.0814 -1.2087
  756MOL0     H 2055   8.387   6.873  -0.419 -1.4066 -1.1896  1.2454
  756MOL0     H 2056   8.389   6.460  -0.446 -3.4697  0.7339  1.0250
  756MOL0     H 2057   8.907   7.348  -0.305  1.2192 -2.3729 -0.2025
  756MOL0     H 2058   9.039   7.529  -0.029 -1.2180 -0.4280  0.1549
  756MOL0     H 2059   9.137   7.407  -0.111  0.2419  0.5044 -0.6130
  756MOL0     H 2060   9.031   7.508  -0.199  2.4518  0.1613 -1.0053
  757MOL0     O 2061   1.853   9.422   6.942 -0.4334  0.9533  0.1075
  757MOL0     C 2062   1.739   9.470   6.925 -0.6012 -0.1914 -0.3778
  757MOL0     O 2063   1.703   9.595   6.966 -0.2418 -0.1095  0.0925
  757MOL0     C 2064   1.783   9.659   7.059 -0.0174 -0.5332  0.6852
  757MOL0     C 2065   1.851   9.781   7.037 -0.8093 -0.2048  0.6931
  757MOL0     C 2066   1.925   9.844   7.139 -0.7262  0.4745 -0.4769
  757MOL0     C 2067   1.942   9.784   7.265  0.4190 -0.4168  0.5019
  757MOL0     O 2068   2.007   9.857   7.360  1.0229 -0.0683  0.0568
  757MOL0     C 2069   2.130   9.803   7.409  0.9494  0.0896 -0.6262
  757MOL0     C 2070   2.140   9.822   7.564 -0.2122  0.8660 -0.3895
  757MOL0     C 2071   2.177   9.965   7.624 -0.0334  0.0347 -0.3725
  757MOL0     C 2072   2.097  10.079   7.555  0.0783  0.1132  0.6804
  757MOL0     C 2073   2.134  10.204   7.635  0.4090  0.5208 -0.2539
  757MOL0     C 2074   2.055  10.323   7.602 -0.2485  0.0962 -0.4633
  757MOL0     C 2075   2.107  10.445   7.669  0.6599 -0.0159 -0.1635
  757MOL0     C 2076   2.054  10.469   7.805 -0.8143 -0.7070  0.1949
  757MOL0     N 2077   2.071  10.611   7.838  1.1872  0.2181  0.0044
  757MOL0     C 2078   2.191  10.669   7.866  0.1640  0.2466 -0.1525
  757MOL0     C 2079   2.175  10.798   7.883 -0.4110 -0.3617  0.0375
  757MOL0     C 2080   2.270  10.908   7.932 -0.2208 -0.2528  0.3657
  757MOL0     C 2081   2.409  10.882   7.884 -0.4313  0.1836 -1.0644
  757MOL0     C 2082   2.512  10.986   7.932  0.6323  0.8994  0.0379
  757MOL0     C 2083   2.548  11.096   7.841  0.8106 -0.3691 -0.5891
  757MOL0     O 2084   2.603  11.063   7.715 -0.5037  0.5146  0.1676
  757MOL0     C 2085   2.522  11.062   7.597 -0.8335  0.4848 -0.4889
  757MOL0     C 2086   2.592  11.054   7.475  0.4399 -0.2432 -0.4231
  757MOL0     C 2087   2.522  11.063   7.351  0.4884 -0.5698 -0.0750
  757MOL0     C 2088   2.381  11.079   7.352  0.1009 -0.2599 -0.3338
  757MOL0     C 2089   2.296  11.082   7.226 -0.0279  0.9760  0.6744
  757MOL0     O 2090   2.168  11.032   7.223  0.1675 -0.2464  0.0819
  757MOL0     C 2091   2.104  11.017   7.101  0.1829  0.2160  0.0307
  757MOL0     C 2092   1.966  11.036   7.105  0.3212  0.5347  0.3436
  757MOL0     C 2093   1.886  11.001   6.992  0.8571 -0.1136 -0.2924
  757MOL0     C 2094   1.945  10.953   6.878  0.3442 -0.3112  0.5490
  757MOL0     O 2095   1.857  10.929   6.776 -0.4791  0.7951  0.1427
  757MOL0     C 2096   1.899  10.991   6.652  0.7493 -0.0204 -0.2744
  757MOL0     C 2097   1.890  11.145   6.651  0.1108 -0.0793  0.1501
  757MOL0     C 2098   1.755  11.193   6.690 -0.0616  0.8929 -0.0358
  757MOL0     C 2099   1.743  11.344   6.679 -0.4513  0.2964 -0.2919
  757MOL0     C 2100   1.610  11.416   6.714 -0.2789 -0.7785  0.0459
  757MOL0     C 2101   1.513  11.373   6.600 -0.4821 -0.1533 -0.4931
  757MOL0     C 2102   1.380  11.431   6.617  0.2360 -0.1191  1.0430
  757MOL0     C 2103   1.289  11.395   6.495 -0.9706 -0.3214  0.0060
  757MOL0    Cl 2104   1.129  11.484   6.501  0.1643  0.2542  0.1162
  757MOL0     C 2105   2.087  10.945   6.870 -0.6164 -0.6575  0.8251
  757MOL0     C 2106   2.168  10.978   6.982  0.5854  0.3090  0.1465
  757MOL0     O 2107   2.365  11.130   7.129 -0.1189 -0.5316  0.0116
  757MOL0     C 2108   2.310  11.083   7.472  0.3515  0.1381  0.8974
  757MOL0     C 2109   2.381  11.074   7.594  0.0450 -0.6677 -0.0268
  757MOL0     N 2110   2.040  10.819   7.879 -0.4628 -0.8270  0.8542
  757MOL0     N 2111   1.980  10.708   7.859 -0.3793 -0.0707  0.5113
  757MOL0     C 2112   1.876   9.664   7.288  0.1750  0.8674  0.8125
  757MOL0     C 2113   1.808   9.598   7.181  0.6331 -0.2392 -0.3604
  757MOL0     C 2114   1.622   9.383   6.881 -1.1462 -0.1092 -0.5985
  757MOL0     C 2115   1.656   9.246   6.858 -0.1545  0.8932  0.3610
  757MOL0     C 2116   1.563   9.149   6.831  0.0661 -0.3294  0.4581
  757MOL0     C 2117   1.432   9.177   6.833 -0.3285 -0.4924 -0.0128
  757MOL0     O 2118   1.343   9.079   6.824 -0.0021 -0.1964  0.3500
  757MOL0     C 2119   1.205   9.089   6.872 -1.4049  0.2250  0.6222
  757MOL0     C 2120   1.111   9.150   6.768 -0.2096 -0.0657 -0.6396
  757MOL0     C 2121   1.092   9.060   6.639  0.3965 -0.8510  0.0378
  757MOL0     C 2122   1.196   9.089   6.531 -0.4021 -0.5618  0.3987
  757MOL0     C 2123   1.172   9.004   6.412 -0.1042  0.4078 -0.5774
  757MOL0     C 2124   1.136   8.918   6.337  0.6778  0.8495  0.4379
  757MOL0     C 2125   1.397   9.313   6.848 -0.2166  1.0384  0.1306
  757MOL0     C 2126   1.486   9.409   6.866  0.5409  0.0360 -0.0756
  757MOL0     C 2127   1.435   9.548   6.895 -0.2575 -0.7553  0.6494
  757MOL0     H 2128   1.839   9.826   6.939  0.4434 -2.6316 -0.6706
  757MOL0     H 2129   1.967   9.944   7.132 -2.1152  1.1069 -0.0031
  757MOL0     H 2130   2.128   9.695   7.389 -0.7855 -0.1184  0.3580
  757MOL0     H 2131   2.209   9.861   7.361 -3.3561  5.1350 -2.5649
  757MOL0     H 2132   2.218   9.755   7.603 -0.8345 -0.7950 -1.8580
  757MOL0     H 2133   2.052   9.774   7.607  0.0120 -0.0634 -0.9362
  757MOL0     H 2134   2.282   9.988   7.606  0.0398  4.4408  3.7024
  757MOL0     H 2135   2.154   9.963   7.730  1.2553  0.0975 -0.0800
  757MOL0     H 2136   2.120  10.097   7.450  0.0622  4.4261  1.2400
  757MOL0     H 2137   1.990  10.063   7.565 -0.4079  2.9893  1.0703
  757MOL0     H 2138   2.102  10.196   7.740  1.3626  0.9965  0.0764
  757MOL0     H 2139   2.240  10.207   7.611  0.1103 -3.2101 -3.0049
  757MOL0     H 2140   2.060  10.335   7.493 -0.5068 -1.6203 -0.6905
  757MOL0     H 2141   1.947  10.310   7.613 -0.3264  0.6792 -0.4940
  757MOL0     H 2142   2.075  10.519   7.595  4.6483 -0.7575 -2.9668
  757MOL0     H 2143   2.214  10.465   7.670  0.6610  0.1908  2.2966
  757MOL0     H 2144   1.948  10.444   7.810 -0.5772 -1.4989  4.1676
  757MOL0     H 2145   2.100  10.401   7.877 -2.1264  0.4625  2.2048
  757MOL0     H 2146   2.285  10.616   7.868 -0.2484 -0.5271 -0.6867
  757MOL0     H 2147   2.239  11.002   7.887 -2.4110 -1.4255 -0.7340
  757MOL0     H 2148   2.265  10.906   8.041 -0.3409 -2.2448  0.3666
  757MOL0     H 2149   2.437  10.789   7.934 -1.8119 -0.4873 -1.4973
  757MOL0     H 2150   2.423  10.851   7.780  2.1504 -0.4479 -0.6237
  757MOL0     H 2151   2.605  10.933   7.953 -0.0073 -0.2151  0.1321
  757MOL0     H 2152   2.495  11.026   8.032  4.9071 -2.1984  2.3497
  757MOL0     H 2153   2.618  11.166   7.888 -1.0292  2.4493 -1.7617
  757MOL0     H 2154   2.465  11.166   7.824 -1.0614 -2.5589 -0.8935
  757MOL0     H 2155   2.695  11.024   7.489 -0.0635 -0.9579  2.5001
  757MOL0     H 2156   2.570  11.045   7.255 -1.4646 -0.4485 -1.1387
  757MOL0     H 2157   1.920  11.059   7.201  0.5414 -1.1663  0.8876
  757MOL0     H 2158   1.779  11.019   7.004  0.8270 -0.9579  0.8453
  757MOL0     H 2159   1.998  10.975   6.609 -1.2899 -2.2058 -4.8947
  757MOL0     H 2160   1.832  10.951   6.575  0.8235 -0.3104 -0.1882
  757MOL0     H 2161   1.959  11.191   6.722 -0.2563 -1.2071  1.2705
  757MOL0     H 2162   1.916  11.176   6.549 -0.9508  0.0108 -0.0964
  757MOL0     H 2163   1.674  11.145   6.634 -0.4949  1.3238  0.2148
  757MOL0     H 2164   1.739  11.177   6.797 -3.0698  1.6013 -0.3017
  757MOL0     H 2165   1.778  11.377   6.581  3.8629 -0.0092  0.9515
  757MOL0     H 2166   1.819  11.385   6.747  1.7244  0.2235 -2.5462
  757MOL0     H 2167   1.631  11.524   6.713  3.6169 -1.3969  0.4519
  757MOL0     H 2168   1.566  11.392   6.811  0.4279  0.0505  0.5900
  757MOL0     H 2169   1.555  11.395   6.502  2.2221 -0.5563  0.4944
  757MOL0     H 2170   1.497  11.265   6.606  0.3411 -0.3192 -1.1652
  757MOL0     H 2171   1.383  11.540   6.622 -0.5156 -0.1200  1.7024
  757MOL0     H 2172   1.329  11.391   6.705  1.2123  0.6010  1.9548
  757MOL0     H 2173   1.344  11.412   6.402  0.8116 -4.4857  0.0688
  757MOL0     H 2174   1.264  11.289   6.489 -2.1739 -0.0790  0.5051
  757MOL0     H 2175   2.144  10.897   6.791 -0.2970  0.4133  0.3839
  757MOL0     H 2176   2.275  10.958   6.980  0.0165 -3.5035 -2.1166
  757MOL0     H 2177   2.203  11.076   7.486 -0.1532 -2.8454 -2.8483
  757MOL0     H 2178   2.329  11.075   7.689  1.3280  1.1122  0.7100
  757MOL0     H 2179   1.885   9.608   7.381 -0.9210 -0.5541  0.0973
  757MOL0     H 2180   1.768   9.499   7.203 -1.9503  0.6644 -0.5912
  757MOL0     H 2181   1.755   9.202   6.857 -0.3995  0.0650  3.2083
  757MOL0     H 2182   1.598   9.050   6.805  1.4667  0.3508 -0.3307
  757MOL0     H 2183   1.195   9.138   6.970 -3.1016 -0.6708  0.9463
  757MOL0     H 2184   1.160   8.990   6.886 -2.5547  0.3809 -1.6172
  757MOL0     H 2185   1.131   9.255   6.745 -1.4305  0.1668 -0.7226
  757MOL0     H 2186   1.011   9.140   6.811  0.9021 -1.8319  1.7303
  757MOL0     H 2187   0.994   9.087   6.599 -0.1902  0.6481  2.2795
  757MOL0     H 2188   1.086   8.952   6.656  1.6350 -1.0287 -0.5623
  757MOL0     H 2189   1.177   9.191   6.496 -1.8118 -0.9822 -0.1574
  757MOL0     H 2190   1.300   9.079   6.561  0.1085 -0.3566 -1.1808
  757MOL0     H 2191   1.125   8.848   6.256  2.8351  2.1016 -1.0695
  757MOL0     H 2192   1.291   9.333   6.859 -0.5769  0.3107 -1.6712
  757MOL0     H 2193   1.495   9.628   6.851 -0.0687 -1.3357 -0.1746
  757MOL0     H 2194   1.332   9.577   6.872  0.5120  1.5171 -0.1930
  757MOL0     H 2195   1.439   9.555   7.004 -2.9452  1.0110  0.7370
  758MOL0     O 2196   4.176   4.794   6.299 -0.0426 -0.3501  0.2159
  758MOL0     C 2197   4.066   4.814   6.248 -0.7944 -0.4984 -0.7073
  758MOL0     O 2198   4.035   4.916   6.173 -0.5804 -0.2707  0.4896
  758MOL0     C 2199   4.130   4.975   6.105 -0.4449 -0.2404  0.4896
  758MOL0     C 2200   4.177   4.922   5.981 -0.7257 -0.5005 -1.0093
  758MOL0     C 2201   4.277   4.988   5.917 -0.1509 -0.0744  0.4919
  758MOL0     C 2202   4.342   5.098   5.976 -0.9011  0.6576 -0.5678
  758MOL0     O 2203   4.458   5.134   5.912  0.5661 -0.1315 -0.3834
  758MOL0     C 2204   4.574   5.163   5.980 -0.0238  0.4884 -0.7005
  758MOL0     C 2205   4.689   5.145   5.889  0.1965 -0.1910 -0.1698
  758MOL0     C 2206   4.718   4.995   5.872  0.4384 -0.1565 -1.2014
  758MOL0     C 2207   4.842   4.989   5.782  0.6227  0.1298 -0.3153
  758MOL0     C 2208   4.903   4.848   5.803 -0.3472  0.1695  0.2223
  758MOL0     C 2209   5.011   4.815   5.690 -0.2638  0.0682 -0.1349
  758MOL0     C 2210   5.037   4.657   5.675  0.5830  0.6583 -0.2390
  758MOL0     C 2211   5.126   4.595   5.777 -0.8881  0.7644  0.2624
  758MOL0     N 2212   5.268   4.648   5.748 -0.6966  0.3394  0.0955
  758MOL0     C 2213   5.364   4.574   5.683 -0.5842 -0.9232 -0.1720
  758MOL0     C 2214   5.480   4.648   5.694  0.5687  0.9377  0.2223
  758MOL0     C 2215   5.606   4.616   5.611 -0.5432  0.3576 -0.5870
  758MOL0     C 2216   5.740   4.645   5.688 -0.9432 -0.2742  0.1316
  758MOL0     C 2217   5.859   4.674   5.591 -0.9302 -0.1252 -0.0894
  758MOL0     C 2218   5.996   4.648   5.657  0.0405  0.4879  0.5810
  758MOL0     O 2219   6.019   4.729   5.775  0.6084 -0.7252  0.6005
  758MOL0     C 2220   6.142   4.772   5.808 -0.0248 -0.3850  0.2522
  758MOL0     C 2221   6.162   4.790   5.936 -0.3682 -0.4707 -0.7590
  758MOL0     C 2222   6.273   4.857   5.986 -0.1091 -0.2169 -0.1648
  758MOL0     C 2223   6.379   4.890   5.894  0.0600 -0.7718  0.7242
  758MOL0     C 2224   6.501   4.959   5.949 -0.2369 -0.1394 -0.0935
  758MOL0     O 2225   6.521   4.972   6.086 -0.4328 -0.6883  0.2580
  758MOL0     C 2226   6.645   4.986   6.143  0.6398  0.8356  0.1351
  758MOL0     C 2227   6.688   5.110   6.194  0.6432 -0.2153 -0.1195
  758MOL0     C 2228   6.817   5.132   6.235  1.5111 -0.9859 -0.6433
  758MOL0     C 2229   6.903   5.032   6.249 -0.7686 -0.1636  0.5205
  758MOL0     O 2230   7.033   5.070   6.267 -0.6166 -0.6436  0.1925
  758MOL0     C 2231   7.134   4.977   6.263 -0.5641  0.1397  0.1100
  758MOL0     C 2232   7.262   5.060   6.258  0.4830 -0.0090  0.3231
  758MOL0     C 2233   7.393   4.973   6.263 -0.6619 -0.5849 -0.2129
  758MOL0     C 2234   7.504   5.050   6.202 -1.2178  0.6736 -0.9906
  758MOL0     C 2235   7.634   4.967   6.230  0.1460  0.0682 -0.7940
  758MOL0     C 2236   7.735   4.977   6.117 -0.3157 -0.8814  0.0144
  758MOL0     C 2237   7.819   5.115   6.105 -0.4784  0.5608 -0.6687
  758MOL0     C 2238   7.962   5.092   6.049  0.1450  0.5756 -0.4110
  758MOL0    Cl 2239   7.957   5.029   5.880 -0.1702  0.4003 -0.5441
  758MOL0     C 2240   6.864   4.902   6.228 -0.3057  0.5085  0.3856
  758MOL0     C 2241   6.736   4.875   6.159 -0.5457  0.0431  0.2064
  758MOL0     O 2242   6.577   4.998   5.864  0.2776 -0.3646  0.1806
  758MOL0     C 2243   6.368   4.838   5.759 -0.2526 -0.6511  0.7035
  758MOL0     C 2244   6.247   4.793   5.715 -0.2844  0.2481  0.3340
  758MOL0     N 2245   5.451   4.752   5.780 -0.6915  0.0960  0.5712
  758MOL0     N 2246   5.328   4.756   5.813 -0.4276 -0.6557  0.1495
  758MOL0     C 2247   4.292   5.156   6.089  0.1774  0.6004  0.0596
  758MOL0     C 2248   4.185   5.096   6.155  0.4214  0.1885  0.9890
  758MOL0     C 2249   3.952   4.727   6.297  1.2039 -0.3701  0.3650
  758MOL0     C 2250   3.822   4.776   6.292  0.0710  0.4194  0.5121
  758MOL0     C 2251   3.712   4.700   6.330  0.1989  0.6791 -0.1339
  758MOL0     C 2252   3.734   4.567   6.367  0.1295 -0.6576  1.0498
  758MOL0     O 2253   3.627   4.499   6.411 -0.3455  0.5436 -0.7172
  758MOL0     C 2254   3.629   4.355   6.455 -0.0392 -0.7199  0.2427
  758MOL0     C 2255   3.692   4.338   6.595 -0.8430  0.7988  0.5661
  758MOL0     C 2256   3.743   4.198   6.627 -0.0508  0.5776 -0.6235
  758MOL0     C 2257   3.827   4.192   6.757 -0.4096  1.4836 -0.1560
  758MOL0     C 2258   3.969   4.195   6.738 -0.2871  0.2451  0.5788
  758MOL0     C 2259   4.086   4.202   6.712 -0.4705 -0.0709  0.5239
  758MOL0     C 2260   3.864   4.514   6.370  0.3433 -0.5573  0.2472
  758MOL0     C 2261   3.973   4.594   6.333 -0.1874 -0.1628 -0.3535
  758MOL0     C 2262   4.112   4.525   6.308 -0.0101 -0.1099 -0.4163
  758MOL0     H 2263   4.134   4.833   5.936  0.2502 -0.4549 -2.0764
  758MOL0     H 2264   4.323   4.943   5.830  2.2906  1.9804  0.5722
  758MOL0     H 2265   4.578   5.268   6.013  4.1281  0.6818 -1.2890
  758MOL0     H 2266   4.586   5.107   6.073 -0.0413  2.8746  0.8422
  758MOL0     H 2267   4.768   5.193   5.948  0.7871  2.0014 -2.5879
  758MOL0     H 2268   4.692   5.206   5.798  0.7599 -0.2044 -0.1655
  758MOL0     H 2269   4.632   4.934   5.843  0.9493 -2.4968  1.7503
  758MOL0     H 2270   4.748   4.956   5.969 -1.4151  0.7145 -0.2398
  758MOL0     H 2271   4.807   5.001   5.679 -1.4767  0.8873  0.4389
  758MOL0     H 2272   4.910   5.072   5.803  1.6312 -0.6472 -0.4568
  758MOL0     H 2273   4.935   4.823   5.905 -1.4981  2.5362  1.2435
  758MOL0     H 2274   4.824   4.780   5.770  0.8998 -1.1300 -0.1931
  758MOL0     H 2275   4.973   4.859   5.597 -0.1491  2.9922  1.0865
  758MOL0     H 2276   5.104   4.871   5.707 -1.0675  2.0365 -1.7849
  758MOL0     H 2277   5.090   4.648   5.580  0.2447  0.2511 -0.3915
  758MOL0     H 2278   4.941   4.606   5.674  0.8008  0.2523 -1.1514
  758MOL0     H 2279   5.079   4.615   5.873  0.1315 -0.6920  1.0989
  758MOL0     H 2280   5.136   4.487   5.760  0.3622  0.9281 -0.1453
  758MOL0     H 2281   5.359   4.500   5.604 -3.0000  0.7119 -1.6668
  758MOL0     H 2282   5.617   4.511   5.582  0.6714  0.3551 -0.1757
  758MOL0     H 2283   5.615   4.679   5.522 -1.3554  1.1217 -0.1364
  758MOL0     H 2284   5.713   4.730   5.751 -0.7526 -0.9792  1.1992
  758MOL0     H 2285   5.752   4.558   5.754  1.7452  0.4181  0.6714
  758MOL0     H 2286   5.858   4.781   5.569 -0.2914  0.3815  2.1810
  758MOL0     H 2287   5.849   4.627   5.492  0.0046 -1.1848  0.2957
  758MOL0     H 2288   6.070   4.669   5.579 -1.4886  2.8368 -0.3368
  758MOL0     H 2289   5.998   4.544   5.691  1.0112 -0.5204 -2.2804
  758MOL0     H 2290   6.080   4.765   6.002  1.3619 -0.4653  1.5047
  758MOL0     H 2291   6.279   4.880   6.092  2.0981 -0.9523 -0.0875
  758MOL0     H 2292   6.611   5.186   6.181  1.3641  0.4402 -0.6656
  758MOL0     H 2293   6.857   5.230   6.261  4.6339 -2.2333 -0.3379
  758MOL0     H 2294   7.126   4.933   6.362  2.5455  2.9527  1.8252
  758MOL0     H 2295   7.141   4.902   6.183 -0.3193 -3.2822  3.1007
  758MOL0     H 2296   7.253   5.139   6.182  0.6963  2.6960  2.9254
  758MOL0     H 2297   7.261   5.121   6.349 -0.6489  3.7339 -1.9584
  758MOL0     H 2298   7.430   4.950   6.364 -1.1092  1.3672  0.4383
  758MOL0     H 2299   7.383   4.883   6.203  0.9469 -1.3484  0.5819
  758MOL0     H 2300   7.510   5.140   6.264 -0.2326 -1.7242  2.6668
  758MOL0     H 2301   7.486   5.059   6.094  3.2030  0.7998 -1.9220
  758MOL0     H 2302   7.616   4.859   6.230 -0.9022  0.1956 -2.9627
  758MOL0     H 2303   7.684   4.989   6.325 -2.4766  1.3070  0.3829
  758MOL0     H 2304   7.803   4.891   6.126  0.2069 -0.4975 -0.2001
  758MOL0     H 2305   7.688   4.955   6.021 -1.2006  3.3599 -0.7003
  758MOL0     H 2306   7.829   5.159   6.204 -0.6336  1.5172 -1.0680
  758MOL0     H 2307   7.772   5.190   6.041 -0.2456  1.0233 -0.3037
  758MOL0     H 2308   8.018   5.186   6.049  0.3801  0.4477 -1.2602
  758MOL0     H 2309   8.013   5.018   6.112  0.5107  2.2632  1.3390
  758MOL0     H 2310   6.934   4.819   6.236  1.3655  1.9614  1.4451
  758MOL0     H 2311   6.704   4.775   6.131 -0.9284  0.1244  0.3367
  758MOL0     H 2312   6.453   4.843   5.691 -0.6174  0.8036  0.3179
  758MOL0     H 2313   6.229   4.780   5.609 -0.3110  0.6594  0.2886
  758MOL0     H 2314   4.341   5.244   6.130 -1.6531  0.0935  3.8697
  758MOL0     H 2315   4.130   5.138   6.239 -1.1746  0.2163 -0.0130
  758MOL0     H 2316   3.809   4.881   6.271 -0.4455  0.7014  2.0976
  758MOL0     H 2317   3.619   4.753   6.349  1.3721  2.3595  1.2589
  758MOL0     H 2318   3.693   4.292   6.391  3.5236  0.8997  1.9497
  758MOL0     H 2319   3.523   4.329   6.458 -0.4510  0.9886  1.1260
  758MOL0     H 2320   3.619   4.358   6.674  2.0861 -1.0420  4.0793
  758MOL0     H 2321   3.768   4.413   6.619  0.3644 -0.5548  1.1361
  758MOL0     H 2322   3.807   4.170   6.543  0.9547 -1.3133  0.7167
  758MOL0     H 2323   3.657   4.129   6.629  0.0452  0.3447 -2.6720
  758MOL0     H 2324   3.801   4.269   6.830 -4.6726 -0.3447  0.5675
  758MOL0     H 2325   3.803   4.094   6.802 -2.7765  2.4995  1.0147
  758MOL0     H 2326   4.193   4.197   6.712 -0.4741 -1.2754 -1.8145
  758MOL0     H 2327   3.891   4.415   6.405  0.3700  0.7913  4.7886
  758MOL0     H 2328   4.096   4.417   6.316 -3.0929  0.0825 -2.4930
  758MOL0     H 2329   4.153   4.549   6.209 -0.6173  1.8172 -0.2434
  758MOL0     H 2330   4.172   4.558   6.393 -1.0090 -1.0794  0.7070
  759MOL0     O 2331   7.775   8.208   4.616  0.2799  0.2549 -0.9461
  759MOL0     C 2332   7.761   8.176   4.501  0.0225  0.9907  0.6052
  759MOL0     O 2333   7.848   8.206   4.403 -0.8254  0.6529  0.5302
  759MOL0     C 2334   7.988   8.221   4.428  0.1533  0.4583  0.4929
  759MOL0     C 2335   8.065   8.291   4.345 -0.0155 -0.6324 -0.2194
  759MOL0     C 2336   8.210   8.299   4.357  0.9028 -0.1646  0.5580
  759MOL0     C 2337   8.264   8.236   4.469  0.0349 -0.2615 -0.1084
  759MOL0     O 2338   8.394   8.246   4.507 -0.1917  0.7405  0.2440
  759MOL0     C 2339   8.455   8.378   4.484 -0.5045  1.5060 -0.5034
  759MOL0     C 2340   8.538   8.386   4.357  0.1455  0.0294  0.2697
  759MOL0     C 2341   8.626   8.513   4.357  0.4763 -1.3330  0.2984
  759MOL0     C 2342   8.762   8.504   4.430 -0.2484  0.7023  0.3436
  759MOL0     C 2343   8.849   8.629   4.412 -1.2082 -0.4567  0.3318
  759MOL0     C 2344   8.827   8.752   4.512 -0.2806  0.6368 -0.2892
  759MOL0     C 2345   8.779   8.706   4.653 -0.1189  0.3646 -0.5866
  759MOL0     C 2346   8.875   8.603   4.738 -0.2060 -0.5538  1.1529
  759MOL0     N 2347   8.778   8.537   4.823  0.2292 -0.5007  0.6852
  759MOL0     C 2348   8.748   8.404   4.812 -0.3790 -0.2526 -0.0542
  759MOL0     C 2349   8.634   8.395   4.894 -0.2896 -0.2293 -0.6093
  759MOL0     C 2350   8.537   8.284   4.910  0.2512  0.1742 -0.9604
  759MOL0     C 2351   8.606   8.158   4.979 -0.0292  0.5796  0.4152
  759MOL0     C 2352   8.515   8.059   5.046 -0.6708 -0.9541 -0.0375
  759MOL0     C 2353   8.424   7.988   4.937 -0.1245 -0.9552 -0.1444
  759MOL0     O 2354   8.491   7.875   4.874  0.1949 -0.8144 -0.1235
  759MOL0     C 2355   8.524   7.761   4.944  0.8274  0.3348  0.3811
  759MOL0     C 2356   8.603   7.660   4.880  1.0367  0.2498  0.8704
  759MOL0     C 2357   8.643   7.542   4.941 -0.2892  0.6814  0.0744
  759MOL0     C 2358   8.597   7.515   5.075 -0.9479 -0.2688  0.6079
  759MOL0     C 2359   8.617   7.380   5.133  0.1595 -0.0099 -0.8737
  759MOL0     O 2360   8.703   7.297   5.070 -0.3821  0.2923  0.4148
  759MOL0     C 2361   8.766   7.198   5.145  0.8794 -0.1941  0.3057
  759MOL0     C 2362   8.714   7.072   5.139  0.1180 -0.3494 -0.4370
  759MOL0     C 2363   8.773   6.975   5.232  0.2110  0.0830  0.1494
  759MOL0     C 2364   8.874   7.010   5.318 -0.0681  0.1569 -0.8910
  759MOL0     O 2365   8.921   6.916   5.410 -0.8361  0.5236 -0.0348
  759MOL0     C 2366   9.042   6.946   5.497  1.7729  0.5637 -0.3297
  759MOL0     C 2367   9.107   6.815   5.536  0.3765 -0.0227  0.3296
  759MOL0     C 2368   9.186   6.752   5.415  0.2220  0.6844 -0.5103
  759MOL0     C 2369   9.270   6.627   5.456 -0.4499 -0.6723 -0.6061
  759MOL0     C 2370   9.358   6.624   5.587 -0.2884  0.1792 -0.0662
  759MOL0     C 2371   9.448   6.749   5.598 -0.8643  0.6201 -0.0374
  759MOL0     C 2372   9.496   6.750   5.745 -0.2443 -0.4038  1.0354
  759MOL0     C 2373   9.558   6.892   5.757 -0.3666  0.4869 -0.0538
  759MOL0    Cl 2374   9.676   6.892   5.895  0.0354  0.5774 -0.0493
  759MOL0     C 2375   8.910   7.143   5.331 -0.5041 -0.7126  0.1946
  759MOL0     C 2376   8.861   7.241   5.242  0.2658  0.7401  0.8901
  759MOL0     O 2377   8.566   7.357   5.244 -0.5147 -0.2489  0.5330
  759MOL0     C 2378   8.508   7.613   5.131 -0.0730 -0.5153 -0.7350
  759MOL0     C 2379   8.482   7.736   5.075 -0.0874  0.0774  0.2182
  759MOL0     N 2380   8.614   8.508   4.966  0.2246  1.3788 -0.3456
  759MOL0     N 2381   8.698   8.600   4.923 -1.0419 -0.0931  0.4611
  759MOL0     C 2382   8.189   8.159   4.556  0.0505  0.4470  0.2396
  759MOL0     C 2383   8.054   8.156   4.537  0.3467  1.1567 -0.3849
  759MOL0     C 2384   7.631   8.113   4.467  0.1146 -0.6335 -0.1582
  759MOL0     C 2385   7.547   8.175   4.367  0.4427 -0.3607 -0.1392
  759MOL0     C 2386   7.430   8.100   4.325 -0.4906  0.6508 -0.2309
  759MOL0     C 2387   7.398   7.974   4.380  0.0543  0.8354 -0.3579
  759MOL0     O 2388   7.282   7.900   4.351 -0.4229 -0.1913  0.2518
  759MOL0     C 2389   7.222   7.912   4.219 -1.3479  0.3835 -0.3545
  759MOL0     C 2390   7.092   7.835   4.198 -0.2618  0.2905  0.5688
  759MOL0     C 2391   6.986   7.855   4.313  0.2299 -0.0324  0.1572
  759MOL0     C 2392   6.859   7.761   4.292  0.5450 -0.5176 -0.2178
  759MOL0     C 2393   6.903   7.622   4.290  0.4126 -0.6604  0.6297
  759MOL0     C 2394   6.941   7.505   4.305 -0.0111  0.4663 -0.4036
  759MOL0     C 2395   7.471   7.935   4.488  0.2169  0.2762  0.5251
  759MOL0     C 2396   7.581   8.000   4.533 -0.6467 -0.1546  0.2104
  759MOL0     C 2397   7.655   7.917   4.636  0.4816  0.5918 -0.7439
  759MOL0     H 2398   8.016   8.333   4.257  1.4754 -2.4269 -1.9939
  759MOL0     H 2399   8.262   8.344   4.273 -0.2042  0.2744  0.0830
  759MOL0     H 2400   8.383   8.461   4.484  0.1867  2.1503 -1.9856
  759MOL0     H 2401   8.513   8.389   4.575 -1.6467 -0.6848  0.5735
  759MOL0     H 2402   8.475   8.392   4.268 -0.0417 -1.9037  0.2184
  759MOL0     H 2403   8.600   8.297   4.344 -0.0566 -0.2130  0.9285
  759MOL0     H 2404   8.582   8.598   4.410  1.3371  1.1949 -2.7498
  759MOL0     H 2405   8.649   8.548   4.256  1.7762 -0.4204  0.8887
  759MOL0     H 2406   8.743   8.477   4.534 -3.2312  1.6119  0.1463
  759MOL0     H 2407   8.814   8.418   4.387 -3.4187 -0.8124 -0.8580
  759MOL0     H 2408   8.949   8.589   4.431 -1.6004 -1.9097 -0.4925
  759MOL0     H 2409   8.857   8.667   4.310  2.4101 -0.2733  0.5758
  759MOL0     H 2410   8.918   8.812   4.517 -1.2266  2.0407  0.9234
  759MOL0     H 2411   8.750   8.820   4.474 -0.1881 -0.3443 -2.3905
  759MOL0     H 2412   8.673   8.683   4.645 -0.5881  1.0808  2.4341
  759MOL0     H 2413   8.777   8.792   4.719  1.1989 -1.3180  1.7912
  759MOL0     H 2414   8.929   8.546   4.663  0.0979  0.4114  0.6201
  759MOL0     H 2415   8.943   8.653   4.808  1.8073  1.8410 -2.2337
  759MOL0     H 2416   8.773   8.328   4.739 -0.6608  0.2746 -0.7152
  759MOL0     H 2417   8.454   8.318   4.972 -0.3295  2.2670 -2.7404
  759MOL0     H 2418   8.493   8.274   4.810  0.9160  1.9428 -1.4659
  759MOL0     H 2419   8.677   8.110   4.910  0.6095  0.0865  1.3968
  759MOL0     H 2420   8.682   8.195   5.047 -0.1686  4.0886 -1.1273
  759MOL0     H 2421   8.454   8.106   5.123  2.1232 -0.7839  2.2383
  759MOL0     H 2422   8.575   7.986   5.102  1.0680 -1.8131 -2.7726
  759MOL0     H 2423   8.412   8.059   4.854  0.9784 -0.4552  0.1100
  759MOL0     H 2424   8.329   7.959   4.983  1.0764 -3.4661  0.9187
  759MOL0     H 2425   8.616   7.682   4.774  0.8172  2.5400  1.2896
  759MOL0     H 2426   8.699   7.467   4.887 -1.4480  0.9239 -1.5388
  759MOL0     H 2427   8.643   7.043   5.063 -0.0931  1.1873 -0.8571
  759MOL0     H 2428   8.747   6.869   5.238 -3.6775  0.6082 -2.8751
  759MOL0     H 2429   9.115   7.006   5.442  1.0689  0.6808 -1.1617
  759MOL0     H 2430   9.010   6.998   5.588 -4.9950  1.4043 -2.6625
  759MOL0     H 2431   9.173   6.834   5.622  0.6584  1.7264 -0.2390
  759MOL0     H 2432   9.037   6.737   5.568  0.7243 -1.8028 -2.8772
  759MOL0     H 2433   9.107   6.715   5.349 -1.1534  0.6190  1.0956
  759MOL0     H 2434   9.246   6.824   5.359  4.1966 -0.4771  1.8314
  759MOL0     H 2435   9.337   6.597   5.374 -0.8388 -3.7384  0.0879
  759MOL0     H 2436   9.204   6.541   5.468  0.1812 -1.4143 -2.1393
  759MOL0     H 2437   9.409   6.529   5.603  0.5312  0.1545 -2.4746
  759MOL0     H 2438   9.284   6.645   5.666 -0.3516  0.2361 -0.1407
  759MOL0     H 2439   9.529   6.762   5.526 -0.0665 -1.2631  0.4656
  759MOL0     H 2440   9.381   6.832   5.574 -0.1075  1.2128 -0.1401
  759MOL0     H 2441   9.572   6.673   5.755  0.2520 -0.2140 -0.9048
  759MOL0     H 2442   9.417   6.739   5.819 -0.0418  0.1398  1.3357
  759MOL0     H 2443   9.618   6.917   5.669 -1.8148 -1.1911 -1.6181
  759MOL0     H 2444   9.480   6.968   5.769  2.0243  3.4906 -2.0767
  759MOL0     H 2445   8.975   7.181   5.409 -2.7776  2.8184  0.5691
  759MOL0     H 2446   8.885   7.346   5.254  1.2345  1.1890 -3.3017
  759MOL0     H 2447   8.453   7.582   5.219 -0.3751 -1.5738 -1.2779
  759MOL0     H 2448   8.416   7.802   5.131 -2.2039 -2.2223  0.6405
  759MOL0     H 2449   8.239   8.122   4.645 -2.3857  2.1083  2.4828
  759MOL0     H 2450   8.007   8.105   4.620 -1.2816 -1.3875 -2.7124
  759MOL0     H 2451   7.582   8.268   4.324 -0.2915 -0.7237 -1.5824
  759MOL0     H 2452   7.369   8.145   4.248  0.1834  1.6168 -0.2216
  759MOL0     H 2453   7.295   7.882   4.144 -2.4579  3.3669 -2.8469
  759MOL0     H 2454   7.197   8.015   4.192  1.3275  0.7407 -1.8225
  759MOL0     H 2455   7.121   7.730   4.186  0.5593  0.6059 -0.4279
  759MOL0     H 2456   7.042   7.853   4.103  0.1656  0.3024  0.3431
  759MOL0     H 2457   6.945   7.955   4.327  1.6227  0.5314  0.3218
  759MOL0     H 2458   7.032   7.834   4.410 -1.4571 -3.7290  0.3228
  759MOL0     H 2459   6.779   7.769   4.367  1.2291 -2.4493  0.7910
  759MOL0     H 2460   6.814   7.780   4.194 -2.3862  1.3286  1.3573
  759MOL0     H 2461   6.971   7.404   4.325  0.5587  0.2610 -2.1071
  759MOL0     H 2462   7.437   7.840   4.526  0.0256 -0.6843 -1.8614
  759MOL0     H 2463   7.622   7.813   4.645 -2.9708  1.5732 -0.5499
  759MOL0     H 2464   7.762   7.918   4.611  0.2698  3.8179 -1.8906
  759MOL0     H 2465   7.645   7.963   4.735 -0.1160 -0.3267 -0.3655
  760MOL0     O 2466   0.974   8.404   5.594  0.7834 -0.2756 -0.0596
  760MOL0     C 2467   0.956   8.524   5.609 -1.9271 -0.3781 -0.9814
  760MOL0     O 2468   1.056   8.612   5.645 -0.5280  0.5867  0.8074
  760MOL0     C 2469   1.177   8.557   5.675 -1.0410  0.3477  0.5257
  760MOL0     C 2470   1.289   8.618   5.617 -0.5385 -0.0364 -0.1739
  760MOL0     C 2471   1.413   8.585   5.664 -0.8252 -0.0523 -0.0142
  760MOL0     C 2472   1.438   8.475   5.749  0.2127  0.1895 -0.3971
  760MOL0     O 2473   1.568   8.455   5.779  0.7910 -0.6869 -1.0017
  760MOL0     C 2474   1.600   8.327   5.822  0.1558 -0.9483  0.8711
  760MOL0     C 2475   1.750   8.307   5.794 -0.1583  0.3021 -0.1874
  760MOL0     C 2476   1.784   8.273   5.648 -1.1355  0.6686  0.4190
  760MOL0     C 2477   1.940   8.288   5.631  1.2484  0.2170 -0.2186
  760MOL0     C 2478   1.961   8.232   5.490 -0.4021  0.3013 -0.3497
  760MOL0     C 2479   2.099   8.242   5.432  0.1794 -0.2568 -0.2844
  760MOL0     C 2480   2.204   8.175   5.532  0.6155  0.0750 -1.0513
  760MOL0     C 2481   2.347   8.192   5.478 -0.0838 -0.5168 -0.7595
  760MOL0     N 2482   2.379   8.108   5.365 -0.3662  0.2574 -0.0539
  760MOL0     C 2483   2.328   7.981   5.339  0.2403 -0.0146 -1.1434
  760MOL0     C 2484   2.389   7.948   5.221  0.5661  1.1951  0.0642
  760MOL0     C 2485   2.364   7.821   5.139  0.6166 -0.9743 -0.8538
  760MOL0     C 2486   2.370   7.704   5.233  0.2355 -0.2762 -0.1522
  760MOL0     C 2487   2.353   7.566   5.176 -0.0498 -0.2324  0.5062
  760MOL0     C 2488   2.454   7.525   5.063  0.3605 -0.9689 -0.1314
  760MOL0     O 2489   2.572   7.478   5.124 -0.7334  1.0020 -0.2468
  760MOL0     C 2490   2.673   7.436   5.043  0.3299 -0.1349  1.0596
  760MOL0     C 2491   2.779   7.358   5.093 -0.5662 -0.7881  0.1796
  760MOL0     C 2492   2.885   7.320   5.014 -0.1125  0.2786  0.4612
  760MOL0     C 2493   2.884   7.352   4.875  0.4946  0.3586  0.1997
  760MOL0     C 2494   2.994   7.299   4.786 -0.3957  0.2171  0.5741
  760MOL0     O 2495   3.101   7.256   4.856  0.0746 -0.6763  0.0077
  760MOL0     C 2496   3.197   7.177   4.789  0.0002 -0.6314  0.7456
  760MOL0     C 2497   3.312   7.236   4.735 -0.5869 -0.4511  0.4874
  760MOL0     C 2498   3.395   7.146   4.652 -0.7768  0.6269 -1.2333
  760MOL0     C 2499   3.366   7.006   4.629  1.0010  0.1584  0.3508
  760MOL0     O 2500   3.439   6.910   4.560  0.7526  0.9911  0.1929
  760MOL0     C 2501   3.574   6.940   4.515 -0.1861 -0.3745  0.2461
  760MOL0     C 2502   3.672   6.853   4.592 -0.3599 -0.2557 -0.1327
  760MOL0     C 2503   3.656   6.707   4.561 -0.0291  0.7132 -0.1635
  760MOL0     C 2504   3.779   6.624   4.633  0.1346 -0.0446  0.5084
  760MOL0     C 2505   3.893   6.619   4.534  0.0319  0.1969 -0.2999
  760MOL0     C 2506   4.010   6.536   4.597 -0.6463 -0.5771  0.3107
  760MOL0     C 2507   4.117   6.502   4.496  0.9992  0.7843  0.3246
  760MOL0     C 2508   4.247   6.456   4.568  0.0133  0.0364 -0.2297
  760MOL0    Cl 2509   4.233   6.315   4.669 -0.0559  0.2983 -0.4434
  760MOL0     C 2510   3.252   6.955   4.693  0.7482  0.3022 -1.2983
  760MOL0     C 2511   3.177   7.038   4.774 -0.3331  0.2982 -0.1838
  760MOL0     O 2512   2.973   7.270   4.667 -1.3704  0.5772 -0.3046
  760MOL0     C 2513   2.779   7.419   4.831  0.9114 -0.4227 -0.1458
  760MOL0     C 2514   2.671   7.463   4.906 -0.5429  0.2068  1.0348
  760MOL0     N 2515   2.488   8.042   5.192  0.7035  0.4591  0.3640
  760MOL0     N 2516   2.473   8.136   5.272  0.8068  0.5871 -0.5035
  760MOL0     C 2517   1.328   8.407   5.798 -0.3142 -0.5649  0.1937
  760MOL0     C 2518   1.195   8.449   5.760 -0.4282  1.2228 -1.0750
  760MOL0     C 2519   0.826   8.580   5.618 -0.2405  0.1652  0.8597
  760MOL0     C 2520   0.825   8.715   5.576 -0.5676  0.8861 -0.0678
  760MOL0     C 2521   0.705   8.795   5.591  0.3998  0.7681 -0.1250
  760MOL0     C 2522   0.584   8.733   5.624 -0.8045  0.9371  0.2085
  760MOL0     O 2523   0.475   8.806   5.629 -0.3331 -0.0188 -0.5790
  760MOL0     C 2524   0.448   8.858   5.752  0.2164  0.1951 -0.2923
  760MOL0     C 2525   0.336   8.958   5.758  0.1419 -0.1363  0.5817
  760MOL0     C 2526   0.332   9.067   5.641  0.2554  0.5640 -0.8893
  760MOL0     C 2527   0.405   9.199   5.671 -0.7362 -0.1696 -0.1018
  760MOL0     C 2528   0.552   9.177   5.657  0.7817 -0.1162 -0.6694
  760MOL0     C 2529   0.669   9.152   5.636 -0.4423  0.4491  0.5588
  760MOL0     C 2530   0.592   8.596   5.660 -0.8882  0.5739 -0.0248
  760MOL0     C 2531   0.712   8.520   5.655  0.2979  0.6682 -0.7183
  760MOL0     C 2532   0.710   8.371   5.701  0.0921  1.0657 -0.0725
  760MOL0     H 2533   1.276   8.703   5.550 -1.3338 -1.0795 -1.3783
  760MOL0     H 2534   1.496   8.649   5.637 -1.3743  0.6654 -0.0105
  760MOL0     H 2535   1.577   8.333   5.929 -4.2311  1.3276  0.0273
  760MOL0     H 2536   1.546   8.245   5.773  0.5627 -0.6330 -0.1269
  760MOL0     H 2537   1.777   8.224   5.860 -4.7194 -0.5644  0.9204
  760MOL0     H 2538   1.809   8.399   5.803 -0.7379  0.8750 -1.8671
  760MOL0     H 2539   1.731   8.348   5.590 -1.5371 -0.4466 -0.7011
  760MOL0     H 2540   1.744   8.172   5.633 -2.3872  1.1398  0.4831
  760MOL0     H 2541   1.964   8.395   5.631  1.4076  0.2103  1.8959
  760MOL0     H 2542   1.993   8.240   5.714 -1.3219  1.2782  2.1872
  760MOL0     H 2543   1.935   8.126   5.483 -0.1590 -0.1853  3.8116
  760MOL0     H 2544   1.906   8.293   5.418 -1.2556 -0.9000 -0.7477
  760MOL0     H 2545   2.095   8.182   5.341 -0.3325 -1.1086  0.2862
  760MOL0     H 2546   2.108   8.351   5.422 -0.1103 -0.3376 -1.5501
  760MOL0     H 2547   2.175   8.070   5.545 -0.0519  0.2578 -1.0069
  760MOL0     H 2548   2.191   8.232   5.624  3.9582 -0.1047 -0.3428
  760MOL0     H 2549   2.381   8.293   5.456  0.2207 -0.7350 -1.3061
  760MOL0     H 2550   2.419   8.149   5.548 -1.3071  0.6611  1.3173
  760MOL0     H 2551   2.249   7.930   5.392  0.4897  2.0374  1.3906
  760MOL0     H 2552   2.270   7.814   5.084 -1.3675 -2.8980  2.4546
  760MOL0     H 2553   2.448   7.817   5.069  1.2407  2.9148 -0.5720
  760MOL0     H 2554   2.466   7.708   5.286  0.6059  0.1008 -0.8278
  760MOL0     H 2555   2.288   7.710   5.304 -2.5187  0.7085 -3.1513
  760MOL0     H 2556   2.253   7.567   5.131 -0.1375 -2.5292  0.4961
  760MOL0     H 2557   2.349   7.489   5.254 -1.2472  0.6476  1.3632
  760MOL0     H 2558   2.468   7.610   4.996  0.2266  0.1408  1.2255
  760MOL0     H 2559   2.415   7.435   5.012 -1.1626  0.1008 -0.9486
  760MOL0     H 2560   2.787   7.346   5.200 -2.7122 -1.8635  0.2773
  760MOL0     H 2561   2.971   7.272   5.060 -0.8570  0.4629  2.1385
  760MOL0     H 2562   3.335   7.342   4.738 -2.6397  0.0057  1.5644
  760MOL0     H 2563   3.484   7.200   4.622 -1.0084  1.1521 -0.9821
  760MOL0     H 2564   3.590   6.913   4.410 -1.5134 -1.2236  0.2425
  760MOL0     H 2565   3.589   7.048   4.514 -0.0788 -0.3890  0.2654
  760MOL0     H 2566   3.773   6.894   4.578 -2.6255  5.9727 -1.6509
  760MOL0     H 2567   3.656   6.871   4.699  0.3290  4.8803 -0.6056
  760MOL0     H 2568   3.564   6.671   4.608 -0.8077 -0.0001 -2.1502
  760MOL0     H 2569   3.655   6.682   4.455  1.3151 -0.1065 -0.0032
  760MOL0     H 2570   3.742   6.522   4.641 -2.3698  0.8206  0.7764
  760MOL0     H 2571   3.813   6.674   4.725 -2.1725 -1.0623  1.9997
  760MOL0     H 2572   3.932   6.720   4.520 -3.7894  1.8074 -0.6212
  760MOL0     H 2573   3.867   6.567   4.440  0.6486  0.8208 -0.8263
  760MOL0     H 2574   4.058   6.602   4.669  1.8291 -1.2070 -0.6629
  760MOL0     H 2575   3.977   6.439   4.635  0.1202 -1.9235 -2.2498
  760MOL0     H 2576   4.134   6.595   4.441 -0.2561 -0.1590 -1.7896
  760MOL0     H 2577   4.082   6.427   4.424 -0.5725  2.6823 -0.9847
  760MOL0     H 2578   4.323   6.436   4.493 -1.5337  0.5044 -2.0198
  760MOL0     H 2579   4.291   6.530   4.635  0.8026 -1.7738  1.3391
  760MOL0     H 2580   3.248   6.848   4.679 -0.8541 -0.1244  1.6931
  760MOL0     H 2581   3.096   7.000   4.835  0.8018 -2.0421 -0.0441
  760MOL0     H 2582   2.770   7.441   4.725  2.2875  1.2143  0.0373
  760MOL0     H 2583   2.592   7.511   4.850 -1.9869 -1.5523  1.4756
  760MOL0     H 2584   1.324   8.324   5.868 -1.8738 -1.0157 -0.3845
  760MOL0     H 2585   1.108   8.403   5.805  0.3655  0.3552 -0.3798
  760MOL0     H 2586   0.917   8.768   5.555 -1.2746  2.3662  0.3722
  760MOL0     H 2587   0.715   8.903   5.588  2.5695  0.5791 -1.4307
  760MOL0     H 2588   0.530   8.922   5.785 -1.1023  2.1869 -0.7384
  760MOL0     H 2589   0.438   8.787   5.835  0.6469  2.1708  1.5441
  760MOL0     H 2590   0.331   9.015   5.851  5.6302  1.8524 -0.0221
  760MOL0     H 2591   0.238   8.910   5.755  0.3024 -0.6218  2.0827
  760MOL0     H 2592   0.225   9.082   5.624 -0.5596 -2.3452  1.0430
  760MOL0     H 2593   0.355   9.023   5.543 -3.1543 -3.4929 -0.1411
  760MOL0     H 2594   0.376   9.276   5.598  2.2630  3.2000  1.9337
  760MOL0     H 2595   0.386   9.234   5.773  1.0954  1.4017 -0.2485
  760MOL0     H 2596   0.771   9.152   5.603 -0.5310  1.0208  0.2793
  760MOL0     H 2597   0.495   8.553   5.683 -0.2374 -1.3098 -0.6809
  760MOL0     H 2598   0.793   8.362   5.772 -0.5303  0.5060  0.6070
  760MOL0     H 2599   0.618   8.342   5.752 -0.5431  0.4052 -1.5433
  760MOL0     H 2600   0.729   8.309   5.613 -1.7578  3.0221 -1.9929
  761MOL0     O 2601   3.648   0.430   9.521  0.6549 -0.1845 -0.0610
  761MOL0     C 2602   3.579   0.393   9.617  0.1605 -0.1949  0.7097
  761MOL0     O 2603   3.548   0.265   9.648  0.3086 -0.0820 -0.2766
  761MOL0     C 2604   3.602   0.163   9.561  0.1923  0.0629 -0.7908
  761MOL0     C 2605   3.732   0.160   9.514 -0.6039 -0.0149  0.0466
  761MOL0     C 2606   3.773   0.053   9.437  0.1510  0.2596 -0.6403
  761MOL0     C 2607   3.691  -0.057   9.414 -1.1614  0.3532 -0.6468
  761MOL0     O 2608   3.740  -0.149   9.324 -0.6806 -0.1641  0.7722
  761MOL0     C 2609   3.653  -0.213   9.223 -0.2942  0.2467 -0.1504
  761MOL0     C 2610   3.623  -0.094   9.124 -0.4018  0.0604  0.2208
  761MOL0     C 2611   3.527  -0.113   9.000 -0.7565 -0.3577  0.6096
  761MOL0     C 2612   3.552  -0.224   8.894  0.4164 -0.1977 -0.5775
  761MOL0     C 2613   3.690  -0.230   8.824  0.0614 -0.1827 -0.5932
  761MOL0     C 2614   3.715  -0.105   8.746  0.2086 -1.2258  0.0961
  761MOL0     C 2615   3.853  -0.101   8.689 -0.0174  0.0664 -0.8208
  761MOL0     C 2616   3.869   0.026   8.599 -0.4805 -0.1993  0.5837
  761MOL0     N 2617   3.902   0.143   8.688  0.6364 -0.8459 -0.1948
  761MOL0     C 2618   4.021   0.156   8.752 -0.3997 -0.5236  0.5388
  761MOL0     C 2619   4.025   0.288   8.779 -0.4688 -0.0733 -0.3119
  761MOL0     C 2620   4.148   0.339   8.844  0.1086  0.7153  0.7213
  761MOL0     C 2621   4.127   0.367   8.995 -0.4646  0.0754  0.4162
  761MOL0     C 2622   4.250   0.353   9.083 -0.0502 -0.1456  0.3157
  761MOL0     C 2623   4.218   0.377   9.231 -0.2955  0.0062 -0.2235
  761MOL0     O 2624   4.141   0.505   9.246  0.4918 -0.3889 -0.1182
  761MOL0     C 2625   4.137   0.554   9.377 -0.5055 -0.1252 -0.9781
  761MOL0     C 2626   4.260   0.595   9.440 -0.1054 -0.4023  0.4252
  761MOL0     C 2627   4.255   0.662   9.564  0.1745 -0.2331 -0.2371
  761MOL0     C 2628   4.135   0.678   9.638  0.2329  0.2816  0.2051
  761MOL0     C 2629   4.137   0.755   9.772  0.3045  0.6313 -0.2808
  761MOL0     O 2630   4.025   0.771   9.832 -0.0475  0.1186  0.3270
  761MOL0     C 2631   3.998   0.883   9.907  0.5632 -0.3474 -0.5600
  761MOL0     C 2632   4.051   0.889  10.049  0.5691 -0.1641  0.2016
  761MOL0     C 2633   4.033   0.998  10.124  0.6029 -0.4929 -0.5780
  761MOL0     C 2634   3.951   1.105  10.076 -0.1214 -0.9913  1.6440
  761MOL0     O 2635   3.919   1.223  10.141  1.1153 -0.0500 -0.4608
  761MOL0     C 2636   3.998   1.255  10.263 -0.4546 -0.6540 -0.5829
  761MOL0     C 2637   3.972   1.395  10.325 -0.9702  0.0676 -1.3393
  761MOL0     C 2638   3.831   1.414  10.380  0.6487  0.0095 -1.0123
  761MOL0     C 2639   3.808   1.345  10.509 -0.2694  0.3814 -0.4445
  761MOL0     C 2640   3.665   1.370  10.563  0.3586 -0.4571  0.7254
  761MOL0     C 2641   3.629   1.274  10.671 -0.7344 -0.3389  0.2629
  761MOL0     C 2642   3.507   1.332  10.740  0.4334  0.2194  0.6737
  761MOL0     C 2643   3.541   1.433  10.838  0.0536  0.6162  0.9151
  761MOL0    Cl 2644   3.399   1.508  10.913  0.3453 -0.6398 -0.0538
  761MOL0     C 2645   3.889   1.096   9.943 -0.5611 -0.7132  0.4452
  761MOL0     C 2646   3.920   0.982   9.866  0.6496 -0.2678  0.6923
  761MOL0     O 2647   4.242   0.810   9.803  0.4594 -0.5515  0.6273
  761MOL0     C 2648   4.020   0.625   9.569 -0.0032 -0.3636 -0.8424
  761MOL0     C 2649   4.017   0.562   9.445 -0.5379  0.2606 -0.1769
  761MOL0     N 2650   3.916   0.351   8.735 -0.1208 -0.3181  0.3580
  761MOL0     N 2651   3.837   0.257   8.686 -1.2117 -0.4409  0.3451
  761MOL0     C 2652   3.559  -0.062   9.465 -0.2133 -0.1192  0.8153
  761MOL0     C 2653   3.513   0.051   9.538  0.5369 -0.3423  0.6479
  761MOL0     C 2654   3.532   0.491   9.713  0.2675  0.4483  0.0620
  761MOL0     C 2655   3.587   0.624   9.716  0.3318 -0.2031 -0.4364
  761MOL0     C 2656   3.554   0.720   9.813 -0.1353 -0.6739 -0.0845
  761MOL0     C 2657   3.459   0.692   9.907 -0.3213  0.5957  0.6581
  761MOL0     O 2658   3.415   0.766  10.015  0.9614  0.0221  0.2338
  761MOL0     C 2659   3.520   0.860  10.056  0.4152 -0.4291 -0.1462
  761MOL0     C 2660   3.504   0.894  10.200 -0.0781 -0.6258  1.1796
  761MOL0     C 2661   3.604   1.005  10.240  0.1646  0.7573 -0.2053
  761MOL0     C 2662   3.610   1.009  10.386 -0.3052 -0.4933  0.4136
  761MOL0     C 2663   3.658   0.894  10.454  0.1555  0.1203 -0.1832
  761MOL0     C 2664   3.676   0.791  10.514 -1.7215 -0.1434  0.7964
  761MOL0     C 2665   3.409   0.560   9.915 -0.3417 -0.8469 -0.1763
  761MOL0     C 2666   3.429   0.460   9.813  0.0568  0.1663 -0.7414
  761MOL0     C 2667   3.351   0.331   9.824 -0.3380 -0.5011  0.1288
  761MOL0     H 2668   3.810   0.234   9.523  2.7122 -3.3444  1.0026
  761MOL0     H 2669   3.878   0.044   9.408 -0.0148 -0.7315 -0.9820
  761MOL0     H 2670   3.708  -0.291   9.170 -3.5172 -1.3231 -1.4583
  761MOL0     H 2671   3.566  -0.261   9.268 -0.0749  0.8373  0.9434
  761MOL0     H 2672   3.723  -0.069   9.088  0.6020 -1.7556  1.5967
  761MOL0     H 2673   3.596  -0.001   9.175 -0.5246  0.6272 -0.8640
  761MOL0     H 2674   3.529  -0.013   8.956  1.5314 -0.5265  0.1940
  761MOL0     H 2675   3.420  -0.118   9.021 -0.4263 -0.8341  2.3357
  761MOL0     H 2676   3.543  -0.318   8.950  0.7209 -0.0110 -0.2102
  761MOL0     H 2677   3.472  -0.241   8.822  1.2363 -1.6122 -1.2085
  761MOL0     H 2678   3.762  -0.225   8.906 -1.2614 -0.9764  0.6586
  761MOL0     H 2679   3.701  -0.315   8.756 -2.3202  0.5600 -2.0572
  761MOL0     H 2680   3.642  -0.093   8.665 -0.9632 -1.1149  1.1394
  761MOL0     H 2681   3.710  -0.021   8.817  0.1489 -0.0179 -1.2784
  761MOL0     H 2682   3.856  -0.191   8.627  1.9311 -0.5005  0.0191
  761MOL0     H 2683   3.933  -0.108   8.763  0.3506 -2.2231 -1.3479
  761MOL0     H 2684   3.943   0.003   8.522 -0.9686  0.8629 -0.2234
  761MOL0     H 2685   3.775   0.045   8.547  0.4634 -1.8943 -1.9087
  761MOL0     H 2686   4.089   0.071   8.757  1.2489  0.6851 -0.1634
  761MOL0     H 2687   4.224   0.266   8.815 -1.0659 -0.0692 -0.5104
  761MOL0     H 2688   4.176   0.431   8.793  1.0424 -0.7113 -1.4773
  761MOL0     H 2689   4.076   0.462   9.014 -1.3246 -0.4802  0.9777
  761MOL0     H 2690   4.067   0.289   9.043  0.7857 -0.1209  1.7536
  761MOL0     H 2691   4.318   0.429   9.044 -1.8561  0.8331 -1.1322
  761MOL0     H 2692   4.298   0.256   9.066  0.4115 -0.0173  0.8850
  761MOL0     H 2693   4.305   0.379   9.297 -1.4170  1.4759  1.3166
  761MOL0     H 2694   4.163   0.294   9.275  2.7235 -2.1195 -0.1818
  761MOL0     H 2695   4.352   0.592   9.383 -0.1411  1.3425  0.2206
  761MOL0     H 2696   4.341   0.701   9.619 -0.9624 -0.3619  1.7227
  761MOL0     H 2697   4.087   0.795  10.089  1.4934  1.0304  2.3343
  761MOL0     H 2698   4.081   1.012  10.221 -1.2364  1.2867  0.1431
  761MOL0     H 2699   3.985   1.183  10.344  4.2394  1.8942  2.9189
  761MOL0     H 2700   4.105   1.258  10.242 -0.4722 -2.1397 -0.9835
  761MOL0     H 2701   4.047   1.407  10.403 -0.2404 -3.9279 -1.2243
  761MOL0     H 2702   3.979   1.470  10.245  1.9856 -0.0495 -1.3018
  761MOL0     H 2703   3.820   1.522  10.398  3.2094  0.5240 -2.0593
  761MOL0     H 2704   3.757   1.381  10.307 -0.0472 -0.0355 -0.2937
  761MOL0     H 2705   3.880   1.367  10.588  0.8031 -0.7867 -1.0455
  761MOL0     H 2706   3.813   1.238  10.484  1.1690  1.0073 -3.2519
  761MOL0     H 2707   3.599   1.349  10.478  0.9669  1.0356 -0.1525
  761MOL0     H 2708   3.649   1.473  10.597 -4.3322 -1.5174  2.3725
  761MOL0     H 2709   3.620   1.176  10.623  1.0253 -0.9485  1.0508
  761MOL0     H 2710   3.705   1.268  10.751  2.0776  1.1426 -2.1005
  761MOL0     H 2711   3.456   1.258  10.803 -0.7157 -0.1492 -0.6323
  761MOL0     H 2712   3.429   1.358  10.669  0.3205 -1.3303  0.1884
  761MOL0     H 2713   3.581   1.387  10.928  0.5016 -1.5281 -0.3207
  761MOL0     H 2714   3.598   1.517  10.797  0.2788 -0.4692 -1.1437
  761MOL0     H 2715   3.843   1.179   9.890  2.9135  0.5260 -0.9312
  761MOL0     H 2716   3.882   0.972   9.765 -0.6010  2.0813  0.8390
  761MOL0     H 2717   3.926   0.638   9.621  0.3333 -0.5809 -0.1693
  761MOL0     H 2718   3.922   0.533   9.400 -1.1762  0.3225  1.1022
  761MOL0     H 2719   3.491  -0.142   9.439  0.4569  0.2321 -2.4619
  761MOL0     H 2720   3.408   0.070   9.554 -0.4383  1.7647 -5.5544
  761MOL0     H 2721   3.660   0.647   9.638  0.3638  0.9713 -0.0753
  761MOL0     H 2722   3.594   0.821   9.818 -2.8622  0.4246  3.8729
  761MOL0     H 2723   3.513   0.943   9.985  1.8562  2.8922  3.2264
  761MOL0     H 2724   3.621   0.820  10.043 -0.3450 -1.9881 -1.6460
  761MOL0     H 2725   3.524   0.805  10.259 -0.5960 -0.2421  1.9512
  761MOL0     H 2726   3.406   0.936  10.223  0.8421  1.1590  2.0705
  761MOL0     H 2727   3.575   1.103  10.203  1.9720  1.9130  1.2695
  761MOL0     H 2728   3.699   0.989  10.189 -1.8132  0.0046 -4.0161
  761MOL0     H 2729   3.678   1.089  10.418 -2.0275 -0.2370  3.9703
  761MOL0     H 2730   3.510   1.030  10.426 -1.0810 -3.4386  0.2494
  761MOL0     H 2731   3.714   0.720  10.585  2.9985  2.5562  1.4313
  761MOL0     H 2732   3.339   0.538   9.994  0.1798  2.9477  1.5821
  761MOL0     H 2733   3.415   0.254   9.868  1.7606  2.0107  1.7801
  761MOL0     H 2734   3.267   0.359   9.888 -0.8411  1.7119 -1.3659
  761MOL0     H 2735   3.305   0.294   9.732 -1.7093 -0.8462  0.9201
  762MOL0     O 2736   5.264   3.090   0.146  0.8559 -0.2803 -0.5814
  762MOL0     C 2737   5.247   2.964   0.168 -0.0498 -1.3496 -0.3049
  762MOL0     O 2738   5.129   2.914   0.200  0.4056  0.5664 -0.6708
  762MOL0     C 2739   5.025   2.987   0.259  0.7177 -0.8339 -0.0550
  762MOL0     C 2740   5.056   3.079   0.365 -0.2800  0.6566  0.4879
  762MOL0     C 2741   4.943   3.160   0.407  0.1383 -0.2482  0.5734
  762MOL0     C 2742   4.812   3.147   0.351  0.0865 -0.6824 -0.5855
  762MOL0     O 2743   4.706   3.228   0.388 -0.4330 -0.6622 -0.2004
  762MOL0     C 2744   4.709   3.289   0.514 -0.3654 -0.1126  0.4218
  762MOL0     C 2745   4.564   3.355   0.539 -0.8139  0.2984  0.0202
  762MOL0     C 2746   4.560   3.500   0.481 -1.1837 -0.5523  0.1382
  762MOL0     C 2747   4.418   3.553   0.476 -0.5533 -0.4374  0.1691
  762MOL0     C 2748   4.413   3.703   0.449 -0.5683  0.6965  0.1941
  762MOL0     C 2749   4.458   3.740   0.309  0.6307  0.6888 -0.6357
  762MOL0     C 2750   4.486   3.887   0.296 -0.0408  0.9251  0.0480
  762MOL0     C 2751   4.372   3.987   0.299  0.9632  0.7857  0.1283
  762MOL0     N 2752   4.304   3.999   0.166  0.3157  0.2714  0.0221
  762MOL0     C 2753   4.370   4.054   0.057  0.3012 -0.1472 -0.4727
  762MOL0     C 2754   4.281   4.051  -0.048 -0.3944  0.5816  0.3489
  762MOL0     C 2755   4.312   4.073  -0.188 -0.1937  0.6919  0.0709
  762MOL0     C 2756   4.264   4.210  -0.235 -0.3340  0.3697 -0.8224
  762MOL0     C 2757   4.335   4.264  -0.359  0.9649  0.0301 -0.2448
  762MOL0     C 2758   4.486   4.283  -0.357  0.6559 -0.9641 -0.4378
  762MOL0     O 2759   4.566   4.205  -0.452 -0.0597  0.7269 -0.6158
  762MOL0     C 2760   4.569   4.223  -0.581  0.1308 -0.9986 -0.3727
  762MOL0     C 2761   4.665   4.157  -0.658  0.0689  0.8553  0.7701
  762MOL0     C 2762   4.660   4.156  -0.800  0.7518  0.6692  1.2363
  762MOL0     C 2763   4.548   4.224  -0.861 -0.3145  0.2651  0.5827
  762MOL0     C 2764   4.537   4.229  -1.004  0.2277  0.2613 -0.0761
  762MOL0     O 2765   4.607   4.142  -1.069  0.2477 -0.1770 -0.0458
  762MOL0     C 2766   4.605   4.119  -1.204 -0.6092  0.6366 -0.5582
  762MOL0     C 2767   4.571   4.219  -1.301 -1.1027 -0.2343  0.4539
  762MOL0     C 2768   4.591   4.182  -1.433  0.2425 -0.8771 -0.1230
  762MOL0     C 2769   4.643   4.051  -1.477 -0.1063 -0.2332 -1.2140
  762MOL0     O 2770   4.665   4.011  -1.610 -0.5035  0.2267  0.4880
  762MOL0     C 2771   4.647   4.105  -1.720  0.3312 -1.0515  0.2254
  762MOL0     C 2772   4.769   4.199  -1.735 -0.6168  0.9282 -0.9590
  762MOL0     C 2773   4.748   4.295  -1.857  0.2789  0.5510 -0.6687
  762MOL0     C 2774   4.643   4.400  -1.812  0.3187 -0.2927  0.4368
  762MOL0     C 2775   4.619   4.495  -1.926 -0.6631 -0.2362  0.2555
  762MOL0     C 2776   4.503   4.602  -1.908  0.6104 -0.6078  0.3658
  762MOL0     C 2777   4.490   4.696  -2.033 -0.6312  0.0320 -0.0014
  762MOL0     C 2778   4.369   4.786  -2.018  0.6001 -0.4438 -0.3514
  762MOL0    Cl 2779   4.357   4.874  -2.173 -0.0333 -0.2064 -0.1060
  762MOL0     C 2780   4.683   3.963  -1.375  0.3467 -0.6658 -1.3815
  762MOL0     C 2781   4.659   3.996  -1.241 -0.6296 -0.3537 -0.1744
  762MOL0     O 2782   4.479   4.328  -1.053  0.0772 -0.0980  0.0984
  762MOL0     C 2783   4.453   4.291  -0.783  0.4928 -0.9084  1.1036
  762MOL0     C 2784   4.459   4.280  -0.644 -0.5867 -0.1114  0.2282
  762MOL0     N 2785   4.168   3.988   0.001 -0.0881 -0.6110  0.3077
  762MOL0     N 2786   4.190   3.941   0.119  0.9028  0.3545  0.1244
  762MOL0     C 2787   4.793   3.058   0.245 -0.0417 -0.9110  0.0508
  762MOL0     C 2788   4.897   2.986   0.197 -0.0728 -0.0724  0.3734
  762MOL0     C 2789   5.364   2.868   0.161  0.1658 -0.3167  0.1549
  762MOL0     C 2790   5.328   2.736   0.154 -0.4812 -0.8065  0.1541
  762MOL0     C 2791   5.422   2.636   0.159  0.4157  0.7840  0.6199
  762MOL0     C 2792   5.559   2.660   0.165 -0.2128 -0.3287 -0.5296
  762MOL0     O 2793   5.639   2.548   0.167 -0.4189 -0.3166 -0.4857
  762MOL0     C 2794   5.779   2.575   0.139 -1.1339  0.5092  0.2364
  762MOL0     C 2795   5.850   2.442   0.109  0.3781  0.6504  0.1109
  762MOL0     C 2796   5.849   2.337   0.228  0.2756  0.7063 -0.0075
  762MOL0     C 2797   5.712   2.256   0.236  0.6508  0.5043 -0.2939
  762MOL0     C 2798   5.743   2.128   0.294 -0.8648  0.7201 -0.0134
  762MOL0     C 2799   5.780   2.016   0.323 -0.5564 -0.2843 -0.1302
  762MOL0     C 2800   5.600   2.792   0.172 -0.3316  0.3853 -0.4206
  762MOL0     C 2801   5.512   2.897   0.166  0.2314  0.0666 -0.1156
  762MOL0     C 2802   5.564   3.038   0.164 -0.0133 -0.1038 -0.1405
  762MOL0     H 2803   5.157   3.095   0.402 -0.8790  1.7252  1.7240
  762MOL0     H 2804   4.964   3.216   0.497 -0.2196 -2.4887  2.1378
  762MOL0     H 2805   4.737   3.216   0.590  0.4161  0.0314  0.2737
  762MOL0     H 2806   4.788   3.364   0.513  0.1016 -0.5193 -2.6342
  762MOL0     H 2807   4.534   3.363   0.644 -1.0014  0.0153 -0.0075
  762MOL0     H 2808   4.490   3.285   0.498 -3.1148  3.2428 -1.2399
  762MOL0     H 2809   4.598   3.492   0.379 -0.2122 -1.0106  0.5229
  762MOL0     H 2810   4.625   3.568   0.538  2.2365 -0.9769 -2.9039
  762MOL0     H 2811   4.361   3.499   0.400 -1.2678  0.7928 -0.1979
  762MOL0     H 2812   4.378   3.525   0.574  2.2808 -0.8597  1.3189
  762MOL0     H 2813   4.306   3.721   0.459 -1.4796 -1.0438 -4.2212
  762MOL0     H 2814   4.469   3.764   0.521  0.4422 -1.2149  1.1144
  762MOL0     H 2815   4.556   3.693   0.301  1.0342  1.0830  1.3962
  762MOL0     H 2816   4.391   3.689   0.239  1.3320  0.9617 -1.5186
  762MOL0     H 2817   4.529   3.904   0.197  0.1802 -0.9490 -0.2181
  762MOL0     H 2818   4.561   3.909   0.374  1.6417 -3.8786  0.1611
  762MOL0     H 2819   4.298   3.953   0.372  2.0198 -2.4676 -0.1831
  762MOL0     H 2820   4.412   4.079   0.342 -3.5994  1.6396  3.3091
  762MOL0     H 2821   4.476   4.076   0.056  0.5693 -1.2242 -2.4121
  762MOL0     H 2822   4.420   4.063  -0.203  0.2015  2.6630  1.1956
  762MOL0     H 2823   4.262   3.996  -0.247  0.5900 -0.7157  1.1749
  762MOL0     H 2824   4.155   4.213  -0.244 -0.6204 -2.0859  0.9749
  762MOL0     H 2825   4.297   4.286  -0.165  2.1934 -0.9813 -0.4300
  762MOL0     H 2826   4.283   4.358  -0.380  0.8133  1.1600  4.2845
  762MOL0     H 2827   4.307   4.193  -0.438 -0.6961  1.6038 -1.1707
  762MOL0     H 2828   4.520   4.257  -0.256  0.5898  0.3694 -0.0527
  762MOL0     H 2829   4.505   4.389  -0.377 -0.0291 -0.7027  0.2487
  762MOL0     H 2830   4.750   4.113  -0.608 -1.8583 -0.9371  2.6301
  762MOL0     H 2831   4.718   4.112  -0.880 -1.8668  3.1807 -2.3370
  762MOL0     H 2832   4.539   4.321  -1.281 -0.8241 -0.0468 -0.0607
  762MOL0     H 2833   4.568   4.256  -1.509 -2.4251 -3.0942 -1.6713
  762MOL0     H 2834   4.633   4.047  -1.811  0.1282 -1.7886  0.7154
  762MOL0     H 2835   4.556   4.165  -1.708  0.3291 -0.6061 -1.7465
  762MOL0     H 2836   4.778   4.256  -1.642 -0.9520 -1.6937  0.7758
  762MOL0     H 2837   4.854   4.135  -1.759 -0.7931  0.9782 -1.7788
  762MOL0     H 2838   4.841   4.345  -1.885  2.4323 -2.7235 -0.0026
  762MOL0     H 2839   4.719   4.235  -1.943  0.7574 -0.3386 -0.2269
  762MOL0     H 2840   4.677   4.447  -1.719 -1.7957 -0.1636  1.2019
  762MOL0     H 2841   4.544   4.357  -1.796 -1.7729  3.6187 -0.6359
  762MOL0     H 2842   4.598   4.441  -2.020 -0.2559 -3.2679  1.7644
  762MOL0     H 2843   4.711   4.554  -1.936  1.2312 -2.4901  2.8373
  762MOL0     H 2844   4.408   4.547  -1.903  2.3182 -3.6952  1.9764
  762MOL0     H 2845   4.535   4.669  -1.829 -0.0875 -0.9633  0.9650
  762MOL0     H 2846   4.484   4.629  -2.119  1.7012 -1.9843  1.3010
  762MOL0     H 2847   4.574   4.764  -2.046  0.1202 -0.9358 -0.3255
  762MOL0     H 2848   4.282   4.722  -1.996 -0.7721  1.8377  1.2278
  762MOL0     H 2849   4.383   4.857  -1.937 -1.3003 -2.0922  1.5704
  762MOL0     H 2850   4.732   3.871  -1.403  0.8449 -0.1104 -2.4097
  762MOL0     H 2851   4.688   3.931  -1.159  1.1677 -0.4693 -0.8583
  762MOL0     H 2852   4.377   4.346  -0.838  0.4712 -0.2491  1.7768
  762MOL0     H 2853   4.375   4.330  -0.598 -1.3140  0.5135 -1.6596
  762MOL0     H 2854   4.699   3.061   0.190 -0.4245  1.0882  0.7251
  762MOL0     H 2855   4.894   2.924   0.108  2.8666  0.3629 -0.1108
  762MOL0     H 2856   5.221   2.724   0.137 -0.9757  1.6886  1.2048
  762MOL0     H 2857   5.390   2.535   0.181  0.4215  1.1348  2.4007
  762MOL0     H 2858   5.825   2.625   0.224 -1.3304  2.7125 -0.8772
  762MOL0     H 2859   5.808   2.630   0.049 -0.1372 -0.9249 -0.3571
  762MOL0     H 2860   5.954   2.470   0.090  0.3444 -0.0491 -1.2282
  762MOL0     H 2861   5.816   2.394   0.017  0.2825 -1.2751  1.1050
  762MOL0     H 2862   5.887   2.377   0.322  1.3975 -0.7907  0.2254
  762MOL0     H 2863   5.927   2.263   0.207 -3.0379 -3.6128  1.4676
  762MOL0     H 2864   5.633   2.299   0.299  0.2624 -1.2603  0.4682
  762MOL0     H 2865   5.668   2.228   0.140 -1.3159  1.8943  0.1378
  762MOL0     H 2866   5.814   1.917   0.349 -0.9247 -1.4537 -3.5469
  762MOL0     H 2867   5.702   2.821   0.191 -0.5019  1.1572 -0.6535
  762MOL0     H 2868   5.554   3.083   0.263 -0.8193 -0.9247  0.1711
  762MOL0     H 2869   5.669   3.038   0.136  0.4203  1.7869  1.3386
  762MOL0     H 2870   5.506   3.102   0.097  1.0405  1.0959  0.0755
  763MOL0     O 2871   9.380   8.875  10.593  0.4014  0.0516  0.6451
  763MOL0     C 2872   9.345   8.820  10.694 -0.0830  0.9570 -0.8526
  763MOL0     O 2873   9.217   8.782  10.720 -0.9647 -1.1116 -0.1565
  763MOL0     C 2874   9.115   8.829  10.630 -0.0729 -0.6201  0.2035
  763MOL0     C 2875   9.118   8.799  10.502  0.5979  0.4154 -0.7189
  763MOL0     C 2876   9.015   8.834  10.410  1.4062 -0.4547 -0.7575
  763MOL0     C 2877   8.903   8.894  10.465 -0.3874 -0.2958 -0.8632
  763MOL0     O 2878   8.783   8.913  10.398 -0.0682  0.9597 -0.4421
  763MOL0     C 2879   8.774   8.877  10.266 -0.2693  0.3100 -0.3076
  763MOL0     C 2880   8.758   8.713  10.261  0.9323  0.0221  0.4312
  763MOL0     C 2881   8.775   8.671  10.118 -0.7146 -0.0826 -0.6586
  763MOL0     C 2882   8.754   8.527  10.106 -0.0127 -0.4007 -1.1798
  763MOL0     C 2883   8.791   8.468   9.972 -0.5301 -0.5898  0.4275
  763MOL0     C 2884   8.736   8.320   9.961 -0.0547 -0.0860 -0.5646
  763MOL0     C 2885   8.839   8.213  10.008  1.2707  0.4415  0.2800
  763MOL0     C 2886   8.947   8.190   9.904 -0.5898  0.1701 -0.8576
  763MOL0     N 2887   9.033   8.076   9.945  0.2384  0.0278  0.1156
  763MOL0     C 2888   9.152   8.075  10.018  0.1511 -0.7745  0.5215
  763MOL0     C 2889   9.207   7.956  10.000  0.3259  0.0535  0.7650
  763MOL0     C 2890   9.339   7.922  10.052 -0.3957  0.7108 -0.0648
  763MOL0     C 2891   9.313   7.812  10.157 -0.1804 -0.4092  0.3862
  763MOL0     C 2892   9.429   7.804  10.254 -0.0173 -0.6483 -0.3897
  763MOL0     C 2893   9.407   7.697  10.369  0.0319 -0.0634 -0.1274
  763MOL0     O 2894   9.524   7.681  10.456  1.0397  0.6590  0.1548
  763MOL0     C 2895   9.534   7.749  10.575 -0.5170  0.0776  0.7329
  763MOL0     C 2896   9.480   7.711  10.694  0.9238 -1.1501  0.0343
  763MOL0     C 2897   9.488   7.790  10.814  0.1074 -0.6248  0.4063
  763MOL0     C 2898   9.578   7.904  10.812 -0.1292  0.2692  0.7579
  763MOL0     C 2899   9.607   7.973  10.943 -0.4051  1.1202 -0.6296
  763MOL0     O 2900   9.550   7.917  11.060 -0.2054 -0.1532  0.5481
  763MOL0     C 2901   9.610   7.959  11.179  0.3462 -0.6033 -0.4517
  763MOL0     C 2902   9.565   8.086  11.235  0.9340  0.2222  0.1838
  763MOL0     C 2903   9.609   8.133  11.353 -0.3032 -0.5981  0.0643
  763MOL0     C 2904   9.695   8.056  11.428 -0.6828 -0.0212 -0.0614
  763MOL0     O 2905   9.737   8.120  11.541  0.7179  0.0892 -0.6536
  763MOL0     C 2906   9.842   8.090  11.621 -1.3040 -0.6481  0.2268
  763MOL0     C 2907   9.837   8.155  11.757 -0.4597 -0.3554  0.1618
  763MOL0     C 2908   9.973   8.132  11.830 -0.8568 -0.2007  0.2599
  763MOL0     C 2909  10.004   8.212  11.961  0.2176  0.6466  1.0170
  763MOL0     C 2910  10.103   8.138  12.039 -0.4431  0.5989  0.7818
  763MOL0     C 2911  10.240   8.160  11.969  0.3197 -0.4281 -0.6275
  763MOL0     C 2912  10.343   8.066  12.031  0.4893 -0.9582 -0.1230
  763MOL0     C 2913  10.464   8.132  12.110  0.3325  0.5399 -0.6875
  763MOL0    Cl 2914  10.383   8.217  12.246 -0.2510  0.5398  0.0241
  763MOL0     C 2915   9.736   7.925  11.390  0.1332  0.7683  0.1312
  763MOL0     C 2916   9.693   7.876  11.258  0.3080 -0.1439  0.2877
  763MOL0     O 2917   9.680   8.070  10.937  0.3423 -0.0769  0.7620
  763MOL0     C 2918   9.628   7.943  10.693 -0.2013 -0.3966  0.5369
  763MOL0     C 2919   9.602   7.870  10.574 -0.6762 -0.0681 -0.0655
  763MOL0     N 2920   9.121   7.872   9.922  0.0737 -0.2296  0.2987
  763MOL0     N 2921   9.020   7.949   9.892  0.2733 -0.3628  0.9996
  763MOL0     C 2922   8.909   8.938  10.603  1.2376 -1.3999  0.1813
  763MOL0     C 2923   9.014   8.910  10.681 -0.4757  0.9815 -0.2638
  763MOL0     C 2924   9.453   8.783  10.788 -0.8703  0.5841 -0.1209
  763MOL0     C 2925   9.446   8.846  10.917 -0.1755  0.7005  0.6404
  763MOL0     C 2926   9.559   8.846  11.001  0.2356 -1.2455  0.7377
  763MOL0     C 2927   9.681   8.783  10.966 -0.2876  0.5197  0.6391
  763MOL0     O 2928   9.786   8.796  11.054 -0.2803  0.3666 -0.1780
  763MOL0     C 2929   9.900   8.853  11.000 -0.0671 -0.2595  0.5497
  763MOL0     C 2930   9.980   8.900  11.111  0.9175 -0.4070 -0.8449
  763MOL0     C 2931  10.100   8.991  11.074  0.9518  0.2567  0.2049
  763MOL0     C 2932  10.198   8.943  10.972  0.7438  0.5602  0.8556
  763MOL0     C 2933  10.241   8.811  11.020 -0.5459  0.1372  0.0819
  763MOL0     C 2934  10.282   8.702  11.061 -0.8102  0.4786  0.7951
  763MOL0     C 2935   9.683   8.725  10.841 -0.3100  0.1659  0.7363
  763MOL0     C 2936   9.579   8.722  10.747  0.0361  0.3191 -0.1468
  763MOL0     C 2937   9.615   8.663  10.620  0.7534  0.5557 -0.4387
  763MOL0     H 2938   9.201   8.734  10.474 -1.9178 -3.9213  0.8019
  763MOL0     H 2939   9.016   8.800  10.307 -2.2622  0.4879 -1.2276
  763MOL0     H 2940   8.687   8.915  10.210 -0.5756 -1.3695 -1.0266
  763MOL0     H 2941   8.861   8.919  10.214 -0.2738  1.1310  0.3232
  763MOL0     H 2942   8.655   8.687  10.290  0.2745  0.3647 -1.5090
  763MOL0     H 2943   8.833   8.667  10.326  1.9897  1.2150  0.0744
  763MOL0     H 2944   8.873   8.698  10.076 -1.5676  1.4838 -1.7406
  763MOL0     H 2945   8.699   8.717  10.055 -1.5210  0.5247  0.7060
  763MOL0     H 2946   8.803   8.475  10.189 -0.5277 -3.1428 -2.4622
  763MOL0     H 2947   8.649   8.507  10.130 -0.2746  0.1235 -1.8626
  763MOL0     H 2948   8.736   8.526   9.896  0.5713 -1.3148 -0.9571
  763MOL0     H 2949   8.893   8.478   9.933 -1.4696 -1.1644 -2.4916
  763MOL0     H 2950   8.642   8.305  10.015  1.0794 -0.2898  1.4330
  763MOL0     H 2951   8.712   8.295   9.857 -3.5114 -2.4524  0.6622
  763MOL0     H 2952   8.790   8.117  10.024 -0.5243  1.4971  1.4665
  763MOL0     H 2953   8.887   8.233  10.104 -0.3348 -1.4055  1.5371
  763MOL0     H 2954   8.904   8.156   9.810 -0.6448 -0.9259 -0.4534
  763MOL0     H 2955   9.003   8.282   9.884 -0.8586  0.7196  0.7113
  763MOL0     H 2956   9.196   8.159  10.070  2.9125 -1.0352 -1.1860
  763MOL0     H 2957   9.398   7.880   9.970 -1.3062 -1.9989  0.5714
  763MOL0     H 2958   9.399   7.999  10.101 -0.7265  0.4028  0.8372
  763MOL0     H 2959   9.218   7.833  10.206 -0.4490 -1.1577  0.2048
  763MOL0     H 2960   9.303   7.720  10.099  0.9404 -1.8108  2.2958
  763MOL0     H 2961   9.446   7.901  10.300 -0.8890 -1.7581  2.4767
  763MOL0     H 2962   9.518   7.785  10.193  0.4504 -0.1979  0.1465
  763MOL0     H 2963   9.377   7.600  10.329  0.4417  0.4600 -1.7807
  763MOL0     H 2964   9.324   7.737  10.428  0.0340  2.0782 -1.4354
  763MOL0     H 2965   9.428   7.615  10.692 -4.3767  1.3720 -2.3822
  763MOL0     H 2966   9.438   7.742  10.898 -1.4910 -1.5913 -1.0478
  763MOL0     H 2967   9.500   8.142  11.170  1.4971  0.5304 -0.1221
  763MOL0     H 2968   9.579   8.234  11.379 -2.1674 -1.3190  0.8915
  763MOL0     H 2969   9.846   7.981  11.632 -0.3899 -0.6397  0.0782
  763MOL0     H 2970   9.931   8.116  11.563 -2.5192 -2.2807 -2.5324
  763MOL0     H 2971   9.821   8.263  11.746  0.3989 -0.2825 -0.5553
  763MOL0     H 2972   9.753   8.119  11.816 -0.6673  2.3699  1.7062
  763MOL0     H 2973   9.985   8.025  11.846 -1.5421 -0.4997 -1.0932
  763MOL0     H 2974  10.056   8.160  11.764 -2.0518 -1.8049 -2.0520
  763MOL0     H 2975   9.917   8.224  12.025 -0.8273 -2.0530  0.2296
  763MOL0     H 2976  10.037   8.313  11.936  1.1012 -0.2868 -1.9891
  763MOL0     H 2977  10.079   8.032  12.046  2.3801 -0.1442  0.2858
  763MOL0     H 2978  10.110   8.183  12.138  0.2433  0.5331  0.7661
  763MOL0     H 2979  10.250   8.147  11.861  1.6945  0.8650 -0.6891
  763MOL0     H 2980  10.265   8.266  11.972 -0.6536  0.0903 -4.8197
  763MOL0     H 2981  10.386   8.007  11.949 -1.8403 -0.6692 -1.6464
  763MOL0     H 2982  10.297   7.999  12.104 -1.6252  1.8698  1.3354
  763MOL0     H 2983  10.529   8.053  12.148 -0.7738  0.5400  1.3486
  763MOL0     H 2984  10.502   8.201  12.035 -1.3612  0.5165 -1.6081
  763MOL0     H 2985   9.806   7.865  11.447  0.9223  3.1243  1.8238
  763MOL0     H 2986   9.702   7.771  11.234 -0.1489  0.0907 -0.9543
  763MOL0     H 2987   9.700   8.023  10.684 -1.0176  0.4633  1.4231
  763MOL0     H 2988   9.652   7.903  10.483  2.5973  2.0267  2.2795
  763MOL0     H 2989   8.830   8.995  10.652 -2.7836 -3.6593 -3.0355
  763MOL0     H 2990   9.029   8.951  10.780  1.5489  1.0773 -0.5719
  763MOL0     H 2991   9.353   8.888  10.954 -0.7314  0.9575 -0.9607
  763MOL0     H 2992   9.551   8.893  11.098 -0.1347  2.7216 -1.0496
  763MOL0     H 2993   9.871   8.935  10.934  4.0099 -0.3349 -1.6326
  763MOL0     H 2994   9.957   8.781  10.940 -0.4855  0.4641 -0.7525
  763MOL0     H 2995  10.022   8.813  11.161 -0.5411 -0.5205  0.2675
  763MOL0     H 2996   9.908   8.959  11.169 -0.0952 -1.1842 -1.2846
  763MOL0     H 2997  10.144   9.020  11.170  0.0239  1.0563  0.4002
  763MOL0     H 2998  10.069   9.088  11.035  0.6115  0.5725  1.2307
  763MOL0     H 2999  10.158   8.946  10.870 -0.4258  0.4516  1.2888
  763MOL0     H 3000  10.280   9.015  10.979  0.7835  0.4300  1.7696
  763MOL0     H 3001  10.322   8.603  11.069  0.2259  0.7602 -0.5731
  763MOL0     H 3002   9.771   8.672  10.805 -2.9345 -3.0406 -1.6200
  763MOL0     H 3003   9.675   8.733  10.561  0.6913  1.2621  0.3054
  763MOL0     H 3004   9.662   8.565  10.629  0.2469  0.2552 -1.0101
  763MOL0     H 3005   9.521   8.659  10.566 -0.5720 -4.4453  1.6939
  764MOL0     O 3006   5.090   4.280   9.885  0.1189 -0.3751  0.4677
  764MOL0     C 3007   5.026   4.384   9.894 -0.1008 -0.2457 -0.3785
  764MOL0     O 3008   5.036   4.488   9.811  0.7000  0.1149  0.8276
  764MOL0     C 3009   5.135   4.497   9.713 -0.2262 -0.8783  0.0468
  764MOL0     C 3010   5.158   4.400   9.611 -0.5172 -0.4334 -0.2013
  764MOL0     C 3011   5.250   4.424   9.505  0.3558 -0.9765  0.1818
  764MOL0     C 3012   5.299   4.551   9.492  0.1912  0.4811 -0.1687
  764MOL0     O 3013   5.378   4.594   9.394  1.1617 -0.1942  1.3237
  764MOL0     C 3014   5.313   4.633   9.276  1.0024 -0.0023  0.1161
  764MOL0     C 3015   5.397   4.595   9.158  0.5435 -0.8700 -0.3370
  764MOL0     C 3016   5.409   4.451   9.128  0.6514  0.1962  0.2234
  764MOL0     C 3017   5.531   4.392   9.203  0.0545 -0.3574 -0.0048
  764MOL0     C 3018   5.548   4.237   9.169 -0.3401 -1.5650 -0.2164
  764MOL0     C 3019   5.568   4.201   9.021  0.2879  0.0274 -0.7556
  764MOL0     C 3020   5.572   4.044   9.008  0.3327  0.6059 -0.0301
  764MOL0     C 3021   5.638   4.008   8.871 -0.0638 -0.1742  0.7195
  764MOL0     N 3022   5.759   4.070   8.842 -1.3192  1.1059 -0.0069
  764MOL0     C 3023   5.771   4.160   8.747 -0.0582  1.5446  0.1397
  764MOL0     C 3024   5.907   4.185   8.743 -0.7231  0.4665  0.3918
  764MOL0     C 3025   5.966   4.295   8.656  0.0566 -0.1216  0.6381
  764MOL0     C 3026   6.108   4.331   8.665 -0.9786  0.1280 -1.0011
  764MOL0     C 3027   6.207   4.222   8.623 -1.4472 -0.0985  0.4175
  764MOL0     C 3028   6.360   4.269   8.628  0.9974 -0.0321  0.2441
  764MOL0     O 3029   6.444   4.178   8.557  0.6173  0.0872 -0.3593
  764MOL0     C 3030   6.576   4.207   8.568  0.0816 -0.1880  0.3248
  764MOL0     C 3031   6.662   4.101   8.527 -0.2781  0.0383 -0.2701
  764MOL0     C 3032   6.797   4.120   8.528 -0.5615 -0.0343 -0.0102
  764MOL0     C 3033   6.855   4.234   8.584  0.3533  0.9692  0.1907
  764MOL0     C 3034   7.005   4.251   8.593  0.3243 -0.3896  0.3726
  764MOL0     O 3035   7.058   4.278   8.717  0.5572 -0.1463 -0.0575
  764MOL0     C 3036   7.194   4.304   8.740  0.7185  0.0032  0.1403
  764MOL0     C 3037   7.298   4.285   8.658 -0.4199 -0.1309  0.4623
  764MOL0     C 3038   7.422   4.336   8.691  0.4836 -0.3784 -0.4487
  764MOL0     C 3039   7.443   4.397   8.818 -0.0448  0.3490 -0.7009
  764MOL0     O 3040   7.555   4.444   8.868  0.1082  0.2867  0.4929
  764MOL0     C 3041   7.641   4.496   8.772 -0.2021 -0.2209 -0.3618
  764MOL0     C 3042   7.756   4.563   8.840 -0.4016  0.4077  0.8339
  764MOL0     C 3043   7.718   4.698   8.898  0.4837  0.2841 -0.8306
  764MOL0     C 3044   7.839   4.741   8.978  0.0414 -1.0512  1.0606
  764MOL0     C 3045   7.829   4.888   9.031 -0.8956  0.3532 -0.3629
  764MOL0     C 3046   7.704   4.921   9.115 -0.5241  0.1291 -0.0413
  764MOL0     C 3047   7.696   4.844   9.252 -0.8079  0.5062  0.3078
  764MOL0     C 3048   7.789   4.902   9.358  0.6881 -0.0645  0.4877
  764MOL0    Cl 3049   7.712   4.846   9.508  0.1281 -0.2146 -0.2373
  764MOL0     C 3050   7.335   4.415   8.906 -0.5304  0.4375 -0.2882
  764MOL0     C 3051   7.213   4.364   8.864  0.1228 -0.3635 -1.1408
  764MOL0     O 3052   7.063   4.250   8.485  0.0961 -0.5502  0.3626
  764MOL0     C 3053   6.765   4.336   8.625 -0.0698  0.0154 -0.1244
  764MOL0     C 3054   6.629   4.327   8.612 -0.1428 -0.1458 -1.0385
  764MOL0     N 3055   5.969   4.107   8.839 -0.0142  0.6851  0.1249
  764MOL0     N 3056   5.874   4.038   8.899 -0.3258 -0.1993  0.6136
  764MOL0     C 3057   5.271   4.646   9.586  0.3825 -0.0697  0.1658
  764MOL0     C 3058   5.188   4.621   9.690 -0.3146 -0.4425 -0.7072
  764MOL0     C 3059   4.953   4.408  10.025 -0.0071  0.9391 -0.1833
  764MOL0     C 3060   4.909   4.538  10.060  0.8102  0.2142 -1.2005
  764MOL0     C 3061   4.847   4.569  10.180 -0.6091  0.2291  0.7054
  764MOL0     C 3062   4.819   4.470  10.276 -0.2196  0.2313  0.6260
  764MOL0     O 3063   4.767   4.487  10.393  0.4997  0.0977 -0.4518
  764MOL0     C 3064   4.704   4.612  10.432 -0.2942  0.1956  0.1556
  764MOL0     C 3065   4.653   4.606  10.577  0.5038  0.2138 -1.0827
  764MOL0     C 3066   4.645   4.747  10.635 -0.2405  0.4983 -0.2588
  764MOL0     C 3067   4.571   4.739  10.765 -1.0841  0.4216 -0.2144
  764MOL0     C 3068   4.421   4.737  10.753 -0.0234 -0.5527 -0.3212
  764MOL0     C 3069   4.301   4.730  10.724  0.8407  0.0422 -0.6017
  764MOL0     C 3070   4.863   4.341  10.246  0.0149 -0.1076 -0.4497
  764MOL0     C 3071   4.929   4.307  10.125 -0.0446  0.5718  0.3358
  764MOL0     C 3072   4.960   4.162  10.108  0.8322 -0.3967 -0.2992
  764MOL0     H 3073   5.121   4.298   9.622  1.6647 -1.4508 -1.6093
  764MOL0     H 3074   5.277   4.346   9.434  0.2470  1.1897 -2.4261
  764MOL0     H 3075   5.208   4.607   9.261  0.3392  2.5502 -0.1753
  764MOL0     H 3076   5.337   4.740   9.271  1.3989 -0.1137 -0.3245
  764MOL0     H 3077   5.498   4.638   9.163 -0.1619  0.7183  1.0618
  764MOL0     H 3078   5.347   4.650   9.079 -0.2032 -1.4616 -0.2900
  764MOL0     H 3079   5.426   4.431   9.022  0.0865 -2.2008  0.5167
  764MOL0     H 3080   5.317   4.400   9.159  1.1134 -0.4564  0.5616
  764MOL0     H 3081   5.622   4.449   9.179 -0.6182  0.9935  0.5566
  764MOL0     H 3082   5.519   4.391   9.312  0.3484  1.8038  0.0809
  764MOL0     H 3083   5.642   4.209   9.217 -0.6305 -0.4434  1.0611
  764MOL0     H 3084   5.460   4.185   9.209 -0.8777 -0.7578 -0.3162
  764MOL0     H 3085   5.490   4.234   8.952  0.9695  1.1828 -0.9881
  764MOL0     H 3086   5.661   4.252   8.998  1.7275 -1.3469  1.5717
  764MOL0     H 3087   5.469   4.008   9.019  0.9597 -0.9279  1.1049
  764MOL0     H 3088   5.628   3.989   9.084 -2.9903 -2.4192  0.4987
  764MOL0     H 3089   5.651   3.900   8.858 -2.4201 -0.1849 -3.3057
  764MOL0     H 3090   5.558   4.028   8.799 -2.3148 -0.1287  3.0667
  764MOL0     H 3091   5.688   4.208   8.697 -2.3131 -2.6537 -0.5914
  764MOL0     H 3092   5.943   4.258   8.556 -0.4142  3.0289 -0.5322
  764MOL0     H 3093   5.897   4.377   8.679 -0.4638 -0.5461  0.5754
  764MOL0     H 3094   6.123   4.406   8.587  2.5677 -0.9942 -1.5887
  764MOL0     H 3095   6.133   4.360   8.768  0.0197  0.3912 -1.3053
  764MOL0     H 3096   6.178   4.209   8.519 -1.8656  0.5910  0.4378
  764MOL0     H 3097   6.185   4.139   8.690  2.6011 -0.1572  1.9583
  764MOL0     H 3098   6.380   4.280   8.735 -0.3492  1.5405  0.3602
  764MOL0     H 3099   6.366   4.363   8.574  3.1092 -0.4451 -0.3318
  764MOL0     H 3100   6.619   4.011   8.484  1.9443 -1.8552  1.2550
  764MOL0     H 3101   6.855   4.035   8.493  0.7157  1.1835 -0.9552
  764MOL0     H 3102   7.294   4.236   8.561 -1.3737  0.9354 -0.0627
  764MOL0     H 3103   7.506   4.320   8.624  0.0181 -1.4143 -0.8086
  764MOL0     H 3104   7.699   4.414   8.729 -0.3264 -0.4421 -0.1129
  764MOL0     H 3105   7.597   4.551   8.688  2.0702  1.2842 -0.6572
  764MOL0     H 3106   7.799   4.490   8.909  1.8284 -1.9832 -2.7338
  764MOL0     H 3107   7.843   4.567   8.775  0.3817 -0.8321  1.7545
  764MOL0     H 3108   7.687   4.761   8.815 -4.8554 -2.7296 -1.5684
  764MOL0     H 3109   7.632   4.695   8.966  1.4359 -0.9425  0.3762
  764MOL0     H 3110   7.929   4.737   8.917 -0.3173 -1.8338  0.5686
  764MOL0     H 3111   7.866   4.666   9.052  1.9018 -1.9588 -0.4557
  764MOL0     H 3112   7.829   4.957   8.946 -0.9307  0.6716 -0.1078
  764MOL0     H 3113   7.917   4.900   9.093 -0.5483 -3.9312  0.2738
  764MOL0     H 3114   7.702   5.030   9.119  1.2769  0.2238 -0.6643
  764MOL0     H 3115   7.608   4.907   9.064 -0.3635 -1.7530  0.1228
  764MOL0     H 3116   7.720   4.739   9.233  1.2313  1.4099 -2.8373
  764MOL0     H 3117   7.595   4.849   9.293 -0.8447  0.2469  0.2509
  764MOL0     H 3118   7.891   4.868   9.338  1.8409  3.4628 -0.3234
  764MOL0     H 3119   7.802   5.011   9.353  0.8500 -0.1241 -1.7746
  764MOL0     H 3120   7.341   4.467   9.000 -6.4090 -1.5863  1.6630
  764MOL0     H 3121   7.125   4.399   8.918  1.2674  2.5625 -0.9829
  764MOL0     H 3122   6.803   4.422   8.679  0.1001  0.0862 -0.3567
  764MOL0     H 3123   6.574   4.417   8.638 -1.3219 -0.9387 -0.6987
  764MOL0     H 3124   5.308   4.748   9.572  1.6859 -0.6753 -1.0426
  764MOL0     H 3125   5.141   4.692   9.758  0.2334 -0.1599 -0.6201
  764MOL0     H 3126   4.936   4.620   9.993 -1.4992  0.5861 -1.7751
  764MOL0     H 3127   4.803   4.664  10.211  1.6240  0.5910  3.1221
  764MOL0     H 3128   4.622   4.639  10.365 -0.0170  0.0933 -0.2263
  764MOL0     H 3129   4.772   4.698  10.438 -1.2402  1.1392 -1.9186
  764MOL0     H 3130   4.731   4.564  10.643 -1.1028  2.8755  2.8925
  764MOL0     H 3131   4.565   4.545  10.594  2.1036 -1.9195  0.0764
  764MOL0     H 3132   4.586   4.820  10.578 -1.6023 -0.2509  0.1528
  764MOL0     H 3133   4.749   4.779  10.648 -0.1118  0.4837 -1.1501
  764MOL0     H 3134   4.585   4.647  10.823 -0.3148  0.7352  0.1132
  764MOL0     H 3135   4.593   4.817  10.839 -1.6693  0.3118  0.0806
  764MOL0     H 3136   4.201   4.722  10.688  0.5256  3.1689 -0.6339
  764MOL0     H 3137   4.846   4.262  10.318  3.2411 -0.8766 -0.3815
  764MOL0     H 3138   4.938   4.107  10.200  1.7117 -1.3457 -0.6364
  764MOL0     H 3139   4.905   4.117  10.025 -3.5205 -1.6804  2.8999
  764MOL0     H 3140   5.067   4.151  10.088  0.8790 -0.3732 -0.0585
  765MOL0     O 3141   9.420   1.148   4.940 -0.3852  0.5119  0.6993
  765MOL0     C 3142   9.370   1.261   4.964  0.2937  0.4073 -0.0437
  765MOL0     O 3143   9.418   1.366   5.047 -1.0387 -0.0882  0.0481
  765MOL0     C 3144   9.522   1.343   5.133 -1.0665  0.3980  0.5095
  765MOL0     C 3145   9.523   1.378   5.263  0.0346  0.9591 -0.1475
  765MOL0     C 3146   9.635   1.350   5.341  0.7314 -0.1950 -0.2081
  765MOL0     C 3147   9.749   1.290   5.289  0.4020  0.1722 -0.0535
  765MOL0     O 3148   9.860   1.284   5.368 -0.1688 -0.2867 -0.7567
  765MOL0     C 3149   9.983   1.238   5.311  1.0797  0.0784  0.0569
  765MOL0     C 3150  10.086   1.219   5.425 -0.5084 -0.2870  0.3523
  765MOL0     C 3151  10.213   1.151   5.377  0.2983  0.2086  0.4373
  765MOL0     C 3152  10.332   1.242   5.360  0.0005 -0.2483  0.5576
  765MOL0     C 3153  10.470   1.167   5.342  0.5622  0.3587 -0.1001
  765MOL0     C 3154  10.585   1.236   5.415  0.7898  0.0457  1.4093
  765MOL0     C 3155  10.698   1.147   5.463 -0.2137 -0.4147  0.2270
  765MOL0     C 3156  10.667   1.044   5.568  0.2964  0.2985 -0.1994
  765MOL0     N 3157  10.788   0.970   5.595  0.5269 -0.5659 -0.0500
  765MOL0     C 3158  10.903   1.029   5.651  0.5059 -0.1760  0.3676
  765MOL0     C 3159  11.007   0.945   5.629 -1.2479 -0.3520  0.4159
  765MOL0     C 3160  11.150   0.966   5.657 -0.7633 -0.0196  0.3219
  765MOL0     C 3161  11.201   1.047   5.546  0.0770 -0.4207  0.2798
  765MOL0     C 3162  11.349   1.094   5.567  0.2625 -0.2751 -0.2364
  765MOL0     C 3163  11.352   1.206   5.669  0.1289  0.1742 -2.5780
  765MOL0     O 3164  11.491   1.241   5.697  0.2700 -0.0953  0.0559
  765MOL0     C 3165  11.556   1.333   5.627  0.2866 -0.3892 -0.4281
  765MOL0     C 3166  11.516   1.377   5.500 -0.3747  0.5178 -0.5870
  765MOL0     C 3167  11.597   1.469   5.425  1.2433 -0.7187  1.1986
  765MOL0     C 3168  11.721   1.521   5.476 -0.0729 -1.3583  0.9978
  765MOL0     C 3169  11.811   1.604   5.393  0.3959  0.0812 -1.5026
  765MOL0     O 3170  11.886   1.696   5.454  0.4308 -0.5520 -0.2552
  765MOL0     C 3171  11.967   1.792   5.397 -0.6263  0.7088  0.4424
  765MOL0     C 3172  12.091   1.826   5.459  0.1371  0.1510  0.2297
  765MOL0     C 3173  12.171   1.935   5.409  0.5896 -0.2128 -0.0320
  765MOL0     C 3174  12.137   2.003   5.294 -0.6288  0.0108 -0.5020
  765MOL0     O 3175  12.220   2.104   5.255  0.7728 -0.4238 -1.2350
  765MOL0     C 3176  12.161   2.195   5.159 -0.1022  0.6164 -1.2339
  765MOL0     C 3177  12.270   2.288   5.102  0.4456  0.5516  1.2157
  765MOL0     C 3178  12.203   2.374   4.998 -0.0825  1.0419 -0.6334
  765MOL0     C 3179  12.143   2.505   5.049 -0.4930  0.7508  0.0355
  765MOL0     C 3180  12.045   2.581   4.964 -0.9760  0.8167  0.3519
  765MOL0     C 3181  11.927   2.491   4.909  0.3570 -0.3624 -0.2839
  765MOL0     C 3182  11.793   2.541   4.931 -0.4624 -0.6004 -0.1668
  765MOL0     C 3183  11.675   2.448   4.901  0.1233 -1.5500  0.3799
  765MOL0    Cl 3184  11.663   2.322   5.027 -0.1937  0.1046 -0.1261
  765MOL0     C 3185  12.019   1.963   5.231  0.2605 -0.8366 -0.4474
  765MOL0     C 3186  11.934   1.863   5.285  0.2494 -0.4654 -0.6189
  765MOL0     O 3187  11.809   1.593   5.271 -0.7000  0.0348  0.8540
  765MOL0     C 3188  11.750   1.482   5.608  0.7341  0.6960  0.1927
  765MOL0     C 3189  11.679   1.384   5.675  0.7279  0.9909  0.2071
  765MOL0     N 3190  10.956   0.843   5.560  0.1766 -0.0382 -0.6495
  765MOL0     N 3191  10.827   0.853   5.537 -0.3274 -0.8133  0.0286
  765MOL0     C 3192   9.749   1.255   5.149 -0.4055  0.5230 -0.7635
  765MOL0     C 3193   9.641   1.286   5.076 -0.3812 -1.2716 -0.0652
  765MOL0     C 3194   9.238   1.284   4.896  0.0560  0.4891 -0.3265
  765MOL0     C 3195   9.131   1.344   4.966 -0.0450  0.4354  0.1791
  765MOL0     C 3196   9.021   1.390   4.899 -0.2280 -0.7187 -0.3171
  765MOL0     C 3197   9.010   1.372   4.764  0.3546  0.1387 -0.1615
  765MOL0     O 3198   8.902   1.428   4.701  0.4214  0.6304 -0.4399
  765MOL0     C 3199   8.837   1.361   4.591 -0.4499 -0.7226  0.4998
  765MOL0     C 3200   8.691   1.348   4.605 -0.4470  0.1166 -0.2787
  765MOL0     C 3201   8.601   1.469   4.617  0.0829 -0.0381  0.0580
  765MOL0     C 3202   8.604   1.552   4.494  0.1750 -0.2499 -0.2463
  765MOL0     C 3203   8.575   1.479   4.371  0.0350  0.2515  1.4567
  765MOL0     C 3204   8.559   1.392   4.282  0.1503  0.4597  0.3275
  765MOL0     C 3205   9.111   1.310   4.687 -0.2265  0.4885  0.4982
  765MOL0     C 3206   9.233   1.272   4.747 -0.0013 -0.8806  0.2250
  765MOL0     C 3207   9.352   1.234   4.664  0.3753 -1.3517  0.3893
  765MOL0     H 3208   9.432   1.419   5.306 -0.6278  1.1144 -1.6393
  765MOL0     H 3209   9.634   1.384   5.444 -1.2107 -0.4177 -0.1220
  765MOL0     H 3210   9.973   1.136   5.272  0.6506  0.3128 -0.4637
  765MOL0     H 3211  10.022   1.292   5.225  1.0109 -2.0900 -1.4197
  765MOL0     H 3212  10.039   1.150   5.496  1.1394 -2.1351 -0.2344
  765MOL0     H 3213  10.117   1.312   5.473  0.7537 -0.5907  0.1780
  765MOL0     H 3214  10.187   1.107   5.280 -0.1812  0.4050  0.4746
  765MOL0     H 3215  10.224   1.058   5.435 -0.8841 -0.0863  0.2160
  765MOL0     H 3216  10.321   1.304   5.270  0.4510  0.4993  1.0011
  765MOL0     H 3217  10.336   1.313   5.444  2.0877  1.5385 -0.9251
  765MOL0     H 3218  10.453   1.069   5.388 -0.2339 -0.2524 -1.6136
  765MOL0     H 3219  10.487   1.165   5.234 -0.5074  4.0654 -0.4619
  765MOL0     H 3220  10.623   1.312   5.346  0.6336 -1.1533 -0.0693
  765MOL0     H 3221  10.550   1.289   5.504 -0.0006 -0.8309  1.6380
  765MOL0     H 3222  10.759   1.225   5.508 -1.5503  1.6923 -1.4179
  765MOL0     H 3223  10.739   1.106   5.371 -0.1543  1.2669 -0.5268
  765MOL0     H 3224  10.634   1.089   5.662  1.5913  3.7017 -1.2408
  765MOL0     H 3225  10.586   0.983   5.527  1.4815 -3.6442  2.6846
  765MOL0     H 3226  10.913   1.136   5.665  1.3953 -0.4570  2.0788
  765MOL0     H 3227  11.158   1.012   5.755  0.2208  0.2298  0.1301
  765MOL0     H 3228  11.197   0.867   5.656  0.9719  0.7798  0.0871
  765MOL0     H 3229  11.206   0.981   5.459 -0.5921  1.5216 -1.3141
  765MOL0     H 3230  11.134   1.129   5.518  0.1127 -1.1846 -2.3526
  765MOL0     H 3231  11.384   1.120   5.467 -2.2354 -2.2837 -1.7618
  765MOL0     H 3232  11.418   1.016   5.600 -0.4404 -0.5283  0.7061
  765MOL0     H 3233  11.300   1.163   5.755 -0.0040 -0.6117 -3.0464
  765MOL0     H 3234  11.290   1.293   5.645 -0.5829  0.2832 -0.5374
  765MOL0     H 3235  11.425   1.330   5.462 -0.6398  0.2134  0.4094
  765MOL0     H 3236  11.569   1.484   5.321 -1.2191 -2.4594  1.5368
  765MOL0     H 3237  12.126   1.785   5.554  0.7136  4.6878  2.2398
  765MOL0     H 3238  12.257   1.966   5.468  0.3983 -2.4890  1.5435
  765MOL0     H 3239  12.109   2.147   5.075 -1.2100  0.7223 -0.6227
  765MOL0     H 3240  12.092   2.259   5.213  2.1431  1.9191  0.2430
  765MOL0     H 3241  12.313   2.358   5.175 -0.8863  1.4901  1.1400
  765MOL0     H 3242  12.348   2.220   5.068 -0.8377 -0.6411  0.5455
  765MOL0     H 3243  12.278   2.387   4.919 -0.2692 -1.3774 -1.3126
  765MOL0     H 3244  12.111   2.325   4.964 -0.1953  0.4389  0.5091
  765MOL0     H 3245  12.227   2.569   5.078 -0.3020  1.4017 -1.8298
  765MOL0     H 3246  12.076   2.490   5.134 -0.6810 -1.6436 -0.4815
  765MOL0     H 3247  12.099   2.606   4.872  1.8276  0.6622  1.8721
  765MOL0     H 3248  12.022   2.679   5.007  2.7767  2.4306 -0.8831
  765MOL0     H 3249  11.932   2.473   4.802 -3.3079 -1.7628 -0.3792
  765MOL0     H 3250  11.936   2.401   4.971  0.1340 -0.0327  0.2378
  765MOL0     H 3251  11.781   2.621   4.857  0.2283 -0.2108  0.1349
  765MOL0     H 3252  11.779   2.583   5.031  1.4247 -0.1053 -0.0829
  765MOL0     H 3253  11.585   2.509   4.897 -0.1255 -1.9142 -3.8743
  765MOL0     H 3254  11.689   2.397   4.805  2.1329 -1.2057  0.4464
  765MOL0     H 3255  11.976   2.023   5.151  0.8209 -0.4934 -0.4883
  765MOL0     H 3256  11.843   1.837   5.232  0.7248  0.0269 -1.6879
  765MOL0     H 3257  11.844   1.518   5.649  2.4683  2.5147 -4.6832
  765MOL0     H 3258  11.711   1.340   5.768 -2.0784  0.6544  1.1103
  765MOL0     H 3259   9.833   1.203   5.104  0.2983  1.2766 -0.3408
  765MOL0     H 3260   9.645   1.255   4.972 -1.7143  0.9041 -0.8153
  765MOL0     H 3261   9.147   1.358   5.072 -0.9803  1.5380  0.2010
  765MOL0     H 3262   8.937   1.431   4.954  1.0640 -1.9327  2.8314
  765MOL0     H 3263   8.890   1.269   4.563  0.6021  0.0210 -0.0378
  765MOL0     H 3264   8.863   1.417   4.500  3.0878 -3.3852 -0.3795
  765MOL0     H 3265   8.675   1.286   4.693 -2.2979 -2.2487 -2.1287
  765MOL0     H 3266   8.664   1.271   4.533  3.6155 -2.5360  0.6808
  765MOL0     H 3267   8.639   1.527   4.701  2.9611 -2.9054  0.9281
  765MOL0     H 3268   8.498   1.438   4.635 -0.3802  0.0457 -2.1416
  765MOL0     H 3269   8.529   1.631   4.500  0.0365 -0.1724 -2.2094
  765MOL0     H 3270   8.703   1.598   4.487  0.1481 -0.0046  0.8819
  765MOL0     H 3271   8.552   1.319   4.204 -2.9092  1.5810 -0.5687
  765MOL0     H 3272   9.109   1.295   4.580  1.5764 -3.2673  0.8267
  765MOL0     H 3273   9.423   1.315   4.686  0.8723 -2.2711  2.3433
  765MOL0     H 3274   9.398   1.146   4.709  1.8898  0.1608  1.9484
  765MOL0     H 3275   9.331   1.217   4.558  0.5893 -1.8220  0.4227
  766MOL0     O 3276   3.064   2.176  10.682 -0.6749 -0.5179  0.4784
  766MOL0     C 3277   2.993   2.166  10.775 -0.3828 -0.0953  0.1953
  766MOL0     O 3278   2.988   2.253  10.882  0.2901  1.0768  0.3200
  766MOL0     C 3279   3.098   2.297  10.943  0.4648 -0.7012 -1.6087
  766MOL0     C 3280   3.075   2.376  11.054  0.5588 -0.3140  0.6077
  766MOL0     C 3281   3.172   2.445  11.118  0.3256  0.5624 -0.6646
  766MOL0     C 3282   3.305   2.442  11.073 -0.8024  0.2574 -0.1301
  766MOL0     O 3283   3.405   2.518  11.119  0.0878  0.3495 -0.4406
  766MOL0     C 3284   3.527   2.460  11.146 -0.1409  0.2131 -1.5099
  766MOL0     C 3285   3.618   2.565  11.207 -0.6694  0.3670  0.2289
  766MOL0     C 3286   3.569   2.592  11.352 -0.5211  0.6820 -0.4812
  766MOL0     C 3287   3.669   2.699  11.413  0.6525 -0.1712  0.8785
  766MOL0     C 3288   3.616   2.747  11.547 -0.0001 -1.0247 -0.9425
  766MOL0     C 3289   3.724   2.819  11.628  0.0948 -0.2527 -1.3487
  766MOL0     C 3290   3.780   2.942  11.558  0.3277  0.2773 -1.3681
  766MOL0     C 3291   3.819   3.046  11.665  0.0436  0.3919 -0.6857
  766MOL0     N 3292   3.864   3.173  11.601  0.6924  0.2156  0.0221
  766MOL0     C 3293   3.781   3.287  11.592 -0.5498 -0.2130 -0.8045
  766MOL0     C 3294   3.817   3.370  11.492 -0.9900  0.0435  0.4612
  766MOL0     C 3295   3.770   3.513  11.467 -1.2352  0.0897 -0.1814
  766MOL0     C 3296   3.891   3.607  11.514  0.6788  0.1333 -0.1737
  766MOL0     C 3297   3.860   3.757  11.505  0.1203  1.0217  0.5747
  766MOL0     C 3298   3.891   3.822  11.645  0.3480 -0.6429 -0.3768
  766MOL0     O 3299   3.818   3.752  11.743 -0.4784 -0.2480  0.1338
  766MOL0     C 3300   3.884   3.742  11.856 -0.2622 -0.2087  0.3764
  766MOL0     C 3301   3.849   3.819  11.966 -0.1622  0.5065  0.3701
  766MOL0     C 3302   3.918   3.811  12.088  0.0378 -0.4371  1.1739
  766MOL0     C 3303   4.022   3.711  12.104 -0.1204 -0.0724 -0.4347
  766MOL0     C 3304   4.110   3.709  12.223  0.0426 -0.2373 -0.1374
  766MOL0     O 3305   4.214   3.617  12.223  0.6495 -0.5704 -0.6117
  766MOL0     C 3306   4.319   3.616  12.309 -0.6977 -0.1385  0.0899
  766MOL0     C 3307   4.385   3.739  12.319 -0.9839  0.6476 -0.5966
  766MOL0     C 3308   4.497   3.740  12.404 -0.3137  0.6286 -0.1658
  766MOL0     C 3309   4.543   3.618  12.474  0.3798 -0.7827 -0.6061
  766MOL0     O 3310   4.656   3.615  12.555  0.2321 -0.7815  0.3421
  766MOL0     C 3311   4.723   3.740  12.594  0.2984  0.6255 -1.2243
  766MOL0     C 3312   4.826   3.703  12.703 -0.4724 -0.7666 -0.8204
  766MOL0     C 3313   4.931   3.601  12.649  0.1974 -0.5598 -0.6750
  766MOL0     C 3314   5.016   3.550  12.767  0.1949 -0.6489 -1.1005
  766MOL0     C 3315   5.126   3.480  12.694  0.2154 -0.1175  0.3036
  766MOL0     C 3316   5.230   3.418  12.793  0.5638  0.1196  0.4999
  766MOL0     C 3317   5.340   3.331  12.720  0.4746 -0.6785 -0.4383
  766MOL0     C 3318   5.442   3.299  12.826 -0.2187  0.3607 -1.0596
  766MOL0    Cl 3319   5.393   3.163  12.927  0.2475  0.0889  0.3206
  766MOL0     C 3320   4.475   3.505  12.450  0.0198 -0.1214 -0.2116
  766MOL0     C 3321   4.356   3.499  12.375 -0.3123  0.5181  0.5440
  766MOL0     O 3322   4.088   3.790  12.311  0.3010 -0.0656 -0.2199
  766MOL0     C 3323   4.046   3.629  11.997 -0.0618  1.4930 -0.8630
  766MOL0     C 3324   3.982   3.638  11.871  0.1346  0.1198 -0.2238
  766MOL0     N 3325   3.931   3.301  11.434  0.1606  0.4201 -0.2421
  766MOL0     N 3326   3.953   3.194  11.504  0.0538  0.1461 -0.2690
  766MOL0     C 3327   3.328   2.361  10.958  0.2813 -0.2527  0.3408
  766MOL0     C 3328   3.225   2.287  10.899  0.3944  0.2492  0.4539
  766MOL0     C 3329   2.887   2.065  10.769  0.1689  0.4255 -0.8893
  766MOL0     C 3330   2.786   2.076  10.880 -0.2422 -0.0490  0.1202
  766MOL0     C 3331   2.696   1.970  10.892  0.5195  0.4405 -0.0692
  766MOL0     C 3332   2.688   1.869  10.805 -0.9659  0.9850  0.2355
  766MOL0     O 3333   2.606   1.767  10.834 -0.5104 -0.2029  0.8902
  766MOL0     C 3334   2.594   1.646  10.750 -0.5534  0.7121 -0.2963
  766MOL0     C 3335   2.706   1.546  10.785  0.1799  0.2774  0.4744
  766MOL0     C 3336   2.745   1.448  10.681  0.0907 -0.2051 -0.1772
  766MOL0     C 3337   2.826   1.518  10.566 -0.9305 -0.4828 -0.3469
  766MOL0     C 3338   2.973   1.534  10.590 -0.1722 -1.0651 -0.4541
  766MOL0     C 3339   3.086   1.559  10.615  0.7005 -0.4311 -0.1111
  766MOL0     C 3340   2.762   1.882  10.684  0.0765  0.0569 -0.0235
  766MOL0     C 3341   2.876   1.965  10.668  0.9148  0.0570  0.2592
  766MOL0     C 3342   2.976   1.949  10.554 -0.9218 -0.0148  0.3786
  766MOL0     H 3343   2.971   2.389  11.083 -0.8495 -0.8917 -3.5625
  766MOL0     H 3344   3.141   2.503  11.205 -0.2508 -0.6879 -0.0163
  766MOL0     H 3345   3.525   2.381  11.223  1.1015 -0.2562 -1.9342
  766MOL0     H 3346   3.576   2.415  11.059  1.4547 -2.9045  0.7638
  766MOL0     H 3347   3.632   2.662  11.157  0.9095 -1.0623 -2.2939
  766MOL0     H 3348   3.718   2.526  11.226 -0.1621  1.2738 -0.4524
  766MOL0     H 3349   3.585   2.496  11.403  0.4049 -0.0209 -2.0351
  766MOL0     H 3350   3.468   2.634  11.355 -0.8078  0.9288 -5.4410
  766MOL0     H 3351   3.764   2.646  11.425 -0.9649 -3.1294  1.4812
  766MOL0     H 3352   3.680   2.787  11.349  0.2377  1.5942  3.1181
  766MOL0     H 3353   3.527   2.810  11.535  0.2080  0.0107  2.1075
  766MOL0     H 3354   3.581   2.665  11.609 -0.7800  0.6407  0.9374
  766MOL0     H 3355   3.688   2.846  11.728 -0.5437 -2.3180 -0.9591
  766MOL0     H 3356   3.806   2.750  11.652 -1.7019 -1.4796  1.8737
  766MOL0     H 3357   3.714   3.000  11.493  2.0489  3.8477 -0.2133
  766MOL0     H 3358   3.867   2.913  11.498  0.2749  1.1196 -1.8580
  766MOL0     H 3359   3.725   3.070  11.717  1.1350 -1.0631  2.1481
  766MOL0     H 3360   3.883   2.998  11.739 -0.8521  0.7724  0.3577
  766MOL0     H 3361   3.701   3.306  11.662  1.1102  2.0738  0.6094
  766MOL0     H 3362   3.756   3.533  11.361 -0.2271 -0.0929 -0.3585
  766MOL0     H 3363   3.672   3.532  11.511 -0.1668 -0.9801  3.0071
  766MOL0     H 3364   3.939   3.577  11.607  1.3764  0.8512 -0.2951
  766MOL0     H 3365   3.982   3.592  11.455  0.0600 -1.0038 -0.8658
  766MOL0     H 3366   3.762   3.767  11.457  1.0057 -1.4710 -2.0679
  766MOL0     H 3367   3.926   3.802  11.431  1.5834  3.7768  3.3489
  766MOL0     H 3368   3.865   3.928  11.646  0.5390 -0.5379 -2.7427
  766MOL0     H 3369   3.999   3.817  11.662  0.1129 -2.2032  0.9065
  766MOL0     H 3370   3.769   3.891  11.955 -0.1017  0.5613  0.2812
  766MOL0     H 3371   3.879   3.860  12.177 -1.4302  0.8724 -0.1268
  766MOL0     H 3372   4.344   3.825  12.267 -1.6415 -0.5598 -2.1728
  766MOL0     H 3373   4.557   3.830  12.411 -0.5637  0.6979  2.0683
  766MOL0     H 3374   4.783   3.776  12.510 -0.2879  1.0576 -1.4676
  766MOL0     H 3375   4.646   3.802  12.642 -0.5599 -0.8599 -0.6138
  766MOL0     H 3376   4.865   3.797  12.745 -2.2460 -0.6042  0.5930
  766MOL0     H 3377   4.777   3.652  12.786 -0.3077  0.0813 -0.1816
  766MOL0     H 3378   4.877   3.518  12.603 -1.4499 -1.2520  2.2452
  766MOL0     H 3379   4.999   3.657  12.585 -0.4009  2.0794  0.8773
  766MOL0     H 3380   4.969   3.483  12.839  3.0477  0.6496  2.2910
  766MOL0     H 3381   5.055   3.633  12.828  1.0688 -0.9464 -1.2389
  766MOL0     H 3382   5.182   3.548  12.629 -0.9459 -0.0872 -0.7049
  766MOL0     H 3383   5.086   3.396  12.636  1.4937  0.0809 -0.9244
  766MOL0     H 3384   5.268   3.505  12.847  0.5291  0.7945 -0.5543
  766MOL0     H 3385   5.176   3.360  12.869  1.5208  0.6352  1.6093
  766MOL0     H 3386   5.387   3.396  12.647  0.1658 -0.3689 -0.3632
  766MOL0     H 3387   5.301   3.242  12.670  1.2159 -0.4853 -1.3721
  766MOL0     H 3388   5.536   3.270  12.777 -0.8910 -0.8893 -1.6496
  766MOL0     H 3389   5.460   3.381  12.896 -1.8545  1.1896 -1.5571
  766MOL0     H 3390   4.505   3.412  12.497  0.6144 -0.6366 -1.5496
  766MOL0     H 3391   4.299   3.407  12.367 -1.7978  1.4904 -0.5300
  766MOL0     H 3392   4.111   3.542  11.998 -1.5950  0.2749 -1.4606
  766MOL0     H 3393   4.018   3.580  11.787  0.7026  0.3778 -0.1620
  766MOL0     H 3394   3.427   2.338  10.920 -0.5225 -1.1078 -1.3546
  766MOL0     H 3395   3.256   2.232  10.811 -2.5877 -1.5891  0.4405
  766MOL0     H 3396   2.789   2.146  10.963 -1.9257  0.9859 -0.6297
  766MOL0     H 3397   2.634   1.969  10.982 -1.5663  1.7485 -1.4077
  766MOL0     H 3398   2.596   1.672  10.644  0.7582  2.4082  0.0933
  766MOL0     H 3399   2.501   1.593  10.770 -0.8613  0.6538 -1.7627
  766MOL0     H 3400   2.683   1.495  10.879  1.6631  0.4054  0.9272
  766MOL0     H 3401   2.794   1.609  10.795  1.0688 -1.0356  1.2249
  766MOL0     H 3402   2.654   1.403  10.640 -0.5674 -0.7210  1.7358
  766MOL0     H 3403   2.806   1.370  10.726  1.0044  1.7109  2.0812
  766MOL0     H 3404   2.813   1.457  10.476 -0.5149 -0.0119 -0.7328
  766MOL0     H 3405   2.778   1.615  10.546 -3.0931 -0.5475  3.4910
  766MOL0     H 3406   3.191   1.565  10.634  0.1520  4.7023  3.0658
  766MOL0     H 3407   2.759   1.811  10.602  4.7667 -1.3106  0.6770
  766MOL0     H 3408   2.968   1.849  10.508 -1.2141  0.2545 -0.1695
  766MOL0     H 3409   2.960   2.021  10.473 -0.5369  0.0610  0.3691
  766MOL0     H 3410   3.078   1.964  10.590 -0.6947  1.3885 -0.7461
  767MOL0     O 3411   2.471  10.848   0.063 -0.1077 -0.3337 -0.1303
  767MOL0     C 3412   2.408  10.937   0.009 -0.0401 -0.8529 -0.4710
  767MOL0     O 3413   2.451  11.069  -0.008  0.7395  0.1756  0.2700
  767MOL0     C 3414   2.570  11.113   0.041  0.7482 -0.5316  0.6834
  767MOL0     C 3415   2.628  11.074   0.160  0.7168  0.4455 -0.5548
  767MOL0     C 3416   2.755  11.118   0.205  0.4608 -0.2859  0.4946
  767MOL0     C 3417   2.830  11.213   0.141  0.5236  0.2053  1.1855
  767MOL0     O 3418   2.953  11.238   0.190  0.0946 -0.0306 -0.2864
  767MOL0     C 3419   3.037  11.299   0.100 -0.3215  0.9518  0.7607
  767MOL0     C 3420   3.189  11.279   0.122 -0.2608 -0.6758  0.4442
  767MOL0     C 3421   3.217  11.127   0.103 -0.0457 -0.7005 -0.3785
  767MOL0     C 3422   3.352  11.086   0.166  0.2533  1.0268  0.0652
  767MOL0     C 3423   3.481  11.145   0.098  1.1040 -0.3709  0.2042
  767MOL0     C 3424   3.602  11.046   0.115  1.0345 -0.3908 -0.4707
  767MOL0     C 3425   3.579  10.897   0.081 -0.3368  0.1754 -0.0289
  767MOL0     C 3426   3.708  10.822   0.061  0.7952 -0.0053  0.9767
  767MOL0     N 3427   3.671  10.687   0.014 -0.0301  0.3874  0.3832
  767MOL0     C 3428   3.646  10.572   0.094  0.1545 -0.3145  0.1815
  767MOL0     C 3429   3.617  10.468   0.017  0.7364  0.2883 -1.4493
  767MOL0     C 3430   3.576  10.328   0.064  0.1305 -0.0864  0.0596
  767MOL0     C 3431   3.426  10.313   0.052 -0.5969 -0.9625  0.1294
  767MOL0     C 3432   3.400  10.178   0.105 -0.5457  0.3085 -0.1979
  767MOL0     C 3433   3.248  10.142   0.116  0.1570  0.0500 -1.1560
  767MOL0     O 3434   3.193  10.226   0.217  0.2575 -0.2004  1.0693
  767MOL0     C 3435   3.055  10.224   0.235  1.0179  0.5193  0.0834
  767MOL0     C 3436   2.992  10.330   0.304 -0.3356  0.7921  0.3138
  767MOL0     C 3437   2.853  10.327   0.313 -0.1682  0.3858  0.2032
  767MOL0     C 3438   2.763  10.224   0.261 -0.0363 -0.0668 -0.8611
  767MOL0     C 3439   2.617  10.230   0.278  0.2104 -0.8623 -0.2640
  767MOL0     O 3440   2.561  10.319   0.359 -0.5308 -0.0459  0.2269
  767MOL0     C 3441   2.425  10.324   0.350  0.4939  0.5832 -1.2385
  767MOL0     C 3442   2.343  10.229   0.420  0.1149 -0.5719 -0.2326
  767MOL0     C 3443   2.203  10.230   0.407 -0.7875 -0.1226 -0.6028
  767MOL0     C 3444   2.144  10.329   0.332 -0.8503 -0.1516 -0.2313
  767MOL0     O 3445   2.001  10.325   0.335  0.3494  0.4300  0.2275
  767MOL0     C 3446   1.919  10.400   0.251 -0.5982  0.3189  0.5310
  767MOL0     C 3447   1.780  10.341   0.245 -0.4371 -0.0143  0.5408
  767MOL0     C 3448   1.796  10.214   0.147  0.4251 -0.1847 -0.4789
  767MOL0     C 3449   1.673  10.139   0.156  0.4092  0.0123  0.5032
  767MOL0     C 3450   1.672  10.041   0.264 -0.8439 -1.0101  0.5418
  767MOL0     C 3451   1.546   9.964   0.273  0.3625  0.5752 -0.1484
  767MOL0     C 3452   1.516   9.906   0.404  0.4305 -0.0159  0.1209
  767MOL0     C 3453   1.605   9.786   0.417 -0.6563  0.1395 -0.1839
  767MOL0    Cl 3454   1.544   9.682   0.551 -0.0765  0.0634 -0.1476
  767MOL0     C 3455   2.231  10.424   0.254 -0.4372  0.0157 -0.3897
  767MOL0     C 3456   2.367  10.403   0.260 -1.1671 -0.4539  0.8280
  767MOL0     O 3457   2.554  10.142   0.218 -0.4435  0.0685 -1.1404
  767MOL0     C 3458   2.828  10.129   0.180 -0.4230 -0.8142  0.0418
  767MOL0     C 3459   2.970  10.133   0.169  0.4468  0.8641  0.0336
  767MOL0     N 3460   3.614  10.519  -0.111 -0.6776 -1.2646 -0.6164
  767MOL0     N 3461   3.641  10.646  -0.112  0.2657  0.1433  0.7106
  767MOL0     C 3462   2.761  11.276   0.030  0.7998 -0.7914  0.1411
  767MOL0     C 3463   2.634  11.225  -0.017  0.6627  0.5995 -0.2112
  767MOL0     C 3464   2.276  10.901  -0.060 -1.3365 -0.5220 -0.3693
  767MOL0     C 3465   2.217  10.775  -0.027 -0.2825 -0.2093 -0.3000
  767MOL0     C 3466   2.100  10.742  -0.098  0.1586  0.4549  0.1938
  767MOL0     C 3467   2.042  10.813  -0.201 -0.9056  0.9244  0.1914
  767MOL0     O 3468   1.939  10.758  -0.278 -0.4271  0.0310 -1.2093
  767MOL0     C 3469   1.885  10.836  -0.384 -1.1148 -0.3936 -0.6258
  767MOL0     C 3470   1.780  10.741  -0.458  0.3877 -0.1780 -0.7804
  767MOL0     C 3471   1.656  10.735  -0.368 -0.1222 -0.6428  0.1200
  767MOL0     C 3472   1.570  10.867  -0.376  0.3840 -0.2085  0.9339
  767MOL0     C 3473   1.509  10.871  -0.515 -0.5052  0.2519 -1.4118
  767MOL0     C 3474   1.487  10.880  -0.634 -0.2997 -0.9680  1.0257
  767MOL0     C 3475   2.097  10.942  -0.214 -0.3357 -1.1877  0.2551
  767MOL0     C 3476   2.212  10.990  -0.148 -0.4496  0.1649 -0.2671
  767MOL0     C 3477   2.269  11.123  -0.202  0.9822 -0.1692  0.9432
  767MOL0     H 3478   2.580  11.003   0.227 -2.0628  1.6439 -1.1511
  767MOL0     H 3479   2.793  11.070   0.295 -1.5146  0.8840  2.0520
  767MOL0     H 3480   3.019  11.257   0.001 -0.9021  0.3312  1.1171
  767MOL0     H 3481   3.017  11.407   0.097  0.9778  1.1941 -0.8425
  767MOL0     H 3482   3.216  11.320   0.220  0.1111  1.9434 -0.6637
  767MOL0     H 3483   3.251  11.346   0.062 -0.1330 -2.1582 -1.1558
  767MOL0     H 3484   3.221  11.112  -0.005  2.5175  3.6575 -1.1319
  767MOL0     H 3485   3.146  11.059   0.150  0.8658 -1.2384  0.2786
  767MOL0     H 3486   3.352  11.114   0.272 -2.5645  1.7148 -0.0466
  767MOL0     H 3487   3.347  10.977   0.160 -3.8606  0.9704  1.3594
  767MOL0     H 3488   3.466  11.157  -0.010 -2.3317  1.1144  0.6887
  767MOL0     H 3489   3.510  11.243   0.137 -1.6900  0.0204  1.6224
  767MOL0     H 3490   3.689  11.083   0.060  2.8171 -6.3199 -2.3840
  767MOL0     H 3491   3.630  11.050   0.221  0.1778 -3.2660 -0.0586
  767MOL0     H 3492   3.518  10.901  -0.010 -1.1199  1.6866  0.5312
  767MOL0     H 3493   3.526  10.852   0.165 -1.9682 -0.2170 -1.2183
  767MOL0     H 3494   3.768  10.870  -0.016 -0.7952  2.8801  1.3965
  767MOL0     H 3495   3.763  10.815   0.155  2.6064  5.2258  0.6265
  767MOL0     H 3496   3.646  10.565   0.202 -1.7140 -1.3833  0.1542
  767MOL0     H 3497   3.636  10.259   0.004  3.7704  1.4419  1.5903
  767MOL0     H 3498   3.601  10.307   0.169 -0.5799 -2.3553 -0.1768
  767MOL0     H 3499   3.383  10.388   0.118 -2.3173 -1.8094  0.0259
  767MOL0     H 3500   3.398  10.329  -0.053  0.1129 -0.5068 -0.0036
  767MOL0     H 3501   3.439  10.166   0.206 -2.5963  0.3969  0.6389
  767MOL0     H 3502   3.453  10.107   0.040  0.1404  0.3444  0.3109
  767MOL0     H 3503   3.228  10.036   0.132 -3.5122  0.7356 -0.1864
  767MOL0     H 3504   3.208  10.169   0.018  0.5843 -0.1754 -1.3951
  767MOL0     H 3505   3.047  10.411   0.351  3.6968 -0.5728 -1.6724
  767MOL0     H 3506   2.818  10.409   0.375 -1.8891 -0.5320  0.5141
  767MOL0     H 3507   2.379  10.136   0.463 -5.3883 -3.0865 -0.2435
  767MOL0     H 3508   2.140  10.155   0.454  0.8474 -0.1820  1.6542
  767MOL0     H 3509   1.907  10.504   0.283 -0.4527  0.1691  1.0769
  767MOL0     H 3510   1.959  10.390   0.150  0.1451 -3.4452  1.0673
  767MOL0     H 3511   1.743  10.318   0.345 -2.4482  1.7537  0.2529
  767MOL0     H 3512   1.709  10.412   0.203 -1.4255 -0.4126  1.4770
  767MOL0     H 3513   1.804  10.249   0.044 -0.8536  0.5716 -0.3372
  767MOL0     H 3514   1.883  10.159   0.185  0.5904  1.1227  1.1462
  767MOL0     H 3515   1.686  10.087   0.061  1.0555 -0.3898  0.7991
  767MOL0     H 3516   1.586  10.205   0.159 -0.6021 -1.0660 -2.2686
  767MOL0     H 3517   1.698  10.090   0.358 -0.9385  0.7598 -0.3059
  767MOL0     H 3518   1.756   9.978   0.235  0.8770  1.1223  0.5897
  767MOL0     H 3519   1.460  10.021   0.236  1.0304  0.7029 -1.5909
  767MOL0     H 3520   1.537   9.884   0.199 -2.6900  0.2927  0.4192
  767MOL0     H 3521   1.410   9.880   0.403 -0.2822  2.5276  0.1857
  767MOL0     H 3522   1.532   9.990   0.473  0.4215 -1.7092  2.2882
  767MOL0     H 3523   1.607   9.730   0.323  0.3317 -3.3921  1.7481
  767MOL0     H 3524   1.706   9.820   0.443 -1.3829  1.9087  0.4467
  767MOL0     H 3525   2.176  10.507   0.212 -1.4083  0.1026  0.9815
  767MOL0     H 3526   2.429  10.478   0.211 -1.8319 -0.7484 -0.5116
  767MOL0     H 3527   2.784  10.055   0.114  1.0011 -0.0382 -1.8812
  767MOL0     H 3528   2.998  10.057   0.097  0.6818  1.2267 -0.2600
  767MOL0     H 3529   2.800  11.361  -0.025 -3.1800 -0.6025 -2.9029
  767MOL0     H 3530   2.586  11.276  -0.100 -0.7187 -2.8692 -1.7266
  767MOL0     H 3531   2.261  10.708   0.046 -2.0616 -1.0398  0.0783
  767MOL0     H 3532   2.057  10.648  -0.067 -1.9770  1.6867  1.2097
  767MOL0     H 3533   1.952  10.864  -0.466 -0.4815  0.7594  0.2560
  767MOL0     H 3534   1.844  10.930  -0.346  0.7413 -0.9999  3.5067
  767MOL0     H 3535   1.821  10.640  -0.457  0.1437 -0.3720  2.8738
  767MOL0     H 3536   1.745  10.776  -0.556 -2.8419  1.6092  0.8259
  767MOL0     H 3537   1.695  10.715  -0.267  3.0901 -2.0452 -1.2480
  767MOL0     H 3538   1.593  10.651  -0.399  2.3519 -1.1876 -4.1620
  767MOL0     H 3539   1.497  10.855  -0.295 -0.6670 -2.8378 -0.2547
  767MOL0     H 3540   1.626  10.957  -0.354  0.3150  0.6211 -1.8337
  767MOL0     H 3541   1.477  10.870  -0.740 -0.4749 -1.5397  1.0954
  767MOL0     H 3542   2.042  11.016  -0.271 -4.6935 -4.6103 -0.5225
  767MOL0     H 3543   2.356  11.098  -0.263 -0.3927 -1.9467 -0.3828
  767MOL0     H 3544   2.194  11.184  -0.254 -0.5788 -0.3641  2.8486
  767MOL0     H 3545   2.297  11.188  -0.118  0.6152 -0.4566  1.2916
  768MOL0     O 3546   6.731  10.172   4.442  0.2993 -0.4099 -0.0493
  768MOL0     C 3547   6.759  10.284   4.386 -0.4510 -1.1572 -0.7321
  768MOL0     O 3548   6.694  10.331   4.280 -0.4045 -0.4533 -0.0146
  768MOL0     C 3549   6.575  10.278   4.253  0.5467  0.8042 -0.4883
  768MOL0     C 3550   6.551  10.173   4.158 -0.0538  0.4001 -0.3181
  768MOL0     C 3551   6.429  10.121   4.130  0.0016 -0.5257 -0.5066
  768MOL0     C 3552   6.312  10.169   4.191  0.1313  0.0545  0.2812
  768MOL0     O 3553   6.185  10.118   4.165 -0.1000 -0.0834  0.1878
  768MOL0     C 3554   6.172   9.984   4.117 -0.3306  0.2840  0.6854
  768MOL0     C 3555   6.029   9.929   4.090 -0.2160 -0.4106 -0.3201
  768MOL0     C 3556   5.947   9.932   4.220  0.1131 -0.8882 -0.1569
  768MOL0     C 3557   5.816   9.852   4.192  0.4888 -0.0950 -0.6245
  768MOL0     C 3558   5.728   9.846   4.309  0.0971 -0.7834  0.0613
  768MOL0     C 3559   5.611   9.756   4.284  0.1692 -0.8424 -0.1074
  768MOL0     C 3560   5.497   9.794   4.375 -0.0245 -0.4857 -0.2899
  768MOL0     C 3561   5.373   9.700   4.362  0.1887  0.0659 -0.3035
  768MOL0     N 3562   5.401   9.560   4.376  0.0196 -0.0323 -0.3006
  768MOL0     C 3563   5.422   9.472   4.270  0.8188  0.2716  0.2903
  768MOL0     C 3564   5.495   9.372   4.322  0.2713  0.7885 -0.5642
  768MOL0     C 3565   5.531   9.257   4.238 -0.3700 -0.1550  0.0365
  768MOL0     C 3566   5.502   9.123   4.306  0.1855 -0.2189  0.3400
  768MOL0     C 3567   5.589   9.089   4.433  0.6602 -0.0752  0.4896
  768MOL0     C 3568   5.552   8.964   4.505  0.0252  1.6158 -0.4013
  768MOL0     O 3569   5.593   8.846   4.425  0.5285  0.2864 -0.3016
  768MOL0     C 3570   5.508   8.797   4.326  0.3969  0.7484  0.0158
  768MOL0     C 3571   5.367   8.796   4.338  0.4996 -0.2154  0.4792
  768MOL0     C 3572   5.284   8.759   4.237 -0.1684  0.5297  0.1165
  768MOL0     C 3573   5.338   8.715   4.112  0.7032  0.1263 -0.6445
  768MOL0     C 3574   5.248   8.678   4.002 -0.1381 -1.0338 -1.0225
  768MOL0     O 3575   5.304   8.629   3.888 -0.3862 -0.4406 -1.1125
  768MOL0     C 3576   5.228   8.607   3.776 -0.0187  0.5894 -0.0482
  768MOL0     C 3577   5.144   8.706   3.722  0.4950  0.3685 -0.2612
  768MOL0     C 3578   5.088   8.690   3.594  0.7521  0.4634  0.4754
  768MOL0     C 3579   5.117   8.587   3.501  0.0242  0.2032  0.0939
  768MOL0     O 3580   5.060   8.582   3.377 -0.3049 -0.0084 -0.0842
  768MOL0     C 3581   5.062   8.460   3.306 -0.3068 -0.2737 -0.0522
  768MOL0     C 3582   4.992   8.477   3.176 -0.7206  0.0554 -0.3635
  768MOL0     C 3583   4.862   8.559   3.187  1.0837  0.0092  1.0020
  768MOL0     C 3584   4.801   8.586   3.044 -0.2178 -0.6984  0.1169
  768MOL0     C 3585   4.660   8.658   3.040 -0.5663  1.1072 -0.1924
  768MOL0     C 3586   4.598   8.646   2.894 -0.3752  0.1628 -0.7993
  768MOL0     C 3587   4.460   8.711   2.885  0.2443 -0.3935  0.0880
  768MOL0     C 3588   4.382   8.662   2.773  0.2761  0.0192  0.5677
  768MOL0    Cl 3589   4.239   8.765   2.756 -0.0361  0.1198 -0.2842
  768MOL0     C 3590   5.206   8.487   3.555 -0.0402 -0.8437  0.7678
  768MOL0     C 3591   5.255   8.490   3.688 -0.1624 -0.8396 -0.2578
  768MOL0     O 3592   5.131   8.703   4.019  0.5067  0.2407  0.1228
  768MOL0     C 3593   5.480   8.693   4.103  0.3148 -0.4693  0.5216
  768MOL0     C 3594   5.567   8.732   4.208 -0.1668 -1.1485 -0.1054
  768MOL0     N 3595   5.508   9.389   4.458  0.1525 -0.1122 -0.2965
  768MOL0     N 3596   5.454   9.502   4.489 -0.6261  0.6064  0.6373
  768MOL0     C 3597   6.330  10.273   4.292  0.1239 -0.4858  0.5089
  768MOL0     C 3598   6.458  10.320   4.321  0.3213  0.6589  0.1592
  768MOL0     C 3599   6.883  10.371   4.427 -0.4816  0.6551 -0.4713
  768MOL0     C 3600   6.943  10.443   4.318 -0.3827  0.2079 -1.2691
  768MOL0     C 3601   7.069  10.501   4.334  0.0851 -0.4392  0.4601
  768MOL0     C 3602   7.131  10.511   4.453 -0.7025  0.1010 -0.6014
  768MOL0     O 3603   7.246  10.582   4.475 -0.1909  0.1455 -0.6605
  768MOL0     C 3604   7.345  10.504   4.544  0.4861  0.4527  0.4403
  768MOL0     C 3605   7.433  10.427   4.439 -0.3478 -0.4280  0.9346
  768MOL0     C 3606   7.535  10.318   4.502 -0.3395 -0.8791 -0.4422
  768MOL0     C 3607   7.677  10.381   4.504 -0.3334  0.9777 -0.3222
  768MOL0     C 3608   7.699  10.513   4.567 -0.4447 -0.9788  0.6331
  768MOL0     C 3609   7.700  10.625   4.615  0.4453  0.3261 -0.7518
  768MOL0     C 3610   7.061  10.464   4.563 -0.2600 -0.4260 -0.0595
  768MOL0     C 3611   6.938  10.394   4.557 -0.5880  0.6860  0.2059
  768MOL0     C 3612   6.886  10.339   4.686  0.0866  0.3676 -0.2302
  768MOL0     H 3613   6.639  10.138   4.105  1.6082  1.3590  1.6625
  768MOL0     H 3614   6.414  10.046   4.053  1.2828  1.9904 -3.4257
  768MOL0     H 3615   6.223   9.977   4.020 -0.9690 -3.0342  0.4519
  768MOL0     H 3616   6.227   9.910   4.176  2.1733  1.9282  0.5940
  768MOL0     H 3617   6.031   9.825   4.058  3.0499 -2.4754  5.1708
  768MOL0     H 3618   5.975   9.995   4.021  2.1883  1.4449 -0.5429
  768MOL0     H 3619   5.916  10.031   4.252 -0.6571 -0.9269 -0.7468
  768MOL0     H 3620   5.993   9.882   4.305 -0.8837 -1.2164  0.2081
  768MOL0     H 3621   5.754   9.893   4.112 -1.0830 -2.7936 -0.9137
  768MOL0     H 3622   5.836   9.747   4.168  0.4972 -0.3818  0.6016
  768MOL0     H 3623   5.785   9.822   4.399  0.4850  0.7268  0.2521
  768MOL0     H 3624   5.688   9.948   4.321 -1.4780 -0.7106 -4.1140
  768MOL0     H 3625   5.577   9.775   4.182  1.6084 -0.4290 -0.5337
  768MOL0     H 3626   5.636   9.650   4.295  0.9548 -1.0216 -2.8274
  768MOL0     H 3627   5.463   9.898   4.363  0.9355  0.2348  2.5611
  768MOL0     H 3628   5.525   9.787   4.480 -1.7972  1.1635  0.3452
  768MOL0     H 3629   5.299   9.733   4.435 -2.8024  0.4912 -3.3008
  768MOL0     H 3630   5.324   9.719   4.266 -1.5292 -1.2933  0.2628
  768MOL0     H 3631   5.381   9.475   4.169 -1.4431  2.1340  1.1937
  768MOL0     H 3632   5.474   9.265   4.145 -2.4647  2.1295  1.4109
  768MOL0     H 3633   5.639   9.263   4.217 -0.5234 -3.4020 -2.4641
  768MOL0     H 3634   5.398   9.121   4.340 -0.2439 -1.2869 -0.9477
  768MOL0     H 3635   5.517   9.058   4.220  0.3029 -1.5174  1.3150
  768MOL0     H 3636   5.595   9.177   4.498  0.0040 -0.2350  0.7761
  768MOL0     H 3637   5.690   9.081   4.394  0.4657  0.2521 -0.0984
  768MOL0     H 3638   5.445   8.963   4.531  0.1862 -1.4015  0.5296
  768MOL0     H 3639   5.599   8.953   4.603  1.2467  2.2714 -0.8946
  768MOL0     H 3640   5.313   8.834   4.423  1.5707 -1.0492  1.5682
  768MOL0     H 3641   5.177   8.772   4.248 -0.7263 -0.9094 -2.7509
  768MOL0     H 3642   5.106   8.793   3.775  1.6071 -1.3653  3.6675
  768MOL0     H 3643   5.012   8.757   3.555 -0.3269 -2.6987 -3.6060
  768MOL0     H 3644   5.154   8.407   3.283 -0.8828 -0.5593 -1.8392
  768MOL0     H 3645   4.998   8.386   3.356  0.0895 -2.1250 -2.1827
  768MOL0     H 3646   5.055   8.527   3.103 -2.3419 -0.7059 -2.3975
  768MOL0     H 3647   4.967   8.374   3.150 -2.4802 -0.3441  2.4271
  768MOL0     H 3648   4.786   8.511   3.250 -2.0670 -0.1174 -2.5267
  768MOL0     H 3649   4.884   8.662   3.215 -2.0615  1.3529 -0.8731
  768MOL0     H 3650   4.779   8.490   2.998 -0.0176 -0.0774 -1.3107
  768MOL0     H 3651   4.876   8.635   2.981  1.6985 -2.4300  0.9373
  768MOL0     H 3652   4.686   8.759   3.071  3.3171 -0.0329  0.7929
  768MOL0     H 3653   4.595   8.613   3.117  0.0675  2.9715  1.5106
  768MOL0     H 3654   4.670   8.696   2.828 -2.2708 -0.8170 -3.8274
  768MOL0     H 3655   4.592   8.539   2.873 -0.8915  0.2303 -0.9958
  768MOL0     H 3656   4.470   8.818   2.867  0.9719 -0.8226 -2.5263
  768MOL0     H 3657   4.411   8.696   2.981 -2.1673  0.4843 -0.9307
  768MOL0     H 3658   4.436   8.669   2.678  0.3279  1.7988  0.7083
  768MOL0     H 3659   4.363   8.555   2.791 -0.6339 -0.5119 -2.8244
  768MOL0     H 3660   5.232   8.395   3.504 -0.9338 -1.5253  1.4932
  768MOL0     H 3661   5.318   8.419   3.740  0.3863  1.0756  1.8622
  768MOL0     H 3662   5.523   8.649   4.014  1.7190 -1.9004  1.8647
  768MOL0     H 3663   5.672   8.705   4.200  0.3162 -0.6112  3.1327
  768MOL0     H 3664   6.244  10.318   4.340  0.0563 -2.5050  2.4513
  768MOL0     H 3665   6.459  10.403   4.391 -4.6637  3.5338 -2.5179
  768MOL0     H 3666   6.901  10.448   4.219 -2.8939  2.4952 -0.2162
  768MOL0     H 3667   7.116  10.549   4.249 -1.7978  0.7609  0.0346
  768MOL0     H 3668   7.307  10.427   4.612  2.7160 -1.1794 -0.0584
  768MOL0     H 3669   7.403  10.575   4.605  1.3668  0.3930 -0.3075
  768MOL0     H 3670   7.484  10.499   4.375 -0.9171 -0.8711 -0.0362
  768MOL0     H 3671   7.378  10.371   4.363  0.2170 -1.7520  1.4691
  768MOL0     H 3672   7.539  10.220   4.454  1.3303 -0.7362 -0.6518
  768MOL0     H 3673   7.516  10.287   4.605 -1.2069  2.0959  0.3987
  768MOL0     H 3674   7.731  10.306   4.562 -3.2909 -0.9511  0.1702
  768MOL0     H 3675   7.732  10.379   4.409  2.4005 -2.9506  1.0987
  768MOL0     H 3676   7.691  10.714   4.674  1.2256 -0.2195  0.2242
  768MOL0     H 3677   7.103  10.476   4.662 -0.7237 -4.0204  0.7029
  768MOL0     H 3678   6.918  10.405   4.768 -1.8751  1.0637  0.0301
  768MOL0     H 3679   6.777  10.351   4.684  0.2237  1.8650 -0.6571
  768MOL0     H 3680   6.922  10.237   4.699  1.6719  1.0961  1.5902
  769MOL0     O 3681   8.699   4.738   4.417  0.2193  0.0970  0.4466
  769MOL0     C 3682   8.731   4.749   4.299  0.2660 -0.0761  0.5601
  769MOL0     O 3683   8.716   4.867   4.229 -0.4050  0.1548  0.1723
  769MOL0     C 3684   8.663   4.983   4.285  0.2783  0.2458 -0.7504
  769MOL0     C 3685   8.706   5.100   4.221 -0.5449 -0.5173 -0.4237
  769MOL0     C 3686   8.633   5.217   4.248  0.9031 -0.0093  0.2302
  769MOL0     C 3687   8.524   5.223   4.340  0.4372  0.2029 -0.6868
  769MOL0     O 3688   8.477   5.352   4.363 -0.1423 -0.7433  0.0050
  769MOL0     C 3689   8.340   5.375   4.410 -0.5555 -0.0369  0.0569
  769MOL0     C 3690   8.298   5.524   4.377 -0.1808  0.2975  1.1668
  769MOL0     C 3691   8.151   5.550   4.404  0.3195  0.0443  0.4293
  769MOL0     C 3692   8.111   5.704   4.416 -0.6686  0.3044  0.2593
  769MOL0     C 3693   7.965   5.736   4.413 -0.5934 -0.4639 -0.4325
  769MOL0     C 3694   7.938   5.880   4.455 -0.1447  0.2326  0.9704
  769MOL0     C 3695   8.001   5.979   4.354  0.2123  0.2125 -0.9671
  769MOL0     C 3696   7.902   6.099   4.326 -0.1445  0.2785 -0.7892
  769MOL0     N 3697   7.795   6.060   4.239 -0.3638  0.3190 -0.0092
  769MOL0     C 3698   7.819   6.049   4.103 -0.0105  0.1678 -0.0347
  769MOL0     C 3699   7.708   6.023   4.046  0.7053  0.3211 -0.0865
  769MOL0     C 3700   7.674   6.016   3.900  0.4586 -0.0926  0.1872
  769MOL0     C 3701   7.641   5.871   3.862  0.7988 -0.3915 -0.4203
  769MOL0     C 3702   7.609   5.863   3.721 -0.1109 -0.3563 -0.2183
  769MOL0     C 3703   7.616   5.710   3.684 -0.0585  0.0802  0.2509
  769MOL0     O 3704   7.529   5.631   3.760  0.0197  1.1501  0.5591
  769MOL0     C 3705   7.586   5.513   3.785  0.3090 -0.4153  0.3265
  769MOL0     C 3706   7.555   5.448   3.910 -0.1565 -0.6835 -0.6249
  769MOL0     C 3707   7.604   5.324   3.936 -0.5108 -0.7747  0.0560
  769MOL0     C 3708   7.681   5.253   3.848 -0.3001 -0.5095 -0.5153
  769MOL0     C 3709   7.735   5.123   3.884  0.7688 -0.5794  0.6920
  769MOL0     O 3710   7.827   5.067   3.803  0.3248  0.2637  0.4841
  769MOL0     C 3711   7.868   4.939   3.829  0.0291  0.1798 -0.8869
  769MOL0     C 3712   7.775   4.844   3.803 -0.1600 -0.1202 -0.6111
  769MOL0     C 3713   7.812   4.712   3.846  0.4154 -0.3642  1.0434
  769MOL0     C 3714   7.932   4.674   3.892  0.8338  0.4495 -1.0144
  769MOL0     O 3715   7.968   4.552   3.935 -0.5690  0.2326  0.7380
  769MOL0     C 3716   7.893   4.497   4.033 -0.0127  1.4253 -0.4033
  769MOL0     C 3717   7.826   4.376   3.964  0.1900  0.0116  0.1013
  769MOL0     C 3718   7.927   4.271   3.924 -0.1591  0.1317 -0.1352
  769MOL0     C 3719   7.864   4.165   3.835 -0.7302 -0.2489 -0.5365
  769MOL0     C 3720   7.939   4.043   3.781 -0.3964  0.7957 -0.4707
  769MOL0     C 3721   8.063   4.081   3.712 -0.1889  0.5409 -0.4732
  769MOL0     C 3722   8.116   3.957   3.648  0.0926  0.0249 -0.5323
  769MOL0     C 3723   8.154   3.843   3.738 -0.6232 -0.5960 -0.1908
  769MOL0    Cl 3724   8.239   3.883   3.895  0.3868  0.1357 -0.0747
  769MOL0     C 3725   8.024   4.772   3.905 -0.0677 -0.8460 -0.6716
  769MOL0     C 3726   7.989   4.903   3.878  0.4836  0.0427 -1.1673
  769MOL0     O 3727   7.700   5.077   3.989  0.0836 -0.1657  0.0111
  769MOL0     C 3728   7.697   5.307   3.712  0.4305 -0.6473  0.1836
  769MOL0     C 3729   7.654   5.439   3.690 -0.1639 -0.6749  0.5003
  769MOL0     N 3730   7.611   6.027   4.145 -0.5820 -0.1851  0.8103
  769MOL0     N 3731   7.670   6.039   4.261  0.3678  0.6470 -0.1240
  769MOL0     C 3732   8.486   5.106   4.406 -0.0576 -0.4739  0.5437
  769MOL0     C 3733   8.556   4.982   4.371  0.0252  0.1077 -0.0609
  769MOL0     C 3734   8.779   4.629   4.226  0.3349  0.1910  1.3120
  769MOL0     C 3735   8.720   4.498   4.243 -0.8231 -0.1910 -0.1990
  769MOL0     C 3736   8.778   4.398   4.173 -0.5598 -0.2485  0.1088
  769MOL0     C 3737   8.879   4.413   4.082 -0.3785  0.6554  0.4073
  769MOL0     O 3738   8.906   4.302   3.997  0.3505  0.0206 -0.2566
  769MOL0     C 3739   8.961   4.330   3.864 -0.2004 -0.1029 -0.7046
  769MOL0     C 3740   8.965   4.198   3.789 -0.3373 -0.2566  0.2009
  769MOL0     C 3741   9.038   4.187   3.656  0.4390 -1.3202 -0.2039
  769MOL0     C 3742   9.192   4.174   3.680  0.3664 -0.1824  0.6255
  769MOL0     C 3743   9.240   4.035   3.719  1.0915 -0.1015 -0.1096
  769MOL0     C 3744   9.295   3.932   3.746 -0.1578  0.0482  0.4629
  769MOL0     C 3745   8.942   4.538   4.075 -0.0385 -0.8210 -0.1736
  769MOL0     C 3746   8.895   4.646   4.142  0.1851  0.7195 -0.4742
  769MOL0     C 3747   9.000   4.747   4.170  0.8317 -0.1562  0.0668
  769MOL0     H 3748   8.786   5.096   4.148  1.0864 -4.0725  1.3184
  769MOL0     H 3749   8.686   5.297   4.196  0.4799 -1.9693 -3.5400
  769MOL0     H 3750   8.273   5.304   4.362 -2.1052 -0.0348  2.1046
  769MOL0     H 3751   8.334   5.359   4.518  0.3061  2.0654  0.4701
  769MOL0     H 3752   8.326   5.536   4.272 -1.6916 -0.6396  0.6169
  769MOL0     H 3753   8.353   5.589   4.446  0.3511  2.5496 -1.2455
  769MOL0     H 3754   8.124   5.506   4.501 -0.0765  0.0185  0.3108
  769MOL0     H 3755   8.086   5.502   4.330 -0.7525 -0.1910  1.4889
  769MOL0     H 3756   8.153   5.733   4.513  0.5916 -1.0283  0.1552
  769MOL0     H 3757   8.172   5.759   4.343  0.0985 -0.5059  0.2701
  769MOL0     H 3758   7.921   5.712   4.316 -0.4100  1.0707 -0.9205
  769MOL0     H 3759   7.921   5.673   4.491 -0.3748 -0.2220 -0.1127
  769MOL0     H 3760   7.830   5.893   4.465 -0.2088  1.2260 -0.7110
  769MOL0     H 3761   7.982   5.896   4.554  1.6023 -0.8641  0.4131
  769MOL0     H 3762   8.024   5.927   4.261 -2.8064  1.7160 -2.7165
  769MOL0     H 3763   8.093   6.020   4.396  2.0341  1.0420 -5.2798
  769MOL0     H 3764   7.866   6.140   4.421  2.1159  1.0731 -0.2174
  769MOL0     H 3765   7.949   6.190   4.289  2.1950  0.6090  2.5248
  769MOL0     H 3766   7.918   6.046   4.059 -1.2000 -0.3594 -2.8808
  769MOL0     H 3767   7.588   6.081   3.880  0.5470  0.0820  0.3601
  769MOL0     H 3768   7.763   6.055   3.849 -0.1644  0.6646 -0.3389
  769MOL0     H 3769   7.724   5.806   3.890  2.1683  2.1024  1.8123
  769MOL0     H 3770   7.553   5.842   3.919  0.2479  0.7592 -0.6476
  769MOL0     H 3771   7.675   5.935   3.671  0.4016  1.1583  2.4859
  769MOL0     H 3772   7.506   5.899   3.708  0.1959  0.6918  0.1733
  769MOL0     H 3773   7.718   5.685   3.713 -0.2629 -1.1842 -0.0835
  769MOL0     H 3774   7.611   5.696   3.576  4.4978 -0.5023 -0.0546
  769MOL0     H 3775   7.502   5.492   3.994 -0.8841 -1.2546 -0.7799
  769MOL0     H 3776   7.586   5.275   4.031 -1.4548 -0.9097 -0.1896
  769MOL0     H 3777   7.672   4.866   3.777 -0.3910 -0.7400 -0.2449
  769MOL0     H 3778   7.732   4.640   3.839 -1.1023  1.3943 -1.8692
  769MOL0     H 3779   7.961   4.465   4.113 -1.0675 -4.3448 -1.3190
  769MOL0     H 3780   7.814   4.563   4.070 -0.5871 -1.1912  3.7024
  769MOL0     H 3781   7.752   4.345   4.038  3.0337 -2.5193  2.1015
  769MOL0     H 3782   7.775   4.414   3.874 -1.4927  1.2230  1.4950
  769MOL0     H 3783   8.012   4.321   3.877  0.2081 -2.7622 -2.9361
  769MOL0     H 3784   7.954   4.220   4.017  0.2217  1.3528  0.4438
  769MOL0     H 3785   7.818   4.214   3.748  2.7964  1.3220 -1.7100
  769MOL0     H 3786   7.788   4.115   3.895  1.1761 -0.1675  2.1226
  769MOL0     H 3787   7.871   3.987   3.716  0.5887 -1.1223  0.0698
  769MOL0     H 3788   7.957   3.968   3.859  0.7709  0.6381 -0.8608
  769MOL0     H 3789   8.031   4.154   3.637  1.1645 -0.5621 -2.2224
  769MOL0     H 3790   8.135   4.130   3.779  2.5237 -1.0649 -2.0160
  769MOL0     H 3791   8.211   3.986   3.602  2.1215 -2.3014  1.8140
  769MOL0     H 3792   8.051   3.931   3.564  0.1074  0.9387 -0.8374
  769MOL0     H 3793   8.065   3.781   3.751 -0.0275 -1.1439  1.6388
  769MOL0     H 3794   8.221   3.779   3.679 -0.4974 -0.2884 -0.3813
  769MOL0     H 3795   8.121   4.745   3.945  1.0327  1.3480 -1.7308
  769MOL0     H 3796   8.066   4.975   3.905  2.6818 -3.4371  2.9617
  769MOL0     H 3797   7.745   5.263   3.625 -1.9916 -1.6580 -0.7350
  769MOL0     H 3798   7.673   5.475   3.589 -1.3555 -0.1063  0.4598
  769MOL0     H 3799   8.411   5.103   4.485  1.2771  2.1243  2.0672
  769MOL0     H 3800   8.525   4.894   4.426  0.1526  0.5731  0.7880
  769MOL0     H 3801   8.643   4.490   4.320  0.5660 -1.1521  1.1529
  769MOL0     H 3802   8.720   4.306   4.182 -2.2667  0.9212  1.8204
  769MOL0     H 3803   9.060   4.374   3.879 -1.1137  1.9007 -0.2274
  769MOL0     H 3804   8.887   4.392   3.813 -0.7027 -0.2295 -0.1376
  769MOL0     H 3805   8.859   4.183   3.768 -0.8423  0.9035  1.6698
  769MOL0     H 3806   9.006   4.123   3.857 -0.1865 -2.3333 -2.0589
  769MOL0     H 3807   9.013   4.276   3.597  1.5154 -1.2074 -0.5212
  769MOL0     H 3808   9.003   4.100   3.600 -0.5776 -0.1063 -1.5337
  769MOL0     H 3809   9.242   4.194   3.585 -0.3034 -0.7829  0.1366
  769MOL0     H 3810   9.221   4.254   3.749 -2.0554 -1.9960  4.0984
  769MOL0     H 3811   9.344   3.844   3.784  1.1987 -1.3495 -3.9436
  769MOL0     H 3812   9.035   4.556   4.021  1.5109  1.8055  3.0263
  769MOL0     H 3813   8.968   4.848   4.198  0.0617 -0.3387 -0.1173
  769MOL0     H 3814   9.050   4.700   4.255 -2.5821  0.5732  2.6874
  769MOL0     H 3815   9.069   4.756   4.086 -0.0910 -2.3588 -0.9970
  770MOL0     O 3816   1.624   5.360   6.933 -0.1261 -0.2354 -0.0821
  770MOL0     C 3817   1.633   5.280   7.030  1.0233 -0.2522  0.1907
  770MOL0     O 3818   1.520   5.223   7.092  0.2907  0.4373 -0.9764
  770MOL0     C 3819   1.403   5.296   7.105  0.2830 -0.2346  0.6907
  770MOL0     C 3820   1.384   5.392   7.210  0.1321  0.3627 -0.0147
  770MOL0     C 3821   1.261   5.466   7.222 -0.0884  0.2438 -0.2099
  770MOL0     C 3822   1.159   5.426   7.137 -0.7305  0.1655 -0.6231
  770MOL0     O 3823   1.043   5.486   7.134  0.6426  0.3858  0.3126
  770MOL0     C 3824   1.031   5.603   7.061  0.1632 -0.5377  0.6013
  770MOL0     C 3825   0.883   5.643   7.066 -0.5140  0.1672 -1.1030
  770MOL0     C 3826   0.840   5.691   7.212  0.3962 -0.3527 -0.1980
  770MOL0     C 3827   0.931   5.802   7.262  0.5203  0.6405  0.5520
  770MOL0     C 3828   0.880   5.843   7.399  0.2284 -1.0465 -0.8971
  770MOL0     C 3829   0.951   5.960   7.460 -0.3843  0.0870  0.0062
  770MOL0     C 3830   0.884   6.024   7.585 -0.3768 -0.4992 -0.2339
  770MOL0     C 3831   0.766   6.117   7.545  0.3421  0.0079 -0.3186
  770MOL0     N 3832   0.816   6.236   7.482  0.0618 -0.8709 -0.1650
  770MOL0     C 3833   0.805   6.362   7.538  0.7230  0.3895  0.8271
  770MOL0     C 3834   0.806   6.448   7.438  0.5462 -0.1015  0.0707
  770MOL0     C 3835   0.821   6.597   7.473  0.7878 -0.3219 -0.2410
  770MOL0     C 3836   0.743   6.680   7.367 -0.0649  0.2306  0.4663
  770MOL0     C 3837   0.776   6.823   7.367 -0.7024 -0.1374 -0.0509
  770MOL0     C 3838   0.738   6.893   7.237 -0.6369  0.4274  0.1672
  770MOL0     O 3839   0.760   7.034   7.246  0.3601 -0.1602 -0.1487
  770MOL0     C 3840   0.822   7.103   7.143  0.4213  0.1541  0.0454
  770MOL0     C 3841   0.782   7.236   7.118 -0.5840  0.4888 -0.6591
  770MOL0     C 3842   0.862   7.318   7.026  0.1220 -0.0116 -0.2252
  770MOL0     C 3843   0.954   7.260   6.942 -0.0876  0.3649 -0.4870
  770MOL0     C 3844   1.028   7.346   6.846 -0.4092 -0.4140 -0.3135
  770MOL0     O 3845   1.031   7.477   6.873  0.0970 -0.4178 -0.6260
  770MOL0     C 3846   1.093   7.565   6.791 -0.4673  0.5257 -0.2582
  770MOL0     C 3847   1.233   7.562   6.797 -0.2410 -0.1746  0.1775
  770MOL0     C 3848   1.318   7.642   6.710  0.2102 -0.4841 -0.9857
  770MOL0     C 3849   1.257   7.738   6.632 -0.7101  0.3797  0.3455
  770MOL0     O 3850   1.325   7.811   6.540  0.3774  0.9429 -0.8168
  770MOL0     C 3851   1.433   7.760   6.467  0.0365  0.2115  0.1385
  770MOL0     C 3852   1.489   7.876   6.393  0.6402 -0.2613  0.1375
  770MOL0     C 3853   1.540   8.000   6.494 -0.9933  0.6222 -0.7991
  770MOL0     C 3854   1.680   7.967   6.546  0.6170  0.4562  0.3175
  770MOL0     C 3855   1.700   8.004   6.695  0.0535 -0.1424  0.2351
  770MOL0     C 3856   1.675   7.894   6.797 -0.0413 -0.4434  0.7990
  770MOL0     C 3857   1.709   7.944   6.935 -0.1218  0.6394 -0.3639
  770MOL0     C 3858   1.668   7.857   7.053  0.5643 -0.5995  0.7291
  770MOL0    Cl 3859   1.734   7.936   7.200 -0.2695 -0.1581  0.1330
  770MOL0     C 3860   1.119   7.752   6.622  0.3248  0.0470 -0.8137
  770MOL0     C 3861   1.038   7.666   6.705  0.4081 -0.0017 -0.3566
  770MOL0     O 3862   1.095   7.296   6.756  0.4050 -0.7659 -0.0361
  770MOL0     C 3863   0.984   7.124   6.959  0.4573  0.4999  0.5442
  770MOL0     C 3864   0.928   7.051   7.069 -1.0925 -0.4620 -0.2239
  770MOL0     N 3865   0.833   6.388   7.316 -0.1447 -0.4117 -0.2028
  770MOL0     N 3866   0.844   6.258   7.346  0.4644  0.4386 -0.2922
  770MOL0     C 3867   1.175   5.331   7.038 -0.1538  0.3706 -0.5215
  770MOL0     C 3868   1.297   5.267   7.017  0.1470  0.0416  0.1983
  770MOL0     C 3869   1.772   5.235   7.082  0.7336 -0.8325 -0.4264
  770MOL0     C 3870   1.783   5.204   7.217 -0.6146  0.0725 -0.1973
  770MOL0     C 3871   1.908   5.169   7.277  0.0614  0.8988  0.3605
  770MOL0     C 3872   2.022   5.164   7.197 -0.0153 -0.9964  0.0677
  770MOL0     O 3873   2.144   5.135   7.254 -0.0349  0.5008 -1.3909
  770MOL0     C 3874   2.249   5.221   7.226  0.7371  0.6272  1.2805
  770MOL0     C 3875   2.380   5.197   7.316 -0.1055 -0.9089  1.2022
  770MOL0     C 3876   2.470   5.082   7.276 -1.2349  0.5332 -0.0939
  770MOL0     C 3877   2.480   5.051   7.121  0.9148 -0.5543 -0.1372
  770MOL0     C 3878   2.575   4.947   7.094  0.2338  0.1107  0.4230
  770MOL0     C 3879   2.647   4.850   7.072  0.0774  0.9364 -0.0458
  770MOL0     C 3880   2.010   5.211   7.064 -0.0748  0.2140 -0.0180
  770MOL0     C 3881   1.889   5.233   7.000 -0.7748  0.8623 -0.4046
  770MOL0     C 3882   1.905   5.284   6.860 -0.5848 -0.1964  0.1059
  770MOL0     H 3883   1.473   5.426   7.263 -0.5313  0.9644  0.7419
  770MOL0     H 3884   1.226   5.548   7.285 -7.7203 -1.9866 -0.5006
  770MOL0     H 3885   1.096   5.686   7.092 -2.2450  2.0108 -0.6859
  770MOL0     H 3886   1.052   5.578   6.957 -1.9420 -0.9243  0.2253
  770MOL0     H 3887   0.815   5.561   7.040  0.2745 -0.0502 -2.6082
  770MOL0     H 3888   0.868   5.719   6.989 -3.4412 -0.1381 -0.9659
  770MOL0     H 3889   0.846   5.609   7.284  1.3121  0.3569  0.5484
  770MOL0     H 3890   0.742   5.741   7.211  2.0177  3.0641 -0.6583
  770MOL0     H 3891   1.039   5.785   7.273  0.2808 -1.2212  0.4598
  770MOL0     H 3892   0.922   5.887   7.194 -5.2121 -1.1087 -1.4698
  770MOL0     H 3893   0.775   5.874   7.401  0.5843  0.1764 -0.8263
  770MOL0     H 3894   0.889   5.760   7.470 -1.1076  0.1410  0.7342
  770MOL0     H 3895   1.047   5.916   7.487 -1.3803 -3.1272 -1.1448
  770MOL0     H 3896   0.965   6.024   7.373  0.4124 -1.7906 -1.3314
  770MOL0     H 3897   0.959   6.079   7.642 -0.3781  1.2750 -1.8488
  770MOL0     H 3898   0.850   5.942   7.649  2.2889 -1.3395  0.2103
  770MOL0     H 3899   0.693   6.063   7.485 -0.4530 -0.1403  0.7457
  770MOL0     H 3900   0.701   6.166   7.619  2.0232  3.0815 -0.6993
  770MOL0     H 3901   0.778   6.395   7.638 -1.7486  0.2297  0.2651
  770MOL0     H 3902   0.797   6.621   7.577  2.4165 -1.1847  0.3622
  770MOL0     H 3903   0.928   6.619   7.468  1.5203 -2.6810  2.7471
  770MOL0     H 3904   0.784   6.651   7.270  1.4052  1.2734  0.7323
  770MOL0     H 3905   0.637   6.652   7.362  0.4898 -1.8663 -0.7339
  770MOL0     H 3906   0.885   6.816   7.376 -0.7845  0.0698  1.3277
  770MOL0     H 3907   0.734   6.876   7.453 -1.9572 -2.7624  1.0755
  770MOL0     H 3908   0.631   6.878   7.223 -0.6228 -0.5039  0.8914
  770MOL0     H 3909   0.792   6.848   7.154 -1.8174  1.3697 -1.1544
  770MOL0     H 3910   0.712   7.284   7.185 -1.6372 -0.1924 -1.2366
  770MOL0     H 3911   0.837   7.421   7.006 -2.1922 -0.9454 -2.6286
  770MOL0     H 3912   1.267   7.493   6.874  1.2378 -1.3425 -1.4369
  770MOL0     H 3913   1.426   7.639   6.721  0.2211  1.8035  0.1252
  770MOL0     H 3914   1.503   7.726   6.544 -1.2872 -0.8852  0.8981
  770MOL0     H 3915   1.409   7.677   6.401 -0.9842  0.6170 -0.0115
  770MOL0     H 3916   1.564   7.847   6.319 -0.2956  1.3767 -1.5244
  770MOL0     H 3917   1.407   7.906   6.327 -0.8352  1.4295  2.5604
  770MOL0     H 3918   1.543   8.091   6.435  0.6710  0.2485 -1.3375
  770MOL0     H 3919   1.470   8.020   6.576  0.2737  0.7803  0.2705
  770MOL0     H 3920   1.752   8.021   6.485  0.5173  1.3305  0.9641
  770MOL0     H 3921   1.696   7.859   6.533  1.6645  0.9209 -3.5264
  770MOL0     H 3922   1.644   8.093   6.728 -0.7055 -0.3265 -0.5331
  770MOL0     H 3923   1.804   8.033   6.713 -0.4189  2.8426 -1.2705
  770MOL0     H 3924   1.566   7.881   6.789 -0.0333 -2.0507  2.5286
  770MOL0     H 3925   1.727   7.805   6.760 -0.1885  0.0938 -0.7761
  770MOL0     H 3926   1.680   8.049   6.947 -2.2583  0.0010  0.4091
  770MOL0     H 3927   1.818   7.937   6.925  0.1139 -2.4532  2.6526
  770MOL0     H 3928   1.559   7.856   7.058  0.4924 -0.3951 -0.5778
  770MOL0     H 3929   1.699   7.752   7.046 -3.0359 -1.6955 -2.5743
  770MOL0     H 3930   1.083   7.839   6.568  0.5503  0.1587 -0.7855
  770MOL0     H 3931   0.932   7.687   6.707  0.7433  1.9756  2.3143
  770MOL0     H 3932   1.052   7.079   6.887  1.1324  0.7902  0.9792
  770MOL0     H 3933   0.953   6.946   7.070 -0.1442 -0.3282 -3.0168
  770MOL0     H 3934   1.091   5.323   6.969 -0.7592  0.8555  0.1460
  770MOL0     H 3935   1.305   5.194   6.938  0.8843 -1.1118  1.3033
  770MOL0     H 3936   1.695   5.210   7.279 -0.5575 -0.8818 -0.0203
  770MOL0     H 3937   1.921   5.135   7.379 -0.2104  1.3132  0.5339
  770MOL0     H 3938   2.224   5.326   7.245  1.9097  1.6992 -2.2786
  770MOL0     H 3939   2.281   5.207   7.122  0.7733  1.6716  1.1405
  770MOL0     H 3940   2.342   5.180   7.417  0.6317  0.8604  1.8168
  770MOL0     H 3941   2.442   5.287   7.322 -0.3537 -0.6766  0.4396
  770MOL0     H 3942   2.427   4.991   7.318  0.0077  0.2492  0.6141
  770MOL0     H 3943   2.575   5.098   7.301 -0.1875  0.3267 -3.7212
  770MOL0     H 3944   2.384   5.025   7.075  1.6652 -0.7252 -1.6562
  770MOL0     H 3945   2.525   5.141   7.078 -2.5712  2.3087  1.6782
  770MOL0     H 3946   2.694   4.756   7.049 -1.1088 -0.1036  1.5717
  770MOL0     H 3947   2.096   5.235   7.003  0.4512 -0.9667  0.2380
  770MOL0     H 3948   1.818   5.274   6.795 -0.1064 -1.8011 -0.3355
  770MOL0     H 3949   1.927   5.391   6.857 -3.4338  0.4662 -0.8295
  770MOL0     H 3950   1.981   5.232   6.801  0.3379  0.6580  0.5202
  771MOL0     O 3951   9.416   8.150   3.295  0.4591  0.4655  0.0745
  771MOL0     C 3952   9.536   8.149   3.289 -0.2326  0.0332  0.4122
  771MOL0     O 3953   9.608   8.258   3.290 -0.0566 -0.1347  0.3697
  771MOL0     C 3954   9.549   8.377   3.271 -0.0735 -0.7295  0.6316
  771MOL0     C 3955   9.534   8.436   3.147  0.2202 -0.0032 -0.1668
  771MOL0     C 3956   9.449   8.548   3.134 -0.6722 -0.2483 -1.0290
  771MOL0     C 3957   9.387   8.607   3.241 -0.2690  0.0596 -0.2000
  771MOL0     O 3958   9.295   8.707   3.223  0.1539 -0.0640 -0.2544
  771MOL0     C 3959   9.345   8.844   3.240 -0.5933  0.2054  0.2138
  771MOL0     C 3960   9.287   8.914   3.120 -0.0937  0.6208 -0.0626
  771MOL0     C 3961   9.150   8.958   3.140  0.2346  0.2264 -0.2332
  771MOL0     C 3962   9.093   9.001   3.011  0.2267  0.0680  0.2244
  771MOL0     C 3963   8.995   9.120   3.023  0.9486  0.6099 -0.3479
  771MOL0     C 3964   8.889   9.126   2.916  0.4059 -0.0472  0.3261
  771MOL0     C 3965   8.939   9.178   2.777 -0.2117  0.1559 -0.0297
  771MOL0     C 3966   8.854   9.157   2.649  0.1607 -0.1971 -0.0708
  771MOL0     N 3967   8.808   9.025   2.624 -0.9570 -0.6082  0.5201
  771MOL0     C 3968   8.679   8.971   2.658  0.1129  0.7640 -0.3942
  771MOL0     C 3969   8.684   8.839   2.625  1.0601 -0.5362 -0.9259
  771MOL0     C 3970   8.577   8.731   2.630  0.1993  0.2966  0.2708
  771MOL0     C 3971   8.440   8.785   2.672  0.8600  0.3953 -0.6497
  771MOL0     C 3972   8.368   8.873   2.575  0.1536  0.6861  0.2549
  771MOL0     C 3973   8.286   8.979   2.651 -0.5188  0.0395  0.3165
  771MOL0     O 3974   8.175   8.915   2.716 -0.5669  0.0085  1.1203
  771MOL0     C 3975   8.083   9.001   2.758  0.4031  0.2798  0.1309
  771MOL0     C 3976   8.114   9.135   2.798  0.2982  0.2285  0.3665
  771MOL0     C 3977   8.019   9.215   2.861  0.4554  0.5462 -0.1954
  771MOL0     C 3978   7.894   9.169   2.883 -0.0745  0.0307  0.1232
  771MOL0     C 3979   7.791   9.254   2.943  0.1832 -0.2514 -1.0840
  771MOL0     O 3980   7.677   9.192   2.989 -0.7582  0.0215 -0.2670
  771MOL0     C 3981   7.586   9.275   3.063 -0.2683 -0.0375  0.0351
  771MOL0     C 3982   7.532   9.240   3.179  0.9534  0.2003  0.3797
  771MOL0     C 3983   7.414   9.301   3.234 -0.6340  0.7493  0.2796
  771MOL0     C 3984   7.360   9.410   3.160  0.2460  0.8249 -0.7573
  771MOL0     O 3985   7.232   9.449   3.201 -0.4495  0.4868 -0.0962
  771MOL0     C 3986   7.193   9.588   3.178 -0.5219  0.5456  0.8933
  771MOL0     C 3987   7.083   9.632   3.271  0.6454 -0.5864  0.0449
  771MOL0     C 3988   7.122   9.599   3.430  0.0814 -1.0808 -0.8233
  771MOL0     C 3989   7.084   9.697   3.547  0.5461  0.2019  0.4826
  771MOL0     C 3990   6.931   9.704   3.558 -0.0954 -0.0215 -0.3974
  771MOL0     C 3991   6.883   9.792   3.675 -0.0401  0.5849  0.4082
  771MOL0     C 3992   6.733   9.771   3.690  0.3845 -0.2264  0.0430
  771MOL0     C 3993   6.658   9.910   3.699  0.2845 -0.8149  0.0169
  771MOL0    Cl 3994   6.723   9.997   3.854 -0.1285 -0.2752  0.3920
  771MOL0     C 3995   7.419   9.455   3.038 -0.5588 -0.4621 -0.8797
  771MOL0     C 3996   7.529   9.375   2.992 -0.5197 -1.3307  0.1090
  771MOL0     O 3997   7.818   9.375   2.956 -0.4808  0.6866 -0.1366
  771MOL0     C 3998   7.864   9.032   2.861  0.5551 -0.4081  0.4872
  771MOL0     C 3999   7.956   8.949   2.789 -0.3408 -0.4240  0.9265
  771MOL0     N 4000   8.813   8.817   2.579  0.5547  0.9842 -0.5044
  771MOL0     N 4001   8.878   8.919   2.565  0.5254 -0.5571 -0.6723
  771MOL0     C 4002   9.412   8.561   3.369 -0.1627  0.1405 -0.0170
  771MOL0     C 4003   9.485   8.444   3.382  0.6400 -0.6622  1.7696
  771MOL0     C 4004   9.607   8.015   3.303  0.1532  0.6967  0.8430
  771MOL0     C 4005   9.724   8.011   3.380  0.8685  0.4367  0.0076
  771MOL0     C 4006   9.797   7.889   3.392 -0.2970  0.1546 -0.3563
  771MOL0     C 4007   9.771   7.776   3.313  0.5407 -0.3670 -0.5394
  771MOL0     O 4008   9.840   7.663   3.312 -0.3794  0.8167 -0.1593
  771MOL0     C 4009   9.936   7.635   3.411 -0.2433 -0.6167 -0.0978
  771MOL0     C 4010   9.951   7.489   3.436  0.2208 -0.3522 -0.4519
  771MOL0     C 4011  10.092   7.462   3.490 -0.4940  1.2091 -0.8622
  771MOL0     C 4012  10.107   7.423   3.638 -0.5376  0.3927  0.5660
  771MOL0     C 4013  10.067   7.542   3.717 -0.1928  0.3480 -0.1168
  771MOL0     C 4014  10.020   7.629   3.779 -0.3802 -0.6741 -0.1855
  771MOL0     C 4015   9.663   7.782   3.228  0.7561 -0.1455  0.2953
  771MOL0     C 4016   9.580   7.892   3.223  0.2926  0.1829 -0.2399
  771MOL0     C 4017   9.446   7.880   3.146 -0.2151  0.5128  0.0591
  771MOL0     H 4018   9.582   8.395   3.059 -0.9560 -3.2915  0.5981
  771MOL0     H 4019   9.421   8.582   3.035  2.0316  1.5614 -1.2633
  771MOL0     H 4020   9.326   8.885   3.339  3.6800  1.9882  0.5124
  771MOL0     H 4021   9.451   8.858   3.218 -0.7812 -2.2544 -2.8704
  771MOL0     H 4022   9.292   8.855   3.028 -2.5305 -0.2385  0.2994
  771MOL0     H 4023   9.341   9.008   3.104 -2.9461  2.1369 -1.5397
  771MOL0     H 4024   9.140   9.025   3.226  0.4436  0.9350 -0.7508
  771MOL0     H 4025   9.089   8.875   3.177  0.5505  0.2258  0.2981
  771MOL0     H 4026   9.175   9.031   2.945 -1.1359 -0.4448 -1.7944
  771MOL0     H 4027   9.045   8.916   2.961 -1.4877  1.8537 -1.3152
  771MOL0     H 4028   8.947   9.119   3.122  0.2240 -4.6738 -0.4519
  771MOL0     H 4029   9.052   9.211   3.004  1.7266  0.0881 -0.5594
  771MOL0     H 4030   8.845   9.027   2.903 -1.3884  0.3468  2.7227
  771MOL0     H 4031   8.798   9.180   2.943 -0.5338 -1.0344 -0.7922
  771MOL0     H 4032   9.043   9.155   2.752 -0.1747  1.5240 -1.2600
  771MOL0     H 4033   8.944   9.286   2.790  1.1897  0.2516 -1.1443
  771MOL0     H 4034   8.765   9.218   2.669  1.0617  1.6094 -1.2284
  771MOL0     H 4035   8.878   9.212   2.557 -0.1745  0.7903  0.4220
  771MOL0     H 4036   8.601   9.026   2.710  0.5248  2.7706 -1.8150
  771MOL0     H 4037   8.564   8.678   2.535 -0.0199  0.1774  0.3642
  771MOL0     H 4038   8.615   8.650   2.693  0.5833  0.7435  0.6215
  771MOL0     H 4039   8.370   8.705   2.699  1.6694 -0.2950 -0.5559
  771MOL0     H 4040   8.474   8.824   2.768 -0.7432 -1.2099  0.6580
  771MOL0     H 4041   8.303   8.810   2.514 -0.8109  1.8630  0.0391
  771MOL0     H 4042   8.437   8.928   2.511  1.8937 -0.0561  1.4161
  771MOL0     H 4043   8.255   9.055   2.579  2.1284  1.9674  1.0619
  771MOL0     H 4044   8.350   9.025   2.727 -1.7817  0.3670  1.2119
  771MOL0     H 4045   8.207   9.181   2.768  0.0050  0.1534 -0.6748
  771MOL0     H 4046   8.048   9.318   2.883 -0.2223  1.3320 -2.7192
  771MOL0     H 4047   7.565   9.146   3.221 -6.0665 -1.9682  2.4094
  771MOL0     H 4048   7.359   9.245   3.309 -0.0744 -2.7880 -1.7208
  771MOL0     H 4049   7.285   9.648   3.185 -0.0266  0.3312 -2.1752
  771MOL0     H 4050   7.160   9.599   3.074  0.9409 -2.3959 -0.0188
  771MOL0     H 4051   7.071   9.740   3.280  0.8875 -0.6586  1.5475
  771MOL0     H 4052   6.994   9.575   3.244  0.5871 -1.7461  2.4363
  771MOL0     H 4053   7.074   9.505   3.459  3.1054 -1.9872  1.8954
  771MOL0     H 4054   7.232   9.598   3.428  0.2601  1.2815  1.4399
  771MOL0     H 4055   7.118   9.796   3.515 -1.7523  0.5469 -1.1304
  771MOL0     H 4056   7.125   9.660   3.641  1.8120 -1.3546 -0.6227
  771MOL0     H 4057   6.886   9.604   3.562  0.6529 -0.4087 -1.2503
  771MOL0     H 4058   6.894   9.751   3.466  0.8495  1.1711 -0.1960
  771MOL0     H 4059   6.931   9.765   3.768  1.1065 -1.7602 -0.7927
  771MOL0     H 4060   6.914   9.893   3.645  0.5077 -0.4296 -2.9203
  771MOL0     H 4061   6.698   9.704   3.769 -0.0949  0.6857  0.6273
  771MOL0     H 4062   6.693   9.729   3.598  2.1215 -0.4177 -0.6589
  771MOL0     H 4063   6.671   9.975   3.612  1.4776  1.7058  1.9613
  771MOL0     H 4064   6.550   9.897   3.709 -0.1682  2.4423  0.3587
  771MOL0     H 4065   7.380   9.536   2.978  2.6946  2.4474  0.5934
  771MOL0     H 4066   7.574   9.401   2.896  0.9564 -3.2711  0.2282
  771MOL0     H 4067   7.764   8.991   2.864  0.3323  0.1822  2.8833
  771MOL0     H 4068   7.938   8.843   2.771  0.8602 -0.5206  0.1797
  771MOL0     H 4069   9.375   8.619   3.452  0.7508  0.9558 -0.1571
  771MOL0     H 4070   9.487   8.398   3.480  1.2777 -0.0924  2.0326
  771MOL0     H 4071   9.760   8.094   3.440 -0.8816  1.4524 -0.2906
  771MOL0     H 4072   9.882   7.890   3.459  0.3597  4.9495 -0.8823
  771MOL0     H 4073   9.905   7.680   3.506 -0.4960 -0.6310 -0.1736
  771MOL0     H 4074  10.026   7.683   3.372 -0.6228  0.0964 -0.1157
  771MOL0     H 4075   9.928   7.457   3.334  0.0401  2.8749 -1.5558
  771MOL0     H 4076   9.880   7.455   3.512  0.2590 -2.0150 -1.1206
  771MOL0     H 4077  10.163   7.542   3.468 -0.2620  1.0797 -0.5851
  771MOL0     H 4078  10.129   7.373   3.438  0.3665  1.2801 -0.3864
  771MOL0     H 4079  10.053   7.330   3.660  2.7908 -2.6553 -2.8402
  771MOL0     H 4080  10.210   7.402   3.666 -0.4938  0.9023  0.7912
  771MOL0     H 4081   9.981   7.708   3.842  0.8927  0.3668 -0.6643
  771MOL0     H 4082   9.637   7.694   3.169  2.9182  0.6651 -1.9867
  771MOL0     H 4083   9.419   7.968   3.087 -2.7941  0.8435  1.5444
  771MOL0     H 4084   9.455   7.796   3.077  0.4810  1.0478 -0.5069
  771MOL0     H 4085   9.364   7.867   3.218 -1.8050 -0.8549 -1.8878
  772MOL0     O 4086  11.103   5.209   5.580 -0.1396 -0.0984  1.0207
  772MOL0     C 4087  11.137   5.207   5.698 -0.2432  0.3568  0.8074
  772MOL0     O 4088  11.140   5.093   5.783 -0.3648  0.1984 -0.1028
  772MOL0     C 4089  11.088   4.982   5.730  0.0555  0.4038 -0.2747
  772MOL0     C 4090  10.952   4.966   5.735  0.6529  0.2421 -0.0890
  772MOL0     C 4091  10.894   4.848   5.688  0.3457  0.1662  0.6273
  772MOL0     C 4092  10.972   4.742   5.642  0.3923 -0.5602 -0.5489
  772MOL0     O 4093  10.913   4.638   5.591  0.2491  0.4785 -0.4167
  772MOL0     C 4094  10.943   4.613   5.458 -0.0102  0.4685 -0.2233
  772MOL0     C 4095  10.897   4.481   5.418 -0.0668  0.2057  0.2415
  772MOL0     C 4096  10.760   4.434   5.462  0.3413  0.5934  0.1287
  772MOL0     C 4097  10.640   4.527   5.423 -0.6484  0.2152 -0.8096
  772MOL0     C 4098  10.503   4.453   5.466  0.5159 -0.1355 -0.9173
  772MOL0     C 4099  10.468   4.480   5.612 -0.3303 -0.3458  0.3327
  772MOL0     C 4100  10.410   4.621   5.635 -0.2474 -0.5938  0.1806
  772MOL0     C 4101  10.489   4.709   5.737 -0.4112 -0.1308  0.0981
  772MOL0     N 4102  10.442   4.687   5.880 -1.3242 -0.2338  0.5677
  772MOL0     C 4103  10.431   4.562   5.941  0.4659  0.0360 -0.4393
  772MOL0     C 4104  10.351   4.586   6.051 -0.5407 -0.5495  0.2282
  772MOL0     C 4105  10.286   4.482   6.135  0.0999 -0.2452 -0.4860
  772MOL0     C 4106  10.275   4.505   6.284  0.1971 -0.9496 -0.2582
  772MOL0     C 4107  10.161   4.604   6.322 -0.7927 -0.7334  0.6253
  772MOL0     C 4108  10.025   4.536   6.316 -0.1264  0.4077  0.0573
  772MOL0     O 4109   9.914   4.603   6.376 -0.0516 -0.3797 -0.0745
  772MOL0     C 4110   9.784   4.557   6.344 -0.4393  0.8318  0.2940
  772MOL0     C 4111   9.684   4.629   6.400 -0.3427  0.9942 -0.2107
  772MOL0     C 4112   9.558   4.584   6.390 -0.0654 -0.5098  0.2257
  772MOL0     C 4113   9.525   4.467   6.330  1.1570  0.3553  0.7843
  772MOL0     C 4114   9.388   4.418   6.336 -0.2597 -0.0668  0.8167
  772MOL0     O 4115   9.292   4.504   6.393 -0.4373 -0.3738  0.0562
  772MOL0     C 4116   9.161   4.488   6.381  0.8701  0.0033 -0.2834
  772MOL0     C 4117   9.097   4.451   6.256  1.3293 -0.1824  0.1862
  772MOL0     C 4118   8.950   4.445   6.254 -1.0783 -0.4321 -1.1241
  772MOL0     C 4119   8.878   4.475   6.370 -1.2325  0.1638 -0.4718
  772MOL0     O 4120   8.744   4.463   6.355 -0.5063 -0.0840  0.0039
  772MOL0     C 4121   8.660   4.507   6.457  1.3605  0.5204 -0.9894
  772MOL0     C 4122   8.512   4.517   6.427  0.4044  0.5826  1.0562
  772MOL0     C 4123   8.480   4.608   6.306 -0.2471 -0.0753  0.7601
  772MOL0     C 4124   8.323   4.611   6.292 -0.1210  0.7344 -0.4325
  772MOL0     C 4125   8.264   4.695   6.185 -0.4927  0.6460  0.2110
  772MOL0     C 4126   8.303   4.838   6.219  0.3924 -0.6704 -0.8425
  772MOL0     C 4127   8.303   4.888   6.365 -0.2903 -0.1431 -0.3143
  772MOL0     C 4128   8.174   4.885   6.437  0.1823 -0.2008 -0.0449
  772MOL0    Cl 4129   8.048   4.994   6.370 -0.3867 -0.2332 -0.1337
  772MOL0     C 4130   8.947   4.511   6.487  0.3584  0.8038  0.4531
  772MOL0     C 4131   9.081   4.527   6.494 -0.7873  0.4446  0.0804
  772MOL0     O 4132   9.360   4.317   6.269 -0.7250 -0.4132  0.3289
  772MOL0     C 4133   9.631   4.383   6.273  0.4998 -0.4666 -0.0099
  772MOL0     C 4134   9.761   4.432   6.289  0.2404  0.0049  0.2290
  772MOL0     N 4135  10.325   4.720   6.065  0.6215  0.0024 -0.2328
  772MOL0     N 4136  10.381   4.770   5.963  0.3638 -0.0570  0.6364
  772MOL0     C 4137  11.115   4.759   5.656 -0.2178 -0.3759 -0.8454
  772MOL0     C 4138  11.168   4.879   5.698 -0.6407 -0.0319 -0.0281
  772MOL0     C 4139  11.146   5.344   5.749  0.3163 -1.3729 -0.0398
  772MOL0     C 4140  11.064   5.380   5.855  0.4087  0.0483 -0.8495
  772MOL0     C 4141  11.047   5.515   5.886  0.5215 -0.4581 -0.3300
  772MOL0     C 4142  11.144   5.608   5.824 -0.1875 -0.0617  0.1464
  772MOL0     O 4143  11.150   5.747   5.849  0.0622  0.7237 -0.0129
  772MOL0     C 4144  11.073   5.813   5.956 -0.0337  0.8690 -0.8688
  772MOL0     C 4145  10.937   5.864   5.904 -0.1475 -0.4925  0.5840
  772MOL0     C 4146  10.883   5.977   5.993 -0.8230 -0.2648 -0.6064
  772MOL0     C 4147  10.965   6.105   5.964 -0.4275 -0.5406 -0.8199
  772MOL0     C 4148  10.907   6.184   5.860 -0.0753 -1.0132  0.6105
  772MOL0     C 4149  10.847   6.260   5.776  0.3641  0.2610  0.5907
  772MOL0     C 4150  11.231   5.565   5.723 -1.4347  0.6498  0.0224
  772MOL0     C 4151  11.233   5.437   5.688  0.3361  0.2645 -0.0446
  772MOL0     C 4152  11.331   5.400   5.575 -0.2808 -0.1677  0.8159
  772MOL0     H 4153  10.888   5.050   5.760  1.5537  0.4605  1.7014
  772MOL0     H 4154  10.788   4.842   5.666  0.7432 -0.3130 -1.3032
  772MOL0     H 4155  10.915   4.702   5.401  0.9494  2.3788  2.0935
  772MOL0     H 4156  11.051   4.610   5.441 -0.4296  2.8125 -4.8235
  772MOL0     H 4157  10.975   4.407   5.442  1.3712  2.4203  2.9358
  772MOL0     H 4158  10.892   4.483   5.309 -2.1524 -0.2142  0.2987
  772MOL0     H 4159  10.776   4.411   5.568  0.8941  0.2423 -0.0266
  772MOL0     H 4160  10.735   4.339   5.413  0.2942 -0.6327  2.3692
  772MOL0     H 4161  10.661   4.622   5.473  1.1909 -0.7129  0.2953
  772MOL0     H 4162  10.650   4.534   5.314  1.3927  0.6053 -0.6391
  772MOL0     H 4163  10.428   4.479   5.391 -0.2593 -0.5213 -0.2918
  772MOL0     H 4164  10.518   4.346   5.452 -1.7852 -0.3857 -1.8487
  772MOL0     H 4165  10.395   4.410   5.655 -0.1463 -0.6212  0.1999
  772MOL0     H 4166  10.561   4.477   5.671  0.3986 -1.1674 -0.8176
  772MOL0     H 4167  10.305   4.626   5.665 -0.6751 -3.0464 -0.6869
  772MOL0     H 4168  10.411   4.673   5.540  1.2884 -3.1127 -1.3135
  772MOL0     H 4169  10.597   4.696   5.731 -0.5257 -0.7347 -0.7782
  772MOL0     H 4170  10.469   4.815   5.718  4.9851  1.5328  2.0384
  772MOL0     H 4171  10.460   4.466   5.899 -2.3890 -1.7573  1.3143
  772MOL0     H 4172  10.187   4.459   6.095  0.5357  0.3137 -1.9695
  772MOL0     H 4173  10.345   4.390   6.127  3.4422  1.6819  0.0174
  772MOL0     H 4174  10.262   4.405   6.327  1.5923 -1.4509 -0.9494
  772MOL0     H 4175  10.363   4.539   6.339 -0.2535 -0.6940  0.3118
  772MOL0     H 4176  10.171   4.689   6.255 -0.9144  0.1646  1.7153
  772MOL0     H 4177  10.180   4.637   6.425 -0.1476 -1.9691  0.9195
  772MOL0     H 4178  10.042   4.452   6.384 -2.6532 -0.1087  0.1387
  772MOL0     H 4179  10.001   4.502   6.215  2.3425  3.2407 -1.6695
  772MOL0     H 4180   9.703   4.721   6.454  0.5126  1.5329 -1.3785
  772MOL0     H 4181   9.476   4.648   6.423 -1.4263 -0.8204 -2.2977
  772MOL0     H 4182   9.162   4.443   6.170  2.4241  0.5376  0.9210
  772MOL0     H 4183   8.901   4.403   6.166 -1.5690 -0.3511 -0.8945
  772MOL0     H 4184   8.669   4.445   6.547  2.7070  2.0874  0.0263
  772MOL0     H 4185   8.694   4.605   6.490  1.2792  0.5574 -1.0166
  772MOL0     H 4186   8.467   4.421   6.400  4.4031 -0.6326 -2.3296
  772MOL0     H 4187   8.468   4.557   6.519  1.1460  1.6291  0.9726
  772MOL0     H 4188   8.519   4.710   6.302 -1.8474  0.5590  0.1481
  772MOL0     H 4189   8.523   4.555   6.222 -1.0557 -2.6837  1.8806
  772MOL0     H 4190   8.275   4.644   6.385  4.1140  1.4392  1.7548
  772MOL0     H 4191   8.289   4.508   6.276  1.5812  0.3000 -1.5142
  772MOL0     H 4192   8.156   4.684   6.175 -0.1812 -0.8160 -2.7952
  772MOL0     H 4193   8.295   4.658   6.086 -1.2807  0.0715  0.1734
  772MOL0     H 4194   8.400   4.855   6.172  0.9785  0.1341  0.5753
  772MOL0     H 4195   8.234   4.903   6.166  1.5623 -0.0551 -1.6725
  772MOL0     H 4196   8.346   4.989   6.362  0.2069 -0.2852  1.2957
  772MOL0     H 4197   8.379   4.839   6.426  1.6173  3.5447  0.5561
  772MOL0     H 4198   8.147   4.781   6.455  2.8763 -0.6095  2.3556
  772MOL0     H 4199   8.190   4.925   6.538 -1.8806  1.0988 -0.1752
  772MOL0     H 4200   8.900   4.549   6.578 -1.3219  0.4932 -0.2560
  772MOL0     H 4201   9.127   4.567   6.584 -0.9203  1.2672 -0.2099
  772MOL0     H 4202   9.595   4.292   6.225  3.0569  0.0604 -3.1764
  772MOL0     H 4203   9.838   4.363   6.255  0.1282  0.6210 -1.3605
  772MOL0     H 4204  11.180   4.675   5.632  1.2275  0.3663  0.2960
  772MOL0     H 4205  11.276   4.891   5.701 -0.7030  0.6670 -0.3487
  772MOL0     H 4206  11.010   5.307   5.915  2.8278 -1.8124 -0.8066
  772MOL0     H 4207  10.992   5.547   5.974 -0.1790 -1.1219 -0.5129
  772MOL0     H 4208  11.139   5.894   5.990  0.1231 -0.0586  1.1308
  772MOL0     H 4209  11.046   5.753   6.043 -0.7574 -0.4102 -1.9474
  772MOL0     H 4210  10.869   5.778   5.902  1.8129 -2.1827 -3.0618
  772MOL0     H 4211  10.944   5.905   5.803  0.2244 -0.1793  0.7345
  772MOL0     H 4212  10.898   5.950   6.098  0.6415 -0.4107 -0.8338
  772MOL0     H 4213  10.776   5.994   5.974 -0.5843  0.0796 -1.7324
  772MOL0     H 4214  10.960   6.158   6.059 -3.1957 -1.1342 -0.5501
  772MOL0     H 4215  11.071   6.087   5.946  0.2816  1.2592  1.1023
  772MOL0     H 4216  10.808   6.337   5.713  1.7912  0.8768  0.4117
  772MOL0     H 4217  11.285   5.647   5.678  0.4804 -0.0981  0.8488
  772MOL0     H 4218  11.366   5.296   5.583  3.3744  0.9500  1.4747
  772MOL0     H 4219  11.288   5.408   5.475  0.7722  1.2925  0.4615
  772MOL0     H 4220  11.418   5.466   5.570  0.3934 -1.1411 -3.2081
  773MOL0     O 4221   0.090   8.169   0.399  0.6527 -0.1561 -0.5850
  773MOL0     C 4222   0.007   8.121   0.319  0.3192 -1.2931  0.2088
  773MOL0     O 4223  -0.127   8.139   0.314 -0.2579 -0.6144 -0.4893
  773MOL0     C 4224  -0.199   8.162   0.426  0.4117  0.1473 -1.2120
  773MOL0     C 4225  -0.149   8.111   0.554 -0.0928 -0.9055  0.2612
  773MOL0     C 4226  -0.223   8.139   0.671 -0.1834  0.2517 -0.0704
  773MOL0     C 4227  -0.352   8.207   0.662  1.2069  0.5175  1.0362
  773MOL0     O 4228  -0.445   8.214   0.766 -0.2134 -0.4751  0.0239
  773MOL0     C 4229  -0.407   8.148   0.887 -0.4845 -0.6885 -0.4959
  773MOL0     C 4230  -0.536   8.165   0.975 -0.2372 -0.4316 -0.0201
  773MOL0     C 4231  -0.515   8.107   1.112  0.1497 -1.3043 -0.2535
  773MOL0     C 4232  -0.633   8.136   1.201 -0.6547 -0.1069  0.8339
  773MOL0     C 4233  -0.596   8.069   1.332  0.5303 -0.4424 -1.0888
  773MOL0     C 4234  -0.476   8.134   1.417 -0.1108 -1.2809  0.6908
  773MOL0     C 4235  -0.448   8.055   1.547 -0.2476 -0.0832  0.1868
  773MOL0     C 4236  -0.561   8.096   1.647  0.0315  0.1526 -0.2329
  773MOL0     N 4237  -0.526   8.027   1.775 -0.1295 -0.0037  0.2670
  773MOL0     C 4238  -0.516   7.892   1.806  1.0434 -0.1107  0.6285
  773MOL0     C 4239  -0.495   7.878   1.938  0.3320  0.2093 -0.6977
  773MOL0     C 4240  -0.471   7.751   2.021  0.5003 -0.0201  0.4162
  773MOL0     C 4241  -0.580   7.632   1.989 -0.3741  0.4899  0.9060
  773MOL0     C 4242  -0.722   7.679   1.943 -0.9818 -0.0341  0.6539
  773MOL0     C 4243  -0.823   7.568   1.920 -0.0277  0.1205  0.7682
  773MOL0     O 4244  -0.785   7.477   1.810 -0.1964  0.1444 -0.9923
  773MOL0     C 4245  -0.712   7.371   1.839 -0.0220  0.2111 -0.4361
  773MOL0     C 4246  -0.669   7.303   1.724 -0.0576 -0.0318 -0.6678
  773MOL0     C 4247  -0.599   7.182   1.737 -0.0673  0.0147  0.4245
  773MOL0     C 4248  -0.561   7.134   1.861  0.2940  0.4376 -0.0369
  773MOL0     C 4249  -0.478   7.014   1.866  0.3309  0.2144  0.6337
  773MOL0     O 4250  -0.426   6.954   1.750 -0.1955 -0.1629 -0.0213
  773MOL0     C 4251  -0.328   6.857   1.762  0.2847 -0.5551  0.3465
  773MOL0     C 4252  -0.203   6.882   1.808  0.2880  0.4362 -0.8669
  773MOL0     C 4253  -0.108   6.778   1.811  0.4245  0.2921 -0.5910
  773MOL0     C 4254  -0.143   6.643   1.766  0.2438  0.3615  0.1739
  773MOL0     O 4255  -0.037   6.560   1.767 -0.7009  0.2080 -0.5295
  773MOL0     C 4256  -0.056   6.429   1.726 -0.6238 -0.2777 -0.8485
  773MOL0     C 4257   0.080   6.343   1.727  0.7481 -0.4529 -0.0901
  773MOL0     C 4258   0.054   6.194   1.731 -0.3144 -0.2503 -0.2239
  773MOL0     C 4259   0.181   6.123   1.777  0.1776 -0.7855  0.0243
  773MOL0     C 4260   0.149   6.038   1.904 -0.5243 -0.5748 -0.9665
  773MOL0     C 4261   0.225   5.902   1.918  0.4160 -1.2168  0.4168
  773MOL0     C 4262   0.166   5.803   2.014  0.3919 -0.6476 -0.6484
  773MOL0     C 4263   0.161   5.865   2.155  0.5541  0.4689 -0.3716
  773MOL0    Cl 4264   0.322   5.909   2.233  0.1139 -0.3044  0.5093
  773MOL0     C 4265  -0.275   6.616   1.734 -1.6627  0.2369  0.0277
  773MOL0     C 4266  -0.363   6.722   1.743 -0.6936 -1.2482 -0.8573
  773MOL0     O 4267  -0.446   6.981   1.984  0.1663 -0.1461  0.2993
  773MOL0     C 4268  -0.597   7.203   1.977 -0.7001 -0.0772  0.6634
  773MOL0     C 4269  -0.666   7.325   1.964  0.3253  0.6226 -0.1773
  773MOL0     N 4270  -0.504   8.013   1.985  0.7321  0.7566 -0.2446
  773MOL0     N 4271  -0.526   8.096   1.892  0.0726  0.5434 -0.7346
  773MOL0     C 4272  -0.400   8.240   0.534  1.1032 -0.0881 -0.8349
  773MOL0     C 4273  -0.322   8.221   0.422  0.2641 -0.3265  0.6149
  773MOL0     C 4274   0.066   8.043   0.206  0.8961  1.3473 -0.1844
  773MOL0     C 4275  -0.005   8.015   0.097 -0.4277 -0.2936  0.1425
  773MOL0     C 4276   0.043   7.950  -0.015 -0.3346 -0.7335  0.3804
  773MOL0     C 4277   0.178   7.912  -0.023  0.4046  0.5198 -0.2284
  773MOL0     O 4278   0.223   7.845  -0.134  0.0956 -0.2259 -0.2121
  773MOL0     C 4279   0.335   7.760  -0.134 -0.8323  0.3248 -0.2029
  773MOL0     C 4280   0.356   7.701  -0.266 -0.4805  0.3427  0.0319
  773MOL0     C 4281   0.401   7.794  -0.375  0.0499  0.2880  0.5529
  773MOL0     C 4282   0.385   7.717  -0.510 -0.2834  0.2592 -0.1105
  773MOL0     C 4283   0.440   7.577  -0.511 -0.0732  0.0324 -0.2693
  773MOL0     C 4284   0.498   7.468  -0.508 -0.5622  0.3651  0.1054
  773MOL0     C 4285   0.258   7.944   0.089 -0.5458  0.2786  0.0477
  773MOL0     C 4286   0.202   8.005   0.205 -0.4262  0.8252  0.3646
  773MOL0     C 4287   0.304   8.035   0.307  0.1106  0.0146 -0.4098
  773MOL0     H 4288  -0.055   8.056   0.565 -0.6951 -1.5941  2.4549
  773MOL0     H 4289  -0.188   8.112   0.770  0.9924  4.1170  0.7427
  773MOL0     H 4290  -0.385   8.040   0.882 -0.5369 -0.8807  2.0458
  773MOL0     H 4291  -0.327   8.202   0.938 -3.3340  2.0599  1.4070
  773MOL0     H 4292  -0.621   8.112   0.932  0.2445 -1.3519  0.1370
  773MOL0     H 4293  -0.553   8.273   0.975 -1.5394 -0.6195  0.5654
  773MOL0     H 4294  -0.429   8.156   1.159  0.9971 -1.8094 -1.2372
  773MOL0     H 4295  -0.493   8.000   1.105  0.5426 -1.2784  0.4586
  773MOL0     H 4296  -0.636   8.245   1.208  0.5689 -0.1244  1.8945
  773MOL0     H 4297  -0.729   8.091   1.175  0.0810 -1.4040  0.2275
  773MOL0     H 4298  -0.684   8.083   1.396  1.5699  0.3470  0.2300
  773MOL0     H 4299  -0.581   7.961   1.323 -4.0217 -1.3339 -0.7150
  773MOL0     H 4300  -0.381   8.120   1.364  0.5461 -0.8730  1.7207
  773MOL0     H 4301  -0.490   8.242   1.430 -1.4255 -0.8434 -2.9923
  773MOL0     H 4302  -0.350   8.077   1.591  0.9852  1.2031 -2.8636
  773MOL0     H 4303  -0.443   7.949   1.522  1.7954  0.4509 -2.0348
  773MOL0     H 4304  -0.536   8.200   1.672  0.0278 -0.3504  2.1093
  773MOL0     H 4305  -0.664   8.083   1.613 -0.2398  0.3375  0.4882
  773MOL0     H 4306  -0.517   7.809   1.735 -1.8618  1.1884 -1.0444
  773MOL0     H 4307  -0.375   7.708   1.990  0.0761 -1.4709  0.9891
  773MOL0     H 4308  -0.469   7.773   2.128 -0.5469  0.3490  0.3763
  773MOL0     H 4309  -0.546   7.567   1.908  0.6455 -0.2743  1.9010
  773MOL0     H 4310  -0.595   7.566   2.076  2.8305 -3.8510 -1.4299
  773MOL0     H 4311  -0.716   7.731   1.847  1.5981  0.2310  0.8725
  773MOL0     H 4312  -0.758   7.758   2.009  2.0149  0.3132  2.0346
  773MOL0     H 4313  -0.919   7.608   1.887 -0.2012 -2.6825 -2.7030
  773MOL0     H 4314  -0.845   7.515   2.013 -0.4806  2.1029  1.8530
  773MOL0     H 4315  -0.703   7.339   1.628  0.5497 -0.9677 -1.2457
  773MOL0     H 4316  -0.567   7.128   1.649 -1.7265  1.3886 -1.1002
  773MOL0     H 4317  -0.158   6.978   1.832  2.5765 -1.0208  1.1916
  773MOL0     H 4318  -0.009   6.783   1.856 -0.3276 -1.8255  1.4489
  773MOL0     H 4319  -0.128   6.395   1.801  0.0666  0.8041  0.3382
  773MOL0     H 4320  -0.100   6.424   1.626 -0.3141  0.9281 -1.0682
  773MOL0     H 4321   0.143   6.364   1.640  2.7190  0.9769  1.5538
  773MOL0     H 4322   0.143   6.365   1.814  1.6046 -0.8533 -0.5926
  773MOL0     H 4323  -0.031   6.178   1.798  0.2002  0.5267  0.6426
  773MOL0     H 4324   0.027   6.159   1.631  1.7977  1.3901 -1.4587
  773MOL0     H 4325   0.259   6.191   1.812  1.4539 -1.4361 -1.4122
  773MOL0     H 4326   0.220   6.058   1.698  1.2944  0.5991 -0.6187
  773MOL0     H 4327   0.044   6.011   1.918  0.3581 -4.4530 -0.6605
  773MOL0     H 4328   0.168   6.096   1.995  2.3017 -0.1015 -1.7806
  773MOL0     H 4329   0.232   5.850   1.821  0.2572 -1.3715  0.4866
  773MOL0     H 4330   0.327   5.927   1.948 -0.1451 -0.3013  1.6315
  773MOL0     H 4331   0.228   5.713   2.020  1.4731  0.1589  1.1904
  773MOL0     H 4332   0.062   5.780   1.990 -0.7727  0.9561  2.3599
  773MOL0     H 4333   0.087   5.945   2.152 -2.2609 -1.9358 -3.2282
  773MOL0     H 4334   0.104   5.802   2.224  0.1339 -0.7159 -1.7278
  773MOL0     H 4335  -0.318   6.518   1.717 -1.1383 -0.0719  0.4350
  773MOL0     H 4336  -0.470   6.708   1.727 -0.9739  0.9120 -1.1515
  773MOL0     H 4337  -0.564   7.169   2.075  1.9973  0.2618 -0.0612
  773MOL0     H 4338  -0.696   7.367   2.059 -2.4832 -1.2456 -0.1073
  773MOL0     H 4339  -0.500   8.277   0.515  1.2813  0.6992 -0.2782
  773MOL0     H 4340  -0.352   8.264   0.327  2.1649  0.0029  0.1230
  773MOL0     H 4341  -0.109   8.046   0.095 -0.7149 -1.0738  1.2691
  773MOL0     H 4342  -0.025   7.936  -0.099  0.3466 -4.0205  0.2510
  773MOL0     H 4343   0.320   7.689  -0.052  0.0103  1.5356  1.0351
  773MOL0     H 4344   0.428   7.813  -0.112  1.4305 -3.1279 -0.5454
  773MOL0     H 4345   0.254   7.665  -0.287  0.1322 -1.3861 -0.1759
  773MOL0     H 4346   0.426   7.618  -0.256  0.9017  1.5974  1.0395
  773MOL0     H 4347   0.506   7.820  -0.360 -0.8053  3.6446  1.6243
  773MOL0     H 4348   0.352   7.891  -0.389  1.5605  0.8941 -0.9336
  773MOL0     H 4349   0.280   7.705  -0.538 -1.4758  3.0649  2.5953
  773MOL0     H 4350   0.439   7.771  -0.589  1.7348  0.1049  1.0806
  773MOL0     H 4351   0.548   7.374  -0.509  0.2129  0.7679 -0.2365
  773MOL0     H 4352   0.365   7.926   0.088 -0.3184  1.4777  1.0288
  773MOL0     H 4353   0.389   7.966   0.303  1.8526  1.9376  1.4814
  773MOL0     H 4354   0.335   8.139   0.296 -0.5660  0.2949  0.2791
  773MOL0     H 4355   0.266   8.032   0.409 -1.7465  1.4396 -1.0135
  774MOL0     O 4356   2.407   5.143   4.051  0.7341  1.7970 -0.0464
  774MOL0     C 4357   2.284   5.137   4.057  0.3724  0.2472 -0.3402
  774MOL0     O 4358   2.210   5.045   4.124  0.1843  0.6290  0.4683
  774MOL0     C 4359   2.273   4.922   4.156  0.1243 -1.3781  0.9116
  774MOL0     C 4360   2.225   4.865   4.267  0.3690  0.1886 -0.3194
  774MOL0     C 4361   2.268   4.739   4.304 -0.4451  0.1796  0.1159
  774MOL0     C 4362   2.360   4.668   4.220  0.1439 -0.1623 -0.0788
  774MOL0     O 4363   2.400   4.539   4.257 -0.0434  0.9223 -0.7477
  774MOL0     C 4364   2.535   4.497   4.227 -0.2710  0.2604  0.2073
  774MOL0     C 4365   2.546   4.344   4.208  0.0258 -0.1054 -0.0142
  774MOL0     C 4366   2.671   4.294   4.127  0.1812  0.2462  0.1263
  774MOL0     C 4367   2.655   4.147   4.100 -0.7434  0.3551 -0.3515
  774MOL0     C 4368   2.770   4.094   4.019 -0.5772 -0.1815  0.8502
  774MOL0     C 4369   2.715   3.976   3.936  0.1867 -0.1043 -0.0764
  774MOL0     C 4370   2.805   3.919   3.834 -0.6000  0.7311  0.6833
  774MOL0     C 4371   2.919   3.837   3.876 -0.3250  0.3977  0.3188
  774MOL0     N 4372   3.011   3.822   3.767 -0.0184 -0.8523 -0.3712
  774MOL0     C 4373   3.036   3.707   3.698 -0.5500 -0.2400 -0.3057
  774MOL0     C 4374   3.131   3.743   3.610 -0.2301 -0.1272 -0.1601
  774MOL0     C 4375   3.192   3.645   3.513 -0.7796  0.1886  0.4308
  774MOL0     C 4376   3.129   3.639   3.378  0.3559 -0.0401 -0.3073
  774MOL0     C 4377   3.210   3.567   3.271  0.1496  0.3015  1.0661
  774MOL0     C 4378   3.253   3.429   3.288 -0.5991 -0.0871 -0.0199
  774MOL0     O 4379   3.306   3.377   3.164 -0.1554  0.0794  0.3432
  774MOL0     C 4380   3.372   3.252   3.171  0.1294  0.2729 -0.3017
  774MOL0     C 4381   3.386   3.183   3.288 -0.0442 -0.1152 -0.5410
  774MOL0     C 4382   3.451   3.057   3.278  1.9245 -1.3998 -0.0596
  774MOL0     C 4383   3.509   3.013   3.156 -0.3914 -0.1903 -0.2031
  774MOL0     C 4384   3.550   2.876   3.139 -0.8186  0.3703 -0.4225
  774MOL0     O 4385   3.601   2.842   3.021 -0.4533  0.2123  1.0363
  774MOL0     C 4386   3.604   2.708   2.983 -0.3090  0.0403  0.0340
  774MOL0     C 4387   3.497   2.629   2.936 -0.1883 -0.6531  1.0971
  774MOL0     C 4388   3.509   2.490   2.912 -0.6236 -0.0391  0.6924
  774MOL0     C 4389   3.633   2.422   2.925  0.2632 -0.0060 -0.4037
  774MOL0     O 4390   3.625   2.290   2.891  0.7199  0.8473  0.1842
  774MOL0     C 4391   3.728   2.194   2.937 -0.3485 -0.9660 -0.2054
  774MOL0     C 4392   3.728   2.061   2.874  0.3975 -1.1639  0.1416
  774MOL0     C 4393   3.857   1.983   2.928  0.1251  1.0519 -0.1178
  774MOL0     C 4394   3.974   1.977   2.822 -0.9054  0.1061 -0.7711
  774MOL0     C 4395   4.052   2.107   2.804 -0.8194  0.8026  0.6949
  774MOL0     C 4396   4.167   2.081   2.715  0.4008 -0.6988 -0.6983
  774MOL0     C 4397   4.262   2.204   2.686  0.6282  0.1058  0.6467
  774MOL0     C 4398   4.379   2.168   2.599  0.1441  0.3346 -0.4748
  774MOL0    Cl 4399   4.454   2.309   2.503 -0.4754  0.0589  0.4879
  774MOL0     C 4400   3.749   2.495   2.970  0.1512 -0.1213  0.0710
  774MOL0     C 4401   3.727   2.633   3.007 -0.1879 -0.1287 -0.1992
  774MOL0     O 4402   3.546   2.798   3.236 -0.4858  0.1445  0.0335
  774MOL0     C 4403   3.524   3.102   3.055 -1.1415 -0.1684 -0.1538
  774MOL0     C 4404   3.447   3.219   3.058  0.1094  0.9754 -0.4537
  774MOL0     N 4405   3.162   3.878   3.631 -0.5942  0.1934 -0.6425
  774MOL0     N 4406   3.082   3.924   3.725  0.1171 -0.0538 -0.6313
  774MOL0     C 4407   2.406   4.734   4.107 -0.8937  0.1534 -0.3587
  774MOL0     C 4408   2.361   4.863   4.074 -0.5463  0.4742  0.0643
  774MOL0     C 4409   2.215   5.241   3.973  0.0015  0.2777 -0.2028
  774MOL0     C 4410   2.082   5.204   3.938 -0.3080  0.1873 -0.4595
  774MOL0     C 4411   2.014   5.292   3.856  0.0189 -0.8596  0.2005
  774MOL0     C 4412   2.065   5.412   3.802  0.1730 -0.7270 -0.5581
  774MOL0     O 4413   1.989   5.500   3.728  0.1755 -0.5549 -0.6045
  774MOL0     C 4414   2.013   5.492   3.582 -0.6374 -0.2899  0.4057
  774MOL0     C 4415   2.126   5.590   3.536 -0.4017  0.7263  0.3213
  774MOL0     C 4416   2.090   5.740   3.551 -0.0673  0.6673  1.1798
  774MOL0     C 4417   2.210   5.825   3.526 -0.6352 -0.2177  0.2423
  774MOL0     C 4418   2.206   5.959   3.578  0.0123  0.1925 -0.3609
  774MOL0     C 4419   2.190   6.078   3.621 -0.2453  0.6636  1.0729
  774MOL0     C 4420   2.190   5.448   3.842  0.6078  1.2694 -0.0454
  774MOL0     C 4421   2.271   5.365   3.925  1.6133 -0.2217 -0.6375
  774MOL0     C 4422   2.405   5.417   3.968 -0.1672  0.3265 -0.5939
  774MOL0     H 4423   2.162   4.928   4.329 -0.1250  0.4381 -1.0626
  774MOL0     H 4424   2.224   4.687   4.388 -0.7430 -0.7965 -0.6351
  774MOL0     H 4425   2.574   4.544   4.136 -2.5260 -1.8722 -2.0227
  774MOL0     H 4426   2.601   4.531   4.307 -0.9303  0.4349  0.6774
  774MOL0     H 4427   2.458   4.300   4.160 -0.1159 -0.2225  0.3463
  774MOL0     H 4428   2.557   4.303   4.309 -0.2763  2.6173  1.2089
  774MOL0     H 4429   2.760   4.329   4.179  0.0193 -0.0207  0.5947
  774MOL0     H 4430   2.667   4.348   4.032  0.9009 -1.1248 -0.7128
  774MOL0     H 4431   2.639   4.084   4.189  3.4054 -0.2361  0.1649
  774MOL0     H 4432   2.570   4.132   4.033 -1.1586  0.3054  0.1822
  774MOL0     H 4433   2.811   4.173   3.956  0.2639 -0.1862  1.3815
  774MOL0     H 4434   2.861   4.069   4.074  0.2309 -0.2882 -0.5144
  774MOL0     H 4435   2.678   3.899   4.005  1.5502 -1.8915 -1.2503
  774MOL0     H 4436   2.631   4.002   3.870  0.6184 -3.4108 -2.2036
  774MOL0     H 4437   2.837   4.001   3.768 -0.2207 -1.3939 -1.9226
  774MOL0     H 4438   2.747   3.856   3.766  1.0269 -0.5750  0.4567
  774MOL0     H 4439   2.966   3.898   3.955  0.8330 -3.4632  2.9097
  774MOL0     H 4440   2.895   3.744   3.928  2.8099  0.3649  1.9947
  774MOL0     H 4441   2.981   3.616   3.718  1.7143 -1.8856 -1.0810
  774MOL0     H 4442   3.300   3.662   3.507 -0.8796  1.4885  1.8502
  774MOL0     H 4443   3.169   3.554   3.569  1.1227  0.1658  1.2758
  774MOL0     H 4444   3.032   3.589   3.379 -0.0477  0.7200 -0.3690
  774MOL0     H 4445   3.114   3.744   3.347  0.9895  0.7695  1.9501
  774MOL0     H 4446   3.295   3.636   3.259  0.1525 -0.1088 -2.3372
  774MOL0     H 4447   3.164   3.557   3.172  1.9643 -1.3102  0.3070
  774MOL0     H 4448   3.173   3.376   3.340 -1.9924  2.3957  0.4960
  774MOL0     H 4449   3.342   3.444   3.350  0.3390 -0.0925 -1.3256
  774MOL0     H 4450   3.352   3.206   3.388  0.6538 -0.3291 -0.2477
  774MOL0     H 4451   3.471   2.995   3.365  1.8656 -1.3048  0.0220
  774MOL0     H 4452   3.395   2.663   2.921 -0.3723 -1.8775 -0.7849
  774MOL0     H 4453   3.413   2.442   2.902  0.2400 -1.2886 -2.7587
  774MOL0     H 4454   3.829   2.236   2.931 -0.7285  0.2095  1.1085
  774MOL0     H 4455   3.714   2.181   3.044 -1.4932  0.0312 -0.2064
  774MOL0     H 4456   3.635   2.011   2.902 -1.8509  2.6033  0.0209
  774MOL0     H 4457   3.732   2.078   2.765  0.9663  0.1406  0.3468
  774MOL0     H 4458   3.884   2.033   3.022  0.9849 -0.9776  0.7682
  774MOL0     H 4459   3.842   1.877   2.949 -0.0151  0.4931 -2.7396
  774MOL0     H 4460   3.942   1.946   2.722 -1.0429  0.6081 -0.8890
  774MOL0     H 4461   4.043   1.896   2.845 -1.3159 -0.2809 -0.8987
  774MOL0     H 4462   4.079   2.133   2.907 -4.2735  1.2855  1.6295
  774MOL0     H 4463   3.986   2.178   2.755  0.6786  0.8060 -1.4457
  774MOL0     H 4464   4.231   1.996   2.742  1.8004  0.7763  0.8361
  774MOL0     H 4465   4.122   2.043   2.622  0.6828 -2.6319 -0.0999
  774MOL0     H 4466   4.304   2.263   2.769 -0.4306  0.6471  0.8095
  774MOL0     H 4467   4.194   2.272   2.635 -1.8681 -2.7628 -0.1348
  774MOL0     H 4468   4.460   2.121   2.656 -1.2928 -0.8858  0.6383
  774MOL0     H 4469   4.347   2.088   2.532  0.9052 -0.8643  0.5438
  774MOL0     H 4470   3.840   2.443   2.996  1.4812  1.4852 -1.1613
  774MOL0     H 4471   3.812   2.693   3.040 -0.2168  0.7171 -1.6059
  774MOL0     H 4472   3.585   3.096   2.966 -2.1436 -0.4577 -0.8472
  774MOL0     H 4473   3.450   3.292   2.977  2.1614 -0.2370 -1.5731
  774MOL0     H 4474   2.470   4.684   4.035 -1.6044  2.1790 -2.5510
  774MOL0     H 4475   2.387   4.916   3.983 -4.3301  3.9062  0.7342
  774MOL0     H 4476   2.042   5.108   3.967 -0.9423  0.2105 -1.2103
  774MOL0     H 4477   1.906   5.293   3.850 -0.3094  1.6931  3.3844
  774MOL0     H 4478   1.922   5.521   3.530  0.5430  0.8211 -1.1524
  774MOL0     H 4479   2.037   5.394   3.539 -2.3485  0.2683 -2.0287
  774MOL0     H 4480   2.133   5.564   3.429  1.6962 -0.5667  0.7074
  774MOL0     H 4481   2.223   5.588   3.587 -0.3019  4.5857  0.5505
  774MOL0     H 4482   2.055   5.776   3.648  1.7351  0.7147  1.8486
  774MOL0     H 4483   2.021   5.763   3.469  0.2593  1.3381  1.0896
  774MOL0     H 4484   2.303   5.776   3.558 -0.4822  0.8932  1.5779
  774MOL0     H 4485   2.220   5.828   3.417  1.2086 -0.4597  0.3688
  774MOL0     H 4486   2.171   6.183   3.635 -0.6858  1.1326 -2.2069
  774MOL0     H 4487   2.240   5.538   3.807  0.0134  1.9535  0.8184
  774MOL0     H 4488   2.489   5.361   3.926 -1.1966 -1.0568 -0.8632
  774MOL0     H 4489   2.423   5.523   3.946  1.0050  0.2305 -0.1655
  774MOL0     H 4490   2.426   5.400   4.074  0.4948  0.1128 -0.7591
  775MOL0     O 4491   4.909   1.375   8.537 -0.8971 -0.5858  0.4492
  775MOL0     C 4492   4.982   1.379   8.631 -0.5917 -0.4190  0.4973
  775MOL0     O 4493   4.965   1.304   8.729  0.1079  0.3785  0.1824
  775MOL0     C 4494   4.854   1.219   8.744  0.3629  0.0507 -0.0323
  775MOL0     C 4495   4.715   1.257   8.751 -0.0542  0.2964  0.6015
  775MOL0     C 4496   4.617   1.160   8.747  0.8593  0.1013  0.9574
  775MOL0     C 4497   4.652   1.027   8.746 -0.3478  0.6740 -0.3636
  775MOL0     O 4498   4.557   0.932   8.745  0.3009 -0.0753  0.2857
  775MOL0     C 4499   4.512   0.905   8.611  0.8141 -0.0763 -0.0938
  775MOL0     C 4500   4.523   0.758   8.586 -0.0297  0.1696 -0.2318
  775MOL0     C 4501   4.434   0.722   8.458 -0.9268  0.0674 -0.6547
  775MOL0     C 4502   4.296   0.663   8.475 -0.4309  0.9729  0.4074
  775MOL0     C 4503   4.227   0.666   8.335 -1.1693  0.1675 -0.2248
  775MOL0     C 4504   4.097   0.590   8.332 -0.5866  0.4581 -0.1558
  775MOL0     C 4505   4.040   0.589   8.188 -0.5498  0.3596  0.0277
  775MOL0     C 4506   3.899   0.531   8.180  0.0819  0.5651  0.8701
  775MOL0     N 4507   3.855   0.513   8.034  0.4406 -0.1606  0.7850
  775MOL0     C 4508   3.793   0.405   7.976 -0.6903  0.3825  0.5129
  775MOL0     C 4509   3.780   0.431   7.840  0.6508  0.7980 -0.8229
  775MOL0     C 4510   3.709   0.340   7.744 -0.7461  0.0719 -0.9655
  775MOL0     C 4511   3.753   0.190   7.750 -0.0809  0.2038 -0.2853
  775MOL0     C 4512   3.654   0.111   7.676 -0.2656  0.8061 -0.4541
  775MOL0     C 4513   3.601  -0.021   7.738 -0.4795 -0.5094 -0.0510
  775MOL0     O 4514   3.716  -0.095   7.785  0.6193  0.7115 -0.5771
  775MOL0     C 4515   3.748  -0.221   7.756  0.1763 -0.2185 -0.1206
  775MOL0     C 4516   3.674  -0.317   7.684  0.3322 -1.0931  0.5058
  775MOL0     C 4517   3.717  -0.444   7.666  0.3494  0.1643  1.6365
  775MOL0     C 4518   3.843  -0.480   7.698  0.0585 -0.4385  0.1164
  775MOL0     C 4519   3.894  -0.618   7.695 -0.1926 -0.3480  0.9980
  775MOL0     O 4520   3.802  -0.714   7.674 -0.2601 -0.2295 -0.6097
  775MOL0     C 4521   3.827  -0.851   7.650 -1.0958  0.1563 -0.3720
  775MOL0     C 4522   3.743  -0.903   7.555  0.0529  0.9199  0.4130
  775MOL0     C 4523   3.754  -1.035   7.514 -1.0512 -1.2821  0.5321
  775MOL0     C 4524   3.852  -1.108   7.565 -0.7455  0.5456  1.9408
  775MOL0     O 4525   3.876  -1.236   7.527  0.8177  0.2266  0.3461
  775MOL0     C 4526   3.763  -1.323   7.568 -0.2232 -0.9945  0.4103
  775MOL0     C 4527   3.691  -1.380   7.445  0.0173  0.3360  0.6827
  775MOL0     C 4528   3.793  -1.441   7.353 -0.1200 -0.7318  0.2643
  775MOL0     C 4529   3.726  -1.518   7.244  0.3063  0.0880  0.2227
  775MOL0     C 4530   3.827  -1.605   7.166 -1.0115  0.3804  1.1878
  775MOL0     C 4531   3.820  -1.753   7.201 -0.1662  0.0586  0.1515
  775MOL0     C 4532   3.934  -1.845   7.160  0.6341 -0.4911  0.2998
  775MOL0     C 4533   3.923  -1.981   7.222  0.4924 -0.7068 -0.0575
  775MOL0    Cl 4534   4.053  -2.089   7.167  0.0967 -0.0883  0.0398
  775MOL0     C 4535   3.947  -1.053   7.640 -0.4105  0.3170 -0.5383
  775MOL0     C 4536   3.926  -0.929   7.697 -0.2170 -0.2403 -0.2610
  775MOL0     O 4537   4.015  -0.638   7.696 -0.4093  0.1351  0.7920
  775MOL0     C 4538   3.928  -0.381   7.758  0.5031 -0.4381 -0.3646
  775MOL0     C 4539   3.876  -0.258   7.792  0.1856  0.0167 -0.2178
  775MOL0     N 4540   3.825   0.557   7.821 -0.0721 -0.2634 -0.2765
  775MOL0     N 4541   3.860   0.610   7.936  0.0074 -0.4515 -0.1569
  775MOL0     C 4542   4.784   0.979   8.750 -0.4758  0.1297 -0.4943
  775MOL0     C 4543   4.882   1.083   8.762  0.3446 -0.6804 -0.0109
  775MOL0     C 4544   5.098   1.473   8.624  0.0397 -0.1904  0.0444
  775MOL0     C 4545   5.201   1.457   8.720 -0.0749 -0.2575 -0.4312
  775MOL0     C 4546   5.312   1.545   8.732  0.1423  0.6963  0.5028
  775MOL0     C 4547   5.335   1.643   8.634  0.1336  0.4543  0.0490
  775MOL0     O 4548   5.456   1.718   8.652  0.1062  0.0188  0.3240
  775MOL0     C 4549   5.503   1.779   8.538 -0.2975 -0.2973  0.7380
  775MOL0     C 4550   5.634   1.849   8.589  0.2422  0.3009 -0.3016
  775MOL0     C 4551   5.694   1.917   8.474 -0.5951  0.2775 -0.2668
  775MOL0     C 4552   5.704   1.836   8.342 -0.4069 -0.5562 -0.5079
  775MOL0     C 4553   5.795   1.899   8.244  0.0436 -0.5529 -0.1991
  775MOL0     C 4554   5.869   1.958   8.162 -0.0614 -0.6927  0.0102
  775MOL0     C 4555   5.226   1.671   8.549  0.8557  0.4817 -0.9107
  775MOL0     C 4556   5.112   1.589   8.542  0.3726 -0.4243 -0.5910
  775MOL0     C 4557   4.992   1.636   8.449  0.2260 -0.6090 -0.4580
  775MOL0     H 4558   4.682   1.360   8.747 -0.7352  0.1607  2.0092
  775MOL0     H 4559   4.512   1.187   8.738  1.7721  3.6076 -0.6571
  775MOL0     H 4560   4.403   0.918   8.615  0.6886 -1.3558  2.2143
  775MOL0     H 4561   4.562   0.965   8.534  3.9869 -0.4207  1.5495
  775MOL0     H 4562   4.491   0.695   8.670 -0.6331  0.2520 -0.3958
  775MOL0     H 4563   4.627   0.731   8.562  0.4207  1.9432 -0.3763
  775MOL0     H 4564   4.493   0.648   8.404 -2.5030 -1.7627  0.0104
  775MOL0     H 4565   4.426   0.809   8.393 -0.3169  2.2078  1.9779
  775MOL0     H 4566   4.290   0.566   8.526 -0.0620  0.3178 -0.7737
  775MOL0     H 4567   4.245   0.740   8.533  0.7270  1.5459  0.7050
  775MOL0     H 4568   4.210   0.768   8.297 -2.6813  0.7247  1.8008
  775MOL0     H 4569   4.293   0.619   8.262 -0.4878  1.7599 -0.6814
  775MOL0     H 4570   4.113   0.486   8.364  0.8101  1.5346  3.0703
  775MOL0     H 4571   4.038   0.639   8.410  0.9554  2.3603 -0.1176
  775MOL0     H 4572   4.108   0.526   8.130 -0.6590 -0.9463  1.2448
  775MOL0     H 4573   4.065   0.687   8.147 -1.0437 -0.4504 -2.3150
  775MOL0     H 4574   3.885   0.435   8.230 -0.0426 -0.3057 -0.7464
  775MOL0     H 4575   3.824   0.594   8.228 -0.8291 -0.1765  0.4574
  775MOL0     H 4576   3.752   0.316   8.022  1.6113 -0.5558  0.8650
  775MOL0     H 4577   3.608   0.351   7.786  0.7787 -0.3679  3.3896
  775MOL0     H 4578   3.719   0.363   7.638 -0.9393 -2.8835 -1.6975
  775MOL0     H 4579   3.849   0.174   7.700 -0.3663 -1.6786 -0.3158
  775MOL0     H 4580   3.768   0.154   7.852 -1.5495  1.1087  0.2703
  775MOL0     H 4581   3.692   0.094   7.576  1.4563 -0.6238  0.3931
  775MOL0     H 4582   3.562   0.170   7.668 -3.0832 -2.9405  0.9750
  775MOL0     H 4583   3.529  -0.087   7.688  0.1169 -3.0616  2.2209
  775MOL0     H 4584   3.551   0.015   7.829  0.5300 -0.2340  0.4029
  775MOL0     H 4585   3.576  -0.289   7.648  0.9274  1.1678  0.5165
  775MOL0     H 4586   3.655  -0.516   7.614 -2.4608  2.4198  1.6198
  775MOL0     H 4587   3.674  -0.842   7.497  1.6606  1.4413 -1.0693
  775MOL0     H 4588   3.686  -1.072   7.439 -2.6394  2.0589  0.1481
  775MOL0     H 4589   3.796  -1.410   7.627  0.5981  0.8344  2.7988
  775MOL0     H 4590   3.687  -1.264   7.620  0.3733  0.3491 -0.1956
  775MOL0     H 4591   3.642  -1.466   7.491  1.5703 -0.0903  1.6211
  775MOL0     H 4592   3.623  -1.310   7.395  0.1485  0.1790  0.2800
  775MOL0     H 4593   3.854  -1.365   7.304  0.2992 -1.1183  0.1810
  775MOL0     H 4594   3.866  -1.502   7.406  1.4795  0.5382 -0.3797
  775MOL0     H 4595   3.687  -1.450   7.167 -0.0458  0.6374  0.8819
  775MOL0     H 4596   3.644  -1.577   7.285 -1.9587  3.3229  0.7769
  775MOL0     H 4597   3.924  -1.559   7.185 -2.1844  2.7416  1.8443
  775MOL0     H 4598   3.814  -1.595   7.058  2.9723 -0.4160  0.4765
  775MOL0     H 4599   3.809  -1.763   7.309 -3.0819  0.7706  0.0060
  775MOL0     H 4600   3.727  -1.787   7.153 -0.4266  1.5935 -0.5084
  775MOL0     H 4601   4.028  -1.798   7.191  0.5825  0.0992 -0.4133
  775MOL0     H 4602   3.933  -1.862   7.052  3.0867 -3.2896  0.5979
  775MOL0     H 4603   3.924  -1.980   7.331  0.0879  2.3396 -0.0071
  775MOL0     H 4604   3.827  -2.026   7.193 -0.7785  2.2163 -0.7275
  775MOL0     H 4605   4.029  -1.117   7.671 -1.2845 -1.3226 -1.4960
  775MOL0     H 4606   3.996  -0.892   7.770 -0.9536 -0.7970  0.7574
  775MOL0     H 4607   4.027  -0.406   7.795  1.0147  3.1233  1.0871
  775MOL0     H 4608   3.945  -0.185   7.833  1.5079 -1.1945 -0.2173
  775MOL0     H 4609   4.809   0.874   8.739 -1.5922 -0.1860 -0.0979
  775MOL0     H 4610   4.983   1.043   8.753  1.3513  1.9149 -1.3060
  775MOL0     H 4611   5.178   1.385   8.798 -0.5805 -0.0411 -0.3801
  775MOL0     H 4612   5.380   1.526   8.814 -1.3881 -1.1909  1.4151
  775MOL0     H 4613   5.432   1.854   8.502  0.3905  1.4927  2.8899
  775MOL0     H 4614   5.515   1.705   8.459  1.3749  1.2008 -0.4752
  775MOL0     H 4615   5.699   1.770   8.630 -1.1027 -0.6298  0.1337
  775MOL0     H 4616   5.606   1.913   8.673 -2.9917 -2.3525  0.8643
  775MOL0     H 4617   5.795   1.945   8.506 -1.2204  0.6829  1.4927
  775MOL0     H 4618   5.647   2.013   8.450 -2.9072  0.0877  2.9044
  775MOL0     H 4619   5.741   1.734   8.358 -2.1603 -0.9689  1.2673
  775MOL0     H 4620   5.609   1.826   8.290  0.5018  2.5712 -3.1242
  775MOL0     H 4621   5.927   2.020   8.096 -0.7028  0.6494  0.6610
  775MOL0     H 4622   5.215   1.759   8.485  0.1336  2.4926  1.8188
  775MOL0     H 4623   4.902   1.662   8.506  0.7467 -0.2310  0.2144
  775MOL0     H 4624   5.015   1.730   8.397  0.9817  1.9818  3.9840
  775MOL0     H 4625   4.959   1.558   8.381  1.6487 -0.9826 -0.7463
  776MOL0     O 4626   5.691   4.963   8.936 -0.4737 -0.5690  0.0646
  776MOL0     C 4627   5.769   4.941   9.028 -0.2472 -0.3366 -0.0687
  776MOL0     O 4628   5.796   5.024   9.132 -0.2586 -0.1484 -0.3962
  776MOL0     C 4629   5.738   5.140   9.131  0.3446 -0.5686 -0.6840
  776MOL0     C 4630   5.780   5.243   9.043  0.6559  0.5085 -0.0440
  776MOL0     C 4631   5.724   5.370   9.038 -0.5230 -0.1007 -0.2345
  776MOL0     C 4632   5.621   5.414   9.125  0.0437 -0.1080  0.5825
  776MOL0     O 4633   5.575   5.543   9.125  0.3386 -0.1723  0.1234
  776MOL0     C 4634   5.520   5.600   9.246  0.4612 -0.1074  0.6963
  776MOL0     C 4635   5.500   5.754   9.226  0.1377 -0.1824  0.3316
  776MOL0     C 4636   5.422   5.814   9.327  1.2194  0.1128 -1.3067
  776MOL0     C 4637   5.469   5.775   9.473  0.7610  0.2903 -0.6585
  776MOL0     C 4638   5.400   5.872   9.573 -0.1824  0.1609  0.7145
  776MOL0     C 4639   5.255   5.865   9.584 -0.3336 -0.0320 -0.5096
  776MOL0     C 4640   5.198   5.734   9.646 -0.3090 -0.9995  0.4304
  776MOL0     C 4641   5.058   5.750   9.686 -0.5473  0.3284 -0.8199
  776MOL0     N 4642   4.963   5.813   9.587 -0.9893  0.2059 -0.5903
  776MOL0     C 4643   4.961   5.778   9.452  1.0040 -0.9297 -0.4191
  776MOL0     C 4644   4.859   5.857   9.396 -0.7779  0.0451 -0.2701
  776MOL0     C 4645   4.813   5.872   9.257  0.5130 -0.2159  0.1834
  776MOL0     C 4646   4.923   5.934   9.170 -0.8540 -0.5942 -0.0419
  776MOL0     C 4647   4.969   6.087   9.188 -0.2840 -0.6681 -0.4616
  776MOL0     C 4648   5.091   6.075   9.288 -1.0545 -0.4257 -0.1326
  776MOL0     O 4649   5.151   6.202   9.299 -0.0622  0.4018 -0.4695
  776MOL0     C 4650   5.108   6.295   9.396  0.2032  0.1360 -0.1713
  776MOL0     C 4651   4.996   6.273   9.477 -0.0567 -0.2792 -0.9663
  776MOL0     C 4652   4.963   6.375   9.570 -0.1025  0.1903  0.5625
  776MOL0     C 4653   5.041   6.494   9.578  0.5697 -0.6123 -1.0972
  776MOL0     C 4654   4.993   6.601   9.684 -0.8801  0.3000  0.5867
  776MOL0     O 4655   5.073   6.717   9.708 -0.6384  0.7172  0.5064
  776MOL0     C 4656   5.030   6.819   9.789  1.1030 -0.5454  0.7333
  776MOL0     C 4657   4.920   6.900   9.754 -0.6000 -0.2443  0.3894
  776MOL0     C 4658   4.891   7.017   9.819  0.5554  0.8317 -0.2506
  776MOL0     C 4659   4.972   7.062   9.920  0.7001  0.0465 -0.3977
  776MOL0     O 4660   4.948   7.179   9.986 -0.3508 -0.3194  0.2435
  776MOL0     C 4661   5.019   7.302   9.935 -0.6777 -0.0419 -0.0012
  776MOL0     C 4662   5.163   7.300   9.974  0.1303  0.2056  0.2434
  776MOL0     C 4663   5.177   7.294  10.135  0.2486 -0.4240  0.4554
  776MOL0     C 4664   5.314   7.324  10.199  0.2257  0.6414 -0.0934
  776MOL0     C 4665   5.347   7.467  10.212 -0.7925  0.9340 -0.5397
  776MOL0     C 4666   5.484   7.479  10.268 -0.3791 -0.7039 -0.4341
  776MOL0     C 4667   5.527   7.626  10.257 -0.0657  0.5577  0.3869
  776MOL0     C 4668   5.472   7.710  10.363 -0.1408 -0.2425  0.1870
  776MOL0    Cl 4669   5.532   7.873  10.325  0.0016  0.5181 -0.0475
  776MOL0     C 4670   5.068   6.972   9.974  0.2913 -0.9184  0.7576
  776MOL0     C 4671   5.096   6.854   9.906  0.1057  0.3380  0.9768
  776MOL0     O 4672   4.875   6.590   9.721 -1.0506 -0.3074 -0.4175
  776MOL0     C 4673   5.152   6.518   9.498  0.9021  0.2451  0.5280
  776MOL0     C 4674   5.176   6.417   9.402  0.4307  0.4416 -0.3436
  776MOL0     N 4675   4.830   5.950   9.489 -0.3348  0.1485 -0.0675
  776MOL0     N 4676   4.882   5.924   9.608 -0.1572  0.1580  0.1654
  776MOL0     C 4677   5.582   5.313   9.224  0.1345 -0.2246  0.5977
  776MOL0     C 4678   5.640   5.180   9.218 -0.0624 -0.2092 -0.2995
  776MOL0     C 4679   5.847   4.807   9.019  0.6283  0.5400  0.3890
  776MOL0     C 4680   5.979   4.805   9.082  0.9339  0.9035  0.6160
  776MOL0     C 4681   6.042   4.683   9.107 -0.2112  0.3618 -0.2180
  776MOL0     C 4682   6.009   4.571   9.034 -0.7852  0.1284 -0.0689
  776MOL0     O 4683   6.079   4.452   9.024  0.3056 -0.0181 -0.5133
  776MOL0     C 4684   6.213   4.458   9.092 -0.0914  1.0695 -0.0269
  776MOL0     C 4685   6.284   4.326   9.082  0.1422 -0.8369 -0.6726
  776MOL0     C 4686   6.390   4.307   9.197  0.3882 -0.4938 -0.1337
  776MOL0     C 4687   6.495   4.196   9.172  0.1624  0.3441  0.1932
  776MOL0     C 4688   6.565   4.200   9.043  0.8202  0.5536  0.0369
  776MOL0     C 4689   6.623   4.204   8.941  0.1017  0.0909 -0.2774
  776MOL0     C 4690   5.889   4.566   8.954 -0.3251 -0.7387 -0.4415
  776MOL0     C 4691   5.803   4.683   8.961  1.3578  0.1863 -0.0227
  776MOL0     C 4692   5.670   4.678   8.897  0.2368 -0.8648  0.5424
  776MOL0     H 4693   5.864   5.226   8.975  0.3528  0.5720 -0.4340
  776MOL0     H 4694   5.764   5.443   8.968 -3.9794  1.2842 -0.9762
  776MOL0     H 4695   5.421   5.556   9.258 -0.7531  0.7813 -3.9177
  776MOL0     H 4696   5.583   5.578   9.333  0.5411 -0.9702  0.4323
  776MOL0     H 4697   5.447   5.767   9.131  1.4495  1.3523 -0.2266
  776MOL0     H 4698   5.591   5.812   9.212 -1.8592  2.9413 -0.8886
  776MOL0     H 4699   5.320   5.774   9.320  0.9541  0.9384 -2.4158
  776MOL0     H 4700   5.417   5.922   9.315 -1.6290  0.4872  1.8089
  776MOL0     H 4701   5.459   5.670   9.504  2.1100  0.4077  0.2572
  776MOL0     H 4702   5.578   5.778   9.476  1.0041 -3.8197  0.4039
  776MOL0     H 4703   5.440   5.854   9.673 -1.4363 -5.0475  0.5552
  776MOL0     H 4704   5.416   5.969   9.524 -1.1314 -2.1090 -4.8586
  776MOL0     H 4705   5.224   5.947   9.650 -1.5399 -0.8132 -0.0596
  776MOL0     H 4706   5.206   5.874   9.486  0.8676 -2.0390 -1.3367
  776MOL0     H 4707   5.259   5.715   9.735 -0.8967 -1.3173  0.7702
  776MOL0     H 4708   5.215   5.661   9.567 -1.2191  1.2822 -2.0284
  776MOL0     H 4709   5.024   5.648   9.709  2.7773 -0.6711  0.3218
  776MOL0     H 4710   5.053   5.811   9.776  2.4836 -0.1644 -0.2180
  776MOL0     H 4711   5.023   5.703   9.403  2.7264  0.3151 -0.2548
  776MOL0     H 4712   4.784   5.776   9.215 -1.7318  0.0505  0.9814
  776MOL0     H 4713   4.727   5.939   9.250  0.1201 -0.7502 -0.0907
  776MOL0     H 4714   5.010   5.870   9.184  0.5667  0.4774 -3.0405
  776MOL0     H 4715   4.899   5.918   9.064  2.6922  0.2670 -1.1058
  776MOL0     H 4716   4.890   6.147   9.232  0.7442  0.1517  0.3275
  776MOL0     H 4717   4.996   6.123   9.088 -1.7995  1.4190 -0.1915
  776MOL0     H 4718   5.157   5.996   9.252 -0.4341 -0.2113  0.5070
  776MOL0     H 4719   5.064   6.030   9.385  2.1799  1.2503  1.7019
  776MOL0     H 4720   4.943   6.178   9.469  0.9626 -0.9748  0.1341
  776MOL0     H 4721   4.887   6.369   9.647  0.2053  1.7613  1.0290
  776MOL0     H 4722   4.859   6.862   9.672  3.2757 -1.8921 -2.0581
  776MOL0     H 4723   4.818   7.089   9.782  0.5476  0.4681 -0.9487
  776MOL0     H 4724   5.018   7.304   9.825  3.5792  3.5174 -0.2490
  776MOL0     H 4725   4.977   7.396   9.971  2.5642  1.7311 -0.4773
  776MOL0     H 4726   5.207   7.216   9.921  1.7479  0.2612  1.4151
  776MOL0     H 4727   5.203   7.396   9.939 -0.2065 -0.5041 -2.3090
  776MOL0     H 4728   5.107   7.362  10.184  0.0369 -0.8544  0.7638
  776MOL0     H 4729   5.153   7.193  10.168  0.9200 -0.2604  1.5246
  776MOL0     H 4730   5.389   7.282  10.132  0.2133  1.0576 -0.3713
  776MOL0     H 4731   5.329   7.279  10.298  1.1380  3.7772  1.3447
  776MOL0     H 4732   5.270   7.516  10.272 -1.7274 -2.4479  1.3285
  776MOL0     H 4733   5.344   7.511  10.112  1.2441  0.7428 -0.7158
  776MOL0     H 4734   5.486   7.449  10.373  0.0406  2.3761  0.5418
  776MOL0     H 4735   5.555   7.411  10.220  0.4619 -1.3073  1.5573
  776MOL0     H 4736   5.486   7.657  10.161 -3.5349 -0.8801  1.2382
  776MOL0     H 4737   5.636   7.627  10.248 -0.1907  2.1202 -1.8976
  776MOL0     H 4738   5.363   7.708  10.374 -0.2194 -1.8735 -0.5478
  776MOL0     H 4739   5.511   7.669  10.456 -0.6102  0.2152  0.5915
  776MOL0     H 4740   5.122   7.000  10.064  1.1714  5.0265 -1.1480
  776MOL0     H 4741   5.168   6.786   9.951  3.3440  2.4052 -0.7010
  776MOL0     H 4742   5.223   6.598   9.481  2.1186 -0.7266  0.9488
  776MOL0     H 4743   5.261   6.445   9.340 -0.9575  1.4794 -1.8606
  776MOL0     H 4744   5.516   5.333   9.307  0.5003 -0.8203  1.0382
  776MOL0     H 4745   5.604   5.097   9.279 -2.0696  1.4649  0.9243
  776MOL0     H 4746   6.031   4.897   9.107  1.3340  0.6362  0.7794
  776MOL0     H 4747   6.127   4.669   9.173 -1.4843  0.7309  1.5739
  776MOL0     H 4748   6.185   4.468   9.197  0.3513 -2.1842  0.5258
  776MOL0     H 4749   6.283   4.535   9.058  4.1130 -1.5489  1.8375
  776MOL0     H 4750   6.332   4.338   8.984  3.2428 -0.5043  0.7880
  776MOL0     H 4751   6.208   4.247   9.084 -1.4905  0.4650 -3.5780
  776MOL0     H 4752   6.331   4.285   9.286  1.6970 -0.3588  0.8058
  776MOL0     H 4753   6.447   4.399   9.215 -0.4124  0.2668 -1.3758
  776MOL0     H 4754   6.574   4.214   9.246 -0.6309  1.6497  0.7592
  776MOL0     H 4755   6.448   4.098   9.176 -0.1965  0.3955 -1.7786
  776MOL0     H 4756   6.679   4.203   8.849  0.5616  1.1080 -0.0193
  776MOL0     H 4757   5.840   4.477   8.915 -3.5080 -0.1422  1.8845
  776MOL0     H 4758   5.678   4.737   8.805  0.5028 -0.9078  0.5364
  776MOL0     H 4759   5.633   4.576   8.882 -0.3220 -0.9901  2.5781
  776MOL0     H 4760   5.599   4.729   8.962 -1.1009 -0.0237 -1.4790
  777MOL0     O 4761   2.400   6.442   2.169  0.3537  0.0205  0.0144
  777MOL0     C 4762   2.359   6.368   2.253 -0.4452  1.4388 -0.1001
  777MOL0     O 4763   2.395   6.229   2.253 -0.5983 -0.0140 -0.1347
  777MOL0     C 4764   2.473   6.177   2.159 -1.2160 -0.0384 -0.6940
  777MOL0     C 4765   2.585   6.098   2.197 -0.1149  0.1272 -0.2245
  777MOL0     C 4766   2.670   6.051   2.099 -0.7635 -0.4782  0.1781
  777MOL0     C 4767   2.647   6.076   1.961  0.0250  0.5560  0.5481
  777MOL0     O 4768   2.739   6.025   1.874  0.9577  0.0154  0.2920
  777MOL0     C 4769   2.781   6.080   1.748  0.5396 -0.1566  0.1863
  777MOL0     C 4770   2.897   5.998   1.698 -0.5108 -0.8770  0.0165
  777MOL0     C 4771   3.030   6.036   1.755  0.1361 -0.5625  0.2365
  777MOL0     C 4772   3.071   5.978   1.883  0.4145 -0.4688 -0.3352
  777MOL0     C 4773   3.166   6.076   1.946 -1.1335 -0.9849  0.8050
  777MOL0     C 4774   3.250   6.036   2.075  0.2625 -1.1829  0.5523
  777MOL0     C 4775   3.350   6.130   2.128  0.5248  0.2267  0.3718
  777MOL0     C 4776   3.497   6.095   2.078  0.3116  0.4546 -0.4239
  777MOL0     N 4777   3.593   6.185   2.131 -0.0314 -0.2802  0.3560
  777MOL0     C 4778   3.572   6.301   2.199  0.1662 -0.4003 -0.4131
  777MOL0     C 4779   3.690   6.356   2.224  0.4356 -0.0816 -0.4471
  777MOL0     C 4780   3.718   6.484   2.304 -0.1175 -0.7239 -1.5624
  777MOL0     C 4781   3.835   6.580   2.271  0.0046 -0.2485 -0.8157
  777MOL0     C 4782   3.947   6.579   2.372  0.0946  0.0896  0.6910
  777MOL0     C 4783   3.926   6.645   2.510  0.7859  0.2562 -0.0420
  777MOL0     O 4784   3.862   6.539   2.585 -0.2840  0.0911  1.0450
  777MOL0     C 4785   3.782   6.584   2.682  0.2042  0.1074  0.2938
  777MOL0     C 4786   3.795   6.708   2.744  0.0547  0.2089  0.2673
  777MOL0     C 4787   3.701   6.744   2.838 -0.0764  1.0301 -0.5918
  777MOL0     C 4788   3.598   6.655   2.879  0.0281  0.3295 -0.2676
  777MOL0     C 4789   3.493   6.695   2.973 -0.0018  0.7295  0.8071
  777MOL0     O 4790   3.376   6.618   2.975  0.6978 -0.7318 -0.1494
  777MOL0     C 4791   3.294   6.616   3.079 -0.5508 -0.8288 -0.5051
  777MOL0     C 4792   3.172   6.568   3.049 -0.3384  0.3491  0.1491
  777MOL0     C 4793   3.071   6.558   3.145 -0.2930  0.6763 -0.7637
  777MOL0     C 4794   3.088   6.594   3.283 -0.8707  0.1405 -0.1967
  777MOL0     O 4795   2.993   6.583   3.385  0.1068 -0.9307 -0.6029
  777MOL0     C 4796   2.863   6.532   3.357  0.0196  0.1241  0.5019
  777MOL0     C 4797   2.881   6.379   3.378  0.5240 -0.1212  0.3884
  777MOL0     C 4798   2.890   6.366   3.532 -0.4421  0.7878  0.3407
  777MOL0     C 4799   2.842   6.231   3.571  0.2446  0.5546  0.0278
  777MOL0     C 4800   2.839   6.199   3.721 -0.7429  0.9605 -1.3099
  777MOL0     C 4801   2.729   6.088   3.745  0.1020  0.2251 -0.0677
  777MOL0     C 4802   2.736   6.021   3.880 -0.5397  0.0766 -0.5222
  777MOL0     C 4803   2.623   5.926   3.918 -0.3188 -0.1475  0.1253
  777MOL0    Cl 4804   2.477   5.993   4.004 -0.4688 -0.2079  0.0673
  777MOL0     C 4805   3.216   6.656   3.307 -0.3600  0.7322  0.8416
  777MOL0     C 4806   3.316   6.659   3.206  0.5137  0.2027 -0.6855
  777MOL0     O 4807   3.518   6.793   3.036  0.4640 -0.5938 -0.4947
  777MOL0     C 4808   3.598   6.531   2.818 -0.2135 -0.1698 -0.4200
  777MOL0     C 4809   3.688   6.497   2.715  1.0098  0.1837 -1.1617
  777MOL0     N 4810   3.785   6.253   2.196 -0.0650  0.3027  0.7544
  777MOL0     N 4811   3.725   6.155   2.153 -0.0121  0.9233 -0.0452
  777MOL0     C 4812   2.533   6.148   1.923 -0.3237 -0.1604 -0.2007
  777MOL0     C 4813   2.439   6.195   2.021 -1.1208  0.0319 -0.1772
  777MOL0     C 4814   2.262   6.419   2.353  0.3378 -0.6462  0.0908
  777MOL0     C 4815   2.234   6.556   2.340  0.4124 -0.8459  0.3512
  777MOL0     C 4816   2.141   6.609   2.423  0.5259 -0.2629 -0.1953
  777MOL0     C 4817   2.067   6.535   2.518  0.2663 -0.6134 -0.3152
  777MOL0     O 4818   1.974   6.605   2.596 -0.0302  0.0239 -0.2774
  777MOL0     C 4819   1.907   6.542   2.702  0.4976  0.5112 -0.5254
  777MOL0     C 4820   1.801   6.648   2.755 -0.1513 -0.1325 -0.4697
  777MOL0     C 4821   1.861   6.752   2.846 -0.5512  0.5087 -0.2249
  777MOL0     C 4822   1.754   6.849   2.903 -1.1889 -1.2782  0.1235
  777MOL0     C 4823   1.660   6.795   3.004  0.6639 -0.2493 -0.1422
  777MOL0     C 4824   1.584   6.731   3.077 -0.0347 -0.1489  0.0788
  777MOL0     C 4825   2.099   6.396   2.533 -0.3117 -0.1683  0.1052
  777MOL0     C 4826   2.198   6.340   2.448  0.9412 -0.0079  0.3226
  777MOL0     C 4827   2.228   6.191   2.480  0.2486 -0.3795  0.1691
  777MOL0     H 4828   2.598   6.078   2.303 -2.1067 -2.8815 -0.4330
  777MOL0     H 4829   2.764   6.002   2.120 -1.9831 -1.9424  2.7691
  777MOL0     H 4830   2.702   6.079   1.672 -0.9209  0.4175  1.6384
  777MOL0     H 4831   2.813   6.183   1.768 -0.7103  0.2180  0.3716
  777MOL0     H 4832   2.902   6.003   1.589 -2.2974 -0.0032 -0.0515
  777MOL0     H 4833   2.885   5.893   1.728  2.5675 -1.1627  0.5746
  777MOL0     H 4834   3.033   6.144   1.776  0.9547 -0.6500  0.6176
  777MOL0     H 4835   3.105   6.009   1.680 -1.7698 -1.1395 -1.5271
  777MOL0     H 4836   2.991   5.959   1.955  1.9604  0.5747  1.7984
  777MOL0     H 4837   3.122   5.882   1.869  2.2600  0.4882 -0.5908
  777MOL0     H 4838   3.233   6.115   1.869 -1.3744  0.7722  1.4276
  777MOL0     H 4839   3.107   6.164   1.975 -2.5792 -1.5631 -0.2697
  777MOL0     H 4840   3.180   6.013   2.157  0.6512 -0.7890  1.0025
  777MOL0     H 4841   3.305   5.943   2.060  3.9649  0.7563  1.0436
  777MOL0     H 4842   3.344   6.132   2.237  1.3882 -0.1809  0.4351
  777MOL0     H 4843   3.326   6.233   2.100 -0.0085  0.0259  0.0840
  777MOL0     H 4844   3.526   5.995   2.113 -0.0296  0.5105  0.0305
  777MOL0     H 4845   3.515   6.098   1.970 -1.9620 -0.0111 -0.8865
  777MOL0     H 4846   3.478   6.354   2.213  0.8658  0.5275  0.9776
  777MOL0     H 4847   3.628   6.547   2.309  0.6303  0.4345 -2.1939
  777MOL0     H 4848   3.736   6.451   2.406  2.2787 -1.4550 -2.1668
  777MOL0     H 4849   3.872   6.552   2.172  0.5166  0.6024 -0.8674
  777MOL0     H 4850   3.798   6.682   2.264 -2.2150 -0.8148  1.2017
  777MOL0     H 4851   4.027   6.636   2.324  0.5304 -2.1718 -1.4597
  777MOL0     H 4852   3.981   6.476   2.387 -0.6253 -0.4793 -1.3223
  777MOL0     H 4853   3.845   6.717   2.493  0.0411 -1.1150 -2.9303
  777MOL0     H 4854   4.011   6.690   2.562  2.8445 -1.8436 -1.3899
  777MOL0     H 4855   3.871   6.780   2.713 -3.9926  4.8233 -0.0514
  777MOL0     H 4856   3.713   6.844   2.877 -2.8903  0.3500  2.4716
  777MOL0     H 4857   3.160   6.539   2.946  3.3771 -2.9182  0.4048
  777MOL0     H 4858   2.978   6.508   3.119  0.0638  0.5089 -1.7511
  777MOL0     H 4859   2.787   6.561   3.430 -0.6435  0.5061 -0.3244
  777MOL0     H 4860   2.825   6.562   3.259  0.2924  0.9154  0.6282
  777MOL0     H 4861   2.787   6.336   3.341  0.2991  0.1849  0.5943
  777MOL0     H 4862   2.968   6.328   3.336  1.6693  2.9122 -1.1470
  777MOL0     H 4863   2.996   6.376   3.561 -0.6633  3.2535  0.5225
  777MOL0     H 4864   2.833   6.439   3.589 -1.3821  1.1571 -1.0243
  777MOL0     H 4865   2.907   6.160   3.519  0.8776  2.0852 -1.3368
  777MOL0     H 4866   2.746   6.229   3.518  0.4148  2.9259 -0.4740
  777MOL0     H 4867   2.803   6.292   3.768  0.8725  0.2266  1.6162
  777MOL0     H 4868   2.936   6.165   3.759 -1.5449  0.7920  0.7380
  777MOL0     H 4869   2.628   6.131   3.739  0.6468  1.5864  0.2411
  777MOL0     H 4870   2.744   6.025   3.657 -1.4381  1.6039 -1.4013
  777MOL0     H 4871   2.751   6.091   3.962  0.0521  0.0769 -0.6228
  777MOL0     H 4872   2.824   5.956   3.879  0.5903  1.5319 -2.2223
  777MOL0     H 4873   2.585   5.883   3.825  0.8280 -1.6150  0.3029
  777MOL0     H 4874   2.662   5.843   3.979 -1.3667 -1.7187 -1.2615
  777MOL0     H 4875   3.246   6.687   3.406  1.8514  0.3263  0.3458
  777MOL0     H 4876   3.418   6.694   3.225  0.2061 -0.4083  2.6466
  777MOL0     H 4877   3.519   6.460   2.843 -1.1416  1.1735  0.6093
  777MOL0     H 4878   3.681   6.398   2.670 -1.2134 -0.4409  0.3830
  777MOL0     H 4879   2.531   6.187   1.822  0.5552 -1.5705 -0.7991
  777MOL0     H 4880   2.350   6.252   1.997 -0.2122  1.7321  0.3682
  777MOL0     H 4881   2.279   6.614   2.261 -0.0127  0.3604  0.9695
  777MOL0     H 4882   2.103   6.710   2.408 -1.0585 -0.5762  1.3265
  777MOL0     H 4883   1.985   6.518   2.774  2.4786  1.3153 -2.2925
  777MOL0     H 4884   1.873   6.443   2.668  2.0206  0.1168 -0.9684
  777MOL0     H 4885   1.724   6.596   2.813 -1.8267 -0.7655 -3.0309
  777MOL0     H 4886   1.752   6.711   2.679 -0.2417  1.7901  1.0993
  777MOL0     H 4887   1.935   6.807   2.788  0.0825  1.1208  1.1172
  777MOL0     H 4888   1.913   6.703   2.929 -0.2523  2.7574  0.9737
  777MOL0     H 4889   1.811   6.929   2.952 -1.7524  0.5575 -2.0206
  777MOL0     H 4890   1.698   6.909   2.830 -0.6396 -1.5416 -0.5251
  777MOL0     H 4891   1.514   6.685   3.143 -0.0251  1.2796  1.1470
  777MOL0     H 4892   2.056   6.348   2.620  1.8104 -0.9455  0.7744
  777MOL0     H 4893   2.213   6.130   2.390  0.4723 -0.1414 -0.0322
  777MOL0     H 4894   2.330   6.173   2.515  1.5370 -0.4298 -3.1954
  777MOL0     H 4895   2.159   6.160   2.559  0.9702  1.3262  1.5212
  778MOL0     O 4896   4.300   4.890   4.308 -0.0384  0.2070  0.7347
  778MOL0     C 4897   4.194   4.857   4.357 -0.3949  0.5231  0.3950
  778MOL0     O 4898   4.171   4.736   4.403  0.1627 -0.3952  0.0103
  778MOL0     C 4899   4.271   4.651   4.427  0.6709 -0.0371  0.2449
  778MOL0     C 4900   4.334   4.580   4.325  0.0410 -0.3465  0.4749
  778MOL0     C 4901   4.411   4.472   4.363 -0.3826  0.1286 -0.5829
  778MOL0     C 4902   4.421   4.429   4.501 -0.3906 -0.9045  1.3852
  778MOL0     O 4903   4.503   4.312   4.520 -0.1577 -0.1861  0.3445
  778MOL0     C 4904   4.513   4.250   4.648  1.1909  0.6486  0.3413
  778MOL0     C 4905   4.648   4.181   4.659 -0.4553 -0.4988  0.1292
  778MOL0     C 4906   4.668   4.143   4.803  0.2323  0.3346 -0.4139
  778MOL0     C 4907   4.799   4.057   4.838  1.0829 -0.0139 -0.0509
  778MOL0     C 4908   4.924   4.134   4.820 -1.2737  0.7125  0.3375
  778MOL0     C 4909   5.042   4.037   4.871  2.1722  0.1881  0.0827
  778MOL0     C 4910   5.183   4.098   4.871  0.3057  0.6372  0.4440
  778MOL0     C 4911   5.254   4.046   4.754 -0.3794 -0.2370 -1.0837
  778MOL0     N 4912   5.386   4.114   4.732 -0.0736  0.8553 -0.6453
  778MOL0     C 4913   5.423   4.220   4.651  0.8745 -0.1113  0.2150
  778MOL0     C 4914   5.557   4.234   4.652  0.0210 -0.8783 -0.3694
  778MOL0     C 4915   5.638   4.337   4.584  0.4500 -0.0848 -0.5051
  778MOL0     C 4916   5.677   4.278   4.448 -0.8153  0.4944 -0.8036
  778MOL0     C 4917   5.671   4.387   4.345 -0.3317 -0.2296  0.5708
  778MOL0     C 4918   5.785   4.475   4.332 -0.5098  0.3736 -0.8552
  778MOL0     O 4919   5.785   4.563   4.447  0.0183  0.6829  0.4690
  778MOL0     C 4920   5.878   4.672   4.435 -0.2846 -0.9162 -0.1225
  778MOL0     C 4921   5.896   4.775   4.538  0.0586  0.5756 -0.5007
  778MOL0     C 4922   5.989   4.879   4.521  0.0485  0.9510 -0.4184
  778MOL0     C 4923   6.080   4.880   4.419  0.3573  0.6370 -0.3627
  778MOL0     C 4924   6.173   4.990   4.404 -1.2286 -1.1515  0.5872
  778MOL0     O 4925   6.249   4.987   4.295  0.2236  0.2630  0.6498
  778MOL0     C 4926   6.331   5.089   4.263 -0.1094  0.2690  0.1713
  778MOL0     C 4927   6.296   5.229   4.271  0.7874  0.1832 -1.2980
  778MOL0     C 4928   6.376   5.333   4.238  0.3645  0.4723  0.4706
  778MOL0     C 4929   6.503   5.310   4.180  1.0497 -0.1479 -0.0540
  778MOL0     O 4930   6.582   5.405   4.130 -0.6285  0.2491 -0.0479
  778MOL0     C 4931   6.577   5.534   4.196  0.4398  0.0137 -0.3076
  778MOL0     C 4932   6.710   5.599   4.187 -0.4173  0.7771 -0.0839
  778MOL0     C 4933   6.698   5.745   4.228 -0.1300  0.2127 -0.1952
  778MOL0     C 4934   6.636   5.839   4.123  0.5906 -0.7994  0.9290
  778MOL0     C 4935   6.646   5.993   4.156  0.0728 -0.3433  0.6878
  778MOL0     C 4936   6.562   6.049   4.270  0.3682 -0.2903  0.2808
  778MOL0     C 4937   6.559   6.202   4.290 -0.2671  0.3467 -0.2717
  778MOL0     C 4938   6.445   6.264   4.375 -0.1761 -0.0071 -0.4157
  778MOL0    Cl 4939   6.407   6.155   4.510 -0.3335  0.1586 -0.1569
  778MOL0     C 4940   6.547   5.177   4.175 -0.5576  0.0237  0.7996
  778MOL0     C 4941   6.460   5.065   4.218 -0.3123 -0.3057 -0.3035
  778MOL0     O 4942   6.180   5.078   4.493  0.0925 -0.0416 -0.5133
  778MOL0     C 4943   6.069   4.778   4.327  1.2951 -0.1865 -0.3813
  778MOL0     C 4944   5.970   4.677   4.334  0.0814  0.3450  0.6929
  778MOL0     N 4945   5.603   4.141   4.747 -0.9170  0.5742  0.6334
  778MOL0     N 4946   5.502   4.075   4.789 -0.3957  0.0205 -0.8525
  778MOL0     C 4947   4.354   4.494   4.601 -0.1042  0.1129 -0.0526
  778MOL0     C 4948   4.277   4.606   4.563 -0.9375  0.3023  0.5429
  778MOL0     C 4949   4.088   4.960   4.358 -0.9242  0.3352  0.7888
  778MOL0     C 4950   4.125   5.095   4.379  0.7361 -0.1525 -0.1643
  778MOL0     C 4951   4.024   5.194   4.398 -0.4253  1.0653  1.2167
  778MOL0     C 4952   3.891   5.164   4.398 -0.1601 -0.8127 -0.0802
  778MOL0     O 4953   3.807   5.269   4.436 -0.2949  0.0596  0.7401
  778MOL0     C 4954   3.669   5.246   4.407  0.3548  0.0683 -0.4152
  778MOL0     C 4955   3.588   5.372   4.428  0.0799 -0.4516 -0.2517
  778MOL0     C 4956   3.602   5.447   4.563  0.6539  0.7491  0.6390
  778MOL0     C 4957   3.492   5.556   4.567 -0.2552  0.2512 -0.9001
  778MOL0     C 4958   3.507   5.615   4.694 -0.7010 -0.7412  0.0458
  778MOL0     C 4959   3.540   5.673   4.798 -0.3660  0.5111  0.5490
  778MOL0     C 4960   3.857   5.032   4.365 -0.5265 -0.1329 -0.8186
  778MOL0     C 4961   3.954   4.931   4.350  0.0576 -0.1585 -0.1042
  778MOL0     C 4962   3.900   4.800   4.307 -0.1979 -0.0036  0.2312
  778MOL0     H 4963   4.313   4.598   4.220 -0.3566 -0.8732  0.4600
  778MOL0     H 4964   4.459   4.430   4.276  4.1742  3.4424  0.0097
  778MOL0     H 4965   4.506   4.320   4.732 -2.8608  0.3947  0.4002
  778MOL0     H 4966   4.435   4.174   4.652  0.7950  1.0930  1.5905
  778MOL0     H 4967   4.728   4.248   4.627  1.1520 -1.4229  2.0368
  778MOL0     H 4968   4.643   4.096   4.590  0.6159  0.2865 -0.9513
  778MOL0     H 4969   4.580   4.090   4.842  1.9708 -1.6244  1.1117
  778MOL0     H 4970   4.670   4.237   4.859 -2.0738  1.7794 -2.5617
  778MOL0     H 4971   4.791   4.031   4.944  2.7643  3.9394  1.2416
  778MOL0     H 4972   4.796   3.961   4.786  1.0990 -1.1493  1.9553
  778MOL0     H 4973   4.957   4.156   4.719 -0.3864 -0.9435  0.2251
  778MOL0     H 4974   4.924   4.222   4.885 -0.1724 -0.7651  2.4453
  778MOL0     H 4975   5.028   3.990   4.969 -0.4735  0.1746 -0.2305
  778MOL0     H 4976   5.044   3.945   4.812 -0.5892 -0.1562  0.3873
  778MOL0     H 4977   5.244   4.081   4.960 -0.9318  1.5036  1.4955
  778MOL0     H 4978   5.176   4.207   4.864 -3.2833  0.4342 -1.1249
  778MOL0     H 4979   5.279   3.940   4.767 -0.0727  0.0253  0.6870
  778MOL0     H 4980   5.198   4.058   4.661 -0.9150  0.2112 -0.7086
  778MOL0     H 4981   5.355   4.287   4.600 -1.0604 -1.5752  0.7743
  778MOL0     H 4982   5.569   4.422   4.570  0.0686 -0.3525 -0.2881
  778MOL0     H 4983   5.725   4.372   4.640  1.9011 -1.9194 -1.5091
  778MOL0     H 4984   5.780   4.240   4.450 -1.4643 -1.6553 -2.8041
  778MOL0     H 4985   5.606   4.201   4.415 -1.6287  1.0283 -0.3172
  778MOL0     H 4986   5.586   4.454   4.356  0.9848  1.3402  1.7809
  778MOL0     H 4987   5.655   4.339   4.248 -3.3566  6.0692 -2.6868
  778MOL0     H 4988   5.785   4.525   4.234  1.5611 -0.5576 -1.4056
  778MOL0     H 4989   5.884   4.428   4.333 -0.0029  1.3636  1.3469
  778MOL0     H 4990   5.840   4.753   4.629  1.5685  0.5726  0.4726
  778MOL0     H 4991   5.972   4.960   4.592  3.2356  0.8540  0.6474
  778MOL0     H 4992   6.199   5.254   4.313  0.5052 -1.1468 -1.1287
  778MOL0     H 4993   6.358   5.438   4.256  3.1890  1.1582 -0.3202
  778MOL0     H 4994   6.494   5.595   4.162 -0.8393 -1.3597  0.2342
  778MOL0     H 4995   6.556   5.526   4.303 -1.0966  0.9270 -0.5150
  778MOL0     H 4996   6.776   5.561   4.266 -2.8954  0.4187  1.9446
  778MOL0     H 4997   6.766   5.580   4.094  1.3715 -3.7994  1.5914
  778MOL0     H 4998   6.641   5.743   4.321 -0.6228 -1.9371 -0.4862
  778MOL0     H 4999   6.801   5.769   4.256  0.7156 -4.5847  1.7078
  778MOL0     H 5000   6.532   5.808   4.115  0.8288 -1.4418  0.2018
  778MOL0     H 5001   6.677   5.828   4.022  0.4203 -2.0861  0.9849
  778MOL0     H 5002   6.609   6.038   4.063 -1.4576 -1.3716  0.7790
  778MOL0     H 5003   6.750   6.029   4.163  0.1041  0.2027 -1.6784
  778MOL0     H 5004   6.467   6.000   4.249  0.1932  1.0017 -2.3191
  778MOL0     H 5005   6.588   6.014   4.371 -2.6068 -1.3942  0.7706
  778MOL0     H 5006   6.570   6.264   4.200  0.1115  3.2499  1.6461
  778MOL0     H 5007   6.656   6.226   4.336 -1.0898  2.7966  0.3455
  778MOL0     H 5008   6.469   6.362   4.417  1.5199  0.3289 -2.0440
  778MOL0     H 5009   6.359   6.284   4.311 -0.4421  2.2240  0.5491
  778MOL0     H 5010   6.641   5.148   4.129 -1.0302  1.2689 -1.0761
  778MOL0     H 5011   6.489   4.963   4.196  0.5178 -0.0534 -0.3904
  778MOL0     H 5012   6.150   4.780   4.254  2.8058 -2.2836  1.0885
  778MOL0     H 5013   5.963   4.611   4.248 -2.4503  4.0360 -2.2343
  778MOL0     H 5014   4.356   4.464   4.706 -4.4605 -1.3539 -0.1817
  778MOL0     H 5015   4.233   4.662   4.644 -1.6103  0.5812 -0.0032
  778MOL0     H 5016   4.233   5.108   4.383  0.9468 -1.8506  2.2379
  778MOL0     H 5017   4.043   5.293   4.438  0.4676  1.0814  0.7789
  778MOL0     H 5018   3.628   5.174   4.479  2.2981 -1.9739 -1.2228
  778MOL0     H 5019   3.653   5.203   4.307 -1.6313 -1.5169  0.4936
  778MOL0     H 5020   3.483   5.347   4.415  0.5740 -2.7153 -0.2724
  778MOL0     H 5021   3.621   5.442   4.350  0.3019  2.2157  2.0730
  778MOL0     H 5022   3.698   5.496   4.581  0.8778  0.2658  0.7717
  778MOL0     H 5023   3.579   5.372   4.638 -1.1206 -0.8085 -1.3495
  778MOL0     H 5024   3.514   5.635   4.494 -2.2798  1.2813 -0.4628
  778MOL0     H 5025   3.393   5.516   4.546  0.1574 -0.6181 -1.2350
  778MOL0     H 5026   3.586   5.735   4.871  0.3848 -2.3854  2.7386
  778MOL0     H 5027   3.755   4.995   4.369 -0.0502 -1.4454  1.7564
  778MOL0     H 5028   3.853   4.728   4.375 -0.3874 -0.2022 -0.1094
  778MOL0     H 5029   3.821   4.828   4.237  1.0288  2.1608 -0.3626
  778MOL0     H 5030   3.974   4.746   4.248 -0.4152 -1.0522  0.8935
  779MOL0     O 5031   0.429  11.120   4.578  0.6322 -0.4362 -0.1332
  779MOL0     C 5032   0.342  11.077   4.652  0.2340 -0.0956 -0.6749
  779MOL0     O 5033   0.236  10.992   4.623  0.5342  0.4965 -0.2450
  779MOL0     C 5034   0.195  10.972   4.489 -0.3968 -0.6798  0.0764
  779MOL0     C 5035   0.066  10.939   4.469  1.0645  0.1095  0.0699
  779MOL0     C 5036   0.009  10.908   4.339  0.7631 -0.3862 -0.7580
  779MOL0     C 5037   0.088  10.917   4.224 -0.3741 -0.1425 -0.7351
  779MOL0     O 5038   0.041  10.902   4.100  0.1577 -0.2561 -0.2157
  779MOL0     C 5039  -0.054  10.804   4.082 -0.1590 -0.6087 -0.2466
  779MOL0     C 5040   0.009  10.663   4.073  0.0290  0.1518  0.1557
  779MOL0     C 5041   0.121  10.664   3.957  0.1963 -0.0676  0.2129
  779MOL0     C 5042   0.192  10.537   3.930 -0.0010  0.5084 -0.4462
  779MOL0     C 5043   0.297  10.480   4.025  0.9252 -0.4453  0.0269
  779MOL0     C 5044   0.366  10.347   3.984  0.5494 -0.4828 -0.0582
  779MOL0     C 5045   0.455  10.279   4.090 -0.2064 -0.5806  0.6306
  779MOL0     C 5046   0.587  10.211   4.063  0.3339 -0.0777  0.0936
  779MOL0     N 5047   0.711  10.293   4.036  0.3355 -0.3876 -0.1116
  779MOL0     C 5048   0.720  10.397   3.943 -0.1687 -0.7516  0.0028
  779MOL0     C 5049   0.849  10.442   3.959  0.2388 -0.0505 -0.3136
  779MOL0     C 5050   0.924  10.555   3.895  0.2528 -0.2155 -0.4380
  779MOL0     C 5051   0.840  10.660   3.822 -0.6927  0.4274 -0.3958
  779MOL0     C 5052   0.749  10.739   3.923  0.3075 -0.0676  0.8181
  779MOL0     C 5053   0.647  10.812   3.840  0.2270 -0.2517  0.0908
  779MOL0     O 5054   0.554  10.721   3.778  0.2533 -0.1008  0.3818
  779MOL0     C 5055   0.439  10.752   3.718  0.0000  0.2648 -0.0476
  779MOL0     C 5056   0.369  10.655   3.627 -2.0725  0.1709 -0.2239
  779MOL0     C 5057   0.247  10.696   3.574 -0.0650 -0.5175 -0.8270
  779MOL0     C 5058   0.198  10.825   3.589 -0.5828  0.1433 -0.1028
  779MOL0     C 5059   0.090  10.870   3.497  0.4781 -0.0354 -0.6173
  779MOL0     O 5060   0.070  11.002   3.493 -0.8641  0.3459 -0.1608
  779MOL0     C 5061  -0.020  11.055   3.403  0.7463  0.0841 -0.2327
  779MOL0     C 5062  -0.163  11.068   3.426 -0.7435  0.2916  0.3860
  779MOL0     C 5063  -0.246  11.119   3.337  0.1994 -1.1550 -0.0233
  779MOL0     C 5064  -0.199  11.160   3.207 -0.7178 -0.6150 -0.3354
  779MOL0     O 5065  -0.275  11.202   3.100  0.1258  0.5878  0.1820
  779MOL0     C 5066  -0.424  11.188   3.108  0.2058  0.2934  0.1867
  779MOL0     C 5067  -0.502  11.306   3.154 -0.0657 -0.1485  0.3455
  779MOL0     C 5068  -0.491  11.413   3.046  0.9737  0.9400  1.5862
  779MOL0     C 5069  -0.546  11.546   3.081 -0.3934 -0.2148 -0.0798
  779MOL0     C 5070  -0.698  11.560   3.113 -0.0756 -1.0304 -0.1572
  779MOL0     C 5071  -0.748  11.707   3.159 -0.5127  1.1890 -0.1237
  779MOL0     C 5072  -0.651  11.775   3.254 -0.0041 -0.2764 -0.5899
  779MOL0     C 5073  -0.728  11.895   3.307  0.1463 -0.9143 -0.3090
  779MOL0    Cl 5074  -0.857  11.841   3.413 -0.1631 -0.0925 -0.2605
  779MOL0     C 5075  -0.057  11.161   3.192 -0.2329  0.3004  0.0021
  779MOL0     C 5076   0.033  11.115   3.295 -0.2053 -0.4802 -1.0772
  779MOL0     O 5077   0.032  10.788   3.422 -0.0036 -0.1706 -0.0006
  779MOL0     C 5078   0.282  10.918   3.655  0.3513  0.0264  0.7354
  779MOL0     C 5079   0.392  10.880   3.738 -0.2934  0.2617 -0.1760
  779MOL0     N 5080   0.916  10.362   4.046  0.0360 -0.0597  0.6610
  779MOL0     N 5081   0.833  10.263   4.081  0.3733  0.5458 -0.9242
  779MOL0     C 5082   0.223  10.964   4.232  0.2600  0.4592 -0.9892
  779MOL0     C 5083   0.279  10.988   4.367  0.1711  0.7285 -0.8782
  779MOL0     C 5084   0.356  11.120   4.790 -0.2502 -0.2318  0.1516
  779MOL0     C 5085   0.235  11.121   4.870 -1.1210 -0.7540 -0.3155
  779MOL0     C 5086   0.249  11.159   5.004  1.2170  1.1158  0.3645
  779MOL0     C 5087   0.355  11.213   5.070 -0.0926 -0.6040  0.1115
  779MOL0     O 5088   0.332  11.247   5.201 -0.8534  0.6178  0.5623
  779MOL0     C 5089   0.438  11.313   5.269 -0.5138 -0.4750 -0.1825
  779MOL0     C 5090   0.394  11.367   5.410  0.9586 -1.1023 -0.1087
  779MOL0     C 5091   0.455  11.283   5.525  1.0149 -0.7106 -0.4367
  779MOL0     C 5092   0.354  11.181   5.582 -0.2692 -0.1506 -0.1971
  779MOL0     C 5093   0.428  11.100   5.683  0.0400  0.0515 -0.0282
  779MOL0     C 5094   0.486  11.019   5.757 -0.3172 -0.1429 -0.0009
  779MOL0     C 5095   0.481  11.209   4.992  0.0170 -0.3297  0.3137
  779MOL0     C 5096   0.481  11.155   4.854  0.0579  0.5455  0.1723
  779MOL0     C 5097   0.616  11.110   4.796 -0.0448  0.3615 -0.4714
  779MOL0     H 5098   0.009  10.922   4.560  2.0493  0.2977  0.7386
  779MOL0     H 5099  -0.094  10.874   4.337  0.8757 -1.2036  2.1718
  779MOL0     H 5100  -0.141  10.804   4.149  1.5115 -0.7592  2.0457
  779MOL0     H 5101  -0.093  10.838   3.986 -1.0825  4.3986  1.6070
  779MOL0     H 5102  -0.061  10.580   4.055 -1.4084  0.4044  3.7404
  779MOL0     H 5103   0.049  10.646   4.174 -2.8244 -0.0568  1.3318
  779MOL0     H 5104   0.201  10.735   3.979  0.0482  0.0308  0.4411
  779MOL0     H 5105   0.064  10.697   3.869 -1.8920 -2.3905  0.5871
  779MOL0     H 5106   0.119  10.456   3.920 -0.2090  0.8660 -2.1033
  779MOL0     H 5107   0.239  10.544   3.832  0.8463 -1.9196 -0.2785
  779MOL0     H 5108   0.376  10.556   4.036  0.7406 -0.5994  4.0789
  779MOL0     H 5109   0.256  10.469   4.126 -3.1172  1.1709 -1.2350
  779MOL0     H 5110   0.296  10.281   3.934 -1.6881  2.5490 -1.2649
  779MOL0     H 5111   0.438  10.356   3.902  2.1451  0.6636  1.3760
  779MOL0     H 5112   0.383  10.204   4.126 -1.2062 -1.2030 -2.3967
  779MOL0     H 5113   0.467  10.337   4.182 -3.6088 -2.0182  2.1892
  779MOL0     H 5114   0.596  10.145   4.150 -1.8442 -1.8658 -0.9395
  779MOL0     H 5115   0.574  10.149   3.974  4.7454 -0.5938 -0.4309
  779MOL0     H 5116   0.641  10.444   3.885  1.0049  0.3418 -0.7578
  779MOL0     H 5117   0.988  10.607   3.967  1.5788 -1.8464 -0.3930
  779MOL0     H 5118   1.002  10.519   3.827  1.0055  1.2280 -0.3952
  779MOL0     H 5119   0.910  10.725   3.770 -1.1160  0.4460 -0.9532
  779MOL0     H 5120   0.783  10.615   3.740 -0.0304  1.4362 -1.4423
  779MOL0     H 5121   0.813  10.807   3.980 -0.1407 -0.6640  2.0809
  779MOL0     H 5122   0.692  10.685   4.000  0.3970 -0.1641  0.8158
  779MOL0     H 5123   0.694  10.882   3.771 -0.0456 -1.3352 -1.2313
  779MOL0     H 5124   0.581  10.870   3.907 -3.1346 -1.3501 -1.9947
  779MOL0     H 5125   0.418  10.558   3.630  2.7050  2.3102  0.0299
  779MOL0     H 5126   0.192  10.628   3.509  1.4686  0.5083 -3.3806
  779MOL0     H 5127  -0.195  11.042   3.527  0.4781  1.4616  1.1053
  779MOL0     H 5128  -0.351  11.125   3.366 -0.8035 -2.6015 -2.9788
  779MOL0     H 5129  -0.462  11.166   3.008 -1.6826 -0.4144  1.0067
  779MOL0     H 5130  -0.447  11.101   3.170  2.7094 -0.9729 -0.5496
  779MOL0     H 5131  -0.606  11.275   3.169  1.0347 -3.4794  2.3977
  779MOL0     H 5132  -0.459  11.344   3.247  1.1856 -1.2727  0.2572
  779MOL0     H 5133  -0.385  11.425   3.021  1.3116  1.2332  3.1093
  779MOL0     H 5134  -0.550  11.379   2.960 -0.9360 -2.9515  4.1176
  779MOL0     H 5135  -0.522  11.620   3.004 -0.5169  0.0860  0.1660
  779MOL0     H 5136  -0.487  11.574   3.168 -1.1493  1.3153 -0.0145
  779MOL0     H 5137  -0.702  11.480   3.187  0.5258  0.3135  1.3816
  779MOL0     H 5138  -0.759  11.529   3.027  2.8019 -0.1509 -2.6960
  779MOL0     H 5139  -0.767  11.766   3.069 -1.8736  1.2185  0.1542
  779MOL0     H 5140  -0.844  11.690   3.209 -0.2293  2.2961  0.8388
  779MOL0     H 5141  -0.566  11.803   3.192  1.3873 -0.5689  1.0930
  779MOL0     H 5142  -0.629  11.702   3.333 -3.8930 -0.4508  0.5551
  779MOL0     H 5143  -0.672  11.969   3.364 -0.1328 -0.3816 -0.7122
  779MOL0     H 5144  -0.777  11.944   3.221  3.4466  1.5573 -1.0128
  779MOL0     H 5145  -0.009  11.198   3.101  0.8397  0.2628  0.5355
  779MOL0     H 5146   0.140  11.128   3.278  0.6844 -1.9264  2.4207
  779MOL0     H 5147   0.243  11.019   3.662 -2.8479 -0.9832 -0.6135
  779MOL0     H 5148   0.438  10.963   3.790 -2.0992  1.4972 -0.4492
  779MOL0     H 5149   0.271  10.995   4.140 -1.3878  1.6822 -1.4817
  779MOL0     H 5150   0.384  11.013   4.357  0.7000 -1.6222 -1.9716
  779MOL0     H 5151   0.137  11.095   4.831 -0.8017 -1.5567 -0.6206
  779MOL0     H 5152   0.164  11.147   5.070  0.4886  1.1142 -0.5618
  779MOL0     H 5153   0.480  11.397   5.211  0.8031 -1.2064 -0.3337
  779MOL0     H 5154   0.520  11.242   5.281  1.0639  0.8032 -2.5332
  779MOL0     H 5155   0.285  11.371   5.417  0.8031 -0.9366 -2.0190
  779MOL0     H 5156   0.437  11.465   5.431 -0.3551 -0.3993 -0.5952
  779MOL0     H 5157   0.478  11.354   5.606 -0.5441 -1.4517  0.7126
  779MOL0     H 5158   0.546  11.232   5.494  0.5710 -1.8572  0.0903
  779MOL0     H 5159   0.276  11.218   5.649  0.7989 -1.5742  1.9427
  779MOL0     H 5160   0.316  11.117   5.502 -0.1043 -3.2217  2.0170
  779MOL0     H 5161   0.542  10.956   5.823 -1.0289 -0.3168  0.4361
  779MOL0     H 5162   0.567  11.234   5.054 -1.3014  1.3000  1.5699
  779MOL0     H 5163   0.609  11.002   4.781 -1.0866  0.6182 -2.1688
  779MOL0     H 5164   0.657  11.149   4.702  0.1111 -1.2035 -1.0694
  779MOL0     H 5165   0.687  11.148   4.871 -0.2177  1.2240 -0.7254
  780MOL0     O 5166   0.433   2.744   6.060  0.5209  0.3362  0.4286
  780MOL0     C 5167   0.492   2.637   6.074 -0.4274 -0.6249  0.8545
  780MOL0     O 5168   0.604   2.617   6.145  0.0359  0.2901  0.3616
  780MOL0     C 5169   0.669   2.737   6.192  0.7035  0.4559 -0.5610
  780MOL0     C 5170   0.740   2.728   6.312  0.0523 -0.0913  0.9996
  780MOL0     C 5171   0.816   2.838   6.367 -0.2530 -0.6153  0.1476
  780MOL0     C 5172   0.827   2.959   6.303  0.5300  0.6097  0.3154
  780MOL0     O 5173   0.903   3.070   6.344 -0.9542  0.3114  0.9847
  780MOL0     C 5174   1.015   3.043   6.433 -0.6967 -0.4235  0.2286
  780MOL0     C 5175   1.104   3.167   6.458 -0.2968 -0.2482 -0.4995
  780MOL0     C 5176   1.045   3.280   6.535 -0.3317 -0.2972 -0.1400
  780MOL0     C 5177   1.028   3.243   6.682  0.0765 -0.2364 -0.1414
  780MOL0     C 5178   0.938   3.344   6.761 -0.2721 -0.2156  0.4684
  780MOL0     C 5179   0.963   3.329   6.914 -0.9491  0.4813 -0.6241
  780MOL0     C 5180   0.911   3.191   6.973 -0.4037  0.0276 -0.3348
  780MOL0     C 5181   0.764   3.151   6.933 -0.2755 -0.2422 -0.9384
  780MOL0     N 5182   0.651   3.242   6.981  0.5442 -0.0034 -0.0236
  780MOL0     C 5183   0.576   3.314   6.893  0.1468  0.2966 -0.1958
  780MOL0     C 5184   0.499   3.394   6.974  0.7650  0.3040 -0.6597
  780MOL0     C 5185   0.398   3.497   6.932  0.7211  0.0898  0.1186
  780MOL0     C 5186   0.461   3.576   6.820 -0.4537 -0.6446 -0.0153
  780MOL0     C 5187   0.563   3.687   6.863  0.7542  0.2470  0.1049
  780MOL0     C 5188   0.649   3.718   6.739 -0.3681  0.1735 -0.3345
  780MOL0     O 5189   0.569   3.751   6.621 -0.4836 -0.7288  0.5238
  780MOL0     C 5190   0.635   3.794   6.503 -0.5915 -0.1838 -0.0445
  780MOL0     C 5191   0.635   3.927   6.462 -1.0958  0.7769  0.2295
  780MOL0     C 5192   0.694   3.969   6.345  0.4069  0.0893  0.6519
  780MOL0     C 5193   0.752   3.878   6.262 -0.9546 -0.6429  0.9592
  780MOL0     C 5194   0.828   3.925   6.141 -0.6856  0.6869 -0.3827
  780MOL0     O 5195   0.895   3.824   6.066 -0.2514  0.3309  0.1683
  780MOL0     C 5196   0.990   3.865   5.977 -0.1362  0.2317 -1.0821
  780MOL0     C 5197   0.962   3.868   5.843  0.7163  0.3526 -1.1391
  780MOL0     C 5198   1.058   3.914   5.752 -0.5460 -0.3267  0.1914
  780MOL0     C 5199   1.190   3.951   5.792 -0.2131  0.3666  0.0378
  780MOL0     O 5200   1.280   3.993   5.699 -0.1673 -0.0032  1.1340
  780MOL0     C 5201   1.377   4.097   5.733  0.0885  1.4626  1.5080
  780MOL0     C 5202   1.433   4.139   5.600 -0.1638 -0.2647 -0.0879
  780MOL0     C 5203   1.334   4.200   5.505  0.7975  0.6521 -0.6826
  780MOL0     C 5204   1.284   4.099   5.400 -0.0861 -0.2695  0.0460
  780MOL0     C 5205   1.184   4.156   5.303  0.3141 -0.1179 -0.5206
  780MOL0     C 5206   1.043   4.182   5.355 -0.6980 -0.1764  0.1960
  780MOL0     C 5207   0.979   4.293   5.265 -0.6921  1.1663  0.5461
  780MOL0     C 5208   0.844   4.322   5.318  0.5264  0.0789  0.0520
  780MOL0    Cl 5209   0.746   4.180   5.329  0.4419 -0.0854  0.1620
  780MOL0     C 5210   1.218   3.943   5.926 -0.1751  0.0966  0.4633
  780MOL0     C 5211   1.118   3.904   6.018  0.3422  0.9429 -0.3929
  780MOL0     O 5212   0.836   4.047   6.129 -0.0342 -0.3626  0.2892
  780MOL0     C 5213   0.752   3.740   6.300 -1.5776 -0.4578 -0.9358
  780MOL0     C 5214   0.697   3.700   6.419  0.1956 -0.2192  0.0051
  780MOL0     N 5215   0.541   3.384   7.110  0.1886  0.9403 -0.3397
  780MOL0     N 5216   0.637   3.290   7.110  0.1597 -0.6924  0.5704
  780MOL0     C 5217   0.776   2.960   6.173  0.8111  0.4017 -0.6118
  780MOL0     C 5218   0.687   2.860   6.126  0.0884  0.6087  0.5219
  780MOL0     C 5219   0.421   2.505   6.028 -0.2508 -0.0902  0.8351
  780MOL0     C 5220   0.313   2.519   5.936 -0.1958 -0.0809  0.7376
  780MOL0     C 5221   0.237   2.413   5.910  0.0318 -0.2598 -0.6348
  780MOL0     C 5222   0.258   2.289   5.957 -0.6740  1.1062  0.8026
  780MOL0     O 5223   0.162   2.206   5.919  0.0892  0.8239 -0.0784
  780MOL0     C 5224   0.103   2.125   6.013  0.6849  0.7795  0.2763
  780MOL0     C 5225  -0.016   2.199   6.083 -1.1712  0.4223  0.1919
  780MOL0     C 5226  -0.131   2.110   6.143 -0.0557  0.6036  0.1424
  780MOL0     C 5227  -0.252   2.180   6.195  0.5315  0.4421  1.1458
  780MOL0     C 5228  -0.317   2.099   6.301  0.8033 -0.1069 -0.3156
  780MOL0     C 5229  -0.378   2.044   6.392 -0.7449  0.4625  0.3111
  780MOL0     C 5230   0.374   2.268   6.031  0.5795  0.3450  1.0395
  780MOL0     C 5231   0.459   2.372   6.066  0.2453 -0.3482 -0.4509
  780MOL0     C 5232   0.570   2.345   6.160 -0.6812 -0.8084 -0.3341
  780MOL0     H 5233   0.731   2.629   6.356 -2.2937 -1.4708 -2.1823
  780MOL0     H 5234   0.872   2.824   6.459 -2.1121 -0.3346  1.3713
  780MOL0     H 5235   0.988   2.997   6.528  2.6683 -1.2880  0.8829
  780MOL0     H 5236   1.073   2.961   6.390 -1.0336 -0.1260 -0.8364
  780MOL0     H 5237   1.121   3.212   6.360 -0.2588 -1.4440 -1.0583
  780MOL0     H 5238   1.196   3.130   6.503 -2.0180 -0.6787  2.9905
  780MOL0     H 5239   0.948   3.302   6.488 -0.1227  0.3512 -0.2664
  780MOL0     H 5240   1.113   3.365   6.531 -0.6883 -0.0401 -1.2051
  780MOL0     H 5241   0.970   3.150   6.688 -0.5876  0.2632  2.5999
  780MOL0     H 5242   1.131   3.239   6.719  0.8119  0.5837 -2.0264
  780MOL0     H 5243   0.959   3.449   6.739 -3.2006  0.1079 -1.3054
  780MOL0     H 5244   0.834   3.344   6.729 -0.2502  2.0896  0.2523
  780MOL0     H 5245   1.068   3.344   6.943 -0.6123  2.9814 -2.8053
  780MOL0     H 5246   0.904   3.407   6.962 -0.6727 -0.0346  0.6165
  780MOL0     H 5247   0.918   3.190   7.083  2.7658 -1.1339 -0.4490
  780MOL0     H 5248   0.988   3.120   6.942  1.6891  2.3872 -0.9401
  780MOL0     H 5249   0.767   3.153   6.824 -1.0091  3.6550 -1.0245
  780MOL0     H 5250   0.752   3.051   6.976 -0.7138  1.2340  2.7089
  780MOL0     H 5251   0.587   3.312   6.785  0.8255  3.7477 -0.2957
  780MOL0     H 5252   0.307   3.448   6.897  0.1957  0.0380  1.4773
  780MOL0     H 5253   0.355   3.548   7.019 -1.9580  0.0538 -1.1041
  780MOL0     H 5254   0.502   3.505   6.747  1.1426  0.7447 -0.5400
  780MOL0     H 5255   0.375   3.620   6.768 -2.5275 -1.9267  2.1482
  780MOL0     H 5256   0.623   3.645   6.945 -0.3708 -1.8955 -0.0997
  780MOL0     H 5257   0.508   3.773   6.899 -0.6905 -0.0638 -1.2444
  780MOL0     H 5258   0.696   3.621   6.723 -1.8291 -0.4778 -0.8567
  780MOL0     H 5259   0.721   3.800   6.750  1.2422 -1.0922 -0.9653
  780MOL0     H 5260   0.561   3.991   6.508 -2.5594  0.0696 -1.0132
  780MOL0     H 5261   0.689   4.075   6.321  0.8201 -0.0578 -0.1433
  780MOL0     H 5262   0.863   3.851   5.801  0.3993  1.8213 -1.0482
  780MOL0     H 5263   1.026   3.919   5.649 -2.2954  2.6150  0.7622
  780MOL0     H 5264   1.341   4.179   5.796 -1.3422  0.2256  2.3721
  780MOL0     H 5265   1.457   4.045   5.786 -0.5143  0.2720  1.2987
  780MOL0     H 5266   1.510   4.210   5.629  1.1595 -1.2128 -1.1381
  780MOL0     H 5267   1.472   4.046   5.556 -1.4085 -2.9094  3.8766
  780MOL0     H 5268   1.257   4.220   5.581  3.6504  0.5281  2.4781
  780MOL0     H 5269   1.377   4.283   5.448 -0.7899 -0.5796 -3.9334
  780MOL0     H 5270   1.235   4.020   5.457 -1.4031  0.2636 -0.2998
  780MOL0     H 5271   1.372   4.076   5.339 -1.1102  0.2650 -1.7236
  780MOL0     H 5272   1.172   4.089   5.218 -2.3076  0.7945 -0.9793
  780MOL0     H 5273   1.232   4.240   5.252  3.9215 -2.3530 -1.1696
  780MOL0     H 5274   0.981   4.092   5.351 -1.2115  0.1428  0.8949
  780MOL0     H 5275   1.053   4.213   5.459  1.9708 -2.0413  0.6018
  780MOL0     H 5276   0.980   4.246   5.166  2.5851  0.1775  0.9243
  780MOL0     H 5277   1.048   4.378   5.265  1.6239 -0.5039  4.0253
  780MOL0     H 5278   0.841   4.374   5.415  0.3364  2.8879 -1.3551
  780MOL0     H 5279   0.785   4.378   5.245  1.0673 -3.4991 -3.4925
  780MOL0     H 5280   1.311   3.985   5.962  0.6531 -1.3886  0.1181
  780MOL0     H 5281   1.153   3.903   6.121  0.4333  2.8513 -0.3586
  780MOL0     H 5282   0.791   3.670   6.227  1.3314  0.1554 -0.0796
  780MOL0     H 5283   0.697   3.594   6.442  1.7046 -0.1487  0.3975
  780MOL0     H 5284   0.805   3.049   6.118  1.2078  0.2987 -0.5709
  780MOL0     H 5285   0.655   2.870   6.023  2.6260 -1.1184 -0.5181
  780MOL0     H 5286   0.293   2.615   5.890  3.8495  0.5888 -0.0524
  780MOL0     H 5287   0.149   2.437   5.852  0.5075  0.3812 -1.0933
  780MOL0     H 5288   0.165   2.082   6.093 -2.4114  2.3123  3.7883
  780MOL0     H 5289   0.072   2.034   5.960  1.0913  1.5733 -1.3672
  780MOL0     H 5290  -0.050   2.270   6.007  4.9713  0.9346 -2.6611
  780MOL0     H 5291   0.016   2.264   6.164 -2.1416  1.6802 -0.4002
  780MOL0     H 5292  -0.091   2.058   6.230 -1.2265 -0.8120 -0.1159
  780MOL0     H 5293  -0.152   2.031   6.070  3.5525 -0.6448  0.2901
  780MOL0     H 5294  -0.232   2.280   6.235  1.6763  0.7859 -0.1945
  780MOL0     H 5295  -0.317   2.185   6.107  1.0475  0.6759  0.7710
  780MOL0     H 5296  -0.424   2.011   6.483 -1.5426 -0.1934 -0.3089
  780MOL0     H 5297   0.403   2.172   6.073 -1.9878 -1.1104 -0.2775
  780MOL0     H 5298   0.545   2.391   6.256 -0.5545 -1.1468 -0.1372
  780MOL0     H 5299   0.566   2.240   6.189 -0.7708 -0.4570  0.9987
  780MOL0     H 5300   0.667   2.372   6.116 -0.3016 -0.7462  0.5223
  781MOL0     O 5301  11.328   6.010   4.221  0.3949 -0.4187  0.3114
  781MOL0     C 5302  11.215   6.024   4.266 -0.1142  0.7978  0.4685
  781MOL0     O 5303  11.100   6.035   4.191 -0.5900 -0.2028 -0.9685
  781MOL0     C 5304  11.114   6.034   4.062  0.9136 -0.5665  0.8809
  781MOL0     C 5305  11.055   5.931   3.986  1.5302 -0.1284  0.2747
  781MOL0     C 5306  11.065   5.929   3.846 -0.2525  0.3402  0.0789
  781MOL0     C 5307  11.140   6.025   3.778 -0.6962 -0.2128  0.3080
  781MOL0     O 5308  11.164   6.004   3.645  0.1616  0.1567 -0.2520
  781MOL0     C 5309  11.298   6.035   3.601 -2.0390 -0.1122  0.2264
  781MOL0     C 5310  11.387   5.906   3.578  0.0406 -0.5418  0.6973
  781MOL0     C 5311  11.521   5.931   3.503 -0.6497 -0.2698  0.2311
  781MOL0     C 5312  11.613   6.028   3.584  0.0700 -0.1354  0.2125
  781MOL0     C 5313  11.739   6.079   3.503  0.8620 -0.0015  0.1131
  781MOL0     C 5314  11.831   5.974   3.437  0.4888  0.2549  0.1257
  781MOL0     C 5315  11.961   6.026   3.367 -0.0018 -0.1838  0.2885
  781MOL0     C 5316  11.999   5.915   3.259  0.0055  0.2003 -0.8905
  781MOL0     N 5317  12.046   5.784   3.316 -0.2372 -0.2530 -0.3319
  781MOL0     C 5318  12.124   5.771   3.436 -0.1310 -1.0553 -0.7340
  781MOL0     C 5319  12.138   5.633   3.443  0.3729 -0.3398 -1.2326
  781MOL0     C 5320  12.221   5.562   3.549 -0.4142  0.1454 -0.8605
  781MOL0     C 5321  12.324   5.466   3.492 -0.0687  0.1349  0.7953
  781MOL0     C 5322  12.377   5.375   3.606 -0.8733 -0.5345  1.0238
  781MOL0     C 5323  12.444   5.453   3.718 -0.5470  0.2214  0.2115
  781MOL0     O 5324  12.497   5.361   3.812  0.5138 -0.0086  0.2554
  781MOL0     C 5325  12.560   5.405   3.924 -0.2438  0.1462  0.5437
  781MOL0     C 5326  12.587   5.326   4.039 -0.8322  0.6870  0.2693
  781MOL0     C 5327  12.662   5.375   4.147 -0.0119  0.8421 -0.0131
  781MOL0     C 5328  12.692   5.515   4.149 -0.5342  0.0127  0.0824
  781MOL0     C 5329  12.774   5.576   4.265 -1.2215  0.0011  0.6218
  781MOL0     O 5330  12.818   5.503   4.371  0.1418  0.1102  0.4892
  781MOL0     C 5331  12.927   5.529   4.452 -0.6778 -0.0941  0.1297
  781MOL0     C 5332  12.932   5.456   4.565 -0.3398 -0.0282  0.2726
  781MOL0     C 5333  13.048   5.454   4.644  0.6195 -0.0631  0.2097
  781MOL0     C 5334  13.161   5.517   4.600  0.3826  0.7917 -0.0299
  781MOL0     O 5335  13.273   5.499   4.685 -0.4521  0.2808 -0.7059
  781MOL0     C 5336  13.391   5.561   4.651  0.1026 -0.3142  0.6124
  781MOL0     C 5337  13.483   5.549   4.777  1.1880  0.7636  0.1731
  781MOL0     C 5338  13.617   5.637   4.778  0.5784 -0.3138  0.3447
  781MOL0     C 5339  13.586   5.794   4.786  0.5257  0.0370  0.0001
  781MOL0     C 5340  13.722   5.869   4.817 -0.9716  0.6896 -0.1956
  781MOL0     C 5341  13.729   6.010   4.762  0.2488 -0.7558 -0.3898
  781MOL0     C 5342  13.840   6.105   4.799  0.5463 -0.0314 -1.7390
  781MOL0     C 5343  13.837   6.132   4.955 -0.2895  0.7282  0.0709
  781MOL0    Cl 5344  13.706   6.231   4.990 -0.4224  0.5188 -0.0146
  781MOL0     C 5345  13.156   5.590   4.484  0.2016 -0.6618  0.1478
  781MOL0     C 5346  13.037   5.607   4.415 -0.7544  0.3820  0.5382
  781MOL0     O 5347  12.814   5.688   4.237 -0.7654 -0.4322  0.1472
  781MOL0     C 5348  12.668   5.595   4.037  0.2231  0.0966 -0.4911
  781MOL0     C 5349  12.596   5.540   3.926 -0.0705  0.7686  0.2135
  781MOL0     N 5350  12.074   5.569   3.342  0.5793  0.3521 -0.3060
  781MOL0     N 5351  12.016   5.655   3.259 -0.9369 -0.2757 -0.2863
  781MOL0     C 5352  11.183   6.145   3.852 -0.5177 -0.3377 -0.2685
  781MOL0     C 5353  11.174   6.143   3.989  0.1298  0.1310  0.2526
  781MOL0     C 5354  11.193   6.033   4.410  0.0299  1.2241 -0.5355
  781MOL0     C 5355  11.188   5.910   4.480 -0.0568 -1.0645  0.6525
  781MOL0     C 5356  11.146   5.912   4.612  0.0719 -0.5923 -1.0589
  781MOL0     C 5357  11.112   6.034   4.677  0.5085  0.6294 -0.6211
  781MOL0     O 5358  11.055   6.052   4.804 -0.5140  0.1586 -0.0130
  781MOL0     C 5359  10.980   5.943   4.855 -0.0193  0.4230 -0.2608
  781MOL0     C 5360  10.860   5.992   4.949  0.2050  0.4041 -0.3549
  781MOL0     C 5361  10.727   6.022   4.869 -0.2917 -0.3703 -1.1574
  781MOL0     C 5362  10.612   6.059   4.963  1.1081 -0.4017 -0.6728
  781MOL0     C 5363  10.488   6.034   4.879  0.8901  0.9699  0.1113
  781MOL0     C 5364  10.381   6.032   4.807 -1.8378 -0.1035 -0.4386
  781MOL0     C 5365  11.130   6.151   4.608 -0.4431 -0.1265 -0.0828
  781MOL0     C 5366  11.171   6.158   4.476  0.9408  0.8649  0.3355
  781MOL0     C 5367  11.189   6.294   4.420 -0.7388 -0.2634  0.2609
  781MOL0     H 5368  10.993   5.856   4.035 -0.7458  2.4182  1.6233
  781MOL0     H 5369  11.031   5.847   3.783  0.5334  0.4795 -0.5451
  781MOL0     H 5370  11.283   6.100   3.515  1.9443  0.2746 -0.3498
  781MOL0     H 5371  11.348   6.098   3.676  1.7285 -2.5134  0.0106
  781MOL0     H 5372  11.343   5.827   3.517 -3.1587 -1.1186  3.4552
  781MOL0     H 5373  11.392   5.863   3.678  2.5117 -1.1749  0.3578
  781MOL0     H 5374  11.504   5.967   3.401 -0.0993  1.7997  0.8199
  781MOL0     H 5375  11.568   5.834   3.487  0.5741  0.3350  0.0861
  781MOL0     H 5376  11.554   6.118   3.607  0.4147  1.0840 -3.0933
  781MOL0     H 5377  11.641   5.968   3.671  1.2804 -1.7248 -1.2130
  781MOL0     H 5378  11.714   6.159   3.433 -2.6374 -2.3437 -1.5798
  781MOL0     H 5379  11.805   6.118   3.581  1.4205  0.1123 -0.4023
  781MOL0     H 5380  11.868   5.909   3.517  4.8128  0.0001 -1.7644
  781MOL0     H 5381  11.759   5.923   3.372 -0.7665  1.2238  0.7276
  781MOL0     H 5382  12.042   6.054   3.435 -1.0074 -0.4707  1.6569
  781MOL0     H 5383  11.937   6.113   3.305  0.0899 -1.1304 -1.1180
  781MOL0     H 5384  11.923   5.891   3.184 -0.3943  0.4768 -0.5827
  781MOL0     H 5385  12.087   5.958   3.210  1.9954 -0.8629  1.5400
  781MOL0     H 5386  12.165   5.847   3.502 -0.3298 -2.5318  1.1609
  781MOL0     H 5387  12.271   5.636   3.613  0.8289  0.1150 -1.7639
  781MOL0     H 5388  12.152   5.514   3.620 -0.9936 -0.9092 -2.1102
  781MOL0     H 5389  12.268   5.396   3.428 -4.2134  0.8663  3.2333
  781MOL0     H 5390  12.402   5.522   3.440  1.4069 -0.7974  1.9022
  781MOL0     H 5391  12.451   5.308   3.560 -1.4353  1.0524 -2.5875
  781MOL0     H 5392  12.294   5.314   3.643 -0.2568 -2.1795 -0.1936
  781MOL0     H 5393  12.385   5.532   3.765  0.6972  1.8088 -0.7647
  781MOL0     H 5394  12.530   5.502   3.670 -1.2280  0.8260 -0.4125
  781MOL0     H 5395  12.557   5.222   4.042  0.5929  0.2157 -0.5554
  781MOL0     H 5396  12.688   5.298   4.219 -1.6400 -1.8509 -2.0950
  781MOL0     H 5397  12.844   5.397   4.588  0.5910 -2.1072 -1.2345
  781MOL0     H 5398  13.050   5.412   4.745  1.0974  2.3891  1.2969
  781MOL0     H 5399  13.443   5.512   4.568  1.5189  0.3389  1.0871
  781MOL0     H 5400  13.386   5.667   4.628 -0.1362 -0.2188  1.0848
  781MOL0     H 5401  13.424   5.570   4.866 -0.1559  1.0728 -0.7706
  781MOL0     H 5402  13.514   5.444   4.782  1.9702  0.8396 -1.9325
  781MOL0     H 5403  13.678   5.615   4.866  2.3460 -0.5742 -0.8822
  781MOL0     H 5404  13.676   5.612   4.689  1.4721 -0.1509  0.8748
  781MOL0     H 5405  13.511   5.818   4.861 -3.2665 -1.1771 -3.0261
  781MOL0     H 5406  13.554   5.826   4.686  3.9315 -1.4499 -1.7432
  781MOL0     H 5407  13.804   5.812   4.773 -0.7580  0.9264 -0.1015
  781MOL0     H 5408  13.742   5.867   4.924 -0.3143  0.1103 -0.3244
  781MOL0     H 5409  13.723   6.013   4.652  0.0191  0.9267 -0.3484
  781MOL0     H 5410  13.635   6.054   4.796 -0.9762 -2.3067 -1.5698
  781MOL0     H 5411  13.834   6.203   4.749  1.1003  1.3640  0.7711
  781MOL0     H 5412  13.938   6.063   4.774  0.4877  0.1199 -2.2416
  781MOL0     H 5413  13.815   6.037   5.004  1.0047 -0.1900 -1.0722
  781MOL0     H 5414  13.931   6.168   4.996 -0.5059  1.1092  0.2409
  781MOL0     H 5415  13.239   5.648   4.444 -1.0169 -0.1440 -1.7494
  781MOL0     H 5416  13.042   5.662   4.321  2.3257 -0.2468  0.2618
  781MOL0     H 5417  12.675   5.702   4.053 -0.3494 -0.3028  3.7335
  781MOL0     H 5418  12.568   5.616   3.854 -2.5506  2.7284  3.0170
  781MOL0     H 5419  11.224   6.231   3.800  0.9335  0.2773  1.7937
  781MOL0     H 5420  11.226   6.221   4.043 -1.1571  0.2973  1.2889
  781MOL0     H 5421  11.240   5.822   4.444  1.3347  0.6188 -1.6928
  781MOL0     H 5422  11.141   5.816   4.661 -1.4866 -0.0701 -0.1444
  781MOL0     H 5423  11.040   5.878   4.920  0.6021 -1.9139 -2.9844
  781MOL0     H 5424  10.926   5.886   4.779  2.1729  1.1494 -2.4542
  781MOL0     H 5425  10.888   6.078   5.012 -0.0180  0.9397 -0.9720
  781MOL0     H 5426  10.835   5.913   5.020 -1.7459  0.9914 -0.3109
  781MOL0     H 5427  10.703   5.934   4.808  0.3761 -1.8933  0.7067
  781MOL0     H 5428  10.731   6.111   4.805  1.5066 -0.8663 -1.7938
  781MOL0     H 5429  10.607   5.997   5.054 -1.2106 -1.6422 -1.5440
  781MOL0     H 5430  10.612   6.163   4.997 -1.9444 -1.1353  2.1452
  781MOL0     H 5431  10.294   6.022   4.747 -2.1459  4.2647 -1.0445
  781MOL0     H 5432  11.126   6.249   4.654  1.9236  0.1120 -0.2457
  781MOL0     H 5433  11.291   6.328   4.437 -0.7767 -1.3195  3.0258
  781MOL0     H 5434  11.167   6.292   4.312  1.9695  0.2649 -0.3729
  781MOL0     H 5435  11.128   6.364   4.477 -0.7433 -2.4026  3.0938
  782MOL0     O 5436   9.465   1.493   2.111 -0.2535  0.2917  0.5742
  782MOL0     C 5437   9.483   1.428   2.007  0.5638 -0.3770 -0.0333
  782MOL0     O 5438   9.597   1.380   1.965 -0.1980 -0.0606 -0.8415
  782MOL0     C 5439   9.719   1.416   2.025  0.4569 -0.4995  0.3010
  782MOL0     C 5440   9.745   1.545   2.075 -0.0743 -0.3718 -0.9364
  782MOL0     C 5441   9.877   1.582   2.111 -1.0104  0.5949  0.1555
  782MOL0     C 5442   9.978   1.486   2.100 -0.0467  0.4169  0.5968
  782MOL0     O 5443  10.113   1.524   2.121 -0.5447  0.0111  0.7605
  782MOL0     C 5444  10.159   1.537   2.251 -0.0496  0.2518 -0.2034
  782MOL0     C 5445  10.299   1.485   2.234 -0.2616 -0.1832  0.7509
  782MOL0     C 5446  10.370   1.482   2.356 -0.3880 -0.2900 -0.2283
  782MOL0     C 5447  10.477   1.370   2.367  0.4249 -0.9719 -0.7958
  782MOL0     C 5448  10.530   1.381   2.512  0.3769  0.3852 -0.3531
  782MOL0     C 5449  10.646   1.287   2.550  0.7982  1.4588 -0.3224
  782MOL0     C 5450  10.674   1.313   2.702 -0.3200  0.2175 -0.2410
  782MOL0     C 5451  10.809   1.242   2.731  0.3273 -1.0952 -0.0141
  782MOL0     N 5452  10.857   1.274   2.868  1.2011  0.8654 -0.0771
  782MOL0     C 5453  10.803   1.210   2.972  0.1010 -0.6000 -1.0580
  782MOL0     C 5454  10.859   1.264   3.083  0.9613  0.0883 -0.3587
  782MOL0     C 5455  10.829   1.235   3.233 -0.1811 -0.3146  0.2935
  782MOL0     C 5456  10.884   1.106   3.290  0.0924 -0.0580 -0.1036
  782MOL0     C 5457  10.772   1.042   3.384 -0.0453 -0.0087  0.3523
  782MOL0     C 5458  10.826   0.916   3.438  0.2281  0.2526 -0.1160
  782MOL0     O 5459  10.839   0.942   3.578 -0.4405 -0.1854  0.4930
  782MOL0     C 5460  10.928   0.855   3.636 -0.4583 -0.1094 -0.6809
  782MOL0     C 5461  10.875   0.744   3.707 -0.1173 -0.1678 -0.0519
  782MOL0     C 5462  10.960   0.650   3.763  0.3604 -0.6868  0.0849
  782MOL0     C 5463  11.103   0.671   3.766  0.3949 -0.2288  0.2567
  782MOL0     C 5464  11.186   0.574   3.829 -0.0595  0.3837  0.3570
  782MOL0     O 5465  11.131   0.482   3.913  0.5643 -0.1561  0.4313
  782MOL0     C 5466  11.204   0.375   3.962 -0.3507 -0.1055  0.6710
  782MOL0     C 5467  11.213   0.335   4.091 -0.9316  0.5620 -0.3878
  782MOL0     C 5468  11.293   0.222   4.120 -0.4025  0.0754  0.9506
  782MOL0     C 5469  11.350   0.140   4.017 -0.3640  0.2367  0.5933
  782MOL0     O 5470  11.410   0.027   4.042  0.0955 -0.3736 -0.9903
  782MOL0     C 5471  11.341  -0.078   4.105 -0.2916  0.6446  0.5325
  782MOL0     C 5472  11.436  -0.198   4.137  0.3261  0.9115  0.0211
  782MOL0     C 5473  11.564  -0.158   4.218 -0.4708  0.2088 -0.3054
  782MOL0     C 5474  11.535  -0.111   4.361  0.5304 -0.8262 -0.2643
  782MOL0     C 5475  11.662  -0.080   4.433  0.2865  0.7133  0.8643
  782MOL0     C 5476  11.630  -0.003   4.560 -0.1691 -0.1397  0.6121
  782MOL0     C 5477  11.759   0.053   4.635  0.2493 -0.2835  0.2518
  782MOL0     C 5478  11.713   0.148   4.750 -0.6151 -0.7273 -0.8473
  782MOL0    Cl 5479  11.867   0.191   4.835 -0.0326  0.2310  0.0349
  782MOL0     C 5480  11.328   0.178   3.885 -0.0357  0.2515  0.3573
  782MOL0     C 5481  11.257   0.294   3.860  0.2072  1.0446  0.0629
  782MOL0     O 5482  11.305   0.586   3.805  0.3550  0.3844 -0.2348
  782MOL0     C 5483  11.159   0.780   3.692  0.3883  0.3604 -0.5288
  782MOL0     C 5484  11.069   0.875   3.640  0.4665  0.4182  0.3434
  782MOL0     N 5485  10.948   1.369   3.039  0.2154  1.1543 -0.1814
  782MOL0     N 5486  10.932   1.371   2.907 -1.3569  0.2410 -0.7401
  782MOL0     C 5487   9.947   1.350   2.060  0.0688  0.2770 -0.4828
  782MOL0     C 5488   9.817   1.315   2.035 -0.0379  0.2863 -0.3883
  782MOL0     C 5489   9.365   1.403   1.911 -0.4585 -1.1338  0.6655
  782MOL0     C 5490   9.406   1.329   1.798  0.2195  0.0603 -0.2884
  782MOL0     C 5491   9.311   1.280   1.703  0.4031  0.2185 -0.8740
  782MOL0     C 5492   9.175   1.293   1.739  0.0739  0.6514 -0.0657
  782MOL0     O 5493   9.081   1.252   1.645  0.5209  0.0939  0.6370
  782MOL0     C 5494   8.963   1.337   1.616  0.3719  0.2677  0.2508
  782MOL0     C 5495   8.852   1.259   1.530  0.1902  0.0961 -0.0422
  782MOL0     C 5496   8.883   1.288   1.383 -0.4444  0.4679  0.2354
  782MOL0     C 5497   8.775   1.239   1.282  0.4533 -0.3210  0.2004
  782MOL0     C 5498   8.635   1.290   1.299 -0.0731  0.6901 -0.5941
  782MOL0     C 5499   8.520   1.320   1.324 -0.0491 -0.6121 -0.1026
  782MOL0     C 5500   9.134   1.377   1.849 -0.1791  0.9945 -0.8539
  782MOL0     C 5501   9.231   1.423   1.942 -0.9298 -0.2945 -0.1679
  782MOL0     C 5502   9.195   1.478   2.082  0.5296 -0.2081 -0.3365
  782MOL0     H 5503   9.669   1.623   2.076  1.1000  0.8979 -3.2004
  782MOL0     H 5504   9.900   1.685   2.134 -2.3812  1.3049 -1.4478
  782MOL0     H 5505  10.168   1.645   2.266  2.6274 -0.0750  1.1891
  782MOL0     H 5506  10.098   1.491   2.330 -0.7085  0.6214 -0.4942
  782MOL0     H 5507  10.350   1.545   2.158 -0.0921  1.1063  1.8465
  782MOL0     H 5508  10.278   1.382   2.205 -1.3780  0.1378  0.3441
  782MOL0     H 5509  10.303   1.463   2.441  2.7238  1.4255  2.8395
  782MOL0     H 5510  10.407   1.581   2.386 -1.9501 -0.1870  1.6106
  782MOL0     H 5511  10.427   1.273   2.360  0.4801 -1.3763  2.6621
  782MOL0     H 5512  10.553   1.383   2.289  1.0462  0.2133 -0.0194
  782MOL0     H 5513  10.563   1.481   2.542  1.3950 -0.6835  2.4357
  782MOL0     H 5514  10.446   1.361   2.579 -0.1328  1.9372 -0.5054
  782MOL0     H 5515  10.613   1.185   2.526 -1.0684  2.5411 -2.8399
  782MOL0     H 5516  10.731   1.309   2.486  0.9190 -0.3555 -0.8367
  782MOL0     H 5517  10.604   1.257   2.764  1.3315 -0.0706  1.4555
  782MOL0     H 5518  10.674   1.419   2.730  0.2704  1.4034 -4.1820
  782MOL0     H 5519  10.784   1.135   2.731  0.7280 -1.1902  0.4656
  782MOL0     H 5520  10.884   1.260   2.653 -0.5172 -1.2245 -0.8838
  782MOL0     H 5521  10.727   1.132   2.971 -0.5370 -0.0023 -0.1677
  782MOL0     H 5522  10.877   1.319   3.284  0.3974  0.5762 -1.6132
  782MOL0     H 5523  10.721   1.245   3.237 -0.2873 -0.4673 -1.5018
  782MOL0     H 5524  10.922   1.038   3.212  1.7702  1.7780 -0.9871
  782MOL0     H 5525  10.972   1.141   3.345 -1.2258  5.9255 -1.1551
  782MOL0     H 5526  10.685   1.034   3.319  1.3011 -1.0322 -1.4211
  782MOL0     H 5527  10.744   1.103   3.471 -0.0954 -3.2436  2.7946
  782MOL0     H 5528  10.920   0.883   3.392  0.9486  0.0755  1.4302
  782MOL0     H 5529  10.757   0.834   3.417 -0.3081  0.9184 -1.1056
  782MOL0     H 5530  10.767   0.738   3.701 -0.0710 -0.5412 -0.6467
  782MOL0     H 5531  10.912   0.569   3.816  0.2216 -0.0922  0.8988
  782MOL0     H 5532  11.170   0.405   4.162 -0.3072  2.7530 -2.0407
  782MOL0     H 5533  11.294   0.189   4.223 -1.5934 -0.4270  0.8214
  782MOL0     H 5534  11.286  -0.045   4.194 -3.3134 -1.6014 -0.3401
  782MOL0     H 5535  11.272  -0.134   4.042  2.2770 -1.3934 -0.6284
  782MOL0     H 5536  11.375  -0.267   4.197  0.2731  1.7677  0.9736
  782MOL0     H 5537  11.464  -0.235   4.038  0.7825  2.9698 -0.6693
  782MOL0     H 5538  11.635  -0.241   4.212  0.0066  0.4926  0.9672
  782MOL0     H 5539  11.611  -0.082   4.155  1.0949  0.2992  0.8799
  782MOL0     H 5540  11.475  -0.186   4.413 -0.0460 -0.4697 -0.4027
  782MOL0     H 5541  11.474  -0.021   4.348 -0.3670 -1.2422  0.9485
  782MOL0     H 5542  11.730  -0.019   4.374  0.8110  0.1585  0.8836
  782MOL0     H 5543  11.723  -0.170   4.439  4.9627  3.2587 -2.5102
  782MOL0     H 5544  11.569   0.084   4.536 -0.7717 -0.2166  1.7870
  782MOL0     H 5545  11.584  -0.071   4.633  2.2118 -1.8158  0.6395
  782MOL0     H 5546  11.841   0.094   4.575  1.2363 -2.2746  0.1334
  782MOL0     H 5547  11.817  -0.027   4.683 -0.4076 -2.3873 -2.2001
  782MOL0     H 5548  11.665   0.240   4.715 -2.0091  0.9412  4.5356
  782MOL0     H 5549  11.640   0.099   4.815 -1.2180 -1.8795 -2.3269
  782MOL0     H 5550  11.363   0.109   3.809  0.7705 -0.4120  1.2968
  782MOL0     H 5551  11.240   0.330   3.759 -3.2518  1.9957  0.8224
  782MOL0     H 5552  11.264   0.804   3.704  0.4155  0.1707 -0.3880
  782MOL0     H 5553  11.099   0.965   3.588 -0.6913  0.2207 -0.6984
  782MOL0     H 5554  10.025   1.277   2.079 -1.1277 -1.3671 -1.6475
  782MOL0     H 5555   9.784   1.216   2.003 -0.3130  0.2042  0.1384
  782MOL0     H 5556   9.507   1.315   1.760 -0.4587 -0.2553 -2.0883
  782MOL0     H 5557   9.354   1.229   1.617  5.4792  0.7009  1.0678
  782MOL0     H 5558   9.010   1.415   1.556  0.3133 -0.5451 -0.8851
  782MOL0     H 5559   8.918   1.370   1.710  0.0675 -1.9409  0.9252
  782MOL0     H 5560   8.751   1.300   1.530 -1.0362 -2.6751 -0.2939
  782MOL0     H 5561   8.852   1.152   1.554  0.9628 -0.2873 -1.5900
  782MOL0     H 5562   8.978   1.245   1.348 -1.1875 -1.1428  0.1023
  782MOL0     H 5563   8.884   1.397   1.375  1.3916  0.7155  2.7140
  782MOL0     H 5564   8.804   1.245   1.177  0.2341  0.5816  0.1853
  782MOL0     H 5565   8.770   1.130   1.293 -0.9292 -0.2066  1.0026
  782MOL0     H 5566   8.418   1.354   1.319  0.4944  1.0066 -0.7013
  782MOL0     H 5567   9.031   1.395   1.878 -0.2952 -4.4404  3.8448
  782MOL0     H 5568   9.220   1.583   2.097  0.4313 -0.2930  0.4676
  782MOL0     H 5569   9.086   1.480   2.092  0.5394  3.8093  0.4981
  782MOL0     H 5570   9.240   1.425   2.166  0.1052 -3.5486 -2.0398
  783MOL0     O 5571   4.365   4.344   0.490  0.7439  0.1166 -0.0794
  783MOL0     C 5572   4.278   4.275   0.537  0.5636 -0.1648  0.2112
  783MOL0     O 5573   4.167   4.225   0.474  0.2783  0.3376  0.3119
  783MOL0     C 5574   4.105   4.300   0.377  0.7160  0.7968  1.4461
  783MOL0     C 5575   4.064   4.223   0.269  0.1404  0.5151  0.1486
  783MOL0     C 5576   4.002   4.277   0.164  0.6264 -0.3520  1.0073
  783MOL0     C 5577   3.991   4.414   0.151  0.2976  0.2545 -0.4989
  783MOL0     O 5578   3.925   4.468   0.046 -0.3857  0.0875 -0.0300
  783MOL0     C 5579   3.833   4.570   0.087  0.6302 -0.5821 -0.7331
  783MOL0     C 5580   3.710   4.567   0.001  0.3224 -0.0294 -0.0518
  783MOL0     C 5581   3.615   4.446   0.024  1.2727  0.7377  0.3969
  783MOL0     C 5582   3.628   4.336  -0.091 -0.3046  0.4664 -1.0971
  783MOL0     C 5583   3.525   4.221  -0.082  0.3714 -0.9277 -0.0350
  783MOL0     C 5584   3.505   4.163  -0.226 -0.8583  0.0061  0.1820
  783MOL0     C 5585   3.407   4.041  -0.202 -0.1208 -0.3238  0.2657
  783MOL0     C 5586   3.467   3.901  -0.219  0.5373 -0.1019 -0.6062
  783MOL0     N 5587   3.439   3.817  -0.098 -0.6571 -0.3868 -0.3900
  783MOL0     C 5588   3.470   3.834   0.037 -0.3474 -0.7280  0.2546
  783MOL0     C 5589   3.459   3.719   0.104  0.8298 -0.6121 -0.4218
  783MOL0     C 5590   3.469   3.706   0.257  1.1875 -0.0188  0.5762
  783MOL0     C 5591   3.531   3.575   0.295  0.0877  0.5258 -0.0053
  783MOL0     C 5592   3.560   3.559   0.450 -0.6717  1.2791 -1.0483
  783MOL0     C 5593   3.658   3.451   0.474 -1.6103 -0.1703 -0.1104
  783MOL0     O 5594   3.677   3.414   0.616  0.4634 -0.3070 -0.2829
  783MOL0     C 5595   3.793   3.349   0.628  0.7586 -0.1608 -0.0194
  783MOL0     C 5596   3.840   3.342   0.757 -0.5070 -0.7241  1.2069
  783MOL0     C 5597   3.958   3.288   0.791  0.1717 -0.4096 -0.2416
  783MOL0     C 5598   4.033   3.221   0.691 -0.6979  0.5517 -0.4750
  783MOL0     C 5599   4.159   3.144   0.727  0.0370 -0.1999  0.3502
  783MOL0     O 5600   4.191   3.050   0.648  0.3110  1.1446 -0.6954
  783MOL0     C 5601   4.314   2.984   0.665  0.4841 -0.3737 -0.7051
  783MOL0     C 5602   4.367   2.932   0.782  0.8654 -0.9565 -0.4206
  783MOL0     C 5603   4.490   2.868   0.778 -0.5038  0.0303  0.6810
  783MOL0     C 5604   4.571   2.883   0.656 -0.2804  0.9563 -0.3205
  783MOL0     O 5605   4.696   2.835   0.662  0.5765 -0.8112 -0.0188
  783MOL0     C 5606   4.784   2.881   0.566 -0.5402 -0.1561 -0.1373
  783MOL0     C 5607   4.914   2.801   0.596 -0.0017 -0.4904 -0.1573
  783MOL0     C 5608   4.923   2.651   0.554 -0.1874 -0.6323 -0.4882
  783MOL0     C 5609   4.862   2.565   0.663  0.6599  0.7869 -0.1237
  783MOL0     C 5610   4.901   2.418   0.637  0.4446 -0.0589 -0.3703
  783MOL0     C 5611   4.857   2.320   0.742 -0.4593  0.3202  0.6008
  783MOL0     C 5612   4.899   2.178   0.699  0.3287 -0.3650  0.3859
  783MOL0     C 5613   4.847   2.077   0.803  0.7371 -0.0018 -0.5356
  783MOL0    Cl 5614   4.936   2.112   0.963  0.4101  0.0260 -0.1709
  783MOL0     C 5615   4.518   2.954   0.550  0.9489 -0.0472  0.4751
  783MOL0     C 5616   4.392   3.001   0.554  0.2366 -0.6441  0.2591
  783MOL0     O 5617   4.218   3.164   0.837 -0.3153 -0.4041 -0.2172
  783MOL0     C 5618   3.992   3.224   0.557  0.1817 -0.1314 -0.7785
  783MOL0     C 5619   3.867   3.280   0.528 -0.6866 -0.2926  0.5907
  783MOL0     N 5620   3.443   3.625   0.006  0.2773 -0.5174  0.2832
  783MOL0     N 5621   3.418   3.684  -0.110 -0.1364 -0.1049 -0.7537
  783MOL0     C 5622   4.029   4.498   0.254 -0.2271  0.1523 -0.7738
  783MOL0     C 5623   4.090   4.440   0.366 -0.1774 -0.6663  0.2940
  783MOL0     C 5624   4.290   4.222   0.671 -0.5740 -1.1220  0.5104
  783MOL0     C 5625   4.192   4.246   0.772 -0.7682 -0.9333  0.8456
  783MOL0     C 5626   4.208   4.201   0.901  0.0427 -0.4903  0.1869
  783MOL0     C 5627   4.320   4.130   0.939  0.8237  0.6973  0.0827
  783MOL0     O 5628   4.344   4.078   1.061  0.2453 -0.2909  0.1072
  783MOL0     C 5629   4.246   3.986   1.111  0.3454  0.4248  0.7085
  783MOL0     C 5630   4.249   3.981   1.252  0.1132 -0.2926 -1.0751
  783MOL0     C 5631   4.367   3.889   1.297 -0.0361  0.2614  0.3425
  783MOL0     C 5632   4.388   3.882   1.449  0.8006 -0.2870 -0.9061
  783MOL0     C 5633   4.399   4.023   1.502  0.7416  0.5744 -0.2007
  783MOL0     C 5634   4.413   4.139   1.535 -0.2981 -0.5966 -0.2007
  783MOL0     C 5635   4.417   4.090   0.838 -0.4469 -0.2250  0.6984
  783MOL0     C 5636   4.415   4.144   0.706 -0.1915 -0.2993  0.0243
  783MOL0     C 5637   4.527   4.109   0.606  0.1710  0.6169  0.2877
  783MOL0     H 5638   4.061   4.115   0.260 -0.9088  0.6037 -0.9144
  783MOL0     H 5639   3.945   4.230   0.084  1.6109 -0.6909  0.4865
  783MOL0     H 5640   3.792   4.572   0.188 -0.1769  2.1443 -1.0174
  783MOL0     H 5641   3.880   4.666   0.063  0.5464 -0.9543 -2.5818
  783MOL0     H 5642   3.729   4.591  -0.104  1.5519  1.8133  0.5316
  783MOL0     H 5643   3.653   4.654   0.037 -2.4464 -1.9175  0.4341
  783MOL0     H 5644   3.519   4.496   0.038  2.6551  3.0206  2.7533
  783MOL0     H 5645   3.630   4.397   0.121 -0.7500 -0.3786  0.1925
  783MOL0     H 5646   3.621   4.383  -0.190  2.4096 -1.1619 -2.1614
  783MOL0     H 5647   3.725   4.285  -0.086 -0.6733 -0.2466 -1.1096
  783MOL0     H 5648   3.551   4.153   0.000  2.8147 -0.8951 -0.6886
  783MOL0     H 5649   3.430   4.267  -0.055  0.5185  0.5876 -1.8929
  783MOL0     H 5650   3.464   4.240  -0.293 -0.8832  0.1779  0.3946
  783MOL0     H 5651   3.595   4.130  -0.279 -2.5097 -2.9298 -1.0409
  783MOL0     H 5652   3.334   4.044  -0.283 -0.7197  1.6617  0.8305
  783MOL0     H 5653   3.356   4.060  -0.107  1.0747  2.7854  0.3858
  783MOL0     H 5654   3.417   3.853  -0.304  0.9408 -3.2443  0.7798
  783MOL0     H 5655   3.575   3.899  -0.233  0.7579  2.6813  0.2619
  783MOL0     H 5656   3.479   3.929   0.088 -0.0890 -0.0956 -0.9188
  783MOL0     H 5657   3.529   3.783   0.306 -0.7603  0.6035  2.1429
  783MOL0     H 5658   3.367   3.718   0.295  0.3129  0.6654 -1.8338
  783MOL0     H 5659   3.459   3.497   0.271  1.0264 -0.0229 -1.1478
  783MOL0     H 5660   3.623   3.564   0.237  0.6496 -0.1715  0.9914
  783MOL0     H 5661   3.471   3.526   0.505  1.8252 -4.2145  0.3804
  783MOL0     H 5662   3.592   3.655   0.493  3.2194 -0.5791  0.5975
  783MOL0     H 5663   3.749   3.499   0.437 -0.5302 -0.5776  1.8709
  783MOL0     H 5664   3.632   3.371   0.403  0.4093 -2.3817  1.4812
  783MOL0     H 5665   3.769   3.391   0.823 -1.8585 -1.6564  0.5052
  783MOL0     H 5666   4.003   3.298   0.889  1.1572  2.9540 -0.9055
  783MOL0     H 5667   4.320   2.956   0.877 -0.3283 -0.2114 -1.1810
  783MOL0     H 5668   4.533   2.828   0.870  1.8663  2.8895  0.9428
  783MOL0     H 5669   4.776   2.848   0.462  5.2601 -4.4176  0.2653
  783MOL0     H 5670   4.801   2.989   0.571 -0.6769 -0.1171 -0.4621
  783MOL0     H 5671   4.999   2.836   0.536  0.9950 -4.8770 -1.6618
  783MOL0     H 5672   4.941   2.805   0.701 -1.3678  0.0273  0.1988
  783MOL0     H 5673   4.872   2.630   0.459  1.4728 -1.3775 -1.2664
  783MOL0     H 5674   5.029   2.625   0.546  0.2810  1.0695 -0.1624
  783MOL0     H 5675   4.753   2.573   0.654  0.3818 -3.0565 -2.7594
  783MOL0     H 5676   4.897   2.608   0.758  1.3555  1.3488 -0.6265
  783MOL0     H 5677   5.010   2.405   0.628  0.5730 -0.4074  1.2879
  783MOL0     H 5678   4.850   2.390   0.545 -0.0422  1.9737 -0.7769
  783MOL0     H 5679   4.896   2.360   0.836  1.7106  0.7073 -0.4096
  783MOL0     H 5680   4.748   2.332   0.744 -0.3893  1.0198  0.5457
  783MOL0     H 5681   5.008   2.168   0.709  0.5043 -0.2330 -1.1288
  783MOL0     H 5682   4.876   2.157   0.594 -0.4929 -1.3434  0.7517
  783MOL0     H 5683   4.740   2.090   0.819  0.1646 -2.6611 -1.6248
  783MOL0     H 5684   4.853   1.971   0.777  0.0448  0.0810 -1.0342
  783MOL0     H 5685   4.569   2.988   0.461 -1.6341  1.1025 -0.6774
  783MOL0     H 5686   4.346   3.056   0.473 -1.1671  0.3636  1.6814
  783MOL0     H 5687   4.036   3.171   0.473 -1.8133 -3.0542 -0.1606
  783MOL0     H 5688   3.834   3.277   0.425 -1.6024 -1.3373  0.8915
  783MOL0     H 5689   4.024   4.606   0.251 -0.0108  0.4332  3.2319
  783MOL0     H 5690   4.116   4.520   0.435 -0.2767  3.5064 -4.0180
  783MOL0     H 5691   4.107   4.308   0.745  0.3347 -0.2251 -1.2010
  783MOL0     H 5692   4.128   4.232   0.968  0.0292  1.8515 -0.8133
  783MOL0     H 5693   4.274   3.891   1.065 -1.4176 -0.8911  2.2409
  783MOL0     H 5694   4.145   3.997   1.070  0.1731 -0.8914  0.7409
  783MOL0     H 5695   4.164   3.925   1.292  2.3593 -1.7198  2.1870
  783MOL0     H 5696   4.258   4.082   1.293  0.3249 -0.9435  0.5478
  783MOL0     H 5697   4.449   3.949   1.257 -2.2305  0.8794 -3.7866
  783MOL0     H 5698   4.365   3.794   1.243  0.3923 -0.1587  1.0527
  783MOL0     H 5699   4.297   3.843   1.496  0.4675  0.8972 -0.5440
  783MOL0     H 5700   4.476   3.825   1.481 -1.0571 -3.1496 -0.4571
  783MOL0     H 5701   4.443   4.237   1.566  2.8430 -1.7957  0.9889
  783MOL0     H 5702   4.503   4.032   0.872 -2.0175 -1.0790  3.5424
  783MOL0     H 5703   4.631   4.137   0.628  0.5149 -2.2418  2.9039
  783MOL0     H 5704   4.530   4.000   0.606 -2.1266  0.4891  2.0446
  783MOL0     H 5705   4.524   4.150   0.504  2.9759  0.1026 -0.0991
  784MOL0     O 5706   2.526   1.915   0.592  0.4665  0.5094 -0.3653
  784MOL0     C 5707   2.467   1.804   0.600  0.1221  0.1107 -0.4309
  784MOL0     O 5708   2.514   1.702   0.670  0.2790  0.3273 -0.3038
  784MOL0     C 5709   2.638   1.701   0.718 -0.6987  0.1764 -0.1839
  784MOL0     C 5710   2.675   1.782   0.828  0.5012 -0.4294  0.6074
  784MOL0     C 5711   2.805   1.786   0.878  0.0101 -0.6804 -0.0416
  784MOL0     C 5712   2.893   1.689   0.828 -0.2969  0.2738  0.6464
  784MOL0     O 5713   3.023   1.668   0.880  0.1401  0.3113 -0.7347
  784MOL0     C 5714   3.076   1.774   0.962 -1.0552  0.0174 -0.0673
  784MOL0     C 5715   3.232   1.746   0.987  0.0800 -0.2804  0.0685
  784MOL0     C 5716   3.286   1.862   1.082  0.5348  0.0712 -0.6444
  784MOL0     C 5717   3.437   1.858   1.083  0.0537 -0.1744 -0.2656
  784MOL0     C 5718   3.492   1.967   1.181 -0.0644 -0.0165 -0.0472
  784MOL0     C 5719   3.638   2.003   1.138 -1.0754 -0.7572  0.3527
  784MOL0     C 5720   3.740   1.888   1.153 -0.3037 -0.2426 -0.5901
  784MOL0     C 5721   3.847   1.880   1.042 -0.3963 -0.0365  0.5992
  784MOL0     N 5722   3.785   1.869   0.899  0.3244  0.0948 -0.4215
  784MOL0     C 5723   3.684   1.782   0.852  0.2472  0.1001  0.1043
  784MOL0     C 5724   3.670   1.806   0.715 -0.0512 -0.7010  0.1717
  784MOL0     C 5725   3.580   1.744   0.617  0.0886 -0.6043 -0.5836
  784MOL0     C 5726   3.434   1.747   0.665  0.1173  0.1131  0.0095
  784MOL0     C 5727   3.357   1.676   0.554  0.4777 -0.5460 -0.5338
  784MOL0     C 5728   3.209   1.670   0.589  0.5868  0.6304  0.4409
  784MOL0     O 5729   3.128   1.603   0.489 -0.0267 -0.3851 -0.4183
  784MOL0     C 5730   3.101   1.465   0.492  0.1390 -0.4473  0.1586
  784MOL0     C 5731   3.046   1.409   0.381  0.0725 -0.7063 -0.2265
  784MOL0     C 5732   3.019   1.272   0.377 -0.6649 -0.2394 -0.1363
  784MOL0     C 5733   3.067   1.193   0.480 -0.0258  1.0702  1.4061
  784MOL0     C 5734   3.038   1.047   0.467 -0.0168  0.7735  0.1856
  784MOL0     O 5735   3.060   0.969   0.580  0.2007  0.5912  0.2395
  784MOL0     C 5736   3.029   0.834   0.595  0.9560  1.0956 -0.0079
  784MOL0     C 5737   3.038   0.789   0.726 -0.4889  0.2527 -0.4861
  784MOL0     C 5738   3.034   0.664   0.772  0.5902  0.2383 -0.0714
  784MOL0     C 5739   2.996   0.565   0.681 -0.0428 -0.0794 -0.3436
  784MOL0     O 5740   2.973   0.432   0.708 -0.0826  0.8112 -0.5385
  784MOL0     C 5741   2.900   0.386   0.823  0.3023  0.2291  0.4710
  784MOL0     C 5742   2.758   0.435   0.821 -0.7293 -0.7430 -0.0468
  784MOL0     C 5743   2.693   0.389   0.695  0.0880 -0.7234  0.9627
  784MOL0     C 5744   2.556   0.456   0.702  0.4491  0.0979  0.5852
  784MOL0     C 5745   2.456   0.417   0.588 -0.6391  0.7816 -0.1839
  784MOL0     C 5746   2.309   0.465   0.623 -0.2235 -1.1435 -1.2368
  784MOL0     C 5747   2.286   0.619   0.649 -0.4921 -0.1268  0.4289
  784MOL0     C 5748   2.303   0.717   0.528 -0.5629 -0.0412  0.6604
  784MOL0    Cl 5749   2.314   0.893   0.579  0.1023 -0.3567 -0.1019
  784MOL0     C 5750   2.996   0.601   0.541  0.3910  0.7406 -0.2567
  784MOL0     C 5751   2.997   0.736   0.503  0.2475  0.0092  0.8494
  784MOL0     O 5752   2.993   1.003   0.366  0.2331  0.2710 -0.3390
  784MOL0     C 5753   3.127   1.251   0.593  0.0229 -0.1648  0.2447
  784MOL0     C 5754   3.142   1.386   0.592  0.1607 -0.2306  0.0392
  784MOL0     N 5755   3.761   1.903   0.683 -0.0534  0.2149  0.8572
  784MOL0     N 5756   3.818   1.942   0.789 -0.1978  0.3068  0.0962
  784MOL0     C 5757   2.866   1.615   0.718  0.1118 -0.7009 -0.0142
  784MOL0     C 5758   2.735   1.616   0.662  0.0775  0.2079 -0.1809
  784MOL0     C 5759   2.325   1.800   0.562 -0.1734  0.6577  0.3669
  784MOL0     C 5760   2.267   1.916   0.504 -0.1761  0.1702  0.5913
  784MOL0     C 5761   2.145   1.908   0.432  0.7444  0.6283  0.4542
  784MOL0     C 5762   2.071   1.792   0.437  0.2541 -0.5450 -0.1306
  784MOL0     O 5763   1.961   1.781   0.356  0.5651  0.2220  0.3963
  784MOL0     C 5764   1.866   1.677   0.369  0.2609  0.8407  0.3863
  784MOL0     C 5765   1.739   1.694   0.289  0.4034  0.2848 -0.2347
  784MOL0     C 5766   1.676   1.556   0.259 -0.7636 -0.7581  0.3695
  784MOL0     C 5767   1.581   1.563   0.144  0.4787 -0.3900  0.3871
  784MOL0     C 5768   1.478   1.661   0.166 -0.8277 -0.1467 -0.4082
  784MOL0     C 5769   1.390   1.746   0.174 -0.9591 -0.3761  0.5773
  784MOL0     C 5770   2.113   1.690   0.524 -0.1012 -0.0633 -0.0803
  784MOL0     C 5771   2.239   1.684   0.583 -0.6178  0.3326  0.1329
  784MOL0     C 5772   2.275   1.555   0.651 -0.9354 -0.0032  0.2698
  784MOL0     H 5773   2.596   1.837   0.877 -0.6110 -3.8130  2.9858
  784MOL0     H 5774   2.837   1.862   0.949 -0.9438 -0.2513 -0.0389
  784MOL0     H 5775   3.066   1.870   0.911  1.9938  0.0622 -0.7696
  784MOL0     H 5776   3.028   1.775   1.061 -1.6566  0.5124 -0.3554
  784MOL0     H 5777   3.296   1.769   0.901  2.5586  2.1059  2.3455
  784MOL0     H 5778   3.252   1.644   1.022 -0.5114 -0.9462 -1.4465
  784MOL0     H 5779   3.237   1.862   1.180 -1.0370 -0.9879 -1.3806
  784MOL0     H 5780   3.254   1.954   1.032 -0.2869  0.8916  1.3113
  784MOL0     H 5781   3.482   1.761   1.102  0.8395  0.2560  0.0968
  784MOL0     H 5782   3.481   1.883   0.986 -0.6450 -1.1836 -0.8617
  784MOL0     H 5783   3.427   2.055   1.176 -1.5677 -0.8615  2.7419
  784MOL0     H 5784   3.483   1.944   1.288  0.5269  3.3390  0.8659
  784MOL0     H 5785   3.633   2.036   1.033 -0.4879  3.7895  1.5598
  784MOL0     H 5786   3.672   2.081   1.207 -1.5385 -1.2314  1.1247
  784MOL0     H 5787   3.686   1.793   1.142 -0.3906  0.0425 -3.5907
  784MOL0     H 5788   3.786   1.897   1.251  2.7878  3.3169 -2.1318
  784MOL0     H 5789   3.908   1.971   1.039  2.7574 -1.9756 -3.3896
  784MOL0     H 5790   3.914   1.794   1.049  3.5250  2.7102  0.6271
  784MOL0     H 5791   3.634   1.714   0.920  1.9166 -0.0480  1.2164
  784MOL0     H 5792   3.580   1.805   0.526 -0.2961 -1.3476 -1.0955
  784MOL0     H 5793   3.615   1.643   0.596  2.7766  0.2917 -0.7673
  784MOL0     H 5794   3.433   1.687   0.757  2.1667  1.8043  1.2510
  784MOL0     H 5795   3.397   1.848   0.687 -0.9088 -0.5753  1.6708
  784MOL0     H 5796   3.397   1.576   0.535 -1.2229 -0.5018 -6.6379
  784MOL0     H 5797   3.366   1.713   0.451  0.0065 -0.1249 -0.4287
  784MOL0     H 5798   3.180   1.776   0.590  0.5017  0.6148  1.6567
  784MOL0     H 5799   3.187   1.628   0.688 -1.7062 -2.4227 -1.2046
  784MOL0     H 5800   3.011   1.478   0.305 -0.2827 -1.8739 -1.1674
  784MOL0     H 5801   2.957   1.232   0.297  1.8595  0.2533 -2.4876
  784MOL0     H 5802   3.054   0.863   0.803  2.1653 -1.1849  0.4651
  784MOL0     H 5803   3.031   0.643   0.879 -1.0608  0.9419  0.0432
  784MOL0     H 5804   2.909   0.278   0.831  1.6801  0.0849 -1.9567
  784MOL0     H 5805   2.937   0.432   0.915 -1.1021  3.0750 -0.2617
  784MOL0     H 5806   2.708   0.391   0.907 -2.9110 -1.2209 -1.4837
  784MOL0     H 5807   2.758   0.544   0.829  1.3525 -0.7923  1.4775
  784MOL0     H 5808   2.746   0.421   0.605 -1.1019 -0.8587  0.1880
  784MOL0     H 5809   2.684   0.282   0.677 -0.9534 -0.3415 -1.1489
  784MOL0     H 5810   2.581   0.562   0.689  3.5164 -0.6650 -0.8918
  784MOL0     H 5811   2.498   0.449   0.794 -0.0704 -0.9182  0.1909
  784MOL0     H 5812   2.462   0.307   0.587  2.5155  0.8308  1.4985
  784MOL0     H 5813   2.495   0.454   0.493  1.2223 -2.1712 -0.6981
  784MOL0     H 5814   2.240   0.423   0.550  0.2381 -0.4471 -2.1041
  784MOL0     H 5815   2.278   0.416   0.715  1.1788  0.6066  0.2634
  784MOL0     H 5816   2.358   0.657   0.722  0.5585 -2.6334  0.8188
  784MOL0     H 5817   2.192   0.630   0.706  0.2059  0.3524  1.5231
  784MOL0     H 5818   2.395   0.705   0.470  0.3450  3.3505  1.1894
  784MOL0     H 5819   2.218   0.704   0.461 -0.2412 -1.0400  0.4324
  784MOL0     H 5820   2.992   0.522   0.467 -0.2791 -0.4798  1.0602
  784MOL0     H 5821   2.987   0.757   0.397  3.3761  0.2308  0.4972
  784MOL0     H 5822   3.170   1.187   0.668 -0.4985 -2.6643 -1.4734
  784MOL0     H 5823   3.204   1.414   0.677  0.2826  1.4561 -0.5718
  784MOL0     H 5824   2.930   1.534   0.685 -1.5978 -1.1226 -2.5378
  784MOL0     H 5825   2.702   1.555   0.578 -0.5605  1.3159 -0.7623
  784MOL0     H 5826   2.334   2.001   0.507  0.9433 -0.5614 -1.3981
  784MOL0     H 5827   2.112   1.994   0.375  0.5581 -1.1351 -2.3101
  784MOL0     H 5828   1.833   1.651   0.470 -4.0572 -0.5238 -1.1695
  784MOL0     H 5829   1.916   1.589   0.326 -0.2606  1.0321 -0.6344
  784MOL0     H 5830   1.756   1.764   0.206 -1.7387  0.3151 -0.7145
  784MOL0     H 5831   1.661   1.749   0.343  1.3736  2.1126 -0.5896
  784MOL0     H 5832   1.627   1.519   0.350  2.0451 -2.5799  1.2657
  784MOL0     H 5833   1.761   1.488   0.247  0.7770  0.7696  2.0145
  784MOL0     H 5834   1.624   1.574   0.044 -3.9653  1.6357 -1.5972
  784MOL0     H 5835   1.535   1.463   0.143  2.4771 -1.3660 -0.4818
  784MOL0     H 5836   1.301   1.803   0.162 -1.0172 -0.2752  1.3952
  784MOL0     H 5837   2.042   1.614   0.552  0.6627 -0.6647  0.2680
  784MOL0     H 5838   2.191   1.488   0.672  0.2668 -1.3880  0.8062
  784MOL0     H 5839   2.352   1.503   0.595 -1.9790 -0.9912 -0.2949
  784MOL0     H 5840   2.323   1.576   0.747 -1.5654  0.8952  0.4098
  785MOL0     O 5841   5.003  11.448   0.621  0.0857  0.5210 -0.2201
  785MOL0     C 5842   4.941  11.383   0.532  0.1940 -0.2588 -0.5231
  785MOL0     O 5843   4.856  11.278   0.562  0.4496 -0.5770 -0.0952
  785MOL0     C 5844   4.843  11.220   0.686  0.1709 -0.0266 -0.2126
  785MOL0     C 5845   4.946  11.224   0.789  0.2573  0.2228 -1.3148
  785MOL0     C 5846   4.918  11.153   0.908 -1.2540 -0.3161 -0.3162
  785MOL0     C 5847   4.793  11.089   0.935 -0.0346  0.5786 -0.1318
  785MOL0     O 5848   4.771  11.015   1.053 -0.2481 -0.4742 -0.1018
  785MOL0     C 5849   4.714  11.090   1.169  0.1025 -0.6565  0.3342
  785MOL0     C 5850   4.831  11.120   1.264  0.1923  0.2106  0.1693
  785MOL0     C 5851   4.914  10.998   1.313 -0.7258 -0.2781  0.6658
  785MOL0     C 5852   5.027  10.960   1.205  0.3221 -0.4279 -0.2178
  785MOL0     C 5853   5.154  11.045   1.233 -0.6675  0.1898 -0.6640
  785MOL0     C 5854   5.274  11.015   1.139  0.5835  0.0245  0.0387
  785MOL0     C 5855   5.413  11.003   1.202 -0.9960 -0.3622 -0.3563
  785MOL0     C 5856   5.517  10.984   1.090  0.2017  0.0437  0.1551
  785MOL0     N 5857   5.658  10.972   1.121 -0.6594 -0.3380 -0.4160
  785MOL0     C 5858   5.723  10.892   1.220  0.0030  0.3612 -0.3116
  785MOL0     C 5859   5.846  10.914   1.196 -0.0694 -0.9720 -1.1197
  785MOL0     C 5860   5.948  10.855   1.291  0.2599 -0.5387  0.6935
  785MOL0     C 5861   5.981  10.713   1.243  0.3029  0.1966  0.7304
  785MOL0     C 5862   6.113  10.659   1.293  1.4348  0.4259 -0.4845
  785MOL0     C 5863   6.156  10.524   1.221  0.2786 -0.0211 -0.6314
  785MOL0     O 5864   6.133  10.537   1.080  1.0372  0.1781  0.8984
  785MOL0     C 5865   6.234  10.574   0.994  0.1188  0.8398  0.2294
  785MOL0     C 5866   6.357  10.620   1.045  0.3172 -0.9031 -0.4756
  785MOL0     C 5867   6.461  10.653   0.962  0.4004 -0.0111 -0.7118
  785MOL0     C 5868   6.438  10.650   0.820 -0.1105  0.0810 -0.8082
  785MOL0     C 5869   6.544  10.670   0.724  0.0352  0.1946  0.4204
  785MOL0     O 5870   6.624  10.775   0.739  0.2684  0.3533  0.1627
  785MOL0     C 5871   6.745  10.803   0.671  0.2155 -0.2547 -1.0308
  785MOL0     C 5872   6.828  10.706   0.617 -0.4321 -0.7096  0.2699
  785MOL0     C 5873   6.953  10.745   0.565 -0.3618  0.1607  0.0531
  785MOL0     C 5874   7.005  10.876   0.579  0.7310 -0.8449 -0.3938
  785MOL0     O 5875   7.123  10.912   0.518  0.5418 -0.0768  0.3029
  785MOL0     C 5876   7.146  11.034   0.461  0.5964 -1.0225  0.4649
  785MOL0     C 5877   7.277  11.056   0.395 -0.2851 -0.6326 -0.5015
  785MOL0     C 5878   7.295  11.193   0.343 -0.7921 -0.6639 -0.6172
  785MOL0     C 5879   7.302  11.303   0.451 -0.3168 -0.6368  0.8683
  785MOL0     C 5880   7.287  11.439   0.373  0.3569  0.5510  0.5959
  785MOL0     C 5881   7.228  11.567   0.454 -0.4929  0.1743  0.1601
  785MOL0     C 5882   7.343  11.621   0.533 -0.5113  0.1332  0.2707
  785MOL0     C 5883   7.291  11.707   0.645 -0.1597 -0.4414  0.0782
  785MOL0    Cl 5884   7.403  11.709   0.793  0.3529 -0.3319 -0.1157
  785MOL0     C 5885   6.922  10.974   0.641  1.3250  0.5827 -0.1198
  785MOL0     C 5886   6.784  10.939   0.684  0.4262  1.1370 -0.2155
  785MOL0     O 5887   6.554  10.584   0.636  0.3643 -0.5183  0.4512
  785MOL0     C 5888   6.303  10.627   0.778  0.1012  0.3652  0.1639
  785MOL0     C 5889   6.201  10.589   0.861 -0.1829  0.9693 -0.4227
  785MOL0     N 5890   5.871  10.995   1.086  0.4963  0.1556 -0.1743
  785MOL0     N 5891   5.757  11.032   1.045 -0.5329  0.4536  0.9966
  785MOL0     C 5892   4.704  11.077   0.821 -0.9541  1.0038 -0.5715
  785MOL0     C 5893   4.732  11.139   0.705  0.5330  0.1883 -0.9407
  785MOL0     C 5894   4.972  11.417   0.391  1.3171 -0.5332  1.0427
  785MOL0     C 5895   4.865  11.401   0.302  0.4367  1.2707 -0.0179
  785MOL0     C 5896   4.872  11.432   0.168 -0.9916 -1.0227  0.3304
  785MOL0     C 5897   4.991  11.476   0.115 -0.7935  0.4322  0.4711
  785MOL0     O 5898   4.993  11.507  -0.019  0.5203  0.2243  0.2888
  785MOL0     C 5899   5.128  11.537  -0.073  0.4222 -0.0841 -0.1450
  785MOL0     C 5900   5.138  11.555  -0.226  0.0367  0.3223  0.6058
  785MOL0     C 5901   5.286  11.578  -0.259 -0.2610 -0.7470  0.5868
  785MOL0     C 5902   5.319  11.493  -0.387  0.7208  0.6690  0.2986
  785MOL0     C 5903   5.313  11.340  -0.369  0.7685 -1.0439  0.4056
  785MOL0     C 5904   5.309  11.220  -0.374  0.0061 -0.4850 -0.2291
  785MOL0     C 5905   5.102  11.485   0.196 -0.7904 -1.0824 -0.8047
  785MOL0     C 5906   5.095  11.454   0.332 -0.8944  0.3812  0.8560
  785MOL0     C 5907   5.230  11.449   0.408  0.1789 -0.3832  1.2032
  785MOL0     H 5908   5.043  11.273   0.783  0.2731  0.5071  0.6624
  785MOL0     H 5909   5.003  11.165   0.973 -1.2611 -1.1183 -0.1538
  785MOL0     H 5910   4.662  11.181   1.138 -3.3253 -1.8602  2.0711
  785MOL0     H 5911   4.646  11.026   1.226 -0.9923 -0.0961 -0.3235
  785MOL0     H 5912   4.792  11.167   1.355 -2.2898 -2.5316  0.7164
  785MOL0     H 5913   4.900  11.188   1.215  0.2195  0.7076  0.8818
  785MOL0     H 5914   4.841  10.917   1.321 -1.7454  0.7938  3.2067
  785MOL0     H 5915   4.972  10.999   1.406  1.4792 -1.8172 -0.5934
  785MOL0     H 5916   5.062  10.857   1.220  4.6926  0.5263 -2.2702
  785MOL0     H 5917   5.002  10.976   1.100 -1.0995  1.6194  0.3798
  785MOL0     H 5918   5.144  11.154   1.230 -2.5959  0.0733  0.0301
  785MOL0     H 5919   5.179  11.019   1.336  0.9471 -0.3012 -1.1597
  785MOL0     H 5920   5.256  10.919   1.090 -0.7925  0.1505  0.2535
  785MOL0     H 5921   5.278  11.095   1.065  2.3461  0.1391  0.2226
  785MOL0     H 5922   5.424  10.926   1.279 -1.9476  0.9470  1.1387
  785MOL0     H 5923   5.430  11.100   1.249 -0.8770 -0.4502 -0.2181
  785MOL0     H 5924   5.481  10.900   1.030 -0.7173  0.4859  0.0820
  785MOL0     H 5925   5.501  11.061   1.014 -3.3249  1.3463  2.0344
  785MOL0     H 5926   5.678  10.826   1.294  0.3585  1.5318  0.9936
  785MOL0     H 5927   6.035  10.920   1.301  0.1791  0.0204 -1.6138
  785MOL0     H 5928   5.901  10.843   1.389 -5.5501 -2.7862 -1.9127
  785MOL0     H 5929   5.893  10.654   1.272 -1.0690  2.3339  1.1999
  785MOL0     H 5930   5.981  10.721   1.134 -2.6746  1.3705  0.7211
  785MOL0     H 5931   6.113  10.636   1.400 -1.1106 -2.1880 -0.9108
  785MOL0     H 5932   6.187  10.735   1.266  2.9453 -0.0225  2.0923
  785MOL0     H 5933   6.090  10.444   1.256 -1.8204  2.0383  0.3446
  785MOL0     H 5934   6.261  10.499   1.242  1.3939  1.4264 -3.7582
  785MOL0     H 5935   6.374  10.639   1.151  0.0309 -1.6009 -0.2921
  785MOL0     H 5936   6.562  10.668   0.998  0.0515  0.4759  0.0784
  785MOL0     H 5937   6.803  10.600   0.623 -1.5274 -0.3879  2.4394
  785MOL0     H 5938   7.021  10.667   0.531 -2.6576 -1.3957 -1.2986
  785MOL0     H 5939   7.072  11.048   0.381  1.8602 -4.2623 -1.4523
  785MOL0     H 5940   7.127  11.107   0.541  0.6307 -2.9164  2.2851
  785MOL0     H 5941   7.363  11.044   0.461  0.0673  0.6976 -0.6911
  785MOL0     H 5942   7.292  10.981   0.317  0.6036  1.5402 -2.5270
  785MOL0     H 5943   7.389  11.186   0.288 -1.5598  0.3747 -2.1392
  785MOL0     H 5944   7.216  11.223   0.274 -0.7844  1.7819  0.3490
  785MOL0     H 5945   7.399  11.294   0.501 -0.0771  2.3678  1.1502
  785MOL0     H 5946   7.223  11.294   0.526 -0.2631  1.9610  1.3256
  785MOL0     H 5947   7.212  11.432   0.293 -0.7466  0.3341  1.6269
  785MOL0     H 5948   7.380  11.464   0.321 -0.4034 -3.4070 -3.2767
  785MOL0     H 5949   7.176  11.629   0.381 -2.2405  1.3391  2.2651
  785MOL0     H 5950   7.140  11.543   0.514 -0.0382 -1.6962  0.1375
  785MOL0     H 5951   7.423  11.674   0.480 -2.7640  3.0612 -0.4257
  785MOL0     H 5952   7.394  11.533   0.575  1.1297  0.5795 -0.7097
  785MOL0     H 5953   7.274  11.811   0.615  3.0736 -0.3988 -1.9813
  785MOL0     H 5954   7.193  11.676   0.683 -1.0826 -1.2543 -2.7388
  785MOL0     H 5955   6.940  11.079   0.665 -0.6591  0.8516  0.3334
  785MOL0     H 5956   6.721  11.022   0.716 -2.4796 -0.8796 -0.3102
  785MOL0     H 5957   6.280  10.633   0.672  1.0057 -2.8846 -0.3317
  785MOL0     H 5958   6.099  10.571   0.827 -1.1994  5.0020 -0.0048
  785MOL0     H 5959   4.620  11.008   0.821 -0.4265  0.3310 -1.6436
  785MOL0     H 5960   4.657  11.129   0.626 -2.1057  2.1928  1.0989
  785MOL0     H 5961   4.776  11.356   0.345 -0.1439  4.3270  2.3525
  785MOL0     H 5962   4.785  11.413   0.105 -1.3230 -1.8122  0.9955
  785MOL0     H 5963   5.199  11.461  -0.039  4.1658  2.7936 -0.8966
  785MOL0     H 5964   5.164  11.628  -0.025  2.0882 -0.5732 -0.3988
  785MOL0     H 5965   5.081  11.643  -0.258 -1.9530 -0.5468  1.6058
  785MOL0     H 5966   5.092  11.472  -0.281 -0.0170 -0.7891  2.2505
  785MOL0     H 5967   5.351  11.545  -0.177 -0.3025 -1.1067  0.4783
  785MOL0     H 5968   5.298  11.686  -0.275 -0.1734 -0.8735 -0.2167
  785MOL0     H 5969   5.237  11.509  -0.456  0.5813  1.1452  0.5750
  785MOL0     H 5970   5.410  11.532  -0.434  1.8630  0.8424  2.5232
  785MOL0     H 5971   5.292  11.114  -0.374 -1.0835 -0.3580  1.5636
  785MOL0     H 5972   5.199  11.517   0.159 -0.6057  0.8863  1.1578
  785MOL0     H 5973   5.266  11.348   0.426  0.6384  0.0449  2.7802
  785MOL0     H 5974   5.310  11.505   0.357  0.6686 -0.4444  1.8960
  785MOL0     H 5975   5.223  11.499   0.505 -1.6420 -1.1408  1.5074
  786MOL0     O 5976   7.782   7.781   5.744  0.1017  0.3130  0.2912
  786MOL0     C 5977   7.744   7.871   5.671 -0.5994  0.5835  0.3178
  786MOL0     O 5978   7.757   8.009   5.692  0.3010 -0.4917 -1.2769
  786MOL0     C 5979   7.777   8.052   5.818 -0.0439  0.3759  0.1382
  786MOL0     C 5980   7.728   7.996   5.939  0.0410 -0.0910  0.5936
  786MOL0     C 5981   7.753   8.042   6.063  0.3183  0.1783 -0.7459
  786MOL0     C 5982   7.848   8.140   6.075  0.2697  0.6292  0.3394
  786MOL0     O 5983   7.886   8.209   6.191 -0.0206  0.5430 -0.3317
  786MOL0     C 5984   7.843   8.173   6.333  0.3370  0.3364  0.4594
  786MOL0     C 5985   7.890   8.030   6.374  0.3088  0.7169 -0.6357
  786MOL0     C 5986   7.835   8.014   6.516  0.1624  0.7035 -0.0667
  786MOL0     C 5987   7.875   7.893   6.605 -0.2075 -1.0088  0.0734
  786MOL0     C 5988   7.825   7.763   6.551 -0.3375 -0.1688 -0.1290
  786MOL0     C 5989   7.852   7.644   6.644  0.0208 -0.4412  0.7013
  786MOL0     C 5990   7.851   7.494   6.596  0.1502 -0.7457  0.4781
  786MOL0     C 5991   7.726   7.420   6.642 -0.1092 -0.3608 -0.0097
  786MOL0     N 5992   7.592   7.459   6.581  0.3983  1.2892  0.5009
  786MOL0     C 5993   7.548   7.386   6.469  0.3288 -0.0324  0.5607
  786MOL0     C 5994   7.433   7.456   6.437  0.1774 -0.1494 -0.0870
  786MOL0     C 5995   7.345   7.425   6.320  0.5167 -0.1342  0.2467
  786MOL0     C 5996   7.285   7.291   6.353  0.3371 -0.3053  0.1837
  786MOL0     C 5997   7.151   7.269   6.279 -0.4763 -0.4480 -0.1375
  786MOL0     C 5998   7.164   7.287   6.128  0.0626  0.2880  0.0867
  786MOL0     O 5999   7.264   7.197   6.084 -0.5505 -0.0742 -0.1632
  786MOL0     C 6000   7.295   7.191   5.949 -0.6149  0.3367  0.4153
  786MOL0     C 6001   7.377   7.094   5.909  0.0647  0.4434  0.3103
  786MOL0     C 6002   7.434   7.097   5.782  0.7388 -0.0356  0.0367
  786MOL0     C 6003   7.374   7.174   5.683  0.8205  0.2336 -0.1793
  786MOL0     C 6004   7.403   7.156   5.539  0.1415 -0.0055  0.2212
  786MOL0     O 6005   7.291   7.163   5.459  0.5691  0.8998 -0.1196
  786MOL0     C 6006   7.292   7.115   5.331 -0.3397 -0.0048  0.5389
  786MOL0     C 6007   7.407   7.080   5.253  0.1593 -0.7948 -0.7955
  786MOL0     C 6008   7.401   7.029   5.121 -0.1594 -0.0469 -0.2423
  786MOL0     C 6009   7.274   7.012   5.059 -0.5057  0.6929  0.3032
  786MOL0     O 6010   7.273   6.963   4.933 -0.2099  0.1699  0.8559
  786MOL0     C 6011   7.158   6.911   4.863  0.3220  0.0917 -0.0737
  786MOL0     C 6012   7.144   6.950   4.717 -0.3197 -0.1932  0.4019
  786MOL0     C 6013   7.025   6.867   4.677  0.3717  0.6410  0.6042
  786MOL0     C 6014   6.971   6.921   4.549  0.0256  0.7384  0.7409
  786MOL0     C 6015   6.832   6.867   4.512  0.1690  0.4140  0.5431
  786MOL0     C 6016   6.829   6.729   4.441  0.1568 -0.4930  1.0351
  786MOL0     C 6017   6.680   6.689   4.400 -0.2765  0.0857  0.1806
  786MOL0     C 6018   6.662   6.535   4.382 -0.0888 -0.1973 -0.4685
  786MOL0    Cl 6019   6.792   6.465   4.268 -0.1557  0.3494 -0.5834
  786MOL0     C 6020   7.161   7.046   5.133 -0.1975  0.2208  1.2023
  786MOL0     C 6021   7.164   7.096   5.264 -0.2701 -0.0868 -0.9773
  786MOL0     O 6022   7.507   7.111   5.507 -0.1833  0.9195 -0.1359
  786MOL0     C 6023   7.274   7.261   5.719 -0.7177 -0.3903 -0.2331
  786MOL0     C 6024   7.236   7.273   5.851 -0.0966  0.6054  0.2955
  786MOL0     N 6025   7.413   7.558   6.535 -0.4071 -0.5150 -0.7510
  786MOL0     N 6026   7.506   7.558   6.620 -0.8399 -0.6028  0.4303
  786MOL0     C 6027   7.906   8.193   5.960  0.5285  0.0392  0.4977
  786MOL0     C 6028   7.859   8.162   5.833  0.0432  0.2270  0.5623
  786MOL0     C 6029   7.690   7.845   5.534  0.3337 -0.4459  0.3649
  786MOL0     C 6030   7.718   7.933   5.432  0.1828 -0.8107  0.4089
  786MOL0     C 6031   7.662   7.924   5.307  0.2718  0.8744  0.2014
  786MOL0     C 6032   7.587   7.813   5.274  0.5378 -0.6887  0.0836
  786MOL0     O 6033   7.511   7.799   5.168  0.2653  0.6198  0.5437
  786MOL0     C 6034   7.482   7.918   5.092  0.7903 -0.2070 -0.2462
  786MOL0     C 6035   7.374   7.893   4.993  0.9102  0.1080  0.5441
  786MOL0     C 6036   7.355   8.019   4.895 -0.7894 -0.7146 -0.7679
  786MOL0     C 6037   7.218   8.016   4.829  0.8076 -1.6691  0.3495
  786MOL0     C 6038   7.174   7.895   4.765 -0.3018  0.5827  0.4788
  786MOL0     C 6039   7.131   7.803   4.703  0.2465 -1.6072 -0.1005
  786MOL0     C 6040   7.562   7.714   5.370  0.0555  0.4382 -0.0086
  786MOL0     C 6041   7.617   7.727   5.500 -0.6120 -0.9241 -0.1974
  786MOL0     C 6042   7.587   7.616   5.609 -0.0765 -0.3507 -0.1816
  786MOL0     H 6043   7.674   7.903   5.936  1.8457 -1.1674 -0.4590
  786MOL0     H 6044   7.700   7.999   6.148 -2.1233  0.8056 -1.8477
  786MOL0     H 6045   7.875   8.253   6.400 -0.4947 -1.1994  2.8331
  786MOL0     H 6046   7.734   8.164   6.323  0.4924 -3.1371  0.5754
  786MOL0     H 6047   7.999   8.030   6.378  0.3408  3.6770  1.6022
  786MOL0     H 6048   7.850   7.948   6.314  1.0367  1.2605 -1.9067
  786MOL0     H 6049   7.726   8.004   6.519  0.2731 -1.9684 -1.5287
  786MOL0     H 6050   7.858   8.110   6.562 -0.6228  1.3531 -0.9775
  786MOL0     H 6051   7.984   7.893   6.614 -0.2502  0.4823  0.9334
  786MOL0     H 6052   7.827   7.907   6.702 -0.8986 -0.8893 -0.2763
  786MOL0     H 6053   7.718   7.774   6.530  0.1375 -2.5259 -5.8809
  786MOL0     H 6054   7.863   7.741   6.450 -4.1629 -1.7834 -1.4391
  786MOL0     H 6055   7.946   7.668   6.695  1.7419 -0.7054 -2.1288
  786MOL0     H 6056   7.776   7.656   6.722 -0.0824  0.3221  0.4908
  786MOL0     H 6057   7.943   7.441   6.624 -1.3088 -1.7923  3.7330
  786MOL0     H 6058   7.843   7.516   6.489 -2.5315  0.5654  0.8728
  786MOL0     H 6059   7.742   7.313   6.622 -2.5911 -0.7237 -0.4106
  786MOL0     H 6060   7.714   7.442   6.749  1.0619  1.1216 -0.1506
  786MOL0     H 6061   7.599   7.303   6.422  0.1175 -0.3383  0.8674
  786MOL0     H 6062   7.267   7.502   6.313 -0.7613 -1.5074 -1.7126
  786MOL0     H 6063   7.406   7.433   6.230 -0.4525  0.5398 -0.3788
  786MOL0     H 6064   7.349   7.205   6.328 -0.9321 -1.6419  1.3535
  786MOL0     H 6065   7.268   7.270   6.459 -0.4850 -3.8658 -0.5183
  786MOL0     H 6066   7.076   7.343   6.311  0.7105  0.3299  0.9513
  786MOL0     H 6067   7.110   7.170   6.299  0.5845 -1.1280 -1.2561
  786MOL0     H 6068   7.208   7.383   6.101  1.3037 -0.5056 -0.7934
  786MOL0     H 6069   7.069   7.278   6.073 -0.5532  2.2067  0.7624
  786MOL0     H 6070   7.417   7.025   5.982  1.0862  0.5496 -0.1291
  786MOL0     H 6071   7.506   7.018   5.764 -1.2819 -2.0045  0.3264
  786MOL0     H 6072   7.510   7.102   5.281  0.2302  0.0293 -1.6662
  786MOL0     H 6073   7.490   7.009   5.062  2.5807  3.2861  2.3164
  786MOL0     H 6074   7.164   6.802   4.870  1.3773 -0.0546 -2.3619
  786MOL0     H 6075   7.061   6.946   4.900 -0.9353 -2.4729 -0.6668
  786MOL0     H 6076   7.119   7.056   4.720 -0.4268 -0.1676 -0.8400
  786MOL0     H 6077   7.229   6.938   4.650  1.5467 -2.7603  3.0090
  786MOL0     H 6078   7.048   6.760   4.670  0.0397  0.2698  3.6757
  786MOL0     H 6079   6.948   6.872   4.755  0.9160  2.0983  1.0857
  786MOL0     H 6080   7.039   6.894   4.468 -1.2848  0.0425 -0.1684
  786MOL0     H 6081   6.967   7.030   4.554  1.5144  0.7872  1.3162
  786MOL0     H 6082   6.788   6.943   4.446  0.0277  2.2378  2.6367
  786MOL0     H 6083   6.765   6.858   4.598 -2.8837 -2.1039 -1.8092
  786MOL0     H 6084   6.883   6.736   4.346  0.1435 -0.8252  1.0010
  786MOL0     H 6085   6.879   6.653   4.502  2.5558  0.1228 -0.0579
  786MOL0     H 6086   6.647   6.725   4.302  0.3356  1.4822  0.4557
  786MOL0     H 6087   6.607   6.727   4.472 -1.3224 -1.4568 -0.0056
  786MOL0     H 6088   6.675   6.489   4.480 -0.0381  1.0787  0.1476
  786MOL0     H 6089   6.560   6.522   4.344  0.5236  0.3227 -2.4148
  786MOL0     H 6090   7.060   7.023   5.098 -0.2956  0.8253  1.0812
  786MOL0     H 6091   7.085   7.127   5.332  1.7253  1.8793  0.6126
  786MOL0     H 6092   7.233   7.329   5.644  0.3346  1.1981  0.5724
  786MOL0     H 6093   7.158   7.341   5.885 -0.0951 -0.3688  2.3993
  786MOL0     H 6094   7.975   8.274   5.983  0.5395  0.2459 -0.2595
  786MOL0     H 6095   7.889   8.212   5.741 -1.1974 -2.1951 -1.2717
  786MOL0     H 6096   7.789   8.014   5.443  1.6004 -1.3228 -3.3139
  786MOL0     H 6097   7.686   8.007   5.242  1.5112 -0.2042 -0.7746
  786MOL0     H 6098   7.577   7.944   5.044 -0.0278  0.5038 -1.5354
  786MOL0     H 6099   7.454   7.999   5.161  0.7194  0.3593 -0.9302
  786MOL0     H 6100   7.279   7.863   5.038 -0.0859 -3.1755 -3.1770
  786MOL0     H 6101   7.385   7.811   4.921 -2.5615  1.3565 -1.6507
  786MOL0     H 6102   7.432   8.018   4.817  0.2297 -0.0031  0.2033
  786MOL0     H 6103   7.364   8.114   4.948  1.1967  0.5453 -3.1652
  786MOL0     H 6104   7.143   8.055   4.899  1.2349  0.1984 -0.1847
  786MOL0     H 6105   7.216   8.082   4.742 -0.5473 -1.1371  0.7619
  786MOL0     H 6106   7.100   7.727   4.634 -2.0279 -0.8064 -0.0309
  786MOL0     H 6107   7.501   7.628   5.344  0.3497  0.3307 -0.3525
  786MOL0     H 6108   7.683   7.568   5.631  0.9768  1.3393 -0.8648
  786MOL0     H 6109   7.547   7.665   5.698 -0.7657  2.5065 -1.9502
  786MOL0     H 6110   7.503   7.553   5.580 -4.0209  3.6884  1.3611
  787MOL0     O 6111  10.106   3.553   1.339  0.4050  1.2959 -0.4059
  787MOL0     C 6112   9.993   3.518   1.295 -0.1612 -0.3771  0.1485
  787MOL0     O 6113   9.962   3.397   1.249  0.1819  0.1463 -0.4335
  787MOL0     C 6114  10.052   3.296   1.265  0.5208  0.4067  0.0142
  787MOL0     C 6115  10.155   3.288   1.176 -0.0761 -0.1620 -0.7021
  787MOL0     C 6116  10.248   3.177   1.193 -0.2072 -0.7507 -0.1058
  787MOL0     C 6117  10.224   3.082   1.296 -0.6320 -0.7098 -0.8226
  787MOL0     O 6118  10.301   2.974   1.324  0.0262  0.4750 -0.3551
  787MOL0     C 6119  10.425   2.957   1.271 -0.2203 -0.2263  0.3913
  787MOL0     C 6120  10.529   3.058   1.322  0.2149  0.9044 -0.6533
  787MOL0     C 6121  10.670   3.007   1.291  0.0264  0.3575 -0.6496
  787MOL0     C 6122  10.773   3.094   1.359  0.4996  0.2373 -1.0766
  787MOL0     C 6123  10.913   3.053   1.332  0.5968 -0.0437 -0.0967
  787MOL0     C 6124  10.953   2.915   1.378  0.2045 -0.5891 -0.2393
  787MOL0     C 6125  10.938   2.901   1.533 -0.4022  0.6743  0.4099
  787MOL0     C 6126  11.005   2.770   1.569 -0.9409  0.1697 -0.6702
  787MOL0     N 6127  10.980   2.732   1.706  0.0354 -0.5584 -0.1575
  787MOL0     C 6128  11.011   2.609   1.763  1.0250  0.5889  1.2650
  787MOL0     C 6129  10.960   2.624   1.892 -0.1877 -0.3161  0.8338
  787MOL0     C 6130  10.980   2.520   1.999  0.3595  0.1887  0.3588
  787MOL0     C 6131  10.852   2.440   2.023  0.1318 -0.5489 -1.2400
  787MOL0     C 6132  10.839   2.312   1.943  0.6455  0.5301  0.3382
  787MOL0     C 6133  10.705   2.240   1.949  1.4093  0.3245 -0.1660
  787MOL0     O 6134  10.730   2.107   1.988 -0.1539  0.1981 -0.3307
  787MOL0     C 6135  10.663   2.063   2.100 -0.8653  0.7217 -0.0081
  787MOL0     C 6136  10.560   1.975   2.091  0.0802  1.1749 -0.3005
  787MOL0     C 6137  10.488   1.934   2.199  0.2087 -0.4301  0.0039
  787MOL0     C 6138  10.515   1.976   2.327 -0.2965  0.3256 -0.2538
  787MOL0     C 6139  10.431   1.957   2.445  0.0928 -0.1248 -0.5654
  787MOL0     O 6140  10.470   2.021   2.564 -0.4851 -0.6212  0.1094
  787MOL0     C 6141  10.389   2.016   2.675 -0.3928 -0.0715 -0.4017
  787MOL0     C 6142  10.456   1.999   2.802 -0.0561 -0.0645  0.4117
  787MOL0     C 6143  10.397   1.979   2.924 -0.0152 -0.1727 -0.8532
  787MOL0     C 6144  10.253   1.989   2.929 -0.0715  0.0251 -0.1597
  787MOL0     O 6145  10.182   1.963   3.049  0.5358  0.1511 -0.4686
  787MOL0     C 6146  10.253   1.977   3.176  0.0297  0.3431  0.0451
  787MOL0     C 6147  10.176   1.939   3.299 -1.0021 -0.1460  0.5146
  787MOL0     C 6148  10.045   2.006   3.306  0.1344 -1.2804 -0.6763
  787MOL0     C 6149   9.969   1.978   3.442 -0.1664  0.5159 -0.0821
  787MOL0     C 6150   9.822   2.024   3.448 -1.4926 -0.0253  0.3365
  787MOL0     C 6151   9.817   2.173   3.455 -1.0523 -0.1123  1.0112
  787MOL0     C 6152   9.686   2.233   3.400  0.3779 -0.4005 -0.3886
  787MOL0     C 6153   9.560   2.221   3.485  0.3889  0.3188 -1.0425
  787MOL0    Cl 6154   9.414   2.291   3.408 -0.1847 -0.1640  0.0527
  787MOL0     C 6155  10.184   2.006   2.804  0.3339 -0.1921 -0.4117
  787MOL0     C 6156  10.249   2.022   2.684  0.5056 -0.0761 -1.1808
  787MOL0     O 6157  10.326   1.896   2.433  0.1677  0.3333  0.7237
  787MOL0     C 6158  10.634   2.054   2.338 -0.7989  0.1376  0.6029
  787MOL0     C 6159  10.699   2.107   2.228  0.3544 -0.6283  0.4540
  787MOL0     N 6160  10.914   2.748   1.909 -0.6096  1.0120  0.0096
  787MOL0     N 6161  10.927   2.806   1.805 -0.1673 -0.5003  0.3129
  787MOL0     C 6162  10.103   3.091   1.368 -0.0080 -0.6162 -0.0803
  787MOL0     C 6163  10.022   3.205   1.361  1.2348  0.0610 -0.3506
  787MOL0     C 6164   9.883   3.617   1.276  0.1313 -0.7803 -0.1390
  787MOL0     C 6165   9.801   3.608   1.156  1.0838 -0.4719  0.8782
  787MOL0     C 6166   9.687   3.692   1.127  0.0661  0.5188 -0.5661
  787MOL0     C 6167   9.666   3.790   1.220  0.3580 -0.0541  0.1940
  787MOL0     O 6168   9.574   3.881   1.186  0.7447  0.0151  0.2471
  787MOL0     C 6169   9.551   4.006   1.255 -0.2963  0.2368 -0.4627
  787MOL0     C 6170   9.442   3.979   1.360  0.0677  1.0667 -0.4977
  787MOL0     C 6171   9.387   4.109   1.426 -0.8749  1.0449 -0.7957
  787MOL0     C 6172   9.252   4.094   1.502  0.6082 -0.1345  0.2816
  787MOL0     C 6173   9.139   4.064   1.409  0.4033 -0.0758 -0.4186
  787MOL0     C 6174   9.035   4.039   1.347  0.2851 -0.0189  0.6219
  787MOL0     C 6175   9.740   3.798   1.341 -0.2541  0.2339 -0.2825
  787MOL0     C 6176   9.844   3.708   1.376  0.4806  0.1052  0.2710
  787MOL0     C 6177   9.909   3.721   1.511  0.2998  0.5762  0.0748
  787MOL0     H 6178  10.173   3.376   1.117 -0.8948  1.7100  1.6559
  787MOL0     H 6179  10.340   3.180   1.136 -0.0834  2.5459  0.0894
  787MOL0     H 6180  10.464   2.856   1.287  0.7518 -0.4097 -2.4892
  787MOL0     H 6181  10.415   2.981   1.164 -0.7146  0.9486  0.6818
  787MOL0     H 6182  10.517   3.073   1.430  2.6318  2.7047 -0.5589
  787MOL0     H 6183  10.514   3.157   1.278 -1.6746  0.6734 -0.6167
  787MOL0     H 6184  10.695   3.025   1.186 -2.4131  1.9490 -1.0286
  787MOL0     H 6185  10.676   2.900   1.312 -0.5133  0.2250 -1.1509
  787MOL0     H 6186  10.770   3.200   1.331 -0.2673  0.2476 -0.9678
  787MOL0     H 6187  10.756   3.103   1.467  1.0936  2.5675 -1.1310
  787MOL0     H 6188  10.915   3.042   1.224 -2.0624 -0.4519 -0.1781
  787MOL0     H 6189  10.986   3.128   1.365  0.9931 -0.5877  0.2796
  787MOL0     H 6190  10.897   2.838   1.324  0.1423 -2.7524  2.6827
  787MOL0     H 6191  11.057   2.900   1.348  0.0691 -2.5782  0.1039
  787MOL0     H 6192  10.833   2.914   1.560 -0.4480  0.3204  0.4085
  787MOL0     H 6193  10.985   2.984   1.586  1.9684  1.1222 -2.1595
  787MOL0     H 6194  10.957   2.701   1.499 -2.0356  0.3180 -0.0978
  787MOL0     H 6195  11.113   2.778   1.559 -0.5938 -0.3615  1.9842
  787MOL0     H 6196  11.057   2.522   1.717  0.7241  0.8209  0.5078
  787MOL0     H 6197  11.067   2.455   1.983  0.3915  0.5104 -0.8932
  787MOL0     H 6198  10.999   2.578   2.090  3.4713 -2.0580  1.3503
  787MOL0     H 6199  10.855   2.424   2.131 -0.9486  1.1812 -0.9135
  787MOL0     H 6200  10.773   2.510   1.995  1.9358  0.7881 -3.3407
  787MOL0     H 6201  10.920   2.250   1.983  2.0969  2.0687 -0.1145
  787MOL0     H 6202  10.871   2.345   1.844  2.5030  2.2778  1.4548
  787MOL0     H 6203  10.640   2.248   1.861 -2.2853  0.2559  2.3304
  787MOL0     H 6204  10.641   2.288   2.024  0.4153 -0.0845 -0.7267
  787MOL0     H 6205  10.533   1.947   1.990  0.7186 -0.5831 -0.0276
  787MOL0     H 6206  10.399   1.873   2.190  0.2510 -1.5891  4.7462
  787MOL0     H 6207  10.563   2.004   2.784 -0.1779 -0.7508 -0.6032
  787MOL0     H 6208  10.452   1.960   3.016  1.2292 -0.7063 -1.6714
  787MOL0     H 6209  10.337   1.907   3.186 -0.3739 -0.1337  0.1624
  787MOL0     H 6210  10.278   2.083   3.179 -3.0970  1.1988 -0.1564
  787MOL0     H 6211  10.155   1.832   3.291  0.0677 -0.3291 -0.1397
  787MOL0     H 6212  10.240   1.959   3.385 -0.8591  1.8317  0.0135
  787MOL0     H 6213  10.046   2.114   3.288  1.8439 -0.5846  2.8120
  787MOL0     H 6214   9.990   1.956   3.225  1.4853 -3.0300 -0.5757
  787MOL0     H 6215  10.023   2.013   3.530  0.4954 -0.5896 -0.0244
  787MOL0     H 6216   9.978   1.870   3.458  1.8823  0.7226  0.4103
  787MOL0     H 6217   9.782   1.975   3.538 -0.5200  0.8649  1.2878
  787MOL0     H 6218   9.778   1.985   3.356 -0.7025 -0.8958  0.3065
  787MOL0     H 6219   9.820   2.210   3.558  0.6844  3.6056 -0.1863
  787MOL0     H 6220   9.894   2.214   3.389 -1.8595 -1.6267 -0.9568
  787MOL0     H 6221   9.672   2.196   3.298  2.4336  1.4567 -1.4241
  787MOL0     H 6222   9.703   2.339   3.379  2.0157 -0.7033 -0.7049
  787MOL0     H 6223   9.543   2.113   3.496  1.1942  0.2437 -0.4777
  787MOL0     H 6224   9.569   2.264   3.585  0.2104 -1.8931 -0.0175
  787MOL0     H 6225  10.076   2.013   2.797  0.2377 -1.1902 -0.0853
  787MOL0     H 6226  10.187   2.037   2.595 -2.1797 -1.1266  0.4094
  787MOL0     H 6227  10.686   2.092   2.426 -0.7698 -1.0448  1.1103
  787MOL0     H 6228  10.791   2.165   2.228  1.6506 -2.5781  0.0517
  787MOL0     H 6229  10.086   3.015   1.444  1.5777  0.3365  1.2976
  787MOL0     H 6230   9.938   3.228   1.425  2.2076  3.7017 -0.1766
  787MOL0     H 6231   9.832   3.541   1.076  0.4590 -0.3947  0.5734
  787MOL0     H 6232   9.632   3.691   1.033  0.6033  1.5017 -0.9118
  787MOL0     H 6233   9.539   4.083   1.179  0.6607  2.2386  1.3090
  787MOL0     H 6234   9.631   4.046   1.319  0.6595 -1.8719 -0.2535
  787MOL0     H 6235   9.474   3.905   1.435  0.9447  0.7889 -1.1330
  787MOL0     H 6236   9.359   3.920   1.321  0.3605 -0.6946  1.3684
  787MOL0     H 6237   9.385   4.188   1.350  0.9218  1.1646 -0.7585
  787MOL0     H 6238   9.462   4.133   1.503 -0.6478  1.1028 -1.0341
  787MOL0     H 6239   9.261   4.015   1.577  1.0058  1.4719  1.9850
  787MOL0     H 6240   9.218   4.174   1.569  1.0820 -1.4831  2.2027
  787MOL0     H 6241   8.943   4.009   1.301  1.2778 -3.7209  0.7719
  787MOL0     H 6242   9.722   3.875   1.415 -0.3483 -2.0184  2.1992
  787MOL0     H 6243   9.932   3.623   1.555  0.5407  0.9698  0.8447
  787MOL0     H 6244   9.999   3.782   1.504  1.4206 -0.9985  0.2480
  787MOL0     H 6245   9.835   3.777   1.569 -0.3610  0.4605 -0.6422
  788MOL0     O 6246   1.951   5.366   6.385 -0.0727 -0.8884  0.4991
  788MOL0     C 6247   1.922   5.281   6.473  0.4193  0.0888  0.0336
  788MOL0     O 6248   1.796   5.265   6.524 -0.2650 -0.8308 -0.9239
  788MOL0     C 6249   1.695   5.335   6.463  0.4279  1.0798  0.0627
  788MOL0     C 6250   1.659   5.329   6.327 -0.7767 -0.5315  0.1161
  788MOL0     C 6251   1.553   5.394   6.278 -0.2140 -0.4846 -0.1221
  788MOL0     C 6252   1.480   5.495   6.355 -0.6763 -0.5920 -0.1739
  788MOL0     O 6253   1.370   5.579   6.318  0.1789 -0.0161  0.7404
  788MOL0     C 6254   1.293   5.535   6.196 -0.0956 -1.4045 -0.1579
  788MOL0     C 6255   1.353   5.603   6.068 -0.8646  0.3917 -0.1121
  788MOL0     C 6256   1.291   5.548   5.938 -0.2586 -0.3569 -0.6307
  788MOL0     C 6257   1.367   5.611   5.822 -0.1182  0.6183 -0.5950
  788MOL0     C 6258   1.291   5.584   5.694 -0.0124  0.0121 -0.1692
  788MOL0     C 6259   1.164   5.665   5.672 -0.5408 -0.2269 -0.2943
  788MOL0     C 6260   1.186   5.785   5.591 -0.1550 -0.1735  0.9330
  788MOL0     C 6261   1.071   5.888   5.574  0.3488  0.8566 -0.5237
  788MOL0     N 6262   1.023   5.954   5.702 -0.3395  0.6535  1.1824
  788MOL0     C 6263   1.096   6.047   5.779 -0.2213  0.0790 -0.0157
  788MOL0     C 6264   1.016   6.082   5.878  0.0300  0.3310 -0.1938
  788MOL0     C 6265   1.054   6.197   5.964 -0.7240 -0.3720  0.8600
  788MOL0     C 6266   1.024   6.341   5.911  0.5001 -0.2263  0.3503
  788MOL0     C 6267   1.128   6.413   5.824 -0.3356  0.0233  0.7444
  788MOL0     C 6268   1.092   6.559   5.784  0.2792  0.3732  0.2174
  788MOL0     O 6269   0.968   6.556   5.702 -0.0568  0.6529 -0.1075
  788MOL0     C 6270   0.973   6.567   5.564 -0.2599  0.5678 -0.5994
  788MOL0     C 6271   1.085   6.539   5.486  0.1013 -0.1164 -0.6115
  788MOL0     C 6272   1.082   6.572   5.354 -0.2295 -0.0082 -0.8020
  788MOL0     C 6273   0.971   6.648   5.301 -0.7778 -0.2104 -0.6003
  788MOL0     C 6274   0.960   6.688   5.160 -0.4967 -0.1341 -0.2171
  788MOL0     O 6275   1.057   6.642   5.086 -0.0311  0.0112  0.6877
  788MOL0     C 6276   1.066   6.673   4.947 -0.0468  0.6519 -0.7395
  788MOL0     C 6277   1.181   6.637   4.882 -0.1294  0.2380  0.0296
  788MOL0     C 6278   1.197   6.651   4.741 -0.0718 -0.9342  0.9815
  788MOL0     C 6279   1.093   6.715   4.668 -0.3689  0.3525 -0.0196
  788MOL0     O 6280   1.129   6.735   4.532  0.8939  0.2594 -1.2622
  788MOL0     C 6281   1.055   6.817   4.440 -0.0688  0.5870  0.5392
  788MOL0     C 6282   1.102   6.787   4.294 -0.4937 -0.7730  0.5060
  788MOL0     C 6283   0.997   6.847   4.203  0.7179 -0.1835 -0.5941
  788MOL0     C 6284   1.055   6.851   4.061  0.0900 -0.2181 -0.6238
  788MOL0     C 6285   0.943   6.883   3.968 -0.0400 -0.2538  0.0014
  788MOL0     C 6286   0.991   6.907   3.829  0.1805  0.6446  0.7162
  788MOL0     C 6287   1.062   6.791   3.749 -0.3673  0.6688 -1.0392
  788MOL0     C 6288   1.167   6.846   3.657  0.0303 -0.0206  0.1223
  788MOL0    Cl 6289   1.310   6.934   3.736  0.1123 -0.2271  0.4608
  788MOL0     C 6290   0.977   6.757   4.733 -0.9302 -0.8100  0.0946
  788MOL0     C 6291   0.964   6.732   4.866  0.0070 -0.9345  0.2313
  788MOL0     O 6292   0.861   6.754   5.127 -0.0314 -0.7342  0.3643
  788MOL0     C 6293   0.869   6.679   5.382  0.5682 -0.2356 -0.2475
  788MOL0     C 6294   0.862   6.631   5.515  0.3954 -0.2886  0.3052
  788MOL0     N 6295   0.901   6.001   5.873 -0.3438  0.4042  0.0894
  788MOL0     N 6296   0.900   5.923   5.770 -0.5319  0.6400 -0.1166
  788MOL0     C 6297   1.511   5.499   6.494 -0.2318  0.7016 -0.3653
  788MOL0     C 6298   1.608   5.406   6.545  0.1734 -0.9773  0.5391
  788MOL0     C 6299   2.029   5.199   6.535  0.5146  0.2791 -0.0817
  788MOL0     C 6300   1.994   5.074   6.602 -0.1474 -0.6838  0.2478
  788MOL0     C 6301   2.091   4.981   6.638 -0.9641  0.2403 -0.3595
  788MOL0     C 6302   2.223   5.021   6.641  0.7199  1.1305  0.0150
  788MOL0     O 6303   2.321   4.931   6.684  0.1982  0.8885 -0.3492
  788MOL0     C 6304   2.438   4.971   6.738 -0.6286 -0.9843  0.7011
  788MOL0     C 6305   2.556   4.948   6.637 -0.3942  0.2724  0.9075
  788MOL0     C 6306   2.684   4.946   6.719  1.2425  0.2804  0.5859
  788MOL0     C 6307   2.805   4.963   6.625 -0.3858 -0.0046 -0.1430
  788MOL0     C 6308   2.925   4.956   6.706  0.0558  0.0944 -0.3736
  788MOL0     C 6309   3.034   4.946   6.755  0.2331 -0.8916  0.1387
  788MOL0     C 6310   2.256   5.143   6.587 -0.8697  0.2431 -0.0360
  788MOL0     C 6311   2.166   5.229   6.529 -0.4280 -0.1710 -0.6662
  788MOL0     C 6312   2.213   5.374   6.492 -0.3812  0.2965  1.0105
  788MOL0     H 6313   1.720   5.259   6.270 -0.0537 -0.8978  1.3084
  788MOL0     H 6314   1.531   5.375   6.174  0.7785 -0.0247 -0.4225
  788MOL0     H 6315   1.294   5.426   6.183  3.6190 -1.8777  2.4794
  788MOL0     H 6316   1.186   5.555   6.186 -0.2266 -2.5661 -1.4118
  788MOL0     H 6317   1.462   5.597   6.068 -0.9124 -1.0038  0.5399
  788MOL0     H 6318   1.331   5.710   6.071 -2.7920  0.0057  0.8763
  788MOL0     H 6319   1.184   5.572   5.930 -0.3646 -0.8007 -0.5420
  788MOL0     H 6320   1.311   5.441   5.933  1.5390 -0.0192 -4.0985
  788MOL0     H 6321   1.382   5.717   5.846 -1.8994  0.6920  0.3899
  788MOL0     H 6322   1.459   5.560   5.793 -1.2589  0.1818 -3.9568
  788MOL0     H 6323   1.364   5.605   5.615  1.3504  0.0616  1.0659
  788MOL0     H 6324   1.263   5.479   5.690  0.5885 -0.1369 -0.6710
  788MOL0     H 6325   1.092   5.613   5.608 -1.0973  0.6635 -0.4225
  788MOL0     H 6326   1.111   5.674   5.768  1.7841 -0.4742  1.0787
  788MOL0     H 6327   1.217   5.750   5.492 -0.2496  2.3939 -0.0926
  788MOL0     H 6328   1.269   5.840   5.636  0.3515  0.5887 -0.8201
  788MOL0     H 6329   1.106   5.965   5.506  1.8866  1.6942  1.1236
  788MOL0     H 6330   0.994   5.837   5.516  0.5348  1.1641 -1.0472
  788MOL0     H 6331   1.194   6.088   5.753 -1.4211  2.4894 -1.0027
  788MOL0     H 6332   1.024   6.169   6.065  0.8246 -4.3275  0.4067
  788MOL0     H 6333   1.164   6.196   5.958 -0.7585 -1.2608  0.2729
  788MOL0     H 6334   0.925   6.335   5.866  1.3645 -2.0454 -1.4712
  788MOL0     H 6335   1.013   6.414   5.992  1.6065  0.8475 -0.4446
  788MOL0     H 6336   1.162   6.370   5.730  1.5059 -1.6635  2.0949
  788MOL0     H 6337   1.211   6.419   5.895 -0.9808 -1.4689  1.6818
  788MOL0     H 6338   1.180   6.598   5.732 -0.2051  1.4836  0.2094
  788MOL0     H 6339   1.072   6.634   5.861  0.3156  1.8646 -1.1841
  788MOL0     H 6340   1.176   6.494   5.524 -0.4021 -0.8946 -0.3026
  788MOL0     H 6341   1.166   6.545   5.291  1.3461  0.3301  1.0744
  788MOL0     H 6342   1.252   6.583   4.943 -0.4130 -1.4842 -1.0817
  788MOL0     H 6343   1.297   6.630   4.703  0.0845  1.5821 -0.2012
  788MOL0     H 6344   0.947   6.801   4.445 -0.0747  0.1629 -0.7094
  788MOL0     H 6345   1.075   6.924   4.456 -2.0063  1.2305 -0.8623
  788MOL0     H 6346   1.195   6.845   4.286 -1.5866  1.0665  0.4686
  788MOL0     H 6347   1.119   6.682   4.270  1.1101 -0.1779 -1.1839
  788MOL0     H 6348   0.906   6.789   4.215 -2.3418  4.1254 -0.6674
  788MOL0     H 6349   0.967   6.945   4.242  1.5980 -0.1094 -0.0658
  788MOL0     H 6350   1.103   6.756   4.040 -1.9221 -1.0418 -1.7549
  788MOL0     H 6351   1.130   6.931   4.059 -1.2648  1.1489  0.3381
  788MOL0     H 6352   0.895   6.976   3.999 -2.6582 -1.0625 -1.3149
  788MOL0     H 6353   0.875   6.797   3.968 -1.0086  0.4389  2.2076
  788MOL0     H 6354   0.905   6.936   3.767 -0.1124 -0.9185  0.3449
  788MOL0     H 6355   1.064   6.988   3.841  0.6374  0.4094 -0.3296
  788MOL0     H 6356   0.994   6.734   3.686  0.5066  0.8823 -2.2046
  788MOL0     H 6357   1.112   6.726   3.821  1.2240  2.4536 -0.4326
  788MOL0     H 6358   1.214   6.765   3.600 -0.3476  0.3316 -0.7141
  788MOL0     H 6359   1.111   6.907   3.585  1.4167  0.6810 -0.3914
  788MOL0     H 6360   0.899   6.800   4.671 -0.4897 -0.4617 -0.2300
  788MOL0     H 6361   0.866   6.766   4.898 -0.4440 -0.3806 -1.6141
  788MOL0     H 6362   0.782   6.725   5.336 -0.3360 -2.2741 -0.6963
  788MOL0     H 6363   0.769   6.638   5.571  0.3577 -2.8088  0.6786
  788MOL0     H 6364   1.454   5.552   6.570 -1.3160 -2.4417  1.1711
  788MOL0     H 6365   1.624   5.407   6.652 -2.6917  1.8798  1.1144
  788MOL0     H 6366   1.886   5.069   6.609 -0.3278  1.4998 -0.2156
  788MOL0     H 6367   2.063   4.883   6.675  2.7141  0.1530  2.8136
  788MOL0     H 6368   2.470   4.908   6.821  3.6772  1.1199  0.9478
  788MOL0     H 6369   2.436   5.076   6.770 -1.7706 -0.6349 -0.4171
  788MOL0     H 6370   2.561   5.024   6.557  0.1140 -2.9777 -2.4231
  788MOL0     H 6371   2.545   4.853   6.584  3.1429 -0.7531  1.7480
  788MOL0     H 6372   2.682   4.858   6.784 -2.4097 -0.9489 -0.9003
  788MOL0     H 6373   2.692   5.038   6.777  3.7031  0.7365 -0.3332
  788MOL0     H 6374   2.805   4.878   6.556 -1.2094 -0.7947  0.8011
  788MOL0     H 6375   2.789   5.058   6.573 -0.7739  0.2262  0.3814
  788MOL0     H 6376   3.131   4.932   6.799  1.0383  2.2752 -0.4091
  788MOL0     H 6377   2.364   5.159   6.579 -1.0976  1.6899 -0.6245
  788MOL0     H 6378   2.306   5.404   6.540  0.6601 -0.5585 -0.3814
  788MOL0     H 6379   2.226   5.379   6.383 -0.5307  3.0557  1.0590
  788MOL0     H 6380   2.135   5.439   6.532  0.2059  1.2444  0.6259
  789MOL0     O 6381   4.956   0.918   7.914 -0.1564 -0.2874 -0.2820
  789MOL0     C 6382   4.989   1.037   7.909 -0.3117 -0.3303  0.4643
  789MOL0     O 6383   4.909   1.132   7.849  0.3821 -0.4113 -1.6403
  789MOL0     C 6384   4.790   1.086   7.788  0.4282 -0.3165 -0.1436
  789MOL0     C 6385   4.688   1.182   7.778 -0.0509 -0.5465 -0.7173
  789MOL0     C 6386   4.568   1.159   7.704 -0.3082 -0.2735  0.0067
  789MOL0     C 6387   4.544   1.039   7.636  0.5958  0.5287  0.2585
  789MOL0     O 6388   4.424   1.033   7.572 -0.0032 -0.2086 -0.2832
  789MOL0     C 6389   4.422   1.008   7.425 -0.0662 -0.6045  0.1284
  789MOL0     C 6390   4.298   1.082   7.365 -0.2796 -0.6442  0.6958
  789MOL0     C 6391   4.222   1.190   7.462  0.7756 -0.8193  0.0613
  789MOL0     C 6392   4.309   1.315   7.479  0.3278 -0.6298 -1.4611
  789MOL0     C 6393   4.291   1.416   7.362  0.8405 -0.2986 -1.0373
  789MOL0     C 6394   4.165   1.488   7.370  0.5796 -0.0434 -0.5992
  789MOL0     C 6395   4.155   1.576   7.240  0.6344 -1.0999 -0.4223
  789MOL0     C 6396   4.041   1.691   7.257  0.7832 -0.1465  0.1429
  789MOL0     N 6397   4.076   1.819   7.328 -0.2076  0.0569  0.5262
  789MOL0     C 6398   4.081   1.947   7.279  0.8868  0.3510  0.0576
  789MOL0     C 6399   4.137   2.025   7.375 -0.0966  0.9430 -0.0964
  789MOL0     C 6400   4.172   2.171   7.353  0.0304 -0.6687  0.2472
  789MOL0     C 6401   4.236   2.209   7.213  0.4672  0.8331  0.1582
  789MOL0     C 6402   4.273   2.360   7.200  0.4708 -0.1337  0.7318
  789MOL0     C 6403   4.394   2.412   7.286 -0.2266 -0.0741 -0.9299
  789MOL0     O 6404   4.366   2.431   7.431  0.4042 -0.5432  0.4721
  789MOL0     C 6405   4.275   2.529   7.466 -0.0476  1.3180 -1.4281
  789MOL0     C 6406   4.267   2.646   7.390 -0.2392 -0.2835  0.3957
  789MOL0     C 6407   4.196   2.756   7.434 -0.1423  0.0932  0.6751
  789MOL0     C 6408   4.124   2.750   7.545  0.3670  0.4866 -0.5750
  789MOL0     C 6409   4.029   2.854   7.586 -0.1764 -0.1471  0.0354
  789MOL0     O 6410   3.899   2.819   7.611 -0.1144  0.1314 -0.1738
  789MOL0     C 6411   3.784   2.901   7.625 -0.9733 -0.2510  0.3051
  789MOL0     C 6412   3.682   2.860   7.703  0.0446 -0.5385 -0.2713
  789MOL0     C 6413   3.564   2.933   7.728 -0.0721  0.6132 -0.1036
  789MOL0     C 6414   3.553   3.054   7.661  0.5001  0.3724 -0.5456
  789MOL0     O 6415   3.445   3.133   7.682  0.1006 -0.0045  0.9608
  789MOL0     C 6416   3.321   3.067   7.645 -0.5126 -0.6727 -0.3661
  789MOL0     C 6417   3.226   3.162   7.579  0.0212  0.0054  0.1492
  789MOL0     C 6418   3.275   3.251   7.468 -0.6467  0.6771  0.8382
  789MOL0     C 6419   3.255   3.175   7.340  0.6290 -0.0023 -0.0023
  789MOL0     C 6420   3.259   3.277   7.218  0.3852  0.5484  0.1274
  789MOL0     C 6421   3.246   3.195   7.091 -0.8385  0.1273  0.0495
  789MOL0     C 6422   3.259   3.279   6.961  0.7520  0.0388 -0.4191
  789MOL0     C 6423   3.270   3.183   6.841 -0.3041 -0.2764  0.0534
  789MOL0    Cl 6424   3.437   3.135   6.795  0.2560  0.2127  0.2160
  789MOL0     C 6425   3.656   3.100   7.585 -0.8736 -0.2642  0.1053
  789MOL0     C 6426   3.775   3.027   7.570  0.9794  0.2583 -0.2091
  789MOL0     O 6427   4.067   2.965   7.580 -0.2585 -0.0984  0.2376
  789MOL0     C 6428   4.121   2.640   7.628 -0.9458 -0.6860 -0.2655
  789MOL0     C 6429   4.200   2.526   7.587 -0.0936 -0.0520 -0.4466
  789MOL0     N 6430   4.148   1.942   7.490  0.1339  0.5054  0.0312
  789MOL0     N 6431   4.108   1.823   7.459 -0.1267 -0.0005  0.3031
  789MOL0     C 6432   4.646   0.947   7.633  0.2287  0.7178  0.7753
  789MOL0     C 6433   4.772   0.970   7.710  0.5625 -0.0888 -0.5073
  789MOL0     C 6434   5.124   1.082   7.957  0.7898  0.2937 -0.4426
  789MOL0     C 6435   5.167   1.217   7.915  0.4582  0.9526  0.7570
  789MOL0     C 6436   5.293   1.256   7.942 -0.0701  1.0279  0.5386
  789MOL0     C 6437   5.374   1.178   8.024 -0.4426 -0.5573  1.2731
  789MOL0     O 6438   5.513   1.196   8.044  0.5643  0.5029  0.0673
  789MOL0     C 6439   5.564   1.308   7.957 -0.0385  0.0842 -1.0139
  789MOL0     C 6440   5.713   1.305   7.958 -0.2978 -0.1470  0.2633
  789MOL0     C 6441   5.768   1.397   7.852 -0.2306  0.0355 -0.2723
  789MOL0     C 6442   5.920   1.434   7.879 -0.9476 -0.4356  0.4504
  789MOL0     C 6443   5.936   1.548   7.966  0.1846 -0.6035 -0.6173
  789MOL0     C 6444   5.945   1.640   8.046  0.0673 -0.6828 -0.7757
  789MOL0     C 6445   5.330   1.064   8.086  0.5474  0.4536 -0.1709
  789MOL0     C 6446   5.212   1.012   8.043 -0.4483  0.9400 -0.5208
  789MOL0     C 6447   5.176   0.876   8.100  0.3264  0.1070 -0.3713
  789MOL0     H 6448   4.712   1.267   7.841  1.1497 -0.4836 -1.2409
  789MOL0     H 6449   4.489   1.232   7.690 -0.2936  0.3124  2.5086
  789MOL0     H 6450   4.520   1.034   7.384  0.1786  0.6042  1.3983
  789MOL0     H 6451   4.422   0.901   7.404  1.8624 -1.2169  2.7229
  789MOL0     H 6452   4.239   0.993   7.339  2.1559 -1.9035 -0.8823
  789MOL0     H 6453   4.314   1.126   7.266 -1.7476  1.1027  1.1945
  789MOL0     H 6454   4.206   1.146   7.561 -1.0433 -2.9506 -1.0913
  789MOL0     H 6455   4.126   1.217   7.418  1.8926  0.6684 -1.5692
  789MOL0     H 6456   4.284   1.362   7.575  1.2625 -1.3482 -0.8541
  789MOL0     H 6457   4.412   1.279   7.480  0.4020 -0.5963  1.3202
  789MOL0     H 6458   4.370   1.490   7.347 -1.4749  2.4607 -0.4591
  789MOL0     H 6459   4.294   1.361   7.267 -0.0277 -0.8858 -0.7426
  789MOL0     H 6460   4.077   1.424   7.385 -0.4713  0.8626 -2.5090
  789MOL0     H 6461   4.178   1.547   7.461 -0.4419 -1.1949  0.3270
  789MOL0     H 6462   4.120   1.510   7.160 -2.4683  0.5866 -0.6049
  789MOL0     H 6463   4.247   1.627   7.213 -0.6252  0.9011 -1.1502
  789MOL0     H 6464   4.015   1.723   7.155  1.0733  0.8336  0.3608
  789MOL0     H 6465   3.947   1.656   7.300 -0.0398  3.2821  1.4694
  789MOL0     H 6466   4.061   1.970   7.175  0.3301 -1.7319 -0.3415
  789MOL0     H 6467   4.076   2.222   7.362 -0.1329 -0.4660 -2.1414
  789MOL0     H 6468   4.224   2.206   7.443 -3.5150  2.1578  1.4739
  789MOL0     H 6469   4.328   2.150   7.216 -0.5506 -0.7817  2.1254
  789MOL0     H 6470   4.161   2.186   7.137  1.1664 -1.7786  0.1863
  789MOL0     H 6471   4.185   2.418   7.230  0.2451 -1.6190  3.2793
  789MOL0     H 6472   4.291   2.381   7.094 -1.8529  1.0371  0.5001
  789MOL0     H 6473   4.448   2.499   7.248  1.4346 -1.0021 -0.7861
  789MOL0     H 6474   4.474   2.338   7.277 -0.1429  0.0571 -1.2677
  789MOL0     H 6475   4.313   2.664   7.293  2.2887 -0.9261  1.4011
  789MOL0     H 6476   4.188   2.841   7.368  2.1111 -1.7388 -2.2533
  789MOL0     H 6477   3.694   2.767   7.758 -2.4827 -1.0910 -0.5495
  789MOL0     H 6478   3.484   2.896   7.790  1.0419  0.1207  1.0892
  789MOL0     H 6479   3.350   2.985   7.579 -0.3583  1.5078 -3.1891
  789MOL0     H 6480   3.270   3.022   7.731  0.5752  0.4704  0.9118
  789MOL0     H 6481   3.147   3.095   7.546  0.6919 -1.0171  0.5996
  789MOL0     H 6482   3.178   3.216   7.662 -6.2842 -3.5664 -0.5642
  789MOL0     H 6483   3.211   3.339   7.459 -1.6184 -0.2690 -4.2212
  789MOL0     H 6484   3.377   3.284   7.490 -0.6931 -0.2069  2.5670
  789MOL0     H 6485   3.164   3.114   7.337  0.5156  0.0960  1.0237
  789MOL0     H 6486   3.325   3.092   7.340 -0.3437 -0.8759 -1.5789
  789MOL0     H 6487   3.351   3.336   7.221 -0.3960  1.7968  0.3133
  789MOL0     H 6488   3.181   3.354   7.217  1.9332  2.1831 -0.0799
  789MOL0     H 6489   3.330   3.126   7.080  0.5702  1.1255  3.2552
  789MOL0     H 6490   3.159   3.128   7.087  0.0317 -0.9784 -2.7993
  789MOL0     H 6491   3.354   3.334   6.963  0.3563  0.7659  2.2155
  789MOL0     H 6492   3.174   3.347   6.954  1.8403  1.3139 -1.8675
  789MOL0     H 6493   3.210   3.094   6.863 -0.3154 -0.4465 -0.6541
  789MOL0     H 6494   3.215   3.230   6.759  1.6148 -2.5081 -2.6753
  789MOL0     H 6495   3.639   3.186   7.521 -2.9502 -2.2717 -2.2578
  789MOL0     H 6496   3.842   3.068   7.495 -2.6614  2.5676 -2.4719
  789MOL0     H 6497   4.068   2.631   7.723 -1.8007 -1.5277 -0.8162
  789MOL0     H 6498   4.201   2.435   7.646 -1.0997 -0.0546 -0.4033
  789MOL0     H 6499   4.622   0.865   7.566 -0.5683  1.4766  0.1087
  789MOL0     H 6500   4.859   0.905   7.698  0.8833  0.0124  1.0306
  789MOL0     H 6501   5.102   1.284   7.859  2.2261  0.8211 -1.6284
  789MOL0     H 6502   5.322   1.351   7.897 -0.9904  0.1108 -2.1337
  789MOL0     H 6503   5.541   1.406   7.999  1.4974  0.2582 -0.5230
  789MOL0     H 6504   5.523   1.296   7.857  1.4963 -0.4991 -1.6073
  789MOL0     H 6505   5.743   1.204   7.931  0.1106 -0.0138  0.2038
  789MOL0     H 6506   5.747   1.320   8.061  3.6293 -1.6098 -0.6317
  789MOL0     H 6507   5.698   1.480   7.842 -2.2758 -1.3989  1.2803
  789MOL0     H 6508   5.762   1.344   7.757 -2.3875 -0.4969  0.1049
  789MOL0     H 6509   5.966   1.352   7.936  0.4080 -0.2369 -0.3017
  789MOL0     H 6510   5.977   1.455   7.788  2.4424  1.5826  2.7876
  789MOL0     H 6511   5.955   1.709   8.128 -2.6538 -0.4850 -0.5212
  789MOL0     H 6512   5.400   0.999   8.139  0.6607 -0.0059 -0.8728
  789MOL0     H 6513   5.219   0.783   8.062 -0.7971  0.0126 -1.4797
  789MOL0     H 6514   5.203   0.894   8.205 -0.3903  1.8945 -0.4595
  789MOL0     H 6515   5.068   0.857   8.097  0.3818 -0.1345 -2.6948
  790MOL0     O 6516   7.763   0.456   6.017  0.3105  0.3842  0.7086
  790MOL0     C 6517   7.825   0.357   5.996 -0.2788  0.2861  0.9772
  790MOL0     O 6518   7.948   0.324   6.045 -0.0986 -0.2606  0.3169
  790MOL0     C 6519   7.996   0.407   6.138 -0.6388 -0.2528 -0.3495
  790MOL0     C 6520   8.127   0.459   6.125  0.2009  0.0367 -1.0189
  790MOL0     C 6521   8.184   0.549   6.219 -0.5907  0.4542  0.3454
  790MOL0     C 6522   8.105   0.598   6.327 -0.4179 -0.2880  0.2480
  790MOL0     O 6523   8.147   0.692   6.413  0.8457  0.6502  0.0505
  790MOL0     C 6524   8.224   0.806   6.354  0.5381  1.0548  0.0633
  790MOL0     C 6525   8.203   0.926   6.441  0.0431  0.6591  0.0596
  790MOL0     C 6526   8.071   1.001   6.391 -0.1654  0.3632  0.2049
  790MOL0     C 6527   8.073   1.131   6.475  0.0389 -0.5878 -0.8145
  790MOL0     C 6528   7.949   1.223   6.457  0.3182 -0.5811  0.3958
  790MOL0     C 6529   7.936   1.263   6.304  0.1171  0.8759 -0.8590
  790MOL0     C 6530   7.832   1.374   6.281  0.1955 -0.0349  0.8983
  790MOL0     C 6531   7.785   1.395   6.136  0.3059  0.2942  0.1955
  790MOL0     N 6532   7.905   1.426   6.051  0.2932  0.3006 -0.4292
  790MOL0     C 6533   7.955   1.547   6.033 -0.0151  0.5548 -0.0359
  790MOL0     C 6534   8.064   1.528   5.960  0.0347  1.0822 -1.1630
  790MOL0     C 6535   8.154   1.636   5.911 -0.7050 -1.1222  0.4524
  790MOL0     C 6536   8.297   1.611   5.966  0.7540  0.4573 -0.9856
  790MOL0     C 6537   8.364   1.743   5.966  0.4375  0.3047  0.3551
  790MOL0     C 6538   8.510   1.731   6.002  0.4559  0.4238 -0.6128
  790MOL0     O 6539   8.522   1.666   6.133  0.6852  0.0422  0.3040
  790MOL0     C 6540   8.655   1.651   6.182 -1.2285 -0.1190  0.4904
  790MOL0     C 6541   8.773   1.708   6.121 -0.1714  0.1611  0.1677
  790MOL0     C 6542   8.889   1.703   6.202  0.1749  1.5817 -0.2059
  790MOL0     C 6543   8.906   1.642   6.324 -0.6112 -0.4121  0.1349
  790MOL0     C 6544   9.035   1.655   6.392  0.4646  0.2874  0.3685
  790MOL0     O 6545   9.050   1.581   6.504 -0.0302 -0.7839  0.4106
  790MOL0     C 6546   9.172   1.584   6.573  0.5998 -0.2409 -0.2374
  790MOL0     C 6547   9.225   1.703   6.624  0.5676  0.1986 -0.1758
  790MOL0     C 6548   9.340   1.695   6.702 -0.4534 -0.8108 -0.5932
  790MOL0     C 6549   9.413   1.583   6.720  0.5610  1.1738  1.7480
  790MOL0     O 6550   9.517   1.590   6.812 -0.3208 -1.3271  0.2196
  790MOL0     C 6551   9.626   1.500   6.811 -0.3919 -0.2491  0.2559
  790MOL0     C 6552   9.601   1.375   6.890 -0.3001 -0.1408 -1.0259
  790MOL0     C 6553   9.661   1.378   7.033  0.5327 -0.4445 -0.5316
  790MOL0     C 6554   9.630   1.504   7.121  0.3467 -1.0119 -0.6004
  790MOL0     C 6555   9.604   1.495   7.279 -1.3421 -0.3712 -0.2246
  790MOL0     C 6556   9.687   1.400   7.369  0.7092  0.0654  0.3957
  790MOL0     C 6557   9.842   1.431   7.367  0.2911 -0.3824 -0.4981
  790MOL0     C 6558   9.920   1.305   7.344  0.5256  1.2847 -0.1440
  790MOL0    Cl 6559  10.093   1.341   7.328 -0.2797 -0.1603  0.1429
  790MOL0     C 6560   9.377   1.466   6.641  0.0435  0.2580 -0.8182
  790MOL0     C 6561   9.254   1.469   6.571  0.9436  0.3559 -0.6666
  790MOL0     O 6562   9.127   1.724   6.331 -0.4528  0.8414 -1.0330
  790MOL0     C 6563   8.787   1.581   6.382  0.5925  0.3543 -0.2230
  790MOL0     C 6564   8.664   1.601   6.311 -0.9777  0.5368  1.2051
  790MOL0     N 6565   8.080   1.393   5.940 -0.2242  0.3436 -0.1462
  790MOL0     N 6566   7.988   1.329   5.998  0.8676  0.9025  0.1294
  790MOL0     C 6567   7.974   0.555   6.340  0.0287  0.8485  0.0858
  790MOL0     C 6568   7.912   0.457   6.251 -0.5554  0.2543  0.0343
  790MOL0     C 6569   7.783   0.272   5.885  0.3374  0.4744  0.7796
  790MOL0     C 6570   7.890   0.227   5.803 -0.3541 -0.1679  0.6815
  790MOL0     C 6571   7.867   0.148   5.694  0.9877  0.4674 -0.3343
  790MOL0     C 6572   7.733   0.111   5.655 -0.4657  0.6066 -0.0564
  790MOL0     O 6573   7.700   0.045   5.534  0.0123  0.3974 -0.1515
  790MOL0     C 6574   7.805  -0.015   5.465 -0.7250 -0.4753 -0.0387
  790MOL0     C 6575   7.744  -0.104   5.352 -0.6232 -0.4169  0.2243
  790MOL0     C 6576   7.838  -0.209   5.303  0.2658 -0.2430  0.3751
  790MOL0     C 6577   7.780  -0.345   5.329  0.3954  0.0664  0.1164
  790MOL0     C 6578   7.872  -0.451   5.282 -0.2664 -0.3628  0.1266
  790MOL0     C 6579   7.927  -0.546   5.235 -0.7756  1.0328 -0.1390
  790MOL0     C 6580   7.632   0.169   5.730  0.6577 -1.0402 -0.8348
  790MOL0     C 6581   7.653   0.257   5.842  0.3509  0.5324 -0.2786
  790MOL0     C 6582   7.531   0.304   5.925 -0.8380  0.0509 -0.2594
  790MOL0     H 6583   8.188   0.422   6.043 -1.1123  0.2728 -2.1328
  790MOL0     H 6584   8.285   0.586   6.207 -1.0093  2.2700  1.9223
  790MOL0     H 6585   8.329   0.774   6.349 -0.5856 -3.4395  0.6320
  790MOL0     H 6586   8.197   0.815   6.248 -1.2427 -2.5793  0.0523
  790MOL0     H 6587   8.291   0.990   6.433 -2.2869  3.9073 -3.0850
  790MOL0     H 6588   8.190   0.896   6.546 -0.6839  3.0768  0.7264
  790MOL0     H 6589   7.978   0.944   6.405  0.5561 -1.0159 -0.3425
  790MOL0     H 6590   8.078   1.027   6.285 -1.4225  0.6408  0.1757
  790MOL0     H 6591   8.082   1.099   6.579  0.2218  2.3310  0.1782
  790MOL0     H 6592   8.163   1.192   6.460 -0.5281  0.0702 -1.6937
  790MOL0     H 6593   7.855   1.169   6.473 -0.7936  1.1168 -0.1551
  790MOL0     H 6594   7.953   1.315   6.516 -1.6549  0.6344 -1.2440
  790MOL0     H 6595   8.031   1.304   6.268  0.7714  0.2723  0.0981
  790MOL0     H 6596   7.908   1.174   6.247  0.2236 -2.0107  3.1148
  790MOL0     H 6597   7.870   1.468   6.322  2.3590 -0.0809 -0.8334
  790MOL0     H 6598   7.742   1.356   6.340 -1.0648 -0.7017 -1.1334
  790MOL0     H 6599   7.726   1.311   6.097  1.6926 -1.4056  1.5945
  790MOL0     H 6600   7.713   1.478   6.138 -1.0674 -0.8681  2.4041
  790MOL0     H 6601   7.898   1.636   6.056 -0.3857  0.3226 -0.0526
  790MOL0     H 6602   8.169   1.618   5.804 -1.1921 -2.4869  0.5931
  790MOL0     H 6603   8.109   1.736   5.916  0.7578 -0.3015 -1.4845
  790MOL0     H 6604   8.294   1.574   6.069 -1.9266 -1.3531 -1.5932
  790MOL0     H 6605   8.349   1.536   5.905  0.2501 -1.8518  1.2708
  790MOL0     H 6606   8.315   1.811   6.036 -0.4048  0.9249 -0.7957
  790MOL0     H 6607   8.361   1.798   5.871  2.3541  4.6400  2.5301
  790MOL0     H 6608   8.544   1.834   6.016 -0.1688  0.8494 -2.0231
  790MOL0     H 6609   8.575   1.687   5.925  3.4276 -0.8463  2.3999
  790MOL0     H 6610   8.770   1.742   6.018 -1.3949  0.3811  0.2623
  790MOL0     H 6611   8.979   1.746   6.159  1.6338 -0.6417  0.4270
  790MOL0     H 6612   9.167   1.795   6.618 -2.8615 -1.7378  0.6888
  790MOL0     H 6613   9.380   1.773   6.766 -4.0407 -0.8718  2.0768
  790MOL0     H 6614   9.639   1.487   6.703  0.3142  2.3638 -0.0573
  790MOL0     H 6615   9.719   1.540   6.854 -0.1872 -2.2710  1.8396
  790MOL0     H 6616   9.493   1.357   6.893  0.0243 -2.3059  0.4253
  790MOL0     H 6617   9.650   1.292   6.839  0.4464  0.6724 -1.6768
  790MOL0     H 6618   9.617   1.292   7.085 -1.3873  0.7839 -0.0304
  790MOL0     H 6619   9.768   1.366   7.015  0.3195  1.9224 -4.3538
  790MOL0     H 6620   9.538   1.551   7.082 -0.1318 -1.2709  0.1907
  790MOL0     H 6621   9.708   1.575   7.094 -0.1211 -1.6112 -3.9891
  790MOL0     H 6622   9.499   1.470   7.299 -1.5427  0.5255 -0.1399
  790MOL0     H 6623   9.612   1.595   7.323 -1.8141 -0.8556  0.9992
  790MOL0     H 6624   9.658   1.402   7.474  0.0819  0.8314  0.2214
  790MOL0     H 6625   9.664   1.304   7.323  0.4086  2.2059 -4.6671
  790MOL0     H 6626   9.885   1.474   7.458 -2.1738 -0.1399  0.6270
  790MOL0     H 6627   9.865   1.505   7.289 -0.5054  0.1059 -0.2814
  790MOL0     H 6628   9.905   1.232   7.424  1.2991 -1.1065 -2.0792
  790MOL0     H 6629   9.889   1.243   7.260 -1.9253 -1.8192  2.7825
  790MOL0     H 6630   9.418   1.365   6.645 -1.3890 -0.3892 -1.6730
  790MOL0     H 6631   9.218   1.380   6.520 -0.5970  1.9053 -2.4381
  790MOL0     H 6632   8.793   1.532   6.479 -1.0579  0.0696 -0.2497
  790MOL0     H 6633   8.575   1.573   6.366 -1.6986  1.1165  0.3610
  790MOL0     H 6634   7.917   0.611   6.413  0.8852  0.4366  1.1001
  790MOL0     H 6635   7.809   0.425   6.261 -1.0350  1.1094 -1.7657
  790MOL0     H 6636   7.996   0.236   5.824 -0.1568 -1.2083  0.2226
  790MOL0     H 6637   7.948   0.121   5.627  0.2714 -0.3790 -0.8940
  790MOL0     H 6638   7.862  -0.081   5.530 -1.3897  0.5936  1.6913
  790MOL0     H 6639   7.868   0.059   5.415  0.5274 -2.0566 -0.9116
  790MOL0     H 6640   7.723  -0.036   5.268  1.0853  0.5432  0.5260
  790MOL0     H 6641   7.648  -0.139   5.392  0.7598 -3.5135  1.1051
  790MOL0     H 6642   7.932  -0.198   5.358  0.9872 -0.5943 -0.7644
  790MOL0     H 6643   7.871  -0.195   5.200 -2.0307 -0.4277 -0.4444
  790MOL0     H 6644   7.755  -0.354   5.435 -1.2388  3.4038  0.1653
  790MOL0     H 6645   7.690  -0.357   5.267  1.2693 -1.9663 -0.8523
  790MOL0     H 6646   7.958  -0.633   5.180 -0.3932 -0.8452  2.8206
  790MOL0     H 6647   7.529   0.150   5.704  0.7899 -1.6945 -0.9003
  790MOL0     H 6648   7.556   0.386   5.992  0.2667 -1.6009  1.4504
  790MOL0     H 6649   7.447   0.336   5.863  0.2951  0.1401 -1.8178
  790MOL0     H 6650   7.501   0.230   6.000  3.5780 -1.0065  0.7668
  791MOL0     O 6651   2.467   6.556   8.141 -0.2342 -1.0657 -0.6139
  791MOL0     C 6652   2.347   6.542   8.161 -0.8215  1.4298  0.9691
  791MOL0     O 6653   2.255   6.596   8.078  0.3487  1.2254 -0.0005
  791MOL0     C 6654   2.258   6.566   7.943 -0.3295  0.6633  0.3877
  791MOL0     C 6655   2.324   6.664   7.858 -0.3526  0.0347  0.0141
  791MOL0     C 6656   2.321   6.650   7.721  0.1996 -0.9620  0.1226
  791MOL0     C 6657   2.270   6.534   7.660  0.7378 -0.7695  0.8140
  791MOL0     O 6658   2.263   6.516   7.529  0.1430  0.4031 -0.2280
  791MOL0     C 6659   2.370   6.572   7.450 -0.1923  0.2898  0.5466
  791MOL0     C 6660   2.355   6.495   7.326  0.7832  0.2268  0.1612
  791MOL0     C 6661   2.403   6.346   7.334  0.2970  0.4273  0.2654
  791MOL0     C 6662   2.419   6.291   7.194 -0.2314  0.0398 -0.7871
  791MOL0     C 6663   2.276   6.263   7.121 -0.7348 -0.2113 -0.3881
  791MOL0     C 6664   2.310   6.217   6.967  1.2783  0.9492 -0.3576
  791MOL0     C 6665   2.177   6.173   6.886 -0.1057 -0.1653 -1.2777
  791MOL0     C 6666   2.116   6.044   6.948  0.4775 -0.2866 -0.2805
  791MOL0     N 6667   1.972   6.055   6.967  0.9512 -0.3955 -0.4859
  791MOL0     C 6668   1.879   6.029   6.871 -0.8192  0.1578  0.6787
  791MOL0     C 6669   1.762   6.084   6.907  0.0616 -0.3595  0.7107
  791MOL0     C 6670   1.632   6.085   6.820 -0.7586 -0.3923 -0.2736
  791MOL0     C 6671   1.651   6.144   6.679 -0.0487 -0.4843  0.3928
  791MOL0     C 6672   1.526   6.162   6.594  0.1988  1.0044  0.2758
  791MOL0     C 6673   1.537   6.231   6.460 -1.0801 -0.5303 -0.2088
  791MOL0     O 6674   1.654   6.192   6.386 -0.2767 -0.2210 -0.0648
  791MOL0     C 6675   1.669   6.269   6.270 -0.5278  0.1738 -0.2831
  791MOL0     C 6676   1.573   6.348   6.211 -0.5265  0.3243  0.6705
  791MOL0     C 6677   1.594   6.413   6.088  0.2863 -0.5529  0.4186
  791MOL0     C 6678   1.712   6.400   6.018 -0.7923  0.0146  0.0781
  791MOL0     C 6679   1.743   6.450   5.888 -0.6284 -0.5066 -0.1863
  791MOL0     O 6680   1.842   6.389   5.822  0.3334  0.7518  0.7624
  791MOL0     C 6681   1.859   6.413   5.689 -0.3195 -0.1904 -0.5519
  791MOL0     C 6682   1.900   6.532   5.643 -0.4673 -0.9200  0.6418
  791MOL0     C 6683   1.948   6.537   5.518  0.4543  0.3822  1.0418
  791MOL0     C 6684   1.948   6.428   5.433 -0.0782  0.8173 -0.3800
  791MOL0     O 6685   1.979   6.448   5.300 -0.6364  0.2848  0.1648
  791MOL0     C 6686   1.946   6.566   5.227  0.5740  0.3227  0.2949
  791MOL0     C 6687   2.064   6.606   5.135  0.8771  0.0188  0.4059
  791MOL0     C 6688   2.194   6.667   5.197 -0.2567  0.1167 -0.2506
  791MOL0     C 6689   2.286   6.551   5.253 -0.2488 -0.6928  0.8001
  791MOL0     C 6690   2.430   6.547   5.194 -0.6446  0.4010  0.4299
  791MOL0     C 6691   2.501   6.412   5.237 -0.3488 -0.2140 -0.0928
  791MOL0     C 6692   2.631   6.377   5.161  0.0361  0.0370 -0.1345
  791MOL0     C 6693   2.735   6.489   5.180  0.4109  1.0323  0.8807
  791MOL0    Cl 6694   2.878   6.422   5.114  0.4852  0.3612  0.6264
  791MOL0     C 6695   1.899   6.309   5.474  0.7661  0.1174 -0.3194
  791MOL0     C 6696   1.847   6.302   5.606  0.7328 -0.3344 -0.6481
  791MOL0     O 6697   1.674   6.546   5.856 -1.2464  0.0828  0.1937
  791MOL0     C 6698   1.816   6.322   6.083  1.3807  0.8994  0.5619
  791MOL0     C 6699   1.787   6.251   6.199 -0.0094  0.1455 -1.2349
  791MOL0     N 6700   1.777   6.127   7.034 -0.6932  1.1568 -0.4239
  791MOL0     N 6701   1.901   6.127   7.058 -0.8645 -0.1854 -0.2344
  791MOL0     C 6702   2.210   6.442   7.745 -0.4627 -0.2591 -1.5308
  791MOL0     C 6703   2.199   6.451   7.892  0.3646  0.3879  0.4834
  791MOL0     C 6704   2.301   6.486   8.293 -0.4157 -0.6084 -0.2521
  791MOL0     C 6705   2.393   6.469   8.399 -0.3825  1.6595 -0.6463
  791MOL0     C 6706   2.357   6.402   8.518 -0.2035 -0.5163  0.1803
  791MOL0     C 6707   2.232   6.345   8.526 -0.1940  0.4751 -1.1358
  791MOL0     O 6708   2.189   6.253   8.631  0.0182  0.1227  0.3958
  791MOL0     C 6709   2.282   6.217   8.731  0.8563  0.0823  1.0992
  791MOL0     C 6710   2.205   6.134   8.843 -0.7606  0.4450  0.2900
  791MOL0     C 6711   2.129   6.219   8.949  0.6241  0.0766  0.5159
  791MOL0     C 6712   2.048   6.126   9.045  0.0354 -0.0177 -0.4172
  791MOL0     C 6713   2.133   6.036   9.110  0.5185 -0.9560 -0.2436
  791MOL0     C 6714   2.186   5.959   9.180  0.5653 -0.0111 -0.1780
  791MOL0     C 6715   2.142   6.371   8.430  0.8429 -0.3933  0.4300
  791MOL0     C 6716   2.167   6.441   8.319 -1.1339 -0.1120  0.2439
  791MOL0     C 6717   2.055   6.456   8.222 -0.5052  0.1662  0.3912
  791MOL0     H 6718   2.356   6.750   7.915 -2.1352  2.1709 -2.0464
  791MOL0     H 6719   2.374   6.720   7.656 -1.0676 -3.1254 -3.5244
  791MOL0     H 6720   2.349   6.676   7.425  0.6598  0.2513 -0.3729
  791MOL0     H 6721   2.470   6.559   7.493  0.6156  0.3400 -1.2557
  791MOL0     H 6722   2.418   6.542   7.250 -0.2628  1.0953 -0.1813
  791MOL0     H 6723   2.254   6.485   7.288  1.4098 -0.5668 -1.3712
  791MOL0     H 6724   2.321   6.287   7.377 -0.6830  0.8755 -0.9244
  791MOL0     H 6725   2.496   6.334   7.390  1.5636  0.6844 -1.6611
  791MOL0     H 6726   2.458   6.365   7.122  1.3079 -1.5718 -1.6875
  791MOL0     H 6727   2.486   6.205   7.191  1.5886  1.4018 -1.0382
  791MOL0     H 6728   2.222   6.184   7.175  1.6707 -1.4685  0.3235
  791MOL0     H 6729   2.209   6.350   7.122 -1.6559 -0.8778 -1.5893
  791MOL0     H 6730   2.341   6.304   6.908 -2.2559  1.4224 -1.8041
  791MOL0     H 6731   2.384   6.138   6.978 -1.1448 -1.3732  0.4559
  791MOL0     H 6732   2.197   6.152   6.781  1.1521  2.9648 -1.7661
  791MOL0     H 6733   2.107   6.256   6.896  1.1690  0.9774 -1.5525
  791MOL0     H 6734   2.143   5.964   6.879  1.3145 -0.0306 -0.2575
  791MOL0     H 6735   2.163   6.021   7.043  1.6301  1.7011 -0.3078
  791MOL0     H 6736   1.877   5.958   6.789  0.5025 -1.2902  1.8403
  791MOL0     H 6737   1.599   5.980   6.819  0.3314 -1.1087  5.4176
  791MOL0     H 6738   1.556   6.144   6.873  1.8711  3.0736 -0.0151
  791MOL0     H 6739   1.698   6.242   6.692 -1.6490  0.3545  0.0706
  791MOL0     H 6740   1.719   6.078   6.624 -0.5389 -0.1295 -0.6724
  791MOL0     H 6741   1.439   6.204   6.647 -0.9344 -3.0827  2.0885
  791MOL0     H 6742   1.490   6.060   6.574 -1.1265  1.4269  0.3783
  791MOL0     H 6743   1.531   6.339   6.474  0.9170 -0.6696  2.7392
  791MOL0     H 6744   1.443   6.216   6.407 -1.6483  1.5212  0.1546
  791MOL0     H 6745   1.481   6.376   6.261 -0.0453  1.0112  1.1807
  791MOL0     H 6746   1.515   6.474   6.045  0.7222  0.4277  0.9736
  791MOL0     H 6747   1.907   6.624   5.699 -0.4840  1.3246 -2.7487
  791MOL0     H 6748   1.984   6.633   5.482 -0.3364 -0.1787 -1.4130
  791MOL0     H 6749   1.861   6.534   5.165  0.9664  1.4180 -0.8688
  791MOL0     H 6750   1.914   6.656   5.280  0.3386  1.0682 -1.0452
  791MOL0     H 6751   2.086   6.527   5.063 -0.0262  0.8708 -0.8386
  791MOL0     H 6752   2.015   6.685   5.078 -0.3251  0.4465  1.9594
  791MOL0     H 6753   2.255   6.711   5.118  0.8872 -0.3674  0.3334
  791MOL0     H 6754   2.174   6.752   5.263 -0.2951  0.7941 -1.1246
  791MOL0     H 6755   2.247   6.450   5.241  4.5210 -2.4832 -3.4344
  791MOL0     H 6756   2.295   6.555   5.362 -0.6396 -2.9062  0.9639
  791MOL0     H 6757   2.493   6.628   5.232 -1.3787  1.1002  0.1616
  791MOL0     H 6758   2.430   6.558   5.085 -0.1631  1.0195  0.4893
  791MOL0     H 6759   2.517   6.407   5.345  1.9806 -2.6780 -0.4429
  791MOL0     H 6760   2.432   6.332   5.209  1.0991 -1.0477 -1.4820
  791MOL0     H 6761   2.612   6.384   5.053  1.0301 -1.1050 -0.4036
  791MOL0     H 6762   2.665   6.275   5.181 -1.7717 -0.2725  1.6498
  791MOL0     H 6763   2.704   6.582   5.132 -0.1449  0.3424 -0.1175
  791MOL0     H 6764   2.763   6.514   5.283 -0.2254  1.7762  0.8787
  791MOL0     H 6765   1.896   6.228   5.401 -2.2969 -0.0716 -0.1208
  791MOL0     H 6766   1.805   6.217   5.658 -1.9055  0.4686 -1.3096
  791MOL0     H 6767   1.913   6.323   6.034  0.4452  1.2741 -1.3560
  791MOL0     H 6768   1.860   6.182   6.241  0.3816 -1.2703 -4.0466
  791MOL0     H 6769   2.168   6.358   7.690  2.6045 -1.5236 -2.1716
  791MOL0     H 6770   2.145   6.370   7.939 -0.4842  0.3478 -0.5486
  791MOL0     H 6771   2.496   6.497   8.380 -0.3928  0.1493 -3.5226
  791MOL0     H 6772   2.431   6.377   8.593  2.9394  3.4827 -1.2474
  791MOL0     H 6773   2.325   6.310   8.769 -1.4034  0.9970  1.5750
  791MOL0     H 6774   2.367   6.161   8.692  2.0123  3.7488 -2.2857
  791MOL0     H 6775   2.268   6.066   8.901 -2.3705  1.3638  3.3378
  791MOL0     H 6776   2.141   6.067   8.785 -0.3739  1.1964 -1.0356
  791MOL0     H 6777   2.058   6.281   8.894  1.5499  1.2259  0.5586
  791MOL0     H 6778   2.210   6.281   8.991 -0.8522  2.5267 -0.0629
  791MOL0     H 6779   2.012   6.195   9.122  3.8657 -1.0326  2.5968
  791MOL0     H 6780   1.963   6.082   8.993  1.6439  1.3607 -4.6234
  791MOL0     H 6781   2.254   5.884   9.216  0.1467  0.5098  1.8081
  791MOL0     H 6782   2.043   6.337   8.457  0.5968  0.1785  0.2485
  791MOL0     H 6783   1.966   6.413   8.270 -0.7237  2.5249  2.3191
  791MOL0     H 6784   2.035   6.562   8.201  3.7954  0.9321 -0.7009
  791MOL0     H 6785   2.067   6.397   8.131 -1.3500  1.6425 -0.7295
  792MOL0     O 6786   4.626   4.807   3.593 -0.3120 -0.1048  0.0864
  792MOL0     C 6787   4.722   4.732   3.607 -0.7355 -0.1713 -0.1385
  792MOL0     O 6788   4.825   4.742   3.708 -0.3104  0.3041  0.4971
  792MOL0     C 6789   4.793   4.826   3.807  0.3451  0.4288  0.1251
  792MOL0     C 6790   4.847   4.956   3.798 -0.4593  0.6498  0.4626
  792MOL0     C 6791   4.802   5.043   3.899 -0.3075 -0.4406  0.1307
  792MOL0     C 6792   4.699   5.011   3.992 -0.1496  0.2215 -0.5709
  792MOL0     O 6793   4.658   5.098   4.090 -0.0159  0.1019 -0.2507
  792MOL0     C 6794   4.705   5.058   4.225  0.5522  0.1256  0.6480
  792MOL0     C 6795   4.596   4.994   4.313  0.6278  0.3165 -0.5433
  792MOL0     C 6796   4.676   4.927   4.428 -0.7463 -0.1903 -0.4002
  792MOL0     C 6797   4.576   4.828   4.493  0.8976 -1.2295  1.0934
  792MOL0     C 6798   4.639   4.747   4.610  0.1244 -0.5281  0.1440
  792MOL0     C 6799   4.741   4.653   4.549  1.1681  0.6673  0.0781
  792MOL0     C 6800   4.787   4.551   4.661  0.7019 -0.7478  0.6811
  792MOL0     C 6801   4.907   4.472   4.618 -0.7019  0.5939 -0.7152
  792MOL0     N 6802   5.046   4.527   4.647  0.1121  0.0998  1.1529
  792MOL0     C 6803   5.095   4.541   4.776  0.4459 -0.7122 -0.5254
  792MOL0     C 6804   5.233   4.545   4.760  0.2607  1.1456 -0.7780
  792MOL0     C 6805   5.324   4.574   4.875 -0.0004  0.2418  0.5705
  792MOL0     C 6806   5.469   4.593   4.826  1.6994  0.7119 -0.0543
  792MOL0     C 6807   5.556   4.607   4.947  0.4250 -0.2958  0.6018
  792MOL0     C 6808   5.682   4.535   4.920 -0.2599 -0.4711  0.1914
  792MOL0     O 6809   5.786   4.617   4.852  0.5380  0.2665 -0.6409
  792MOL0     C 6810   5.912   4.562   4.859 -0.4203 -0.1385  0.3868
  792MOL0     C 6811   5.955   4.429   4.851  0.3219 -0.3228 -0.6639
  792MOL0     C 6812   6.097   4.405   4.834 -0.7076  0.5905  0.6162
  792MOL0     C 6813   6.195   4.508   4.843  0.0585 -0.2549  0.4084
  792MOL0     C 6814   6.333   4.481   4.858 -0.3158  0.0803 -0.3297
  792MOL0     O 6815   6.413   4.589   4.862 -0.3727 -0.1687 -0.4985
  792MOL0     C 6816   6.553   4.577   4.882 -0.9989  0.0541  0.7931
  792MOL0     C 6817   6.637   4.491   4.806  0.2065  0.4067 -0.4713
  792MOL0     C 6818   6.772   4.505   4.798  0.6312  0.8224  0.4498
  792MOL0     C 6819   6.841   4.610   4.864 -0.0044  0.8313  0.4756
  792MOL0     O 6820   6.976   4.612   4.833  0.9080  0.7115  0.3121
  792MOL0     C 6821   7.043   4.691   4.928 -0.6717  0.3880  0.4827
  792MOL0     C 6822   7.197   4.681   4.913 -0.2614  0.1263 -0.5410
  792MOL0     C 6823   7.264   4.738   5.032  0.0975 -0.6025  0.8783
  792MOL0     C 6824   7.409   4.703   5.054 -0.4256 -0.0982  0.1889
  792MOL0     C 6825   7.497   4.736   4.927 -0.3448 -0.0708  0.2193
  792MOL0     C 6826   7.639   4.677   4.934  0.8588 -0.3925 -1.0083
  792MOL0     C 6827   7.721   4.713   4.810 -0.7202  0.6919 -0.3771
  792MOL0     C 6828   7.677   4.657   4.676 -0.2701  0.3388 -0.3581
  792MOL0    Cl 6829   7.821   4.628   4.578 -0.6363 -0.3461  0.2239
  792MOL0     C 6830   6.762   4.689   4.956  0.3831  0.3428  0.0007
  792MOL0     C 6831   6.624   4.669   4.962  0.1176  0.8759  0.3032
  792MOL0     O 6832   6.375   4.365   4.859 -0.0585  0.2833  0.3990
  792MOL0     C 6833   6.144   4.640   4.857 -0.9270  0.7281  0.5984
  792MOL0     C 6834   6.007   4.669   4.863 -0.4109 -0.1476 -0.3581
  792MOL0     N 6835   5.258   4.538   4.630 -0.6498 -0.6800 -0.1753
  792MOL0     N 6836   5.152   4.524   4.560 -0.7451 -0.8699 -0.1610
  792MOL0     C 6837   4.666   4.879   4.000 -0.4168  0.1070 -0.1104
  792MOL0     C 6838   4.711   4.790   3.908 -0.4071  0.4223 -0.2185
  792MOL0     C 6839   4.720   4.606   3.532  0.5199  0.0599  0.9951
  792MOL0     C 6840   4.791   4.493   3.592 -0.4905  1.4283  0.0845
  792MOL0     C 6841   4.795   4.372   3.534 -0.0664  1.0705 -0.3988
  792MOL0     C 6842   4.737   4.350   3.401 -0.7227  1.4852 -0.3939
  792MOL0     O 6843   4.717   4.226   3.340 -0.4925 -0.5788  0.2065
  792MOL0     C 6844   4.769   4.108   3.400 -0.2666 -0.8887  0.2690
  792MOL0     C 6845   4.920   4.098   3.363 -0.2420 -0.0855 -0.7283
  792MOL0     C 6846   4.933   4.084   3.213 -0.2903  0.2404 -0.6078
  792MOL0     C 6847   5.076   4.088   3.168 -0.7637  0.4472  0.3889
  792MOL0     C 6848   5.093   4.026   3.028  0.5800  0.3933 -0.2191
  792MOL0     C 6849   5.081   3.970   2.920 -0.2351  0.3506  0.5726
  792MOL0     C 6850   4.686   4.471   3.339 -0.1756  0.4026  0.5939
  792MOL0     C 6851   4.675   4.590   3.401 -0.3672  0.0285  0.8298
  792MOL0     C 6852   4.605   4.697   3.327  0.3355 -0.7119 -0.3871
  792MOL0     H 6853   4.915   4.987   3.719 -1.6354 -1.3836 -1.4646
  792MOL0     H 6854   4.845   5.142   3.909 -1.4933  0.1381 -0.2801
  792MOL0     H 6855   4.795   4.996   4.222 -0.3053 -1.1418 -2.0981
  792MOL0     H 6856   4.728   5.156   4.269  1.6695  1.2046 -2.0699
  792MOL0     H 6857   4.536   4.920   4.261 -0.4302  0.0268  1.0315
  792MOL0     H 6858   4.532   5.074   4.351 -0.2555 -0.4820 -0.3107
  792MOL0     H 6859   4.696   4.994   4.512 -1.6010 -0.7674  0.2842
  792MOL0     H 6860   4.769   4.883   4.392 -2.3978 -5.5402  0.8939
  792MOL0     H 6861   4.500   4.892   4.538 -0.5694  0.2978 -3.1441
  792MOL0     H 6862   4.532   4.755   4.426  1.4810 -0.0014 -0.6934
  792MOL0     H 6863   4.680   4.804   4.693  1.9575  0.7305 -1.5496
  792MOL0     H 6864   4.557   4.694   4.660 -1.3371 -0.4655 -2.0383
  792MOL0     H 6865   4.708   4.589   4.467 -3.1145  0.1451  1.9522
  792MOL0     H 6866   4.825   4.717   4.519  1.3950  1.2717  1.9058
  792MOL0     H 6867   4.707   4.481   4.685 -1.0148  0.4434 -1.2571
  792MOL0     H 6868   4.828   4.606   4.747  3.2896 -0.8909 -0.3584
  792MOL0     H 6869   4.897   4.374   4.664  0.3261  0.8400  0.0775
  792MOL0     H 6870   4.915   4.456   4.510  0.3611 -2.2425 -0.3067
  792MOL0     H 6871   5.059   4.551   4.877  1.1119 -0.4459 -0.3088
  792MOL0     H 6872   5.278   4.657   4.929 -1.0151  0.1621 -0.1566
  792MOL0     H 6873   5.321   4.490   4.946  0.6356  1.2693  1.8655
  792MOL0     H 6874   5.495   4.508   4.762  0.4337  2.6092 -3.3055
  792MOL0     H 6875   5.479   4.688   4.774 -0.5286  0.8046 -0.4018
  792MOL0     H 6876   5.509   4.565   5.037  4.9757 -0.1337  3.3924
  792MOL0     H 6877   5.576   4.713   4.962 -1.1709  0.2519 -0.8601
  792MOL0     H 6878   5.666   4.442   4.864  0.7925  0.3236 -1.5262
  792MOL0     H 6879   5.721   4.502   5.016 -0.1142 -2.8193 -0.6136
  792MOL0     H 6880   5.884   4.347   4.855 -2.8998  2.2791 -0.7736
  792MOL0     H 6881   6.133   4.303   4.824 -3.3398 -0.3174 -0.3732
  792MOL0     H 6882   6.584   4.417   4.747  0.0178 -1.3684  1.7947
  792MOL0     H 6883   6.826   4.443   4.727 -0.5205 -0.2659  0.4974
  792MOL0     H 6884   7.003   4.793   4.926 -1.1438  0.3361  3.2796
  792MOL0     H 6885   7.027   4.650   5.028  1.3357  1.6412  1.3981
  792MOL0     H 6886   7.231   4.579   4.895  0.4301 -0.2855  2.6213
  792MOL0     H 6887   7.225   4.728   4.818  0.1509 -0.4704 -0.7152
  792MOL0     H 6888   7.268   4.848   5.024 -0.4338 -0.5643  1.1361
  792MOL0     H 6889   7.201   4.711   5.116 -0.2923 -1.7050  0.2473
  792MOL0     H 6890   7.430   4.601   5.086  2.2875  0.6332  1.0257
  792MOL0     H 6891   7.444   4.764   5.138  3.5547  3.0307 -3.2323
  792MOL0     H 6892   7.503   4.842   4.903 -0.9947 -0.8740 -4.4865
  792MOL0     H 6893   7.447   4.687   4.843 -0.2629 -0.4758  0.4041
  792MOL0     H 6894   7.698   4.717   5.017  0.0316 -0.2472 -0.4704
  792MOL0     H 6895   7.617   4.571   4.949 -0.0447 -0.0684  0.1911
  792MOL0     H 6896   7.823   4.680   4.834 -1.4356 -1.2000  0.2701
  792MOL0     H 6897   7.728   4.819   4.785  0.2957  1.7360  3.6395
  792MOL0     H 6898   7.615   4.570   4.697  0.8722 -0.6237 -0.8372
  792MOL0     H 6899   7.618   4.737   4.630 -1.1568 -0.0964  0.0183
  792MOL0     H 6900   6.803   4.774   5.010  0.6947  3.0916 -4.1226
  792MOL0     H 6901   6.577   4.749   5.019 -1.5072  1.9176 -2.3241
  792MOL0     H 6902   6.220   4.716   4.862  1.1655 -1.2389  0.1922
  792MOL0     H 6903   5.958   4.765   4.871 -1.7498 -0.7625 -0.9585
  792MOL0     H 6904   4.590   4.840   4.068 -0.8422 -0.2665 -0.7922
  792MOL0     H 6905   4.683   4.686   3.922  4.3510 -0.8610  1.8476
  792MOL0     H 6906   4.817   4.504   3.697 -0.0243  0.4220  0.0836
  792MOL0     H 6907   4.842   4.295   3.595  0.4842  2.8493  1.5618
  792MOL0     H 6908   4.719   4.028   3.345  1.4882  0.6541 -4.0148
  792MOL0     H 6909   4.735   4.100   3.503 -3.7531  1.0498 -0.5735
  792MOL0     H 6910   4.952   4.004   3.408 -4.9285 -0.8372  1.6115
  792MOL0     H 6911   4.967   4.191   3.396 -1.9038  0.8997 -1.0132
  792MOL0     H 6912   4.888   4.164   3.154  0.0055 -1.1588 -2.8853
  792MOL0     H 6913   4.883   3.992   3.180 -2.3808  1.1974 -0.2194
  792MOL0     H 6914   5.113   4.188   3.143  2.6579 -0.9224 -0.6039
  792MOL0     H 6915   5.139   4.039   3.242 -2.2274  1.3532  2.3370
  792MOL0     H 6916   5.068   3.914   2.830  0.6717  2.0425 -0.6561
  792MOL0     H 6917   4.645   4.455   3.239 -3.3715 -2.7989  2.1735
  792MOL0     H 6918   4.679   4.772   3.299 -0.6827  0.0500 -1.0949
  792MOL0     H 6919   4.557   4.663   3.235 -2.4172 -1.2461  1.1239
  792MOL0     H 6920   4.531   4.746   3.391 -0.2068  1.5734 -2.6426
  793MOL0     O 6921   9.153   3.910   8.476  0.5147  0.1340  0.5420
  793MOL0     C 6922   9.048   3.958   8.433  0.8891  0.0463  0.4215
  793MOL0     O 6923   8.918   3.898   8.439 -0.4411 -0.0822  0.2756
  793MOL0     C 6924   8.894   3.776   8.498 -0.6523 -0.8742  0.7398
  793MOL0     C 6925   8.953   3.666   8.456 -0.6928  0.1808  0.4283
  793MOL0     C 6926   8.937   3.538   8.519 -0.3931 -0.2228 -0.3286
  793MOL0     C 6927   8.856   3.526   8.627 -1.1418 -0.3798  1.4180
  793MOL0     O 6928   8.841   3.403   8.690  0.2413  0.8583 -0.5496
  793MOL0     C 6929   8.960   3.343   8.748 -0.0359  0.8598 -0.3278
  793MOL0     C 6930   9.048   3.435   8.828  1.0914  0.6834  0.0106
  793MOL0     C 6931   8.993   3.486   8.959 -0.2359  0.6980  2.0791
  793MOL0     C 6932   9.055   3.616   8.996  0.3841 -0.3166 -0.1706
  793MOL0     C 6933   8.996   3.734   8.918 -0.2106  0.0282 -1.1041
  793MOL0     C 6934   9.074   3.863   8.944 -0.4037 -0.5436 -0.3788
  793MOL0     C 6935   9.069   3.914   9.085  0.2825  0.4955  0.2670
  793MOL0     C 6936   9.178   3.866   9.175  0.3998  0.5290  0.1384
  793MOL0     N 6937   9.290   3.956   9.183 -1.0374 -0.4782  0.1534
  793MOL0     C 6938   9.415   3.931   9.136 -0.1221  0.4919 -0.0420
  793MOL0     C 6939   9.500   4.031   9.174 -0.2022  0.3542 -0.3841
  793MOL0     C 6940   9.649   4.019   9.139 -0.0401 -0.4203 -0.3716
  793MOL0     C 6941   9.703   4.158   9.106  0.2267  0.3353  0.4814
  793MOL0     C 6942   9.848   4.146   9.061  0.6152  0.1692  0.6243
  793MOL0     C 6943   9.912   4.271   9.011  0.9333  0.3885 -0.3205
  793MOL0     O 6944  10.039   4.221   8.956  0.5169  0.6856 -0.2427
  793MOL0     C 6945  10.149   4.306   8.975  0.2382  1.2213 -0.7386
  793MOL0     C 6946  10.273   4.256   8.938  0.5204 -0.1208  0.3159
  793MOL0     C 6947  10.380   4.339   8.932  0.5596 -0.8979  0.2548
  793MOL0     C 6948  10.376   4.476   8.980  0.1211 -0.0148 -0.5925
  793MOL0     C 6949  10.487   4.571   8.962 -0.5273  0.2585 -0.3434
  793MOL0     O 6950  10.576   4.533   8.865  0.6041 -0.1722 -0.0332
  793MOL0     C 6951  10.684   4.618   8.863 -0.3524  0.2153  0.6116
  793MOL0     C 6952  10.790   4.612   8.955  0.0741 -0.3768  0.2795
  793MOL0     C 6953  10.886   4.713   8.941  0.1031 -0.3194 -0.3039
  793MOL0     C 6954  10.879   4.814   8.844 -0.4950 -0.4958 -1.0041
  793MOL0     O 6955  10.980   4.901   8.816  0.3172 -0.4901 -0.4436
  793MOL0     C 6956  11.092   4.909   8.912  0.4673  0.5147  0.3584
  793MOL0     C 6957  11.193   5.010   8.863  0.6336  0.0255 -0.4509
  793MOL0     C 6958  11.250   5.069   8.992 -0.1574 -0.3373 -0.2797
  793MOL0     C 6959  11.352   5.193   8.965 -0.2476  0.0607 -0.5167
  793MOL0     C 6960  11.419   5.233   9.093  0.7115  0.1887 -0.9810
  793MOL0     C 6961  11.499   5.363   9.095 -0.1316 -0.5690 -0.1735
  793MOL0     C 6962  11.575   5.368   9.230  0.1677 -0.3016  0.1741
  793MOL0     C 6963  11.652   5.498   9.237 -0.4282  0.7548  0.4069
  793MOL0    Cl 6964  11.691   5.526   9.412 -0.2432  0.2773  0.9947
  793MOL0     C 6965  10.764   4.820   8.760 -0.1074 -0.0267 -0.4476
  793MOL0     C 6966  10.668   4.719   8.767 -0.4144 -0.1861  0.4367
  793MOL0     O 6967  10.476   4.685   9.016  0.1388 -0.2834  0.2068
  793MOL0     C 6968  10.254   4.520   9.039  0.5477  0.2304 -0.0965
  793MOL0     C 6969  10.143   4.439   9.036  0.3512  0.0798  0.0508
  793MOL0     N 6970   9.431   4.127   9.240 -0.2314  0.0511 -0.4742
  793MOL0     N 6971   9.307   4.075   9.254 -0.6029  0.2913 -0.3169
  793MOL0     C 6972   8.785   3.642   8.662  0.4926  0.5097  0.2313
  793MOL0     C 6973   8.806   3.762   8.604  0.7257 -0.2471 -0.6950
  793MOL0     C 6974   9.053   4.086   8.352 -0.0759  0.6222 -0.0003
  793MOL0     C 6975   8.934   4.156   8.332 -0.6180  0.4426 -0.0247
  793MOL0     C 6976   8.942   4.274   8.252 -0.2630  0.0238  0.3792
  793MOL0     C 6977   9.055   4.328   8.203 -0.3756 -0.2571  0.3432
  793MOL0     O 6978   9.054   4.447   8.133 -0.8414  0.4067 -0.1667
  793MOL0     C 6979   9.184   4.515   8.094 -0.3520  0.4553 -0.1573
  793MOL0     C 6980   9.161   4.649   8.020  0.6270 -0.1992 -0.0146
  793MOL0     C 6981   9.178   4.631   7.872 -0.8380 -0.2256 -0.4978
  793MOL0     C 6982   9.055   4.576   7.807 -0.0960 -0.7053  0.1850
  793MOL0     C 6983   8.946   4.672   7.800  0.1770 -0.2013 -0.3490
  793MOL0     C 6984   8.858   4.763   7.793 -0.7467 -0.1415 -0.5156
  793MOL0     C 6985   9.171   4.252   8.219 -0.5725  0.1065 -1.3729
  793MOL0     C 6986   9.174   4.128   8.285  0.7018 -0.0623 -0.0118
  793MOL0     C 6987   9.311   4.050   8.284  1.2585 -0.7375  0.1495
  793MOL0     H 6988   9.023   3.670   8.373  1.0836 -3.2124  1.5506
  793MOL0     H 6989   8.991   3.452   8.482 -0.8227 -0.6254 -0.0426
  793MOL0     H 6990   8.931   3.260   8.813 -0.1753  1.9506  1.0483
  793MOL0     H 6991   9.018   3.301   8.665  2.6707  0.3999  1.6537
  793MOL0     H 6992   9.076   3.512   8.755  0.8890  1.3409  0.6250
  793MOL0     H 6993   9.141   3.383   8.852  0.9842  0.8338  0.7481
  793MOL0     H 6994   9.013   3.423   9.046  1.0813  0.6208  1.7323
  793MOL0     H 6995   8.886   3.490   8.937  0.4151 -2.2374 -3.1492
  793MOL0     H 6996   9.044   3.627   9.104 -0.5451 -1.4242 -0.1417
  793MOL0     H 6997   9.164   3.615   8.988  0.6658 -2.2982  2.4527
  793MOL0     H 6998   8.999   3.712   8.811 -0.0722 -1.3065 -0.8477
  793MOL0     H 6999   8.893   3.749   8.951  0.5321  1.2430  0.8811
  793MOL0     H 7000   9.177   3.839   8.917  0.7161 -0.7905  3.5390
  793MOL0     H 7001   9.037   3.944   8.879 -0.0982  0.4288  0.6371
  793MOL0     H 7002   8.972   3.877   9.121  1.0574 -2.6885 -0.6509
  793MOL0     H 7003   9.075   4.024   9.088  1.4695  0.5028 -1.2870
  793MOL0     H 7004   9.139   3.862   9.277  1.8688  3.0045  0.8990
  793MOL0     H 7005   9.219   3.775   9.130  1.0767  1.3273 -0.9277
  793MOL0     H 7006   9.427   3.853   9.062 -0.9765  0.5957 -0.2946
  793MOL0     H 7007   9.693   3.952   9.213 -2.8833 -0.3084  1.5893
  793MOL0     H 7008   9.646   3.954   9.050 -1.0191 -0.3772 -0.3785
  793MOL0     H 7009   9.635   4.201   9.031 -0.0886  0.3683  0.7810
  793MOL0     H 7010   9.700   4.234   9.185 -2.9680 -0.7558  1.5575
  793MOL0     H 7011   9.854   4.067   8.986 -0.7112 -1.1977  1.8878
  793MOL0     H 7012   9.912   4.101   9.138 -1.3971 -4.2837  0.0051
  793MOL0     H 7013   9.923   4.339   9.096  0.5532  1.4875 -1.1346
  793MOL0     H 7014   9.854   4.317   8.931 -2.3607 -0.2146  1.5452
  793MOL0     H 7015  10.285   4.154   8.902  2.0209 -1.0458  3.1346
  793MOL0     H 7016  10.475   4.303   8.894  2.3996  2.1512  1.6064
  793MOL0     H 7017  10.789   4.529   9.025 -1.0163 -1.1632 -0.6227
  793MOL0     H 7018  10.973   4.705   9.006  0.6500  2.0057 -0.6692
  793MOL0     H 7019  11.042   4.927   9.007 -3.6627 -4.2309 -0.5025
  793MOL0     H 7020  11.144   4.812   8.911 -0.1062  0.1460  2.3763
  793MOL0     H 7021  11.265   4.968   8.792 -0.6122 -1.2021 -1.0369
  793MOL0     H 7022  11.143   5.089   8.806  0.0643 -0.9936 -1.3788
  793MOL0     H 7023  11.171   5.094   9.064  1.2366 -0.4469  1.3494
  793MOL0     H 7024  11.307   4.991   9.043 -1.5589 -2.1386 -1.3609
  793MOL0     H 7025  11.300   5.276   8.916 -1.8987 -0.2836  0.5873
  793MOL0     H 7026  11.435   5.155   8.905 -0.9469 -1.9975 -0.2846
  793MOL0     H 7027  11.477   5.153   9.140 -1.6629  0.3317  2.5733
  793MOL0     H 7028  11.343   5.248   9.170  1.7968  0.6418  0.0371
  793MOL0     H 7029  11.562   5.353   9.006 -2.0768 -1.8813 -1.4941
  793MOL0     H 7030  11.430   5.448   9.085  1.6284  1.4257  2.9419
  793MOL0     H 7031  11.642   5.284   9.253  1.8570  0.8360 -0.4185
  793MOL0     H 7032  11.498   5.367   9.307  1.5353  1.7441  1.6682
  793MOL0     H 7033  11.751   5.503   9.192 -2.3149  1.8341 -4.1743
  793MOL0     H 7034  11.584   5.578   9.206  0.0472  0.7927 -0.5680
  793MOL0     H 7035  10.755   4.903   8.691 -0.4736 -0.9749 -1.5681
  793MOL0     H 7036  10.589   4.711   8.694 -1.9549  2.1466  1.7085
  793MOL0     H 7037  10.243   4.623   9.070  0.9291  0.8498 -1.8665
  793MOL0     H 7038  10.051   4.488   9.065  1.0847  1.4857  0.1066
  793MOL0     H 7039   8.717   3.636   8.747  1.8043 -1.1458  1.2394
  793MOL0     H 7040   8.755   3.849   8.644 -1.1603 -0.9428 -1.4318
  793MOL0     H 7041   8.837   4.136   8.376 -0.1105  0.5353  1.1627
  793MOL0     H 7042   8.843   4.318   8.245 -2.3449 -4.0189  1.4797
  793MOL0     H 7043   9.238   4.447   8.028 -1.7178  1.7982 -2.8330
  793MOL0     H 7044   9.239   4.532   8.187 -4.1012  0.5223  2.2461
  793MOL0     H 7045   9.243   4.714   8.053 -0.6666  2.5186 -1.7619
  793MOL0     H 7046   9.075   4.710   8.047  0.1495 -1.3096  1.0788
  793MOL0     H 7047   9.265   4.575   7.837 -0.6603 -0.4808  0.3314
  793MOL0     H 7048   9.194   4.735   7.842 -0.6593  1.8617  5.5020
  793MOL0     H 7049   9.085   4.556   7.704  1.7693  4.4335 -0.5654
  793MOL0     H 7050   9.022   4.483   7.855 -0.5077 -0.3773  0.5436
  793MOL0     H 7051   8.786   4.841   7.805 -0.5285  0.0026 -0.0774
  793MOL0     H 7052   9.262   4.283   8.169 -1.7968  0.1402 -3.7667
  793MOL0     H 7053   9.290   3.945   8.262  0.0375 -0.5017  0.1156
  793MOL0     H 7054   9.364   4.078   8.193  2.2886 -2.3167  0.2179
  793MOL0     H 7055   9.381   4.063   8.367  2.1172  3.8146 -1.0252
  794MOL0     O 7056   7.573   6.451   0.170  0.2665 -0.6866 -0.3174
  794MOL0     C 7057   7.593   6.425   0.285  0.1068  0.8998  0.4710
  794MOL0     O 7058   7.675   6.326   0.333 -1.5465  0.1187 -0.9423
  794MOL0     C 7059   7.744   6.252   0.239 -1.6396  0.4434  0.1522
  794MOL0     C 7060   7.765   6.116   0.262  1.4009  0.4520 -1.8662
  794MOL0     C 7061   7.832   6.032   0.171  0.4903 -0.4144 -0.3975
  794MOL0     C 7062   7.875   6.083   0.049  0.7844 -0.8424  0.5351
  794MOL0     O 7063   7.938   5.990  -0.035  0.5010  0.3903  0.1897
  794MOL0     C 7064   7.937   6.020  -0.180  0.0925  0.2572  0.1982
  794MOL0     C 7065   8.019   5.921  -0.264 -0.1705  0.1112 -0.3835
  794MOL0     C 7066   7.985   5.926  -0.417  0.2814 -0.3081  0.4197
  794MOL0     C 7067   8.048   6.046  -0.490 -0.5685 -0.6322  0.2193
  794MOL0     C 7068   8.021   6.033  -0.645 -1.1780 -0.2580  0.5539
  794MOL0     C 7069   8.114   5.938  -0.723 -0.0709  0.5847 -0.2835
  794MOL0     C 7070   8.262   5.967  -0.734 -0.1422  0.8986  0.2850
  794MOL0     C 7071   8.330   5.861  -0.819  0.0987 -1.2364  0.1022
  794MOL0     N 7072   8.465   5.884  -0.860 -0.7431  0.4748 -0.5458
  794MOL0     C 7073   8.587   5.880  -0.789  0.3216  0.1720 -0.2627
  794MOL0     C 7074   8.683   5.899  -0.895  0.1024  0.9177 -1.0316
  794MOL0     C 7075   8.831   5.933  -0.869 -0.6667 -0.0995  0.5686
  794MOL0     C 7076   8.836   6.023  -0.743  0.0055  0.0261 -0.3114
  794MOL0     C 7077   8.978   6.082  -0.713 -0.8999  0.9826 -0.8559
  794MOL0     C 7078   8.964   6.224  -0.647  0.1067  0.1501  0.3192
  794MOL0     O 7079   8.885   6.229  -0.525  0.1516  0.1830 -0.4922
  794MOL0     C 7080   8.886   6.341  -0.448 -0.3858  0.0819 -0.2393
  794MOL0     C 7081   8.821   6.325  -0.330  0.0957 -0.3260 -0.2944
  794MOL0     C 7082   8.801   6.431  -0.245  0.3377 -0.5754 -0.7635
  794MOL0     C 7083   8.849   6.559  -0.282  0.1301  0.7311  0.0337
  794MOL0     C 7084   8.810   6.681  -0.201 -1.2384 -0.0406  0.4726
  794MOL0     O 7085   8.693   6.670  -0.129  0.3524 -0.2977 -0.5940
  794MOL0     C 7086   8.666   6.762  -0.037 -0.8993 -0.1251 -0.3295
  794MOL0     C 7087   8.759   6.786   0.070 -0.4429  1.0375 -0.0789
  794MOL0     C 7088   8.730   6.872   0.170 -0.3669 -0.1637  0.1174
  794MOL0     C 7089   8.598   6.915   0.183 -0.6135  0.3086 -0.6099
  794MOL0     O 7090   8.562   6.996   0.280  0.2487 -0.2304  0.9706
  794MOL0     C 7091   8.566   6.931   0.404  0.0474 -0.2504 -0.4581
  794MOL0     C 7092   8.547   7.035   0.526 -0.3370  0.7398  1.3232
  794MOL0     C 7093   8.589   6.974   0.662 -0.3301  0.2947  0.3371
  794MOL0     C 7094   8.584   7.071   0.773 -0.3673  0.0386 -0.0382
  794MOL0     C 7095   8.625   7.017   0.907  0.0604  0.8005 -0.2144
  794MOL0     C 7096   8.614   7.130   1.021  0.0661  0.2528  0.4965
  794MOL0     C 7097   8.653   7.084   1.152  0.2347 -0.1597 -1.1538
  794MOL0     C 7098   8.803   7.048   1.160  0.2061  0.0670  0.0853
  794MOL0    Cl 7099   8.890   7.175   1.266 -0.1909  0.2856  0.2095
  794MOL0     C 7100   8.503   6.874   0.095 -0.5112 -0.7533 -0.6695
  794MOL0     C 7101   8.538   6.803  -0.014  0.7590 -0.1158  0.4772
  794MOL0     O 7102   8.873   6.784  -0.217  0.1265  0.1828  1.1779
  794MOL0     C 7103   8.932   6.570  -0.389 -0.1232 -0.1948 -0.1042
  794MOL0     C 7104   8.945   6.462  -0.479  0.1091 -0.2540 -0.7434
  794MOL0     N 7105   8.618   5.900  -1.019 -0.0982  0.0516  0.6339
  794MOL0     N 7106   8.490   5.893  -0.991  0.9210  0.6137  0.1804
  794MOL0     C 7107   7.862   6.219   0.024 -0.0195  0.0928  0.2982
  794MOL0     C 7108   7.800   6.307   0.121 -0.4670 -0.3867 -0.2294
  794MOL0     C 7109   7.539   6.515   0.387 -1.2335 -0.4484  0.7822
  794MOL0     C 7110   7.452   6.470   0.481  0.0229  1.0980  0.5320
  794MOL0     C 7111   7.362   6.547   0.548  0.6498  1.1495 -1.0390
  794MOL0     C 7112   7.377   6.683   0.551 -0.1972  0.5991  0.8907
  794MOL0     O 7113   7.298   6.768   0.617 -0.7650  0.3823  0.3584
  794MOL0     C 7114   7.235   6.724   0.741  0.4175 -0.2250  0.3843
  794MOL0     C 7115   7.179   6.840   0.823  0.3285  0.4929 -0.5094
  794MOL0     C 7116   7.289   6.937   0.866 -0.6184 -0.8156 -0.6173
  794MOL0     C 7117   7.254   6.992   1.010  0.5567 -0.1236 -0.2790
  794MOL0     C 7118   7.140   7.086   1.007 -1.0614 -0.2837  0.2246
  794MOL0     C 7119   7.058   7.175   1.003 -0.3058  0.0766 -0.7306
  794MOL0     C 7120   7.477   6.737   0.471 -1.0892 -0.3738 -0.7151
  794MOL0     C 7121   7.561   6.653   0.392 -0.1036  0.4343  0.4726
  794MOL0     C 7122   7.682   6.716   0.322 -0.6366  0.1318 -0.2625
  794MOL0     H 7123   7.714   6.079   0.350  3.6980  1.6299  0.0772
  794MOL0     H 7124   7.840   5.924   0.181  2.5164 -0.5567 -2.6923
  794MOL0     H 7125   7.832   6.021  -0.209  0.6680 -2.4555 -2.5259
  794MOL0     H 7126   7.979   6.121  -0.186 -2.9072  2.0426  4.2961
  794MOL0     H 7127   8.000   5.819  -0.229  1.6925 -0.1635 -0.0517
  794MOL0     H 7128   8.125   5.938  -0.240  0.1587 -1.1252 -0.8832
  794MOL0     H 7129   7.877   5.937  -0.433  0.3174 -1.7781 -1.0847
  794MOL0     H 7130   8.010   5.826  -0.454  0.8949  0.0073 -0.0363
  794MOL0     H 7131   8.013   6.140  -0.446 -1.1455 -0.3894 -0.7374
  794MOL0     H 7132   8.156   6.053  -0.476 -0.9339  2.0659  2.7713
  794MOL0     H 7133   7.916   6.015  -0.669 -1.4687  2.8959 -1.1338
  794MOL0     H 7134   8.052   6.123  -0.700 -0.4692 -1.8184 -1.7790
  794MOL0     H 7135   8.089   5.843  -0.674 -1.2763  0.0522 -1.8505
  794MOL0     H 7136   8.083   5.922  -0.827 -0.0219  1.6878 -0.4794
  794MOL0     H 7137   8.306   5.965  -0.634  0.4881 -0.5872  0.0095
  794MOL0     H 7138   8.287   6.060  -0.784 -1.1931  2.7647  3.0046
  794MOL0     H 7139   8.312   5.758  -0.785 -2.5190 -0.9408 -0.1693
  794MOL0     H 7140   8.276   5.860  -0.914 -1.0696 -5.4920  0.5877
  794MOL0     H 7141   8.591   5.885  -0.681 -1.5079  1.4953 -0.2200
  794MOL0     H 7142   8.884   5.839  -0.849 -2.5008 -1.0182  1.3084
  794MOL0     H 7143   8.876   5.982  -0.956 -0.9174  0.2803  0.6509
  794MOL0     H 7144   8.765   6.106  -0.753  1.0025  0.6598 -2.5975
  794MOL0     H 7145   8.803   5.967  -0.654 -2.3654 -0.9402 -1.6936
  794MOL0     H 7146   9.026   6.088  -0.811 -0.4179  0.8080 -0.6322
  794MOL0     H 7147   9.038   6.015  -0.651  1.4066  3.1855 -0.5643
  794MOL0     H 7148   8.941   6.305  -0.718  1.1577 -0.5755 -0.8906
  794MOL0     H 7149   9.063   6.257  -0.617 -0.1850  1.0526  0.3177
  794MOL0     H 7150   8.787   6.227  -0.299 -2.3178  0.1456 -1.1797
  794MOL0     H 7151   8.751   6.420  -0.149 -0.1648  1.6485 -0.7288
  794MOL0     H 7152   8.855   6.736   0.062 -0.8434  0.2721 -0.1666
  794MOL0     H 7153   8.812   6.900   0.236  0.7442 -0.2803 -1.1551
  794MOL0     H 7154   8.481   6.863   0.411  1.5512 -2.0984  1.1272
  794MOL0     H 7155   8.659   6.878   0.428 -0.9321 -1.3880  0.9835
  794MOL0     H 7156   8.603   7.127   0.504  0.9279 -0.3029  0.0034
  794MOL0     H 7157   8.440   7.053   0.533 -0.2989  0.5680  2.6420
  794MOL0     H 7158   8.529   6.887   0.689  0.5624 -0.0820  1.1626
  794MOL0     H 7159   8.693   6.942   0.649 -1.3840 -3.3028 -0.1224
  794MOL0     H 7160   8.484   7.115   0.779 -0.2545  0.3933 -0.6256
  794MOL0     H 7161   8.663   7.144   0.748 -0.1217 -0.4387 -0.6910
  794MOL0     H 7162   8.729   6.985   0.898 -0.4378 -1.4961  1.3305
  794MOL0     H 7163   8.573   6.924   0.931 -1.2889  1.4919 -0.3374
  794MOL0     H 7164   8.663   7.222   0.990 -0.5823  0.0569 -1.1974
  794MOL0     H 7165   8.507   7.149   1.015 -0.3462 -2.2117 -1.7509
  794MOL0     H 7166   8.586   7.005   1.186  2.3984 -0.4077  3.1324
  794MOL0     H 7167   8.621   7.164   1.219  1.5035 -1.9162  1.7136
  794MOL0     H 7168   8.808   6.945   1.196  0.9400 -0.1504 -0.6162
  794MOL0     H 7169   8.847   7.046   1.060 -2.3873 -1.4000 -1.1404
  794MOL0     H 7170   8.405   6.919   0.099 -1.5434 -2.9588  1.3022
  794MOL0     H 7171   8.473   6.803  -0.101  3.4133 -0.0603 -1.6413
  794MOL0     H 7172   8.971   6.669  -0.413 -1.9119  0.8934  1.2299
  794MOL0     H 7173   8.987   6.495  -0.573 -0.8379  2.1133 -0.4128
  794MOL0     H 7174   7.920   6.258  -0.059  2.5732 -1.7738  1.1292
  794MOL0     H 7175   7.805   6.408   0.082  2.4548 -1.2348 -2.3523
  794MOL0     H 7176   7.433   6.364   0.496  4.1787  0.4393  2.3175
  794MOL0     H 7177   7.279   6.503   0.603  2.7237  0.9366  2.1633
  794MOL0     H 7178   7.312   6.677   0.803 -0.0338 -1.5969 -0.0543
  794MOL0     H 7179   7.147   6.663   0.715  0.7106  0.1053 -1.5639
  794MOL0     H 7180   7.113   6.803   0.902  0.2700  1.0602 -0.2933
  794MOL0     H 7181   7.108   6.885   0.753 -4.0917 -0.7687  2.7892
  794MOL0     H 7182   7.289   7.019   0.794 -0.0327  1.9322  2.2935
  794MOL0     H 7183   7.383   6.881   0.877 -2.0439 -3.0962  0.9611
  794MOL0     H 7184   7.219   6.909   1.073 -2.1657  2.0539  1.3217
  794MOL0     H 7185   7.345   7.040   1.047  2.7306 -2.8385 -1.7280
  794MOL0     H 7186   6.987   7.254   1.013  1.3402  1.4921  0.2356
  794MOL0     H 7187   7.497   6.843   0.478 -0.9592 -0.4466  0.3089
  794MOL0     H 7188   7.776   6.661   0.332  0.3213  0.8301 -3.9707
  794MOL0     H 7189   7.662   6.728   0.215  0.0597  1.6237 -0.2614
  794MOL0     H 7190   7.706   6.816   0.360  0.3927 -0.2508  0.1359
  795MOL0     O 7191   0.273   8.458  11.171 -1.0960 -0.6974  0.5807
  795MOL0     C 7192   0.205   8.362  11.204 -0.3658 -0.4176 -0.0013
  795MOL0     O 7193   0.240   8.229  11.199  0.0165  0.1078  0.1295
  795MOL0     C 7194   0.362   8.200  11.144 -0.4268  0.4854  0.6491
  795MOL0     C 7195   0.455   8.128  11.223  0.0207 -0.6470 -0.7137
  795MOL0     C 7196   0.580   8.091  11.173 -0.1659 -0.7773 -0.4202
  795MOL0     C 7197   0.630   8.143  11.047  0.5992 -0.3018  0.2298
  795MOL0     O 7198   0.749   8.100  10.990 -0.2013  0.7271 -0.2310
  795MOL0     C 7199   0.793   7.967  11.004 -0.3990 -0.3159  0.3834
  795MOL0     C 7200   0.777   7.892  10.873  0.1706 -0.5296 -0.8969
  795MOL0     C 7201   0.898   7.816  10.821  0.2513 -0.7309 -1.2458
  795MOL0     C 7202   0.883   7.664  10.858  0.3422  1.0303 -0.7235
  795MOL0     C 7203   0.978   7.591  10.761 -0.0184  0.8717 -0.2514
  795MOL0     C 7204   0.985   7.445  10.825 -0.9818 -0.3527  0.5357
  795MOL0     C 7205   1.058   7.351  10.726 -1.3229 -0.3047 -0.2120
  795MOL0     C 7206   1.215   7.356  10.731  0.5491 -0.0380 -0.1230
  795MOL0     N 7207   1.254   7.330  10.869  1.3293  0.1515 -0.2298
  795MOL0     C 7208   1.282   7.424  10.972 -0.2375 -0.3557 -0.9617
  795MOL0     C 7209   1.330   7.355  11.079  0.8076  0.4387 -0.2719
  795MOL0     C 7210   1.372   7.410  11.214  0.5321  0.1383  1.4402
  795MOL0     C 7211   1.273   7.388  11.329  0.9890  0.7679  0.2636
  795MOL0     C 7212   1.172   7.504  11.364  0.6646 -0.2462 -0.8819
  795MOL0     C 7213   1.153   7.521  11.516 -0.1208  0.2062  0.2015
  795MOL0     O 7214   1.235   7.623  11.570 -0.3811 -0.9078 -0.2337
  795MOL0     C 7215   1.209   7.657  11.705  0.1046  0.1933  1.0191
  795MOL0     C 7216   1.108   7.604  11.787 -0.4441  0.9566  0.4355
  795MOL0     C 7217   1.102   7.655  11.919  0.6706 -0.8873 -0.3278
  795MOL0     C 7218   1.185   7.756  11.969  0.8974  0.0883  0.0753
  795MOL0     C 7219   1.155   7.820  12.102  0.0903 -0.1797  0.3706
  795MOL0     O 7220   1.067   7.763  12.179  0.4187 -0.2885 -0.3688
  795MOL0     C 7221   1.028   7.806  12.307 -1.5057  0.3026 -0.4816
  795MOL0     C 7222   0.968   7.711  12.381 -0.2235  0.9500 -0.2832
  795MOL0     C 7223   0.928   7.744  12.514  0.7386 -0.1850 -0.1259
  795MOL0     C 7224   0.926   7.886  12.548 -0.5097 -0.5942 -0.4588
  795MOL0     O 7225   0.900   7.931  12.676 -0.5743  0.5867 -0.8836
  795MOL0     C 7226   0.834   7.847  12.776  0.0457 -0.2791 -0.6300
  795MOL0     C 7227   0.748   7.929  12.880  0.3057 -0.8405  0.0001
  795MOL0     C 7228   0.629   7.970  12.791  0.2988 -0.1680 -0.2102
  795MOL0     C 7229   0.507   8.033  12.857 -0.4611  0.0416  0.2281
  795MOL0     C 7230   0.545   8.159  12.947  0.0070  0.2598  0.2085
  795MOL0     C 7231   0.428   8.210  13.025  0.3872 -0.0194 -0.0245
  795MOL0     C 7232   0.475   8.324  13.116 -0.6117 -0.6793 -0.6300
  795MOL0     C 7233   0.349   8.384  13.197  0.0857  0.2520 -0.0055
  795MOL0    Cl 7234   0.229   8.447  13.075 -0.4127 -0.1364 -0.3020
  795MOL0     C 7235   0.986   7.977  12.466  1.1142  1.0581 -0.1370
  795MOL0     C 7236   1.037   7.938  12.342  0.7190 -0.1426 -0.6442
  795MOL0     O 7237   1.231   7.911  12.129  0.5782 -0.5452  0.2072
  795MOL0     C 7238   1.288   7.792  11.888 -0.5458 -0.6483  0.2166
  795MOL0     C 7239   1.303   7.749  11.756  0.8269  0.1126 -1.2810
  795MOL0     N 7240   1.339   7.222  11.046  0.6365  0.0438  0.3661
  795MOL0     N 7241   1.289   7.212  10.925 -0.4042  0.7322 -0.0274
  795MOL0     C 7242   0.537   8.214  10.966 -0.4263  0.8253  0.0897
  795MOL0     C 7243   0.408   8.235  11.020 -0.6034 -0.5079 -0.2481
  795MOL0     C 7244   0.077   8.391  11.263  0.3253 -1.3418 -0.1575
  795MOL0     C 7245   0.043   8.312  11.372  0.1862  0.0652 -0.3833
  795MOL0     C 7246  -0.076   8.335  11.431 -0.3431 -0.3557 -0.6035
  795MOL0     C 7247  -0.154   8.450  11.409  0.5986  0.8281 -0.4314
  795MOL0     O 7248  -0.268   8.460  11.477 -0.7584  0.1946  0.2924
  795MOL0     C 7249  -0.290   8.573  11.549  0.2274  0.5869 -0.4069
  795MOL0     C 7250  -0.420   8.572  11.635  1.0599 -0.2061 -0.2216
  795MOL0     C 7251  -0.556   8.564  11.562 -0.3515 -0.8823  0.0197
  795MOL0     C 7252  -0.695   8.557  11.646  0.0550 -0.5689  0.6279
  795MOL0     C 7253  -0.699   8.438  11.724 -0.0889 -0.8502 -0.2990
  795MOL0     C 7254  -0.712   8.340  11.789 -0.7979  0.0405  0.2882
  795MOL0     C 7255  -0.118   8.534  11.311  0.6252 -0.6116  0.5260
  795MOL0     C 7256  -0.006   8.504  11.237 -0.5613 -0.8424  0.0769
  795MOL0     C 7257   0.027   8.583  11.114 -0.4259 -0.0885  0.6277
  795MOL0     H 7258   0.423   8.100  11.323 -1.3710  3.5192  0.1985
  795MOL0     H 7259   0.635   8.031  11.245 -2.0582 -1.3555  0.6195
  795MOL0     H 7260   0.896   7.976  11.040 -0.7150 -2.4523  1.9963
  795MOL0     H 7261   0.746   7.906  11.081 -0.9471 -1.8617 -1.1245
  795MOL0     H 7262   0.765   7.970  10.798  0.3245  0.1345 -0.2412
  795MOL0     H 7263   0.689   7.828  10.880 -2.1310  2.3342 -1.8273
  795MOL0     H 7264   0.989   7.850  10.872 -0.4698 -0.4831 -0.1027
  795MOL0     H 7265   0.913   7.837  10.714  3.5708 -1.7546 -1.1008
  795MOL0     H 7266   0.907   7.642  10.962  3.6443  3.4086 -0.8306
  795MOL0     H 7267   0.780   7.635  10.834  1.1019 -2.5254 -0.2331
  795MOL0     H 7268   0.948   7.596  10.656  2.5358  2.3024 -0.9956
  795MOL0     H 7269   1.081   7.629  10.762  0.0100  0.7949 -0.1875
  795MOL0     H 7270   1.034   7.449  10.923 -2.5985 -1.1444  1.4204
  795MOL0     H 7271   0.886   7.403  10.847 -0.9938  0.2403  1.6734
  795MOL0     H 7272   1.030   7.367  10.622  0.8594  1.1828 -0.6314
  795MOL0     H 7273   1.031   7.246  10.741  4.4845 -2.3719 -1.7144
  795MOL0     H 7274   1.267   7.294  10.657  2.0200  2.3350 -1.1854
  795MOL0     H 7275   1.239   7.453  10.687 -0.3791 -0.9197 -2.7533
  795MOL0     H 7276   1.257   7.529  10.981  2.0815  0.0604  3.4018
  795MOL0     H 7277   1.455   7.345  11.241  2.1012  1.0167 -0.9839
  795MOL0     H 7278   1.392   7.517  11.200  0.5817 -0.2052 -2.2133
  795MOL0     H 7279   1.212   7.298  11.313  0.8749  0.8918 -0.0013
  795MOL0     H 7280   1.328   7.376  11.423  1.8750 -0.9274 -0.4440
  795MOL0     H 7281   1.076   7.480  11.317  1.0864 -1.8273 -0.9999
  795MOL0     H 7282   1.211   7.601  11.332  1.3470  1.1368  3.4884
  795MOL0     H 7283   1.174   7.427  11.568  2.1627  1.1268  1.0887
  795MOL0     H 7284   1.048   7.537  11.539  0.2877  2.0603  0.9481
  795MOL0     H 7285   1.033   7.544  11.736 -0.1527  3.9159 -4.1307
  795MOL0     H 7286   1.011   7.645  11.978  0.1599  2.0569 -0.4666
  795MOL0     H 7287   0.960   7.612  12.339  1.5037  0.7953 -0.3210
  795MOL0     H 7288   0.901   7.667  12.586  1.5415  0.6093  1.0498
  795MOL0     H 7289   0.770   7.774  12.725 -0.6140  0.1935 -0.4911
  795MOL0     H 7290   0.902   7.788  12.838 -0.1874  1.1211  1.0202
  795MOL0     H 7291   0.716   7.872  12.968  1.5389  0.1449  1.1076
  795MOL0     H 7292   0.808   8.015  12.908 -0.0709 -0.5872  0.0349
  795MOL0     H 7293   0.667   8.042  12.719 -2.7958  0.4238 -1.4240
  795MOL0     H 7294   0.595   7.884  12.731  2.0965  0.0021 -1.5532
  795MOL0     H 7295   0.465   7.961  12.928  0.7371 -2.2723 -1.2776
  795MOL0     H 7296   0.433   8.052  12.780 -0.2196 -1.3442 -0.3801
  795MOL0     H 7297   0.611   8.219  12.884  0.3077 -2.1170 -1.9378
  795MOL0     H 7298   0.616   8.135  13.026  2.1292  4.2708 -0.2126
  795MOL0     H 7299   0.350   8.238  12.953  0.2761 -3.4109 -1.3896
  795MOL0     H 7300   0.376   8.133  13.084 -2.8214  1.6066 -0.4861
  795MOL0     H 7301   0.523   8.408  13.066  1.6576 -0.5522  1.5179
  795MOL0     H 7302   0.548   8.286  13.188 -0.3124 -1.7577 -1.4775
  795MOL0     H 7303   0.325   8.314  13.278 -0.2622 -0.1570 -0.4607
  795MOL0     H 7304   0.377   8.473  13.255  5.3241 -1.2489  0.2581
  795MOL0     H 7305   0.994   8.081  12.496  0.7513  0.3431  2.7580
  795MOL0     H 7306   1.091   8.010  12.280 -0.0664  0.8337 -0.2283
  795MOL0     H 7307   1.359   7.867  11.920 -1.1298  0.8243 -1.7456
  795MOL0     H 7308   1.378   7.787  11.686 -0.3488  0.4866 -2.3768
  795MOL0     H 7309   0.572   8.250  10.870  2.9087 -3.3113 -0.5520
  795MOL0     H 7310   0.349   8.307  10.964 -2.0819 -1.7357 -0.3274
  795MOL0     H 7311   0.100   8.226  11.407 -1.7331 -0.5238  1.5206
  795MOL0     H 7312  -0.103   8.268  11.512  0.3207 -0.1889 -0.2278
  795MOL0     H 7313  -0.317   8.654  11.481 -1.8498  0.8551  0.6528
  795MOL0     H 7314  -0.198   8.595  11.603  1.7584 -0.5106 -2.4444
  795MOL0     H 7315  -0.421   8.666  11.692 -2.7259  0.9274 -1.7923
  795MOL0     H 7316  -0.412   8.486  11.701 -1.3844 -0.1623  0.2337
  795MOL0     H 7317  -0.553   8.480  11.492 -0.4536  0.6779 -1.9683
  795MOL0     H 7318  -0.569   8.654  11.500  0.2300 -0.1787  0.9057
  795MOL0     H 7319  -0.692   8.645  11.711 -4.9717  0.5782 -0.2422
  795MOL0     H 7320  -0.777   8.563  11.573 -0.8302  0.1609  1.6458
  795MOL0     H 7321  -0.723   8.271  11.870 -1.3227 -1.8260 -1.2863
  795MOL0     H 7322  -0.188   8.613  11.285  1.0218 -0.2376  0.5745
  795MOL0     H 7323   0.048   8.512  11.033 -0.9582 -2.5150  2.5118
  795MOL0     H 7324  -0.060   8.646  11.093  0.8755  2.5816  2.6533
  795MOL0     H 7325   0.107   8.657  11.120 -0.7574  0.3784 -0.3886
  796MOL0     O 7326   6.037   9.067   7.898 -0.0016 -0.0560  0.6377
  796MOL0     C 7327   6.132   9.008   7.849 -1.0209 -0.8050  0.1532
  796MOL0     O 7328   6.251   9.061   7.808  0.3044  0.3593  0.1327
  796MOL0     C 7329   6.274   9.190   7.791  0.1658 -0.6615  0.1968
  796MOL0     C 7330   6.179   9.290   7.744  0.4180 -0.1959 -0.1466
  796MOL0     C 7331   6.228   9.422   7.704 -0.1472  0.4750  0.0973
  796MOL0     C 7332   6.362   9.446   7.718 -0.5245 -0.4753  0.4983
  796MOL0     O 7333   6.399   9.576   7.683 -0.5657 -0.1433 -0.2919
  796MOL0     C 7334   6.334   9.692   7.735 -0.2686 -1.4127 -0.2458
  796MOL0     C 7335   6.227   9.756   7.643 -0.5604 -0.7976  0.5695
  796MOL0     C 7336   6.196   9.901   7.666  0.1776 -1.0671 -1.4123
  796MOL0     C 7337   6.077   9.951   7.593 -0.1090  0.1767  0.8281
  796MOL0     C 7338   6.071  10.099   7.568  0.9666 -0.3486 -0.6840
  796MOL0     C 7339   5.944  10.145   7.501  0.5157 -0.6412  0.4266
  796MOL0     C 7340   5.930  10.296   7.531  0.1869  0.2150  0.0217
  796MOL0     C 7341   5.806  10.360   7.443 -0.4736  0.2491  0.1032
  796MOL0     N 7342   5.764  10.494   7.484 -0.3822  0.4371 -0.3667
  796MOL0     C 7343   5.701  10.515   7.607  0.2074  0.2315 -1.0389
  796MOL0     C 7344   5.714  10.648   7.625 -0.3933  1.0739 -0.5628
  796MOL0     C 7345   5.670  10.712   7.750 -0.1497 -0.5062  0.7531
  796MOL0     C 7346   5.545  10.817   7.740 -0.4105  0.3387 -1.3618
  796MOL0     C 7347   5.584  10.948   7.658  0.5337  0.1664  0.3818
  796MOL0     C 7348   5.476  11.053   7.627  0.4720 -0.5089 -0.1369
  796MOL0     O 7349   5.359  10.986   7.586  0.7599  0.4116  0.1925
  796MOL0     C 7350   5.246  11.056   7.591 -1.1649 -0.0757  0.2034
  796MOL0     C 7351   5.238  11.187   7.622  0.4812  0.6052 -0.6473
  796MOL0     C 7352   5.127  11.264   7.597 -0.0024  0.2485  0.0543
  796MOL0     C 7353   5.015  11.201   7.547  0.0746  0.2575  0.2336
  796MOL0     C 7354   4.891  11.272   7.511 -0.4259  0.9988  0.1822
  796MOL0     O 7355   4.908  11.379   7.436  0.0292 -0.2368  0.1827
  796MOL0     C 7356   4.808  11.443   7.383  0.3214  0.4050  0.5868
  796MOL0     C 7357   4.757  11.562   7.430  0.1495 -0.2634 -0.0984
  796MOL0     C 7358   4.655  11.622   7.359 -0.3212 -0.1257  0.6207
  796MOL0     C 7359   4.587  11.556   7.260  0.5170  0.2682  0.2285
  796MOL0     O 7360   4.466  11.597   7.195 -0.1710 -0.3723 -0.4095
  796MOL0     C 7361   4.379  11.669   7.281  0.1294  0.0834 -0.8766
  796MOL0     C 7362   4.337  11.790   7.201 -0.1951  0.2087  0.0152
  796MOL0     C 7363   4.439  11.901   7.220  0.3204  0.8754  0.1841
  796MOL0     C 7364   4.390  12.020   7.154 -0.3069 -0.6965  0.1835
  796MOL0     C 7365   4.430  12.149   7.223  0.1373  0.6080 -0.4415
  796MOL0     C 7366   4.565  12.195   7.178  0.3825 -0.0027 -0.3946
  796MOL0     C 7367   4.668  12.144   7.280  0.9217  0.2597 -0.4109
  796MOL0     C 7368   4.806  12.211   7.252  0.1972  1.2760  0.2881
  796MOL0    Cl 7369   4.786  12.378   7.307 -0.4278 -0.4685  0.1232
  796MOL0     C 7370   4.634  11.436   7.207 -0.8573 -0.1234  1.0713
  796MOL0     C 7371   4.742  11.381   7.275 -0.1076  0.1485 -0.6040
  796MOL0     O 7372   4.784  11.227   7.548  0.1875 -0.1614  0.5054
  796MOL0     C 7373   5.014  11.063   7.517 -0.0594 -0.1600  0.9573
  796MOL0     C 7374   5.130  10.999   7.538 -0.4837  0.8156  0.1326
  796MOL0     N 7375   5.786  10.693   7.523 -0.3853 -0.5397 -0.3334
  796MOL0     N 7376   5.823  10.601   7.442  0.3686  0.0167  0.1827
  796MOL0     C 7377   6.448   9.352   7.778 -0.5663  0.3223  0.7051
  796MOL0     C 7378   6.406   9.225   7.808  0.3881 -0.0341 -0.6278
  796MOL0     C 7379   6.116   8.862   7.813  0.2669  0.5698 -0.4489
  796MOL0     C 7380   6.231   8.785   7.769  0.5119  0.4384 -0.0371
  796MOL0     C 7381   6.219   8.644   7.748  0.2829 -0.1283  0.2326
  796MOL0     C 7382   6.103   8.570   7.765  0.2778 -0.0770 -0.1031
  796MOL0     O 7383   6.103   8.436   7.743  0.3417  0.3574  0.1181
  796MOL0     C 7384   6.156   8.390   7.616  1.1213 -0.8163 -1.1010
  796MOL0     C 7385   6.070   8.279   7.551  0.3795  0.0844 -0.2380
  796MOL0     C 7386   6.047   8.172   7.642 -0.0620  1.5136  0.1223
  796MOL0     C 7387   5.970   8.069   7.569  0.7630  1.1932 -0.3160
  796MOL0     C 7388   5.824   8.108   7.571  0.6314  0.3767 -0.8951
  796MOL0     C 7389   5.704   8.111   7.598  0.0959 -0.5843 -0.2803
  796MOL0     C 7390   5.986   8.651   7.792  0.1841 -0.3487 -0.7303
  796MOL0     C 7391   5.990   8.790   7.819  0.7275  0.0857  0.8142
  796MOL0     C 7392   5.857   8.861   7.851  0.1878  0.9683  0.0255
  796MOL0     H 7393   6.077   9.262   7.722  0.2584  0.8511 -0.7993
  796MOL0     H 7394   6.163   9.491   7.651  0.8561  1.0598 -0.4010
  796MOL0     H 7395   6.298   9.683   7.838 -1.9545  3.0160 -0.2299
  796MOL0     H 7396   6.415   9.763   7.746 -0.6601 -1.1561  1.1520
  796MOL0     H 7397   6.132   9.706   7.666 -1.1627 -0.0969 -0.3260
  796MOL0     H 7398   6.253   9.732   7.539 -3.0540 -2.5409  0.2368
  796MOL0     H 7399   6.282   9.957   7.628 -1.2578  3.1965  0.9139
  796MOL0     H 7400   6.171   9.924   7.770 -0.8101  1.1153 -2.0598
  796MOL0     H 7401   6.048   9.904   7.499 -1.6737 -2.6089  2.5585
  796MOL0     H 7402   5.990   9.931   7.657 -1.6156 -1.9098 -1.6938
  796MOL0     H 7403   6.072  10.150   7.665 -1.5835  1.9890 -1.7369
  796MOL0     H 7404   6.149  10.135   7.499  0.3940  3.4097  0.3857
  796MOL0     H 7405   5.933  10.137   7.393 -1.3133  0.4479  0.4986
  796MOL0     H 7406   5.865  10.085   7.547  0.9700  0.3385  2.6447
  796MOL0     H 7407   6.024  10.343   7.503  0.6095 -0.9143 -0.5068
  796MOL0     H 7408   5.915  10.306   7.639  2.1574  0.4494  0.2961
  796MOL0     H 7409   5.836  10.356   7.338 -2.6203 -1.7483 -0.5359
  796MOL0     H 7410   5.719  10.294   7.454 -2.6717  2.9618  0.1437
  796MOL0     H 7411   5.653  10.445   7.674  1.0351  0.9019  0.2992
  796MOL0     H 7412   5.626  10.638   7.817 -1.3347  0.0596  0.6199
  796MOL0     H 7413   5.757  10.744   7.808  0.4676 -0.8896  0.0671
  796MOL0     H 7414   5.468  10.753   7.696 -0.8763  0.8735 -1.3244
  796MOL0     H 7415   5.538  10.844   7.845  3.3647  3.4370 -1.6711
  796MOL0     H 7416   5.623  10.924   7.559  0.9889  1.0609  0.3332
  796MOL0     H 7417   5.669  10.987   7.713  1.9035 -3.1357  0.8414
  796MOL0     H 7418   5.500  11.137   7.561 -2.0455  1.9420  1.8319
  796MOL0     H 7419   5.470  11.103   7.724  0.4293  1.2742 -0.9984
  796MOL0     H 7420   5.316  11.234   7.681 -1.1162  2.7944 -0.1137
  796MOL0     H 7421   5.139  11.368   7.627  3.1388 -0.1716  0.6704
  796MOL0     H 7422   4.792  11.618   7.516 -3.8241  0.5314  1.1876
  796MOL0     H 7423   4.619  11.719   7.390  0.1483 -0.6862  3.1489
  796MOL0     H 7424   4.281  11.621   7.289  0.2619 -0.0699 -0.0393
  796MOL0     H 7425   4.399  11.695   7.386 -2.2806  0.3518 -0.4086
  796MOL0     H 7426   4.321  11.769   7.095  3.5539 -0.1720 -0.6279
  796MOL0     H 7427   4.252  11.829   7.258  1.1681  0.4311  2.0083
  796MOL0     H 7428   4.458  11.914   7.327  2.4751 -0.3295  0.0019
  796MOL0     H 7429   4.531  11.873   7.168 -1.1385 -5.1229  0.1391
  796MOL0     H 7430   4.282  12.027   7.168 -0.0025  0.9580  2.3105
  796MOL0     H 7431   4.421  12.022   7.049  3.4967  3.0626  1.0701
  796MOL0     H 7432   4.416  12.145   7.331  0.7788 -0.0179 -0.3733
  796MOL0     H 7433   4.364  12.226   7.181  1.1531  1.2922 -0.8391
  796MOL0     H 7434   4.585  12.175   7.072 -1.6981  0.5727 -0.9601
  796MOL0     H 7435   4.572  12.304   7.184  1.9872 -0.1721  2.9278
  796MOL0     H 7436   4.685  12.036   7.274 -0.9734 -0.3899  3.2481
  796MOL0     H 7437   4.634  12.165   7.382 -0.4942 -0.8122 -0.6257
  796MOL0     H 7438   4.876  12.154   7.313 -0.5324  0.4378  0.3496
  796MOL0     H 7439   4.833  12.198   7.147  0.2508 -1.8371  0.5910
  796MOL0     H 7440   4.593  11.407   7.111 -1.2040 -1.6681  1.6681
  796MOL0     H 7441   4.781  11.284   7.243 -0.5795 -0.1712 -0.2304
  796MOL0     H 7442   4.938  11.002   7.469  1.8509 -0.4806 -1.8788
  796MOL0     H 7443   5.136  10.891   7.532 -0.3943  0.5276  3.3387
  796MOL0     H 7444   6.555   9.369   7.777  0.0697 -3.0311  0.1444
  796MOL0     H 7445   6.475   9.144   7.827 -1.3685 -1.7310 -1.0474
  796MOL0     H 7446   6.324   8.834   7.744  0.6813  0.4621  0.6260
  796MOL0     H 7447   6.308   8.587   7.722  1.5879  1.8438  0.1551
  796MOL0     H 7448   6.260   8.358   7.623  1.2182 -0.4796 -0.9844
  796MOL0     H 7449   6.165   8.469   7.541  0.5152  1.1141  0.7851
  796MOL0     H 7450   6.128   8.255   7.462 -0.4182  1.0252 -1.0415
  796MOL0     H 7451   5.974   8.320   7.519  1.4769  2.5511 -0.6700
  796MOL0     H 7452   6.000   8.211   7.733 -1.4136 -2.1237  1.1479
  796MOL0     H 7453   6.148   8.134   7.659 -0.5264 -0.0320 -0.4630
  796MOL0     H 7454   6.016   8.046   7.472  0.2844 -2.1748  0.1545
  796MOL0     H 7455   5.983   7.972   7.618  1.8934 -0.2063 -3.1563
  796MOL0     H 7456   5.600   8.124   7.619  0.1123 -0.2105 -0.4254
  796MOL0     H 7457   5.897   8.590   7.798  1.3357 -2.1237 -0.7847
  796MOL0     H 7458   5.774   8.800   7.813 -1.1887  1.6981  1.6725
  796MOL0     H 7459   5.845   8.864   7.960 -2.3795 -1.7912 -0.0434
  796MOL0     H 7460   5.852   8.961   7.806 -1.0158  0.1541 -1.7477
  797MOL0     O 7461   0.067   1.522  10.036  0.0328 -0.2778 -0.2165
  797MOL0     C 7462   0.009   1.571   9.936 -0.0222 -0.0129 -0.2220
  797MOL0     O 7463  -0.102   1.647   9.942 -0.1434 -0.0706  0.0874
  797MOL0     C 7464  -0.128   1.689  10.065  0.2862  0.0136 -1.5394
  797MOL0     C 7465  -0.061   1.804  10.116 -0.2518  0.3891 -0.2335
  797MOL0     C 7466  -0.082   1.857  10.247 -0.7077 -0.0648 -0.7960
  797MOL0     C 7467  -0.170   1.787  10.325 -0.3004 -0.1698 -0.4232
  797MOL0     O 7468  -0.187   1.829  10.459 -0.0257  0.3949 -0.3212
  797MOL0     C 7469  -0.227   1.724  10.557 -0.0646  0.0688  0.3542
  797MOL0     C 7470  -0.209   1.783  10.697 -0.7051  0.7229  0.4352
  797MOL0     C 7471  -0.291   1.915  10.723  0.5977  0.8322  0.1047
  797MOL0     C 7472  -0.227   2.001  10.832 -0.4917 -0.3309  0.0746
  797MOL0     C 7473  -0.340   2.075  10.898 -0.4649 -0.5619  0.7522
  797MOL0     C 7474  -0.389   2.005  11.023  0.3231  0.3358 -1.0385
  797MOL0     C 7475  -0.500   2.072  11.103  0.0526 -0.0068  0.0339
  797MOL0     C 7476  -0.529   1.994  11.237 -1.6213 -0.2224  0.3521
  797MOL0     N 7477  -0.661   2.030  11.280 -0.3063  0.5648  1.1725
  797MOL0     C 7478  -0.767   1.942  11.296 -1.0836  0.5691  1.3407
  797MOL0     C 7479  -0.857   2.007  11.370  0.2270  0.1781 -0.0614
  797MOL0     C 7480  -0.992   1.954  11.400  0.1710  0.2103  0.3673
  797MOL0     C 7481  -1.110   2.022  11.320 -1.1571 -0.3552  0.4722
  797MOL0     C 7482  -1.090   1.996  11.168 -0.4783  0.9838 -0.3104
  797MOL0     C 7483  -1.033   2.119  11.101 -0.6260 -0.7750  0.1902
  797MOL0     O 7484  -1.054   2.113  10.959 -0.2030 -1.0000 -0.0886
  797MOL0     C 7485  -1.024   1.999  10.890 -0.3298  0.4727  0.5017
  797MOL0     C 7486  -1.111   1.946  10.804  1.0011  0.3383 -0.0565
  797MOL0     C 7487  -1.095   1.823  10.739  0.7066 -0.8132 -0.0568
  797MOL0     C 7488  -0.985   1.745  10.771 -0.1954  0.3386  0.0744
  797MOL0     C 7489  -0.961   1.613  10.703 -0.8130  0.9812  0.0714
  797MOL0     O 7490  -1.068   1.553  10.651  0.4436  0.2873  0.1196
  797MOL0     C 7491  -1.036   1.450  10.564 -0.3197 -1.1290  0.1621
  797MOL0     C 7492  -0.940   1.423  10.466 -0.3601  0.0794  0.8560
  797MOL0     C 7493  -0.933   1.297  10.401 -0.1226  0.5018 -0.0875
  797MOL0     C 7494  -1.032   1.202  10.430  0.3050  0.0115  0.7366
  797MOL0     O 7495  -1.022   1.082  10.363 -0.9287 -0.3856  0.2514
  797MOL0     C 7496  -1.106   0.973  10.389 -0.0357 -0.0346  0.2870
  797MOL0     C 7497  -1.036   0.850  10.332  0.6055  0.3589 -0.5655
  797MOL0     C 7498  -1.122   0.727  10.329  0.8814 -0.7371  0.2800
  797MOL0     C 7499  -1.052   0.611  10.258  0.2511  0.4331 -0.2969
  797MOL0     C 7500  -0.922   0.562  10.322  0.1286  0.0036  0.7684
  797MOL0     C 7501  -0.893   0.423  10.274 -0.2849  1.2208  0.1251
  797MOL0     C 7502  -0.762   0.357  10.342 -0.1490 -0.6386  0.9295
  797MOL0     C 7503  -0.691   0.262  10.241  0.1350 -0.1039  0.1774
  797MOL0    Cl 7504  -0.547   0.185  10.320 -0.2487 -0.0039  0.3250
  797MOL0     C 7505  -1.137   1.237  10.512 -0.6355 -0.2887  0.1187
  797MOL0     C 7506  -1.139   1.356  10.584  0.7584 -0.1256  1.0875
  797MOL0     O 7507  -0.838   1.576  10.697 -0.2391 -0.2085 -0.2029
  797MOL0     C 7508  -0.882   1.802  10.854 -0.4129 -0.3815  0.8185
  797MOL0     C 7509  -0.896   1.935  10.911  1.0799 -1.0539  0.2672
  797MOL0     N 7510  -0.806   2.135  11.393 -0.1281  0.1962  0.0251
  797MOL0     N 7511  -0.688   2.143  11.344  0.6169 -0.8320  0.1019
  797MOL0     C 7512  -0.242   1.681  10.277  0.6002 -0.1328  0.5350
  797MOL0     C 7513  -0.232   1.635  10.148 -0.2069  1.2406  0.7485
  797MOL0     C 7514   0.048   1.525   9.798 -0.0576 -0.2843 -0.4050
  797MOL0     C 7515   0.028   1.626   9.694  0.1721 -0.1258 -0.1551
  797MOL0     C 7516   0.075   1.596   9.570  0.8028  0.0812  0.2724
  797MOL0     C 7517   0.134   1.474   9.540 -1.0308 -0.0008 -0.1312
  797MOL0     O 7518   0.196   1.460   9.409 -0.1932 -0.1597 -0.2130
  797MOL0     C 7519   0.104   1.449   9.306  0.3380  0.2320  0.6125
  797MOL0     C 7520   0.143   1.526   9.173 -0.9338 -0.0935  0.0050
  797MOL0     C 7521   0.051   1.491   9.054 -0.2808 -0.1837 -0.5431
  797MOL0     C 7522   0.111   1.532   8.919 -0.0694  0.4301 -0.9959
  797MOL0     C 7523   0.017   1.507   8.811 -0.3141 -0.9676  0.6752
  797MOL0     C 7524  -0.059   1.500   8.714 -0.7198 -0.3086 -0.4246
  797MOL0     C 7525   0.145   1.371   9.630  0.2647  0.2686  0.9158
  797MOL0     C 7526   0.104   1.395   9.770  0.0208 -0.5288 -0.3018
  797MOL0     C 7527   0.117   1.281   9.859  0.1259  0.1904  0.1208
  797MOL0     H 7528   0.006   1.859  10.051  0.8783 -0.0159  0.5676
  797MOL0     H 7529  -0.025   1.943  10.280 -2.8573  1.1479 -0.0478
  797MOL0     H 7530  -0.334   1.705  10.538 -0.5720  1.8472  1.2161
  797MOL0     H 7531  -0.177   1.628  10.540 -1.0096 -0.0882 -1.9524
  797MOL0     H 7532  -0.100   1.793  10.708 -0.1441 -1.6465 -1.9828
  797MOL0     H 7533  -0.240   1.713  10.775  2.5289 -3.2556 -1.4933
  797MOL0     H 7534  -0.389   1.882  10.758 -0.1974  0.2217 -2.4453
  797MOL0     H 7535  -0.306   1.960  10.624 -0.0941 -4.2951 -2.4633
  797MOL0     H 7536  -0.163   1.936  10.892 -0.7608 -2.0478 -1.4180
  797MOL0     H 7537  -0.165   2.079  10.786 -0.7929 -0.3354 -0.3479
  797MOL0     H 7538  -0.297   2.169  10.934 -1.4754 -1.3744  4.5690
  797MOL0     H 7539  -0.426   2.093  10.833  1.5931  2.6962 -1.3652
  797MOL0     H 7540  -0.434   1.909  11.000  0.8184 -0.4124  0.9614
  797MOL0     H 7541  -0.306   1.992  11.093 -0.8141  0.2683  0.3298
  797MOL0     H 7542  -0.587   2.070  11.037  1.3214  0.0001 -1.7192
  797MOL0     H 7543  -0.478   2.178  11.118  1.1673 -0.5302  2.4860
  797MOL0     H 7544  -0.522   1.887  11.216 -0.6877  0.2296 -2.0027
  797MOL0     H 7545  -0.447   2.022  11.303  2.9099  0.9780 -5.0057
  797MOL0     H 7546  -0.790   1.849  11.245 -0.7200  1.5315 -0.6823
  797MOL0     H 7547  -0.996   1.845  11.393 -2.2908  0.0925  2.5329
  797MOL0     H 7548  -1.006   1.981  11.505 -0.6118  4.9635 -0.7679
  797MOL0     H 7549  -1.206   1.973  11.342 -1.7528 -0.7196 -2.4791
  797MOL0     H 7550  -1.109   2.128  11.346  4.8514 -0.2547  1.1686
  797MOL0     H 7551  -1.190   1.995  11.124 -1.8268 -0.9236  2.4555
  797MOL0     H 7552  -1.040   1.901  11.146 -1.4589  0.6139 -0.9946
  797MOL0     H 7553  -0.930   2.125  11.137 -0.9556 -2.3383  1.5378
  797MOL0     H 7554  -1.079   2.213  11.132  2.1314  1.7838 -2.7818
  797MOL0     H 7555  -1.201   2.004  10.786  0.1079 -1.1962 -0.8171
  797MOL0     H 7556  -1.163   1.775  10.670 -1.4398 -1.2849  2.2742
  797MOL0     H 7557  -0.854   1.486  10.443  0.4124 -0.5334  1.9139
  797MOL0     H 7558  -0.854   1.284  10.327 -0.0654 -1.6712  0.2993
  797MOL0     H 7559  -1.130   0.955  10.495 -2.2259 -1.6650 -0.4072
  797MOL0     H 7560  -1.197   0.994  10.332 -0.0298  2.5136  1.0901
  797MOL0     H 7561  -0.990   0.866  10.234  5.3989 -1.5312  1.0792
  797MOL0     H 7562  -0.945   0.839  10.391  0.5118 -0.3664 -0.5446
  797MOL0     H 7563  -1.152   0.712  10.433  2.5028  2.5080  1.3706
  797MOL0     H 7564  -1.218   0.750  10.282 -1.4296 -1.4521  4.1819
  797MOL0     H 7565  -1.033   0.635  10.152  2.2946 -2.2921 -0.6474
  797MOL0     H 7566  -1.124   0.529  10.250  0.9645 -0.2583  0.2107
  797MOL0     H 7567  -0.935   0.555  10.431 -0.8611  2.4447  0.8895
  797MOL0     H 7568  -0.848   0.639  10.300  0.4085 -0.9009 -1.7666
  797MOL0     H 7569  -0.976   0.355  10.294  1.2491 -0.9068 -0.3364
  797MOL0     H 7570  -0.872   0.421  10.167 -0.1705  0.3754  0.1522
  797MOL0     H 7571  -0.785   0.304  10.434  1.3703  0.8166  2.2082
  797MOL0     H 7572  -0.690   0.436  10.364  1.6623 -1.2112 -2.2031
  797MOL0     H 7573  -0.767   0.189  10.212 -1.0749  0.3150  2.1704
  797MOL0     H 7574  -0.668   0.322  10.152  0.1151 -0.9110 -0.3883
  797MOL0     H 7575  -1.214   1.169  10.546 -2.8509  1.5296 -0.9511
  797MOL0     H 7576  -1.213   1.374  10.662 -0.4724  0.5005 -0.1855
  797MOL0     H 7577  -0.795   1.738  10.862 -0.5577 -0.6725  0.1301
  797MOL0     H 7578  -0.832   1.984  10.983  0.1527 -2.5144  2.1960
  797MOL0     H 7579  -0.329   1.654  10.336 -0.0203  1.1580  0.2453
  797MOL0     H 7580  -0.277   1.540  10.121  1.2904  1.0556 -1.4259
  797MOL0     H 7581  -0.031   1.715   9.710 -5.2040 -3.2223 -0.0141
  797MOL0     H 7582   0.066   1.659   9.482  0.1058 -0.5365 -0.1166
  797MOL0     H 7583  -0.001   1.465   9.333 -0.2661 -0.3754 -1.2473
  797MOL0     H 7584   0.101   1.342   9.287 -1.1696  0.2787  0.4735
  797MOL0     H 7585   0.240   1.481   9.150 -0.0076  0.4981  2.5080
  797MOL0     H 7586   0.136   1.635   9.180 -0.2146 -0.1470  3.7260
  797MOL0     H 7587  -0.046   1.538   9.072 -0.4874 -1.0337  0.6966
  797MOL0     H 7588   0.025   1.384   9.052 -1.4641 -0.0054  1.9152
  797MOL0     H 7589   0.122   1.641   8.922  0.9020  0.4852 -3.7585
  797MOL0     H 7590   0.205   1.480   8.898  1.1991  2.1939  0.0606
  797MOL0     H 7591  -0.119   1.490   8.626  0.3525 -1.0203 -1.0907
  797MOL0     H 7592   0.208   1.283   9.617  2.4128  1.4160  2.8430
  797MOL0     H 7593   0.021   1.258   9.907 -0.8756 -0.4861 -2.0383
  797MOL0     H 7594   0.156   1.194   9.806 -2.6731  0.2239 -2.2798
  797MOL0     H 7595   0.186   1.308   9.939  2.5736 -1.0962 -1.4420
  798MOL0     O 7596   0.885   2.102   3.061  0.7206  0.2674 -0.0652
  798MOL0     C 7597   0.904   2.169   3.161  1.1451 -0.7799 -0.4219
  798MOL0     O 7598   0.891   2.309   3.161  0.4625  0.1681 -0.2251
  798MOL0     C 7599   0.868   2.394   3.051  0.1734  0.6646  0.2158
  798MOL0     C 7600   0.827   2.521   3.077 -0.2747 -0.5878  0.6992
  798MOL0     C 7601   0.816   2.623   2.981  0.7642 -0.0926  0.2826
  798MOL0     C 7602   0.845   2.594   2.850 -0.0567  0.8595 -0.2310
  798MOL0     O 7603   0.853   2.686   2.750 -0.7898  0.3349  0.2068
  798MOL0     C 7604   0.814   2.826   2.772 -0.3482 -0.3652 -0.0052
  798MOL0     C 7605   0.883   2.913   2.668 -0.7989  0.5852  0.0168
  798MOL0     C 7606   0.874   3.058   2.702  0.4036 -0.0716  0.3203
  798MOL0     C 7607   0.939   3.147   2.592 -1.1341 -0.1380 -0.1840
  798MOL0     C 7608   1.094   3.121   2.581  0.2349  0.3560  0.5965
  798MOL0     C 7609   1.163   3.185   2.457 -0.0571  0.0840 -0.2456
  798MOL0     C 7610   1.284   3.094   2.407 -0.3717  0.1047 -0.8144
  798MOL0     C 7611   1.380   3.160   2.305 -0.0503 -0.5850 -0.0320
  798MOL0     N 7612   1.462   3.260   2.368  0.6778 -0.2704  0.1014
  798MOL0     C 7613   1.562   3.255   2.467 -0.8535 -0.1039  0.0230
  798MOL0     C 7614   1.625   3.373   2.455 -0.6800 -1.0467  0.8097
  798MOL0     C 7615   1.745   3.424   2.541  0.0080  1.1245 -1.0462
  798MOL0     C 7616   1.701   3.413   2.688  0.0988  0.0222 -0.0953
  798MOL0     C 7617   1.788   3.512   2.775  0.6728  0.6987  0.2391
  798MOL0     C 7618   1.920   3.456   2.813  0.6713  0.5394  0.0873
  798MOL0     O 7619   1.972   3.546   2.914 -0.3955 -0.1533 -0.0164
  798MOL0     C 7620   2.028   3.482   3.025 -0.4634 -0.2508 -0.3849
  798MOL0     C 7621   1.963   3.474   3.153  0.3442 -1.0346  0.5622
  798MOL0     C 7622   2.020   3.408   3.254 -0.0630 -0.4042 -0.5469
  798MOL0     C 7623   2.154   3.363   3.244  0.4072  0.5201  0.1539
  798MOL0     C 7624   2.215   3.281   3.357 -0.7570 -0.2587 -0.2294
  798MOL0     O 7625   2.138   3.249   3.464 -0.2429  0.9959 -0.3519
  798MOL0     C 7626   2.190   3.147   3.546  0.8002 -0.7393  0.0090
  798MOL0     C 7627   2.163   3.011   3.510 -0.2196 -0.5955  0.2438
  798MOL0     C 7628   2.224   2.912   3.577  0.5898 -0.0086 -0.0832
  798MOL0     C 7629   2.321   2.939   3.683 -0.4129 -0.7070  0.0728
  798MOL0     O 7630   2.400   2.841   3.754 -0.5107  0.3800 -0.3003
  798MOL0     C 7631   2.328   2.713   3.755 -0.3096 -0.1018  0.7295
  798MOL0     C 7632   2.434   2.624   3.823  0.1162  0.1146 -0.6741
  798MOL0     C 7633   2.392   2.482   3.841  1.6675  1.0930 -0.8948
  798MOL0     C 7634   2.283   2.471   3.947 -0.4845 -0.0421 -0.3114
  798MOL0     C 7635   2.260   2.327   4.001 -0.7311  0.0143 -0.2106
  798MOL0     C 7636   2.188   2.244   3.896  0.8486 -1.3320 -0.6263
  798MOL0     C 7637   2.188   2.098   3.932 -0.2707 -0.2684 -0.4408
  798MOL0     C 7638   2.136   2.023   3.813 -0.2812  0.0773 -0.0115
  798MOL0    Cl 7639   1.959   2.041   3.805 -0.0326 -0.2025 -0.0025
  798MOL0     C 7640   2.350   3.078   3.706 -0.0492 -0.6031  0.1451
  798MOL0     C 7641   2.286   3.177   3.641  0.6969  0.8352  1.0763
  798MOL0     O 7642   2.322   3.232   3.338 -0.4926 -0.0529  0.2802
  798MOL0     C 7643   2.227   3.391   3.125 -0.1964  0.3338 -0.6377
  798MOL0     C 7644   2.164   3.452   3.016  0.7239  0.3397 -0.6304
  798MOL0     N 7645   1.543   3.458   2.380  0.3915 -0.2747 -0.4340
  798MOL0     N 7646   1.443   3.388   2.334 -0.2564  0.8796  0.3521
  798MOL0     C 7647   0.870   2.465   2.814  0.3667  0.0629 -0.2439
  798MOL0     C 7648   0.882   2.360   2.908  0.2205 -0.1256  0.3419
  798MOL0     C 7649   0.944   2.116   3.292  0.2516 -0.7261  0.3247
  798MOL0     C 7650   0.965   2.206   3.395  0.7297  1.4750 -0.6052
  798MOL0     C 7651   1.013   2.166   3.518  0.1682 -0.4793 -0.0240
  798MOL0     C 7652   1.069   2.039   3.532 -0.0417 -0.6700 -0.2259
  798MOL0     O 7653   1.127   2.022   3.654 -0.5116  0.0533  0.6721
  798MOL0     C 7654   1.166   1.883   3.674 -0.0811  0.0158 -0.0999
  798MOL0     C 7655   1.045   1.816   3.730 -0.6081  0.8422 -0.9590
  798MOL0     C 7656   1.050   1.657   3.723 -0.3789  0.0880  0.8941
  798MOL0     C 7657   0.909   1.602   3.766 -0.2328  0.0923 -0.2019
  798MOL0     C 7658   0.873   1.646   3.903 -0.3223  0.0084 -0.6069
  798MOL0     C 7659   0.848   1.677   4.015 -0.4900  0.1705 -0.0068
  798MOL0     C 7660   1.040   1.938   3.439  0.1100 -0.9299 -0.3454
  798MOL0     C 7661   0.984   1.975   3.316  0.8488 -0.6432  0.1606
  798MOL0     C 7662   0.963   1.868   3.219  0.2035  0.6652 -0.9092
  798MOL0     H 7663   0.808   2.553   3.179  0.9733  5.0528 -0.4748
  798MOL0     H 7664   0.805   2.727   3.012 -0.8925 -0.2952  0.4706
  798MOL0     H 7665   0.707   2.847   2.764 -0.3449 -0.5019 -0.4147
  798MOL0     H 7666   0.844   2.866   2.869  3.1079  0.9205 -1.4363
  798MOL0     H 7667   0.844   2.893   2.567  0.5399  2.2567 -0.8978
  798MOL0     H 7668   0.987   2.882   2.672 -0.2835  1.7684 -2.1699
  798MOL0     H 7669   0.924   3.072   2.798  0.8632  1.2906 -0.0988
  798MOL0     H 7670   0.769   3.088   2.711  0.4172  1.4808 -3.1515
  798MOL0     H 7671   0.890   3.141   2.494  1.6775  0.6167 -1.7518
  798MOL0     H 7672   0.922   3.249   2.628  1.8226  1.0551 -1.8482
  798MOL0     H 7673   1.139   3.147   2.677 -1.2397 -1.3057  1.7975
  798MOL0     H 7674   1.117   3.015   2.571 -1.1544  0.1209 -0.4461
  798MOL0     H 7675   1.095   3.190   2.372 -1.4521 -0.2134  0.8249
  798MOL0     H 7676   1.196   3.282   2.495 -0.4169  0.5990 -1.2211
  798MOL0     H 7677   1.249   3.000   2.364  1.7422 -1.5831  0.9984
  798MOL0     H 7678   1.352   3.072   2.489  3.6729  2.5362 -3.1968
  798MOL0     H 7679   1.447   3.086   2.260  0.0077 -0.0206 -0.8906
  798MOL0     H 7680   1.324   3.205   2.223 -1.1609  1.0252  1.5558
  798MOL0     H 7681   1.583   3.167   2.527  0.3465  0.8539  1.0675
  798MOL0     H 7682   1.833   3.359   2.534  0.3075  1.3774  0.1445
  798MOL0     H 7683   1.765   3.527   2.512 -1.0688  1.6206 -0.1079
  798MOL0     H 7684   1.596   3.440   2.701  0.2793  0.2978  0.8916
  798MOL0     H 7685   1.706   3.310   2.725  5.2391 -0.1673 -0.5497
  798MOL0     H 7686   1.728   3.512   2.867 -1.0139 -4.7037 -0.4908
  798MOL0     H 7687   1.789   3.612   2.732 -2.6420  0.9064  0.3540
  798MOL0     H 7688   1.992   3.440   2.733  3.1409  0.6723  2.1640
  798MOL0     H 7689   1.908   3.358   2.860  0.3017  0.4295 -0.2215
  798MOL0     H 7690   1.858   3.503   3.159 -0.5542 -3.5941 -0.8756
  798MOL0     H 7691   1.960   3.383   3.341 -0.8518 -0.4770 -1.1052
  798MOL0     H 7692   2.096   2.996   3.426  0.5123  0.5781 -0.5783
  798MOL0     H 7693   2.193   2.812   3.546  2.5357 -0.8943  0.6249
  798MOL0     H 7694   2.234   2.721   3.811 -0.2784  4.0633  0.4711
  798MOL0     H 7695   2.306   2.676   3.654  0.2589 -2.1124  1.2926
  798MOL0     H 7696   2.521   2.628   3.757 -1.4120  0.7136 -2.7599
  798MOL0     H 7697   2.458   2.663   3.922 -1.7018  0.6566 -0.4133
  798MOL0     H 7698   2.365   2.434   3.746 -0.3222 -3.1500  1.5104
  798MOL0     H 7699   2.474   2.420   3.878 -0.0933 -0.0231  1.5088
  798MOL0     H 7700   2.193   2.514   3.904  0.4668  1.1215 -1.2002
  798MOL0     H 7701   2.304   2.522   4.041 -2.7538 -1.1181  0.8632
  798MOL0     H 7702   2.202   2.332   4.093 -1.1589  1.9991 -0.5309
  798MOL0     H 7703   2.360   2.287   4.020 -0.7002 -0.7346 -1.7688
  798MOL0     H 7704   2.085   2.281   3.907  1.5821  0.1300  2.5320
  798MOL0     H 7705   2.220   2.252   3.792 -0.7676 -2.8893 -1.2959
  798MOL0     H 7706   2.133   2.090   4.026 -0.7813 -0.3873 -0.7457
  798MOL0     H 7707   2.291   2.068   3.953 -0.2404 -1.5778 -2.2870
  798MOL0     H 7708   2.180   2.058   3.720 -1.6190 -2.1063 -1.5569
  798MOL0     H 7709   2.163   1.917   3.818  1.7701  0.5970  0.9074
  798MOL0     H 7710   2.414   3.099   3.792  3.1053 -1.1497 -1.9078
  798MOL0     H 7711   2.296   3.282   3.667 -0.3548  1.3291 -0.3291
  798MOL0     H 7712   2.333   3.369   3.113  0.8319  1.7576  3.9021
  798MOL0     H 7713   2.209   3.478   2.921  0.1354  2.7209 -0.3030
  798MOL0     H 7714   0.887   2.431   2.712  3.5605  1.8120 -0.4121
  798MOL0     H 7715   0.908   2.261   2.872  2.0492  0.6242 -0.5040
  798MOL0     H 7716   0.921   2.305   3.390  0.2308  1.2032 -2.4848
  798MOL0     H 7717   1.026   2.235   3.601 -2.3633  1.7816 -1.3652
  798MOL0     H 7718   1.242   1.886   3.753 -2.4003 -0.8685  2.3058
  798MOL0     H 7719   1.212   1.821   3.596 -0.9587 -3.6737  2.0589
  798MOL0     H 7720   0.954   1.858   3.686 -2.3015 -1.0299  0.5520
  798MOL0     H 7721   1.039   1.836   3.838  1.5475 -2.9642  0.0627
  798MOL0     H 7722   1.135   1.626   3.785  0.4254 -0.2063 -0.3022
  798MOL0     H 7723   1.067   1.623   3.620 -3.3882 -4.4310  1.5601
  798MOL0     H 7724   0.849   1.652   3.690  1.9206 -0.2521 -2.2371
  798MOL0     H 7725   0.893   1.494   3.757 -2.0351  0.3739 -0.7065
  798MOL0     H 7726   0.832   1.709   4.116 -3.8988 -1.5318  0.1387
  798MOL0     H 7727   1.059   1.834   3.461  0.3357 -0.6096  1.0251
  798MOL0     H 7728   0.985   1.770   3.263 -1.3536  0.3935 -0.6945
  798MOL0     H 7729   0.861   1.863   3.181  0.6278 -2.2801 -1.9278
  798MOL0     H 7730   1.027   1.880   3.131  0.7178  2.0235 -0.3766
  799MOL0     O 7731   5.718   0.324   7.195  0.4344 -0.0714  0.3875
  799MOL0     C 7732   5.712   0.255   7.097  0.9692  0.6888  0.4282
  799MOL0     O 7733   5.820   0.196   7.043  0.6739 -0.0854 -0.0625
  799MOL0     C 7734   5.953   0.215   7.093 -0.5274 -0.4963  0.7876
  799MOL0     C 7735   6.006   0.340   7.088  0.5032 -0.0153  0.4845
  799MOL0     C 7736   6.140   0.357   7.127 -0.0000  0.4159 -0.3658
  799MOL0     C 7737   6.221   0.251   7.173 -0.4059 -1.1123  0.5263
  799MOL0     O 7738   6.356   0.264   7.192 -0.2495  0.1166 -0.2837
  799MOL0     C 7739   6.434   0.164   7.261 -0.0229  0.9289  0.0674
  799MOL0     C 7740   6.571   0.228   7.309  0.6745 -0.3703 -0.4489
  799MOL0     C 7741   6.650   0.129   7.391  0.7901 -0.4103  0.8871
  799MOL0     C 7742   6.799   0.165   7.410 -0.2717  0.1317  0.0457
  799MOL0     C 7743   6.844   0.100   7.543  1.1291  0.9071  0.7554
  799MOL0     C 7744   6.841  -0.055   7.530 -0.2817 -0.5834  0.4103
  799MOL0     C 7745   6.899  -0.127   7.654 -1.3166 -0.0458  0.7864
  799MOL0     C 7746   7.050  -0.123   7.688 -0.4384  0.4349  0.4056
  799MOL0     N 7747   7.077  -0.034   7.798  0.2746 -0.1421 -0.1548
  799MOL0     C 7748   7.087  -0.084   7.934 -0.5656  0.3874  0.6080
  799MOL0     C 7749   7.134   0.028   7.995 -0.1356  0.8723 -0.0086
  799MOL0     C 7750   7.166   0.035   8.146  0.6529 -0.8190  0.1664
  799MOL0     C 7751   7.308   0.038   8.193 -0.2000  0.1377  0.4031
  799MOL0     C 7752   7.340  -0.000   8.343  0.4613  0.1353  0.6735
  799MOL0     C 7753   7.283   0.079   8.460  0.0114  0.0979 -0.6569
  799MOL0     O 7754   7.337   0.216   8.468  0.5194  0.2292  0.5490
  799MOL0     C 7755   7.471   0.236   8.508 -0.4173 -0.1789 -0.8215
  799MOL0     C 7756   7.556   0.140   8.577  0.1088 -0.6047  0.7646
  799MOL0     C 7757   7.681   0.178   8.629 -0.5852 -0.1355  0.2957
  799MOL0     C 7758   7.737   0.305   8.598 -0.1061 -0.3705 -0.0720
  799MOL0     C 7759   7.866   0.345   8.655 -0.1198 -0.6505 -0.3590
  799MOL0     O 7760   7.917   0.255   8.740 -0.1727 -0.3134 -0.0993
  799MOL0     C 7761   8.023   0.295   8.827  0.2134  0.2703 -0.6371
  799MOL0     C 7762   8.123   0.203   8.843 -0.0721 -0.3963  0.1611
  799MOL0     C 7763   8.231   0.224   8.932 -0.3127  0.4545  1.0339
  799MOL0     C 7764   8.243   0.338   9.008  0.5457  0.3907  0.0910
  799MOL0     O 7765   8.344   0.361   9.091 -0.2034 -0.5207  0.6247
  799MOL0     C 7766   8.459   0.275   9.098  0.0090  0.5219  0.4643
  799MOL0     C 7767   8.546   0.291   9.218  0.0374 -1.5723  0.1328
  799MOL0     C 7768   8.681   0.235   9.195  0.8934 -0.5108 -0.5816
  799MOL0     C 7769   8.750   0.276   9.066  0.2533 -0.3643  0.6625
  799MOL0     C 7770   8.903   0.231   9.058 -0.2144  0.0535 -0.4971
  799MOL0     C 7771   8.952   0.234   8.913  0.6834 -0.3553  0.6416
  799MOL0     C 7772   9.098   0.204   8.895  0.4545  0.2332 -0.2128
  799MOL0     C 7773   9.139   0.197   8.749 -0.3865 -0.8816 -0.6795
  799MOL0    Cl 7774   9.163   0.368   8.685  0.3077 -0.4241  0.1840
  799MOL0     C 7775   8.135   0.439   8.997  0.2217 -0.0346  0.3555
  799MOL0     C 7776   8.020   0.410   8.911 -0.1090 -0.0098 -0.2887
  799MOL0     O 7777   7.910   0.454   8.628 -0.4607 -0.2386 -0.3774
  799MOL0     C 7778   7.666   0.391   8.521  0.1323  0.4313 -0.4772
  799MOL0     C 7779   7.538   0.360   8.477  0.9678 -0.0417  0.1317
  799MOL0     N 7780   7.152   0.132   7.915 -0.9351 -0.3261  0.3816
  799MOL0     N 7781   7.120   0.092   7.796  0.4899 -0.3336  0.0361
  799MOL0     C 7782   6.155   0.119   7.173 -1.0014 -0.6102  0.1227
  799MOL0     C 7783   6.020   0.106   7.140 -0.9523 -1.6493  0.1010
  799MOL0     C 7784   5.579   0.237   7.018  0.2909 -0.0143 -1.2025
  799MOL0     C 7785   5.581   0.213   6.885  0.8259  0.7488  0.6869
  799MOL0     C 7786   5.462   0.212   6.810  0.0134  0.1076 -1.0232
  799MOL0     C 7787   5.335   0.229   6.876 -0.3475 -0.6776  0.1906
  799MOL0     O 7788   5.214   0.215   6.816  0.7185 -0.1851 -0.5519
  799MOL0     C 7789   5.198   0.199   6.671  0.5705 -0.6552 -1.0643
  799MOL0     C 7790   5.201   0.327   6.592  0.3209  0.1054 -0.0761
  799MOL0     C 7791   5.088   0.415   6.628  0.8444 -0.2191 -0.1107
  799MOL0     C 7792   5.040   0.499   6.515  0.8863 -0.4328  0.0089
  799MOL0     C 7793   4.939   0.597   6.564 -1.2545 -0.3369  0.2617
  799MOL0     C 7794   4.856   0.666   6.616 -0.1529 -0.7042  0.2384
  799MOL0     C 7795   5.336   0.232   7.016 -0.0377  0.4291 -0.1264
  799MOL0     C 7796   5.453   0.255   7.085 -0.0786  0.0356 -1.0109
  799MOL0     C 7797   5.437   0.293   7.236 -0.0301  0.2085  0.3592
  799MOL0     H 7798   5.939   0.419   7.056 -2.1804 -1.0267  3.1444
  799MOL0     H 7799   6.177   0.458   7.135 -0.5277  0.4753  2.1805
  799MOL0     H 7800   6.384   0.101   7.335 -0.1510 -0.7351 -1.3747
  799MOL0     H 7801   6.479   0.091   7.194  0.2746 -0.9866  2.2477
  799MOL0     H 7802   6.558   0.319   7.368  1.1007 -0.8621  0.4125
  799MOL0     H 7803   6.630   0.264   7.225  2.8858 -1.6890  0.4627
  799MOL0     H 7804   6.640   0.040   7.329 -1.1814 -0.7446  1.6104
  799MOL0     H 7805   6.603   0.120   7.490  1.7039 -2.8837  1.1690
  799MOL0     H 7806   6.870   0.147   7.329  1.0014  2.4292  0.5507
  799MOL0     H 7807   6.809   0.272   7.431 -3.1684  0.8331 -1.6679
  799MOL0     H 7808   6.943   0.134   7.573  0.8762  1.9548  0.4804
  799MOL0     H 7809   6.775   0.136   7.621 -1.0856 -0.1277 -0.6380
  799MOL0     H 7810   6.738  -0.079   7.504  0.0937 -1.6407 -0.1916
  799MOL0     H 7811   6.893  -0.096   7.443 -3.0612  0.6752 -1.9779
  799MOL0     H 7812   6.893  -0.232   7.622 -2.1878 -0.0628  0.9865
  799MOL0     H 7813   6.835  -0.110   7.741  1.3693  0.4908  2.7732
  799MOL0     H 7814   7.091  -0.222   7.712 -0.9750  0.0023 -0.4226
  799MOL0     H 7815   7.106  -0.084   7.603  1.2168  1.8283  2.0471
  799MOL0     H 7816   7.061  -0.184   7.968  0.1576 -0.6407 -1.6214
  799MOL0     H 7817   7.109   0.119   8.188 -2.4328 -1.6185 -2.1003
  799MOL0     H 7818   7.116  -0.042   8.205 -1.2313  0.5413  0.4545
  799MOL0     H 7819   7.376  -0.014   8.125 -0.0240  2.3418 -1.2140
  799MOL0     H 7820   7.337   0.144   8.196  0.4643 -0.0503  0.7421
  799MOL0     H 7821   7.447   0.008   8.368 -0.0909  3.3698  2.4191
  799MOL0     H 7822   7.301  -0.102   8.351 -1.7162  0.7283 -1.5910
  799MOL0     H 7823   7.308   0.026   8.553 -2.3844  1.8812  1.1350
  799MOL0     H 7824   7.173   0.082   8.458 -0.2368  1.0369  4.0059
  799MOL0     H 7825   7.509   0.045   8.598 -1.9863  0.3421  0.5691
  799MOL0     H 7826   7.740   0.122   8.701  2.1727  0.5435 -1.2927
  799MOL0     H 7827   8.113   0.115   8.780  0.8277  0.1278 -0.7526
  799MOL0     H 7828   8.305   0.146   8.941  0.9151  1.5951  1.1710
  799MOL0     H 7829   8.410   0.177   9.105 -0.9540  0.8880 -0.7205
  799MOL0     H 7830   8.504   0.285   8.999 -2.6047  0.2997 -0.8489
  799MOL0     H 7831   8.556   0.396   9.248  2.7753 -1.8554  0.4530
  799MOL0     H 7832   8.505   0.235   9.303 -0.5580  1.3279  1.9254
  799MOL0     H 7833   8.742   0.253   9.285  1.7700 -3.3159 -0.5048
  799MOL0     H 7834   8.672   0.127   9.182 -0.4872 -0.5632  0.5641
  799MOL0     H 7835   8.736   0.382   9.042  2.8728  0.0355  0.5374
  799MOL0     H 7836   8.694   0.235   8.982 -0.0472  1.4903 -0.0905
  799MOL0     H 7837   8.915   0.128   9.095 -0.8900  0.3103  0.4964
  799MOL0     H 7838   8.952   0.294   9.133  1.1975  0.0770 -1.4094
  799MOL0     H 7839   8.887   0.162   8.863 -0.4678  1.2274 -0.2155
  799MOL0     H 7840   8.937   0.336   8.877 -1.4493 -1.0479 -0.6093
  799MOL0     H 7841   9.127   0.115   8.951 -1.0768  0.1745  0.5181
  799MOL0     H 7842   9.147   0.291   8.940 -0.2872 -1.0629  3.4488
  799MOL0     H 7843   9.229   0.136   8.738  0.3536 -0.7387  3.2764
  799MOL0     H 7844   9.066   0.156   8.679  1.2427 -2.8261 -1.3316
  799MOL0     H 7845   8.135   0.530   9.055 -3.0343  0.6797 -0.5974
  799MOL0     H 7846   7.928   0.467   8.907 -0.5841 -0.7584 -0.1418
  799MOL0     H 7847   7.713   0.479   8.479  2.7686 -1.7203 -2.4396
  799MOL0     H 7848   7.483   0.433   8.418  0.0245  1.0027  2.2013
  799MOL0     H 7849   6.202   0.026   7.202 -1.1051 -0.3198  1.2569
  799MOL0     H 7850   5.967   0.012   7.143  0.1039 -2.2646 -0.0901
  799MOL0     H 7851   5.675   0.190   6.835  0.0802  0.5837 -0.7051
  799MOL0     H 7852   5.480   0.197   6.704  2.6614  3.9686 -1.3691
  799MOL0     H 7853   5.110   0.140   6.644  0.2048 -0.5200 -0.2292
  799MOL0     H 7854   5.274   0.142   6.617  0.6417  1.4055 -3.3115
  799MOL0     H 7855   5.183   0.294   6.489 -0.7399  3.1324 -0.9906
  799MOL0     H 7856   5.298   0.378   6.592  0.7162 -0.6383  0.6789
  799MOL0     H 7857   5.110   0.470   6.720 -1.0846 -0.6861  0.7044
  799MOL0     H 7858   5.005   0.347   6.654  0.5772 -0.4258 -1.4443
  799MOL0     H 7859   5.125   0.556   6.477 -0.5364  2.4143  0.7839
  799MOL0     H 7860   4.996   0.440   6.434  3.7381  0.2710 -2.2190
  799MOL0     H 7861   4.782   0.717   6.674  0.9744 -1.1009  2.1085
  799MOL0     H 7862   5.242   0.265   7.058  1.0350  4.0652 -0.2465
  799MOL0     H 7863   5.453   0.401   7.234  2.8251 -0.1509 -1.5577
  799MOL0     H 7864   5.337   0.268   7.275  0.5650 -1.5602  0.8647
  799MOL0     H 7865   5.516   0.244   7.294  1.3434 -0.5699 -2.0125
  800MOL0     O 7866   8.047   1.928   2.214 -0.5253  0.4041  0.1913
  800MOL0     C 7867   8.096   2.035   2.220  0.1454 -0.1524  0.6009
  800MOL0     O 7868   8.036   2.147   2.168  0.0619  0.0314  0.1372
  800MOL0     C 7869   7.925   2.141   2.092  0.4208 -0.7472  0.9269
  800MOL0     C 7870   7.931   2.124   1.949 -0.3400  0.3897  0.1605
  800MOL0     C 7871   7.822   2.117   1.873 -0.1053 -0.0987  0.0840
  800MOL0     C 7872   7.696   2.102   1.935  0.8127 -1.1283  0.6692
  800MOL0     O 7873   7.579   2.073   1.863  0.0199 -0.0571 -0.5280
  800MOL0     C 7874   7.533   1.938   1.868  0.3422  0.3808 -0.3991
  800MOL0     C 7875   7.384   1.933   1.812 -0.0765  0.2972  1.0955
  800MOL0     C 7876   7.290   2.002   1.912 -0.8251  0.1756  0.0687
  800MOL0     C 7877   7.150   2.040   1.854 -0.0610 -0.1554 -0.5326
  800MOL0     C 7878   7.081   2.136   1.943  1.1643  0.2569  0.1177
  800MOL0     C 7879   6.928   2.139   1.898 -0.6417 -0.0544 -0.2514
  800MOL0     C 7880   6.862   2.263   1.963  0.1807 -0.8370  1.0370
  800MOL0     C 7881   6.892   2.390   1.872 -0.5962  0.0747  0.6744
  800MOL0     N 7882   6.815   2.502   1.923 -0.3142  0.4709  0.2174
  800MOL0     C 7883   6.877   2.603   1.996  0.3752 -0.0868 -0.7450
  800MOL0     C 7884   6.770   2.693   2.033  0.1437  1.0252  0.4618
  800MOL0     C 7885   6.781   2.826   2.104  0.5004 -0.3982  0.0595
  800MOL0     C 7886   6.655   2.851   2.199 -0.0363 -0.1540 -0.5166
  800MOL0     C 7887   6.675   2.989   2.263  0.6614 -0.1482  0.1425
  800MOL0     C 7888   6.572   3.014   2.377 -0.5489 -0.2361 -0.9454
  800MOL0     O 7889   6.595   3.136   2.437 -0.3057 -0.0576 -0.1817
  800MOL0     C 7890   6.681   3.145   2.546 -0.1904 -0.4859 -0.8257
  800MOL0     C 7891   6.682   3.271   2.612 -0.5085 -0.5995  1.0202
  800MOL0     C 7892   6.759   3.300   2.730 -0.0257 -0.0629 -0.0752
  800MOL0     C 7893   6.842   3.199   2.785  0.2530 -0.2832  0.8094
  800MOL0     C 7894   6.922   3.237   2.902 -0.9807  0.3972  0.3711
  800MOL0     O 7895   6.898   3.347   2.976  0.1260 -0.2122 -0.4677
  800MOL0     C 7896   6.951   3.357   3.107 -0.0080 -0.0190 -0.4477
  800MOL0     C 7897   7.005   3.481   3.133  0.2019 -0.8333 -0.4377
  800MOL0     C 7898   7.068   3.498   3.259 -0.2835  0.1763  0.1527
  800MOL0     C 7899   7.074   3.404   3.358 -0.3969  0.5145  1.1654
  800MOL0     O 7900   7.153   3.434   3.463  0.0317 -0.4278 -0.0985
  800MOL0     C 7901   7.216   3.335   3.539 -0.2773  0.8890 -0.2080
  800MOL0     C 7902   7.351   3.283   3.477  0.0265  0.0196  0.3003
  800MOL0     C 7903   7.469   3.382   3.474 -0.2616  0.2461  0.0784
  800MOL0     C 7904   7.480   3.445   3.341  0.6431  0.0293 -0.3166
  800MOL0     C 7905   7.615   3.521   3.324  0.3503  1.2918 -0.4226
  800MOL0     C 7906   7.730   3.421   3.316 -0.0564 -0.5793 -0.4288
  800MOL0     C 7907   7.859   3.492   3.286  0.2268  0.8990 -0.3545
  800MOL0     C 7908   7.902   3.595   3.395  0.6927  0.4076  0.8351
  800MOL0    Cl 7909   8.074   3.639   3.354  0.0043  0.2207  0.0089
  800MOL0     C 7910   7.014   3.275   3.317 -0.6343  0.3539 -0.5987
  800MOL0     C 7911   6.964   3.245   3.191 -0.3465 -0.3587  0.3000
  800MOL0     O 7912   7.022   3.164   2.912  0.7713 -0.7634  0.1785
  800MOL0     C 7913   6.836   3.075   2.726 -0.1052 -0.3074  0.4844
  800MOL0     C 7914   6.766   3.048   2.605 -0.1346 -0.4384 -1.1469
  800MOL0     N 7915   6.648   2.646   1.977 -0.4546  0.5029  0.2587
  800MOL0     N 7916   6.686   2.530   1.925  0.4326  0.0627  0.4437
  800MOL0     C 7917   7.689   2.122   2.073  0.3101  0.4938 -0.6409
  800MOL0     C 7918   7.799   2.152   2.145  0.1514 -0.0517  0.4784
  800MOL0     C 7919   8.224   2.045   2.288  0.4849 -0.0406  0.3486
  800MOL0     C 7920   8.231   2.014   2.431 -0.1203 -0.1616  0.1572
  800MOL0     C 7921   8.362   2.000   2.483 -0.1378 -0.1705 -0.7797
  800MOL0     C 7922   8.472   2.014   2.398 -0.4064 -0.2273 -0.2536
  800MOL0     O 7923   8.599   1.987   2.456  0.3270  0.5234 -0.3489
  800MOL0     C 7924   8.723   2.037   2.400  1.6622 -0.1950  0.8020
  800MOL0     C 7925   8.844   2.010   2.487  0.0330 -0.3899  0.2118
  800MOL0     C 7926   8.972   2.062   2.420 -0.1012  0.6446  0.0330
  800MOL0     C 7927   9.093   2.035   2.516 -0.5075 -0.5929 -0.7158
  800MOL0     C 7928   9.121   2.167   2.580 -0.5775  0.7297  0.1921
  800MOL0     C 7929   9.172   2.274   2.603  0.2154 -0.1946 -0.4922
  800MOL0     C 7930   8.458   2.048   2.264  0.9462  0.1854 -0.6236
  800MOL0     C 7931   8.335   2.063   2.206  0.0610 -0.7527  0.1631
  800MOL0     C 7932   8.323   2.077   2.057  0.1241 -0.3219  0.2040
  800MOL0     H 7933   8.031   2.116   1.907 -0.2231 -0.6371  0.5902
  800MOL0     H 7934   7.839   2.082   1.771  1.0520 -1.9456  0.8594
  800MOL0     H 7935   7.581   1.864   1.803 -1.4867 -1.1946 -0.0524
  800MOL0     H 7936   7.526   1.895   1.968 -0.8844  1.2361 -0.0979
  800MOL0     H 7937   7.351   1.830   1.797 -0.3883  0.2586  1.9810
  800MOL0     H 7938   7.387   1.981   1.714  1.3860 -0.2641  0.8435
  800MOL0     H 7939   7.344   2.095   1.934 -3.4660  1.7847  0.2052
  800MOL0     H 7940   7.279   1.946   2.005 -0.3511  0.8186  0.5297
  800MOL0     H 7941   7.167   2.101   1.764  0.2211  1.5892  0.6350
  800MOL0     H 7942   7.087   1.952   1.838 -0.9175  0.5374 -1.0967
  800MOL0     H 7943   7.084   2.107   2.049  0.0834  0.4193  0.2051
  800MOL0     H 7944   7.122   2.230   1.906 -0.7595  0.0449 -2.8678
  800MOL0     H 7945   6.913   2.133   1.789  0.1381  0.7541 -0.4186
  800MOL0     H 7946   6.886   2.045   1.935  0.5836  0.2592  2.1225
  800MOL0     H 7947   6.897   2.266   2.067  0.0043 -1.7725  1.1252
  800MOL0     H 7948   6.755   2.239   1.961  0.3835 -2.5578 -4.3363
  800MOL0     H 7949   6.997   2.420   1.876 -0.4094  0.0273 -1.9586
  800MOL0     H 7950   6.874   2.373   1.765 -0.4810 -1.1882  0.8406
  800MOL0     H 7951   6.981   2.611   2.025  0.6927 -2.4886 -1.0743
  800MOL0     H 7952   6.879   2.834   2.153  1.5830 -4.5054 -1.0787
  800MOL0     H 7953   6.785   2.897   2.021 -1.0654 -0.1783  0.1418
  800MOL0     H 7954   6.555   2.847   2.155 -0.1942  0.6445 -0.2605
  800MOL0     H 7955   6.650   2.777   2.279 -0.2587 -0.0907 -0.4708
  800MOL0     H 7956   6.656   3.075   2.198 -0.9937  1.7615  2.9332
  800MOL0     H 7957   6.778   2.986   2.298  0.2302 -0.3710  1.4523
  800MOL0     H 7958   6.575   2.936   2.453 -3.7723  0.9579  0.5835
  800MOL0     H 7959   6.468   3.008   2.343 -0.9179 -1.7656  0.3512
  800MOL0     H 7960   6.618   3.348   2.571 -1.7217  0.0028  3.8099
  800MOL0     H 7961   6.752   3.398   2.775  2.0575  0.5193 -0.8723
  800MOL0     H 7962   7.002   3.553   3.052  1.4247 -1.3825 -0.9967
  800MOL0     H 7963   7.132   3.582   3.284 -2.3807  1.8624  0.1151
  800MOL0     H 7964   7.221   3.377   3.639  0.2005  3.0311 -1.0824
  800MOL0     H 7965   7.146   3.252   3.555 -0.4861  1.2883  1.0455
  800MOL0     H 7966   7.387   3.200   3.539 -0.4887 -0.8602 -0.5493
  800MOL0     H 7967   7.338   3.232   3.381  0.7049 -1.2367  0.8426
  800MOL0     H 7968   7.457   3.449   3.559  2.8465 -0.3478  1.1224
  800MOL0     H 7969   7.558   3.318   3.479 -0.1595  0.3061 -0.7031
  800MOL0     H 7970   7.392   3.506   3.316 -0.1099 -0.8736  0.0776
  800MOL0     H 7971   7.475   3.373   3.259  0.7641  0.3472 -0.6036
  800MOL0     H 7972   7.635   3.595   3.402  0.6310  0.8262 -0.0500
  800MOL0     H 7973   7.595   3.582   3.235 -0.5277 -2.1583 -2.8137
  800MOL0     H 7974   7.759   3.399   3.419  7.5246  3.0548 -1.1610
  800MOL0     H 7975   7.704   3.337   3.251 -2.0862  0.5618 -1.2036
  800MOL0     H 7976   7.839   3.553   3.197 -1.0874  0.2843 -0.5047
  800MOL0     H 7977   7.936   3.416   3.276 -1.2857 -0.6279 -0.9738
  800MOL0     H 7978   7.826   3.673   3.400 -0.8817 -1.0433  0.4086
  800MOL0     H 7979   7.907   3.545   3.492 -1.6033  1.0407  1.3292
  800MOL0     H 7980   7.010   3.196   3.392  3.3963  0.7440  0.2551
  800MOL0     H 7981   6.927   3.145   3.174  1.8097 -1.0078 -0.9743
  800MOL0     H 7982   6.894   2.998   2.775  0.0062 -0.9524 -0.6050
  800MOL0     H 7983   6.768   2.952   2.553  1.7191 -0.0114 -1.9311
  800MOL0     H 7984   7.595   2.100   2.122  1.1889 -0.1851  0.8193
  800MOL0     H 7985   7.795   2.158   2.253  0.8765 -1.1172  0.5713
  800MOL0     H 7986   8.142   1.994   2.490 -0.8758  2.1905 -0.0551
  800MOL0     H 7987   8.387   1.957   2.579 -0.3022 -1.8471 -1.4604
  800MOL0     H 7988   8.709   2.143   2.379  0.8497 -0.4049  0.2455
  800MOL0     H 7989   8.741   1.994   2.301  0.7535 -2.6764  1.6341
  800MOL0     H 7990   8.838   1.901   2.487 -1.2849 -0.3285  0.2092
  800MOL0     H 7991   8.839   2.039   2.592  1.9875  1.0909 -0.0459
  800MOL0     H 7992   8.963   2.168   2.395 -3.3294  1.0703  2.3432
  800MOL0     H 7993   8.993   2.018   2.322 -2.9845 -0.0662 -0.3458
  800MOL0     H 7994   9.062   1.962   2.591 -0.9438  0.4484  0.1537
  800MOL0     H 7995   9.172   1.990   2.456 -2.2089 -3.7789 -0.7702
  800MOL0     H 7996   9.204   2.376   2.611 -1.9779  0.4011  2.4708
  800MOL0     H 7997   8.547   2.067   2.205  0.8064 -0.2567 -0.9832
  800MOL0     H 7998   8.427   2.081   2.022  0.3990  2.7594  1.0505
  800MOL0     H 7999   8.259   2.005   2.006 -1.8286  2.4080 -1.5421
  800MOL0     H 8000   8.280   2.176   2.035  1.0049 -0.1626 -0.8884
  801MOL0     O 8001   8.160   9.110   6.204 -0.0938 -0.2840 -0.1385
  801MOL0     C 8002   8.225   9.128   6.110  0.6865  0.2564  1.4124
  801MOL0     O 8003   8.316   9.235   6.099  0.0030  0.5671  1.0931
  801MOL0     C 8004   8.402   9.243   6.203 -0.0769 -0.5599 -0.2190
  801MOL0     C 8005   8.498   9.146   6.233 -1.0774 -0.6302  0.2915
  801MOL0     C 8006   8.584   9.154   6.342 -0.8455  0.0064 -0.0160
  801MOL0     C 8007   8.570   9.259   6.430  0.2613 -0.7869 -0.1473
  801MOL0     O 8008   8.644   9.287   6.544  0.5628 -0.1907  0.0934
  801MOL0     C 8009   8.743   9.195   6.597 -0.2872 -0.3363  0.2009
  801MOL0     C 8010   8.871   9.184   6.514 -1.0844 -0.6938  0.6098
  801MOL0     C 8011   8.925   9.323   6.479  0.3435 -0.3638  0.8789
  801MOL0     C 8012   8.956   9.411   6.602  1.1106 -0.7355 -1.1065
  801MOL0     C 8013   9.072   9.509   6.581  0.2206  0.6261 -0.2221
  801MOL0     C 8014   9.215   9.444   6.587 -0.6942 -0.2853  0.5741
  801MOL0     C 8015   9.323   9.546   6.606  0.4239 -0.9297 -0.2804
  801MOL0     C 8016   9.454   9.494   6.651  0.1077 -0.2094 -0.1173
  801MOL0     N 8017   9.525   9.435   6.532 -0.3455  0.7944  0.7775
  801MOL0     C 8018   9.556   9.474   6.407  0.3330  0.2960  0.1442
  801MOL0     C 8019   9.630   9.374   6.344  0.5149 -0.7983 -0.1269
  801MOL0     C 8020   9.681   9.367   6.209 -0.4052  0.1712  0.0545
  801MOL0     C 8021   9.638   9.476   6.108 -0.4182  0.6123 -0.1383
  801MOL0     C 8022   9.695   9.447   5.969 -0.0748 -0.0009 -0.5609
  801MOL0     C 8023   9.665   9.556   5.863  0.7187 -0.1566 -0.0221
  801MOL0     O 8024   9.530   9.576   5.856  0.1146  0.2796 -0.1048
  801MOL0     C 8025   9.468   9.630   5.749  0.2220 -0.4793 -0.2903
  801MOL0     C 8026   9.333   9.649   5.762 -0.4586 -0.2249  0.4151
  801MOL0     C 8027   9.261   9.686   5.646 -0.3753 -0.2536  0.0111
  801MOL0     C 8028   9.324   9.712   5.528  0.1887  0.0678  0.5153
  801MOL0     C 8029   9.244   9.766   5.414 -0.2467  0.0053  0.0209
  801MOL0     O 8030   9.314   9.783   5.295  0.4039  0.5521 -0.0196
  801MOL0     C 8031   9.250   9.847   5.194  0.1591 -1.2735  0.2860
  801MOL0     C 8032   9.295   9.970   5.147  0.2355 -1.0108  0.9055
  801MOL0     C 8033   9.226  10.036   5.039  0.0311 -0.6277 -0.1642
  801MOL0     C 8034   9.111   9.972   4.989 -0.2154 -1.2185  0.6501
  801MOL0     O 8035   9.034  10.022   4.882  0.6189 -0.9129 -0.2894
  801MOL0     C 8036   9.069  10.164   4.841  0.0759  1.4398  0.4730
  801MOL0     C 8037   8.962  10.210   4.747  0.0823  0.3193 -0.9178
  801MOL0     C 8038   8.985  10.355   4.684 -0.1139  0.4496  0.4351
  801MOL0     C 8039   8.962  10.472   4.791 -0.1010 -0.0510  0.3204
  801MOL0     C 8040   9.026  10.610   4.758  0.4389 -0.1837 -0.8828
  801MOL0     C 8041   9.175  10.632   4.715 -0.0162 -0.0354  0.4231
  801MOL0     C 8042   9.271  10.632   4.829 -0.6671 -0.4239 -0.4510
  801MOL0     C 8043   9.420  10.602   4.790  0.0543 -0.3421  0.5804
  801MOL0    Cl 8044   9.533  10.631   4.921 -0.1491  0.7770  0.1934
  801MOL0     C 8045   9.077   9.846   5.023  0.3410  0.5722  0.2617
  801MOL0     C 8046   9.144   9.779   5.123 -0.3384 -0.7404  0.3288
  801MOL0     O 8047   9.117   9.778   5.421 -0.6629  0.4124  0.2368
  801MOL0     C 8048   9.464   9.696   5.519 -0.6989  0.0509  0.0124
  801MOL0     C 8049   9.533   9.656   5.632 -0.8534  0.2940 -0.1688
  801MOL0     N 8050   9.635   9.277   6.436 -0.4830 -0.2066 -0.6359
  801MOL0     N 8051   9.571   9.301   6.543 -0.3817  0.6736  1.1041
  801MOL0     C 8052   8.472   9.360   6.409  0.6044  0.2647  0.0884
  801MOL0     C 8053   8.393   9.351   6.292 -0.1819 -0.0078 -1.0510
  801MOL0     C 8054   8.194   9.039   5.995 -0.4413  0.3249  0.7801
  801MOL0     C 8055   8.085   8.953   6.004  0.7300 -0.3404  0.1050
  801MOL0     C 8056   8.061   8.848   5.910  0.4387  0.7513 -0.5141
  801MOL0     C 8057   8.152   8.827   5.805  0.2481  0.5222 -0.4333
  801MOL0     O 8058   8.139   8.730   5.703  0.6601 -0.4264 -0.2055
  801MOL0     C 8059   8.032   8.635   5.722 -0.5399 -0.5299 -0.7952
  801MOL0     C 8060   8.041   8.529   5.608 -0.1538  0.8670  0.0527
  801MOL0     C 8061   7.946   8.567   5.495  0.1356  0.9103  0.2716
  801MOL0     C 8062   7.808   8.523   5.537 -0.9806 -0.3454  0.1947
  801MOL0     C 8063   7.714   8.567   5.431  0.2566 -0.3657  0.0967
  801MOL0     C 8064   7.628   8.592   5.347 -0.4353  0.6097  0.6140
  801MOL0     C 8065   8.264   8.908   5.796 -1.5295 -0.0616 -0.2359
  801MOL0     C 8066   8.289   9.008   5.891  0.7564 -0.7050  0.0043
  801MOL0     C 8067   8.406   9.100   5.862 -0.5372 -0.4268 -0.0684
  801MOL0     H 8068   8.507   9.052   6.180 -0.8194 -0.1097 -0.6018
  801MOL0     H 8069   8.665   9.083   6.356  0.4230  0.9980 -1.8941
  801MOL0     H 8070   8.765   9.221   6.701  3.2500 -0.6775 -0.3378
  801MOL0     H 8071   8.688   9.100   6.593  1.5018 -1.4934  1.4838
  801MOL0     H 8072   8.844   9.131   6.422  0.1246  2.0624 -1.4992
  801MOL0     H 8073   8.955   9.137   6.566 -0.3346  1.1740  1.1663
  801MOL0     H 8074   8.860   9.376   6.408  0.3150  1.1335  1.9945
  801MOL0     H 8075   9.014   9.290   6.423 -0.9552  0.2726 -1.7379
  801MOL0     H 8076   8.866   9.467   6.628  1.5577 -0.7298  0.5224
  801MOL0     H 8077   8.977   9.349   6.689 -2.6291  1.0329  1.3072
  801MOL0     H 8078   9.057   9.569   6.490 -0.5794  1.6532  0.5599
  801MOL0     H 8079   9.071   9.584   6.660  1.0166  0.0690  0.3255
  801MOL0     H 8080   9.230   9.372   6.668  0.8990  1.0629  1.5495
  801MOL0     H 8081   9.234   9.395   6.491  3.3692 -0.6885  1.4222
  801MOL0     H 8082   9.296   9.629   6.672  2.3416 -1.3590  1.1447
  801MOL0     H 8083   9.327   9.588   6.505 -3.9407 -0.7691 -0.5791
  801MOL0     H 8084   9.520   9.574   6.684  0.7956 -1.0727  0.6487
  801MOL0     H 8085   9.452   9.424   6.735 -0.7996  0.5679  0.5260
  801MOL0     H 8086   9.532   9.571   6.365  2.1065 -0.4365 -2.8644
  801MOL0     H 8087   9.790   9.362   6.215 -0.4052 -3.3861 -0.4731
  801MOL0     H 8088   9.645   9.272   6.168 -0.4436  0.0827  0.2926
  801MOL0     H 8089   9.529   9.475   6.108 -0.5711 -3.3074  2.6854
  801MOL0     H 8090   9.689   9.566   6.144  0.5973 -0.3584  0.9621
  801MOL0     H 8091   9.650   9.353   5.935  2.7730 -1.4899 -0.6059
  801MOL0     H 8092   9.803   9.435   5.985 -0.0261 -0.8188 -1.3630
  801MOL0     H 8093   9.701   9.523   5.765 -0.0975 -0.1078 -0.3481
  801MOL0     H 8094   9.709   9.652   5.892 -0.6146  0.7888 -1.0224
  801MOL0     H 8095   9.283   9.612   5.851 -2.6316  0.3883 -0.4781
  801MOL0     H 8096   9.155   9.710   5.647 -0.1349  0.8948 -1.1206
  801MOL0     H 8097   9.377  10.018   5.200  1.6411 -0.6856 -1.4227
  801MOL0     H 8098   9.266  10.129   4.999 -0.9269  0.0043  0.3163
  801MOL0     H 8099   9.066  10.228   4.929 -3.1766  0.4844  1.2076
  801MOL0     H 8100   9.165  10.161   4.789  0.9855 -0.2397  2.1366
  801MOL0     H 8101   8.947  10.137   4.667  0.3336  0.0921 -0.7612
  801MOL0     H 8102   8.866  10.219   4.799  1.3541  4.0060  1.1657
  801MOL0     H 8103   9.084  10.370   4.640 -1.3781  2.6948 -1.9014
  801MOL0     H 8104   8.922  10.381   4.599 -2.1628 -5.8560 -0.4843
  801MOL0     H 8105   9.003  10.447   4.890  0.7221  0.8446  0.2146
  801MOL0     H 8106   8.854  10.485   4.803 -0.3914  1.5983 -2.9644
  801MOL0     H 8107   9.015  10.665   4.851  0.0115  0.5300 -1.3485
  801MOL0     H 8108   8.956  10.659   4.690 -1.6198 -0.6958  0.7638
  801MOL0     H 8109   9.214  10.552   4.652  2.4069  0.9704  0.5282
  801MOL0     H 8110   9.182  10.720   4.650 -0.2553 -2.1111 -2.5917
  801MOL0     H 8111   9.239  10.565   4.910  2.3956 -1.4450  0.0553
  801MOL0     H 8112   9.273  10.730   4.876 -1.5544  0.1510 -1.5494
  801MOL0     H 8113   9.423  10.500   4.750  2.7909 -0.1784  0.2219
  801MOL0     H 8114   9.445  10.676   4.714 -1.0033  1.5709  2.0025
  801MOL0     H 8115   8.992   9.799   4.973  1.1703 -1.8396  0.9726
  801MOL0     H 8116   9.121   9.681   5.162  1.8644 -2.7619 -2.9366
  801MOL0     H 8117   9.524   9.701   5.428 -0.8799 -2.9376 -0.3896
  801MOL0     H 8118   9.641   9.649   5.626 -0.9526 -0.6662 -1.2311
  801MOL0     H 8119   8.450   9.441   6.478 -2.2240  0.7476 -1.1982
  801MOL0     H 8120   8.327   9.436   6.279 -0.1808 -0.1716 -2.2981
  801MOL0     H 8121   8.003   8.962   6.076  0.7529 -1.4232  0.2775
  801MOL0     H 8122   7.971   8.787   5.922 -0.2523  1.3201 -2.4544
  801MOL0     H 8123   7.930   8.672   5.734 -1.0083 -2.3362  1.4565
  801MOL0     H 8124   8.045   8.595   5.823 -2.0173  2.0502  0.5415
  801MOL0     H 8125   8.031   8.426   5.643 -1.4423  0.5833 -1.0841
  801MOL0     H 8126   8.146   8.538   5.578  0.6777 -0.7019  2.2056
  801MOL0     H 8127   7.958   8.518   5.398 -2.2466 -0.8838  0.7928
  801MOL0     H 8128   7.956   8.675   5.484  0.1427  1.4590  4.3558
  801MOL0     H 8129   7.804   8.414   5.537 -0.9996 -0.3691  2.0067
  801MOL0     H 8130   7.774   8.559   5.635 -0.0430  0.5346  0.2273
  801MOL0     H 8131   7.557   8.618   5.271 -0.2435 -0.7690 -0.0756
  801MOL0     H 8132   8.335   8.905   5.714 -0.0180  3.0461  0.8228
  801MOL0     H 8133   8.363   9.195   5.827 -5.3035 -2.7777 -1.5300
  801MOL0     H 8134   8.469   9.122   5.948  0.0702  1.8577 -1.0151
  801MOL0     H 8135   8.476   9.066   5.785 -0.4611  0.8742 -0.6020
  802MOL0     O 8136   7.405  10.489   9.677 -0.0375 -1.1020 -0.3281
  802MOL0     C 8137   7.414  10.439   9.560  0.8035  0.1901  0.1091
  802MOL0     O 8138   7.313  10.425   9.476 -0.1928  0.6387  0.1509
  802MOL0     C 8139   7.178  10.456   9.490  0.4100  0.2346  0.2643
  802MOL0     C 8140   7.097  10.441   9.370  0.4789 -0.8608  0.1222
  802MOL0     C 8141   6.960  10.454   9.373 -0.9184 -0.1719 -0.6656
  802MOL0     C 8142   6.895  10.487   9.491 -0.3563 -0.0842 -0.5718
  802MOL0     O 8143   6.761  10.497   9.493  1.0173 -0.8085 -0.9730
  802MOL0     C 8144   6.694  10.389   9.433  0.5624 -0.2801  0.6086
  802MOL0     C 8145   6.549  10.425   9.416 -0.3701  0.0333  1.1222
  802MOL0     C 8146   6.463  10.421   9.541  0.2505  0.2464 -0.2334
  802MOL0     C 8147   6.316  10.423   9.507 -0.4931  0.3421 -0.4199
  802MOL0     C 8148   6.238  10.471   9.635 -0.3615 -0.5681  0.1307
  802MOL0     C 8149   6.087  10.497   9.619 -0.4548 -0.1350  0.3782
  802MOL0     C 8150   6.018  10.385   9.550  0.8129 -0.2702  1.0512
  802MOL0     C 8151   5.870  10.414   9.542  0.9155  0.0560  0.0275
  802MOL0     N 8152   5.796  10.305   9.473 -0.1831 -1.1247  0.1994
  802MOL0     C 8153   5.699  10.225   9.533  0.5040 -0.4433  0.4100
  802MOL0     C 8154   5.662  10.143   9.427  0.4201 -0.0827 -0.3802
  802MOL0     C 8155   5.555  10.031   9.437 -0.1847 -0.1654 -0.2059
  802MOL0     C 8156   5.584   9.945   9.559 -0.0251  0.3681  0.0203
  802MOL0     C 8157   5.481   9.832   9.566 -0.2827  0.6218  0.2463
  802MOL0     C 8158   5.476   9.763   9.702 -0.1079 -0.0785 -0.3202
  802MOL0     O 8159   5.603   9.696   9.724 -0.5375  0.2589  0.4404
  802MOL0     C 8160   5.612   9.606   9.827  0.6811 -0.0412  0.1348
  802MOL0     C 8161   5.502   9.548   9.886 -0.2724  0.1870  0.1787
  802MOL0     C 8162   5.521   9.469   9.998 -0.0782  0.6107 -0.7607
  802MOL0     C 8163   5.648   9.421  10.039 -0.8455  0.0515 -0.8156
  802MOL0     C 8164   5.661   9.318  10.146 -0.0675  0.0887 -0.1781
  802MOL0     O 8165   5.559   9.234  10.170  0.7168 -0.8199 -0.7957
  802MOL0     C 8166   5.575   9.123  10.254 -0.9971 -0.0040  0.7161
  802MOL0     C 8167   5.454   9.071  10.299 -0.3180 -0.9624 -0.3651
  802MOL0     C 8168   5.450   8.967  10.395  0.2684 -1.0646 -0.1854
  802MOL0     C 8169   5.567   8.914  10.443  0.1337  1.1536  0.1032
  802MOL0     O 8170   5.587   8.811  10.531 -0.6189  0.1266  0.5222
  802MOL0     C 8171   5.490   8.786  10.627 -0.1944  0.7518  0.1840
  802MOL0     C 8172   5.524   8.655  10.694  0.2299 -1.0993 -1.0284
  802MOL0     C 8173   5.483   8.526  10.617 -0.3803  0.1644 -0.5109
  802MOL0     C 8174   5.506   8.405  10.712 -0.1353 -0.7932  0.4012
  802MOL0     C 8175   5.440   8.275  10.640  0.4662  0.3561  1.1307
  802MOL0     C 8176   5.449   8.161  10.739 -0.1642  0.7277 -0.1694
  802MOL0     C 8177   5.390   8.033  10.681 -0.1658  0.0605 -0.9408
  802MOL0     C 8178   5.461   7.899  10.725  0.4164 -0.3083  0.9138
  802MOL0    Cl 8179   5.365   7.751  10.691  0.7277  0.2053 -0.2824
  802MOL0     C 8180   5.688   8.952  10.378 -0.9109 -0.5600  0.1666
  802MOL0     C 8181   5.692   9.056  10.285  0.4065 -0.0246 -0.0827
  802MOL0     O 8182   5.772   9.315  10.206  0.1620 -0.6348 -0.5478
  802MOL0     C 8183   5.769   9.487   9.973  0.3430  0.3880 -0.2513
  802MOL0     C 8184   5.740   9.570   9.864  0.4259 -0.3824  0.2708
  802MOL0     N 8185   5.722  10.176   9.317 -0.3548  0.0175 -0.4140
  802MOL0     N 8186   5.803  10.272   9.342  0.0216  0.3645  0.5989
  802MOL0     C 8187   6.972  10.494   9.607 -0.3824 -0.7984  0.7218
  802MOL0     C 8188   7.110  10.480   9.617  0.2287 -0.6663  0.2021
  802MOL0     C 8189   7.548  10.407   9.509 -0.0685  0.0606  0.5631
  802MOL0     C 8190   7.660  10.406   9.599  0.2513  0.1403 -0.1200
  802MOL0     C 8191   7.789  10.366   9.559 -0.4249 -0.7581  0.9113
  802MOL0     C 8192   7.814  10.322   9.428  0.9081  0.5955  0.1452
  802MOL0     O 8193   7.948  10.290   9.399  0.1221 -1.2716  0.4277
  802MOL0     C 8194   7.971  10.210   9.280  0.1017 -0.6089 -0.3987
  802MOL0     C 8195   8.102  10.135   9.298 -0.0099  0.6641 -0.2198
  802MOL0     C 8196   8.069  10.014   9.379 -0.3666  0.7518 -0.4795
  802MOL0     C 8197   8.119  10.001   9.521 -1.1083 -0.7466 -0.4240
  802MOL0     C 8198   8.112  10.125   9.602  0.5405 -0.1265 -1.0528
  802MOL0     C 8199   8.110  10.227   9.663  0.9249 -0.1880 -0.3326
  802MOL0     C 8200   7.705  10.317   9.336  0.3982  0.4696  0.0260
  802MOL0     C 8201   7.576  10.359   9.375  0.1364 -0.9795  0.5341
  802MOL0     C 8202   7.479  10.366   9.261 -0.0891  0.4238  0.0605
  802MOL0     H 8203   7.163  10.424   9.286 -0.2899 -2.0119 -0.2619
  802MOL0     H 8204   6.920  10.462   9.273  0.7872  2.5625 -1.2253
  802MOL0     H 8205   6.726  10.362   9.331  0.7055 -0.1434  0.6172
  802MOL0     H 8206   6.699  10.296   9.491  0.9646 -1.2347 -0.8873
  802MOL0     H 8207   6.498  10.354   9.350 -0.4075 -1.5073  2.7004
  802MOL0     H 8208   6.532  10.522   9.370  2.3399  0.6082  1.1818
  802MOL0     H 8209   6.492  10.511   9.596  0.0849  2.4907 -3.4708
  802MOL0     H 8210   6.481  10.325   9.589 -3.8868  0.0480  1.3491
  802MOL0     H 8211   6.295  10.493   9.425 -0.0841 -0.7433 -1.4793
  802MOL0     H 8212   6.287  10.322   9.476 -2.4631  0.5844  0.5003
  802MOL0     H 8213   6.260  10.407   9.720 -2.9095  0.3185  1.5803
  802MOL0     H 8214   6.280  10.570   9.657 -0.8689  0.0226 -1.4026
  802MOL0     H 8215   6.046  10.498   9.720  1.2461 -2.3767  1.1849
  802MOL0     H 8216   6.079  10.589   9.560  2.2679 -0.0793 -0.0481
  802MOL0     H 8217   6.033  10.284   9.590 -4.6771 -2.1061 -0.5562
  802MOL0     H 8218   6.055  10.390   9.447  2.3776 -0.7795  1.5529
  802MOL0     H 8219   5.818  10.434   9.635  0.5160 -0.3870 -0.0960
  802MOL0     H 8220   5.840  10.504   9.488 -0.0498  1.3905  2.6499
  802MOL0     H 8221   5.659  10.214   9.633  1.6544 -0.2304  0.9127
  802MOL0     H 8222   5.459  10.083   9.449 -1.0246 -1.9165  1.0773
  802MOL0     H 8223   5.563   9.978   9.342  1.5302  0.5063 -0.4676
  802MOL0     H 8224   5.678   9.893   9.543 -0.9653 -0.7385 -2.3119
  802MOL0     H 8225   5.581  10.003   9.652 -4.4845 -2.0177  1.7133
  802MOL0     H 8226   5.513   9.749   9.502 -1.8155 -0.8717  1.3262
  802MOL0     H 8227   5.380   9.863   9.538 -0.2423  0.6272  0.1072
  802MOL0     H 8228   5.397   9.687   9.701  1.8699 -2.2633 -0.3955
  802MOL0     H 8229   5.452   9.840   9.775 -0.0928  2.5174 -2.8962
  802MOL0     H 8230   5.404   9.582   9.853 -0.0845  0.5268 -0.0373
  802MOL0     H 8231   5.427   9.434  10.041  1.2151 -0.0420  1.6839
  802MOL0     H 8232   5.364   9.108  10.250 -1.5600 -0.5497  2.0771
  802MOL0     H 8233   5.351   8.939  10.430 -0.4287 -0.7414 -1.8277
  802MOL0     H 8234   5.502   8.868  10.698 -2.3718 -0.0530  1.6062
  802MOL0     H 8235   5.391   8.775  10.582 -0.7862  1.4606  1.2653
  802MOL0     H 8236   5.630   8.664  10.721 -0.4027  0.9572  1.0852
  802MOL0     H 8237   5.469   8.662  10.789  0.4052  4.2972 -1.0501
  802MOL0     H 8238   5.381   8.516  10.581 -1.0907 -0.7986  1.6082
  802MOL0     H 8239   5.549   8.531  10.530 -0.6406 -1.2209 -0.7990
  802MOL0     H 8240   5.461   8.428  10.809  1.4031 -0.2301  1.0169
  802MOL0     H 8241   5.612   8.394  10.735  0.2286  3.3625  1.4755
  802MOL0     H 8242   5.482   8.256  10.540  0.1150  3.1739  0.3631
  802MOL0     H 8243   5.333   8.298  10.630  0.5845  0.5015  0.0863
  802MOL0     H 8244   5.554   8.142  10.765 -0.4624 -1.0575 -0.1206
  802MOL0     H 8245   5.404   8.193  10.833  2.4990 -0.2129  1.5402
  802MOL0     H 8246   5.394   8.028  10.572 -0.5991 -3.4237 -0.9058
  802MOL0     H 8247   5.285   8.030  10.711 -1.2985  0.1477 -4.4247
  802MOL0     H 8248   5.563   7.886  10.689 -0.0716 -0.8110 -0.3412
  802MOL0     H 8249   5.469   7.902  10.834  0.5140 -1.3130  0.9419
  802MOL0     H 8250   5.778   8.897  10.403 -1.5459 -2.3286 -1.1787
  802MOL0     H 8251   5.789   9.073  10.241  0.7878 -2.0159 -0.1283
  802MOL0     H 8252   5.870   9.466  10.009  0.5641  1.2407 -0.3439
  802MOL0     H 8253   5.822   9.604   9.802 -1.7855 -0.9123 -3.2518
  802MOL0     H 8254   6.916  10.527   9.694 -2.4042 -0.7854 -0.5147
  802MOL0     H 8255   7.159  10.475   9.713 -2.1563  0.4151  1.5707
  802MOL0     H 8256   7.656  10.445   9.700  5.3053  1.5726 -0.1882
  802MOL0     H 8257   7.867  10.363   9.635 -1.4612 -0.3529  2.0338
  802MOL0     H 8258   7.995  10.276   9.196  1.9682 -1.1252 -0.3081
  802MOL0     H 8259   7.889  10.153   9.235 -3.0237  2.1606  1.3087
  802MOL0     H 8260   8.174  10.204   9.343  1.4824 -0.3635 -0.9429
  802MOL0     H 8261   8.139  10.102   9.200  0.6784  0.3067  0.1541
  802MOL0     H 8262   8.097   9.923   9.327 -0.7269 -2.6201  4.5242
  802MOL0     H 8263   7.962  10.008   9.400 -0.6494  2.0368 -1.4300
  802MOL0     H 8264   8.075   9.914   9.570 -0.9136  0.0728  1.3126
  802MOL0     H 8265   8.227   9.981   9.513 -0.7336 -0.3574  2.4372
  802MOL0     H 8266   8.130  10.318   9.716  1.9064 -0.2356 -0.6041
  802MOL0     H 8267   7.733  10.279   9.238 -1.0962 -1.7899  0.3993
  802MOL0     H 8268   7.403  10.289   9.279 -0.3051  0.7364  0.5208
  802MOL0     H 8269   7.432  10.465   9.261  0.1188  0.5210  0.3645
  802MOL0     H 8270   7.526  10.350   9.163 -1.9136  1.8013 -1.1145
  803MOL0     O 8271   1.010   2.781  10.472 -0.3924  0.0685  0.3909
  803MOL0     C 8272   1.049   2.887  10.427  0.6252  0.1610  0.1447
  803MOL0     O 8273   1.157   2.958  10.478 -0.1314 -0.7536 -0.0847
  803MOL0     C 8274   1.195   2.945  10.602 -0.5790  0.7747  0.0004
  803MOL0     C 8275   1.172   3.035  10.701  0.4778  0.2867 -0.4012
  803MOL0     C 8276   1.224   3.024  10.831  0.0008 -0.2850  0.9062
  803MOL0     C 8277   1.315   2.927  10.862 -0.4675 -0.2125 -0.4712
  803MOL0     O 8278   1.364   2.929  10.991 -0.6419 -0.7431 -0.1246
  803MOL0     C 8279   1.385   2.794  11.041  0.8336  0.7657  0.5712
  803MOL0     C 8280   1.425   2.801  11.195  0.0089 -0.1083 -0.7242
  803MOL0     C 8281   1.294   2.831  11.287  0.4755 -0.7049  0.1071
  803MOL0     C 8282   1.238   2.970  11.263  1.4213  0.5328  0.9146
  803MOL0     C 8283   1.166   3.030  11.387  0.5621 -0.3227  0.3133
  803MOL0     C 8284   1.030   2.962  11.403  0.7736 -0.3069  0.4475
  803MOL0     C 8285   0.956   2.997  11.524 -0.7366  0.7885 -1.0100
  803MOL0     C 8286   0.813   2.938  11.542  0.3727  0.4287  0.5821
  803MOL0     N 8287   0.708   2.959  11.437  0.1856 -0.2380  0.6928
  803MOL0     C 8288   0.603   2.877  11.405  0.4085 -0.0382  0.2659
  803MOL0     C 8289   0.525   2.939  11.316 -0.5466 -0.2173  0.1544
  803MOL0     C 8290   0.407   2.877  11.242 -0.0508 -0.3316 -0.1974
  803MOL0     C 8291   0.438   2.819  11.097  0.7597  0.2019 -0.1615
  803MOL0     C 8292   0.387   2.903  10.978  0.0893 -0.1867  1.2076
  803MOL0     C 8293   0.416   3.044  10.973 -0.2052 -0.0880  1.3750
  803MOL0     O 8294   0.404   3.099  10.845  1.0995  0.5269  0.3818
  803MOL0     C 8295   0.278   3.138  10.789 -0.1614 -0.0291 -0.1419
  803MOL0     C 8296   0.292   3.217  10.669  0.1437  0.7266 -0.2980
  803MOL0     C 8297   0.173   3.252  10.600 -0.1802 -0.4824 -1.5508
  803MOL0     C 8298   0.043   3.244  10.661 -0.2401 -0.0029  0.1177
  803MOL0     C 8299  -0.081   3.284  10.595  0.1282 -0.7407  0.4338
  803MOL0     O 8300  -0.210   3.245  10.636 -0.0706 -0.3787 -0.2592
  803MOL0     C 8301  -0.308   3.323  10.578  0.0265 -0.0682 -0.6444
  803MOL0     C 8302  -0.356   3.447  10.637  1.4203 -0.9749 -0.3918
  803MOL0     C 8303  -0.455   3.517  10.566  0.4925  0.1159  0.7111
  803MOL0     C 8304  -0.494   3.484  10.439  0.3452  0.5045  0.7578
  803MOL0     O 8305  -0.573   3.576  10.369 -0.4730 -0.6886  0.4180
  803MOL0     C 8306  -0.551   3.577  10.220 -0.1036 -1.3875 -0.6999
  803MOL0     C 8307  -0.637   3.693  10.171 -0.2075 -0.1144 -0.2181
  803MOL0     C 8308  -0.694   3.673  10.039 -0.6113  0.2099  0.6738
  803MOL0     C 8309  -0.810   3.565  10.047  0.3111 -0.0199  0.5103
  803MOL0     C 8310  -0.849   3.533   9.902  0.9447  0.9570 -0.0569
  803MOL0     C 8311  -0.791   3.399   9.864 -0.4666 -0.2326  0.0310
  803MOL0     C 8312  -0.832   3.347   9.727 -0.0441  0.5379  0.3896
  803MOL0     C 8313  -0.829   3.447   9.610  0.2883 -0.3768 -0.0963
  803MOL0    Cl 8314  -0.653   3.487   9.592 -0.0617 -0.4411 -0.2651
  803MOL0     C 8315  -0.460   3.362  10.387  0.4501 -0.4264 -0.4271
  803MOL0     C 8316  -0.366   3.282  10.456 -0.9712 -0.0282 -0.1863
  803MOL0     O 8317  -0.058   3.350  10.489  0.3133  0.4584  0.7263
  803MOL0     C 8318   0.038   3.166  10.788  0.4675  0.1270 -0.0890
  803MOL0     C 8319   0.149   3.113  10.850  0.5093 -0.9193  0.1527
  803MOL0     N 8320   0.585   3.062  11.297 -0.7394 -0.7848 -0.8111
  803MOL0     N 8321   0.695   3.075  11.368 -0.5658 -0.3436 -0.8869
  803MOL0     C 8322   1.345   2.828  10.760 -0.1244  0.1882 -0.3295
  803MOL0     C 8323   1.282   2.842  10.632  0.1333 -0.7019 -0.0331
  803MOL0     C 8324   0.989   2.935  10.298 -0.3024  0.0664 -0.6335
  803MOL0     C 8325   1.076   3.022  10.226  0.5696  1.0472 -0.2116
  803MOL0     C 8326   1.025   3.096  10.121 -0.1412  0.3878  0.4203
  803MOL0     C 8327   0.898   3.073  10.064  0.1478 -0.4126 -0.7200
  803MOL0     O 8328   0.870   3.156   9.955  0.3387  0.1072  0.1311
  803MOL0     C 8329   0.764   3.125   9.873  0.1576 -0.4607  0.2690
  803MOL0     C 8330   0.763   3.179   9.732  0.4822  0.4382  0.2357
  803MOL0     C 8331   0.908   3.230   9.696 -0.3460  0.2853 -0.1024
  803MOL0     C 8332   0.935   3.258   9.551 -0.2193 -0.1776  0.6028
  803MOL0     C 8333   0.833   3.327   9.475 -0.4304  0.1290 -0.5429
  803MOL0     C 8334   0.755   3.390   9.406 -0.6749 -0.2270 -0.1114
  803MOL0     C 8335   0.822   2.975  10.125 -0.0280  0.3544 -0.3242
  803MOL0     C 8336   0.866   2.907  10.239  0.9915  0.2118  0.1636
  803MOL0     C 8337   0.781   2.797  10.293 -0.7572 -0.6719 -0.8298
  803MOL0     H 8338   1.109   3.120  10.677  1.1964  0.0847 -3.3085
  803MOL0     H 8339   1.196   3.093  10.910  0.4486 -0.0332  0.8456
  803MOL0     H 8340   1.290   2.745  11.017  0.5545  2.4147 -2.1212
  803MOL0     H 8341   1.460   2.743  10.980  0.5365  2.0953 -0.9569
  803MOL0     H 8342   1.507   2.874  11.198  0.6975 -0.8425 -1.3590
  803MOL0     H 8343   1.469   2.705  11.222 -0.0254  0.0807  0.0442
  803MOL0     H 8344   1.328   2.806  11.388 -1.1048  1.1785  1.1799
  803MOL0     H 8345   1.217   2.758  11.259 -1.0210  1.3637 -1.4631
  803MOL0     H 8346   1.312   3.045  11.235  2.6640 -1.5269 -1.7515
  803MOL0     H 8347   1.176   2.960  11.174  0.4975  1.3810  1.4437
  803MOL0     H 8348   1.223   3.015  11.479  2.2691 -0.3406 -0.7136
  803MOL0     H 8349   1.129   3.132  11.375 -1.4688 -0.6153  3.0070
  803MOL0     H 8350   0.960   2.986  11.322  1.0531  0.5539  0.4444
  803MOL0     H 8351   1.054   2.856  11.407 -0.5746 -0.5853  2.1955
  803MOL0     H 8352   0.951   3.106  11.520  3.0197  1.1802  0.2355
  803MOL0     H 8353   1.015   2.971  11.613  1.6191  0.8550 -2.4708
  803MOL0     H 8354   0.836   2.834  11.566 -0.0815 -0.0200 -0.8006
  803MOL0     H 8355   0.776   2.972  11.639  0.6348  1.3924  0.3523
  803MOL0     H 8356   0.584   2.779  11.449 -0.9750  0.2635  0.3726
  803MOL0     H 8357   0.356   2.803  11.305 -0.4536 -1.1983 -1.4956
  803MOL0     H 8358   0.337   2.956  11.214 -1.5025 -1.2891  0.5623
  803MOL0     H 8359   0.547   2.809  11.091  0.9249  1.8773 -0.4277
  803MOL0     H 8360   0.390   2.722  11.086  3.2749 -1.0816 -0.6671
  803MOL0     H 8361   0.282   2.882  10.958 -0.3351 -1.0702  3.9523
  803MOL0     H 8362   0.449   2.849  10.906 -0.0155 -2.2038  2.5577
  803MOL0     H 8363   0.518   3.074  10.996  0.5649  0.4738 -2.2908
  803MOL0     H 8364   0.349   3.101  11.039  0.7971  1.7506  0.8763
  803MOL0     H 8365   0.393   3.228  10.631  1.2929 -0.5716  2.1247
  803MOL0     H 8366   0.174   3.283  10.496 -0.3272  2.7338 -0.7137
  803MOL0     H 8367  -0.314   3.486  10.729  0.4235 -0.1887 -0.2495
  803MOL0     H 8368  -0.499   3.611  10.598  0.6792  0.8449 -1.0215
  803MOL0     H 8369  -0.447   3.596  10.192 -0.9775  0.8095 -2.8662
  803MOL0     H 8370  -0.568   3.482  10.168 -1.3600 -1.5226 -0.0837
  803MOL0     H 8371  -0.722   3.722  10.235  0.5487  1.9948 -0.0926
  803MOL0     H 8372  -0.564   3.774  10.161 -0.5863  0.4121  0.9651
  803MOL0     H 8373  -0.715   3.770   9.993  1.9467  2.6224  4.0498
  803MOL0     H 8374  -0.614   3.630   9.979 -1.0969 -2.2104  1.6447
  803MOL0     H 8375  -0.897   3.605  10.099 -0.0352 -1.2574  0.9257
  803MOL0     H 8376  -0.785   3.476  10.106 -1.3007 -0.6931  0.2255
  803MOL0     H 8377  -0.836   3.618   9.835  1.1261  0.9526 -0.0293
  803MOL0     H 8378  -0.955   3.507   9.899  1.5839 -2.2673  0.7936
  803MOL0     H 8379  -0.683   3.407   9.876 -0.0737  0.4530 -3.2017
  803MOL0     H 8380  -0.817   3.332   9.947 -3.1203  3.7195  2.7447
  803MOL0     H 8381  -0.932   3.304   9.719  0.2972 -0.1303 -0.3388
  803MOL0     H 8382  -0.762   3.268   9.699  0.3649  1.6281 -1.8299
  803MOL0     H 8383  -0.868   3.416   9.512  0.3325 -0.1234 -0.1944
  803MOL0     H 8384  -0.875   3.544   9.634  2.8283  1.2382 -1.3567
  803MOL0     H 8385  -0.499   3.322  10.294  3.7506 -2.4579 -1.1060
  803MOL0     H 8386  -0.336   3.185  10.418 -0.4217  0.3513 -0.7204
  803MOL0     H 8387  -0.060   3.166  10.834 -0.2048  0.9873 -1.4770
  803MOL0     H 8388   0.146   3.055  10.941 -0.6389  0.5225  1.0725
  803MOL0     H 8389   1.411   2.747  10.789 -1.6367 -0.5055  1.4356
  803MOL0     H 8390   1.313   2.770  10.556  1.4238 -1.3181  1.0322
  803MOL0     H 8391   1.169   3.057  10.270  1.5176  2.1719 -2.9193
  803MOL0     H 8392   1.076   3.181  10.077 -0.2051  0.0005 -0.4034
  803MOL0     H 8393   0.677   3.156   9.932  1.2639  0.0739  1.6605
  803MOL0     H 8394   0.755   3.016   9.861 -0.0244 -0.9360  3.7166
  803MOL0     H 8395   0.690   3.260   9.723 -2.0588 -1.7718 -0.5040
  803MOL0     H 8396   0.738   3.102   9.658  3.5756  0.2818 -0.7690
  803MOL0     H 8397   0.978   3.150   9.722  1.9195  2.5612  1.1999
  803MOL0     H 8398   0.923   3.319   9.758  1.9786  0.1404 -0.3959
  803MOL0     H 8399   1.031   3.309   9.545  0.3403 -1.3715 -1.0958
  803MOL0     H 8400   0.953   3.160   9.506  1.7900 -0.2395  1.4266
  803MOL0     H 8401   0.682   3.444   9.349 -0.0961 -0.4189 -1.0426
  803MOL0     H 8402   0.725   2.950  10.083  0.9079 -1.0980 -1.7758
  803MOL0     H 8403   0.760   2.803  10.400  1.7351 -2.0074 -0.2021
  803MOL0     H 8404   0.690   2.788  10.232  0.3029 -0.7174 -2.4725
  803MOL0     H 8405   0.839   2.704  10.288  1.2644  0.4478  0.6400
  804MOL0     O 8406   7.258   5.920   8.689 -0.5128 -0.2954  0.3711
  804MOL0     C 8407   7.200   5.814   8.666 -0.0245  0.1397 -0.4088
  804MOL0     O 8408   7.248   5.693   8.630 -0.4766  1.0394 -1.1510
  804MOL0     C 8409   7.363   5.676   8.560 -0.1867 -0.3256 -0.8924
  804MOL0     C 8410   7.467   5.768   8.544 -0.3482 -0.8963 -0.1502
  804MOL0     C 8411   7.571   5.740   8.453  0.3548 -0.4213 -0.6617
  804MOL0     C 8412   7.592   5.615   8.401 -0.0137 -0.9049 -0.4412
  804MOL0     O 8413   7.703   5.577   8.337  0.4114  0.1231 -0.4349
  804MOL0     C 8414   7.795   5.670   8.283 -0.4020 -0.8767  0.6626
  804MOL0     C 8415   7.896   5.586   8.203 -0.3799  0.3394  0.1527
  804MOL0     C 8416   7.960   5.658   8.088 -0.2579  0.3404  0.1726
  804MOL0     C 8417   7.852   5.717   7.980  0.5734 -0.2632  0.5892
  804MOL0     C 8418   7.906   5.774   7.844  0.3886  0.3151 -0.5246
  804MOL0     C 8419   8.002   5.896   7.857 -0.3262 -0.1205  0.4734
  804MOL0     C 8420   8.082   5.912   7.732 -0.4668 -0.4028 -0.4604
  804MOL0     C 8421   8.169   6.047   7.727  0.2966 -0.2400 -0.1526
  804MOL0     N 8422   8.271   6.034   7.626 -0.0266 -0.6130 -0.2678
  804MOL0     C 8423   8.251   6.040   7.490  0.4216 -0.0735  0.2550
  804MOL0     C 8424   8.376   6.056   7.437  0.1313  0.2060  0.2423
  804MOL0     C 8425   8.424   6.081   7.293  0.3417 -0.6214  0.4760
  804MOL0     C 8426   8.499   5.954   7.233  0.1010  0.4048  0.0854
  804MOL0     C 8427   8.426   5.825   7.221  0.8951 -0.7034  0.5019
  804MOL0     C 8428   8.304   5.823   7.135  0.1885 -0.0900  1.3109
  804MOL0     O 8429   8.353   5.870   7.012 -0.7774  0.5643  0.3286
  804MOL0     C 8430   8.278   5.847   6.898  0.0480 -0.5799 -1.3046
  804MOL0     C 8431   8.361   5.826   6.788 -0.2387 -0.5111  0.1982
  804MOL0     C 8432   8.309   5.775   6.672 -0.2530  0.9207  0.2452
  804MOL0     C 8433   8.168   5.756   6.661  0.2499 -0.2474 -0.0746
  804MOL0     C 8434   8.105   5.723   6.530  0.1136 -0.3571 -0.0861
  804MOL0     O 8435   7.968   5.699   6.546  0.3402  0.3742  0.0383
  804MOL0     C 8436   7.898   5.653   6.438 -0.7966  0.7506  1.4431
  804MOL0     C 8437   7.818   5.750   6.363 -0.1994 -0.2951 -0.4499
  804MOL0     C 8438   7.732   5.695   6.272  0.6908  0.3044 -0.0016
  804MOL0     C 8439   7.743   5.551   6.232 -0.9177 -0.2667  0.4747
  804MOL0     O 8440   7.661   5.495   6.131 -0.4989 -0.1974  0.6155
  804MOL0     C 8441   7.562   5.581   6.068 -0.6537  0.1994 -0.3514
  804MOL0     C 8442   7.469   5.488   5.983  0.8736 -1.4156 -0.0862
  804MOL0     C 8443   7.531   5.391   5.894 -0.0103  0.5540 -0.0008
  804MOL0     C 8444   7.428   5.322   5.797 -0.2868 -0.4146  0.0186
  804MOL0     C 8445   7.308   5.270   5.879  0.3330  0.0991  0.5614
  804MOL0     C 8446   7.230   5.174   5.795 -0.4067 -0.1740  0.2473
  804MOL0     C 8447   7.133   5.098   5.870 -0.7152  0.2662  0.7768
  804MOL0     C 8448   7.046   5.021   5.767  0.4541  0.4499  0.6223
  804MOL0    Cl 8449   6.910   4.942   5.863 -0.3977 -0.3381 -0.0046
  804MOL0     C 8450   7.822   5.466   6.308  0.1828 -0.3609  0.1275
  804MOL0     C 8451   7.889   5.518   6.408 -0.6955  0.3706 -0.9032
  804MOL0     O 8452   8.170   5.738   6.429  0.7474  0.0349  0.2269
  804MOL0     C 8453   8.093   5.770   6.772 -0.2346  0.4820 -0.7019
  804MOL0     C 8454   8.146   5.816   6.894 -0.7615 -0.7435  0.6959
  804MOL0     N 8455   8.475   6.048   7.534 -0.8298 -0.0350 -0.2298
  804MOL0     N 8456   8.408   6.046   7.647 -0.3257  0.1158  0.4565
  804MOL0     C 8457   7.492   5.529   8.420 -1.5027  1.4733  0.1242
  804MOL0     C 8458   7.373   5.553   8.488  0.6483  0.0173  0.3460
  804MOL0     C 8459   7.047   5.811   8.651 -0.0739 -0.2368 -0.4861
  804MOL0     C 8460   6.994   5.713   8.561 -0.0376  0.6480  0.4077
  804MOL0     C 8461   6.853   5.707   8.525  0.6859  0.3613 -0.5354
  804MOL0     C 8462   6.762   5.795   8.599 -1.1515 -0.6009  0.4549
  804MOL0     O 8463   6.632   5.773   8.562  0.8535  0.0051 -0.0008
  804MOL0     C 8464   6.525   5.841   8.633 -0.4626  0.1317 -0.6448
  804MOL0     C 8465   6.492   5.799   8.770  0.1776  0.0116  0.0531
  804MOL0     C 8466   6.382   5.895   8.835 -1.4884 -0.3486  0.1268
  804MOL0     C 8467   6.280   5.815   8.918  0.3386 -0.7125  0.2696
  804MOL0     C 8468   6.149   5.864   8.894  0.2001  0.3472  0.0451
  804MOL0     C 8469   6.040   5.906   8.858 -0.0283  0.7572 -0.3144
  804MOL0     C 8470   6.821   5.885   8.695  0.5723 -0.3011 -0.7508
  804MOL0     C 8471   6.960   5.894   8.719 -0.0664  0.7120  0.2172
  804MOL0     C 8472   7.015   5.999   8.818 -0.8687  0.6220 -0.5556
  804MOL0     H 8473   7.476   5.869   8.584 -1.2828 -0.0460 -1.9570
  804MOL0     H 8474   7.632   5.827   8.430 -0.2399  0.7471  1.8095
  804MOL0     H 8475   7.753   5.753   8.225  3.5913  0.9925  0.1350
  804MOL0     H 8476   7.843   5.716   8.369  0.7783  1.0599 -0.9328
  804MOL0     H 8477   7.835   5.501   8.172 -0.5059  0.0947  1.0554
  804MOL0     H 8478   7.976   5.550   8.268 -2.3945 -3.3217  0.8937
  804MOL0     H 8479   8.027   5.588   8.036  0.6076  0.3066  1.2890
  804MOL0     H 8480   8.032   5.734   8.119 -1.4304  1.2754  0.6542
  804MOL0     H 8481   7.782   5.636   7.961  3.3606 -2.3663 -1.5613
  804MOL0     H 8482   7.796   5.797   8.029 -1.6546  0.4096 -2.7307
  804MOL0     H 8483   7.960   5.691   7.798  0.1058 -1.6231  2.4062
  804MOL0     H 8484   7.819   5.792   7.780 -1.1386 -2.2142  0.6795
  804MOL0     H 8485   7.940   5.984   7.872 -0.8838 -0.3802 -0.2504
  804MOL0     H 8486   8.070   5.888   7.942  0.2674 -1.4449 -0.1018
  804MOL0     H 8487   8.016   5.903   7.645 -3.3896  2.2282  1.2807
  804MOL0     H 8488   8.147   5.824   7.734 -0.9311 -0.7450 -0.3532
  804MOL0     H 8489   8.109   6.138   7.720  1.1940  0.3671 -0.1579
  804MOL0     H 8490   8.224   6.047   7.822  1.1022  1.0355 -0.5937
  804MOL0     H 8491   8.155   6.038   7.439 -0.8713 -2.7362  2.5225
  804MOL0     H 8492   8.342   6.100   7.223 -1.2600 -1.7035  1.9796
  804MOL0     H 8493   8.493   6.165   7.289 -0.2783 -0.1375 -0.7045
  804MOL0     H 8494   8.557   5.985   7.146  2.5877  3.6644  2.6362
  804MOL0     H 8495   8.572   5.930   7.311 -1.6493 -0.1246  1.6389
  804MOL0     H 8496   8.398   5.792   7.322 -2.6569  0.4293  0.0198
  804MOL0     H 8497   8.505   5.764   7.176  0.5434 -0.5313 -0.3546
  804MOL0     H 8498   8.229   5.891   7.175 -1.6479 -0.4624 -1.2077
  804MOL0     H 8499   8.254   5.727   7.121  0.1544  0.0434  0.4240
  804MOL0     H 8500   8.464   5.860   6.789  0.2640 -1.8388 -1.6535
  804MOL0     H 8501   8.375   5.785   6.586 -1.3494  2.6842 -0.4361
  804MOL0     H 8502   7.805   5.853   6.395  1.4130 -0.3710  0.5493
  804MOL0     H 8503   7.667   5.767   6.222  0.7881 -0.5268 -1.3875
  804MOL0     H 8504   7.495   5.625   6.143 -2.9482  2.5580 -3.5339
  804MOL0     H 8505   7.607   5.655   6.002  2.1750 -0.3204  0.8498
  804MOL0     H 8506   7.402   5.432   6.049  0.6118 -1.7142 -0.5917
  804MOL0     H 8507   7.404   5.557   5.929  1.0990 -2.9127 -2.4542
  804MOL0     H 8508   7.592   5.456   5.830 -1.8223 -0.1530 -2.6474
  804MOL0     H 8509   7.593   5.317   5.945 -0.7684  2.1363  3.5442
  804MOL0     H 8510   7.480   5.240   5.744 -1.0840 -0.0644 -1.3596
  804MOL0     H 8511   7.390   5.400   5.731 -1.6556 -1.9014 -1.0372
  804MOL0     H 8512   7.240   5.350   5.910 -0.9129  0.3301 -2.4656
  804MOL0     H 8513   7.343   5.216   5.967  0.9038 -0.1663  0.1784
  804MOL0     H 8514   7.187   5.229   5.711 -0.4600 -1.3571 -0.5263
  804MOL0     H 8515   7.303   5.110   5.745  1.0384  1.4761  0.1641
  804MOL0     H 8516   7.064   5.159   5.929 -1.9368  0.8198 -1.1290
  804MOL0     H 8517   7.168   5.017   5.934  1.7049 -1.4993 -2.4878
  804MOL0     H 8518   7.010   5.090   5.690  2.4614 -0.6498 -1.3921
  804MOL0     H 8519   7.097   4.936   5.723 -2.9670  0.4287 -4.0279
  804MOL0     H 8520   7.834   5.358   6.299 -1.8018 -0.5345 -1.2478
  804MOL0     H 8521   7.929   5.434   6.464 -0.0382  0.5693 -1.0684
  804MOL0     H 8522   7.987   5.751   6.787 -0.9234  4.0817 -0.0803
  804MOL0     H 8523   8.082   5.832   6.980 -0.4282 -1.2445  1.0442
  804MOL0     H 8524   7.512   5.428   8.385 -0.9576  1.4718  0.4355
  804MOL0     H 8525   7.293   5.480   8.495  0.1869  0.5080  0.3424
  804MOL0     H 8526   7.052   5.646   8.499  0.6762  2.3266 -0.8283
  804MOL0     H 8527   6.805   5.635   8.459 -1.6812  0.4800  0.9388
  804MOL0     H 8528   6.431   5.821   8.579 -0.8376  0.3816 -0.0833
  804MOL0     H 8529   6.543   5.948   8.627  1.9080 -0.1858 -0.0951
  804MOL0     H 8530   6.575   5.793   8.841  1.4132 -2.3661 -1.4624
  804MOL0     H 8531   6.459   5.695   8.765  0.0281 -0.0472  1.6339
  804MOL0     H 8532   6.335   5.944   8.749 -3.0539 -2.5422 -0.3533
  804MOL0     H 8533   6.433   5.969   8.897 -1.0099 -0.7823  0.2572
  804MOL0     H 8534   6.281   5.710   8.885  2.0596 -1.2007  1.7652
  804MOL0     H 8535   6.313   5.830   9.021  1.7424  0.7653 -0.3632
  804MOL0     H 8536   5.947   5.932   8.811 -0.4474 -1.3430 -0.7835
  804MOL0     H 8537   6.751   5.956   8.735  0.7409  0.7982 -2.3022
  804MOL0     H 8538   6.932   6.022   8.885  3.4014  2.3036  4.9012
  804MOL0     H 8539   7.097   5.969   8.884 -1.7309  0.8652  0.6476
  804MOL0     H 8540   7.050   6.080   8.753  0.1891 -0.5751 -1.5401
  805MOL0     O 8541  11.144   2.703   4.236 -0.2463 -0.6981  0.0345
  805MOL0     C 8542  11.195   2.609   4.185  0.2950  0.1253 -0.4290
  805MOL0     O 8543  11.271   2.512   4.252 -0.1330  0.2302 -0.1660
  805MOL0     C 8544  11.302   2.509   4.386 -0.7293 -0.0726 -0.4744
  805MOL0     C 8545  11.300   2.391   4.453  0.3932  0.4780  0.0088
  805MOL0     C 8546  11.319   2.382   4.582 -0.4824 -0.5468  0.3294
  805MOL0     C 8547  11.372   2.492   4.651 -0.0495  0.3128  0.7695
  805MOL0     O 8548  11.398   2.492   4.782  0.3579  0.4175  0.0011
  805MOL0     C 8549  11.293   2.455   4.874  0.1945 -0.2556 -0.8537
  805MOL0     C 8550  11.328   2.481   5.025  0.7606  0.6153  0.4968
  805MOL0     C 8551  11.206   2.457   5.116  0.9306  0.5443 -0.7778
  805MOL0     C 8552  11.243   2.477   5.265  0.7312  0.0727 -0.9161
  805MOL0     C 8553  11.314   2.344   5.309 -0.4907 -0.8971  1.2776
  805MOL0     C 8554  11.328   2.344   5.458 -0.2147 -0.8580  0.0514
  805MOL0     C 8555  11.447   2.257   5.496 -0.8662  0.1339 -0.1969
  805MOL0     C 8556  11.485   2.256   5.643  0.3898 -0.0149  0.6140
  805MOL0     N 8557  11.379   2.206   5.724 -0.6390  0.3707  0.0130
  805MOL0     C 8558  11.346   2.068   5.722  0.3403 -1.0919  0.1062
  805MOL0     C 8559  11.230   2.064   5.795  0.1997 -0.3148 -0.1998
  805MOL0     C 8560  11.129   1.957   5.803  1.3032 -0.9973 -0.5295
  805MOL0     C 8561  11.001   1.979   5.716  0.4714  0.6509  0.3771
  805MOL0     C 8562  10.892   1.874   5.716 -0.6149 -1.1743  0.2491
  805MOL0     C 8563  10.766   1.931   5.660 -0.2514  0.7068 -1.2650
  805MOL0     O 8564  10.657   1.879   5.745 -0.7410 -0.0720  0.6162
  805MOL0     C 8565  10.527   1.912   5.706  0.4915  0.5916  1.6535
  805MOL0     C 8566  10.482   1.941   5.576 -0.2459 -1.0094  0.7622
  805MOL0     C 8567  10.346   1.962   5.555  0.0412 -0.2630 -1.0227
  805MOL0     C 8568  10.253   1.958   5.658  0.9385 -1.1228  1.4006
  805MOL0     C 8569  10.114   2.012   5.639 -0.0067 -0.5085  0.0022
  805MOL0     O 8570  10.089   2.049   5.506  0.5398 -0.9659 -0.2191
  805MOL0     C 8571   9.979   2.132   5.482  0.6324 -0.3083  0.4843
  805MOL0     C 8572   9.992   2.265   5.436  0.6522  1.1029 -0.0045
  805MOL0     C 8573   9.881   2.343   5.398  0.0299  0.0678  0.0382
  805MOL0     C 8574   9.757   2.299   5.418  0.7980  0.7786 -0.2624
  805MOL0     O 8575   9.661   2.390   5.388  0.1535 -0.3010  0.5015
  805MOL0     C 8576   9.535   2.335   5.335 -0.7149  0.4836 -0.3586
  805MOL0     C 8577   9.428   2.311   5.439 -0.1620  0.4913 -0.2512
  805MOL0     C 8578   9.293   2.263   5.370 -0.4356 -0.5621 -1.1072
  805MOL0     C 8579   9.193   2.210   5.469  0.1256  0.7224  1.1320
  805MOL0     C 8580   9.055   2.262   5.434  0.1098  1.2324 -0.0115
  805MOL0     C 8581   8.955   2.144   5.461 -0.7406 -0.7594  0.5830
  805MOL0     C 8582   8.810   2.163   5.421 -0.1576  0.4320  0.0552
  805MOL0     C 8583   8.777   2.194   5.274  0.0900  0.0753 -0.6359
  805MOL0    Cl 8584   8.605   2.173   5.244  0.1503 -0.4325 -0.4020
  805MOL0     C 8585   9.738   2.166   5.461  0.4295 -0.4331  0.4671
  805MOL0     C 8586   9.850   2.096   5.499 -0.6767  0.2920  0.3096
  805MOL0     O 8587  10.047   2.043   5.740  0.5767 -0.0669 -0.0799
  805MOL0     C 8588  10.301   1.948   5.789 -0.5013  0.5196  0.8281
  805MOL0     C 8589  10.438   1.916   5.807  0.1310 -0.0456 -0.6849
  805MOL0     N 8590  11.208   2.193   5.845  0.1534  0.0830  0.1572
  805MOL0     N 8591  11.294   2.278   5.800  0.0209 -0.4326  0.7906
  805MOL0     C 8592  11.384   2.619   4.586  1.0460  0.5654  0.6159
  805MOL0     C 8593  11.334   2.624   4.458  0.6838  0.0210  0.4927
  805MOL0     C 8594  11.190   2.596   4.042  0.7964  0.2125  0.3352
  805MOL0     C 8595  11.297   2.523   3.976 -0.1279 -1.0787 -0.2624
  805MOL0     C 8596  11.293   2.514   3.846 -0.4661 -0.0715  0.0618
  805MOL0     C 8597  11.178   2.543   3.768  0.7398  0.2111  0.6726
  805MOL0     O 8598  11.162   2.530   3.633  0.1532 -0.4561 -0.8685
  805MOL0     C 8599  11.243   2.447   3.552 -0.0752  0.3429 -0.4199
  805MOL0     C 8600  11.226   2.489   3.412 -1.3533 -0.1976 -0.4928
  805MOL0     C 8601  11.085   2.478   3.355  0.1350 -0.5060  0.2212
  805MOL0     C 8602  11.082   2.495   3.201 -0.9916  0.6459 -0.1017
  805MOL0     C 8603  11.160   2.611   3.164 -0.3546 -0.5233 -0.7771
  805MOL0     C 8604  11.230   2.709   3.149 -0.8701 -0.8358 -0.0586
  805MOL0     C 8605  11.067   2.594   3.835 -0.6293 -0.0866 -0.5577
  805MOL0     C 8606  11.064   2.615   3.970 -0.3836  0.1741 -0.0364
  805MOL0     C 8607  10.933   2.652   4.033 -0.5815  0.1782  0.7612
  805MOL0     H 8608  11.280   2.300   4.398  1.8289 -0.4193  0.8934
  805MOL0     H 8609  11.311   2.290   4.639 -1.9788  1.0320  2.8369
  805MOL0     H 8610  11.197   2.503   4.854 -0.9367 -2.0988 -0.1383
  805MOL0     H 8611  11.260   2.352   4.857 -0.7316  0.0200 -0.7417
  805MOL0     H 8612  11.360   2.585   5.035  2.2137  0.2583 -0.1327
  805MOL0     H 8613  11.413   2.416   5.047  1.1392  1.4271  1.4417
  805MOL0     H 8614  11.174   2.355   5.095  2.9301 -0.3647  0.2885
  805MOL0     H 8615  11.123   2.524   5.095 -0.5628 -1.4966 -1.7600
  805MOL0     H 8616  11.298   2.571   5.273  0.4861  0.7226 -4.9391
  805MOL0     H 8617  11.149   2.498   5.317  0.7734  2.4046 -1.6667
  805MOL0     H 8618  11.264   2.254   5.270  2.9845 -2.1156 -0.7970
  805MOL0     H 8619  11.410   2.363   5.261 -1.2370 -1.8395 -0.7295
  805MOL0     H 8620  11.355   2.443   5.497 -0.9768 -0.3056 -0.7702
  805MOL0     H 8621  11.231   2.315   5.500 -0.4508 -1.0641 -0.6314
  805MOL0     H 8622  11.535   2.296   5.445 -0.8599  0.8445  0.3420
  805MOL0     H 8623  11.425   2.156   5.459  0.3566 -0.6138  1.0442
  805MOL0     H 8624  11.579   2.203   5.660  2.2742  2.7864 -0.3996
  805MOL0     H 8625  11.508   2.360   5.668  1.1311 -0.2280  0.8397
  805MOL0     H 8626  11.383   1.989   5.657  1.4292  1.0170 -1.9773
  805MOL0     H 8627  11.173   1.861   5.774 -1.5596 -1.8389 -2.5471
  805MOL0     H 8628  11.104   1.946   5.909  0.6409 -2.2579 -0.7977
  805MOL0     H 8629  10.948   2.070   5.746 -2.5120 -1.4297  1.9642
  805MOL0     H 8630  11.039   1.994   5.614 -1.0066  0.0562 -0.2934
  805MOL0     H 8631  10.886   1.843   5.820 -1.6645 -0.5915  0.3683
  805MOL0     H 8632  10.920   1.797   5.643  1.4551  0.6704 -1.0215
  805MOL0     H 8633  10.758   1.893   5.558 -0.2876  0.2320 -1.0906
  805MOL0     H 8634  10.770   2.040   5.663  0.3841  0.6704 -0.2427
  805MOL0     H 8635  10.548   1.953   5.491 -2.8125 -1.9076 -1.5130
  805MOL0     H 8636  10.309   1.977   5.454  1.7082  2.0433 -1.3427
  805MOL0     H 8637  10.083   2.313   5.400  2.6434  0.1076  3.2260
  805MOL0     H 8638   9.885   2.440   5.350  0.0914  0.1795  0.2692
  805MOL0     H 8639   9.496   2.406   5.262 -0.2958  1.8110  0.6517
  805MOL0     H 8640   9.548   2.244   5.275  0.1052  2.6327 -3.6962
  805MOL0     H 8641   9.461   2.234   5.509  1.6854 -3.9228 -5.2636
  805MOL0     H 8642   9.400   2.408   5.482  1.2049  2.4829 -3.4268
  805MOL0     H 8643   9.247   2.341   5.309 -3.0521 -0.6492  0.5828
  805MOL0     H 8644   9.321   2.180   5.305  0.4913 -2.1287  1.1367
  805MOL0     H 8645   9.221   2.234   5.572  1.8489 -2.9858  1.6970
  805MOL0     H 8646   9.200   2.101   5.477 -2.7667  0.5396  2.7041
  805MOL0     H 8647   9.035   2.285   5.329 -0.3391  4.4870  0.6777
  805MOL0     H 8648   9.024   2.352   5.489 -1.8164  0.9755 -0.6069
  805MOL0     H 8649   8.980   2.045   5.421 -0.6837 -0.7161  0.5120
  805MOL0     H 8650   8.961   2.128   5.569  2.2862  0.0906  0.6303
  805MOL0     H 8651   8.777   2.239   5.492  3.0276 -1.0402  3.4667
  805MOL0     H 8652   8.749   2.078   5.451 -0.0456 -0.0634 -1.0736
  805MOL0     H 8653   8.820   2.290   5.246  0.3987  1.2329  3.2643
  805MOL0     H 8654   8.815   2.105   5.222  0.9479 -0.1538  0.3502
  805MOL0     H 8655   9.641   2.121   5.480  0.3479 -0.4290  0.0831
  805MOL0     H 8656   9.826   2.008   5.557  0.0502  1.3490  2.3078
  805MOL0     H 8657  10.237   1.948   5.877 -2.8005 -0.2445 -0.7578
  805MOL0     H 8658  10.469   1.899   5.910 -0.3441  0.3059 -0.4791
  805MOL0     H 8659  11.401   2.703   4.652 -0.5757 -0.2102  2.1198
  805MOL0     H 8660  11.341   2.721   4.410 -0.6501 -1.3446 -2.7820
  805MOL0     H 8661  11.386   2.491   4.029 -0.0349  1.4903  1.3094
  805MOL0     H 8662  11.376   2.461   3.800 -1.7585 -0.1393 -2.3239
  805MOL0     H 8663  11.209   2.345   3.572  0.4025 -0.0683 -1.6128
  805MOL0     H 8664  11.347   2.455   3.587 -0.9339  1.4493  2.1702
  805MOL0     H 8665  11.280   2.417   3.349 -1.2664  1.2566 -2.1431
  805MOL0     H 8666  11.267   2.590   3.403  2.0772 -1.5553 -2.1597
  805MOL0     H 8667  11.018   2.550   3.404  0.5060 -0.0411  0.0564
  805MOL0     H 8668  11.046   2.379   3.383  1.9973 -0.3468  4.0629
  805MOL0     H 8669  11.128   2.410   3.150 -1.6603 -0.4463  1.0550
  805MOL0     H 8670  10.982   2.513   3.161 -0.0952  0.6443 -2.5566
  805MOL0     H 8671  11.298   2.790   3.135  0.7775 -2.1549 -0.1373
  805MOL0     H 8672  10.975   2.612   3.780 -1.6510 -1.0690  0.7554
  805MOL0     H 8673  10.851   2.624   3.967  0.6546 -1.4677 -0.1560
  805MOL0     H 8674  10.928   2.594   4.125  1.7189 -2.2378 -0.4981
  805MOL0     H 8675  10.932   2.762   4.035  0.1328  0.2851 -1.6333
  806MOL0     O 8676  10.395   6.068   7.457 -0.2945  0.4725  0.4180
  806MOL0     C 8677  10.510   6.093   7.418 -0.2161 -0.1464  0.7675
  806MOL0     O 8678  10.622   6.044   7.480  0.1226  0.0688 -0.8144
  806MOL0     C 8679  10.587   5.991   7.599 -0.5148 -1.1871  1.0830
  806MOL0     C 8680  10.573   6.069   7.711  0.0504  0.1905 -0.6380
  806MOL0     C 8681  10.543   6.006   7.832  0.0398  0.6277  0.1584
  806MOL0     C 8682  10.518   5.868   7.842  0.9116 -0.6726  0.2660
  806MOL0     O 8683  10.470   5.820   7.959 -0.4685  0.1430 -0.5209
  806MOL0     C 8684  10.572   5.742   8.029  0.4093  0.1510 -0.6069
  806MOL0     C 8685  10.501   5.682   8.154 -0.1455 -0.0112  0.4074
  806MOL0     C 8686  10.469   5.802   8.251 -0.0768 -0.0098  0.6798
  806MOL0     C 8687  10.414   5.745   8.385  0.0572  0.1688  0.4333
  806MOL0     C 8688  10.359   5.863   8.470  0.1630 -0.8295 -0.5182
  806MOL0     C 8689  10.307   5.815   8.604 -0.0561  0.4031  0.5417
  806MOL0     C 8690  10.180   5.887   8.650 -0.1921 -0.2657 -0.9656
  806MOL0     C 8691  10.056   5.829   8.581 -0.1927  0.2986 -0.1936
  806MOL0     N 8692   9.947   5.926   8.574 -0.3550 -0.5279  0.6051
  806MOL0     C 8693   9.857   5.926   8.475  0.0922  0.0220 -0.4354
  806MOL0     C 8694   9.762   5.994   8.516  0.4004  0.5572  0.4378
  806MOL0     C 8695   9.620   5.997   8.458 -0.9399  0.3925  0.2556
  806MOL0     C 8696   9.585   6.109   8.360  0.0875 -0.7272  0.7622
  806MOL0     C 8697   9.631   6.080   8.220 -0.6522  0.6224  0.3897
  806MOL0     C 8698   9.562   6.170   8.113  1.2352 -0.3079  0.0498
  806MOL0     O 8699   9.426   6.118   8.111  0.0991  0.1582 -0.3611
  806MOL0     C 8700   9.319   6.202   8.082  0.9807 -0.1193  0.7634
  806MOL0     C 8701   9.320   6.309   7.995 -0.0144 -0.0277 -0.3732
  806MOL0     C 8702   9.208   6.398   7.975  1.2640  0.9951  0.3686
  806MOL0     C 8703   9.097   6.390   8.060 -0.4648  0.1076 -0.1645
  806MOL0     C 8704   8.984   6.489   8.037 -0.6181 -0.1687  0.0974
  806MOL0     O 8705   9.026   6.604   7.975  0.1021  0.0715 -0.3356
  806MOL0     C 8706   8.936   6.709   7.955  0.4991 -0.2962 -0.6624
  806MOL0     C 8707   8.793   6.702   7.960 -0.1291  0.3654 -0.1728
  806MOL0     C 8708   8.716   6.802   7.914 -0.8659  0.0175  0.0848
  806MOL0     C 8709   8.778   6.928   7.893 -0.5351  1.0067  0.6401
  806MOL0     O 8710   8.713   7.041   7.856  0.3031  0.4412  0.5726
  806MOL0     C 8711   8.574   7.035   7.852 -0.5637  0.1440 -0.8311
  806MOL0     C 8712   8.512   7.166   7.807  0.5325  1.5122  0.5278
  806MOL0     C 8713   8.565   7.269   7.898  1.0420 -0.0026  1.1135
  806MOL0     C 8714   8.527   7.401   7.830 -0.2825  0.7654  0.1408
  806MOL0     C 8715   8.390   7.449   7.860  0.0373  0.3298 -0.5194
  806MOL0     C 8716   8.365   7.585   7.796 -0.5697  0.3223  0.1622
  806MOL0     C 8717   8.220   7.616   7.826  0.6062 -0.1145 -0.6408
  806MOL0     C 8718   8.167   7.743   7.742 -0.0943 -0.2569 -0.2067
  806MOL0    Cl 8719   8.228   7.876   7.834  0.7759  0.2060 -0.1999
  806MOL0     C 8720   8.923   6.943   7.900 -0.7816  0.5775 -0.5045
  806MOL0     C 8721   9.000   6.828   7.925  0.3681  0.0945  0.0103
  806MOL0     O 8722   8.883   6.462   8.100  0.1906  0.2629  0.3583
  806MOL0     C 8723   9.093   6.270   8.141  0.3163  0.7517  1.1218
  806MOL0     C 8724   9.191   6.180   8.145 -0.7625  0.9356  0.2839
  806MOL0     N 8725   9.783   6.048   8.641 -0.0453  0.1976 -0.3079
  806MOL0     N 8726   9.896   5.997   8.676 -0.6455 -0.8704 -0.8253
  806MOL0     C 8727  10.530   5.792   7.725  0.9271 -0.5947  0.1485
  806MOL0     C 8728  10.569   5.853   7.604  0.3525  0.1551 -0.6633
  806MOL0     C 8729  10.522   6.183   7.305  0.5405 -0.6389  0.0826
  806MOL0     C 8730  10.434   6.168   7.193 -0.2142  0.1840 -0.5767
  806MOL0     C 8731  10.431   6.255   7.082  0.6255 -0.0606  0.0527
  806MOL0     C 8732  10.489   6.387   7.099 -0.1465  0.0527 -0.2024
  806MOL0     O 8733  10.495   6.497   7.007 -0.1670  0.4671  0.1220
  806MOL0     C 8734  10.420   6.475   6.884  0.4784 -0.3745 -1.3928
  806MOL0     C 8735  10.274   6.526   6.883 -0.2944  0.3634  0.2250
  806MOL0     C 8736  10.192   6.480   6.763  0.1042  0.2167 -0.6623
  806MOL0     C 8737  10.061   6.551   6.740  0.5705  0.4009  1.2093
  806MOL0     C 8738   9.996   6.582   6.871 -0.2153 -0.6188  0.4202
  806MOL0     C 8739   9.957   6.600   6.983  0.7362  0.7481  0.0552
  806MOL0     C 8740  10.559   6.408   7.220 -0.5341  0.3719  0.9175
  806MOL0     C 8741  10.587   6.310   7.313 -0.8772 -0.1334 -0.0172
  806MOL0     C 8742  10.658   6.345   7.437 -1.0809  0.1409 -0.1684
  806MOL0     H 8743  10.587   6.176   7.710  3.0682  0.0748  3.4957
  806MOL0     H 8744  10.536   6.066   7.922  2.5797  1.9574 -0.4461
  806MOL0     H 8745  10.590   5.656   7.964 -0.0677 -0.1545 -0.3429
  806MOL0     H 8746  10.659   5.804   8.054 -1.5481  2.5179  0.8052
  806MOL0     H 8747  10.569   5.613   8.206 -0.3953 -0.4088  0.2125
  806MOL0     H 8748  10.420   5.609   8.139  0.1155 -0.0764 -0.7586
  806MOL0     H 8749  10.390   5.856   8.199 -1.6564 -1.9977  0.8758
  806MOL0     H 8750  10.556   5.864   8.272  0.0226 -0.3911  1.4474
  806MOL0     H 8751  10.332   5.677   8.360 -1.5218  1.7821  1.0744
  806MOL0     H 8752  10.488   5.686   8.440  1.2742 -0.3354 -1.6315
  806MOL0     H 8753  10.442   5.932   8.486 -1.1263  1.2111 -2.1660
  806MOL0     H 8754  10.294   5.931   8.414 -0.5418 -1.2110 -0.1788
  806MOL0     H 8755  10.286   5.708   8.605  2.2830 -0.1646 -1.3735
  806MOL0     H 8756  10.387   5.820   8.677  1.5952 -2.1439 -0.9452
  806MOL0     H 8757  10.191   5.994   8.627  2.4331 -0.4681 -0.9185
  806MOL0     H 8758  10.166   5.877   8.758 -0.9358  0.8204 -0.9404
  806MOL0     H 8759  10.084   5.788   8.484  1.4878  0.9035 -0.0068
  806MOL0     H 8760  10.014   5.756   8.651  2.1986 -2.0067 -0.9816
  806MOL0     H 8761   9.854   5.868   8.384  2.0893 -1.2298  0.2372
  806MOL0     H 8762   9.597   5.900   8.414 -1.2904  1.0189 -0.9931
  806MOL0     H 8763   9.552   6.021   8.540 -0.8424  2.3902 -0.1952
  806MOL0     H 8764   9.477   6.115   8.352  0.1645  0.1681  0.3282
  806MOL0     H 8765   9.623   6.207   8.389 -0.3605 -0.7667  1.4967
  806MOL0     H 8766   9.613   5.975   8.193 -1.0795  0.9498 -0.6596
  806MOL0     H 8767   9.738   6.097   8.213  0.0264 -3.1222 -0.6168
  806MOL0     H 8768   9.620   6.155   8.022  0.9534  0.0802 -0.1978
  806MOL0     H 8769   9.570   6.275   8.144  0.2443 -0.3967  0.6720
  806MOL0     H 8770   9.408   6.333   7.937  0.2020 -1.5532 -0.7048
  806MOL0     H 8771   9.209   6.486   7.911 -0.4394  0.1929 -0.8476
  806MOL0     H 8772   8.750   6.605   7.986 -2.1730  0.6979 -2.0022
  806MOL0     H 8773   8.608   6.800   7.903 -0.7790 -0.3273 -0.7214
  806MOL0     H 8774   8.544   6.956   7.781  0.0601  0.8483 -1.9069
  806MOL0     H 8775   8.533   7.006   7.949 -2.3738 -3.6391 -2.4957
  806MOL0     H 8776   8.529   7.198   7.704 -0.8990  3.7360  0.9118
  806MOL0     H 8777   8.403   7.160   7.820  0.1533 -0.5752 -2.4913
  806MOL0     H 8778   8.524   7.262   8.000  1.8048  1.7203  1.5814
  806MOL0     H 8779   8.674   7.277   7.902  0.9985  0.3608  1.7656
  806MOL0     H 8780   8.533   7.397   7.721 -0.4205 -1.8336  0.1714
  806MOL0     H 8781   8.590   7.482   7.868 -1.6490  0.9238  2.2410
  806MOL0     H 8782   8.374   7.454   7.968  1.4715  0.4068 -0.2913
  806MOL0     H 8783   8.323   7.376   7.815 -0.8415 -1.1278  2.8111
  806MOL0     H 8784   8.429   7.665   7.834 -0.6710  0.0942  0.8311
  806MOL0     H 8785   8.389   7.584   7.689 -1.6346 -2.8810 -0.1483
  806MOL0     H 8786   8.196   7.644   7.929 -0.9956  0.5298 -1.1542
  806MOL0     H 8787   8.161   7.527   7.802  3.1038 -1.9227 -0.3992
  806MOL0     H 8788   8.202   7.727   7.640 -1.3793 -1.7627 -0.4394
  806MOL0     H 8789   8.058   7.744   7.748 -0.3855 -2.5812 -3.0705
  806MOL0     H 8790   8.959   7.043   7.880  0.6980  0.5775  1.7631
  806MOL0     H 8791   9.106   6.839   7.907  0.1481  1.5446 -0.5636
  806MOL0     H 8792   9.011   6.253   8.209  0.8895  2.7815  2.4172
  806MOL0     H 8793   9.192   6.103   8.222  1.4378 -1.2673 -1.7625
  806MOL0     H 8794  10.512   5.686   7.734  0.2693 -0.5517 -0.5866
  806MOL0     H 8795  10.574   5.802   7.508  0.7204  0.5220 -0.8489
  806MOL0     H 8796  10.369   6.082   7.202 -0.0618 -0.0020 -1.1868
  806MOL0     H 8797  10.366   6.237   6.997 -0.2178  1.4507  0.3411
  806MOL0     H 8798  10.401   6.369   6.865  0.4344 -0.8133  0.8174
  806MOL0     H 8799  10.485   6.515   6.806  0.1899 -1.0458 -1.9877
  806MOL0     H 8800  10.273   6.635   6.872  2.3910  0.4810  0.5284
  806MOL0     H 8801  10.235   6.487   6.977  0.5522 -1.9938 -0.3374
  806MOL0     H 8802  10.180   6.372   6.770  1.7838  0.1004  1.8525
  806MOL0     H 8803  10.258   6.490   6.676  1.2482  2.4045  0.3700
  806MOL0     H 8804  10.082   6.638   6.677  0.3363 -2.8019 -3.8669
  806MOL0     H 8805   9.990   6.484   6.691 -0.8610  2.7019 -0.0040
  806MOL0     H 8806   9.920   6.601   7.084  1.6339  1.1773  0.3907
  806MOL0     H 8807  10.603   6.507   7.205  0.1120 -0.3967 -4.2048
  806MOL0     H 8808  10.587   6.359   7.520 -1.2833  0.8640 -0.4587
  806MOL0     H 8809  10.726   6.265   7.470 -1.1433  0.2498  0.2286
  806MOL0     H 8810  10.713   6.437   7.419  0.5946 -0.9085 -0.6511
  807MOL0     O 8811   4.206  11.420   8.598 -0.9490 -0.0624  0.8193
  807MOL0     C 8812   4.324  11.431   8.608 -0.1393  0.6113  0.0446
  807MOL0     O 8813   4.397  11.416   8.715  0.1195  0.4249 -0.4564
  807MOL0     C 8814   4.343  11.411   8.840  0.4892 -0.2979  0.7191
  807MOL0     C 8815   4.225  11.342   8.871  0.2048  0.4601  0.6016
  807MOL0     C 8816   4.164  11.334   8.995 -0.4361  0.4805  0.4150
  807MOL0     C 8817   4.232  11.392   9.102 -0.1949 -0.1104  0.1527
  807MOL0     O 8818   4.194  11.382   9.234  0.1013 -1.1976 -0.5863
  807MOL0     C 8819   4.088  11.282   9.283 -0.1751 -0.5150  1.2144
  807MOL0     C 8820   4.110  11.225   9.417 -0.2497 -1.1800 -0.5822
  807MOL0     C 8821   4.094  11.337   9.519 -0.4141  0.9289  0.3856
  807MOL0     C 8822   3.996  11.301   9.630  1.1318  0.1467 -0.0048
  807MOL0     C 8823   3.966  11.415   9.710  0.6098 -0.6227 -0.1543
  807MOL0     C 8824   3.894  11.380   9.837  0.6398 -0.1507  0.6448
  807MOL0     C 8825   3.751  11.328   9.824 -0.9871  0.0888  0.6797
  807MOL0     C 8826   3.689  11.327   9.963  0.2386  0.3324  0.2561
  807MOL0     N 8827   3.550  11.352   9.933 -0.3500 -0.0562 -0.4974
  807MOL0     C 8828   3.456  11.256   9.910  0.9658  0.2351  0.1087
  807MOL0     C 8829   3.364  11.327   9.832 -0.1511  1.4601 -0.3367
  807MOL0     C 8830   3.240  11.266   9.773  0.0978  0.5641  0.1898
  807MOL0     C 8831   3.134  11.244   9.881 -0.0886 -0.0658 -0.2601
  807MOL0     C 8832   3.056  11.368   9.908 -0.0955 -0.8326 -0.1982
  807MOL0     C 8833   2.948  11.405   9.796  0.1460 -0.6452  0.7152
  807MOL0     O 8834   2.834  11.317   9.831 -0.4911 -0.5021 -0.1910
  807MOL0     C 8835   2.707  11.335   9.775 -0.9353  0.4042 -1.0780
  807MOL0     C 8836   2.595  11.274   9.830  0.9906 -0.8098 -0.2745
  807MOL0     C 8837   2.470  11.263   9.769  0.1701 -1.4460 -1.0083
  807MOL0     C 8838   2.456  11.344   9.647 -0.2581 -0.1904  0.2184
  807MOL0     C 8839   2.322  11.352   9.584  0.2709 -0.0238 -0.6256
  807MOL0     O 8840   2.226  11.266   9.609 -0.1989 -0.1133 -0.4758
  807MOL0     C 8841   2.101  11.277   9.556 -0.0891 -0.7166 -0.7768
  807MOL0     C 8842   2.013  11.389   9.580  0.4657 -1.0172 -0.1944
  807MOL0     C 8843   1.890  11.393   9.512  0.9808 -1.3331  0.2386
  807MOL0     C 8844   1.862  11.294   9.412  0.3582 -0.5228 -0.9626
  807MOL0     O 8845   1.758  11.305   9.331  0.4810  0.0989 -0.1156
  807MOL0     C 8846   1.627  11.311   9.385 -0.1222  0.8451  0.2938
  807MOL0     C 8847   1.546  11.298   9.254 -0.3395  0.3598 -0.5480
  807MOL0     C 8848   1.595  11.181   9.159 -0.3054 -0.9668 -0.1198
  807MOL0     C 8849   1.476  11.124   9.086 -1.2864  0.4022  0.4406
  807MOL0     C 8850   1.436  11.202   8.958 -0.2834 -0.1585 -0.1413
  807MOL0     C 8851   1.325  11.130   8.882  0.6312 -0.1855 -0.2445
  807MOL0     C 8852   1.386  11.033   8.780 -0.1837  0.4423  0.5095
  807MOL0     C 8853   1.446  11.105   8.659  0.8538 -0.9994  0.0300
  807MOL0    Cl 8854   1.558  10.997   8.587  0.5344 -0.6962  0.3468
  807MOL0     C 8855   1.944  11.185   9.398  0.0122  0.2707 -0.6346
  807MOL0     C 8856   2.066  11.168   9.474  1.0001 -0.1614 -0.4345
  807MOL0     O 8857   2.313  11.449   9.513 -0.1510 -0.5526  0.0802
  807MOL0     C 8858   2.559  11.422   9.597 -0.5057  0.1480 -0.9633
  807MOL0     C 8859   2.684  11.413   9.666 -0.8771  0.6352  0.0400
  807MOL0     N 8860   3.392  11.463   9.830 -0.7413 -0.2565 -0.4852
  807MOL0     N 8861   3.510  11.474   9.887 -0.4566  0.4171  0.3353
  807MOL0     C 8862   4.335  11.474   9.075 -0.3222  0.2390 -0.6108
  807MOL0     C 8863   4.394  11.482   8.944  0.3408 -0.5290  0.1949
  807MOL0     C 8864   4.398  11.440   8.482 -0.3037 -0.1547 -0.2685
  807MOL0     C 8865   4.537  11.431   8.490 -0.1363  0.1682  0.4648
  807MOL0     C 8866   4.613  11.454   8.378  0.7594  0.4317  0.4343
  807MOL0     C 8867   4.552  11.469   8.246  1.2081 -0.1067 -0.5085
  807MOL0     O 8868   4.623  11.502   8.135  0.6135  0.0433 -0.1686
  807MOL0     C 8869   4.768  11.472   8.127 -0.6095 -0.2019 -1.1962
  807MOL0     C 8870   4.820  11.499   7.988 -0.2288 -0.4009  0.2626
  807MOL0     C 8871   4.760  11.416   7.877  0.6787  0.0708 -0.6907
  807MOL0     C 8872   4.770  11.266   7.899 -0.5582  0.4267  0.8439
  807MOL0     C 8873   4.916  11.235   7.917 -0.0922  0.6664  0.4770
  807MOL0     C 8874   5.032  11.200   7.920 -0.4490  1.0267  0.1156
  807MOL0     C 8875   4.412  11.479   8.241  0.1434  0.3814 -0.0268
  807MOL0     C 8876   4.341  11.473   8.355 -0.3514 -0.3212 -0.3979
  807MOL0     C 8877   4.184  11.494   8.335 -0.7855  0.4835  0.9343
  807MOL0     H 8878   4.192  11.275   8.791  0.7364  1.2785 -0.3290
  807MOL0     H 8879   4.074  11.272   9.003 -2.3995  2.9897 -0.8240
  807MOL0     H 8880   3.987  11.324   9.280 -1.0238 -2.4812 -0.7720
  807MOL0     H 8881   4.090  11.188   9.229 -0.2020 -0.0727  0.4311
  807MOL0     H 8882   4.212  11.190   9.437  0.0832  0.0630 -0.0017
  807MOL0     H 8883   4.043  11.141   9.437  2.7312 -2.8283  4.2548
  807MOL0     H 8884   4.052  11.427   9.474  0.8514  2.3169  1.8746
  807MOL0     H 8885   4.192  11.350   9.565 -0.3899  0.3171  0.5241
  807MOL0     H 8886   3.902  11.256   9.595 -0.5348  1.5738  2.3529
  807MOL0     H 8887   4.043  11.223   9.690  3.1957  0.7007 -0.8159
  807MOL0     H 8888   4.056  11.466   9.744 -0.1890 -0.5182  1.9304
  807MOL0     H 8889   3.903  11.491   9.661  0.9849 -1.0682 -1.3717
  807MOL0     H 8890   3.959  11.311   9.893  3.5140  1.9614  0.1267
  807MOL0     H 8891   3.891  11.469   9.900  0.8745  0.1224  0.2741
  807MOL0     H 8892   3.743  11.236   9.767  0.8118 -0.2945  1.0021
  807MOL0     H 8893   3.711  11.414   9.769  0.4848  0.1992 -0.2419
  807MOL0     H 8894   3.698  11.227  10.006 -1.5116 -1.3898 -3.0124
  807MOL0     H 8895   3.722  11.401  10.037 -0.6248  0.9611  0.0377
  807MOL0     H 8896   3.455  11.148   9.923  0.4353 -0.2702 -3.2160
  807MOL0     H 8897   3.196  11.319   9.688 -1.6565 -1.1464 -0.0329
  807MOL0     H 8898   3.264  11.163   9.746 -0.5964  0.8839 -1.7934
  807MOL0     H 8899   3.062  11.167   9.850 -2.5026  0.6134  3.0396
  807MOL0     H 8900   3.178  11.213   9.976 -1.8341 -0.2994  0.5285
  807MOL0     H 8901   3.129  11.448   9.921 -0.4705 -0.6692  1.0091
  807MOL0     H 8902   3.001  11.357  10.002 -3.2373  3.4250 -1.2314
  807MOL0     H 8903   2.980  11.381   9.694 -2.9805 -1.8169 -0.1078
  807MOL0     H 8904   2.923  11.511   9.806 -1.4300 -1.0393  1.2817
  807MOL0     H 8905   2.602  11.223   9.925  1.7425  1.8005  1.1791
  807MOL0     H 8906   2.388  11.217   9.824 -1.1049  1.7101 -0.0602
  807MOL0     H 8907   2.032  11.472   9.647 -0.8197  1.4126 -2.6334
  807MOL0     H 8908   1.832  11.483   9.529  0.8492 -1.2828 -0.4460
  807MOL0     H 8909   1.607  11.215   9.434 -0.7195  0.0136 -1.4821
  807MOL0     H 8910   1.609  11.402   9.441  2.3274  1.5979 -0.0099
  807MOL0     H 8911   1.447  11.275   9.294  0.6048 -0.8319  1.2422
  807MOL0     H 8912   1.534  11.394   9.203 -5.0793 -0.2276 -0.9654
  807MOL0     H 8913   1.679  11.210   9.095 -0.1506 -0.7659  0.1728
  807MOL0     H 8914   1.642  11.102   9.219 -1.8766 -1.8138  0.0382
  807MOL0     H 8915   1.391  11.118   9.155 -2.3730 -2.1623 -0.9748
  807MOL0     H 8916   1.494  11.021   9.052 -4.1239 -0.8302  2.2694
  807MOL0     H 8917   1.530  11.217   8.904  0.7605  0.3203  1.7158
  807MOL0     H 8918   1.397  11.295   9.000 -0.7934 -0.7679  0.7688
  807MOL0     H 8919   1.266  11.069   8.951  1.0679  0.2899  0.5613
  807MOL0     H 8920   1.267  11.213   8.840 -1.4861 -0.3083  2.1748
  807MOL0     H 8921   1.307  10.977   8.729  0.0066  1.3573 -0.8367
  807MOL0     H 8922   1.460  10.973   8.835  0.2846  1.6281  1.2149
  807MOL0     H 8923   1.372  11.135   8.584  1.1023  0.6224  0.4027
  807MOL0     H 8924   1.498  11.189   8.706  2.9303 -3.6354  2.8261
  807MOL0     H 8925   1.917  11.118   9.317  3.2772  1.1331 -2.6172
  807MOL0     H 8926   2.142  11.096   9.447  1.6530 -1.0062  3.2431
  807MOL0     H 8927   2.555  11.469   9.499  0.3519  0.3907 -0.8928
  807MOL0     H 8928   2.767  11.464   9.619 -1.7565  1.7969 -0.3114
  807MOL0     H 8929   4.371  11.540   9.153 -0.3568 -1.0041  0.4786
  807MOL0     H 8930   4.473  11.551   8.919 -0.3224 -0.9739 -3.8375
  807MOL0     H 8931   4.595  11.410   8.580 -2.4526 -2.1014  1.5710
  807MOL0     H 8932   4.722  11.462   8.377  1.0111 -1.8267 -1.5724
  807MOL0     H 8933   4.787  11.367   8.152 -1.5687 -0.4045 -1.2876
  807MOL0     H 8934   4.815  11.544   8.195 -2.0416  1.5912 -2.0358
  807MOL0     H 8935   4.929  11.497   7.980 -0.1796 -0.4947  0.8765
  807MOL0     H 8936   4.798  11.605   7.972  0.2747 -0.2949  0.2585
  807MOL0     H 8937   4.791  11.447   7.776 -3.9041 -0.5974 -2.5608
  807MOL0     H 8938   4.654  11.443   7.874  0.6614  0.0691 -0.0935
  807MOL0     H 8939   4.711  11.219   7.979  0.7344 -0.8759  1.0902
  807MOL0     H 8940   4.743  11.200   7.816  0.3030 -0.6494  1.3935
  807MOL0     H 8941   5.134  11.166   7.919 -0.4471  1.0256 -0.9738
  807MOL0     H 8942   4.359  11.518   8.155 -0.9320  1.4693  1.1068
  807MOL0     H 8943   4.128  11.404   8.362 -0.5066 -0.3537 -1.1224
  807MOL0     H 8944   4.153  11.573   8.404  0.9850  0.4260  1.8803
  807MOL0     H 8945   4.163  11.517   8.230 -2.2694 -2.8135  0.3972
  808MOL0     O 8946  10.230   2.901   8.837 -0.1428 -0.6439 -0.0486
  808MOL0     C 8947  10.216   2.902   8.717 -0.4639  0.4314  0.6352
  808MOL0     O 8948  10.215   3.003   8.633  0.8861  0.2346 -0.0230
  808MOL0     C 8949  10.236   3.129   8.679 -0.5621  1.1416 -0.5288
  808MOL0     C 8950  10.230   3.183   8.805 -0.3643 -1.1417  0.3570
  808MOL0     C 8951  10.231   3.327   8.831 -0.2876  0.0268  0.0687
  808MOL0     C 8952  10.252   3.415   8.725 -0.2817 -0.1327 -0.3766
  808MOL0     O 8953  10.280   3.546   8.741  0.1041  0.0995 -0.0009
  808MOL0     C 8954  10.201   3.623   8.822  0.1966 -0.3318 -0.3675
  808MOL0     C 8955  10.256   3.765   8.839  0.3843 -0.1254 -0.8068
  808MOL0     C 8956  10.209   3.877   8.738 -0.1938  0.1357 -0.0616
  808MOL0     C 8957  10.059   3.871   8.690 -0.2514 -0.2414  0.3113
  808MOL0     C 8958  10.040   3.991   8.586 -0.2156 -0.3567  0.3263
  808MOL0     C 8959   9.910   3.967   8.510  0.3235  1.3036 -0.6669
  808MOL0     C 8960   9.892   4.070   8.400  0.5739  0.0323 -0.4434
  808MOL0     C 8961   9.735   4.086   8.367 -0.1682 -0.0540 -0.8169
  808MOL0     N 8962   9.687   3.957   8.311  0.0268  0.3680  0.1552
  808MOL0     C 8963   9.734   3.902   8.186 -0.3320  0.4150  0.6913
  808MOL0     C 8964   9.668   3.778   8.179 -0.5185 -0.4502  0.3391
  808MOL0     C 8965   9.690   3.683   8.065  0.1170 -0.8417  0.3437
  808MOL0     C 8966   9.571   3.599   8.030  0.1606 -0.6127 -0.5279
  808MOL0     C 8967   9.446   3.677   7.975  0.6043  0.8502 -0.0264
  808MOL0     C 8968   9.330   3.577   8.010  0.3833  0.2048  0.6680
  808MOL0     O 8969   9.232   3.590   7.902  0.8751 -0.0566  0.0695
  808MOL0     C 8970   9.133   3.694   7.920 -0.3171 -0.1219  1.3054
  808MOL0     C 8971   9.037   3.703   7.816  0.1941  0.6241 -0.3979
  808MOL0     C 8972   8.920   3.777   7.827  0.2971 -0.3405  0.4627
  808MOL0     C 8973   8.904   3.868   7.942 -0.5151  0.4326 -0.5666
  808MOL0     C 8974   8.792   3.961   7.949 -1.1535 -0.0884 -0.3038
  808MOL0     O 8975   8.796   4.061   8.046 -0.0957  0.2011  0.6287
  808MOL0     C 8976   8.677   4.129   8.051 -0.5607  0.8451 -1.1993
  808MOL0     C 8977   8.663   4.257   8.009  0.7591  0.2169  0.3173
  808MOL0     C 8978   8.538   4.323   8.002 -0.7936 -0.2888 -0.6392
  808MOL0     C 8979   8.435   4.266   8.064  0.4776  0.9565  0.8503
  808MOL0     O 8980   8.317   4.329   8.090 -0.5636 -0.2135  0.8733
  808MOL0     C 8981   8.295   4.455   8.027 -0.1666 -0.2883  0.2385
  808MOL0     C 8982   8.160   4.501   8.044  0.7335 -0.5971 -0.6005
  808MOL0     C 8983   8.142   4.654   8.003 -0.2363 -0.0675 -0.0377
  808MOL0     C 8984   7.998   4.696   8.035 -0.2803  0.1923 -0.3683
  808MOL0     C 8985   7.970   4.849   8.016 -0.3786  0.5555 -0.4271
  808MOL0     C 8986   7.995   4.932   8.133  0.6245 -0.4527 -0.6680
  808MOL0     C 8987   7.970   5.076   8.094  0.8557 -0.4327  0.4982
  808MOL0     C 8988   7.964   5.162   8.228  0.0293  0.3974 -1.0729
  808MOL0    Cl 8989   8.106   5.146   8.341 -0.0167 -0.1630  0.1282
  808MOL0     C 8990   8.448   4.140   8.128  0.0112  0.0510 -0.7370
  808MOL0     C 8991   8.565   4.062   8.104 -0.4959 -1.3258  0.1223
  808MOL0     O 8992   8.699   3.945   7.867 -0.2254 -0.0110 -0.1246
  808MOL0     C 8993   9.005   3.865   8.035  0.1196 -1.1965 -0.1994
  808MOL0     C 8994   9.115   3.774   8.030 -0.2636 -0.4741  0.4763
  808MOL0     N 8995   9.576   3.774   8.285  0.1166 -0.0180 -0.0324
  808MOL0     N 8996   9.590   3.879   8.362 -0.1394  0.0621 -0.5675
  808MOL0     C 8997  10.280   3.357   8.596 -0.0106  0.0504 -0.4894
  808MOL0     C 8998  10.269   3.218   8.578  0.5069 -0.2394 -0.6116
  808MOL0     C 8999  10.242   2.773   8.663 -0.7630  0.0368  1.0383
  808MOL0     C 9000  10.331   2.677   8.726 -0.2069  0.6495  0.8656
  808MOL0     C 9001  10.339   2.547   8.680  0.1071 -0.1196  2.1318
  808MOL0     C 9002  10.281   2.502   8.566 -0.2707  0.6411 -0.9316
  808MOL0     O 9003  10.297   2.375   8.505  0.6330  0.0415  0.1417
  808MOL0     C 9004  10.379   2.266   8.550 -0.1278  0.8162 -0.9251
  808MOL0     C 9005  10.529   2.280   8.494 -0.6211  0.0110 -1.0724
  808MOL0     C 9006  10.541   2.316   8.343 -0.4273  0.1216  0.0077
  808MOL0     C 9007  10.664   2.253   8.270 -1.0844  0.6393 -0.2243
  808MOL0     C 9008  10.691   2.296   8.132  0.0436 -1.3415  0.0965
  808MOL0     C 9009  10.703   2.319   8.012  0.3526  0.2522 -0.2195
  808MOL0     C 9010  10.206   2.596   8.489  0.3938  0.0362 -1.8529
  808MOL0     C 9011  10.183   2.729   8.538 -0.5651  0.6955 -0.0177
  808MOL0     C 9012  10.081   2.812   8.461 -0.4245  0.6355  0.4596
  808MOL0     H 9013  10.209   3.126   8.895 -0.9224 -2.3401 -0.5088
  808MOL0     H 9014  10.221   3.353   8.936  1.4062 -0.5177  0.3881
  808MOL0     H 9015  10.096   3.624   8.792  0.3775  0.2729 -1.0290
  808MOL0     H 9016  10.207   3.577   8.921  1.0875 -0.0310 -0.2644
  808MOL0     H 9017  10.364   3.765   8.855  0.1284 -1.8598  1.3776
  808MOL0     H 9018  10.212   3.784   8.938 -1.0303  2.0229 -1.7560
  808MOL0     H 9019  10.280   3.887   8.655  1.5069  1.3830  1.4446
  808MOL0     H 9020  10.227   3.972   8.789  0.1181 -1.9159  4.1028
  808MOL0     H 9021  10.053   3.778   8.633  1.5466 -1.0777  1.4090
  808MOL0     H 9022  10.000   3.881   8.782  3.6881  0.2559  3.0173
  808MOL0     H 9023  10.041   4.088   8.637  0.1057  0.6073 -1.4382
  808MOL0     H 9024  10.117   3.988   8.508 -1.5660 -3.5951 -1.0561
  808MOL0     H 9025   9.917   3.868   8.465 -0.6843 -0.4095  2.6589
  808MOL0     H 9026   9.819   3.963   8.571  0.5475  3.0393 -0.1461
  808MOL0     H 9027   9.945   4.053   8.306 -0.9118  1.7532 -1.6696
  808MOL0     H 9028   9.928   4.167   8.434  1.3502 -0.3952 -0.0118
  808MOL0     H 9029   9.681   4.115   8.458  2.6524 -1.1930  1.3758
  808MOL0     H 9030   9.723   4.166   8.294  1.7452  0.5215 -0.5599
  808MOL0     H 9031   9.792   3.954   8.110  1.4032 -1.7028  0.4471
  808MOL0     H 9032   9.721   3.752   7.986 -0.9872 -0.5799  0.1223
  808MOL0     H 9033   9.767   3.608   8.089  1.9668  0.5615 -0.8775
  808MOL0     H 9034   9.612   3.549   7.942  1.5715 -0.2655 -0.0948
  808MOL0     H 9035   9.553   3.524   8.107 -1.2926  0.2121 -0.0121
  808MOL0     H 9036   9.440   3.686   7.866  1.7105 -0.9993 -0.2830
  808MOL0     H 9037   9.433   3.780   8.010  0.7395  0.9561 -0.2827
  808MOL0     H 9038   9.306   3.597   8.115  3.8451 -3.7220  2.4819
  808MOL0     H 9039   9.373   3.476   8.009 -0.8715 -0.3881 -2.1080
  808MOL0     H 9040   9.050   3.640   7.728  0.5660 -2.2327  1.5456
  808MOL0     H 9041   8.849   3.771   7.746 -0.6605  1.0912  1.1485
  808MOL0     H 9042   8.750   4.305   7.966 -1.1674  2.3982 -1.4004
  808MOL0     H 9043   8.549   4.424   7.964  2.7766 -0.9071 -1.6646
  808MOL0     H 9044   8.371   4.531   8.048 -0.7485  0.4178 -0.1849
  808MOL0     H 9045   8.304   4.435   7.919  0.2046 -1.4975  0.4739
  808MOL0     H 9046   8.095   4.430   7.991 -0.8008  0.7890 -0.6598
  808MOL0     H 9047   8.108   4.503   8.140 -1.5598 -0.5839 -1.7568
  808MOL0     H 9048   8.214   4.717   8.057  0.2987  0.5364 -1.4069
  808MOL0     H 9049   8.155   4.670   7.896 -4.1603  1.7614 -0.3936
  808MOL0     H 9050   7.960   4.665   8.133 -0.7056 -1.9767 -1.1506
  808MOL0     H 9051   7.934   4.636   7.970  1.9797 -2.3172 -0.4593
  808MOL0     H 9052   7.865   4.853   7.987 -0.2774 -3.0475 -1.8276
  808MOL0     H 9053   8.025   4.888   7.930  0.3323 -2.7909 -1.6651
  808MOL0     H 9054   7.918   4.905   8.205 -0.7313 -0.6616 -2.1195
  808MOL0     H 9055   8.097   4.903   8.160  0.2527 -0.8912  0.2800
  808MOL0     H 9056   7.876   5.090   8.040  2.1983 -1.7036 -2.3901
  808MOL0     H 9057   8.047   5.109   8.024 -1.5556 -1.4256 -2.8619
  808MOL0     H 9058   7.960   5.268   8.201 -0.1920  0.9908  1.1541
  808MOL0     H 9059   7.880   5.136   8.292 -0.1967 -1.1675 -1.9725
  808MOL0     H 9060   8.368   4.092   8.184  1.4349  1.5005  2.8163
  808MOL0     H 9061   8.582   3.965   8.150  1.0632  0.0159  2.5248
  808MOL0     H 9062   8.978   3.926   8.120 -2.4423 -1.8487 -0.4557
  808MOL0     H 9063   9.170   3.758   8.123 -1.9654 -2.3963  1.2229
  808MOL0     H 9064  10.308   3.412   8.507 -1.5508 -2.2604 -2.5549
  808MOL0     H 9065  10.280   3.181   8.477  0.5318  0.8932 -1.0456
  808MOL0     H 9066  10.401   2.692   8.808  2.2501 -4.5437  0.1675
  808MOL0     H 9067  10.424   2.492   8.721  2.1066  0.8327 -0.4443
  808MOL0     H 9068  10.326   2.175   8.521 -1.5563  0.4388  2.4764
  808MOL0     H 9069  10.378   2.271   8.659  0.3104 -2.1045 -0.7071
  808MOL0     H 9070  10.572   2.182   8.516 -0.6122 -0.3187 -2.4278
  808MOL0     H 9071  10.582   2.347   8.562 -3.0077  1.5561 -0.6083
  808MOL0     H 9072  10.542   2.424   8.328 -0.7462 -0.2886 -4.1320
  808MOL0     H 9073  10.451   2.275   8.295  0.9633 -2.8425 -0.2861
  808MOL0     H 9074  10.751   2.262   8.336 -1.8823 -0.0490  0.9708
  808MOL0     H 9075  10.638   2.146   8.271 -0.1678  0.3385 -2.6998
  808MOL0     H 9076  10.720   2.338   7.908  0.9819 -2.6357 -0.7219
  808MOL0     H 9077  10.152   2.572   8.398 -2.0794  1.1705 -0.7772
  808MOL0     H 9078  10.049   2.905   8.508  0.0034  3.3556 -4.0419
  808MOL0     H 9079  10.117   2.847   8.364  0.0493 -0.4348  0.2309
  808MOL0     H 9080   9.992   2.749   8.455  0.5726 -0.7297 -0.7518
  809MOL0     O 9081   1.272  10.031   6.821 -0.0892  0.5112  0.1911
  809MOL0     C 9082   1.254  10.118   6.904 -0.3460 -0.7596  0.8981
  809MOL0     O 9083   1.196  10.243   6.877  0.1660  0.2188 -0.0302
  809MOL0     C 9084   1.111  10.261   6.768 -0.0700 -0.5163  0.4135
  809MOL0     C 9085   0.990  10.311   6.799  0.9152 -0.4088 -0.5443
  809MOL0     C 9086   0.897  10.363   6.702 -0.0163 -0.0822 -0.3615
  809MOL0     C 9087   0.924  10.343   6.565 -0.0524  0.3191 -0.6079
  809MOL0     O 9088   0.842  10.374   6.459 -0.7322  0.6129  0.6567
  809MOL0     C 9089   0.746  10.483   6.467  1.0493 -0.2997 -0.3412
  809MOL0     C 9090   0.673  10.482   6.328  0.3184 -0.0784 -0.3829
  809MOL0     C 9091   0.550  10.569   6.331  0.2252 -0.0541  0.2854
  809MOL0     C 9092   0.474  10.567   6.201 -0.4925 -0.6123  0.3796
  809MOL0     C 9093   0.357  10.656   6.196  0.1969  0.2286  0.2615
  809MOL0     C 9094   0.275  10.647   6.064  0.1132 -0.2024  0.1571
  809MOL0     C 9095   0.233  10.781   6.016 -0.0215  0.3964  1.8250
  809MOL0     C 9096   0.136  10.853   6.115 -0.5418 -1.0663 -0.1546
  809MOL0     N 9097   0.152  11.001   6.109  0.8161 -0.5792 -0.4144
  809MOL0     C 9098   0.236  11.079   6.183  0.1600 -0.6762  0.6104
  809MOL0     C 9099   0.214  11.205   6.135  0.2553  0.8029  1.1602
  809MOL0     C 9100   0.298  11.326   6.173  0.7379  0.1522  0.1148
  809MOL0     C 9101   0.418  11.319   6.071  0.2123 -0.0568 -0.3177
  809MOL0     C 9102   0.373  11.345   5.923 -0.2474 -0.8724 -0.7075
  809MOL0     C 9103   0.401  11.492   5.878 -0.3968  0.6132  0.4901
  809MOL0     O 9104   0.540  11.526   5.905  0.6640 -0.0640 -0.5198
  809MOL0     C 9105   0.569  11.666   5.886 -0.0025 -0.7960 -1.4956
  809MOL0     C 9106   0.654  11.711   5.987  1.1583 -0.0905 -0.6176
  809MOL0     C 9107   0.706  11.844   5.979 -0.3329  0.5754 -0.2471
  809MOL0     C 9108   0.654  11.941   5.889 -0.4276  0.0090  0.8177
  809MOL0     C 9109   0.685  12.080   5.890 -0.6722 -0.3062  1.0569
  809MOL0     O 9110   0.637  12.161   5.794  0.0017  0.4590  0.5925
  809MOL0     C 9111   0.614  12.291   5.826 -0.1483  0.3075 -0.7371
  809MOL0     C 9112   0.557  12.340   5.946 -0.1251  0.1057 -0.0641
  809MOL0     C 9113   0.530  12.470   5.962  0.4278 -0.6298 -0.0587
  809MOL0     C 9114   0.567  12.561   5.865 -0.9287  0.4250  0.1315
  809MOL0     O 9115   0.537  12.690   5.898 -0.4150 -0.4583  0.2858
  809MOL0     C 9116   0.591  12.794   5.825 -0.3480 -0.1226  0.1545
  809MOL0     C 9117   0.562  12.927   5.889  0.1089  0.6687 -0.2853
  809MOL0     C 9118   0.676  12.989   5.956  0.2808  0.1352  0.1220
  809MOL0     C 9119   0.639  13.126   6.016 -0.3490 -0.1327 -0.5002
  809MOL0     C 9120   0.765  13.182   6.092  0.4864 -0.6173  0.7121
  809MOL0     C 9121   0.758  13.322   6.134  0.4317  0.3195  0.0240
  809MOL0     C 9122   0.882  13.369   6.209  0.0631  0.4583  0.2889
  809MOL0     C 9123   0.879  13.523   6.238  0.0816  0.5753 -0.3727
  809MOL0    Cl 9124   0.917  13.621   6.102 -0.1924  0.3825 -0.3342
  809MOL0     C 9125   0.618  12.517   5.737  0.6549  0.3786  0.7163
  809MOL0     C 9126   0.641  12.381   5.727  0.9020 -0.0633  0.4142
  809MOL0     O 9127   0.753  12.119   5.986  0.1691  0.2899  0.9819
  809MOL0     C 9128   0.568  11.897   5.787  0.2328 -0.3295  0.0215
  809MOL0     C 9129   0.528  11.761   5.785 -0.0153  0.4800  0.8724
  809MOL0     N 9130   0.109  11.196   6.042 -0.1346  0.5427  0.2317
  809MOL0     N 9131   0.079  11.073   6.024 -0.2222 -0.3104 -0.0248
  809MOL0     C 9132   1.038  10.273   6.530  0.3476 -0.3501 -0.2344
  809MOL0     C 9133   1.132  10.234   6.629 -0.1803 -0.9906  0.0344
  809MOL0     C 9134   1.314  10.087   7.032 -0.1430 -0.0922  0.1728
  809MOL0     C 9135   1.444  10.037   7.033 -0.5612  0.3288  0.6129
  809MOL0     C 9136   1.515  10.013   7.151 -0.4232 -0.4380  0.0571
  809MOL0     C 9137   1.463  10.048   7.271  0.1364  0.3343 -0.5748
  809MOL0     O 9138   1.517  10.005   7.388 -0.9395  0.3264  0.3770
  809MOL0     C 9139   1.644   9.943   7.398 -0.1404 -1.2456  0.2893
  809MOL0     C 9140   1.668   9.901   7.550  0.3144 -1.1338  0.4272
  809MOL0     C 9141   1.703  10.042   7.629  0.3875  0.0045  0.8200
  809MOL0     C 9142   1.746  10.008   7.766  0.3741  0.1999 -0.1361
  809MOL0     C 9143   1.739  10.120   7.859 -0.6233 -1.0268  0.5199
  809MOL0     C 9144   1.729  10.204   7.943 -0.4420  0.1928  1.0793
  809MOL0     C 9145   1.329  10.092   7.275 -0.1489  0.4456 -0.0124
  809MOL0     C 9146   1.255  10.118   7.158 -0.6528 -0.0788 -0.2353
  809MOL0     C 9147   1.120  10.190   7.177 -0.1604  0.7985 -0.3347
  809MOL0     H 9148   0.979  10.333   6.905 -0.2864  0.2102 -0.7741
  809MOL0     H 9149   0.810  10.420   6.733  0.2037 -0.3869  0.8664
  809MOL0     H 9150   0.673  10.454   6.543  1.7082  1.4041  1.0073
  809MOL0     H 9151   0.793  10.582   6.474  1.2876 -0.3765 -0.7789
  809MOL0     H 9152   0.639  10.386   6.289 -0.8648  1.0775 -2.4282
  809MOL0     H 9153   0.730  10.522   6.243 -2.6656  0.9003 -2.0651
  809MOL0     H 9154   0.586  10.670   6.355  0.7554 -0.8039  3.0172
  809MOL0     H 9155   0.489  10.540   6.417  0.0414  2.2433  1.0175
  809MOL0     H 9156   0.536  10.597   6.116 -3.5173 -2.3717 -2.7091
  809MOL0     H 9157   0.437  10.465   6.186 -3.0590  0.3220 -0.2241
  809MOL0     H 9158   0.294  10.626   6.280 -0.2947  1.0088  0.1765
  809MOL0     H 9159   0.396  10.756   6.215 -0.4747  0.6030 -0.2634
  809MOL0     H 9160   0.326  10.596   5.981 -0.5490  1.0595 -1.0713
  809MOL0     H 9161   0.186  10.585   6.072  0.0958 -0.4803 -1.7340
  809MOL0     H 9162   0.185  10.769   5.919  2.3678 -2.7271  0.8663
  809MOL0     H 9163   0.318  10.847   6.000  0.4520 -0.5108  0.5236
  809MOL0     H 9164   0.030  10.836   6.093 -0.6477 -0.2991 -0.2636
  809MOL0     H 9165   0.136  10.821   6.219 -3.7229  1.9027  0.9461
  809MOL0     H 9166   0.301  11.034   6.258  1.6610 -1.9895 -1.3680
  809MOL0     H 9167   0.239  11.416   6.156 -0.7413 -0.6026  1.0133
  809MOL0     H 9168   0.330  11.321   6.277 -4.5313 -2.3006  2.0015
  809MOL0     H 9169   0.490  11.397   6.097 -0.1351  0.8563 -1.9915
  809MOL0     H 9170   0.456  11.219   6.093  1.1139 -0.3578 -2.9024
  809MOL0     H 9171   0.269  11.332   5.891 -0.9057  2.1545 -0.1146
  809MOL0     H 9172   0.435  11.289   5.851  2.9950  4.2240 -2.4529
  809MOL0     H 9173   0.344  11.558   5.944 -1.5553  0.2826 -0.1453
  809MOL0     H 9174   0.357  11.510   5.779 -3.8622 -0.9255  1.5811
  809MOL0     H 9175   0.671  11.644   6.070 -1.2449  1.6111  1.3924
  809MOL0     H 9176   0.763  11.870   6.067 -0.3306 -0.5269  0.0960
  809MOL0     H 9177   0.513  12.269   6.015 -4.5477 -2.1541 -4.4922
  809MOL0     H 9178   0.474  12.501   6.050 -3.2529 -4.3180 -0.8231
  809MOL0     H 9179   0.699  12.776   5.821 -0.0910  1.0230  1.1198
  809MOL0     H 9180   0.531  12.792   5.734  1.3054 -4.3262 -1.0750
  809MOL0     H 9181   0.516  12.998   5.819  0.0959  2.1525  1.1674
  809MOL0     H 9182   0.493  12.904   5.970  1.2149  1.7505  1.0105
  809MOL0     H 9183   0.714  12.921   6.032  0.3622  1.7293  1.5772
  809MOL0     H 9184   0.751  12.999   5.877  0.7653 -2.3609  0.2168
  809MOL0     H 9185   0.560  13.113   6.090 -1.9863  0.4239 -2.0771
  809MOL0     H 9186   0.607  13.195   5.938 -1.2009  1.5768  1.2910
  809MOL0     H 9187   0.853  13.177   6.027  0.4143  0.8924  0.4619
  809MOL0     H 9188   0.790  13.117   6.176 -0.3244 -0.6151  0.9607
  809MOL0     H 9189   0.754  13.377   6.040  2.8893 -2.1850 -1.6924
  809MOL0     H 9190   0.669  13.351   6.192  0.3770 -1.7556  1.0718
  809MOL0     H 9191   0.969  13.342   6.148 -0.6184 -0.4141 -0.3071
  809MOL0     H 9192   0.904  13.320   6.305 -2.4676 -2.6491 -0.5682
  809MOL0     H 9193   0.778  13.559   6.262 -0.0697  0.3952 -0.7268
  809MOL0     H 9194   0.937  13.552   6.326  1.6642  1.7207 -1.7292
  809MOL0     H 9195   0.626  12.588   5.656 -1.8579 -0.4802 -0.3741
  809MOL0     H 9196   0.666  12.338   5.630  2.9860 -2.9309  2.0567
  809MOL0     H 9197   0.515  11.965   5.721  1.0424 -1.3374 -1.7471
  809MOL0     H 9198   0.458  11.728   5.709  0.5861  0.5313  0.2881
  809MOL0     H 9199   1.052  10.253   6.425  1.1641 -3.4750  0.3667
  809MOL0     H 9200   1.231  10.200   6.600 -0.0061 -0.9235  0.5455
  809MOL0     H 9201   1.482  10.004   6.937 -1.5944 -2.2261  1.0255
  809MOL0     H 9202   1.610   9.961   7.149  1.1924  2.3329 -0.8100
  809MOL0     H 9203   1.722  10.014   7.369  0.2620 -0.6231  2.7286
  809MOL0     H 9204   1.651   9.857   7.330  0.5863 -0.4747 -0.6321
  809MOL0     H 9205   1.737   9.818   7.569  0.7703 -1.2002 -1.3641
  809MOL0     H 9206   1.567   9.872   7.580  0.1193 -0.4602  0.4221
  809MOL0     H 9207   1.622  10.115   7.630 -2.7327 -3.1637  0.4011
  809MOL0     H 9208   1.789  10.095   7.588 -0.5364  0.1013 -1.1281
  809MOL0     H 9209   1.686   9.930   7.814 -0.2049  0.7196  0.0110
  809MOL0     H 9210   1.848   9.971   7.755  0.1678 -1.0626  1.7621
  809MOL0     H 9211   1.724  10.283   8.016  1.0822 -1.1224  2.7017
  809MOL0     H 9212   1.282  10.122   7.369  0.0818  0.8896 -0.0371
  809MOL0     H 9213   1.138  10.297   7.165  1.5670  0.4906 -0.7844
  809MOL0     H 9214   1.054  10.159   7.095  0.3323 -1.0981 -0.0517
  809MOL0     H 9215   1.072  10.163   7.271  0.5071  2.0933  0.4075
  810MOL0     O 9216   7.747   9.391   9.154  0.3327 -0.0942 -0.1707
  810MOL0     C 9217   7.644   9.362   9.218  0.1375 -0.0878 -0.0393
  810MOL0     O 9218   7.578   9.449   9.293 -0.2619  0.1095  0.5010
  810MOL0     C 9219   7.630   9.573   9.338  0.8012 -0.0400  0.1907
  810MOL0     C 9220   7.530   9.644   9.394 -0.5988 -1.0207 -0.2755
  810MOL0     C 9221   7.560   9.761   9.464 -0.1024 -0.3902  0.0234
  810MOL0     C 9222   7.688   9.816   9.466 -0.7927 -1.0569 -0.0938
  810MOL0     O 9223   7.739   9.930   9.526  0.2171  0.1423  0.3292
  810MOL0     C 9224   7.646  10.032   9.576 -0.1768  0.5264 -0.0076
  810MOL0     C 9225   7.574   9.997   9.706  0.2718  0.2171  0.0151
  810MOL0     C 9226   7.450  10.088   9.718 -0.1385  0.3935  0.2957
  810MOL0     C 9227   7.340  10.049   9.611  0.9903  0.7090 -0.8296
  810MOL0     C 9228   7.199  10.084   9.666  0.1641  0.2620 -0.2173
  810MOL0     C 9229   7.103  10.032   9.560  0.5019  0.4838  0.2682
  810MOL0     C 9230   6.965  10.096   9.562  0.9022  0.3747 -1.0236
  810MOL0     C 9231   6.890  10.046   9.443  0.2673 -0.0208  0.2247
  810MOL0     N 9232   6.765   9.997   9.492 -0.6824  0.3898  0.0916
  810MOL0     C 9233   6.634  10.044   9.472  0.6880  0.3018  0.7189
  810MOL0     C 9234   6.539   9.951   9.519  0.6451 -0.6510  0.6360
  810MOL0     C 9235   6.388   9.956   9.528  0.2853 -0.2651  0.0554
  810MOL0     C 9236   6.326   9.966   9.673  0.1024  0.0754  0.5598
  810MOL0     C 9237   6.186  10.027   9.666 -0.8402 -0.1498  0.1067
  810MOL0     C 9238   6.086   9.989   9.552 -0.0993 -0.4784  0.5534
  810MOL0     O 9239   6.072   9.845   9.550  0.3154 -0.1255  0.0376
  810MOL0     C 9240   5.962   9.784   9.487 -0.6041  1.0156 -0.1324
  810MOL0     C 9241   5.891   9.843   9.384 -0.3522  0.3123 -1.0059
  810MOL0     C 9242   5.792   9.777   9.321 -0.0278  0.5525  0.1698
  810MOL0     C 9243   5.752   9.644   9.355  0.6089 -0.5748 -0.0325
  810MOL0     C 9244   5.660   9.565   9.276 -0.7272 -0.3667  0.6638
  810MOL0     O 9245   5.554   9.633   9.219 -0.2098 -0.6547  0.8558
  810MOL0     C 9246   5.449   9.549   9.195  0.3445  0.1607 -0.0793
  810MOL0     C 9247   5.431   9.496   9.069  0.8853  0.0442 -0.2210
  810MOL0     C 9248   5.323   9.408   9.039 -0.5805 -0.1303  0.5255
  810MOL0     C 9249   5.247   9.361   9.150 -0.0629 -0.0522  0.2510
  810MOL0     O 9250   5.134   9.280   9.141  0.2410  0.1860  0.0214
  810MOL0     C 9251   5.138   9.167   9.055  0.1098  0.3414  0.5071
  810MOL0     C 9252   5.005   9.096   9.037  0.1340 -0.2072  0.0154
  810MOL0     C 9253   5.033   8.972   8.942  0.2054  0.8316 -0.5173
  810MOL0     C 9254   4.913   8.878   8.942 -0.0561  0.6656 -0.5463
  810MOL0     C 9255   4.933   8.747   8.871 -0.9085  0.7643  1.5432
  810MOL0     C 9256   4.948   8.627   8.961 -0.2146  0.2781 -0.5321
  810MOL0     C 9257   4.898   8.504   8.884  0.2126  0.5010  0.0074
  810MOL0     C 9258   4.942   8.376   8.958  0.1656 -0.0194 -0.5252
  810MOL0    Cl 9259   5.103   8.332   8.897  0.1558 -0.0889 -0.3721
  810MOL0     C 9260   5.260   9.411   9.277 -0.7794  0.7459  0.3078
  810MOL0     C 9261   5.367   9.497   9.294  0.0318 -1.0292 -1.1144
  810MOL0     O 9262   5.674   9.447   9.284  0.5939 -0.2351  0.5337
  810MOL0     C 9263   5.825   9.586   9.459  0.2460  0.0836 -0.0080
  810MOL0     C 9264   5.933   9.651   9.517 -0.7407 -0.2077  0.0952
  810MOL0     N 9265   6.624   9.867   9.596  0.4616 -0.9329 -0.2050
  810MOL0     N 9266   6.754   9.889   9.563  0.1101  0.7305  0.5876
  810MOL0     C 9267   7.792   9.744   9.404 -0.6273  0.2841 -0.3739
  810MOL0     C 9268   7.764   9.618   9.343 -0.3052  0.3915  0.0819
  810MOL0     C 9269   7.596   9.220   9.207 -0.1053  0.0879 -0.5099
  810MOL0     C 9270   7.692   9.127   9.196 -0.1988  0.7989 -0.0876
  810MOL0     C 9271   7.663   8.981   9.209 -0.0633 -1.0581  0.7294
  810MOL0     C 9272   7.535   8.929   9.207 -0.0278 -0.0275 -0.4920
  810MOL0     O 9273   7.493   8.800   9.205  0.4320 -0.5932  0.6291
  810MOL0     C 9274   7.588   8.698   9.179  0.0873 -0.0069  0.4473
  810MOL0     C 9275   7.641   8.708   9.029 -0.8037 -0.6078 -0.2978
  810MOL0     C 9276   7.795   8.679   9.021 -0.5193 -0.2374  0.5065
  810MOL0     C 9277   7.817   8.525   9.018 -0.5693 -0.9904  0.3887
  810MOL0     C 9278   7.799   8.455   9.149 -0.5633  0.2895  0.0027
  810MOL0     C 9279   7.768   8.397   9.256 -0.2742 -0.6925 -0.3059
  810MOL0     C 9280   7.442   9.033   9.207  0.2059 -0.3078 -0.9403
  810MOL0     C 9281   7.466   9.170   9.215 -0.5233  0.6352 -0.7368
  810MOL0     C 9282   7.344   9.255   9.214 -0.5997 -0.0058 -0.6413
  810MOL0     H 9283   7.436   9.589   9.399  0.1777 -2.2623  2.6752
  810MOL0     H 9284   7.481   9.816   9.513 -2.3840 -4.6208  1.6169
  810MOL0     H 9285   7.703  10.125   9.588 -0.8609  0.6809  2.7689
  810MOL0     H 9286   7.572  10.053   9.498 -0.2912  0.6625  0.1370
  810MOL0     H 9287   7.645   9.998   9.789  0.8004  0.4100 -0.4380
  810MOL0     H 9288   7.537   9.894   9.711 -2.4326  1.1394  0.5961
  810MOL0     H 9289   7.470  10.194   9.703 -1.3983  0.9821  2.3335
  810MOL0     H 9290   7.406  10.089   9.818 -2.1483  0.6167 -0.5390
  810MOL0     H 9291   7.369  10.096   9.517  2.4241  1.2521 -0.1552
  810MOL0     H 9292   7.329   9.941   9.592  0.3756  1.1156 -3.0758
  810MOL0     H 9293   7.176  10.027   9.757 -3.7322  3.0764  0.8294
  810MOL0     H 9294   7.181  10.191   9.679  2.7400  0.5826  1.3489
  810MOL0     H 9295   7.145  10.034   9.459 -1.0128 -1.5918 -0.4888
  810MOL0     H 9296   7.080   9.926   9.578 -1.8733  0.3731 -2.5706
  810MOL0     H 9297   6.971  10.205   9.560  1.8384  0.3446 -0.3266
  810MOL0     H 9298   6.926  10.070   9.660  2.3027 -2.0710 -1.0483
  810MOL0     H 9299   6.884  10.113   9.356  1.2507 -0.7201 -0.4074
  810MOL0     H 9300   6.942   9.963   9.395 -2.3813 -1.5501 -0.2043
  810MOL0     H 9301   6.621  10.132   9.409  4.0198  0.3137 -0.1605
  810MOL0     H 9302   6.354  10.044   9.472 -0.4892  0.1269  1.1174
  810MOL0     H 9303   6.350   9.871   9.470 -0.2735 -0.5748  0.8661
  810MOL0     H 9304   6.325   9.870   9.724 -0.9602 -0.7226 -0.8840
  810MOL0     H 9305   6.382  10.038   9.733 -1.4175  1.0959  0.8329
  810MOL0     H 9306   6.204  10.135   9.667  2.6878 -0.6352 -0.2247
  810MOL0     H 9307   6.135  10.013   9.762 -0.7005  0.4018  0.2656
  810MOL0     H 9308   6.127  10.025   9.457  1.1478  1.5000  1.7613
  810MOL0     H 9309   5.990  10.037   9.572  0.7567  2.3671 -1.5631
  810MOL0     H 9310   5.923   9.942   9.350  2.2991  0.2752  1.0404
  810MOL0     H 9311   5.741   9.821   9.236 -3.8389  3.4848  3.5570
  810MOL0     H 9312   5.490   9.520   8.981 -3.8024 -0.3613 -3.8484
  810MOL0     H 9313   5.316   9.360   8.942 -0.2289  0.6545  0.1062
  810MOL0     H 9314   5.189   9.188   8.960  2.7214  2.0506  2.1683
  810MOL0     H 9315   5.205   9.092   9.099  1.6691  0.1581 -1.9329
  810MOL0     H 9316   4.964   9.064   9.133 -0.3410 -0.6461 -0.3270
  810MOL0     H 9317   4.933   9.156   8.980 -0.5035 -1.0480 -0.0852
  810MOL0     H 9318   5.050   9.008   8.840 -3.2173 -0.7454 -1.7953
  810MOL0     H 9319   5.126   8.919   8.967 -0.4400  0.3326  0.9559
  810MOL0     H 9320   4.836   8.930   8.883 -0.9787  1.3192  1.1639
  810MOL0     H 9321   4.866   8.850   9.036  2.8723 -4.0551 -0.2009
  810MOL0     H 9322   5.023   8.761   8.811 -0.1361  1.7822  2.8761
  810MOL0     H 9323   4.839   8.725   8.820 -0.0367  0.7247 -0.1096
  810MOL0     H 9324   5.051   8.619   8.997  0.1946  1.0727 -1.5116
  810MOL0     H 9325   4.886   8.651   9.048  2.0387  2.2574  0.6476
  810MOL0     H 9326   4.938   8.502   8.782  2.0532 -1.2360  0.6948
  810MOL0     H 9327   4.789   8.504   8.883  0.0890 -2.0952  2.0694
  810MOL0     H 9328   4.938   8.386   9.067 -0.9958 -1.1779 -0.4323
  810MOL0     H 9329   4.871   8.304   8.918 -0.0276  1.7897 -3.7958
  810MOL0     H 9330   5.211   9.370   9.365  3.4840 -1.9855  1.7512
  810MOL0     H 9331   5.383   9.528   9.396 -1.5824  0.6638 -1.3133
  810MOL0     H 9332   5.797   9.485   9.488 -0.4891  0.6944  1.4884
  810MOL0     H 9333   5.994   9.604   9.593 -2.2615  0.4079  1.7701
  810MOL0     H 9334   7.895   9.778   9.391 -0.1873 -0.1084  1.6544
  810MOL0     H 9335   7.841   9.550   9.306  0.1546 -1.6533  4.2559
  810MOL0     H 9336   7.798   9.149   9.184  0.1992 -1.4823 -1.3230
  810MOL0     H 9337   7.748   8.915   9.196  0.3913 -0.5405  0.9925
  810MOL0     H 9338   7.542   8.599   9.195  0.4766 -0.4027 -0.7633
  810MOL0     H 9339   7.674   8.702   9.246  2.9636 -3.1215 -2.6408
  810MOL0     H 9340   7.612   8.804   8.987  1.6568  0.3521 -0.0083
  810MOL0     H 9341   7.584   8.640   8.965 -2.0909 -0.4747  0.6662
  810MOL0     H 9342   7.847   8.715   9.110  0.4040 -1.4551  0.4755
  810MOL0     H 9343   7.836   8.720   8.928 -1.5118 -0.7282 -0.1677
  810MOL0     H 9344   7.748   8.474   8.949  0.6029 -3.5821  1.0284
  810MOL0     H 9345   7.913   8.492   8.978 -0.5402 -3.1224  2.0497
  810MOL0     H 9346   7.775   8.341   9.347  2.7006 -2.0782 -1.2607
  810MOL0     H 9347   7.340   8.999   9.199  0.4517 -1.9867  1.8030
  810MOL0     H 9348   7.362   9.344   9.154  2.7401  1.6060  2.3446
  810MOL0     H 9349   7.254   9.199   9.188 -0.1606 -1.1939  0.3048
  810MOL0     H 9350   7.325   9.295   9.314 -1.0961 -1.4183 -0.1386
  811MOL0     O 9351   4.920   6.631   7.916 -0.2300 -0.2661 -0.0183
  811MOL0     C 9352   4.998   6.606   7.820  0.5390 -1.0186 -0.0157
  811MOL0     O 9353   5.087   6.691   7.765  0.0501  0.0898 -0.3345
  811MOL0     C 9354   5.097   6.823   7.795 -1.0902 -0.2192 -0.1104
  811MOL0     C 9355   4.987   6.913   7.798 -0.1493 -0.2970  0.0855
  811MOL0     C 9356   5.015   7.051   7.793 -0.0557  0.0690  0.3834
  811MOL0     C 9357   5.149   7.093   7.798  0.3536 -0.3649 -0.7607
  811MOL0     O 9358   5.178   7.226   7.816  0.0744 -0.0363 -0.2889
  811MOL0     C 9359   5.083   7.333   7.778 -0.7734 -1.1930 -0.1699
  811MOL0     C 9360   5.046   7.327   7.624 -0.4986  1.2117  0.7277
  811MOL0     C 9361   4.980   7.454   7.569  0.3392 -0.4287  0.1138
  811MOL0     C 9362   4.826   7.480   7.613 -0.9546 -1.3120 -1.3380
  811MOL0     C 9363   4.804   7.629   7.593  0.4674 -0.1375 -0.9516
  811MOL0     C 9364   4.671   7.659   7.667  0.4809 -0.0704  0.2931
  811MOL0     C 9365   4.629   7.803   7.663 -0.3248 -0.0116 -0.2554
  811MOL0     C 9366   4.579   7.836   7.519 -0.7443 -0.3950 -0.5441
  811MOL0     N 9367   4.517   7.966   7.504 -0.2985 -0.4431  0.0272
  811MOL0     C 9368   4.580   8.088   7.548  0.5030  0.5178  0.1949
  811MOL0     C 9369   4.470   8.173   7.544  0.0986 -0.0619  0.6705
  811MOL0     C 9370   4.474   8.322   7.536 -0.6133 -0.1949 -0.9645
  811MOL0     C 9371   4.479   8.380   7.683 -0.0958  0.5476 -0.5377
  811MOL0     C 9372   4.504   8.530   7.675  0.1537 -1.5550 -0.7886
  811MOL0     C 9373   4.510   8.594   7.823 -0.2066  0.5882  0.7098
  811MOL0     O 9374   4.493   8.739   7.808  0.3501  0.0784  0.2262
  811MOL0     C 9375   4.580   8.813   7.887  0.0100  0.2183  0.6713
  811MOL0     C 9376   4.685   8.888   7.823 -0.2632  0.4335  0.7993
  811MOL0     C 9377   4.778   8.946   7.906 -0.5188 -0.2468 -0.6387
  811MOL0     C 9378   4.766   8.954   8.051 -1.0695  0.4446  0.0120
  811MOL0     C 9379   4.862   9.032   8.128 -0.1896 -0.3562  0.4881
  811MOL0     O 9380   4.860   9.026   8.267 -0.2004 -0.3208  0.1826
  811MOL0     C 9381   4.923   9.118   8.338 -0.3649 -0.4175  0.2552
  811MOL0     C 9382   4.985   9.091   8.454  0.4381 -0.6592 -0.0663
  811MOL0     C 9383   5.046   9.193   8.535 -0.5889  0.4134  0.1297
  811MOL0     C 9384   5.039   9.330   8.496  0.3378  0.0699 -1.0000
  811MOL0     O 9385   5.099   9.427   8.569 -0.5289 -0.6184 -0.2232
  811MOL0     C 9386   5.202   9.402   8.662  0.3522 -0.5207 -0.5902
  811MOL0     C 9387   5.278   9.528   8.693  0.3999 -0.4713  0.3366
  811MOL0     C 9388   5.193   9.637   8.764  0.5972  0.4973 -0.8020
  811MOL0     C 9389   5.281   9.763   8.778  0.4230 -0.7242  0.4698
  811MOL0     C 9390   5.213   9.874   8.872  0.2951 -0.9573  0.2413
  811MOL0     C 9391   5.303   9.986   8.913  0.2903 -1.1648  0.4608
  811MOL0     C 9392   5.393   9.978   9.041 -0.0691 -0.0292 -0.2403
  811MOL0     C 9393   5.502  10.086   9.037 -0.3809  0.0741 -0.0584
  811MOL0    Cl 9394   5.424  10.249   9.018  0.0093 -0.0151 -0.3258
  811MOL0     C 9395   4.972   9.362   8.378  0.2450 -0.1754  0.0264
  811MOL0     C 9396   4.911   9.258   8.300 -0.4579 -0.1577 -0.4311
  811MOL0     O 9397   4.940   9.102   8.060 -0.3725  0.0217  0.2641
  811MOL0     C 9398   4.663   8.868   8.099 -1.0401 -0.2140 -1.0005
  811MOL0     C 9399   4.569   8.803   8.022  0.3728  0.0819 -0.3811
  811MOL0     N 9400   4.356   8.101   7.519  0.9142 -0.3481 -0.3049
  811MOL0     N 9401   4.384   7.978   7.486  0.6515 -0.3719  0.0357
  811MOL0     C 9402   5.253   7.004   7.794 -0.2135  0.7391 -1.0788
  811MOL0     C 9403   5.228   6.868   7.785 -0.1655 -1.0022  0.8353
  811MOL0     C 9404   4.997   6.466   7.774  0.0179  0.9979  0.1390
  811MOL0     C 9405   5.122   6.410   7.757  0.1221  0.2184  0.5641
  811MOL0     C 9406   5.134   6.274   7.765 -0.4902  0.2984 -0.7848
  811MOL0     C 9407   5.030   6.195   7.794  0.2675  0.5990 -0.4042
  811MOL0     O 9408   5.031   6.057   7.824 -0.8634 -0.5930 -0.3591
  811MOL0     C 9409   5.159   5.990   7.850  0.3797  0.5818 -0.6225
  811MOL0     C 9410   5.150   5.840   7.860 -0.0565 -0.4612  0.0881
  811MOL0     C 9411   5.266   5.770   7.944  0.8124 -0.7936  0.3156
  811MOL0     C 9412   5.239   5.629   8.007  0.2439 -0.3274 -0.1916
  811MOL0     C 9413   5.108   5.622   8.068  0.3866  0.0674 -0.3354
  811MOL0     C 9414   5.009   5.575   8.123  0.1544 -0.1146 -0.2936
  811MOL0     C 9415   4.901   6.245   7.792 -0.9874 -0.3472 -0.7336
  811MOL0     C 9416   4.883   6.384   7.776 -1.0618 -0.2336 -0.5202
  811MOL0     C 9417   4.742   6.436   7.749  0.0323 -0.1173  0.2933
  811MOL0     H 9418   4.891   6.863   7.793 -0.5775  0.2782  1.7258
  811MOL0     H 9419   4.931   7.119   7.790 -0.7227 -0.7456 -0.1517
  811MOL0     H 9420   4.988   7.337   7.831 -1.0810  2.2358 -0.7860
  811MOL0     H 9421   5.114   7.434   7.807 -2.4781 -0.4520 -0.7773
  811MOL0     H 9422   4.957   7.262   7.619 -3.0342  4.4644  0.1678
  811MOL0     H 9423   5.131   7.284   7.569  0.1192  2.2799  0.8345
  811MOL0     H 9424   4.966   7.439   7.461  0.7897 -0.4504  0.0568
  811MOL0     H 9425   5.045   7.538   7.595  0.1465 -0.2327 -0.0301
  811MOL0     H 9426   4.758   7.408   7.567  0.7201 -4.4749  0.7600
  811MOL0     H 9427   4.824   7.465   7.721  1.0876 -4.0407 -1.5750
  811MOL0     H 9428   4.879   7.701   7.629 -0.4973  0.8754 -0.9089
  811MOL0     H 9429   4.801   7.638   7.484 -0.5586  1.1217 -0.8447
  811MOL0     H 9430   4.587   7.602   7.627  0.8158 -0.2427 -0.1692
  811MOL0     H 9431   4.674   7.626   7.771 -1.4885  2.8424  1.3968
  811MOL0     H 9432   4.709   7.868   7.699 -2.5265  2.7788 -0.0098
  811MOL0     H 9433   4.546   7.830   7.729 -0.6104 -0.9347 -0.2304
  811MOL0     H 9434   4.650   7.823   7.437 -1.6150 -0.3229 -1.3214
  811MOL0     H 9435   4.498   7.770   7.488 -1.8660  1.6168 -2.1258
  811MOL0     H 9436   4.684   8.119   7.549  2.9092 -5.9686  0.0134
  811MOL0     H 9437   4.567   8.350   7.486 -0.3912  0.6230 -0.1217
  811MOL0     H 9438   4.380   8.351   7.488 -1.0143 -2.8160 -1.9062
  811MOL0     H 9439   4.386   8.353   7.732 -0.1429  1.1734 -0.2738
  811MOL0     H 9440   4.558   8.330   7.740 -2.2688 -3.8015 -0.9834
  811MOL0     H 9441   4.434   8.580   7.607 -1.0038 -2.0970 -0.0259
  811MOL0     H 9442   4.606   8.550   7.640  1.1945  2.2960  3.4530
  811MOL0     H 9443   4.598   8.556   7.875  2.4559 -0.8179 -4.1666
  811MOL0     H 9444   4.422   8.559   7.878 -2.2565  5.4222  0.9861
  811MOL0     H 9445   4.689   8.893   7.714 -0.8110  0.2897  0.7719
  811MOL0     H 9446   4.863   8.989   7.853 -1.7753  0.7640 -1.9016
  811MOL0     H 9447   4.989   8.991   8.495  2.2736 -0.0307  1.4572
  811MOL0     H 9448   5.079   9.158   8.632 -0.9400  1.2782  0.5632
  811MOL0     H 9449   5.159   9.364   8.755  0.0583 -0.1363 -0.5640
  811MOL0     H 9450   5.279   9.339   8.617  2.0769  0.9078  0.2774
  811MOL0     H 9451   5.357   9.482   8.753  1.0302 -1.9688 -1.5349
  811MOL0     H 9452   5.330   9.570   8.607  1.6066 -3.7981 -0.7312
  811MOL0     H 9453   5.106   9.664   8.703  1.1577  2.1181 -0.9173
  811MOL0     H 9454   5.150   9.610   8.861 -2.0935 -1.4029 -2.3795
  811MOL0     H 9455   5.268   9.803   8.676 -2.0629 -0.4242  0.8213
  811MOL0     H 9456   5.384   9.738   8.802  0.6005  0.4456  1.0002
  811MOL0     H 9457   5.171   9.835   8.966 -0.8947  1.5360  0.8248
  811MOL0     H 9458   5.133   9.924   8.816  0.0888 -0.4136  1.0036
  811MOL0     H 9459   5.370  10.000   8.828 -0.0854 -0.8852  0.2087
  811MOL0     H 9460   5.248  10.079   8.925  1.5345 -0.4489  0.7511
  811MOL0     H 9461   5.441   9.881   9.059  0.8600  0.6907  1.4264
  811MOL0     H 9462   5.331  10.002   9.129 -0.9561 -0.9081 -0.6050
  811MOL0     H 9463   5.561  10.086   9.129 -0.8475 -3.9079  0.3793
  811MOL0     H 9464   5.551  10.049   8.946 -0.8295  0.0727 -0.3006
  811MOL0     H 9465   4.971   9.469   8.367 -2.0031 -0.0123  1.3483
  811MOL0     H 9466   4.873   9.286   8.202 -0.8755 -1.4373 -0.6588
  811MOL0     H 9467   4.655   8.861   8.207 -1.2927 -0.7426 -1.0519
  811MOL0     H 9468   4.479   8.756   8.061 -2.4497  3.2994 -2.4543
  811MOL0     H 9469   5.359   7.028   7.793  0.2827 -1.2415 -0.3689
  811MOL0     H 9470   5.311   6.800   7.767  0.8137  0.7049 -1.7350
  811MOL0     H 9471   5.208   6.474   7.741  0.9343 -1.0671 -0.3840
  811MOL0     H 9472   5.234   6.233   7.766 -0.8345 -1.0112  3.9536
  811MOL0     H 9473   5.196   6.022   7.948  0.4425 -0.8049 -0.1785
  811MOL0     H 9474   5.224   6.008   7.764 -1.3402  0.4751 -2.0074
  811MOL0     H 9475   5.143   5.788   7.764  0.0806  0.3324 -0.3567
  811MOL0     H 9476   5.052   5.812   7.899  1.0673 -3.4630  0.9958
  811MOL0     H 9477   5.296   5.830   8.031  0.6672 -0.1037 -0.1083
  811MOL0     H 9478   5.348   5.754   7.874 -1.7314 -0.6197 -2.9115
  811MOL0     H 9479   5.252   5.558   7.925  3.0347 -1.3354  1.0188
  811MOL0     H 9480   5.316   5.598   8.078 -1.2639  0.4846  1.9124
  811MOL0     H 9481   4.925   5.540   8.178  1.4524  1.1939  2.7398
  811MOL0     H 9482   4.822   6.177   7.822 -3.5870  2.4081 -0.9165
  811MOL0     H 9483   4.683   6.454   7.839 -0.9384  1.1173 -0.5566
  811MOL0     H 9484   4.741   6.529   7.691  1.5433 -0.5311 -0.4743
  811MOL0     H 9485   4.688   6.365   7.686  2.1758 -0.4128 -1.3589
  812MOL0     O 9486   4.549  10.125   3.709 -0.4364 -0.3983 -0.8331
  812MOL0     C 9487   4.513  10.206   3.629  0.7754 -0.5187 -0.1905
  812MOL0     O 9488   4.406  10.174   3.542 -0.2959  0.0855 -0.5567
  812MOL0     C 9489   4.342  10.061   3.546  0.2521  1.1100 -0.3373
  812MOL0     C 9490   4.257  10.016   3.652  0.2591 -0.1541  0.2367
  812MOL0     C 9491   4.200   9.884   3.653 -0.3581  0.2316  0.3431
  812MOL0     C 9492   4.232   9.803   3.547 -0.0776 -0.3861  0.7527
  812MOL0     O 9493   4.202   9.665   3.534  0.7344  0.1801 -0.5320
  812MOL0     C 9494   4.141   9.595   3.644  0.8793 -0.7996 -0.5201
  812MOL0     C 9495   4.126   9.452   3.602  0.5678  0.8340  0.5181
  812MOL0     C 9496   4.050   9.380   3.716 -0.2736  0.8253 -0.2651
  812MOL0     C 9497   4.041   9.227   3.679  0.6934 -0.4682  0.0492
  812MOL0     C 9498   3.993   9.138   3.789 -0.2276 -0.2748  0.1943
  812MOL0     C 9499   3.917   9.017   3.746  0.1791  0.2387 -0.5263
  812MOL0     C 9500   3.991   8.930   3.637 -0.5492 -0.6263  0.5677
  812MOL0     C 9501   3.905   8.816   3.586  0.1095  0.5340  0.2109
  812MOL0     N 9502   3.863   8.717   3.690 -0.4260 -0.5796  0.0091
  812MOL0     C 9503   3.944   8.629   3.749  0.4509 -0.4300  0.0352
  812MOL0     C 9504   3.865   8.563   3.836  0.4025  0.2366  0.2905
  812MOL0     C 9505   3.904   8.434   3.903 -0.1988 -0.7265 -0.4170
  812MOL0     C 9506   3.925   8.310   3.801 -0.7697 -0.6831  0.1878
  812MOL0     C 9507   3.789   8.263   3.739  0.4453 -0.3213 -0.0344
  812MOL0     C 9508   3.829   8.176   3.617 -0.1157  0.2673  0.2287
  812MOL0     O 9509   3.871   8.046   3.667  0.6707  0.3889  0.2529
  812MOL0     C 9510   3.877   7.945   3.579 -0.2646  0.5337 -0.2639
  812MOL0     C 9511   3.870   7.956   3.438 -0.0316  1.0040  0.2745
  812MOL0     C 9512   3.896   7.851   3.363  0.2366  0.4987  0.1216
  812MOL0     C 9513   3.917   7.727   3.420 -0.1539  0.6199  0.0287
  812MOL0     C 9514   3.941   7.613   3.327  0.1190  0.0018  0.5071
  812MOL0     O 9515   3.981   7.497   3.388 -0.2682  0.4914  0.0028
  812MOL0     C 9516   4.030   7.402   3.301 -0.4571  0.2894 -1.4978
  812MOL0     C 9517   4.153   7.413   3.255 -0.0483  0.5584  0.4718
  812MOL0     C 9518   4.209   7.312   3.172  0.2322 -0.3085 -0.2180
  812MOL0     C 9519   4.144   7.190   3.156 -0.2913 -0.4228 -1.0331
  812MOL0     O 9520   4.189   7.079   3.093  0.0589 -0.3164  0.2373
  812MOL0     C 9521   4.323   7.073   3.047  0.3027  0.2091 -1.1264
  812MOL0     C 9522   4.352   6.919   3.039 -0.8117 -0.1366  0.3326
  812MOL0     C 9523   4.280   6.846   2.928  0.2727  1.1288 -0.3729
  812MOL0     C 9524   4.328   6.707   2.908  0.1797 -0.1463 -0.1217
  812MOL0     C 9525   4.441   6.704   2.808 -0.3329  1.3972  0.5342
  812MOL0     C 9526   4.554   6.608   2.866  0.1130 -0.2074 -1.3609
  812MOL0     C 9527   4.658   6.584   2.754 -0.0647 -0.1963 -0.2664
  812MOL0     C 9528   4.736   6.457   2.773 -0.0700  0.9542  0.5770
  812MOL0    Cl 9529   4.896   6.459   2.694  0.3225  0.3460  0.0412
  812MOL0     C 9530   4.016   7.175   3.211 -0.2614 -0.4768 -0.2950
  812MOL0     C 9531   3.963   7.284   3.286  0.3126  0.1301 -0.5568
  812MOL0     O 9532   3.939   7.640   3.205 -0.6556  1.0998  0.3960
  812MOL0     C 9533   3.924   7.718   3.558  0.5018  0.5287  0.7575
  812MOL0     C 9534   3.905   7.825   3.638  0.0667 -0.6968 -0.0741
  812MOL0     N 9535   3.734   8.609   3.825 -0.5850 -0.2115  0.2451
  812MOL0     N 9536   3.731   8.696   3.726  0.3508 -0.2209 -0.5676
  812MOL0     C 9537   4.308   9.850   3.441  0.4691 -2.2118 -0.2437
  812MOL0     C 9538   4.368   9.972   3.447  1.2361  0.1995 -0.2317
  812MOL0     C 9539   4.583  10.335   3.592  0.0290  0.7525 -0.3516
  812MOL0     C 9540   4.722  10.343   3.595 -0.0670 -0.7753  0.0917
  812MOL0     C 9541   4.780  10.470   3.581  1.0748 -0.2494  0.4915
  812MOL0     C 9542   4.707  10.588   3.556 -0.0928 -0.6118 -0.3276
  812MOL0     O 9543   4.776  10.709   3.537 -0.4225  0.3915 -1.0719
  812MOL0     C 9544   4.696  10.827   3.547 -0.0526  0.3973  0.4123
  812MOL0     C 9545   4.779  10.951   3.538 -0.9236  0.0516 -0.2489
  812MOL0     C 9546   4.693  11.073   3.584  0.5442 -0.2399 -0.1752
  812MOL0     C 9547   4.774  11.201   3.554 -0.1974 -0.3278  0.6614
  812MOL0     C 9548   4.911  11.198   3.608  0.4902  0.1601 -0.0968
  812MOL0     C 9549   5.027  11.202   3.647 -0.2892  0.5944 -0.3058
  812MOL0     C 9550   4.575  10.577   3.553 -0.3787 -0.1795  0.7227
  812MOL0     C 9551   4.508  10.456   3.568 -0.0344  1.0517 -0.6930
  812MOL0     C 9552   4.351  10.459   3.586  0.1526  0.6122 -0.3838
  812MOL0     H 9553   4.242  10.079   3.739  3.5836  1.3438 -0.1575
  812MOL0     H 9554   4.133   9.836   3.723 -1.2315 -0.0515 -0.6525
  812MOL0     H 9555   4.212   9.589   3.728 -0.8935  1.6676  1.2909
  812MOL0     H 9556   4.044   9.640   3.665  0.3244 -1.1869 -2.0852
  812MOL0     H 9557   4.220   9.400   3.587 -1.1037 -3.6027  3.5581
  812MOL0     H 9558   4.050   9.452   3.522 -2.6276  4.8021  3.0962
  812MOL0     H 9559   3.950   9.413   3.742  0.1924  2.3509 -0.3290
  812MOL0     H 9560   4.101   9.375   3.813 -0.7112  0.5022 -0.0491
  812MOL0     H 9561   3.960   9.214   3.607  2.8524 -4.5163 -2.0029
  812MOL0     H 9562   4.126   9.181   3.627  1.2881 -2.1882  2.3580
  812MOL0     H 9563   4.077   9.096   3.844 -1.8349 -3.2206  0.5918
  812MOL0     H 9564   3.924   9.196   3.851  2.1963  1.7943  1.1472
  812MOL0     H 9565   3.896   8.955   3.833  0.1424  1.4625  0.3596
  812MOL0     H 9566   3.827   9.042   3.690  0.1195  1.7483  0.2125
  812MOL0     H 9567   4.088   8.902   3.680 -0.6638 -1.2252  0.4380
  812MOL0     H 9568   4.014   8.995   3.552 -0.6340  0.7103  1.5336
  812MOL0     H 9569   3.826   8.863   3.527 -0.3163 -0.6593 -0.2075
  812MOL0     H 9570   3.962   8.745   3.525 -0.6866  2.1672 -2.6086
  812MOL0     H 9571   4.045   8.605   3.716 -0.1751  0.6092 -2.9189
  812MOL0     H 9572   4.001   8.453   3.948 -0.2588 -0.9200 -0.2033
  812MOL0     H 9573   3.837   8.422   3.989 -1.1482  0.9030 -0.8826
  812MOL0     H 9574   3.991   8.343   3.721  2.1102 -2.8469  1.4640
  812MOL0     H 9575   3.985   8.229   3.844  0.1492 -0.5549 -0.8123
  812MOL0     H 9576   3.733   8.348   3.699  1.5585 -0.1062 -1.1952
  812MOL0     H 9577   3.727   8.207   3.810  0.6026  1.0891  1.2570
  812MOL0     H 9578   3.896   8.224   3.545 -0.9053 -0.5777 -1.1201
  812MOL0     H 9579   3.739   8.161   3.556  1.1761 -0.2943 -1.6168
  812MOL0     H 9580   3.863   8.051   3.387  3.2662 -0.0555 -2.5516
  812MOL0     H 9581   3.889   7.873   3.257  0.0591  1.5062  0.3297
  812MOL0     H 9582   4.194   7.513   3.272  2.4508  0.1541 -2.2890
  812MOL0     H 9583   4.307   7.324   3.126  1.0879 -0.0886  1.5525
  812MOL0     H 9584   4.332   7.117   2.947  1.9921 -1.5075 -1.7869
  812MOL0     H 9585   4.395   7.118   3.115 -1.1595  0.5397  0.2646
  812MOL0     H 9586   4.460   6.904   3.026 -1.0641 -0.0956 -2.6138
  812MOL0     H 9587   4.324   6.869   3.132 -0.2137 -3.9443 -1.3534
  812MOL0     H 9588   4.180   6.850   2.973  0.1060  1.9564 -0.7885
  812MOL0     H 9589   4.267   6.902   2.835  0.4362 -1.3336 -1.9575
  812MOL0     H 9590   4.254   6.626   2.900 -1.4785  1.3859 -1.0973
  812MOL0     H 9591   4.379   6.686   3.002 -0.3687 -1.6060 -0.1096
  812MOL0     H 9592   4.491   6.795   2.774  0.4968  0.5136 -0.6990
  812MOL0     H 9593   4.401   6.661   2.716  0.3686 -1.0723  1.3079
  812MOL0     H 9594   4.595   6.663   2.951  1.2166 -1.7324 -0.8632
  812MOL0     H 9595   4.516   6.517   2.914 -2.0529  2.3215  2.3046
  812MOL0     H 9596   4.722   6.672   2.766 -2.8051  1.8405  0.6879
  812MOL0     H 9597   4.605   6.593   2.658 -1.5581  0.3759  0.5772
  812MOL0     H 9598   4.751   6.444   2.881  0.6842 -0.7649  0.2998
  812MOL0     H 9599   4.686   6.369   2.731  0.4570  1.1197 -0.4249
  812MOL0     H 9600   3.960   7.083   3.210  2.1222 -2.1873 -4.4796
  812MOL0     H 9601   3.863   7.275   3.327 -0.1267 -1.1756 -1.8151
  812MOL0     H 9602   3.957   7.624   3.602 -1.0462 -0.0466  0.7572
  812MOL0     H 9603   3.915   7.793   3.741 -2.3628 -1.0058  0.1116
  812MOL0     H 9604   4.330   9.788   3.355  5.1559 -0.3072 -0.7064
  812MOL0     H 9605   4.434  10.010   3.370  2.3286  0.5789  0.8691
  812MOL0     H 9606   4.793  10.262   3.612  2.9435  1.2330 -1.9503
  812MOL0     H 9607   4.888  10.467   3.569  1.1569 -5.3592  0.4921
  812MOL0     H 9608   4.654  10.823   3.648 -1.9772  1.2948 -0.3009
  812MOL0     H 9609   4.621  10.830   3.467  1.0764 -2.4580 -0.8904
  812MOL0     H 9610   4.825  10.965   3.440  0.9282  2.2192  0.8339
  812MOL0     H 9611   4.866  10.929   3.602 -1.6103  0.2405  0.7717
  812MOL0     H 9612   4.689  11.077   3.693  6.0171 -2.7241  0.4138
  812MOL0     H 9613   4.598  11.067   3.529 -0.4801 -0.2125  1.5112
  812MOL0     H 9614   4.773  11.228   3.448 -2.3832 -2.1143  0.1409
  812MOL0     H 9615   4.726  11.283   3.608  2.5205  0.8523  1.4555
  812MOL0     H 9616   5.129  11.201   3.678 -0.9769 -0.9609  2.1976
  812MOL0     H 9617   4.519  10.666   3.527  0.6128  1.6202  4.2013
  812MOL0     H 9618   4.319  10.549   3.533  1.0610  0.9310 -0.4173
  812MOL0     H 9619   4.295  10.369   3.560  0.3668  0.0472  1.0035
  812MOL0     H 9620   4.338  10.491   3.690  1.3996  0.2171 -0.0898
  813MOL0     O 9621   8.695   5.979   0.758 -0.4120 -0.8633 -0.1460
  813MOL0     C 9622   8.767   5.914   0.836 -0.4527 -0.3901  0.3893
  813MOL0     O 9623   8.900   5.938   0.852 -0.1277 -0.3494 -0.6020
  813MOL0     C 9624   8.947   6.057   0.795  0.2197  0.5575  1.0129
  813MOL0     C 9625   8.960   6.053   0.655 -0.2248 -0.0066  0.1110
  813MOL0     C 9626   9.029   6.157   0.593 -0.0304  0.4582 -0.5944
  813MOL0     C 9627   9.092   6.262   0.670 -0.1442  0.8645 -0.0324
  813MOL0     O 9628   9.163   6.346   0.595 -0.7279 -0.9077  0.1888
  813MOL0     C 9629   9.281   6.403   0.659  1.0772 -0.1852 -0.4014
  813MOL0     C 9630   9.313   6.526   0.580 -0.0984 -0.0478  0.5512
  813MOL0     C 9631   9.403   6.471   0.470 -0.8783 -0.1966 -0.1495
  813MOL0     C 9632   9.421   6.575   0.353  0.0142 -0.4204 -1.0696
  813MOL0     C 9633   9.513   6.519   0.244 -0.1281 -0.0762  0.1506
  813MOL0     C 9634   9.547   6.609   0.139 -1.0788  0.7704  1.2988
  813MOL0     C 9635   9.629   6.546   0.036 -0.0087 -0.3971  1.2325
  813MOL0     C 9636   9.631   6.627  -0.091 -0.7160  0.5185  0.4349
  813MOL0     N 9637   9.760   6.695  -0.103 -0.6760  0.2167  0.4301
  813MOL0     C 9638   9.871   6.634  -0.148 -0.7702  0.1172  0.1919
  813MOL0     C 9639   9.972   6.721  -0.150 -0.3764  0.2505 -0.2185
  813MOL0     C 9640  10.114   6.704  -0.186  0.2927  0.5305 -0.8765
  813MOL0     C 9641  10.137   6.649  -0.328  0.0666  1.0226 -1.3365
  813MOL0     C 9642  10.093   6.758  -0.428 -0.8149 -0.0246  0.2322
  813MOL0     C 9643  10.123   6.729  -0.575 -0.5683  0.7456  0.3919
  813MOL0     O 9644  10.230   6.630  -0.597 -0.3787  0.9674 -0.6286
  813MOL0     C 9645  10.211   6.541  -0.699  0.4873  1.0819  0.6287
  813MOL0     C 9646  10.174   6.588  -0.829  0.7567  0.5114 -0.7817
  813MOL0     C 9647  10.175   6.494  -0.932  0.5133  0.1779 -1.1126
  813MOL0     C 9648  10.221   6.358  -0.910 -0.0636 -0.0910 -0.7664
  813MOL0     C 9649  10.226   6.265  -1.027 -0.1376  0.0564  0.5687
  813MOL0     O 9650  10.260   6.135  -1.000 -0.5558  0.1959 -0.2901
  813MOL0     C 9651  10.263   6.035  -1.095 -0.3039 -0.8498 -0.9310
  813MOL0     C 9652  10.204   5.913  -1.060  0.4309  0.2530  0.6201
  813MOL0     C 9653  10.205   5.804  -1.141  0.4701 -0.5286  0.1381
  813MOL0     C 9654  10.273   5.819  -1.265  0.8785  0.9986 -0.0036
  813MOL0     O 9655  10.296   5.720  -1.353  0.5782  0.5248 -0.2537
  813MOL0     C 9656  10.284   5.579  -1.314 -0.0937 -1.0748  0.2127
  813MOL0     C 9657  10.405   5.537  -1.227  1.3950  0.0563  0.3692
  813MOL0     C 9658  10.392   5.395  -1.165 -0.5768 -0.4872 -1.3086
  813MOL0     C 9659  10.311   5.386  -1.032 -0.2393 -0.7147 -0.3771
  813MOL0     C 9660  10.264   5.241  -1.006  0.1930  0.3821  0.4497
  813MOL0     C 9661  10.372   5.127  -0.992  0.5631 -0.1469 -0.5420
  813MOL0     C 9662  10.458   5.131  -0.861 -0.1506 -0.1741  0.5602
  813MOL0     C 9663  10.577   5.032  -0.875  0.3123 -0.0033 -0.2647
  813MOL0    Cl 9664  10.692   5.051  -0.744 -0.0153 -0.1523  0.0849
  813MOL0     C 9665  10.333   5.938  -1.306 -0.1900 -1.0506 -0.8922
  813MOL0     C 9666  10.332   6.056  -1.216  0.2898 -0.0926  0.5902
  813MOL0     O 9667  10.179   6.302  -1.136 -0.1434  0.0044 -0.0048
  813MOL0     C 9668  10.254   6.318  -0.779  0.2091 -0.0527  0.4248
  813MOL0     C 9669  10.242   6.409  -0.677  0.3084 -0.1713 -0.6966
  813MOL0     N 9670   9.927   6.850  -0.115 -0.1102  0.9293 -0.0964
  813MOL0     N 9671   9.799   6.823  -0.072  0.1129 -0.0360 -0.1687
  813MOL0     C 9672   9.072   6.264   0.806 -0.8812 -0.0340 -0.3166
  813MOL0     C 9673   9.011   6.158   0.874 -0.0158  0.9878 -0.7266
  813MOL0     C 9674   8.703   5.787   0.896  0.1270  0.1486  0.7991
  813MOL0     C 9675   8.794   5.709   0.977 -0.1126  0.5609  0.2010
  813MOL0     C 9676   8.750   5.587   1.029  0.0123 -0.7285  0.1181
  813MOL0     C 9677   8.622   5.543   1.018 -0.1302 -0.7044  1.1780
  813MOL0     O 9678   8.594   5.425   1.079 -0.0569 -0.2081  0.6667
  813MOL0     C 9679   8.511   5.325   1.004 -0.3170  0.2063  0.3904
  813MOL0     C 9680   8.573   5.263   0.886 -0.5443 -0.4023  0.4135
  813MOL0     C 9681   8.701   5.187   0.934  0.0000 -0.0517 -0.1249
  813MOL0     C 9682   8.787   5.135   0.819  0.1548  0.1362  0.1141
  813MOL0     C 9683   8.863   5.008   0.849  0.3451  0.8243  0.0284
  813MOL0     C 9684   8.921   4.904   0.865  0.2200 -0.4678 -0.4883
  813MOL0     C 9685   8.531   5.616   0.942  0.1812 -0.2131  0.2919
  813MOL0     C 9686   8.571   5.740   0.878 -0.0054 -0.7286 -0.2313
  813MOL0     C 9687   8.460   5.829   0.823  0.2227 -0.0938  0.2077
  813MOL0     H 9688   8.909   5.971   0.605 -0.2425 -0.8717  1.4817
  813MOL0     H 9689   9.046   6.156   0.485 -2.7090 -0.7628 -1.0876
  813MOL0     H 9690   9.255   6.447   0.756 -0.4558 -1.8244  0.0013
  813MOL0     H 9691   9.357   6.328   0.682 -0.1739 -0.9696  1.4566
  813MOL0     H 9692   9.371   6.596   0.640 -0.6558 -2.3122  4.0158
  813MOL0     H 9693   9.229   6.581   0.536 -1.1148 -1.4406  0.6763
  813MOL0     H 9694   9.356   6.379   0.434 -1.9528 -1.2739  3.5451
  813MOL0     H 9695   9.504   6.451   0.507 -0.3887 -2.9038 -2.5861
  813MOL0     H 9696   9.325   6.593   0.305 -0.2239 -2.6998 -1.5456
  813MOL0     H 9697   9.462   6.669   0.391  0.4840 -0.4550 -1.4906
  813MOL0     H 9698   9.603   6.468   0.279  1.2268  0.5591 -2.1736
  813MOL0     H 9699   9.467   6.433   0.196  0.5080 -1.3305  1.7014
  813MOL0     H 9700   9.465   6.669   0.099  0.3385  1.2572 -1.1208
  813MOL0     H 9701   9.605   6.689   0.187 -0.3731  1.4606 -0.6119
  813MOL0     H 9702   9.586   6.452   0.000 -2.9878  1.7171 -1.4163
  813MOL0     H 9703   9.727   6.529   0.079 -0.0597 -1.3547  0.9877
  813MOL0     H 9704   9.627   6.566  -0.182 -0.2245  0.6010  0.3547
  813MOL0     H 9705   9.547   6.696  -0.105 -0.4256  0.8544  0.3080
  813MOL0     H 9706   9.880   6.527  -0.165  1.5065  0.1794  0.6671
  813MOL0     H 9707  10.156   6.804  -0.176  2.2278 -0.3676  0.7365
  813MOL0     H 9708  10.160   6.635  -0.115 -1.2254  1.5743  1.2408
  813MOL0     H 9709  10.243   6.626  -0.343  0.0852 -0.8291  1.0317
  813MOL0     H 9710  10.074   6.560  -0.334  0.4378  0.5301  1.0486
  813MOL0     H 9711  10.157   6.844  -0.404  0.5847 -1.5745  2.4033
  813MOL0     H 9712   9.986   6.776  -0.424 -0.6435  2.2692 -2.1527
  813MOL0     H 9713  10.163   6.817  -0.627  3.2613  3.3668  6.5740
  813MOL0     H 9714  10.031   6.686  -0.616 -0.2171  1.4958 -1.2479
  813MOL0     H 9715  10.166   6.696  -0.837  3.2370  0.6773 -2.2050
  813MOL0     H 9716  10.156   6.527  -1.033 -1.1958  1.1112 -0.5336
  813MOL0     H 9717  10.154   5.917  -0.964  0.6200 -0.4229  0.7539
  813MOL0     H 9718  10.156   5.713  -1.106 -2.1339  0.0194 -1.8184
  813MOL0     H 9719  10.200   5.557  -1.249  0.2678 -0.4029  0.9287
  813MOL0     H 9720  10.284   5.514  -1.402  1.4647 -2.1593  0.9547
  813MOL0     H 9721  10.490   5.547  -1.295  1.4837  1.1259  0.6270
  813MOL0     H 9722  10.421   5.608  -1.145 -1.1502  0.1208  0.8901
  813MOL0     H 9723  10.345   5.332  -1.241 -2.4880 -0.0116 -0.5953
  813MOL0     H 9724  10.495   5.361  -1.152 -0.5078 -0.6255 -2.1247
  813MOL0     H 9725  10.220   5.447  -1.040  0.0839  0.1281  1.7996
  813MOL0     H 9726  10.365   5.421  -0.944 -0.9962  1.7201 -0.7919
  813MOL0     H 9727  10.193   5.212  -1.084 -1.9377 -0.4523  2.5847
  813MOL0     H 9728  10.214   5.237  -0.909 -2.7385  1.0553 -0.9403
  813MOL0     H 9729  10.314   5.035  -1.003  1.7544 -1.1853  1.3160
  813MOL0     H 9730  10.437   5.131  -1.079 -0.5529  0.3187 -1.3798
  813MOL0     H 9731  10.400   5.101  -0.773 -2.5028  1.7324 -0.2048
  813MOL0     H 9732  10.500   5.231  -0.844  0.1955 -0.5079  1.7191
  813MOL0     H 9733  10.539   4.929  -0.874  2.3991 -0.8894 -2.4555
  813MOL0     H 9734  10.632   5.042  -0.969 -1.8551  0.2294 -1.5746
  813MOL0     H 9735  10.373   5.937  -1.407  2.1502  1.3959 -0.1036
  813MOL0     H 9736  10.362   6.147  -1.266 -2.3301  0.5369 -0.0076
  813MOL0     H 9737  10.274   6.216  -0.748  2.6656  1.6348  5.4507
  813MOL0     H 9738  10.280   6.374  -0.581  3.6427 -0.9145 -2.1373
  813MOL0     H 9739   9.099   6.346   0.873  0.5535 -0.9238  0.2522
  813MOL0     H 9740   9.003   6.173   0.981 -1.7216 -1.3811 -0.4168
  813MOL0     H 9741   8.895   5.736   1.006  0.1539 -1.3109  1.1492
  813MOL0     H 9742   8.816   5.537   1.100 -0.3645  0.5651  1.4405
  813MOL0     H 9743   8.428   5.388   0.969 -0.4557  0.6990  1.5491
  813MOL0     H 9744   8.478   5.245   1.071  0.6001 -1.1003 -0.6767
  813MOL0     H 9745   8.595   5.330   0.802 -1.5663 -3.4591 -2.4902
  813MOL0     H 9746   8.506   5.188   0.844  0.8157 -0.8685 -0.9963
  813MOL0     H 9747   8.678   5.097   0.991  2.2602 -1.4451 -1.2904
  813MOL0     H 9748   8.763   5.252   0.996  0.3987 -0.4753 -0.0729
  813MOL0     H 9749   8.717   5.105   0.741 -1.9298  2.3524  0.9938
  813MOL0     H 9750   8.858   5.208   0.777 -0.6142  0.4055 -0.7574
  813MOL0     H 9751   8.970   4.809   0.880  2.9557  0.1421 -4.0524
  813MOL0     H 9752   8.424   5.598   0.951  0.1596  0.1108  0.7079
  813MOL0     H 9753   8.360   5.795   0.849 -2.5556  4.2048 -3.3376
  813MOL0     H 9754   8.470   5.935   0.848  0.0336 -0.1788  0.6530
  813MOL0     H 9755   8.462   5.821   0.714  0.3212 -1.8880  0.3100
  814MOL0     O 9756   9.980   3.735   2.608  0.2837  0.2804 -0.2998
  814MOL0     C 9757  10.039   3.762   2.504  0.5775  0.1970  0.3607
  814MOL0     O 9758  10.157   3.715   2.470 -0.3775  0.7023  0.8061
  814MOL0     C 9759  10.230   3.642   2.554 -0.1399  0.0938 -0.8153
  814MOL0     C 9760  10.200   3.510   2.590  0.3134 -0.0133 -0.3655
  814MOL0     C 9761  10.288   3.425   2.655 -0.6421 -0.5004 -1.6756
  814MOL0     C 9762  10.411   3.476   2.701 -0.5774  0.3536 -0.1447
  814MOL0     O 9763  10.487   3.383   2.769  0.6510 -0.5361  0.1002
  814MOL0     C 9764  10.624   3.430   2.807  0.3704  0.3633 -0.8749
  814MOL0     C 9765  10.700   3.306   2.844 -0.4692 -0.0097 -0.4794
  814MOL0     C 9766  10.666   3.257   2.983 -0.1512 -0.2868  0.2441
  814MOL0     C 9767  10.746   3.135   3.021  0.1440  0.3037 -0.3115
  814MOL0     C 9768  10.684   3.084   3.160 -0.2681 -0.6509  0.4807
  814MOL0     C 9769  10.741   2.947   3.208  0.3818  0.5744 -0.0275
  814MOL0     C 9770  10.653   2.892   3.322  0.3861 -0.6092 -0.6876
  814MOL0     C 9771  10.723   2.770   3.389  0.0676  0.7539 -0.0742
  814MOL0     N 9772  10.645   2.702   3.489 -0.8802  0.0671 -0.1129
  814MOL0     C 9773  10.515   2.644   3.473  0.9232  0.2844 -1.0978
  814MOL0     C 9774  10.503   2.584   3.595 -0.4592 -0.7232  1.2166
  814MOL0     C 9775  10.383   2.508   3.643  0.6585 -0.0155 -0.3089
  814MOL0     C 9776  10.325   2.528   3.784 -0.2148 -0.2279 -0.0646
  814MOL0     C 9777  10.304   2.674   3.823  0.2508 -0.9944 -0.1359
  814MOL0     C 9778  10.251   2.685   3.961  0.1868 -0.0993  0.4847
  814MOL0     O 9779  10.246   2.826   4.003 -0.1892  0.4498  0.2245
  814MOL0     C 9780  10.138   2.896   4.000  0.6678  0.2237 -0.3223
  814MOL0     C 9781  10.013   2.856   3.952  0.7165  0.1367  0.1214
  814MOL0     C 9782   9.904   2.951   3.955 -0.8122 -0.2405  0.5205
  814MOL0     C 9783   9.931   3.087   4.011 -0.2217 -0.4621 -0.4780
  814MOL0     C 9784   9.842   3.206   3.989 -0.6950 -0.1395  0.3359
  814MOL0     O 9785   9.706   3.165   3.972  0.3967 -0.0820  1.0464
  814MOL0     C 9786   9.605   3.261   3.949 -0.8392  0.2525  0.0100
  814MOL0     C 9787   9.623   3.380   3.878 -1.1990 -0.4909 -0.3359
  814MOL0     C 9788   9.517   3.474   3.863 -0.3819  0.5930 -0.0228
  814MOL0     C 9789   9.388   3.434   3.897  0.2008 -0.0053 -0.4398
  814MOL0     O 9790   9.279   3.512   3.878 -0.5349  0.0090 -0.3122
  814MOL0     C 9791   9.216   3.492   3.753  0.0592  0.3834 -0.4799
  814MOL0     C 9792   9.102   3.590   3.744 -0.4864 -0.9033  0.2068
  814MOL0     C 9793   8.999   3.596   3.855 -0.3762 -0.2685  0.1904
  814MOL0     C 9794   8.904   3.716   3.850 -0.2909 -0.4311 -0.1266
  814MOL0     C 9795   8.778   3.702   3.926  0.8331  0.3984 -0.0196
  814MOL0     C 9796   8.706   3.834   3.938  0.7097 -0.0458  0.0802
  814MOL0     C 9797   8.575   3.821   4.017 -0.0451 -0.3610 -0.9654
  814MOL0     C 9798   8.594   3.854   4.169  0.4958  0.2103  0.2841
  814MOL0    Cl 9799   8.433   3.867   4.235 -0.3136  0.4245 -0.0872
  814MOL0     C 9800   9.371   3.310   3.954 -0.5636  0.5662 -1.0320
  814MOL0     C 9801   9.482   3.221   3.983  0.7870 -0.3063 -0.3611
  814MOL0     O 9802   9.880   3.324   3.994  0.4260  0.6344 -0.3287
  814MOL0     C 9803  10.055   3.114   4.068  0.2961 -0.4544 -0.4512
  814MOL0     C 9804  10.157   3.023   4.054  0.5889 -0.2931  0.5887
  814MOL0     N 9805  10.611   2.595   3.673  0.0523  0.4037  0.4669
  814MOL0     N 9806  10.696   2.671   3.616  0.4337 -0.4588 -0.6557
  814MOL0     C 9807  10.443   3.607   2.671 -0.2247 -0.1716  0.2080
  814MOL0     C 9808  10.355   3.694   2.598  0.1717  0.4282  0.0701
  814MOL0     C 9809   9.965   3.840   2.391 -0.2648 -0.9694  0.9193
  814MOL0     C 9810  10.008   3.810   2.255  1.2599  1.1054  0.0623
  814MOL0     C 9811   9.945   3.870   2.149 -0.3426 -1.0835 -0.5057
  814MOL0     C 9812   9.853   3.973   2.161  0.2600  0.3731  0.1906
  814MOL0     O 9813   9.804   4.054   2.060  0.0465 -0.2529  0.2503
  814MOL0     C 9814   9.866   4.035   1.932  0.1906 -0.0646  0.2464
  814MOL0     C 9815   9.787   4.122   1.833 -0.2315 -0.1381 -0.3678
  814MOL0     C 9816   9.832   4.072   1.694  0.1495  0.0091  0.0522
  814MOL0     C 9817   9.785   4.153   1.569 -0.5902 -0.0971 -0.0999
  814MOL0     C 9818   9.865   4.105   1.455 -0.8301  1.0046 -0.1708
  814MOL0     C 9819   9.922   4.070   1.359 -0.5244  0.1743 -0.0831
  814MOL0     C 9820   9.804   3.994   2.293  0.3793  0.4153 -1.0086
  814MOL0     C 9821   9.855   3.927   2.402 -0.7901  0.9116 -0.6496
  814MOL0     C 9822   9.792   3.943   2.542  0.3589 -0.5308 -0.4866
  814MOL0     H 9823  10.112   3.465   2.546  0.1189 -0.1867  0.1878
  814MOL0     H 9824  10.283   3.318   2.669  1.2493 -0.3914  0.3319
  814MOL0     H 9825  10.672   3.488   2.728  0.8081  0.5272 -0.4900
  814MOL0     H 9826  10.597   3.490   2.894 -1.2661 -2.3320  0.6077
  814MOL0     H 9827  10.808   3.322   2.839 -0.0066 -1.5499  2.5217
  814MOL0     H 9828  10.678   3.222   2.777  1.4713  0.2570 -1.5366
  814MOL0     H 9829  10.559   3.232   2.986 -0.6510  1.6473  0.1051
  814MOL0     H 9830  10.703   3.330   3.056 -1.2334 -2.0471  2.6752
  814MOL0     H 9831  10.744   3.060   2.940 -1.6828 -0.6583  0.5654
  814MOL0     H 9832  10.847   3.175   3.036 -0.6090  2.0099  0.4527
  814MOL0     H 9833  10.696   3.163   3.235 -3.3558 -0.7125  1.1753
  814MOL0     H 9834  10.575   3.071   3.150 -0.9209  1.0336  3.8777
  814MOL0     H 9835  10.738   2.884   3.118 -1.4536 -0.0334  0.4136
  814MOL0     H 9836  10.842   2.937   3.247  0.1365 -0.7346  0.3178
  814MOL0     H 9837  10.549   2.873   3.294 -0.0494 -0.9073  1.0307
  814MOL0     H 9838  10.656   2.984   3.381 -0.2629  0.8463 -2.7958
  814MOL0     H 9839  10.737   2.698   3.308  1.5364  0.6206  0.2828
  814MOL0     H 9840  10.819   2.795   3.434  0.6570 -2.5028  0.7485
  814MOL0     H 9841  10.441   2.656   3.394  0.1570 -1.2254 -0.6464
  814MOL0     H 9842  10.298   2.530   3.577 -1.5378 -0.2520  2.2591
  814MOL0     H 9843  10.407   2.402   3.630  0.4603 -0.0252 -0.6182
  814MOL0     H 9844  10.233   2.469   3.793 -0.3685  0.3000  2.6680
  814MOL0     H 9845  10.395   2.494   3.861 -1.5202  3.0171  2.8236
  814MOL0     H 9846  10.248   2.728   3.745 -0.7938  1.1855  1.9649
  814MOL0     H 9847  10.399   2.728   3.827 -1.1257  1.5545  1.3463
  814MOL0     H 9848  10.326   2.630   4.021  2.4105  4.5104  2.4270
  814MOL0     H 9849  10.162   2.621   3.964 -1.0951  1.4980 -1.3286
  814MOL0     H 9850  10.000   2.761   3.901 -1.6000  0.9635 -0.9769
  814MOL0     H 9851   9.821   2.939   3.887 -1.6838 -1.2460  1.7159
  814MOL0     H 9852   9.722   3.400   3.837 -0.9218 -0.0161  0.5429
  814MOL0     H 9853   9.526   3.567   3.809 -0.0189 -0.6262 -2.1673
  814MOL0     H 9854   9.279   3.496   3.664  0.7924 -5.9223 -0.7032
  814MOL0     H 9855   9.169   3.393   3.753  3.2761 -1.6759  5.3169
  814MOL0     H 9856   9.154   3.685   3.726  2.9578 -3.0780 -2.7632
  814MOL0     H 9857   9.052   3.552   3.654 -0.0586  0.3469 -0.5837
  814MOL0     H 9858   8.941   3.504   3.849 -1.6675  0.4597  1.0727
  814MOL0     H 9859   9.051   3.599   3.952  2.4079  0.7825 -1.2251
  814MOL0     H 9860   8.884   3.726   3.742  3.8870 -0.6848 -1.0836
  814MOL0     H 9861   8.958   3.806   3.881  0.0453 -1.3872  2.2530
  814MOL0     H 9862   8.790   3.671   4.030 -2.7006 -4.2527 -0.6706
  814MOL0     H 9863   8.713   3.625   3.882  0.2118  0.9292 -0.0385
  814MOL0     H 9864   8.770   3.902   3.995  1.7205 -1.7623  1.0751
  814MOL0     H 9865   8.679   3.873   3.839  0.9295  1.9741  0.7708
  814MOL0     H 9866   8.528   3.723   4.002 -1.8402  0.2812  0.1337
  814MOL0     H 9867   8.500   3.887   3.973 -1.2209 -0.2306  1.0832
  814MOL0     H 9868   8.655   3.781   4.224  0.6636 -1.6084 -2.1554
  814MOL0     H 9869   8.647   3.950   4.181  2.0319 -0.7230  1.3761
  814MOL0     H 9870   9.269   3.282   3.979  0.5029 -2.2306  0.6321
  814MOL0     H 9871   9.466   3.122   4.024 -0.1817 -0.7843 -1.8536
  814MOL0     H 9872  10.074   3.200   4.132 -2.1939  0.6430 -1.0455
  814MOL0     H 9873  10.257   3.053   4.083  0.5914  1.5384 -1.0634
  814MOL0     H 9874  10.539   3.649   2.699 -0.7508  1.3937 -0.2402
  814MOL0     H 9875  10.383   3.790   2.556 -0.4162  1.0219  0.9896
  814MOL0     H 9876  10.084   3.737   2.229  0.7386 -0.4739  2.5587
  814MOL0     H 9877   9.987   3.846   2.052 -1.2570 -1.8435 -0.7254
  814MOL0     H 9878   9.865   3.932   1.894 -2.4707 -0.3613  0.9693
  814MOL0     H 9879   9.970   4.068   1.944  0.0626  0.0458  1.1196
  814MOL0     H 9880   9.796   4.230   1.851 -0.8560  0.1375 -1.5786
  814MOL0     H 9881   9.682   4.095   1.848  0.3843 -4.1404 -2.1787
  814MOL0     H 9882   9.795   3.969   1.681 -1.6497  0.0989  3.4315
  814MOL0     H 9883   9.941   4.059   1.692  0.1055 -0.4183 -2.1686
  814MOL0     H 9884   9.680   4.137   1.546 -0.9496  4.6271 -3.0970
  814MOL0     H 9885   9.805   4.259   1.589  2.1451 -0.4525 -0.5792
  814MOL0     H 9886   9.978   4.025   1.280 -0.9755  1.0527 -0.9212
  814MOL0     H 9887   9.720   4.061   2.301 -0.5372 -0.8482  0.5783
  814MOL0     H 9888   9.859   3.962   2.627 -0.5837 -0.9173  0.3604
  814MOL0     H 9889   9.724   4.029   2.540 -3.8946 -3.6084  0.0992
  814MOL0     H 9890   9.722   3.863   2.566  2.6408 -1.9770  1.8138
  815MOL0     O 9891   5.971   0.951   5.298 -0.2423 -0.1297  0.1772
  815MOL0     C 9892   5.948   0.979   5.182 -0.1609  0.1192  0.2021
  815MOL0     O 9893   5.954   1.105   5.136 -0.0658  0.5002 -0.0982
  815MOL0     C 9894   5.964   1.211   5.229 -0.0492 -0.5466  0.7756
  815MOL0     C 9895   5.903   1.230   5.355  0.1409 -0.2765 -0.2393
  815MOL0     C 9896   5.927   1.343   5.443 -0.6263 -0.5701 -0.4831
  815MOL0     C 9897   6.009   1.450   5.400 -0.0403 -0.4986 -0.5200
  815MOL0     O 9898   6.029   1.555   5.477  0.3175  0.2017 -0.1735
  815MOL0     C 9899   6.160   1.616   5.481  0.5303 -0.0877  0.1909
  815MOL0     C 9900   6.254   1.536   5.564  0.3774  0.2207  0.2860
  815MOL0     C 9901   6.267   1.576   5.711  0.0698 -0.4866 -0.2925
  815MOL0     C 9902   6.384   1.508   5.773 -0.0957 -0.7480 -0.0837
  815MOL0     C 9903   6.418   1.591   5.898  0.8229 -0.6850 -0.2440
  815MOL0     C 9904   6.515   1.515   5.991 -0.3767  0.1148  0.3728
  815MOL0     C 9905   6.509   1.570   6.134  0.7016  0.1222 -0.1679
  815MOL0     C 9906   6.619   1.499   6.221 -0.6166  1.5471  0.1793
  815MOL0     N 9907   6.620   1.540   6.360  0.3504  0.0738  0.2519
  815MOL0     C 9908   6.718   1.513   6.449 -0.6937  0.5066 -0.7747
  815MOL0     C 9909   6.670   1.575   6.559  0.1792 -0.4924  0.3102
  815MOL0     C 9910   6.759   1.559   6.680 -0.2876  0.7865  0.6773
  815MOL0     C 9911   6.897   1.640   6.673  0.3960 -0.7469  0.6721
  815MOL0     C 9912   6.950   1.668   6.818  0.0072 -0.2294  0.1537
  815MOL0     C 9913   7.043   1.791   6.839  0.2659 -0.1378  0.5526
  815MOL0     O 9914   7.152   1.788   6.750 -0.1105 -0.2130 -0.3996
  815MOL0     C 9915   7.273   1.830   6.797  0.7198  0.0954  0.4376
  815MOL0     C 9916   7.382   1.775   6.741  0.0845  0.5000 -0.0262
  815MOL0     C 9917   7.516   1.828   6.769  0.4974  1.1256  0.6035
  815MOL0     C 9918   7.535   1.929   6.866  0.3493  0.6847 -0.9527
  815MOL0     C 9919   7.675   1.951   6.909  0.7935  0.5825 -0.3230
  815MOL0     O 9920   7.763   1.863   6.869 -0.0136  0.5008  0.4420
  815MOL0     C 9921   7.887   1.892   6.886  0.2667 -1.3910 -0.5337
  815MOL0     C 9922   7.953   2.000   6.822 -0.3912  0.0440  0.9662
  815MOL0     C 9923   8.088   2.025   6.825 -0.7265 -0.1135  0.4547
  815MOL0     C 9924   8.174   1.946   6.908 -0.0421 -0.3171  0.1119
  815MOL0     O 9925   8.313   1.949   6.909  0.4008  0.9093 -0.2771
  815MOL0     C 9926   8.380   2.064   6.850  0.8645  0.0376  0.8992
  815MOL0     C 9927   8.526   2.079   6.908  0.0631 -0.9568  0.5113
  815MOL0     C 9928   8.537   2.127   7.054  0.8693  0.7208  0.3007
  815MOL0     C 9929   8.687   2.132   7.095 -1.1170 -0.8527  0.3727
  815MOL0     C 9930   8.696   2.129   7.241 -0.1069 -0.1923 -0.5612
  815MOL0     C 9931   8.838   2.177   7.284  1.2057 -0.0463 -0.4841
  815MOL0     C 9932   8.890   2.133   7.419 -0.1868  1.0845 -0.0784
  815MOL0     C 9933   9.032   2.187   7.463 -0.7115  0.0516 -0.6950
  815MOL0    Cl 9934   9.166   2.121   7.371  0.1401  0.3733  0.4262
  815MOL0     C 9935   8.106   1.857   6.991  0.0459 -0.7706 -0.2109
  815MOL0     C 9936   7.970   1.827   6.979 -0.7088  0.2892  0.3304
  815MOL0     O 9937   7.698   2.047   6.991  1.3866  0.0801  0.9192
  815MOL0     C 9938   7.421   1.982   6.927  0.4489  0.2791  0.9721
  815MOL0     C 9939   7.287   1.937   6.881  0.0521 -0.9685  0.0688
  815MOL0     N 9940   6.562   1.652   6.535  0.2327  0.8474  0.6474
  815MOL0     N 9941   6.542   1.635   6.411  0.6543 -0.9350 -0.5301
  815MOL0     C 9942   6.054   1.441   5.267  0.0840 -0.6975 -0.2291
  815MOL0     C 9943   6.044   1.323   5.186 -0.0039  0.5068  0.1505
  815MOL0     C 9944   5.882   0.887   5.087 -0.4355  0.1366  0.4264
  815MOL0     C 9945   5.780   0.936   5.002 -0.1481 -0.4416 -0.2459
  815MOL0     C 9946   5.706   0.857   4.917 -0.1673  0.6843 -0.0900
  815MOL0     C 9947   5.740   0.722   4.901 -0.0900 -0.3994 -0.1399
  815MOL0     O 9948   5.670   0.642   4.814 -0.3656  0.8258 -0.8103
  815MOL0     C 9949   5.737   0.533   4.752  0.8598  0.1156  0.1651
  815MOL0     C 9950   5.668   0.481   4.625 -0.6456  0.1039  0.1061
  815MOL0     C 9951   5.527   0.441   4.666  1.1851 -0.5414  0.4904
  815MOL0     C 9952   5.464   0.338   4.574  0.3704  0.5351 -0.2966
  815MOL0     C 9953   5.487   0.203   4.612 -0.6207  0.6861  0.8295
  815MOL0     C 9954   5.499   0.089   4.645  0.1923  0.3620  0.2225
  815MOL0     C 9955   5.839   0.672   4.983  0.2219 -0.3827  0.6209
  815MOL0     C 9956   5.911   0.750   5.080 -0.4101 -0.8310  0.8221
  815MOL0     C 9957   6.040   0.696   5.157  0.3363 -0.6570 -0.2497
  815MOL0     H 9958   5.834   1.153   5.389  1.6902 -1.8884 -0.5964
  815MOL0     H 9959   5.895   1.329   5.545 -1.5360  0.4635 -0.5985
  815MOL0     H 9960   6.201   1.631   5.381 -0.4317  2.3590  0.0937
  815MOL0     H 9961   6.148   1.715   5.526  2.7492 -0.4365  1.7522
  815MOL0     H 9962   6.348   1.536   5.509 -0.5273 -3.6701 -1.6551
  815MOL0     H 9963   6.224   1.431   5.555  2.7776 -0.3334 -2.8529
  815MOL0     H 9964   6.177   1.530   5.754  0.4963  1.0959  2.5600
  815MOL0     H 9965   6.263   1.684   5.727  2.2957 -0.0394 -2.2001
  815MOL0     H 9966   6.359   1.403   5.790 -1.2965 -0.4138  0.2929
  815MOL0     H 9967   6.471   1.505   5.707  2.1689  2.1470  2.4651
  815MOL0     H 9968   6.446   1.691   5.864  2.6901 -1.3137 -0.6717
  815MOL0     H 9969   6.319   1.584   5.945  1.0248  2.0674  0.7359
  815MOL0     H 9970   6.489   1.410   5.979  0.1990  0.2294 -2.6005
  815MOL0     H 9971   6.617   1.512   5.953 -0.3313  1.8892  0.2550
  815MOL0     H 9972   6.414   1.535   6.175  1.0675 -0.9086 -0.1563
  815MOL0     H 9973   6.505   1.679   6.140 -2.0216  0.0849 -0.0870
  815MOL0     H 9974   6.599   1.391   6.213  1.7074  1.1225 -0.7255
  815MOL0     H 9975   6.714   1.519   6.172 -0.0101 -1.7015 -0.2398
  815MOL0     H 9976   6.805   1.449   6.438 -0.1299  1.4620 -1.9622
  815MOL0     H 9977   6.710   1.602   6.767 -0.4520  3.1376 -0.4932
  815MOL0     H 9978   6.772   1.452   6.697 -0.3143  1.0461  2.4344
  815MOL0     H 9979   6.978   1.593   6.617 -0.3290 -0.0267 -1.0383
  815MOL0     H 9980   6.879   1.738   6.627  0.8859 -0.5806  0.8348
  815MOL0     H 9981   6.988   1.574   6.860  0.2500 -1.7280 -3.1435
  815MOL0     H 9982   6.864   1.686   6.883 -1.6760 -0.5509 -1.8748
  815MOL0     H 9983   7.075   1.796   6.943  3.0043 -1.7275 -0.1131
  815MOL0     H 9984   6.985   1.882   6.821 -0.1016 -0.8160 -2.1502
  815MOL0     H 9985   7.359   1.692   6.674 -1.9683  0.5607  0.5412
  815MOL0     H 9986   7.605   1.786   6.723 -0.5418 -3.1144  2.0488
  815MOL0     H 9987   7.896   2.074   6.766  1.0576  0.3590 -0.1445
  815MOL0     H 9988   8.137   2.103   6.768 -0.6466  1.7713  2.9492
  815MOL0     H 9989   8.386   2.047   6.742  0.8778 -1.2020  1.0754
  815MOL0     H 9990   8.329   2.157   6.876  2.7971  1.2853  0.4037
  815MOL0     H 9991   8.570   1.982   6.886  0.6351 -0.6707  0.3606
  815MOL0     H 9992   8.575   2.152   6.843 -1.1239 -0.8547 -0.2907
  815MOL0     H 9993   8.478   2.217   7.071 -0.3123 -0.2880  1.8120
  815MOL0     H 9994   8.487   2.050   7.114 -0.4049  0.1601 -1.4097
  815MOL0     H 9995   8.721   2.223   7.045 -2.4159 -1.5234 -1.8919
  815MOL0     H 9996   8.740   2.048   7.049 -2.2445 -0.0167 -2.6906
  815MOL0     H 9997   8.694   2.023   7.267  0.6964  0.0266  0.4669
  815MOL0     H 9998   8.619   2.185   7.294  0.9571 -0.8217  1.7868
  815MOL0     H 9999   8.908   2.139   7.210  1.8976  3.4199 -1.8032
  815MOL0     H10000   8.833   2.286   7.272  2.0928 -0.0259 -0.6856
  815MOL0     H10001   8.909   2.026   7.409  0.0348  1.2780 -2.2522
  815MOL0     H10002   8.811   2.153   7.492 -1.4819 -0.4945 -0.9763
  815MOL0     H10003   9.037   2.296   7.460  1.3945  0.1696  2.6239
  815MOL0     H10004   9.050   2.163   7.568  2.7293 -0.4687 -1.2774
  815MOL0     H10005   8.160   1.801   7.067 -1.7607 -0.7571  1.1357
  815MOL0     H10006   7.937   1.743   7.040 -0.0827 -1.5626 -1.7714
  815MOL0     H10007   7.426   2.069   6.992 -0.8873  2.9130 -2.1495
  815MOL0     H10008   7.197   1.990   6.911  0.6715  0.3933 -0.4021
  815MOL0     H10009   6.109   1.527   5.228 -2.7867  1.0638 -0.7145
  815MOL0     H10010   6.103   1.314   5.095 -3.0968  0.5515 -2.0092
  815MOL0     H10011   5.755   1.041   5.013 -3.9113 -1.2995  1.1021
  815MOL0     H10012   5.621   0.886   4.856  1.9355  2.7690 -2.2761
  815MOL0     H10013   5.735   0.452   4.825  2.1011 -0.4727 -0.4239
  815MOL0     H10014   5.839   0.554   4.720  0.7678 -0.4091 -0.4915
  815MOL0     H10015   5.729   0.394   4.598 -3.1736 -1.9293  0.5370
  815MOL0     H10016   5.669   0.551   4.541 -1.8293  0.5610  0.4523
  815MOL0     H10017   5.463   0.529   4.658  2.5508  0.6090  1.5425
  815MOL0     H10018   5.519   0.410   4.771 -1.3349 -0.5352  0.3466
  815MOL0     H10019   5.357   0.358   4.579  0.2698 -0.0914  0.1479
  815MOL0     H10020   5.491   0.357   4.470 -1.6609 -1.0639 -1.1842
  815MOL0     H10021   5.501  -0.014   4.676 -2.1745  0.3314  0.5216
  815MOL0     H10022   5.875   0.569   4.981 -0.7932 -0.7439 -1.1345
  815MOL0     H10023   6.012   0.699   5.263 -0.8272  2.5994 -0.5581
  815MOL0     H10024   6.056   0.589   5.136 -3.6785 -2.2831  3.4280
  815MOL0     H10025   6.131   0.755   5.141  0.0731 -0.0134  0.5789
  816MOL0     O10026   3.502   4.128   0.315  0.4977  0.0078 -0.3754
  816MOL0     C10027   3.459   4.237   0.346 -0.0198 -0.0112 -0.0532
  816MOL0     O10028   3.342   4.286   0.307 -0.0031 -0.0651  0.4937
  816MOL0     C10029   3.247   4.199   0.245  0.2856 -0.9457  0.5058
  816MOL0     C10030   3.227   4.058   0.278 -0.8103 -0.3473 -0.0807
  816MOL0     C10031   3.119   3.986   0.232  0.0280 -0.7421 -0.0169
  816MOL0     C10032   3.027   4.055   0.144  0.5135  0.9091  0.0453
  816MOL0     O10033   2.922   3.976   0.103  0.3948  0.1609 -0.0966
  816MOL0     C10034   2.786   4.029   0.131 -0.8661 -0.1378 -0.5696
  816MOL0     C10035   2.706   3.937   0.234  0.1441  0.8952  0.9933
  816MOL0     C10036   2.677   3.796   0.187  0.0485  0.2156  0.1739
  816MOL0     C10037   2.565   3.805   0.089 -0.6710 -1.1206 -0.5520
  816MOL0     C10038   2.525   3.673   0.023  0.9081  0.4631  0.6942
  816MOL0     C10039   2.480   3.568   0.120 -1.1932  0.1497  1.7096
  816MOL0     C10040   2.365   3.610   0.215 -0.4041  0.0251  0.5051
  816MOL0     C10041   2.331   3.502   0.322  0.5161 -0.1329  1.1549
  816MOL0     N10042   2.310   3.373   0.268 -0.2146 -0.2025  0.0897
  816MOL0     C10043   2.196   3.340   0.202 -0.3731 -0.3454 -0.0929
  816MOL0     C10044   2.202   3.219   0.161 -1.1743  0.4964 -0.6114
  816MOL0     C10045   2.096   3.164   0.080 -0.2731  0.2400  0.1759
  816MOL0     C10046   2.146   3.082  -0.032 -0.7233  0.2625  0.4229
  816MOL0     C10047   2.039   2.992  -0.093 -0.3125 -0.6858  1.1082
  816MOL0     C10048   2.042   3.002  -0.237 -0.1447 -0.1054 -0.3208
  816MOL0     O10049   1.932   2.922  -0.288 -0.2245 -0.3110  0.5714
  816MOL0     C10050   1.898   2.935  -0.424 -0.4829 -0.0119 -0.7919
  816MOL0     C10051   1.771   2.891  -0.464 -0.5087 -0.0973  0.0863
  816MOL0     C10052   1.737   2.898  -0.599 -0.5992 -0.1474  0.6218
  816MOL0     C10053   1.824   2.960  -0.691 -0.5108 -0.9122 -0.7674
  816MOL0     C10054   1.786   2.981  -0.836  0.7833  0.0823 -0.6080
  816MOL0     O10055   1.675   2.919  -0.887  0.1059 -0.5170  0.4613
  816MOL0     C10056   1.657   2.916  -1.024  0.1024 -0.3308  0.0641
  816MOL0     C10057   1.529   2.925  -1.075 -0.1331  0.1697  0.0318
  816MOL0     C10058   1.507   2.892  -1.212 -0.4316  0.3948 -0.4879
  816MOL0     C10059   1.611   2.852  -1.291 -0.4877  0.0388 -1.1332
  816MOL0     O10060   1.586   2.846  -1.428 -0.4029 -0.4356 -0.5921
  816MOL0     C10061   1.671   2.766  -1.505  0.0403 -0.4077  0.8107
  816MOL0     C10062   1.599   2.640  -1.560  0.1281  0.2004 -0.1965
  816MOL0     C10063   1.711   2.554  -1.615 -0.0344 -0.7286 -0.7138
  816MOL0     C10064   1.659   2.422  -1.675 -0.5902  0.1058  0.6031
  816MOL0     C10065   1.762   2.318  -1.712 -0.3182  0.3449  0.7588
  816MOL0     C10066   1.690   2.201  -1.774 -0.1470 -0.2984 -0.0568
  816MOL0     C10067   1.745   2.139  -1.888 -0.4823  0.4987 -0.6297
  816MOL0     C10068   1.891   2.089  -1.865  0.3142 -0.2321 -0.7523
  816MOL0    Cl10069   1.919   1.956  -1.977 -0.1792 -0.4432 -0.0167
  816MOL0     C10070   1.741   2.830  -1.241 -0.3187 -0.9163 -0.2360
  816MOL0     C10071   1.763   2.876  -1.102 -0.1262 -0.2360  1.0524
  816MOL0     O10072   1.859   3.055  -0.902  0.1214 -0.4663 -0.8485
  816MOL0     C10073   1.953   2.995  -0.653  0.0126  0.6190  0.4881
  816MOL0     C10074   1.989   2.980  -0.517 -1.2093  0.1748 -0.7585
  816MOL0     N10075   2.319   3.162   0.197  0.5824  0.6108 -0.5963
  816MOL0     N10076   2.378   3.256   0.273  0.4755 -0.7368  0.3107
  816MOL0     C10077   3.049   4.181   0.106  0.0336 -0.7572  0.2491
  816MOL0     C10078   3.152   4.257   0.155  0.6545 -0.2323  0.0552
  816MOL0     C10079   3.552   4.323   0.422  0.6955  0.6062  0.7271
  816MOL0     C10080   3.495   4.452   0.447 -0.1085  0.5418  0.5145
  816MOL0     C10081   3.552   4.532   0.541 -0.3368 -0.0121 -0.6451
  816MOL0     C10082   3.679   4.495   0.601  0.3169 -0.0776 -0.5228
  816MOL0     O10083   3.729   4.577   0.698 -0.0687  0.2079 -0.0777
  816MOL0     C10084   3.854   4.537   0.751  0.2855  0.2545  0.2112
  816MOL0     C10085   3.895   4.641   0.855  0.2712  0.4055 -0.3927
  816MOL0     C10086   3.791   4.665   0.966 -0.9371  0.4627  0.5475
  816MOL0     C10087   3.832   4.755   1.087  0.8278  0.1766  0.9042
  816MOL0     C10088   3.894   4.881   1.043  0.0972  0.5483 -0.1336
  816MOL0     C10089   3.934   4.994   1.030  0.3412  0.2336  0.3579
  816MOL0     C10090   3.736   4.371   0.566  0.3302  0.7438  0.3488
  816MOL0     C10091   3.674   4.287   0.471 -0.3542  0.1472  0.2844
  816MOL0     C10092   3.741   4.149   0.472  0.6749 -0.3013 -0.5378
  816MOL0     H10093   3.293   4.006   0.346  0.6487 -0.2144 -1.3424
  816MOL0     H10094   3.081   3.886   0.253 -1.8798 -0.8677 -3.3802
  816MOL0     H10095   2.776   4.137   0.143  5.0820  0.5183  1.7172
  816MOL0     H10096   2.734   4.013   0.035 -1.0107 -0.6376 -0.4125
  816MOL0     H10097   2.620   3.983   0.284 -0.0450 -0.6126  2.1323
  816MOL0     H10098   2.769   3.929   0.323  1.0782 -1.1034  0.2147
  816MOL0     H10099   2.652   3.743   0.280  1.2175  0.6725  0.7723
  816MOL0     H10100   2.766   3.749   0.144 -0.3142  0.4494 -0.8686
  816MOL0     H10101   2.480   3.858   0.133  3.0650  2.1836  3.6703
  816MOL0     H10102   2.594   3.859  -0.002  3.5525  0.1491  1.3065
  816MOL0     H10103   2.446   3.696  -0.049  0.3922  2.7041  1.9018
  816MOL0     H10104   2.620   3.640  -0.022 -0.5578 -1.0079 -1.5167
  816MOL0     H10105   2.460   3.481   0.057 -0.0818  0.1647  1.3170
  816MOL0     H10106   2.563   3.544   0.187 -0.1914 -2.3357 -0.2837
  816MOL0     H10107   2.273   3.636   0.162 -0.5242  1.4626  1.3595
  816MOL0     H10108   2.388   3.708   0.257  1.4101  0.8474 -2.1453
  816MOL0     H10109   2.415   3.499   0.393 -0.1696  0.9303  2.0347
  816MOL0     H10110   2.247   3.537   0.382 -0.8161 -0.7142 -0.2949
  816MOL0     H10111   2.109   3.405   0.198  1.5043  2.4929  1.2201
  816MOL0     H10112   2.040   3.107   0.155 -2.1284  1.3345 -0.3083
  816MOL0     H10113   2.033   3.246   0.045 -0.4739 -1.0621 -2.7784
  816MOL0     H10114   2.177   3.152  -0.110  1.0868  0.8423  1.6253
  816MOL0     H10115   2.228   3.015  -0.004  1.6004  1.8981 -2.0195
  816MOL0     H10116   1.942   3.018  -0.050 -0.3842 -2.1098  1.8735
  816MOL0     H10117   2.050   2.886  -0.067 -0.3116 -1.2387 -0.9576
  816MOL0     H10118   2.136   2.974  -0.285 -0.5706 -2.0168 -0.1339
  816MOL0     H10119   2.003   3.102  -0.258 -4.6200 -1.9304 -2.0726
  816MOL0     H10120   1.711   2.831  -0.396 -0.2799 -1.5387 -0.9250
  816MOL0     H10121   1.636   2.864  -0.620 -0.8311  0.3711  0.8738
  816MOL0     H10122   1.447   2.959  -1.013  0.6840  2.2438  0.0408
  816MOL0     H10123   1.410   2.909  -1.257 -0.4845 -0.4759 -0.7137
  816MOL0     H10124   1.692   2.831  -1.590 -1.7673  1.6178  1.7959
  816MOL0     H10125   1.767   2.745  -1.458 -0.5166  1.6827  3.1310
  816MOL0     H10126   1.541   2.584  -1.486 -0.1871 -1.1814 -1.4398
  816MOL0     H10127   1.528   2.673  -1.637  0.5898  0.3425 -0.5667
  816MOL0     H10128   1.770   2.608  -1.689 -1.8102 -1.5013 -2.8144
  816MOL0     H10129   1.774   2.524  -1.532  0.2810 -0.5688 -0.8949
  816MOL0     H10130   1.595   2.456  -1.757 -1.2574 -0.7940  0.7404
  816MOL0     H10131   1.597   2.376  -1.598 -1.1146 -1.7099 -0.8386
  816MOL0     H10132   1.826   2.263  -1.642  2.1238 -0.6154 -2.0448
  816MOL0     H10133   1.825   2.368  -1.786  1.1885  1.2738  2.5858
  816MOL0     H10134   1.670   2.118  -1.705 -2.1419 -1.4011 -1.8421
  816MOL0     H10135   1.589   2.225  -1.810  0.6255  2.5524 -0.5448
  816MOL0     H10136   1.742   2.213  -1.968 -0.7893 -1.9086 -3.0147
  816MOL0     H10137   1.683   2.058  -1.927  0.0025  0.8262 -2.1552
  816MOL0     H10138   1.964   2.171  -1.860  2.0143 -1.6919 -0.7274
  816MOL0     H10139   1.897   2.041  -1.767 -0.1378  1.6023  0.2225
  816MOL0     H10140   1.830   2.791  -1.290 -0.3810  0.2364 -1.3092
  816MOL0     H10141   1.862   2.864  -1.060  0.3343 -2.2058 -0.4345
  816MOL0     H10142   2.015   3.037  -0.732 -2.3640  0.9886 -1.2588
  816MOL0     H10143   2.086   3.010  -0.481  0.0213 -4.9978  0.9867
  816MOL0     H10144   2.983   4.224   0.031  3.0596 -0.0547 -2.1923
  816MOL0     H10145   3.160   4.361   0.125 -1.6360 -0.3312 -1.0815
  816MOL0     H10146   3.399   4.493   0.415 -0.7145 -0.4200  1.0416
  816MOL0     H10147   3.504   4.626   0.567  1.0606  0.8007 -0.8997
  816MOL0     H10148   3.921   4.526   0.665 -1.7419  4.1393 -2.1861
  816MOL0     H10149   3.848   4.439   0.800 -1.7339  0.6030  0.7515
  816MOL0     H10150   3.923   4.736   0.808  1.7236  0.1858 -0.0399
  816MOL0     H10151   3.987   4.600   0.898  0.3490 -0.8010 -1.6494
  816MOL0     H10152   3.750   4.576   1.015  0.8932 -2.7673 -3.1696
  816MOL0     H10153   3.698   4.704   0.923 -0.5164 -0.0938 -0.9551
  816MOL0     H10154   3.740   4.783   1.139  0.8987 -0.6256  1.4693
  816MOL0     H10155   3.893   4.680   1.137  3.6054 -0.7594 -3.3727
  816MOL0     H10156   3.959   5.097   1.015  0.6358  0.3746  1.6616
  816MOL0     H10157   3.825   4.332   0.615 -0.5872 -1.9605  0.0428
  816MOL0     H10158   3.772   4.116   0.572 -2.6587 -0.4618  0.5379
  816MOL0     H10159   3.676   4.067   0.442  1.0582 -1.3464  1.3409
  816MOL0     H10160   3.829   4.151   0.406 -0.2368  1.1558 -1.7810
  817MOL0     O10161   4.896   2.960   3.656 -0.0305 -0.5294  0.3670
  817MOL0     C10162   4.917   3.009   3.762  0.2245 -0.3928 -0.0448
  817MOL0     O10163   4.980   2.949   3.867  0.1362 -0.1949 -0.0726
  817MOL0     C10164   5.028   2.817   3.860 -1.0651 -0.8882  0.4912
  817MOL0     C10165   5.023   2.733   3.751 -0.9740 -0.0686  0.6841
  817MOL0     C10166   5.088   2.609   3.750 -0.3645  0.9237  0.5430
  817MOL0     C10167   5.150   2.569   3.869  1.0108  0.6037 -0.1449
  817MOL0     O10168   5.216   2.445   3.885 -0.0458 -0.2940 -0.9682
  817MOL0     C10169   5.149   2.342   3.819  0.2033  0.7190 -0.3608
  817MOL0     C10170   5.199   2.220   3.894 -0.0097 -0.1704 -0.5052
  817MOL0     C10171   5.131   2.102   3.828  0.1130 -0.2775 -1.0574
  817MOL0     C10172   5.194   1.964   3.855  0.6963  0.1174  0.2723
  817MOL0     C10173   5.098   1.854   3.904 -0.2566 -0.0705  0.5176
  817MOL0     C10174   5.172   1.719   3.940  0.5527 -0.7691 -0.0510
  817MOL0     C10175   5.061   1.624   4.001  0.4348 -0.2066 -0.1281
  817MOL0     C10176   5.066   1.474   3.949 -0.8392 -0.4165  0.4121
  817MOL0     N10177   5.053   1.457   3.804 -0.1993 -0.2869  0.1801
  817MOL0     C10178   5.153   1.477   3.704  0.5036 -0.1203  0.6842
  817MOL0     C10179   5.075   1.466   3.592 -0.1088  0.3007  0.3367
  817MOL0     C10180   5.132   1.481   3.456 -0.4826 -0.5919  0.8591
  817MOL0     C10181   5.213   1.370   3.389  1.2872 -0.4403 -0.5170
  817MOL0     C10182   5.135   1.230   3.367 -0.6658 -0.4078 -0.4185
  817MOL0     C10183   5.022   1.238   3.269 -0.1028 -0.1631 -0.0157
  817MOL0     O10184   5.008   1.112   3.205  0.3647 -0.2394 -0.0406
  817MOL0     C10185   4.885   1.076   3.155 -0.8280 -0.4328 -0.6569
  817MOL0     C10186   4.788   1.161   3.108 -0.1722 -0.2688 -0.9269
  817MOL0     C10187   4.662   1.129   3.070 -1.4071  1.1627  0.6552
  817MOL0     C10188   4.627   0.986   3.075  0.7316  0.5733 -0.6914
  817MOL0     C10189   4.502   0.935   3.031  1.0642 -0.0050  0.0490
  817MOL0     O10190   4.388   0.988   3.087  0.0819  0.3020  0.2604
  817MOL0     C10191   4.263   0.934   3.064 -0.7431  0.2776 -0.4372
  817MOL0     C10192   4.151   1.020   3.092  0.0414 -0.7145  0.3381
  817MOL0     C10193   4.020   0.975   3.073 -0.6334  0.2925 -0.1450
  817MOL0     C10194   3.999   0.849   3.024 -0.0254  0.2086 -0.4423
  817MOL0     O10195   3.868   0.802   3.006  0.2269 -0.0508  0.9463
  817MOL0     C10196   3.835   0.664   2.972 -0.2265 -0.6561 -0.6825
  817MOL0     C10197   3.673   0.666   2.963  1.1430  0.0215 -0.7976
  817MOL0     C10198   3.602   0.640   3.096 -0.5103 -0.3616 -0.3606
  817MOL0     C10199   3.582   0.481   3.113 -0.5275 -0.7871  0.4174
  817MOL0     C10200   3.527   0.455   3.251  0.3572 -0.5934  0.3591
  817MOL0     C10201   3.562   0.306   3.279  0.5966 -0.2845  0.3146
  817MOL0     C10202   3.483   0.202   3.199  0.2798  0.6051  1.4931
  817MOL0     C10203   3.531   0.067   3.222 -0.5479  0.7660 -0.1490
  817MOL0    Cl10204   3.699   0.041   3.174  0.0886  0.0732  0.4419
  817MOL0     C10205   4.112   0.756   3.025 -0.5889  0.1867 -0.8800
  817MOL0     C10206   4.242   0.793   3.057 -0.2010  0.6364 -0.1644
  817MOL0     O10207   4.508   0.856   2.943 -0.6240  0.3330  0.1439
  817MOL0     C10208   4.733   0.895   3.104  0.7180 -0.7779  0.0529
  817MOL0     C10209   4.855   0.940   3.151  0.7606  0.7761 -0.2331
  817MOL0     N10210   4.950   1.439   3.620  0.0053  1.7421  1.1085
  817MOL0     N10211   4.934   1.436   3.747  0.6595  0.7857 -0.7021
  817MOL0     C10212   5.134   2.644   3.985 -0.2100  0.1989  0.7238
  817MOL0     C10213   5.072   2.766   3.985 -0.5179 -0.6886  1.0865
  817MOL0     C10214   4.874   3.144   3.786 -0.5311  0.4212 -0.2439
  817MOL0     C10215   4.739   3.181   3.761 -0.9814  0.0400  0.6346
  817MOL0     C10216   4.702   3.311   3.781  0.7989 -0.3889 -0.4604
  817MOL0     C10217   4.787   3.400   3.843 -0.3019 -0.7867 -0.1023
  817MOL0     O10218   4.760   3.534   3.881 -0.1136  0.3171  0.0723
  817MOL0     C10219   4.619   3.585   3.852 -0.1322  0.6033  0.2077
  817MOL0     C10220   4.593   3.690   3.965 -0.4178  0.9840 -0.0844
  817MOL0     C10221   4.586   3.642   4.113  0.3300  0.2873  0.6957
  817MOL0     C10222   4.590   3.760   4.209  0.7475 -0.2968 -0.0361
  817MOL0     C10223   4.486   3.856   4.175  0.3057  0.3080 -0.5069
  817MOL0     C10224   4.400   3.929   4.147  0.6788 -0.2008  0.4326
  817MOL0     C10225   4.905   3.361   3.890  0.1537 -0.1282  0.2588
  817MOL0     C10226   4.955   3.247   3.838  0.1869  0.4703 -0.3474
  817MOL0     C10227   5.105   3.222   3.861  0.6329  0.9394  0.2518
  817MOL0     H10228   4.972   2.752   3.657  1.3306 -1.3924 -0.9121
  817MOL0     H10229   5.097   2.554   3.657 -2.9810  2.7964 -0.9725
  817MOL0     H10230   5.040   2.350   3.831 -0.1474 -1.1256 -1.8052
  817MOL0     H10231   5.170   2.344   3.712  2.6842  2.0993  0.0844
  817MOL0     H10232   5.178   2.221   4.002  2.6490 -2.2583  0.1523
  817MOL0     H10233   5.307   2.221   3.873  0.1446  4.2811 -0.3878
  817MOL0     H10234   5.127   2.100   3.719 -0.7941 -1.8876 -1.0280
  817MOL0     H10235   5.030   2.091   3.868  0.4770 -0.6253 -0.1997
  817MOL0     H10236   5.244   1.920   3.768 -1.3532 -2.4510  0.2825
  817MOL0     H10237   5.273   1.972   3.931 -0.2268  2.4791  1.0639
  817MOL0     H10238   5.047   1.897   3.990 -0.9282  0.8306 -0.3184
  817MOL0     H10239   5.022   1.841   3.827  0.0989  0.4380  0.0672
  817MOL0     H10240   5.214   1.684   3.844 -0.0404  0.8567 -0.9313
  817MOL0     H10241   5.250   1.741   4.013 -0.8800 -1.1465  1.6455
  817MOL0     H10242   4.961   1.660   3.975  0.2363 -0.5927  0.0959
  817MOL0     H10243   5.062   1.637   4.110  0.8540  1.4094 -0.2950
  817MOL0     H10244   5.166   1.431   3.962 -0.6260  0.5266  2.0977
  817MOL0     H10245   4.989   1.410   3.992  0.5872 -2.0823  0.6031
  817MOL0     H10246   5.259   1.497   3.715  0.5159 -0.5284  1.3695
  817MOL0     H10247   5.048   1.499   3.389  1.1433 -1.5794 -1.5663
  817MOL0     H10248   5.188   1.575   3.451  1.4156 -1.6760  0.7340
  817MOL0     H10249   5.237   1.404   3.288  0.1812 -0.2621 -0.7340
  817MOL0     H10250   5.311   1.364   3.438  0.3607  3.3662  2.2710
  817MOL0     H10251   5.088   1.189   3.456 -1.6844 -2.1753 -1.7148
  817MOL0     H10252   5.207   1.157   3.329  0.1481  1.2078 -2.1604
  817MOL0     H10253   5.041   1.319   3.198  0.9559  0.6306  1.1139
  817MOL0     H10254   4.931   1.252   3.328 -0.0716 -2.7103  0.7424
  817MOL0     H10255   4.817   1.264   3.094  1.0894 -0.7697 -2.2869
  817MOL0     H10256   4.577   1.191   3.046 -0.7888  2.0857  0.8124
  817MOL0     H10257   4.171   1.123   3.120 -1.9944  1.0933 -3.9241
  817MOL0     H10258   3.927   1.027   3.095 -3.3925 -3.8117 -1.0068
  817MOL0     H10259   3.892   0.641   2.882  0.1945 -0.9769 -0.3376
  817MOL0     H10260   3.872   0.596   3.049  2.3061  0.0991 -1.1664
  817MOL0     H10261   3.644   0.761   2.916 -2.6123 -0.5483 -0.0011
  817MOL0     H10262   3.641   0.601   2.881  1.2096  0.3063 -1.0507
  817MOL0     H10263   3.658   0.675   3.183 -1.2221  3.0483 -1.1625
  817MOL0     H10264   3.504   0.687   3.099  0.8405  3.0783 -3.0817
  817MOL0     H10265   3.683   0.440   3.109 -1.0731 -2.2979  1.4874
  817MOL0     H10266   3.527   0.440   3.027  1.8689 -1.5345 -0.8434
  817MOL0     H10267   3.420   0.476   3.242  0.3446  0.1746  1.9215
  817MOL0     H10268   3.573   0.515   3.330 -1.4195  1.5840 -0.1650
  817MOL0     H10269   3.670   0.294   3.278  0.6553  0.0702  1.4167
  817MOL0     H10270   3.528   0.290   3.382  1.1313  1.0297  0.7186
  817MOL0     H10271   3.497   0.232   3.095 -1.4317  0.6721  1.2669
  817MOL0     H10272   3.377   0.190   3.221 -0.1950  3.5276  1.2306
  817MOL0     H10273   3.517   0.046   3.329 -1.6478 -0.0378 -0.4431
  817MOL0     H10274   3.471  -0.001   3.161  1.8279 -2.0775  0.4304
  817MOL0     H10275   4.091   0.655   2.992 -0.6408  0.3557 -1.3679
  817MOL0     H10276   4.326   0.725   3.055 -0.7894 -0.1002 -0.4032
  817MOL0     H10277   4.726   0.789   3.082 -0.4113 -0.2233 -2.7236
  817MOL0     H10278   4.937   0.875   3.180 -0.0101  0.9972  2.7529
  817MOL0     H10279   5.168   2.606   4.081  0.7045 -1.8889 -0.3755
  817MOL0     H10280   5.072   2.831   4.073 -0.2434  1.4311 -0.4033
  817MOL0     H10281   4.670   3.118   3.706 -1.9725  1.3988  0.2501
  817MOL0     H10282   4.606   3.338   3.739  2.6310  1.8072 -3.6006
  817MOL0     H10283   4.541   3.508   3.846  0.4978  0.0251 -0.9312
  817MOL0     H10284   4.634   3.632   3.755  1.1651  1.7018  0.9069
  817MOL0     H10285   4.505   3.747   3.935  0.7885  3.4075  0.7550
  817MOL0     H10286   4.673   3.764   3.962  0.4106  0.1145  0.1181
  817MOL0     H10287   4.661   3.568   4.140 -1.9332 -1.9179  1.3500
  817MOL0     H10288   4.491   3.589   4.129 -0.7676  2.2565  0.9297
  817MOL0     H10289   4.557   3.729   4.308 -4.1148  3.0563 -0.2780
  817MOL0     H10290   4.695   3.789   4.202  0.7982 -0.8588 -3.4966
  817MOL0     H10291   4.327   4.002   4.117  1.5162  0.5017  0.0486
  817MOL0     H10292   4.974   3.431   3.937 -2.8288  4.8402 -1.9496
  817MOL0     H10293   5.141   3.138   3.801  0.6102  4.0953 -4.7567
  817MOL0     H10294   5.162   3.314   3.840 -0.7776  1.5226 -1.2585
  817MOL0     H10295   5.139   3.183   3.957  0.6669 -0.4103 -0.2972
  818MOL0     O10296   5.688   5.184   4.382 -0.8864  0.6595  0.3968
  818MOL0     C10297   5.611   5.206   4.284 -0.2118 -0.2672  0.3095
  818MOL0     O10298   5.480   5.227   4.302  0.1198  0.2412 -0.3822
  818MOL0     C10299   5.428   5.289   4.416  0.6393 -0.2425  1.0355
  818MOL0     C10300   5.501   5.382   4.502 -0.6860  0.7581  0.9214
  818MOL0     C10301   5.435   5.449   4.613  0.5509 -0.4507 -0.1261
  818MOL0     C10302   5.302   5.426   4.639  0.8268  0.2381 -0.4106
  818MOL0     O10303   5.253   5.505   4.735 -0.1115 -0.1665 -0.4223
  818MOL0     C10304   5.127   5.557   4.702 -0.6423  0.4678 -0.3493
  818MOL0     C10305   5.075   5.665   4.798 -0.0734  0.3599  0.0339
  818MOL0     C10306   5.171   5.783   4.808 -0.5715 -0.2414  1.1933
  818MOL0     C10307   5.119   5.888   4.901 -0.4622  0.7589 -0.4467
  818MOL0     C10308   5.240   5.941   4.993 -0.6912 -0.2807 -0.5759
  818MOL0     C10309   5.251   5.879   5.133  1.2649  0.8786  0.4597
  818MOL0     C10310   5.380   5.904   5.202  0.1298 -0.4053 -1.0236
  818MOL0     C10311   5.509   5.912   5.120  0.5573 -1.1371 -0.3631
  818MOL0     N10312   5.614   5.928   5.221 -0.0930  0.4626  0.5599
  818MOL0     C10313   5.738   5.869   5.214 -1.0615  0.5181 -0.0365
  818MOL0     C10314   5.791   5.865   5.335  0.2060 -0.1676  0.1723
  818MOL0     C10315   5.917   5.797   5.373  0.0591 -0.4767  0.1692
  818MOL0     C10316   6.047   5.868   5.317  0.5442 -0.1837 -0.3734
  818MOL0     C10317   6.164   5.846   5.414  0.9216  1.1984  0.4437
  818MOL0     C10318   6.295   5.907   5.367  0.0235  0.3382  0.5976
  818MOL0     O10319   6.394   5.892   5.471  0.3819 -0.3922  0.7058
  818MOL0     C10320   6.523   5.937   5.446 -0.4444 -0.3010 -1.0073
  818MOL0     C10321   6.546   6.038   5.351  1.6638  0.6916  0.7701
  818MOL0     C10322   6.670   6.087   5.337 -0.8797 -0.7106  0.4633
  818MOL0     C10323   6.783   6.037   5.407  0.5587 -0.8973 -0.9429
  818MOL0     C10324   6.919   6.098   5.396 -0.2074 -0.1968  0.2267
  818MOL0     O10325   7.028   6.065   5.473  0.4154  0.0275  0.2239
  818MOL0     C10326   7.155   6.108   5.430 -0.0327  0.3473  0.1080
  818MOL0     C10327   7.193   6.061   5.306  0.1567  0.1799  0.2035
  818MOL0     C10328   7.310   6.101   5.250 -0.4666 -0.4433 -0.7620
  818MOL0     C10329   7.393   6.204   5.309  0.3912  1.0289 -0.0302
  818MOL0     O10330   7.504   6.268   5.256 -0.9141  0.7371 -0.6470
  818MOL0     C10331   7.559   6.208   5.131  0.0257 -0.3222  0.7107
  818MOL0     C10332   7.694   6.268   5.099 -0.2612 -0.0533 -0.2041
  818MOL0     C10333   7.809   6.204   5.176  0.4460 -0.3330  0.4269
  818MOL0     C10334   7.931   6.274   5.126  0.3367  0.0013  0.3746
  818MOL0     C10335   8.049   6.222   5.212 -0.0307 -0.4050  1.0190
  818MOL0     C10336   8.173   6.319   5.206 -0.4275 -0.2769  0.0552
  818MOL0     C10337   8.290   6.246   5.275 -0.6274 -0.1710 -0.0813
  818MOL0     C10338   8.400   6.329   5.326  0.2280  0.2781 -0.3043
  818MOL0    Cl10339   8.488   6.222   5.459  0.6371 -0.3188 -0.1581
  818MOL0     C10340   7.347   6.261   5.428 -0.0703  1.1258 -0.1027
  818MOL0     C10341   7.231   6.211   5.489  0.8986 -0.0131  0.4394
  818MOL0     O10342   6.923   6.172   5.295 -0.2079 -0.0524 -0.2221
  818MOL0     C10343   6.757   5.931   5.505 -0.2966 -0.0134 -0.3435
  818MOL0     C10344   6.623   5.880   5.512 -0.2264  0.5246  0.3295
  818MOL0     N10345   5.694   5.916   5.424  0.2839  0.0357 -0.1205
  818MOL0     N10346   5.592   5.960   5.353 -0.3502 -0.0205  0.2510
  818MOL0     C10347   5.225   5.334   4.562 -0.9215  0.1819  0.5416
  818MOL0     C10348   5.294   5.264   4.455  0.3207 -0.1932  0.5517
  818MOL0     C10349   5.653   5.225   4.142  0.7673  0.4185  0.7630
  818MOL0     C10350   5.586   5.326   4.064  0.6601 -0.0065  0.3776
  818MOL0     C10351   5.623   5.355   3.935 -0.6442  0.6859 -0.3517
  818MOL0     C10352   5.728   5.283   3.875  0.7064 -0.3306  0.1387
  818MOL0     O10353   5.765   5.309   3.743 -0.1242 -0.8519 -0.7102
  818MOL0     C10354   5.666   5.348   3.650  0.1842 -1.0570  0.3479
  818MOL0     C10355   5.699   5.496   3.607  0.2354  0.5103  1.1895
  818MOL0     C10356   5.845   5.531   3.565  1.3567  0.6103  0.4065
  818MOL0     C10357   5.828   5.666   3.493 -0.2335 -0.8233 -0.3814
  818MOL0     C10358   5.791   5.787   3.578 -0.4741  0.3193 -0.6586
  818MOL0     C10359   5.775   5.881   3.654  0.9917 -0.5793 -0.6528
  818MOL0     C10360   5.796   5.185   3.953 -0.3928 -1.2043 -0.0643
  818MOL0     C10361   5.761   5.163   4.085 -0.4997 -0.1467 -0.7434
  818MOL0     C10362   5.863   5.079   4.169  0.1499 -0.2346 -0.3133
  818MOL0     H10363   5.602   5.413   4.478  0.2043  0.0807  3.3998
  818MOL0     H10364   5.479   5.526   4.675 -3.1208  2.2793 -0.5483
  818MOL0     H10365   5.150   5.613   4.611 -0.3539  3.7031  1.5529
  818MOL0     H10366   5.051   5.482   4.678 -0.1764  0.4105 -1.7714
  818MOL0     H10367   5.072   5.619   4.897 -1.7368  0.3929  0.0254
  818MOL0     H10368   4.972   5.694   4.777  0.1472  1.7322  0.6962
  818MOL0     H10369   5.189   5.816   4.706 -3.0304 -2.1861  0.0391
  818MOL0     H10370   5.265   5.745   4.849 -0.2118 -0.1102  0.5084
  818MOL0     H10371   5.079   5.972   4.844 -4.0364 -1.2150 -1.1558
  818MOL0     H10372   5.047   5.846   4.971  1.1817  2.6679  2.6336
  818MOL0     H10373   5.331   5.937   4.932 -0.2750  3.2017 -0.3838
  818MOL0     H10374   5.224   6.048   5.010 -0.2710 -0.1488 -0.9803
  818MOL0     H10375   5.167   5.907   5.198  0.7783  0.0666  0.1943
  818MOL0     H10376   5.237   5.770   5.131  0.4133  0.9794  0.6669
  818MOL0     H10377   5.391   5.831   5.282  1.3613  3.0106  2.2483
  818MOL0     H10378   5.375   6.000   5.256 -2.3431  0.4392 -2.6075
  818MOL0     H10379   5.534   5.827   5.056  0.6538 -3.3339  2.4282
  818MOL0     H10380   5.496   6.008   5.069  2.9423 -0.6568 -0.1880
  818MOL0     H10381   5.780   5.824   5.125  0.2365 -2.8331  2.0367
  818MOL0     H10382   5.923   5.795   5.482 -0.7725  0.2008  0.2367
  818MOL0     H10383   5.919   5.697   5.330  0.0045 -0.2710 -0.3132
  818MOL0     H10384   6.061   5.833   5.214 -0.3017  1.8820 -1.2560
  818MOL0     H10385   6.021   5.974   5.302 -2.0361 -0.7928 -0.7934
  818MOL0     H10386   6.192   5.741   5.426  1.5388  1.1005 -1.4692
  818MOL0     H10387   6.141   5.896   5.508 -0.6984  0.5713  0.3998
  818MOL0     H10388   6.271   6.011   5.342 -1.5926 -0.6645 -2.5271
  818MOL0     H10389   6.328   5.851   5.280 -3.1328 -1.7541  0.5992
  818MOL0     H10390   6.467   6.076   5.287  1.6109 -1.2055 -0.3666
  818MOL0     H10391   6.682   6.168   5.267 -0.9154  1.3671  2.7364
  818MOL0     H10392   7.127   5.990   5.258  3.9286 -2.1921 -1.9460
  818MOL0     H10393   7.333   6.076   5.146  4.2091 -0.3613  0.0487
  818MOL0     H10394   7.571   6.100   5.141 -1.6303 -0.5107  1.0936
  818MOL0     H10395   7.490   6.222   5.047  0.1579 -0.7922  0.5242
  818MOL0     H10396   7.697   6.263   4.990  0.0387  0.5571 -0.2280
  818MOL0     H10397   7.690   6.376   5.113  3.8822  0.2537 -0.2250
  818MOL0     H10398   7.790   6.243   5.276 -1.5226 -1.7645  0.6798
  818MOL0     H10399   7.807   6.095   5.167  1.0582 -0.2573 -0.7870
  818MOL0     H10400   7.921   6.381   5.146  0.3073  0.4506 -1.7709
  818MOL0     H10401   7.955   6.262   5.020 -0.0190 -0.0700  0.3011
  818MOL0     H10402   8.071   6.119   5.183 -0.4479  0.2139 -1.7072
  818MOL0     H10403   8.021   6.228   5.318  0.4704 -0.5317  1.1608
  818MOL0     H10404   8.203   6.339   5.102  0.0873  3.0906  0.7281
  818MOL0     H10405   8.143   6.416   5.247 -0.1058  0.4296 -1.3233
  818MOL0     H10406   8.338   6.183   5.200 -2.9108 -1.0391 -0.9177
  818MOL0     H10407   8.259   6.188   5.362 -0.7139 -2.3386 -1.4770
  818MOL0     H10408   8.470   6.349   5.244 -0.5780  0.4390 -0.9613
  818MOL0     H10409   8.359   6.422   5.365  4.0217  0.7125  3.3360
  818MOL0     H10410   7.405   6.337   5.479  0.7332  2.1006 -2.3301
  818MOL0     H10411   7.203   6.239   5.590  3.1275 -0.7953  1.3215
  818MOL0     H10412   6.837   5.889   5.565 -0.1563 -0.0293 -0.5406
  818MOL0     H10413   6.600   5.809   5.591 -0.7069 -1.3563 -1.4160
  818MOL0     H10414   5.122   5.305   4.576 -1.0788 -0.5658 -1.7113
  818MOL0     H10415   5.236   5.198   4.391 -1.4607  3.3204 -1.7757
  818MOL0     H10416   5.516   5.390   4.118  0.4576  0.4579 -0.4151
  818MOL0     H10417   5.564   5.437   3.895 -0.2367  0.5711 -1.2142
  818MOL0     H10418   5.564   5.344   3.687  0.0152 -1.6965 -0.1683
  818MOL0     H10419   5.659   5.289   3.558 -0.0821 -0.9529  0.3008
  818MOL0     H10420   5.685   5.560   3.695  2.0261  2.1118  0.3921
  818MOL0     H10421   5.624   5.518   3.530  1.5877 -0.8784 -0.6216
  818MOL0     H10422   5.895   5.456   3.504  0.9325  1.3265 -0.8513
  818MOL0     H10423   5.914   5.545   3.649 -0.6600  1.8168  1.9605
  818MOL0     H10424   5.924   5.678   3.442 -1.1783 -3.5326 -3.1030
  818MOL0     H10425   5.751   5.650   3.417 -1.1978 -1.0123  0.6124
  818MOL0     H10426   5.751   5.959   3.722  3.2733  2.0476 -2.6238
  818MOL0     H10427   5.875   5.124   3.911  0.5130  1.7491 -3.1677
  818MOL0     H10428   5.929   5.031   4.096  1.1100  0.4068  0.1053
  818MOL0     H10429   5.921   5.153   4.224 -1.9245  1.0422  0.2854
  818MOL0     H10430   5.816   5.006   4.234 -0.7301  2.4988  2.3706
  819MOL0     O10431   9.610   3.400   5.158 -0.2842 -0.0980  0.3794
  819MOL0     C10432   9.546   3.491   5.112  0.1774  0.2532 -0.6995
  819MOL0     O10433   9.434   3.466   5.045 -0.2690 -0.4698  0.1479
  819MOL0     C10434   9.395   3.342   5.037  0.7404  1.0541 -0.6256
  819MOL0     C10435   9.310   3.291   5.140  0.1196  0.1472 -0.1673
  819MOL0     C10436   9.242   3.167   5.121 -0.3897  0.4521 -0.5057
  819MOL0     C10437   9.249   3.093   5.004 -0.1210  0.4778  1.2805
  819MOL0     O10438   9.173   2.980   4.988 -0.3205  0.2784 -0.1475
  819MOL0     C10439   9.099   2.979   4.869  0.6503 -0.2416  0.8269
  819MOL0     C10440   8.960   2.912   4.896  0.6544 -0.1076  0.6991
  819MOL0     C10441   8.892   2.867   4.759 -1.1832 -0.2133 -0.6220
  819MOL0     C10442   8.774   2.770   4.803 -0.2914 -0.7442 -0.1668
  819MOL0     C10443   8.667   2.749   4.696  0.2017 -0.0016  0.7076
  819MOL0     C10444   8.583   2.872   4.674  0.3686  0.1593  0.4443
  819MOL0     C10445   8.476   2.827   4.577 -0.1906  0.0203 -0.2195
  819MOL0     C10446   8.382   2.947   4.560 -0.0461 -0.5822 -0.7250
  819MOL0     N10447   8.327   2.987   4.684 -0.2598  0.5287  0.0696
  819MOL0     C10448   8.248   2.903   4.764 -0.0097  0.1316 -0.1483
  819MOL0     C10449   8.217   2.979   4.874 -0.6034 -0.4070  0.2005
  819MOL0     C10450   8.137   2.950   5.001 -0.1582  0.0264  0.1653
  819MOL0     C10451   8.222   2.872   5.103 -0.1466 -0.3818  0.5695
  819MOL0     C10452   8.135   2.827   5.223  0.6178  0.5155 -0.2757
  819MOL0     C10453   8.076   2.943   5.294  0.2400 -0.2101 -0.0200
  819MOL0     O10454   8.172   3.043   5.334 -0.4513  0.4267 -0.3871
  819MOL0     C10455   8.243   3.017   5.455  0.4064  0.1937  0.5162
  819MOL0     C10456   8.191   3.078   5.572 -0.2844  0.3952  0.6690
  819MOL0     C10457   8.257   3.061   5.691  0.0317 -0.8764 -0.4403
  819MOL0     C10458   8.371   2.978   5.699 -0.5489  0.1519 -0.3610
  819MOL0     C10459   8.425   2.949   5.836 -0.2909 -0.2385 -0.4960
  819MOL0     O10460   8.562   2.920   5.843 -0.5815  0.4688  0.4911
  819MOL0     C10461   8.625   2.907   5.968 -0.2748  1.0639  0.3796
  819MOL0     C10462   8.617   3.013   6.060  0.2078  0.2348 -0.6302
  819MOL0     C10463   8.720   3.008   6.166 -0.7677  0.4368 -0.0685
  819MOL0     C10464   8.806   2.893   6.180  0.1243  0.8845  1.6232
  819MOL0     O10465   8.893   2.860   6.287 -0.1770 -0.8445  0.4475
  819MOL0     C10466   8.938   2.964   6.373 -1.1153 -0.6532 -0.1342
  819MOL0     C10467   9.042   2.918   6.475 -0.0783 -0.2606 -0.1127
  819MOL0     C10468   9.113   3.041   6.542 -0.4899  0.1152  0.9519
  819MOL0     C10469   9.255   3.048   6.497  0.0374  0.2592 -0.1943
  819MOL0     C10470   9.357   2.969   6.588 -0.6061  0.5440  0.4403
  819MOL0     C10471   9.453   3.056   6.665 -0.1280  0.2040  0.5305
  819MOL0     C10472   9.524   2.969   6.778  0.1895  0.3909  0.4462
  819MOL0     C10473   9.623   3.044   6.856 -0.4065 -0.2489 -0.2876
  819MOL0    Cl10474   9.703   2.935   6.977  0.3816 -0.1317 -0.4694
  819MOL0     C10475   8.795   2.782   6.087 -0.4587 -0.6301  0.6620
  819MOL0     C10476   8.711   2.795   5.980 -0.1610 -0.2143 -0.2766
  819MOL0     O10477   8.344   2.964   5.929  1.0331  1.0159 -0.4443
  819MOL0     C10478   8.425   2.924   5.583  0.0504  0.1230  0.2513
  819MOL0     C10479   8.357   2.939   5.458 -0.3992  0.1405 -0.1297
  819MOL0     N10480   8.284   3.099   4.861 -0.8020 -1.2790 -0.5003
  819MOL0     N10481   8.352   3.110   4.744  0.9232 -0.5302 -0.2098
  819MOL0     C10482   9.348   3.147   4.911  0.5479  0.0969 -0.2031
  819MOL0     C10483   9.410   3.265   4.922 -0.3205 -0.5732 -0.3322
  819MOL0     C10484   9.581   3.627   5.139  0.1132  1.2801 -0.1352
  819MOL0     C10485   9.498   3.727   5.082  0.2694  0.0164  0.5714
  819MOL0     C10486   9.502   3.852   5.125  0.0980 -0.4533 -1.1146
  819MOL0     C10487   9.594   3.891   5.228  0.4527  1.0329 -0.0014
  819MOL0     O10488   9.594   4.017   5.281 -0.6611  0.7020 -0.1712
  819MOL0     C10489   9.574   4.124   5.194 -0.1064  0.7081 -0.4986
  819MOL0     C10490   9.423   4.167   5.216  0.2319  0.3070  0.2251
  819MOL0     C10491   9.365   4.248   5.108 -0.1681 -0.4251  0.7925
  819MOL0     C10492   9.449   4.377   5.089 -0.6549  0.2402 -0.1010
  819MOL0     C10493   9.387   4.450   4.975 -0.3205 -0.7947 -0.4861
  819MOL0     C10494   9.321   4.499   4.885  0.9308  0.5372 -0.2222
  819MOL0     C10495   9.685   3.803   5.278 -0.7109  0.2855 -0.7561
  819MOL0     C10496   9.677   3.664   5.240 -0.3535 -0.3463 -0.2568
  819MOL0     C10497   9.762   3.568   5.324 -0.3778 -0.1534  0.3026
  819MOL0     H10498   9.293   3.345   5.232 -3.1599  0.9432 -1.1090
  819MOL0     H10499   9.180   3.129   5.202  1.6968  0.6327  1.2720
  819MOL0     H10500   9.077   3.078   4.829  1.3657 -0.7629 -0.9759
  819MOL0     H10501   9.156   2.931   4.788 -0.4105 -3.1857  1.6793
  819MOL0     H10502   8.891   2.982   4.944 -0.2686  1.0606 -2.1650
  819MOL0     H10503   8.966   2.824   4.962  0.5673 -3.0250 -2.8684
  819MOL0     H10504   8.955   2.814   4.687  2.2835 -0.3808  2.2439
  819MOL0     H10505   8.843   2.949   4.706 -2.0699 -0.2451  0.1187
  819MOL0     H10506   8.811   2.671   4.830 -0.1814 -0.7067 -0.1750
  819MOL0     H10507   8.734   2.816   4.894  3.2190  3.0140 -0.1954
  819MOL0     H10508   8.705   2.716   4.599 -0.1962  1.1747  0.1384
  819MOL0     H10509   8.599   2.671   4.733  1.1299 -1.7041 -0.9832
  819MOL0     H10510   8.544   2.905   4.771  0.0179 -2.2282  1.1681
  819MOL0     H10511   8.646   2.952   4.634 -0.1139 -0.1630 -0.9992
  819MOL0     H10512   8.412   2.745   4.613  1.9606 -1.6025  0.0871
  819MOL0     H10513   8.515   2.788   4.483  0.5858  1.5812 -0.5630
  819MOL0     H10514   8.440   3.027   4.512  2.0052 -1.6033 -0.0396
  819MOL0     H10515   8.301   2.924   4.491 -0.9439 -0.7874  0.3538
  819MOL0     H10516   8.225   2.797   4.762 -1.1411  0.2979  1.6812
  819MOL0     H10517   8.107   3.047   5.043 -1.3650 -0.5399  0.6505
  819MOL0     H10518   8.052   2.884   4.982  0.8149 -2.1007  2.6106
  819MOL0     H10519   8.274   2.790   5.052  3.5462  0.4070  2.6642
  819MOL0     H10520   8.304   2.938   5.132  2.6152 -2.6491 -1.5184
  819MOL0     H10521   8.200   2.772   5.291 -0.2438 -0.9104 -0.5644
  819MOL0     H10522   8.060   2.754   5.191  0.8944  1.3411 -3.1099
  819MOL0     H10523   8.022   2.917   5.385 -1.4820  0.7081 -0.7265
  819MOL0     H10524   7.999   2.985   5.229  0.5856 -0.3479 -0.5273
  819MOL0     H10525   8.101   3.138   5.576 -1.7164 -1.7022  3.2802
  819MOL0     H10526   8.222   3.122   5.774 -0.8904 -2.2221  0.2038
  819MOL0     H10527   8.546   3.094   6.051 -0.4658 -0.0506  1.5517
  819MOL0     H10528   8.733   3.088   6.237 -0.4606 -0.1204  0.5141
  819MOL0     H10529   8.980   3.040   6.308  0.4595 -1.1612  0.2477
  819MOL0     H10530   8.857   3.017   6.425 -0.6958  2.2001 -2.1788
  819MOL0     H10531   8.983   2.862   6.547  0.3324 -1.0006 -0.3439
  819MOL0     H10532   9.116   2.849   6.434  0.6904  0.1568  0.5320
  819MOL0     H10533   9.061   3.134   6.519  1.1888  0.4614 -1.8391
  819MOL0     H10534   9.105   3.033   6.651  1.7715  4.3350  1.6552
  819MOL0     H10535   9.281   3.154   6.498 -0.9590  0.6085 -2.9289
  819MOL0     H10536   9.262   3.003   6.397 -3.0382 -1.9725  0.4388
  819MOL0     H10537   9.422   2.891   6.546 -0.8063  0.5228  0.1646
  819MOL0     H10538   9.294   2.903   6.649 -0.7407 -1.0353 -1.3254
  819MOL0     H10539   9.515   3.107   6.591  1.0959 -2.7703 -0.6481
  819MOL0     H10540   9.395   3.137   6.708 -0.5849 -0.0922  0.4858
  819MOL0     H10541   9.577   2.890   6.724 -0.7835  1.6878 -2.6276
  819MOL0     H10542   9.449   2.939   6.852  1.5121 -1.0605  1.2516
  819MOL0     H10543   9.698   3.076   6.782 -0.6564 -2.1313 -1.4342
  819MOL0     H10544   9.594   3.137   6.905  3.1201  2.1830 -2.3672
  819MOL0     H10545   8.858   2.694   6.098  3.2341  1.2695 -2.6018
  819MOL0     H10546   8.708   2.721   5.900  0.5930 -0.0695 -0.4425
  819MOL0     H10547   8.507   2.853   5.586 -1.6820 -2.1021 -1.2577
  819MOL0     H10548   8.379   2.882   5.369  0.9382  0.7981 -0.2363
  819MOL0     H10549   9.364   3.087   4.821 -2.6283  1.2796 -1.6942
  819MOL0     H10550   9.475   3.305   4.844  1.4279 -1.4402  0.6128
  819MOL0     H10551   9.444   3.695   4.992  0.6735 -0.8211  0.6145
  819MOL0     H10552   9.433   3.923   5.078  0.9215  0.6333 -0.7237
  819MOL0     H10553   9.586   4.093   5.090 -2.5494 -1.0751 -0.3273
  819MOL0     H10554   9.648   4.202   5.213  0.7410 -0.5622  1.8750
  819MOL0     H10555   9.414   4.221   5.311  2.9095  1.2774  0.0192
  819MOL0     H10556   9.348   4.087   5.210  0.7323 -0.0743 -3.3668
  819MOL0     H10557   9.263   4.279   5.130 -0.2268  0.7947 -0.9757
  819MOL0     H10558   9.371   4.189   5.016  1.9856 -2.9828  2.4358
  819MOL0     H10559   9.452   4.442   5.178  3.8553 -0.2088  0.2963
  819MOL0     H10560   9.555   4.351   5.082 -0.3340  0.1444  3.4720
  819MOL0     H10561   9.271   4.540   4.800 -0.5444  2.1989  1.3394
  819MOL0     H10562   9.755   3.828   5.357 -0.6922 -0.9277 -0.3618
  819MOL0     H10563   9.707   3.508   5.396  0.9989  1.5948  2.9698
  819MOL0     H10564   9.827   3.508   5.259 -2.1418 -0.1565 -1.5776
  819MOL0     H10565   9.833   3.622   5.388  1.3329 -2.0232  0.0934
  820MOL0     O10566   9.715  10.086   9.188 -0.1368 -0.1388  0.0959
  820MOL0     C10567   9.622  10.173   9.196 -0.7492  0.4788 -0.8051
  820MOL0     O10568   9.636  10.297   9.246 -0.5095  0.1743 -0.3268
  820MOL0     C10569   9.764  10.339   9.264  0.4012  0.6684  0.0790
  820MOL0     C10570   9.826  10.353   9.387  0.0353  0.6306 -0.5979
  820MOL0     C10571   9.955  10.388   9.405 -0.3669 -0.1478 -0.5498
  820MOL0     C10572  10.038  10.407   9.291 -0.4938  0.0338 -0.3706
  820MOL0     O10573  10.170  10.437   9.308  0.6193 -1.1122  0.1722
  820MOL0     C10574  10.240  10.383   9.428 -0.0658 -0.0546 -0.4804
  820MOL0     C10575  10.401  10.384   9.416  1.0732 -0.3045 -0.6146
  820MOL0     C10576  10.479  10.371   9.551  0.5398 -0.3689 -0.8646
  820MOL0     C10577  10.633  10.352   9.534  0.4260  0.8891 -0.7767
  820MOL0     C10578  10.695  10.488   9.549  0.1415  1.0284 -1.1551
  820MOL0     C10579  10.853  10.462   9.543  0.6555 -0.3192 -0.1969
  820MOL0     C10580  10.933  10.577   9.599 -0.5605 -0.9580  0.0809
  820MOL0     C10581  10.994  10.663   9.478  0.3485  0.2616  0.3091
  820MOL0     N10582  11.137  10.702   9.516  0.3269  0.9501  1.1141
  820MOL0     C10583  11.244  10.621   9.495  0.2481 -0.6957  0.0903
  820MOL0     C10584  11.344  10.701   9.542 -0.3226 -0.4237  0.4872
  820MOL0     C10585  11.494  10.661   9.561  0.6157 -0.6944 -0.0661
  820MOL0     C10586  11.540  10.722   9.691 -0.3322  0.4910  0.3512
  820MOL0     C10587  11.655  10.640   9.751  0.0463 -1.1913 -0.4625
  820MOL0     C10588  11.693  10.693   9.886  0.7463 -0.3326 -0.3915
  820MOL0     O10589  11.762  10.818   9.868  0.0004  0.4060 -0.4896
  820MOL0     C10590  11.894  10.819   9.911 -1.0580  0.1006 -0.0343
  820MOL0     C10591  11.943  10.930   9.980 -0.3228  0.1436 -0.4529
  820MOL0     C10592  12.081  10.926  10.029 -0.1448  1.0640  0.5170
  820MOL0     C10593  12.170  10.829   9.987 -0.1058  0.0795  0.5437
  820MOL0     C10594  12.306  10.847  10.031 -0.6353  0.0966  0.2489
  820MOL0     O10595  12.367  10.967  10.054  0.1255 -0.1140 -0.7011
  820MOL0     C10596  12.502  10.971  10.045 -0.4133  0.6209  0.9015
  820MOL0     C10597  12.550  11.062   9.949 -0.3602  1.2220 -0.5388
  820MOL0     C10598  12.689  11.061   9.929  0.9007 -0.1255 -0.2280
  820MOL0     C10599  12.783  10.985   9.998  0.2890  0.6127  1.1555
  820MOL0     O10600  12.920  10.997   9.979  0.1130  0.4969  1.0776
  820MOL0     C10601  12.971  11.075   9.873  0.0109  0.8994  0.3562
  820MOL0     C10602  13.120  11.033   9.840 -0.1920  0.0932  1.1346
  820MOL0     C10603  13.137  10.885   9.797  0.2945 -0.3327 -0.0861
  820MOL0     C10604  13.277  10.812   9.798  0.6440  0.7794 -0.2061
  820MOL0     C10605  13.395  10.903   9.765  0.1075  0.6443 -1.1034
  820MOL0     C10606  13.531  10.838   9.749  0.1239 -0.6810  0.6891
  820MOL0     C10607  13.642  10.930   9.718  0.0361  0.4139 -0.2095
  820MOL0     C10608  13.781  10.871   9.727 -0.0716 -0.7675 -0.1841
  820MOL0    Cl10609  13.792  10.724   9.636  0.4628  0.4450 -0.0261
  820MOL0     C10610  12.737  10.900  10.096  0.2397  0.2350  0.7694
  820MOL0     C10611  12.598  10.895  10.120 -0.0954  0.0663 -1.1123
  820MOL0     O10612  12.361  10.740  10.034 -0.5047 -0.0655 -0.5632
  820MOL0     C10613  12.113  10.716   9.924  0.1736  0.0057 -0.2664
  820MOL0     C10614  11.980  10.711   9.885  0.0658 -0.4192  0.1516
  820MOL0     N10615  11.304  10.825   9.588  0.3468 -0.0867  0.3928
  820MOL0     N10616  11.175  10.822   9.578 -0.4514  0.2609 -0.3790
  820MOL0     C10617   9.981  10.405   9.163  0.1169  0.1081  0.1886
  820MOL0     C10618   9.844  10.367   9.149 -0.3648  0.5602 -1.0688
  820MOL0     C10619   9.490  10.126   9.142  0.0661  0.2306  0.1721
  820MOL0     C10620   9.469   9.990   9.155 -0.1837 -0.6748  0.7257
  820MOL0     C10621   9.347   9.923   9.121 -0.5116 -0.7306 -0.7935
  820MOL0     C10622   9.239   9.999   9.068  0.0613  1.0844 -0.2147
  820MOL0     O10623   9.111   9.948   9.062 -0.4901 -0.3780 -0.6986
  820MOL0     C10624   9.086   9.870   8.941 -0.0675 -0.2202  0.1230
  820MOL0     C10625   9.092   9.956   8.814 -0.0368 -0.0179  0.2249
  820MOL0     C10626   9.008   9.894   8.698  0.5196 -0.8725 -0.0598
  820MOL0     C10627   8.868   9.964   8.679 -0.2762  0.0870 -0.2140
  820MOL0     C10628   8.774   9.961   8.791  0.9820  0.5727 -0.4276
  820MOL0     C10629   8.702   9.957   8.889 -0.4745 -0.0341 -0.0084
  820MOL0     C10630   9.259  10.141   9.050 -0.2238 -0.3560 -0.3163
  820MOL0     C10631   9.380  10.202   9.090 -0.6047 -0.2415  0.6586
  820MOL0     C10632   9.396  10.349   9.055 -0.1096 -0.2860  0.3414
  820MOL0     H10633   9.764  10.337   9.474 -2.4792 -0.0158 -2.3732
  820MOL0     H10634  10.001  10.387   9.503  0.4921 -1.3766 -0.9462
  820MOL0     H10635  10.218  10.447   9.513  0.9308 -2.4279  1.6768
  820MOL0     H10636  10.207  10.283   9.458  2.4569 -0.4091  1.4550
  820MOL0     H10637  10.419  10.480   9.366  1.2729 -0.8552 -1.6443
  820MOL0     H10638  10.413  10.300   9.347 -3.0413  2.5164 -5.4348
  820MOL0     H10639  10.432  10.286   9.601 -0.2773  0.5787  0.0117
  820MOL0     H10640  10.447  10.458   9.608  1.4776  0.9178 -2.2448
  820MOL0     H10641  10.658  10.291   9.622  2.5296 -0.8161 -2.4440
  820MOL0     H10642  10.661  10.303   9.441 -1.2419 -0.0350 -0.8262
  820MOL0     H10643  10.660  10.556   9.471  0.1748  1.4933 -0.7683
  820MOL0     H10644  10.681  10.535   9.646 -0.4918  0.2409 -0.8513
  820MOL0     H10645  10.876  10.373   9.603  1.1509 -1.3629 -1.8595
  820MOL0     H10646  10.872  10.446   9.436 -1.8254  3.4392 -1.3699
  820MOL0     H10647  11.019  10.537   9.653  0.6747  0.1675 -0.9639
  820MOL0     H10648  10.872  10.644   9.660 -0.8238 -0.6076 -0.5584
  820MOL0     H10649  11.003  10.606   9.385 -2.9472 -0.3954  0.2951
  820MOL0     H10650  10.923  10.739   9.447 -0.5558 -0.1723  1.2612
  820MOL0     H10651  11.249  10.517   9.463  0.7433 -0.6193 -0.0951
  820MOL0     H10652  11.487  10.553   9.573  0.5065 -0.7101 -0.2568
  820MOL0     H10653  11.552  10.679   9.470 -3.1335  0.6965 -2.4316
  820MOL0     H10654  11.569  10.827   9.677 -1.3175  0.6888 -0.3824
  820MOL0     H10655  11.448  10.726   9.750 -1.5137  0.7373 -1.4219
  820MOL0     H10656  11.742  10.649   9.685 -0.0358  1.4467 -0.3245
  820MOL0     H10657  11.615  10.538   9.748 -4.4865  0.4229 -2.3363
  820MOL0     H10658  11.749  10.616   9.939  0.9699 -0.5971 -1.0021
  820MOL0     H10659  11.600  10.716   9.940  0.8928 -2.7141  0.9840
  820MOL0     H10660  11.887  11.021   9.999 -1.3787 -0.7790  0.9879
  820MOL0     H10661  12.120  11.002  10.096  2.7092 -1.6941  2.2242
  820MOL0     H10662  12.485  11.131   9.895 -0.5839  2.0743  0.7867
  820MOL0     H10663  12.728  11.139   9.864  1.0136  0.5991  0.6844
  820MOL0     H10664  12.912  11.067   9.781  1.5421  0.8146 -0.6536
  820MOL0     H10665  12.962  11.184   9.885 -2.1607  0.9863 -1.4632
  820MOL0     H10666  13.141  11.099   9.755 -2.2490 -1.8831 -1.0408
  820MOL0     H10667  13.188  11.048   9.924  2.6176 -2.5834 -0.4639
  820MOL0     H10668  13.069  10.827   9.860  0.0991  1.5867  1.5637
  820MOL0     H10669  13.109  10.883   9.691  1.5359  2.0278 -0.5511
  820MOL0     H10670  13.280  10.730   9.726  3.5168  3.9334 -4.1670
  820MOL0     H10671  13.292  10.767   9.897 -0.7604  1.0301  0.1513
  820MOL0     H10672  13.408  10.981   9.840  0.4627 -1.6394  1.3753
  820MOL0     H10673  13.379  10.955   9.670 -3.4962  0.1481 -0.9166
  820MOL0     H10674  13.548  10.799   9.850 -0.0704  0.1757  1.0575
  820MOL0     H10675  13.516  10.763   9.670  2.9042  0.5726 -1.1700
  820MOL0     H10676  13.634  11.025   9.772  2.9308  1.2482 -1.0150
  820MOL0     H10677  13.640  10.950   9.611 -1.5552  0.3803 -0.2082
  820MOL0     H10678  13.864  10.929   9.688  2.1462 -1.6926  2.7805
  820MOL0     H10679  13.807  10.856   9.832  1.4301  0.1009 -0.4149
  820MOL0     H10680  12.812  10.846  10.152  0.6472  0.4303  0.4153
  820MOL0     H10681  12.561  10.842  10.206 -0.2101  0.3629 -0.9773
  820MOL0     H10682  12.174  10.626   9.920 -0.7099 -0.5816 -0.8444
  820MOL0     H10683  11.946  10.632   9.819 -4.3939 -2.1150  3.8920
  820MOL0     H10684  10.035  10.436   9.074  0.2329 -2.2221 -0.6139
  820MOL0     H10685   9.777  10.375   9.064 -0.5473 -1.9633 -1.2426
  820MOL0     H10686   9.541   9.923   9.201 -0.9488 -2.4029 -0.4922
  820MOL0     H10687   9.328   9.819   9.143  1.1509 -0.8766  0.0675
  820MOL0     H10688   8.980   9.847   8.954 -0.6623  1.7695 -0.7925
  820MOL0     H10689   9.145   9.779   8.929  0.8918  0.5608 -1.4238
  820MOL0     H10690   9.198   9.954   8.787  0.4289 -1.6600  1.9433
  820MOL0     H10691   9.051  10.053   8.845 -0.7154 -0.9842  2.5802
  820MOL0     H10692   9.003   9.788   8.722 -3.5133 -0.8351 -0.1065
  820MOL0     H10693   9.070   9.916   8.611  1.8936  2.6572  1.5993
  820MOL0     H10694   8.875  10.068   8.645 -2.7064  0.8022  1.2284
  820MOL0     H10695   8.832   9.918   8.587  1.5280  0.2693 -1.0588
  820MOL0     H10696   8.630   9.943   8.967  2.2715  0.1258  2.7474
  820MOL0     H10697   9.182  10.207   9.010 -0.0637  2.3562  3.4294
  820MOL0     H10698   9.314  10.373   8.988 -0.1829 -0.6967  0.2813
  820MOL0     H10699   9.401  10.416   9.141  1.7550  0.6608 -0.4644
  820MOL0     H10700   9.486  10.378   9.001  3.2109 -1.0941  4.8534
  821MOL0     O10701  10.566   9.534  10.888 -0.4804 -0.4857 -0.1284
  821MOL0     C10702  10.669   9.582  10.921  0.7975 -0.8530 -0.7491
  821MOL0     O10703  10.794   9.544  10.890 -0.1555 -0.0813  0.4980
  821MOL0     C10704  10.812   9.421  10.828  0.1062  0.1800 -0.0023
  821MOL0     C10705  10.805   9.294  10.892  0.1597 -0.1714 -0.7152
  821MOL0     C10706  10.828   9.175  10.830 -0.2216  0.0371  0.2504
  821MOL0     C10707  10.875   9.169  10.697 -0.3314  0.0673 -0.0284
  821MOL0     O10708  10.916   9.056  10.637 -0.3102  0.5029  0.2183
  821MOL0     C10709  10.988   8.960  10.715  0.7601 -0.2916 -0.4683
  821MOL0     C10710  11.014   8.831  10.628 -0.8662 -0.3351  0.0391
  821MOL0     C10711  11.108   8.739  10.700  0.2615 -0.7085 -0.0538
  821MOL0     C10712  11.127   8.593  10.641  1.1990 -0.2302 -0.7358
  821MOL0     C10713  11.254   8.511  10.678  0.1905  1.0840 -0.0075
  821MOL0     C10714  11.287   8.490  10.831 -0.2191 -0.0810  0.6072
  821MOL0     C10715  11.182   8.410  10.908  0.1108  0.5043  0.3663
  821MOL0     C10716  11.200   8.256  10.902  0.0199  1.1286 -0.5470
  821MOL0     N10717  11.077   8.168  10.908 -0.6963 -0.0750 -0.0915
  821MOL0     C10718  11.087   8.044  10.958  0.4725  0.9739  0.1105
  821MOL0     C10719  10.966   7.991  10.950 -0.6455 -0.3207  0.5053
  821MOL0     C10720  10.945   7.847  10.990  0.1902  0.2619  0.5978
  821MOL0     C10721  11.024   7.746  10.906  0.3023 -0.5736 -0.8625
  821MOL0     C10722  10.973   7.727  10.757 -0.4132  1.0843 -0.9614
  821MOL0     C10723  11.071   7.787  10.651  0.1321 -0.6987  0.2526
  821MOL0     O10724  11.042   7.721  10.527 -0.6029 -0.9014  0.1872
  821MOL0     C10725  11.125   7.755  10.413  0.2049  0.7738 -0.6814
  821MOL0     C10726  11.209   7.871  10.415 -0.0810  0.6734 -0.5861
  821MOL0     C10727  11.282   7.909  10.303 -0.1266  0.5302 -0.2802
  821MOL0     C10728  11.276   7.838  10.177  0.5312  0.1962 -0.2719
  821MOL0     C10729  11.358   7.865  10.054 -0.0713 -0.3044  0.0615
  821MOL0     O10730  11.327   7.786   9.945 -0.2179 -0.0555 -0.1410
  821MOL0     C10731  11.422   7.772   9.845 -0.2130  0.1651  0.2435
  821MOL0     C10732  11.431   7.864   9.741  0.2399  0.1881  0.7873
  821MOL0     C10733  11.520   7.843   9.634  0.1633  0.3939  0.0563
  821MOL0     C10734  11.590   7.724   9.615 -0.2056  0.5397  0.7661
  821MOL0     O10735  11.658   7.711   9.494  0.4683  0.1146  0.3387
  821MOL0     C10736  11.773   7.614   9.499 -0.3271  0.4970  0.3130
  821MOL0     C10737  11.861   7.650   9.389 -0.2164 -0.6240 -0.2509
  821MOL0     C10738  11.996   7.569   9.416  0.8825  0.3172 -0.5961
  821MOL0     C10739  12.118   7.655   9.385  0.2342 -0.6045  1.4569
  821MOL0     C10740  12.257   7.599   9.417 -0.1199 -0.8400  0.4704
  821MOL0     C10741  12.370   7.653   9.323  0.4466  0.6212  0.8830
  821MOL0     C10742  12.381   7.596   9.177  0.5457 -1.0081 -0.5607
  821MOL0     C10743  12.518   7.641   9.114  0.2869  0.3845  0.1822
  821MOL0    Cl10744  12.659   7.521   9.151 -0.2372  0.0430 -0.1138
  821MOL0     C10745  11.578   7.626   9.712  0.0117 -0.6004  0.7036
  821MOL0     C10746  11.484   7.649   9.825 -0.6448  1.0387  0.0751
  821MOL0     O10747  11.446   7.951  10.066  0.4620 -0.0469 -0.0498
  821MOL0     C10748  11.175   7.730  10.173 -1.2078  0.3139 -0.2180
  821MOL0     C10749  11.110   7.692  10.294 -0.2593  0.4989  0.6258
  821MOL0     N10750  10.882   8.074  10.891 -0.4520 -0.0210 -0.0216
  821MOL0     N10751  10.951   8.188  10.863  0.2910 -0.3902 -0.2421
  821MOL0     C10752  10.899   9.302  10.638 -0.1155 -0.2232  0.3713
  821MOL0     C10753  10.857   9.428  10.696  0.8998  0.0380  0.5269
  821MOL0     C10754  10.662   9.705  11.008  0.7195 -0.5099 -0.2211
  821MOL0     C10755  10.782   9.752  11.081 -0.7513  0.5753  0.1460
  821MOL0     C10756  10.791   9.877  11.146  0.4928  0.4392  0.7429
  821MOL0     C10757  10.678   9.959  11.166  0.1757  0.3563  0.5973
  821MOL0     O10758  10.675  10.081  11.234 -0.2903 -0.3025 -0.1978
  821MOL0     C10759  10.788  10.114  11.316 -0.4625  0.8438  0.4126
  821MOL0     C10760  10.766  10.248  11.387  0.6271  0.2262 -0.4478
  821MOL0     C10761  10.706  10.365  11.300 -0.1620 -0.5318 -0.0472
  821MOL0     C10762  10.687  10.496  11.376 -0.0051 -0.2454 -0.2822
  821MOL0     C10763  10.659  10.613  11.288 -0.3166 -0.0219 -0.1559
  821MOL0     C10764  10.621  10.709  11.222  0.2506  1.6043 -0.0844
  821MOL0     C10765  10.561   9.913  11.093 -0.3739  0.9194 -0.4721
  821MOL0     C10766  10.546   9.793  11.008 -0.1904  0.4700  0.0660
  821MOL0     C10767  10.417   9.773  10.930 -0.3029  0.1377 -0.2302
  821MOL0     H10768  10.762   9.286  10.992 -1.1955  1.8689 -1.0770
  821MOL0     H10769  10.797   9.077  10.866 -1.7561  0.1816 -0.5878
  821MOL0     H10770  11.085   9.000  10.747  1.2584  0.8847 -3.1891
  821MOL0     H10771  10.928   8.928  10.800  1.1045  2.4864  0.9481
  821MOL0     H10772  11.065   8.867  10.538 -1.4376  1.9222  0.5708
  821MOL0     H10773  10.917   8.786  10.605 -0.6027 -0.5239 -0.7191
  821MOL0     H10774  11.105   8.738  10.810 -0.6490  1.7784  0.0038
  821MOL0     H10775  11.207   8.782  10.687 -0.2010  0.7634  0.9484
  821MOL0     H10776  11.043   8.536  10.682  2.4047 -0.6909  1.1995
  821MOL0     H10777  11.113   8.591  10.532 -0.9274 -1.5323 -0.5068
  821MOL0     H10778  11.249   8.417  10.622 -1.7641  1.2159 -0.0973
  821MOL0     H10779  11.345   8.548  10.630  2.1789 -4.4785 -1.3312
  821MOL0     H10780  11.389   8.450  10.832  0.0461  0.4324 -1.2741
  821MOL0     H10781  11.301   8.589  10.876  0.2768 -0.0472  0.3914
  821MOL0     H10782  11.091   8.451  10.864  1.4490  1.8170 -1.3427
  821MOL0     H10783  11.190   8.431  11.015  4.5130  0.1378  0.3004
  821MOL0     H10784  11.235   8.215  10.807 -1.2339 -3.1885  0.6259
  821MOL0     H10785  11.263   8.220  10.984  1.5381  1.7779 -1.3851
  821MOL0     H10786  11.168   7.986  11.002 -1.4105 -5.4997 -3.6678
  821MOL0     H10787  10.987   7.843  11.091  0.8320 -0.3535  0.3135
  821MOL0     H10788  10.837   7.829  10.993  0.2760 -0.3054  0.3906
  821MOL0     H10789  11.132   7.768  10.910 -0.3454  3.2325  2.9892
  821MOL0     H10790  11.017   7.653  10.962 -0.7583 -0.2785 -0.4963
  821MOL0     H10791  10.875   7.775  10.753 -1.4591 -0.9625 -1.3390
  821MOL0     H10792  10.961   7.620  10.735  0.0094  1.1768 -1.6811
  821MOL0     H10793  11.173   7.763  10.683 -0.7162 -0.3158  3.5889
  821MOL0     H10794  11.059   7.895  10.640 -1.3794 -0.9131 -0.3305
  821MOL0     H10795  11.219   7.935  10.502 -1.3703 -0.6699  0.6093
  821MOL0     H10796  11.351   7.993  10.299  1.4647 -0.7637 -0.9276
  821MOL0     H10797  11.390   7.964   9.750 -0.9047 -0.0406 -1.2045
  821MOL0     H10798  11.541   7.930   9.574  0.4967  0.9172  0.9111
  821MOL0     H10799  11.822   7.617   9.597  2.5075 -2.2029 -0.8236
  821MOL0     H10800  11.743   7.510   9.486  0.5885  0.5289 -3.5315
  821MOL0     H10801  11.810   7.618   9.298 -0.6959  1.0898 -0.6126
  821MOL0     H10802  11.871   7.757   9.406 -0.2031 -0.6221 -0.2706
  821MOL0     H10803  11.987   7.529   9.517  0.0285  1.4619 -0.2022
  821MOL0     H10804  12.009   7.481   9.351 -1.8836 -0.0164 -0.8124
  821MOL0     H10805  12.109   7.758   9.421  1.3065  0.7103 -1.6375
  821MOL0     H10806  12.108   7.665   9.276  2.1372 -1.1465  1.2030
  821MOL0     H10807  12.263   7.491   9.433  0.1701 -0.6550  1.7082
  821MOL0     H10808  12.282   7.630   9.519 -1.2543  3.4184 -0.3587
  821MOL0     H10809  12.360   7.761   9.330 -3.0015  0.3749  1.7515
  821MOL0     H10810  12.464   7.616   9.365  1.8912  1.5725 -1.3330
  821MOL0     H10811  12.307   7.640   9.108 -0.4152  2.4892  2.3645
  821MOL0     H10812  12.373   7.487   9.173 -1.9098 -0.9093 -0.0989
  821MOL0     H10813  12.514   7.647   9.005  3.8934  3.1247 -0.0091
  821MOL0     H10814  12.559   7.736   9.150 -0.1143  0.5282  0.2552
  821MOL0     H10815  11.626   7.534   9.680 -0.5456  0.0255 -2.1334
  821MOL0     H10816  11.479   7.577   9.905 -2.0095  3.5435  2.3792
  821MOL0     H10817  11.150   7.671  10.085 -0.5878 -1.3826  0.7015
  821MOL0     H10818  11.033   7.616  10.293  0.3850 -0.1637  0.1301
  821MOL0     H10819  10.946   9.292  10.541  0.8247 -1.3251  0.9204
  821MOL0     H10820  10.869   9.523  10.645 -1.8614  2.0191  3.2360
  821MOL0     H10821  10.873   9.699  11.055 -1.1641 -0.8905  1.4702
  821MOL0     H10822  10.892   9.903  11.174  1.0447 -1.3070  0.4394
  821MOL0     H10823  10.889  10.120  11.274 -0.3801 -1.0004  0.2928
  821MOL0     H10824  10.778  10.029  11.384 -1.5286  0.6682  0.0604
  821MOL0     H10825  10.862  10.274  11.433 -0.6703 -0.9552  3.2597
  821MOL0     H10826  10.701  10.226  11.472  2.3002 -1.8351  0.3876
  821MOL0     H10827  10.615  10.328  11.253  0.5162  0.1294 -1.9682
  821MOL0     H10828  10.787  10.374  11.228  1.2992 -6.6008  0.2914
  821MOL0     H10829  10.613  10.508  11.455  1.4421 -0.0781  1.1056
  821MOL0     H10830  10.788  10.510  11.417  0.6329 -1.1888 -1.4482
  821MOL0     H10831  10.582  10.789  11.163  0.4512  1.2911 -0.6434
  821MOL0     H10832  10.485   9.989  11.108 -0.6206  0.7609 -0.9108
  821MOL0     H10833  10.339   9.717  10.983 -0.1089 -0.0501 -0.1400
  821MOL0     H10834  10.375   9.872  10.909 -1.0505 -0.2525 -0.6027
  821MOL0     H10835  10.424   9.719  10.835 -1.3979  0.9865 -0.8125
  822MOL0     O10836   3.631   6.388   1.874 -0.2219 -0.2914  0.0079
  822MOL0     C10837   3.542   6.380   1.792  0.8921  0.0608 -0.0377
  822MOL0     O10838   3.549   6.314   1.676 -0.1826 -0.3944 -0.9769
  822MOL0     C10839   3.661   6.233   1.645  0.5327 -0.4164  1.1435
  822MOL0     C10840   3.652   6.099   1.663 -0.1082 -0.8617  0.6261
  822MOL0     C10841   3.768   6.022   1.632 -0.4608 -0.2611  0.0928
  822MOL0     C10842   3.888   6.081   1.594  0.3567  0.2328  0.1996
  822MOL0     O10843   4.002   6.003   1.571 -0.7124 -0.1568  0.2863
  822MOL0     C10844   4.115   6.037   1.495 -0.6613 -0.4106 -0.2215
  822MOL0     C10845   4.217   5.932   1.467 -0.2858  0.5739 -0.0355
  822MOL0     C10846   4.161   5.852   1.345  0.3974  0.6532  0.5301
  822MOL0     C10847   4.180   5.700   1.338 -0.8201 -0.1345 -0.0432
  822MOL0     C10848   4.334   5.660   1.347  0.0998  0.5758  0.3644
  822MOL0     C10849   4.389   5.607   1.481 -1.0915  0.0775 -0.6871
  822MOL0     C10850   4.540   5.587   1.482  0.0671 -0.3049  0.3372
  822MOL0     C10851   4.593   5.501   1.358 -0.2963 -0.3680 -0.4016
  822MOL0     N10852   4.525   5.371   1.371  0.3931  0.2987  0.3045
  822MOL0     C10853   4.438   5.305   1.285 -0.6851  0.4440  0.5894
  822MOL0     C10854   4.426   5.186   1.335  0.6447 -0.3858 -0.1976
  822MOL0     C10855   4.344   5.074   1.278  0.3769 -0.1828 -0.5191
  822MOL0     C10856   4.448   4.977   1.215  0.2566  0.6915  0.5430
  822MOL0     C10857   4.393   4.848   1.151 -0.2355 -0.0130  0.7721
  822MOL0     C10858   4.520   4.755   1.142  0.2101 -0.0612  0.0916
  822MOL0     O10859   4.475   4.631   1.077 -0.2412  0.1644  0.1441
  822MOL0     C10860   4.564   4.562   1.004  0.4953 -0.9262  0.6110
  822MOL0     C10861   4.701   4.554   1.037  0.5651 -0.0876  0.0623
  822MOL0     C10862   4.799   4.490   0.961 -0.2490 -0.7144 -0.6605
  822MOL0     C10863   4.760   4.440   0.835  0.8445  0.1862  0.8717
  822MOL0     C10864   4.860   4.364   0.762  0.4111  0.1436 -0.3105
  822MOL0     O10865   4.992   4.388   0.792  0.2737  1.1388  0.0977
  822MOL0     C10866   5.103   4.315   0.753 -0.3700  0.3441  0.3748
  822MOL0     C10867   5.106   4.187   0.693 -0.1240 -1.1168 -0.9705
  822MOL0     C10868   5.224   4.122   0.673 -0.1573  0.0865 -0.5495
  822MOL0     C10869   5.347   4.181   0.692  0.3193 -0.0246 -0.1441
  822MOL0     O10870   5.465   4.116   0.657  0.3300  0.1317  0.1404
  822MOL0     C10871   5.469   4.025   0.546 -0.0719 -0.1795  0.9912
  822MOL0     C10872   5.436   4.113   0.420 -0.7437 -0.5615  0.5167
  822MOL0     C10873   5.442   4.035   0.288 -0.8385 -0.4353  0.3768
  822MOL0     C10874   5.564   4.083   0.201  0.3696  0.4823  0.3591
  822MOL0     C10875   5.612   3.988   0.096  1.1892 -0.3040  0.2643
  822MOL0     C10876   5.688   3.876   0.180  0.0955  0.2802  0.9615
  822MOL0     C10877   5.771   3.798   0.078  0.7668  1.1850 -0.8674
  822MOL0     C10878   5.688   3.715  -0.016 -0.6193  0.1052  0.9867
  822MOL0    Cl10879   5.818   3.599  -0.099 -0.0070  0.5935  0.1626
  822MOL0     C10880   5.349   4.305   0.751 -0.1612 -0.1131 -0.1978
  822MOL0     C10881   5.230   4.369   0.775  0.5455 -0.2504 -0.0071
  822MOL0     O10882   4.808   4.283   0.683  0.2891  0.4523 -0.0769
  822MOL0     C10883   4.623   4.446   0.797 -0.4096 -0.1254 -0.0803
  822MOL0     C10884   4.527   4.515   0.884 -0.8371 -0.3866  0.5002
  822MOL0     N10885   4.495   5.178   1.454  0.3881 -0.4381  0.7336
  822MOL0     N10886   4.559   5.289   1.472  0.1221  0.3525 -0.4533
  822MOL0     C10887   3.890   6.217   1.574  0.1234 -0.6931 -0.3525
  822MOL0     C10888   3.779   6.288   1.599  0.6992 -0.2385 -0.0999
  822MOL0     C10889   3.419   6.456   1.819  0.6520 -0.2546  0.5195
  822MOL0     C10890   3.301   6.403   1.762 -0.3573 -0.0813  0.9981
  822MOL0     C10891   3.179   6.474   1.768 -0.3998 -0.1367 -0.7068
  822MOL0     C10892   3.175   6.595   1.841 -0.4815  0.8791 -0.5281
  822MOL0     O10893   3.055   6.651   1.858  0.1883 -1.5711  0.0382
  822MOL0     C10894   3.039   6.745   1.746 -1.0496 -0.8187 -0.2192
  822MOL0     C10895   2.937   6.716   1.644  0.5246 -0.4013 -0.6054
  822MOL0     C10896   2.874   6.844   1.585  0.6263  0.1057 -0.4947
  822MOL0     C10897   2.759   6.797   1.492  0.8023 -0.4157 -0.0252
  822MOL0     C10898   2.723   6.898   1.391  0.7654  0.2527 -0.6652
  822MOL0     C10899   2.704   6.982   1.313 -0.0878  0.0720 -0.5620
  822MOL0     C10900   3.297   6.644   1.903  1.6035 -0.3489 -0.5095
  822MOL0     C10901   3.416   6.570   1.890 -0.9237 -0.5572  0.3428
  822MOL0     C10902   3.533   6.646   1.944  0.5031  0.5611 -0.4743
  822MOL0     H10903   3.565   6.046   1.702  0.0504  0.8525  3.5895
  822MOL0     H10904   3.771   5.915   1.647 -0.5435 -0.2926 -0.1235
  822MOL0     H10905   4.083   6.079   1.399  1.6719  0.2456 -0.7679
  822MOL0     H10906   4.160   6.112   1.559  1.0773 -2.8479  1.5659
  822MOL0     H10907   4.229   5.878   1.562 -0.4258  2.7351  1.2713
  822MOL0     H10908   4.311   5.981   1.444 -0.1810 -0.3671 -1.7269
  822MOL0     H10909   4.205   5.883   1.250  2.2793 -3.0265  0.0357
  822MOL0     H10910   4.054   5.865   1.328  0.3833 -1.3967 -1.3492
  822MOL0     H10911   4.108   5.650   1.403 -1.4507 -1.7548 -1.9295
  822MOL0     H10912   4.162   5.680   1.232 -0.6828  2.6340 -0.6785
  822MOL0     H10913   4.347   5.580   1.273 -1.2645 -0.0423  0.7599
  822MOL0     H10914   4.392   5.746   1.315  1.6755 -0.4895  0.2575
  822MOL0     H10915   4.358   5.685   1.551  1.5032 -1.7070  2.7627
  822MOL0     H10916   4.351   5.506   1.504 -1.6815  0.2326 -0.9649
  822MOL0     H10917   4.578   5.546   1.576  1.7989 -0.1899 -0.2744
  822MOL0     H10918   4.588   5.683   1.463  1.4787 -1.1904 -0.8626
  822MOL0     H10919   4.555   5.548   1.267  2.3389  1.2654 -0.7580
  822MOL0     H10920   4.701   5.490   1.350 -0.2288  0.7540 -1.2018
  822MOL0     H10921   4.406   5.348   1.191  2.0415  2.0054  0.2558
  822MOL0     H10922   4.295   5.021   1.360 -0.9728  0.7255 -0.7083
  822MOL0     H10923   4.260   5.107   1.217  0.1784  0.7443  0.2299
  822MOL0     H10924   4.501   5.026   1.133  0.4230  1.0849  0.8795
  822MOL0     H10925   4.518   4.955   1.296 -0.8232  0.2112  1.3752
  822MOL0     H10926   4.344   4.874   1.057 -1.2570 -1.8271  0.7669
  822MOL0     H10927   4.313   4.804   1.211 -2.3563 -0.7836 -2.3378
  822MOL0     H10928   4.550   4.739   1.246 -2.4692  1.8416  1.2560
  822MOL0     H10929   4.592   4.803   1.075 -0.9560  0.5836 -0.7258
  822MOL0     H10930   4.724   4.583   1.139  0.3416 -0.6654  0.2791
  822MOL0     H10931   4.898   4.477   1.003 -0.2809 -1.4382 -0.7907
  822MOL0     H10932   5.022   4.122   0.668 -1.3287  0.6250 -1.6521
  822MOL0     H10933   5.221   4.023   0.628  1.0395 -0.4618  0.5238
  822MOL0     H10934   5.568   3.981   0.534 -0.4113 -0.8066  0.3535
  822MOL0     H10935   5.400   3.942   0.565  1.9575 -1.8528  1.4102
  822MOL0     H10936   5.337   4.158   0.423 -1.1913 -1.5339  3.4880
  822MOL0     H10937   5.506   4.197   0.412 -1.0920 -0.2879  0.3262
  822MOL0     H10938   5.444   3.930   0.316  0.6721  0.0223  2.1899
  822MOL0     H10939   5.350   4.042   0.230 -0.1804 -0.6498 -0.7234
  822MOL0     H10940   5.649   4.107   0.265  0.0321 -1.9549  1.8434
  822MOL0     H10941   5.533   4.175   0.150  1.5930  1.2934  1.0387
  822MOL0     H10942   5.683   4.041   0.032  0.5905 -0.1197 -0.2546
  822MOL0     H10943   5.532   3.949   0.033  1.0162  1.2482 -0.5309
  822MOL0     H10944   5.752   3.913   0.261  1.9822  0.0977 -0.3801
  822MOL0     H10945   5.611   3.814   0.227 -1.0214  2.2156  1.7990
  822MOL0     H10946   5.846   3.738   0.131  0.6419  0.6570 -1.2810
  822MOL0     H10947   5.838   3.869   0.028  3.0495 -0.1024  0.1568
  822MOL0     H10948   5.606   3.656   0.026 -2.2132 -2.1576 -4.4329
  822MOL0     H10949   5.645   3.773  -0.098  2.2522 -1.1162 -1.5467
  822MOL0     H10950   5.444   4.357   0.764 -1.2438  2.7026 -2.3863
  822MOL0     H10951   5.226   4.472   0.808  1.5282 -0.5545  1.1505
  822MOL0     H10952   4.598   4.397   0.703  2.7228 -0.9837 -0.5871
  822MOL0     H10953   4.423   4.527   0.856 -1.3259  1.3777  2.8422
  822MOL0     H10954   3.982   6.264   1.541 -0.4853  3.6204  3.1768
  822MOL0     H10955   3.782   6.396   1.590 -1.4495 -0.2381 -1.6442
  822MOL0     H10956   3.299   6.310   1.705 -0.3461  0.2578  0.4356
  822MOL0     H10957   3.083   6.440   1.730 -1.3961 -1.0643  2.3561
  822MOL0     H10958   3.136   6.763   1.699 -0.7080  1.2024  1.1126
  822MOL0     H10959   3.003   6.832   1.802 -1.2497 -0.9807 -0.0947
  822MOL0     H10960   2.864   6.648   1.690 -0.0532 -0.4451 -1.5622
  822MOL0     H10961   2.982   6.658   1.564  0.3197 -2.8242  0.9273
  822MOL0     H10962   2.947   6.900   1.526  0.3420 -0.4748 -1.4326
  822MOL0     H10963   2.835   6.910   1.663 -1.3209  0.0395 -1.3361
  822MOL0     H10964   2.779   6.710   1.429 -2.6604 -2.0973  0.9478
  822MOL0     H10965   2.672   6.783   1.556  1.5149  0.3077  1.1266
  822MOL0     H10966   2.682   7.067   1.252  0.6168  2.6417  2.5538
  822MOL0     H10967   3.301   6.727   1.973  2.6335 -0.2472 -0.6739
  822MOL0     H10968   3.603   6.655   1.861  0.5944 -1.8420 -0.7400
  822MOL0     H10969   3.505   6.737   1.999 -1.0047 -1.8593  3.1502
  822MOL0     H10970   3.579   6.580   2.018  0.8063 -1.7303 -2.5654
  823MOL0     O10971   6.219   9.875   9.983 -0.1941 -0.1849 -0.5068
  823MOL0     C10972   6.170   9.767  10.012  0.1475  0.8741  1.3366
  823MOL0     O10973   6.038   9.735  10.023 -0.0858 -0.2160  0.0690
  823MOL0     C10974   5.953   9.840   9.992  0.0213 -0.2200 -0.5586
  823MOL0     C10975   5.905   9.919  10.087 -0.1460 -0.5777 -0.4999
  823MOL0     C10976   5.816  10.025  10.062  0.8768  0.2170 -0.5384
  823MOL0     C10977   5.797  10.059   9.930  0.0400 -0.7477  0.2889
  823MOL0     O10978   5.723  10.168   9.888  0.0862  0.4607  0.4076
  823MOL0     C10979   5.737  10.292   9.963  0.2589 -0.4370 -0.0141
  823MOL0     C10980   5.632  10.302  10.076 -0.3470  0.1452  0.2025
  823MOL0     C10981   5.493  10.303  10.021  0.0298  0.4375 -0.0535
  823MOL0     C10982   5.452  10.439   9.964  0.4593  0.6143 -0.2544
  823MOL0     C10983   5.303  10.426   9.926  0.3403 -0.2298  0.4584
  823MOL0     C10984   5.255  10.548   9.847  0.1863 -0.4214  0.0106
  823MOL0     C10985   5.111  10.534   9.803  0.7695  0.4657  0.7090
  823MOL0     C10986   5.062  10.656   9.722  0.1367 -0.1038 -0.0290
  823MOL0     N10987   5.040  10.774   9.815  0.6895  0.3533  0.5938
  823MOL0     C10988   4.916  10.781   9.881  1.6692 -0.3989 -0.2141
  823MOL0     C10989   4.929  10.875   9.972 -0.5506  0.0126 -0.2760
  823MOL0     C10990   4.819  10.931  10.049  0.8150  0.7583 -0.4217
  823MOL0     C10991   4.765  10.841  10.162 -0.3911  0.2036  1.3510
  823MOL0     C10992   4.609  10.825  10.181 -0.0123  0.0377 -0.7121
  823MOL0     C10993   4.542  10.770  10.054 -0.0312  0.2548  0.1176
  823MOL0     O10994   4.618  10.655  10.004 -1.2821 -0.2408 -0.8818
  823MOL0     C10995   4.580  10.603   9.887 -0.6767  0.3209  1.6380
  823MOL0     C10996   4.672  10.517   9.824 -0.3361 -0.8190 -0.4315
  823MOL0     C10997   4.640  10.459   9.699 -0.9700 -0.6560  0.4605
  823MOL0     C10998   4.526  10.490   9.626  0.4096  0.3742  0.5086
  823MOL0     C10999   4.491  10.439   9.496 -0.4054  0.5605 -0.7009
  823MOL0     O11000   4.366  10.467   9.444  0.1440  0.1426  0.2829
  823MOL0     C11001   4.360  10.453   9.311  0.1014  0.9093  0.8766
  823MOL0     C11002   4.431  10.524   9.216 -0.4184  0.6680 -0.8256
  823MOL0     C11003   4.407  10.515   9.083 -0.3859 -0.4430  0.3275
  823MOL0     C11004   4.319  10.417   9.032  0.1676  0.4288  0.0096
  823MOL0     O11005   4.335  10.402   8.899  0.4692 -0.1243  0.5427
  823MOL0     C11006   4.380  10.268   8.872  0.6945  0.5530 -0.2898
  823MOL0     C11007   4.352  10.231   8.722 -0.9073 -0.4072 -0.1977
  823MOL0     C11008   4.383  10.085   8.699 -0.2550 -0.1739  0.3956
  823MOL0     C11009   4.524  10.063   8.639  0.1229  0.0411  0.3697
  823MOL0     C11010   4.513  10.087   8.486  0.9638  0.8455  0.1808
  823MOL0     C11011   4.645  10.040   8.435  0.4595 -0.4491  0.3997
  823MOL0     C11012   4.754  10.136   8.482  0.7051  0.2243 -0.6545
  823MOL0     C11013   4.878  10.107   8.402  0.3821  0.4297  0.1333
  823MOL0    Cl11014   4.972   9.991   8.494  0.2641  0.1332  0.0849
  823MOL0     C11015   4.237  10.352   9.126  0.8232 -0.1767  0.2757
  823MOL0     C11016   4.255  10.378   9.265 -0.4552 -0.2724 -0.4049
  823MOL0     O11017   4.580  10.371   9.440 -0.0112 -0.6100  0.4351
  823MOL0     C11018   4.431  10.590   9.677 -0.5357  0.1206  0.3744
  823MOL0     C11019   4.471  10.642   9.803  0.4645 -0.1550 -0.0128
  823MOL0     N11020   5.057  10.929   9.957  0.6364 -0.6163  0.3663
  823MOL0     N11021   5.128  10.860   9.869 -0.0160  0.1230 -0.6784
  823MOL0     C11022   5.834   9.968   9.826  0.8611  0.8164 -0.6889
  823MOL0     C11023   5.924   9.868   9.856  0.0136 -0.7788  0.0795
  823MOL0     C11024   6.260   9.649  10.043 -0.2602 -0.1296 -0.0610
  823MOL0     C11025   6.207   9.514  10.024  0.6687 -0.6309  0.9784
  823MOL0     C11026   6.281   9.406  10.045 -0.9360 -0.6521  0.1645
  823MOL0     C11027   6.415   9.414  10.078  1.1356 -0.4480  0.6722
  823MOL0     O11028   6.480   9.293  10.087  0.1263 -0.3632  0.3593
  823MOL0     C11029   6.631   9.292  10.097  0.2090 -0.1723  0.0378
  823MOL0     C11030   6.686   9.295   9.952 -0.3190 -0.7614 -0.3967
  823MOL0     C11031   6.783   9.407   9.922 -0.4354  0.6164 -0.4848
  823MOL0     C11032   6.824   9.397   9.783  0.6071 -0.7753  0.5550
  823MOL0     C11033   6.882   9.271   9.728  0.3515 -0.0542 -0.3758
  823MOL0     C11034   6.945   9.180   9.675  0.0199 -0.6046  0.1765
  823MOL0     C11035   6.478   9.541  10.077 -0.5377  0.6684 -0.7490
  823MOL0     C11036   6.408   9.659  10.065  0.0505  0.7462 -0.3659
  823MOL0     C11037   6.483   9.792  10.056  0.1835 -0.8147  0.1716
  823MOL0     H11038   5.936   9.888  10.186  0.9334 -0.6856 -0.8550
  823MOL0     H11039   5.782  10.078  10.151 -0.8782  1.3170 -1.7828
  823MOL0     H11040   5.839  10.295  10.002 -1.0389 -0.6804  3.8132
  823MOL0     H11041   5.719  10.368   9.886  1.6531 -1.5571 -1.5411
  823MOL0     H11042   5.639  10.393  10.136 -3.3590 -0.2939  1.3670
  823MOL0     H11043   5.648  10.220  10.148  2.4427 -0.1105 -0.5781
  823MOL0     H11044   5.436  10.264  10.105  0.6982 -0.8218 -0.1473
  823MOL0     H11045   5.483  10.225   9.945 -4.0429 -3.6220  4.0625
  823MOL0     H11046   5.466  10.511  10.045 -1.1532 -0.6816  1.2304
  823MOL0     H11047   5.516  10.459   9.877  0.1872  1.7847 -0.2004
  823MOL0     H11048   5.284  10.337   9.865 -2.1833  1.6540 -1.6836
  823MOL0     H11049   5.253  10.425  10.023 -2.2722  0.1233 -0.8031
  823MOL0     H11050   5.268  10.633   9.915  1.5545 -0.8827  0.3615
  823MOL0     H11051   5.322  10.574   9.765  0.7320  1.0788  0.8730
  823MOL0     H11052   5.052  10.507   9.890  0.8620 -3.3974 -0.2699
  823MOL0     H11053   5.098  10.447   9.738 -1.3943  0.8810  0.5403
  823MOL0     H11054   5.129  10.683   9.640 -0.0259 -2.2610 -0.9263
  823MOL0     H11055   4.966  10.626   9.680 -0.7452  0.1312  1.7470
  823MOL0     H11056   4.827  10.721   9.866 -0.4464  0.6593  5.3995
  823MOL0     H11057   4.861  11.023  10.090 -0.0620  1.8325 -1.8295
  823MOL0     H11058   4.734  10.968   9.991 -0.9351  1.2513  2.3047
  823MOL0     H11059   4.814  10.743  10.162 -1.4251 -0.3480  0.0096
  823MOL0     H11060   4.799  10.881  10.258 -0.1244  0.1639  1.2745
  823MOL0     H11061   4.571  10.920  10.220 -2.2713 -1.0936  0.0492
  823MOL0     H11062   4.596  10.758  10.267 -1.7246  1.8497  0.5436
  823MOL0     H11063   4.546  10.846   9.975  1.7825  1.3771  1.1933
  823MOL0     H11064   4.442  10.743  10.088 -2.1945  1.1375 -4.7395
  823MOL0     H11065   4.768  10.495   9.871  0.0059 -0.5018 -0.9623
  823MOL0     H11066   4.712  10.392   9.655 -2.6943 -1.4444 -1.3105
  823MOL0     H11067   4.505  10.597   9.248  0.3019  0.4910 -2.0276
  823MOL0     H11068   4.469  10.574   9.015  2.3628 -1.5900  1.6665
  823MOL0     H11069   4.486  10.272   8.898  1.4399  1.8059 -3.1371
  823MOL0     H11070   4.332  10.188   8.929  1.0655 -0.7602 -1.7532
  823MOL0     H11071   4.248  10.253   8.698 -1.1276 -2.3446 -1.2350
  823MOL0     H11072   4.415  10.291   8.656  0.9125 -1.3843  0.5786
  823MOL0     H11073   4.374  10.025   8.789 -0.1052  1.0286  1.2431
  823MOL0     H11074   4.304  10.037   8.640  0.7660  0.0825 -1.2650
  823MOL0     H11075   4.568   9.972   8.681  0.5738  0.6486  1.2544
  823MOL0     H11076   4.586  10.142   8.682 -0.8699  0.8887  0.2664
  823MOL0     H11077   4.509  10.190   8.448  1.5328  0.9019  0.2598
  823MOL0     H11078   4.437  10.023   8.441 -0.5942  1.1653  2.2220
  823MOL0     H11079   4.677   9.936   8.447  0.9483 -0.4945 -1.1347
  823MOL0     H11080   4.641  10.053   8.326 -0.0603 -0.1039  0.4549
  823MOL0     H11081   4.769  10.122   8.589 -1.9765  2.7732  0.1917
  823MOL0     H11082   4.718  10.237   8.458 -1.7288 -0.9048 -2.1157
  823MOL0     H11083   4.863  10.067   8.301  0.3470 -0.4574  0.4851
  823MOL0     H11084   4.941  10.197   8.407  2.4842 -1.0273  2.2235
  823MOL0     H11085   4.161  10.283   9.089  1.8627  0.0101 -2.3797
  823MOL0     H11086   4.187  10.345   9.343 -2.4094 -0.3650 -2.0745
  823MOL0     H11087   4.341  10.624   9.628 -1.3276  0.5367  2.0403
  823MOL0     H11088   4.405  10.719   9.843  0.2341 -1.1817  1.6882
  823MOL0     H11089   5.816   9.987   9.721  0.6843 -0.3379 -0.8790
  823MOL0     H11090   5.981   9.812   9.783  2.4557  2.9645 -1.1817
  823MOL0     H11091   6.102   9.502  10.000  1.1823 -2.0933 -0.7101
  823MOL0     H11092   6.227   9.315  10.023  0.6277 -1.5917  0.1605
  823MOL0     H11093   6.656   9.192  10.135  0.0160  0.0170  0.6797
  823MOL0     H11094   6.672   9.366  10.166  1.9368 -0.4449 -0.6607
  823MOL0     H11095   6.599   9.315   9.888 -1.4460  2.0956  1.8280
  823MOL0     H11096   6.741   9.202   9.932  4.9381  1.1911  3.0565
  823MOL0     H11097   6.869   9.402   9.989 -0.9430 -1.3031  0.0985
  823MOL0     H11098   6.742   9.508   9.936 -1.9647 -0.4293  4.6116
  823MOL0     H11099   6.734   9.407   9.721  2.1579 -1.3810 -1.9364
  823MOL0     H11100   6.879   9.488   9.762 -0.4322 -0.5315 -1.3420
  823MOL0     H11101   7.008   9.105   9.632  3.4138  2.3245 -0.4379
  823MOL0     H11102   6.586   9.550  10.085 -0.5738  0.0316  0.6183
  823MOL0     H11103   6.436   9.841  10.142  0.5133 -1.3830  0.6864
  823MOL0     H11104   6.591   9.783  10.068 -0.0261 -2.2953  1.2594
  823MOL0     H11105   6.463   9.841   9.960 -1.1871 -2.9785 -0.7323
  824MOL0     O11106   3.512   9.557   3.958 -0.3962  0.3778 -0.3633
  824MOL0     C11107   3.578   9.473   3.898 -0.3536  0.0345  0.4229
  824MOL0     O11108   3.653   9.486   3.781  0.0791 -0.4550 -0.3455
  824MOL0     C11109   3.702   9.608   3.739 -0.1576  0.5341 -0.1976
  824MOL0     C11110   3.668   9.734   3.791  0.5265 -0.1218  0.9141
  824MOL0     C11111   3.728   9.851   3.732  0.0529 -0.2182 -0.2084
  824MOL0     C11112   3.810   9.850   3.618 -0.2640 -0.0194  0.3072
  824MOL0     O11113   3.869   9.970   3.577  0.6079  0.4627 -0.3406
  824MOL0     C11114   3.924   9.974   3.446 -0.3061  0.0571  0.2901
  824MOL0     C11115   3.997  10.102   3.419  0.9168  0.3550 -0.8441
  824MOL0     C11116   4.056  10.108   3.273  0.4522  0.7309 -0.7362
  824MOL0     C11117   4.132  10.241   3.258  0.4196 -1.4527 -0.5467
  824MOL0     C11118   4.163  10.279   3.109 -0.1676 -0.6215 -0.8284
  824MOL0     C11119   4.267  10.197   3.039  0.6416  0.6932  0.0048
  824MOL0     C11120   4.280  10.241   2.886 -0.1899  0.6077 -0.0051
  824MOL0     C11121   4.153  10.239   2.798 -0.3915 -0.3105 -0.4072
  824MOL0     N11122   4.102  10.113   2.788 -0.5166 -0.9085 -0.2438
  824MOL0     C11123   4.001  10.065   2.873  0.5668  0.1694 -0.4128
  824MOL0     C11124   3.975   9.945   2.823 -0.2766  0.4429 -0.5820
  824MOL0     C11125   3.873   9.843   2.868  0.0312 -0.5356 -0.2722
  824MOL0     C11126   3.786   9.789   2.751  0.0283  0.5841 -0.3103
  824MOL0     C11127   3.719   9.906   2.676 -0.6454 -0.4934 -0.1336
  824MOL0     C11128   3.643  10.001   2.765  0.5837  0.5906  0.4127
  824MOL0     O11129   3.585   9.922   2.879 -0.1405  0.7802 -0.2346
  824MOL0     C11130   3.470   9.864   2.849  0.2038 -0.4008 -0.1989
  824MOL0     C11131   3.454   9.749   2.927  0.6243 -0.0557  0.0320
  824MOL0     C11132   3.337   9.673   2.917 -0.1169  0.5368 -0.0041
  824MOL0     C11133   3.248   9.703   2.808 -0.3519  0.1338  0.6087
  824MOL0     C11134   3.136   9.616   2.790 -0.3627  0.2391  0.9210
  824MOL0     O11135   3.144   9.485   2.830  0.3783  0.3816  0.6242
  824MOL0     C11136   3.051   9.388   2.786  0.7418 -0.4123  0.3425
  824MOL0     C11137   3.048   9.281   2.865 -0.8641 -0.1980  0.5768
  824MOL0     C11138   2.964   9.166   2.829 -0.1377  0.1848  0.1117
  824MOL0     C11139   2.890   9.170   2.709  0.0595 -0.7392 -0.7261
  824MOL0     O11140   2.829   9.052   2.676  0.3698 -0.3286 -0.6262
  824MOL0     C11141   2.685   9.063   2.667  1.2306  1.1545  0.5875
  824MOL0     C11142   2.610   8.935   2.615 -0.2966  0.2797 -0.0524
  824MOL0     C11143   2.463   8.979   2.598  0.4614  0.1134  0.0297
  824MOL0     C11144   2.394   8.852   2.539  0.6840  0.2366 -0.1274
  824MOL0     C11145   2.455   8.809   2.408 -0.2183  0.7343 -0.4687
  824MOL0     C11146   2.336   8.730   2.338 -0.1657  0.3371 -0.7560
  824MOL0     C11147   2.384   8.687   2.202  0.2794 -0.4620  0.5586
  824MOL0     C11148   2.282   8.615   2.129 -0.3260 -0.6357  0.2364
  824MOL0    Cl11149   2.234   8.453   2.180  0.3515 -0.0711  0.3993
  824MOL0     C11150   2.884   9.285   2.632 -0.1982  0.2871 -0.6733
  824MOL0     C11151   2.964   9.395   2.665  0.2629 -0.1934 -0.5254
  824MOL0     O11152   3.034   9.667   2.729  0.0196  0.3962 -0.1674
  824MOL0     C11153   3.268   9.809   2.726 -0.1057 -1.3006  0.7545
  824MOL0     C11154   3.373   9.889   2.749  0.3277 -0.2239 -0.2338
  824MOL0     N11155   4.074   9.908   2.737  0.0444  0.2557  0.3621
  824MOL0     N11156   4.160  10.011   2.718  0.4715 -0.2336  0.0691
  824MOL0     C11157   3.828   9.721   3.557  0.0443 -2.1315 -0.6474
  824MOL0     C11158   3.775   9.606   3.620  0.7883 -0.4039  0.4809
  824MOL0     C11159   3.569   9.338   3.947 -0.5936  0.3157  0.4058
  824MOL0     C11160   3.541   9.319   4.078  0.4822  0.5849 -0.4054
  824MOL0     C11161   3.503   9.179   4.123 -0.2077 -0.0937  0.4823
  824MOL0     C11162   3.527   9.067   4.047 -0.2835 -0.4587  0.5047
  824MOL0     O11163   3.510   8.939   4.097  0.3498  0.4278  0.0470
  824MOL0     C11164   3.615   8.839   4.093  1.0958 -0.3621  0.3895
  824MOL0     C11165   3.543   8.700   4.131 -0.3214 -0.1989  0.4976
  824MOL0     C11166   3.438   8.641   4.037  0.2460 -0.3020  1.1148
  824MOL0     C11167   3.416   8.493   4.051  0.1219 -0.1576  0.1364
  824MOL0     C11168   3.295   8.453   3.988  0.6025  0.9596 -0.1970
  824MOL0     C11169   3.190   8.410   3.941 -0.2383  0.2179  0.7193
  824MOL0     C11170   3.574   9.088   3.921  0.0507 -0.2177  0.4259
  824MOL0     C11171   3.592   9.221   3.864 -0.7224  0.1414  0.0178
  824MOL0     C11172   3.624   9.221   3.719 -0.0110  0.5435  0.0808
  824MOL0     H11173   3.593   9.743   3.869  1.0321  0.4308  1.3408
  824MOL0     H11174   3.707   9.952   3.764  2.4710  0.7732 -1.4809
  824MOL0     H11175   3.994   9.891   3.437  3.5380  3.0013  0.6183
  824MOL0     H11176   3.848   9.952   3.370  0.8460 -0.3151 -0.8038
  824MOL0     H11177   4.070  10.121   3.499 -1.0011 -1.5675  1.5395
  824MOL0     H11178   3.928  10.186   3.428 -1.4861 -0.8487 -5.1118
  824MOL0     H11179   3.966  10.112   3.212  0.1171 -0.4984 -0.3672
  824MOL0     H11180   4.120  10.024   3.244  0.5792  1.2678 -2.0586
  824MOL0     H11181   4.066  10.320   3.297  0.9205 -1.6325  0.7315
  824MOL0     H11182   4.219  10.252   3.324 -0.3114  1.2047  0.1248
  824MOL0     H11183   4.066  10.271   3.058 -1.0653  4.5314 -0.5132
  824MOL0     H11184   4.190  10.384   3.096 -3.3924  0.7786  2.1488
  824MOL0     H11185   4.361  10.205   3.095  0.8261 -1.5049  0.1299
  824MOL0     H11186   4.239  10.091   3.042  1.7198  0.3562  3.9622
  824MOL0     H11187   4.362  10.179   2.849 -1.4270 -1.3690  0.4152
  824MOL0     H11188   4.325  10.341   2.885  1.1607  0.0586  1.4478
  824MOL0     H11189   4.076  10.314   2.822 -0.8636 -0.2870 -1.8798
  824MOL0     H11190   4.186  10.278   2.701  2.4916 -2.6850 -0.5114
  824MOL0     H11191   3.948  10.100   2.961  3.2800 -0.2018  1.4835
  824MOL0     H11192   3.931   9.768   2.921  1.2337  1.3606  1.2216
  824MOL0     H11193   3.803   9.885   2.942  0.5495 -0.5990  0.2579
  824MOL0     H11194   3.843   9.725   2.683  0.9336 -0.3174  1.2532
  824MOL0     H11195   3.722   9.716   2.801 -2.6360  1.0798 -2.7526
  824MOL0     H11196   3.653   9.862   2.601  0.7789 -3.5288  0.2053
  824MOL0     H11197   3.786   9.968   2.616  0.3383  1.1149  2.4563
  824MOL0     H11198   3.565  10.056   2.711 -0.1306  0.1025  0.9314
  824MOL0     H11199   3.695  10.083   2.815  3.2595  0.4670 -1.9733
  824MOL0     H11200   3.538   9.736   2.994  2.4480 -0.1741 -2.1431
  824MOL0     H11201   3.327   9.592   2.989 -1.3825  0.0334 -0.7121
  824MOL0     H11202   3.121   9.273   2.944  1.4797  0.6628 -1.3940
  824MOL0     H11203   2.975   9.068   2.873  5.2487  0.1488 -0.6366
  824MOL0     H11204   2.644   9.072   2.768 -2.0261  0.5533 -0.5364
  824MOL0     H11205   2.657   9.153   2.612  1.2160  1.2347  0.7248
  824MOL0     H11206   2.661   8.914   2.521 -1.1627  1.7499 -0.8912
  824MOL0     H11207   2.620   8.845   2.676  2.3040  0.5558  0.0171
  824MOL0     H11208   2.408   9.012   2.686  0.2273  0.1659 -0.1368
  824MOL0     H11209   2.467   9.067   2.533 -0.7543  1.7839  2.1089
  824MOL0     H11210   2.292   8.890   2.534  0.4447  0.0393  2.1926
  824MOL0     H11211   2.384   8.775   2.616 -0.9457  0.9597  0.4325
  824MOL0     H11212   2.530   8.734   2.433  0.1268  1.0607 -0.5097
  824MOL0     H11213   2.495   8.892   2.348  1.3676 -0.1502 -0.6937
  824MOL0     H11214   2.298   8.645   2.395  1.1795 -1.0519 -1.8477
  824MOL0     H11215   2.256   8.803   2.320 -1.0576  0.1096  1.9033
  824MOL0     H11216   2.470   8.620   2.201 -0.1575 -1.1078 -2.1835
  824MOL0     H11217   2.424   8.777   2.154  0.2090  1.0952  3.1997
  824MOL0     H11218   2.188   8.670   2.138 -0.6836 -1.4660  1.8913
  824MOL0     H11219   2.310   8.617   2.023  0.4057 -4.8925  0.1699
  824MOL0     H11220   2.822   9.285   2.542 -3.2647 -0.0436  1.2780
  824MOL0     H11221   2.960   9.483   2.601  0.1280 -0.3252 -0.6980
  824MOL0     H11222   3.209   9.840   2.641  3.0890  1.9132 -0.5412
  824MOL0     H11223   3.397   9.972   2.684  4.4204  0.7326  2.1799
  824MOL0     H11224   3.873   9.707   3.459  3.5554 -3.3266  0.9642
  824MOL0     H11225   3.773   9.510   3.570 -1.3254 -0.1160 -0.0749
  824MOL0     H11226   3.542   9.400   4.150 -1.0990 -0.7981  1.2853
  824MOL0     H11227   3.445   9.165   4.213  0.8598 -0.0491  1.1894
  824MOL0     H11228   3.686   8.866   4.172  0.2456  3.8548 -0.0782
  824MOL0     H11229   3.660   8.830   3.994  1.8243 -1.6167  0.8114
  824MOL0     H11230   3.487   8.724   4.221 -0.0160  2.5602  0.0591
  824MOL0     H11231   3.624   8.633   4.160  1.1060  0.1992 -2.1583
  824MOL0     H11232   3.468   8.667   3.935  1.1165  0.0869  1.4647
  824MOL0     H11233   3.344   8.690   4.063  0.3685  0.1222  0.7699
  824MOL0     H11234   3.502   8.452   3.998  0.6092  3.1040 -1.8613
  824MOL0     H11235   3.414   8.466   4.157  2.2881  2.9770  1.1332
  824MOL0     H11236   3.108   8.367   3.887  1.5776 -2.1972 -0.3102
  824MOL0     H11237   3.599   8.998   3.866  0.1140 -0.8875  1.5296
  824MOL0     H11238   3.731   9.235   3.704  0.2931  0.7764  2.2126
  824MOL0     H11239   3.610   9.119   3.681  6.0081 -0.5190 -0.2411
  824MOL0     H11240   3.555   9.282   3.660  0.4034 -0.8268 -1.9257
  825MOL0     O11241   8.059   7.420  11.005 -0.1170 -0.0622 -0.3935
  825MOL0     C11242   8.132   7.364  10.924  0.2041 -0.2206  0.7496
  825MOL0     O11243   8.272   7.343  10.934  0.3846 -0.2542 -0.3155
  825MOL0     C11244   8.347   7.424  11.007 -0.7423 -1.0577 -0.5465
  825MOL0     C11245   8.316   7.558  11.044 -0.0464 -0.4964 -0.0916
  825MOL0     C11246   8.410   7.636  11.115 -0.1185  0.3901  0.2855
  825MOL0     C11247   8.537   7.588  11.141 -0.2944 -0.1718  0.3594
  825MOL0     O11248   8.636   7.667  11.195 -0.0298 -0.2102  0.0789
  825MOL0     C11249   8.617   7.716  11.326 -0.9102  0.5217  0.2420
  825MOL0     C11250   8.729   7.660  11.422 -0.0387  0.2461  1.2393
  825MOL0     C11251   8.718   7.723  11.562 -1.5993 -0.1943  0.3485
  825MOL0     C11252   8.836   7.691  11.652 -0.1215  0.0579 -0.1837
  825MOL0     C11253   8.952   7.787  11.624  0.0908 -0.1022 -0.2706
  825MOL0     C11254   9.076   7.742  11.698  0.0347  0.2626 -0.4585
  825MOL0     C11255   9.072   7.775  11.846 -0.0947 -0.0750  0.3126
  825MOL0     C11256   9.205   7.731  11.916  0.1678  0.8112  0.1603
  825MOL0     N11257   9.194   7.764  12.055  0.0429  0.5032 -0.5557
  825MOL0     C11258   9.177   7.898  12.105 -0.1190  0.3576 -0.0714
  825MOL0     C11259   9.203   7.882  12.234  0.1930 -0.3612 -0.0149
  825MOL0     C11260   9.198   7.996  12.330 -0.6806  1.0006 -0.0018
  825MOL0     C11261   9.341   8.051  12.368 -0.0629  0.4085  0.5383
  825MOL0     C11262   9.411   7.967  12.471 -0.4023  0.7020  0.5909
  825MOL0     C11263   9.371   8.013  12.614  0.1010 -0.7982  0.3770
  825MOL0     O11264   9.469   7.966  12.703  0.0242  0.0908 -0.1713
  825MOL0     C11265   9.475   7.832  12.728  0.1078 -0.0801 -0.2228
  825MOL0     C11266   9.598   7.783  12.770 -0.1282  0.1580  0.6338
  825MOL0     C11267   9.616   7.649  12.808  0.1488 -0.3356  1.0306
  825MOL0     C11268   9.508   7.564  12.805  0.0972  0.3513  0.4724
  825MOL0     C11269   9.513   7.419  12.836  0.9897 -0.3452  0.1844
  825MOL0     O11270   9.394   7.346  12.853 -0.0370  0.9899 -0.5161
  825MOL0     C11271   9.388   7.217  12.909 -1.0289 -0.3924  0.0800
  825MOL0     C11272   9.468   7.178  13.015 -0.1450  0.8488  0.0050
  825MOL0     C11273   9.459   7.045  13.060  0.4438  0.0971 -0.2438
  825MOL0     C11274   9.370   6.957  12.999 -0.1473 -0.3215 -0.1581
  825MOL0     O11275   9.346   6.826  13.032 -0.0706 -0.2925  0.0357
  825MOL0     C11276   9.398   6.767  13.152  0.5902  0.4941  0.8353
  825MOL0     C11277   9.333   6.631  13.171 -0.1967  0.5253  0.5088
  825MOL0     C11278   9.219   6.637  13.283 -0.0613 -0.5291 -1.1802
  825MOL0     C11279   9.203   6.496  13.341  0.1899 -0.0752  0.1349
  825MOL0     C11280   9.114   6.491  13.464  0.4035  0.7618  0.0197
  825MOL0     C11281   9.065   6.347  13.494 -0.5406  0.7614  0.9227
  825MOL0     C11282   9.016   6.327  13.640  0.3224 -0.4616 -0.1804
  825MOL0     C11283   8.930   6.197  13.657  0.0834  0.6205 -0.5211
  825MOL0    Cl11284   8.895   6.167  13.831  0.0870  0.0060  0.0100
  825MOL0     C11285   9.280   7.007  12.896  0.1901  0.0914  0.9630
  825MOL0     C11286   9.289   7.134  12.856 -0.7640 -0.3847 -0.7570
  825MOL0     O11287   9.620   7.386  12.878  1.4773  0.6213  0.4310
  825MOL0     C11288   9.380   7.613  12.767  0.1235 -0.3949 -0.2951
  825MOL0     C11289   9.365   7.746  12.733 -0.4263 -1.1418 -0.1774
  825MOL0     N11290   9.222   7.750  12.257  0.1015 -0.5638  0.2140
  825MOL0     N11291   9.218   7.683  12.152  0.2016  0.7461 -0.1979
  825MOL0     C11292   8.580   7.464  11.084  0.0042 -0.1146 -0.2407
  825MOL0     C11293   8.479   7.385  11.028 -0.4257  0.8101  0.2347
  825MOL0     C11294   8.067   7.289  10.812 -0.0317  0.6570 -0.0039
  825MOL0     C11295   7.955   7.358  10.757 -0.2638  0.3647 -0.2437
  825MOL0     C11296   7.879   7.291  10.659  0.7434  0.3656 -0.2764
  825MOL0     C11297   7.905   7.161  10.608 -0.3254 -0.1236  0.4245
  825MOL0     O11298   7.813   7.113  10.511  0.3461 -0.6221 -0.3051
  825MOL0     C11299   7.827   6.978  10.473 -0.3903  0.4419  0.0555
  825MOL0     C11300   7.706   6.935  10.382  0.1624  0.7616 -0.2739
  825MOL0     C11301   7.690   7.036  10.269 -0.1493 -0.8382 -0.1698
  825MOL0     C11302   7.567   7.006  10.186 -0.4972  0.5940  0.0656
  825MOL0     C11303   7.439   7.000  10.262 -0.6813  0.3455  0.3307
  825MOL0     C11304   7.335   7.011  10.323  0.3078 -0.0397  0.1204
  825MOL0     C11305   8.025   7.098  10.659  0.5474 -0.4841 -0.2367
  825MOL0     C11306   8.101   7.162  10.770 -0.6992  0.2761  1.0524
  825MOL0     C11307   8.214   7.075  10.826 -1.1143 -0.5401 -0.5038
  825MOL0     H11308   8.222   7.601  11.009 -0.1889 -0.0747  0.7842
  825MOL0     H11309   8.391   7.743  11.124  0.2030  0.4046  0.7516
  825MOL0     H11310   8.615   7.825  11.325  0.5133  0.5592  0.3141
  825MOL0     H11311   8.514   7.693  11.357 -2.0589  0.0182 -3.4323
  825MOL0     H11312   8.816   7.697  11.367 -0.4392 -2.2091 -1.2821
  825MOL0     H11313   8.730   7.551  11.425 -1.8532 -0.0522 -2.4686
  825MOL0     H11314   8.619   7.694  11.598 -1.7202  0.7269  0.7721
  825MOL0     H11315   8.719   7.831  11.549 -0.5461 -0.2561 -0.1916
  825MOL0     H11316   8.807   7.699  11.757  2.6164 -0.8544  0.7056
  825MOL0     H11317   8.869   7.589  11.632 -2.1163 -0.4298 -1.2676
  825MOL0     H11318   8.985   7.794  11.520  3.1343 -2.0830  0.4181
  825MOL0     H11319   8.931   7.892  11.646  1.1110 -0.2926  1.8666
  825MOL0     H11320   9.091   7.633  11.699 -1.2994 -0.0496  3.6951
  825MOL0     H11321   9.161   7.793  11.652 -2.0909  1.1938 -3.7499
  825MOL0     H11322   8.985   7.725  11.889 -0.1232 -0.6689 -0.4079
  825MOL0     H11323   9.058   7.883  11.856  1.7274  0.3169 -0.7826
  825MOL0     H11324   9.227   7.625  11.898 -1.3139 -0.0261  2.7332
  825MOL0     H11325   9.292   7.781  11.871 -0.5112  0.4185 -1.6674
  825MOL0     H11326   9.163   7.984  12.041  0.5100 -1.4318 -2.7939
  825MOL0     H11327   9.146   8.075  12.275 -0.4670  0.5530 -0.8706
  825MOL0     H11328   9.149   7.981  12.426  1.6936 -0.0838  1.1299
  825MOL0     H11329   9.398   8.053  12.275 -1.2676 -0.9997 -0.2749
  825MOL0     H11330   9.339   8.154  12.405  4.0512  1.2847 -1.2425
  825MOL0     H11331   9.519   7.987  12.466 -0.3521  0.4977  0.8055
  825MOL0     H11332   9.401   7.860  12.453 -3.6704  0.9365  0.4661
  825MOL0     H11333   9.266   7.991  12.634 -0.7049 -0.3769 -2.8595
  825MOL0     H11334   9.369   8.122  12.615  1.1657 -0.7405 -0.9167
  825MOL0     H11335   9.681   7.853  12.775  0.3125 -0.4295  2.3979
  825MOL0     H11336   9.714   7.623  12.847  0.8487  0.6017 -0.0440
  825MOL0     H11337   9.533   7.247  13.067  1.6926  1.0772 -2.4355
  825MOL0     H11338   9.514   7.012  13.147 -3.4435  1.1839  2.9077
  825MOL0     H11339   9.507   6.762  13.147  0.5102 -0.8758 -2.5148
  825MOL0     H11340   9.369   6.822  13.242  3.3068  1.2202  1.3558
  825MOL0     H11341   9.293   6.603  13.072  1.5889  1.4130 -0.5117
  825MOL0     H11342   9.411   6.563  13.206 -1.2214  0.1931  2.2205
  825MOL0     H11343   9.254   6.712  13.354  1.6610  0.3111 -2.8427
  825MOL0     H11344   9.122   6.666  13.241  0.6425  1.6941 -1.3779
  825MOL0     H11345   9.295   6.439  13.360 -1.5503 -3.2536 -0.2175
  825MOL0     H11346   9.162   6.434  13.261 -0.9004 -1.3548  1.6168
  825MOL0     H11347   9.033   6.562  13.443  0.9500  1.5004  0.3496
  825MOL0     H11348   9.175   6.529  13.546  2.8705  0.3497 -1.5243
  825MOL0     H11349   8.983   6.325  13.425  0.2678 -0.6164  0.3577
  825MOL0     H11350   9.146   6.276  13.473 -0.2330  0.5440  2.7326
  825MOL0     H11351   8.945   6.403  13.673 -2.7127 -2.5877 -1.4496
  825MOL0     H11352   9.098   6.315  13.713  0.2163 -0.7220 -0.1039
  825MOL0     H11353   8.836   6.230  13.610 -3.4442 -1.0143  4.5705
  825MOL0     H11354   8.970   6.109  13.607 -2.8648 -0.5473 -1.0523
  825MOL0     H11355   9.201   6.936  12.872 -0.2927 -0.6383  4.1445
  825MOL0     H11356   9.228   7.182  12.781 -1.1981  2.7830  1.3981
  825MOL0     H11357   9.289   7.555  12.775 -0.5316  0.7614  1.1322
  825MOL0     H11358   9.262   7.775  12.716 -0.1844  0.0683  0.3113
  825MOL0     H11359   8.681   7.430  11.100  0.6505  0.7200 -2.1890
  825MOL0     H11360   8.512   7.294  10.979  1.7239  1.5329  0.2338
  825MOL0     H11361   7.936   7.463  10.778 -0.8898  0.2297 -0.1067
  825MOL0     H11362   7.802   7.348  10.607  0.2490 -1.3100 -1.4672
  825MOL0     H11363   7.836   6.917  10.563 -3.1054  0.2989  0.3350
  825MOL0     H11364   7.904   6.960  10.397 -3.1782 -0.9339 -2.6760
  825MOL0     H11365   7.619   6.918  10.447  0.7745 -1.6206  0.0086
  825MOL0     H11366   7.723   6.846  10.321  1.7715  0.6214  0.3417
  825MOL0     H11367   7.777   7.031  10.203 -1.0956 -0.1864 -1.5068
  825MOL0     H11368   7.672   7.134  10.313  2.5047 -0.0194 -0.7190
  825MOL0     H11369   7.559   7.082  10.108  1.4233 -2.7028 -3.7288
  825MOL0     H11370   7.571   6.913  10.129  0.5562 -0.0983  1.2091
  825MOL0     H11371   7.238   7.003  10.368 -0.3450 -0.6090 -1.3234
  825MOL0     H11372   8.055   6.999  10.626  0.4091 -0.6173  0.0364
  825MOL0     H11373   8.221   7.090  10.934  1.1400 -1.1737 -0.5105
  825MOL0     H11374   8.208   6.968  10.803  1.2360 -0.3764 -2.2066
  825MOL0     H11375   8.310   7.116  10.796  0.7929 -2.0905  2.8354
  826MOL0     O11376  10.925   9.699   3.681 -0.0354 -0.7251 -0.4406
  826MOL0     C11377  10.840   9.786   3.688  0.6966 -0.2457 -1.0873
  826MOL0     O11378  10.799   9.872   3.588 -0.3600  0.1765 -0.1549
  826MOL0     C11379  10.860   9.860   3.466  0.3617  0.3352 -0.4283
  826MOL0     C11380  10.777   9.845   3.356 -0.1915 -0.4148 -0.6629
  826MOL0     C11381  10.821   9.858   3.228 -0.1055  0.6178 -0.0117
  826MOL0     C11382  10.958   9.869   3.196 -0.2641 -0.1019  0.2973
  826MOL0     O11383  11.020   9.876   3.068  0.4703  1.0698  0.0313
  826MOL0     C11384  10.929   9.914   2.963 -0.7673  1.0466  0.0513
  826MOL0     C11385  11.015   9.897   2.837 -0.7779 -0.1170  0.7853
  826MOL0     C11386  11.020   9.757   2.782  0.1158 -0.0805  0.2781
  826MOL0     C11387  11.067   9.768   2.636 -0.4313  0.2863  1.0383
  826MOL0     C11388  11.206   9.838   2.619 -0.7957  0.0774  0.1590
  826MOL0     C11389  11.272   9.849   2.475  0.3869 -0.6273 -1.0642
  826MOL0     C11390  11.196   9.927   2.364  1.0309 -0.7660 -0.1161
  826MOL0     C11391  11.275   9.977   2.245  0.6683 -0.4251 -0.1829
  826MOL0     N11392  11.302   9.882   2.134  0.9887  0.4191  1.1274
  826MOL0     C11393  11.391   9.780   2.146  0.5305 -0.0112  0.9318
  826MOL0     C11394  11.383   9.716   2.032  0.5772 -0.2093 -0.7453
  826MOL0     C11395  11.459   9.596   1.996  0.0573  0.5444 -0.3683
  826MOL0     C11396  11.568   9.638   1.900 -0.9075  0.0310  0.5217
  826MOL0     C11397  11.663   9.520   1.870 -0.1677  0.4650  0.4202
  826MOL0     C11398  11.766   9.567   1.775 -0.5264  0.9792 -0.2052
  826MOL0     O11399  11.825   9.451   1.732  0.0808 -0.5594  0.7388
  826MOL0     C11400  11.932   9.463   1.650  0.2369  0.0874  0.2081
  826MOL0     C11401  11.986   9.340   1.599  0.6998  0.6831  0.1972
  826MOL0     C11402  12.118   9.338   1.540 -0.3408  0.1274  0.5197
  826MOL0     C11403  12.184   9.453   1.510  0.0388 -0.4477 -0.4360
  826MOL0     C11404  12.301   9.455   1.419  0.1906 -0.7351  0.3693
  826MOL0     O11405  12.359   9.569   1.381 -1.0342 -0.2500 -0.4526
  826MOL0     C11406  12.478   9.575   1.309 -0.6616  0.2267  0.1792
  826MOL0     C11407  12.573   9.479   1.262  0.4445  0.4505 -0.3254
  826MOL0     C11408  12.674   9.511   1.166  0.3832 -0.7434 -1.0648
  826MOL0     C11409  12.686   9.642   1.135  0.5138 -0.1846 -0.0518
  826MOL0     O11410  12.780   9.679   1.046 -0.0495 -1.0434 -0.6624
  826MOL0     C11411  12.913   9.700   1.107 -0.4173 -0.0658  0.3229
  826MOL0     C11412  12.992   9.804   1.023  0.7207 -0.0948  0.2525
  826MOL0     C11413  12.899   9.918   0.967  0.7593  0.5471  1.0538
  826MOL0     C11414  12.984  10.032   0.913 -0.7202  0.2589  0.1303
  826MOL0     C11415  13.078  10.003   0.791  0.6809 -0.4030  0.2970
  826MOL0     C11416  13.196  10.100   0.780  0.1488  0.0079  0.9098
  826MOL0     C11417  13.249  10.095   0.637 -0.2944 -0.1468  0.2086
  826MOL0     C11418  13.363  10.188   0.615 -0.1488  0.1163  0.5170
  826MOL0    Cl11419  13.507  10.159   0.725 -0.1133  0.1461 -0.1153
  826MOL0     C11420  12.587   9.734   1.170 -0.1699  0.1074 -0.8004
  826MOL0     C11421  12.496   9.702   1.268  1.1743 -0.6793  0.2828
  826MOL0     O11422  12.359   9.346   1.405 -0.1037 -0.8580 -0.2394
  826MOL0     C11423  12.125   9.577   1.558 -0.3805  0.4607  0.2055
  826MOL0     C11424  12.008   9.579   1.634  0.1968 -0.5896 -0.1955
  826MOL0     N11425  11.299   9.783   1.945  0.1986 -0.4035  0.2550
  826MOL0     N11426  11.248   9.888   2.011 -0.9770  0.8742  0.6293
  826MOL0     C11427  11.051   9.889   3.301 -0.6158  0.2175  0.3907
  826MOL0     C11428  10.996   9.892   3.432 -0.0150 -0.1658  0.0665
  826MOL0     C11429  10.771   9.809   3.823 -0.0654 -0.0609  1.0211
  826MOL0     C11430  10.634   9.846   3.831  0.3196  0.4331 -0.2413
  826MOL0     C11431  10.565   9.830   3.951 -0.3544  0.2569 -0.8913
  826MOL0     C11432  10.629   9.795   4.069  0.9170  0.3989  0.0380
  826MOL0     O11433  10.551   9.770   4.176  0.5509  0.5362  0.5896
  826MOL0     C11434  10.613   9.729   4.295  0.2098  0.2620  0.1999
  826MOL0     C11435  10.498   9.704   4.397 -0.0072 -0.4610 -0.3128
  826MOL0     C11436  10.552   9.689   4.545 -0.3690 -0.2844 -1.1271
  826MOL0     C11437  10.440   9.675   4.645 -1.3326  0.0138  0.0670
  826MOL0     C11438  10.371   9.812   4.666 -0.1512  0.9183 -0.1853
  826MOL0     C11439  10.319   9.920   4.686  0.2761  0.2755  0.2992
  826MOL0     C11440  10.764   9.774   4.065 -0.3102  0.8380  0.5407
  826MOL0     C11441  10.832   9.783   3.946 -0.7759  0.5201  0.1516
  826MOL0     C11442  10.983   9.756   3.963 -0.0129 -0.2633  0.0261
  826MOL0     H11443  10.675   9.825   3.389  0.7700 -0.5715  2.6111
  826MOL0     H11444  10.740   9.860   3.156  0.6302  0.4032 -0.8580
  826MOL0     H11445  10.841   9.850   2.950 -0.6727  0.6708  1.1571
  826MOL0     H11446  10.886  10.013   2.979 -2.3161  0.6088 -1.1354
  826MOL0     H11447  11.122   9.909   2.855  0.0906 -3.8688 -0.9116
  826MOL0     H11448  10.983   9.967   2.759  0.8764 -1.2984 -1.0475
  826MOL0     H11449  10.930   9.697   2.800  1.0468 -1.5354  0.1768
  826MOL0     H11450  11.092   9.703   2.843 -0.8304 -1.2146  0.4252
  826MOL0     H11451  11.078   9.668   2.595  0.7239  0.8972 -0.2390
  826MOL0     H11452  10.999   9.818   2.567  0.8544 -1.8001 -1.9179
  826MOL0     H11453  11.194   9.939   2.659 -2.9418  0.3272 -0.9590
  826MOL0     H11454  11.281   9.778   2.672 -0.8993 -1.0433 -0.9109
  826MOL0     H11455  11.377   9.878   2.474  0.7441 -1.7985  0.0495
  826MOL0     H11456  11.286   9.750   2.431 -0.1473 -0.6705 -1.1454
  826MOL0     H11457  11.148  10.015   2.407 -0.3218 -1.4381 -0.1841
  826MOL0     H11458  11.115   9.863   2.329 -1.6258  0.7639  2.7649
  826MOL0     H11459  11.220  10.064   2.208  0.9331  0.5925  1.6738
  826MOL0     H11460  11.368  10.021   2.280  0.0234  0.2023  0.8090
  826MOL0     H11461  11.428   9.745   2.242  2.2317  0.1121  0.3456
  826MOL0     H11462  11.498   9.547   2.085  0.7695  0.1152 -0.9099
  826MOL0     H11463  11.385   9.527   1.954 -2.6538  0.3703  4.0583
  826MOL0     H11464  11.532   9.673   1.803 -2.6818  2.3321  1.9186
  826MOL0     H11465  11.630   9.717   1.942  1.6362 -0.5371 -1.8719
  826MOL0     H11466  11.600   9.442   1.825  2.1687 -2.1866  1.4414
  826MOL0     H11467  11.704   9.455   1.948  0.7398 -0.8893 -1.1123
  826MOL0     H11468  11.827   9.638   1.831 -0.6651 -0.4855  1.9520
  826MOL0     H11469  11.724   9.610   1.684 -3.5859 -0.6194  0.3234
  826MOL0     H11470  11.931   9.250   1.624  2.3914 -0.6515 -0.6536
  826MOL0     H11471  12.154   9.242   1.505  2.9708  2.0314 -1.9281
  826MOL0     H11472  12.571   9.374   1.289 -1.2117  0.6717  0.5550
  826MOL0     H11473  12.727   9.432   1.115 -1.6538 -1.8502 -1.5770
  826MOL0     H11474  12.889   9.746   1.203 -2.7868  0.9022 -0.6758
  826MOL0     H11475  12.965   9.603   1.105  1.1055  0.5910 -3.8543
  826MOL0     H11476  13.079   9.840   1.080  1.5026  2.2483 -2.1865
  826MOL0     H11477  13.031   9.760   0.931  0.4660  0.6900 -0.2485
  826MOL0     H11478  12.836   9.878   0.887  0.5810  0.8327  1.0502
  826MOL0     H11479  12.827   9.947   1.044 -0.0786  0.8998  0.1571
  826MOL0     H11480  13.054  10.052   0.994 -0.1474 -1.3382  0.0800
  826MOL0     H11481  12.922  10.121   0.898 -2.9335 -1.3345 -0.8957
  826MOL0     H11482  13.010   9.995   0.706 -2.4247 -0.1735  2.5876
  826MOL0     H11483  13.122   9.904   0.805 -1.5823 -1.6484 -0.8202
  826MOL0     H11484  13.163  10.202   0.799  1.6570  0.6335  0.3614
  826MOL0     H11485  13.272  10.093   0.859  0.5322  0.3860  0.5803
  826MOL0     H11486  13.165  10.117   0.570 -1.2665  1.8554  1.9344
  826MOL0     H11487  13.295  10.000   0.611  1.0012  0.6367 -0.4338
  826MOL0     H11488  13.408  10.167   0.517  0.3540  1.0205  0.5481
  826MOL0     H11489  13.331  10.292   0.607 -1.1507 -0.2789 -1.0248
  826MOL0     H11490  12.594   9.833   1.128 -0.4406 -0.3544 -1.9853
  826MOL0     H11491  12.415   9.770   1.289  0.5346 -0.4519 -2.5447
  826MOL0     H11492  12.179   9.665   1.523  0.3733 -0.6528 -1.5393
  826MOL0     H11493  11.971   9.675   1.666  1.0352 -0.6560  1.0564
  826MOL0     H11494  11.157   9.894   3.280 -0.9450 -0.3875 -1.5576
  826MOL0     H11495  11.063   9.904   3.517 -0.3707 -1.0906  0.5016
  826MOL0     H11496  10.573   9.852   3.742  1.1109 -1.8988 -1.0127
  826MOL0     H11497  10.457   9.844   3.942 -0.3805  0.2378 -0.6159
  826MOL0     H11498  10.669   9.819   4.321 -0.3890 -0.2745  3.9542
  826MOL0     H11499  10.678   9.641   4.285  1.6579  1.0359  2.0071
  826MOL0     H11500  10.443   9.613   4.373 -0.6811 -0.1206 -0.0764
  826MOL0     H11501  10.424   9.784   4.393  0.7461  0.5485  2.6388
  826MOL0     H11502  10.603   9.780   4.581  1.3123 -2.1322  1.5602
  826MOL0     H11503  10.621   9.604   4.547 -1.8790 -1.5443 -0.8667
  826MOL0     H11504  10.358   9.606   4.625 -2.7764  0.6678  3.1076
  826MOL0     H11505  10.488   9.644   4.738  4.6103  3.5703 -1.2717
  826MOL0     H11506  10.276  10.018   4.687 -0.8414 -0.1884  0.0074
  826MOL0     H11507  10.828   9.744   4.148  2.5140  0.6824 -1.5699
  826MOL0     H11508  11.006   9.650   3.981  0.7222 -0.1017  0.0410
  826MOL0     H11509  11.043   9.790   3.879 -0.9901  0.7769 -0.2816
  826MOL0     H11510  11.021   9.811   4.049 -1.6898  1.1416 -0.0596
  827MOL0     O11511   4.830   8.810   0.538  0.4510 -0.1047 -0.4082
  827MOL0     C11512   4.947   8.808   0.496  0.2792  0.0047  0.0013
  827MOL0     O11513   4.999   8.863   0.382 -0.2739  0.2192 -0.1098
  827MOL0     C11514   4.954   8.973   0.328  0.1049  0.3913 -0.6405
  827MOL0     C11515   4.986   9.000   0.193  0.6396  0.7180 -0.1111
  827MOL0     C11516   4.968   9.134   0.140 -0.0922  0.0742  0.2399
  827MOL0     C11517   4.897   9.230   0.221 -0.1095  0.0297 -0.2846
  827MOL0     O11518   4.872   9.360   0.192 -0.3938  0.4167  0.4180
  827MOL0     C11519   4.829   9.395   0.056 -0.1198 -0.3445 -1.0019
  827MOL0     C11520   4.675   9.406   0.056  0.3277 -0.4687 -0.1950
  827MOL0     C11521   4.641   9.492  -0.073 -0.2777  0.3661  0.4842
  827MOL0     C11522   4.664   9.429  -0.214 -0.3949 -0.6750 -0.4754
  827MOL0     C11523   4.685   9.530  -0.326  0.7869 -0.2196  0.4312
  827MOL0     C11524   4.560   9.542  -0.422  0.9361  0.2821 -1.4612
  827MOL0     C11525   4.565   9.674  -0.504  0.3132 -0.3232  0.0339
  827MOL0     C11526   4.444   9.694  -0.592 -0.5176 -0.3340 -0.1394
  827MOL0     N11527   4.447   9.817  -0.669 -0.3403  0.1621 -0.8932
  827MOL0     C11528   4.388   9.926  -0.620  0.4410  0.8330  0.1435
  827MOL0     C11529   4.408  10.023  -0.714  0.2336 -0.4428 -0.5662
  827MOL0     C11530   4.357  10.166  -0.714  0.0935 -0.3268  0.4461
  827MOL0     C11531   4.321  10.207  -0.856  1.5514 -0.7802 -0.3675
  827MOL0     C11532   4.303  10.351  -0.877 -0.5813 -1.2136 -0.4441
  827MOL0     C11533   4.436  10.423  -0.897  0.8485  0.0138  0.8545
  827MOL0     O11534   4.477  10.390  -1.035  0.3950 -0.0366  0.5195
  827MOL0     C11535   4.600  10.429  -1.078 -0.6393  0.1861  0.6846
  827MOL0     C11536   4.636  10.406  -1.210  0.7313  0.0527 -0.2474
  827MOL0     C11537   4.756  10.447  -1.254 -0.0310  0.0037  0.2429
  827MOL0     C11538   4.853  10.513  -1.176  0.1720 -0.9154  0.4761
  827MOL0     C11539   4.990  10.542  -1.226 -0.4227  1.2553 -0.0079
  827MOL0     O11540   5.075  10.591  -1.126  0.2748 -0.0781  0.0800
  827MOL0     C11541   5.201  10.638  -1.163  0.1163  0.7021 -0.1923
  827MOL0     C11542   5.319  10.579  -1.117  1.0856  1.0609  0.2794
  827MOL0     C11543   5.431  10.630  -1.168  0.1622 -0.4909  0.6912
  827MOL0     C11544   5.445  10.737  -1.266  0.6638  0.3085 -0.3457
  827MOL0     O11545   5.570  10.792  -1.297 -0.2457  0.2455 -0.0719
  827MOL0     C11546   5.684  10.706  -1.317 -0.0435 -0.2373  0.4898
  827MOL0     C11547   5.801  10.785  -1.375  0.1180  0.4496 -0.0134
  827MOL0     C11548   5.907  10.707  -1.455  0.4966  0.1297  0.1199
  827MOL0     C11549   5.983  10.611  -1.360  0.0567  1.3020  1.0420
  827MOL0     C11550   6.084  10.518  -1.444  0.1184  0.3647 -0.4666
  827MOL0     C11551   6.155  10.420  -1.354 -0.0832  0.5724  0.2910
  827MOL0     C11552   6.214  10.309  -1.433  0.9375  0.1393 -0.5378
  827MOL0     C11553   6.301  10.202  -1.355  0.0036 -0.9202 -0.1418
  827MOL0    Cl11554   6.206  10.096  -1.253  0.1455 -0.0389 -0.0057
  827MOL0     C11555   5.326  10.800  -1.308  0.2128  0.3996 -0.4886
  827MOL0     C11556   5.208  10.741  -1.265  0.1957  0.4080 -0.1318
  827MOL0     O11557   4.996  10.556  -1.349  0.0030 -0.2745 -0.1261
  827MOL0     C11558   4.811  10.541  -1.044 -0.3417 -0.1341 -0.7268
  827MOL0     C11559   4.686  10.492  -0.991 -0.2565  0.2907 -0.0184
  827MOL0     N11560   4.491   9.960  -0.809 -0.5724 -0.2281 -0.6030
  827MOL0     N11561   4.511   9.836  -0.790  0.1975 -0.3916  0.0382
  827MOL0     C11562   4.852   9.196   0.353 -0.2453 -0.5088  0.1277
  827MOL0     C11563   4.894   9.077   0.414 -0.5902 -0.1258  0.6316
  827MOL0     C11564   5.038   8.703   0.550  0.5116 -0.6205  0.6553
  827MOL0     C11565   4.981   8.582   0.609  0.2912  0.0373  0.2073
  827MOL0     C11566   5.065   8.490   0.670 -0.2501 -0.0418  0.3101
  827MOL0     C11567   5.200   8.512   0.678  0.2101 -0.6620  0.1443
  827MOL0     O11568   5.275   8.414   0.746 -1.0439  0.1944  0.1231
  827MOL0     C11569   5.414   8.393   0.727  0.7828 -0.9538  0.1084
  827MOL0     C11570   5.451   8.236   0.769  0.8165 -1.0475 -0.4835
  827MOL0     C11571   5.359   8.121   0.726  0.5439 -0.2039  0.3022
  827MOL0     C11572   5.215   8.099   0.766  0.4488 -0.0848 -0.7424
  827MOL0     C11573   5.212   8.057   0.906  0.4386 -0.1690 -0.6812
  827MOL0     C11574   5.214   8.017   1.017  0.5536  0.4002 -0.5836
  827MOL0     C11575   5.258   8.622   0.614  0.5227  0.7139  0.5383
  827MOL0     C11576   5.179   8.718   0.542  0.6918 -0.5424  0.6885
  827MOL0     C11577   5.245   8.837   0.494  0.1445  0.0461  0.1316
  827MOL0     H11578   5.030   8.920   0.134  1.1672 -2.0044  3.6302
  827MOL0     H11579   5.009   9.146   0.041  2.3650 -1.3298  1.0178
  827MOL0     H11580   4.874   9.487   0.016  0.4674 -1.1527 -2.2875
  827MOL0     H11581   4.875   9.340  -0.027  2.7549  1.8945 -1.0603
  827MOL0     H11582   4.631   9.452   0.145 -1.7609  1.7174 -2.2168
  827MOL0     H11583   4.627   9.308   0.061 -0.2104 -0.1910  0.2364
  827MOL0     H11584   4.702   9.581  -0.054  0.5426 -0.5237  2.2281
  827MOL0     H11585   4.536   9.521  -0.076 -0.0303  1.6888 -4.6775
  827MOL0     H11586   4.749   9.361  -0.200  0.2574  0.0837 -0.7007
  827MOL0     H11587   4.579   9.363  -0.233 -2.5449  1.3513  1.5039
  827MOL0     H11588   4.709   9.628  -0.283  2.3427  0.7401 -2.3485
  827MOL0     H11589   4.770   9.497  -0.387  2.1479  0.0275  2.1090
  827MOL0     H11590   4.552   9.456  -0.489 -3.1680 -0.3118 -0.4907
  827MOL0     H11591   4.470   9.549  -0.361  0.0841 -0.8287 -2.5304
  827MOL0     H11592   4.655   9.685  -0.565  2.2451  1.3831  2.9138
  827MOL0     H11593   4.577   9.749  -0.425 -0.9885  1.2399 -1.1876
  827MOL0     H11594   4.426   9.618  -0.668 -2.1133  0.4381 -0.5968
  827MOL0     H11595   4.358   9.699  -0.525 -1.1080  0.3245 -0.9192
  827MOL0     H11596   4.332   9.935  -0.527  1.9850  2.1656  1.0115
  827MOL0     H11597   4.274  10.167  -0.643  0.8485  3.5558  1.5277
  827MOL0     H11598   4.439  10.224  -0.671 -0.0934  0.7149 -0.5695
  827MOL0     H11599   4.393  10.175  -0.932 -0.5084 -0.2895 -2.6663
  827MOL0     H11600   4.228  10.158  -0.889  1.6105 -0.4860 -0.9919
  827MOL0     H11601   4.247  10.384  -0.788  1.8043 -2.1801  1.5316
  827MOL0     H11602   4.235  10.371  -0.960 -1.2978  0.6144  0.5146
  827MOL0     H11603   4.508  10.391  -0.820  3.4814  0.1702 -1.3748
  827MOL0     H11604   4.413  10.530  -0.896 -1.3612 -0.4132  0.7276
  827MOL0     H11605   4.571  10.362  -1.285  0.1938  1.0514 -0.3841
  827MOL0     H11606   4.777  10.446  -1.360  0.3900  2.1092  0.2616
  827MOL0     H11607   5.316  10.504  -1.038  0.7894  0.5524 -0.2103
  827MOL0     H11608   5.520  10.591  -1.118  0.1667 -2.4273 -0.7150
  827MOL0     H11609   5.709  10.650  -1.226  0.8566 -1.6256 -0.5797
  827MOL0     H11610   5.654  10.634  -1.393 -0.1041 -0.4768  0.7376
  827MOL0     H11611   5.760  10.866  -1.436 -2.3841 -0.1924  0.6861
  827MOL0     H11612   5.851  10.839  -1.295  1.0654  1.9675 -1.5606
  827MOL0     H11613   5.853  10.661  -1.538 -1.3445 -4.5984  3.5516
  827MOL0     H11614   5.982  10.773  -1.499 -0.4285 -0.2301 -2.1392
  827MOL0     H11615   5.908  10.546  -1.313 -1.6588  1.0206 -1.8402
  827MOL0     H11616   6.033  10.675  -1.286 -1.0237  1.3252  1.7717
  827MOL0     H11617   6.155  10.563  -1.515  2.6861  0.4026  1.9760
  827MOL0     H11618   6.024  10.470  -1.522  0.1703  2.9909 -2.2844
  827MOL0     H11619   6.241  10.470  -1.307 -1.1249  1.1556  1.6194
  827MOL0     H11620   6.084  10.374  -1.286 -0.2464 -0.9407 -0.8520
  827MOL0     H11621   6.275  10.356  -1.511 -1.0972  0.3653 -2.0631
  827MOL0     H11622   6.139  10.250  -1.486  1.0079  0.8494 -1.4389
  827MOL0     H11623   6.370  10.148  -1.421 -0.4441 -1.1973 -0.3844
  827MOL0     H11624   6.362  10.270  -1.295  0.6533  1.6473 -3.3685
  827MOL0     H11625   5.316  10.867  -1.393  0.3005 -2.8643 -3.2991
  827MOL0     H11626   5.115  10.786  -1.300 -1.3548 -1.5914  1.1656
  827MOL0     H11627   4.878  10.604  -0.986 -1.0018 -1.4748  1.6238
  827MOL0     H11628   4.668  10.520  -0.888 -0.5128  1.6154 -0.4012
  827MOL0     H11629   4.814   9.279   0.413  2.0251  0.1970  0.6901
  827MOL0     H11630   4.879   9.065   0.521  2.3332 -0.9001  1.0257
  827MOL0     H11631   4.875   8.561   0.616  0.7206 -1.6343  2.7925
  827MOL0     H11632   5.013   8.411   0.722 -2.3522  2.1215  1.7194
  827MOL0     H11633   5.471   8.467   0.784  0.9557  1.4254 -2.9145
  827MOL0     H11634   5.444   8.413   0.624 -0.4926  0.3198 -0.0424
  827MOL0     H11635   5.459   8.234   0.878  0.0487  3.3160 -0.1607
  827MOL0     H11636   5.552   8.212   0.736  1.5056 -0.4007  1.0357
  827MOL0     H11637   5.403   8.024   0.752  1.9297  0.5384  0.8067
  827MOL0     H11638   5.348   8.128   0.617  0.6323  2.2648  0.4036
  827MOL0     H11639   5.160   8.193   0.761  0.1248  0.0428  2.6183
  827MOL0     H11640   5.170   8.029   0.695 -0.1870 -1.2649  0.7669
  827MOL0     H11641   5.223   7.993   1.121  0.4953  1.1063 -0.4083
  827MOL0     H11642   5.363   8.639   0.637  0.4860  0.6847  0.7251
  827MOL0     H11643   5.337   8.853   0.551  0.1670  1.6792 -0.3125
  827MOL0     H11644   5.254   8.814   0.388  1.1123 -0.4913  0.3205
  827MOL0     H11645   5.189   8.931   0.501  1.7580  1.4737 -3.6752
  828MOL0     O11646   5.436   6.623   8.271  0.0666  0.2812 -0.6614
  828MOL0     C11647   5.336   6.601   8.202  0.7255 -0.0056 -0.3024
  828MOL0     O11648   5.274   6.692   8.108 -0.0032 -0.0868 -0.3990
  828MOL0     C11649   5.346   6.802   8.081 -0.3417 -0.8081 -0.7361
  828MOL0     C11650   5.457   6.794   7.995 -0.4100 -0.3254 -0.2125
  828MOL0     C11651   5.544   6.907   7.977  0.9493  0.2572  0.7802
  828MOL0     C11652   5.509   7.029   8.033  0.0334 -0.3675  0.8509
  828MOL0     O11653   5.596   7.132   8.003 -0.3062 -0.5678 -0.1985
  828MOL0     C11654   5.543   7.244   7.928  0.1001 -0.3538  0.5795
  828MOL0     C11655   5.630   7.372   7.945  0.0715 -0.2257 -0.2115
  828MOL0     C11656   5.674   7.383   8.094 -0.0992  0.7988  0.2305
  828MOL0     C11657   5.746   7.510   8.118  0.3829 -0.2026 -0.2766
  828MOL0     C11658   5.776   7.532   8.275 -0.0925 -0.0953 -0.6812
  828MOL0     C11659   5.752   7.671   8.322  0.1257  0.0985  0.4769
  828MOL0     C11660   5.766   7.682   8.473  0.0154  0.8106 -0.8577
  828MOL0     C11661   5.722   7.820   8.514  0.1004  0.2717  0.0973
  828MOL0     N11662   5.693   7.837   8.657 -0.6381 -0.5896  0.6335
  828MOL0     C11663   5.796   7.857   8.751  0.9315 -0.2097  0.6066
  828MOL0     C11664   5.742   7.917   8.853  0.1255 -0.7872 -0.2940
  828MOL0     C11665   5.808   7.963   8.977  0.1250 -0.0170  0.7456
  828MOL0     C11666   5.718   8.033   9.069  0.1554 -0.5877 -0.4244
  828MOL0     C11667   5.791   8.064   9.201 -0.7901 -0.9903  0.3396
  828MOL0     C11668   5.696   8.101   9.310  0.2287  0.0130 -0.6092
  828MOL0     O11669   5.598   7.999   9.337 -0.0202 -0.6332  0.2474
  828MOL0     C11670   5.495   8.034   9.422  0.1025  0.2232 -0.7676
  828MOL0     C11671   5.471   8.155   9.493  0.3005 -0.0833  0.5321
  828MOL0     C11672   5.352   8.163   9.571 -0.7915 -0.0628 -0.4244
  828MOL0     C11673   5.258   8.060   9.579 -0.2932  0.4045  0.3335
  828MOL0     C11674   5.123   8.074   9.648  0.2964 -0.4526  0.2929
  828MOL0     O11675   5.117   8.176   9.744  0.1116  0.6983 -0.2337
  828MOL0     C11676   4.995   8.240   9.778 -1.1392  0.2618 -0.3438
  828MOL0     C11677   4.870   8.215   9.718  0.1361 -0.3569  1.0529
  828MOL0     C11678   4.768   8.300   9.739  1.1676  0.2392  0.4109
  828MOL0     C11679   4.782   8.410   9.829 -0.1757 -0.6642 -0.5854
  828MOL0     O11680   4.668   8.489   9.842 -0.1697  0.1996 -0.3789
  828MOL0     C11681   4.651   8.594   9.936 -0.0458  0.9474  0.1116
  828MOL0     C11682   4.506   8.661   9.943  0.6485  0.3445  0.1258
  828MOL0     C11683   4.387   8.561   9.969  0.0407  0.0613  0.3160
  828MOL0     C11684   4.327   8.501   9.846  0.7657 -0.0387 -0.2992
  828MOL0     C11685   4.186   8.470   9.890  0.8613  0.7068  0.5103
  828MOL0     C11686   4.100   8.412   9.779 -0.6016  0.2510 -0.3000
  828MOL0     C11687   4.053   8.525   9.676 -0.0012  0.5402 -0.3308
  828MOL0     C11688   3.942   8.463   9.602 -0.1442  0.5831  0.3958
  828MOL0    Cl11689   3.868   8.582   9.470  0.0921  0.1095 -0.3356
  828MOL0     C11690   4.904   8.429   9.891 -0.4423 -0.9113 -0.0114
  828MOL0     C11691   5.005   8.345   9.865 -0.0908 -0.0794 -1.4696
  828MOL0     O11692   5.031   7.996   9.613  0.7681  0.5470  0.1051
  828MOL0     C11693   5.292   7.927   9.521  0.3711 -0.6163 -0.2939
  828MOL0     C11694   5.417   7.927   9.446  0.4507  0.1179  0.3929
  828MOL0     N11695   5.608   7.940   8.814  0.2477 -0.1123 -1.1531
  828MOL0     N11696   5.578   7.890   8.701 -0.2570 -0.0324  0.2058
  828MOL0     C11697   5.389   7.040   8.110 -0.7707  0.1203  0.3906
  828MOL0     C11698   5.311   6.926   8.139 -0.2153 -0.3112 -0.0128
  828MOL0     C11699   5.263   6.472   8.208  0.6153  0.6120  0.1819
  828MOL0     C11700   5.140   6.467   8.150  1.0860 -0.5183  0.3398
  828MOL0     C11701   5.069   6.341   8.137  0.4003 -0.6022  0.5766
  828MOL0     C11702   5.123   6.223   8.182  0.5822 -0.2038 -0.3003
  828MOL0     O11703   5.038   6.112   8.173  0.0273  0.6773  0.7923
  828MOL0     C11704   5.068   5.986   8.240  0.2513  0.7087 -0.2014
  828MOL0     C11705   5.040   5.990   8.394  0.0749 -0.0403 -0.5620
  828MOL0     C11706   5.037   5.854   8.462  0.3869 -0.7706 -0.2111
  828MOL0     C11707   4.988   5.862   8.601  0.3893 -0.2449  0.3157
  828MOL0     C11708   4.960   5.735   8.654  0.0691 -0.8729  0.1630
  828MOL0     C11709   4.953   5.626   8.710  0.2010  0.2549  0.5264
  828MOL0     C11710   5.247   6.232   8.245  0.4379 -0.3798  0.4511
  828MOL0     C11711   5.320   6.354   8.253  0.2620  0.3409  0.1329
  828MOL0     C11712   5.460   6.344   8.314 -0.5761  0.3551  1.3531
  828MOL0     H11713   5.461   6.697   7.948  0.0222 -0.1754 -0.4883
  828MOL0     H11714   5.630   6.896   7.912 -0.3144  0.4135 -1.0221
  828MOL0     H11715   5.538   7.221   7.821  2.1500  0.1595  0.3207
  828MOL0     H11716   5.438   7.267   7.947  0.9253  3.5585  1.2524
  828MOL0     H11717   5.572   7.456   7.906  0.5097  0.5260  0.7234
  828MOL0     H11718   5.724   7.368   7.889  1.2242 -0.9242  1.6762
  828MOL0     H11719   5.737   7.298   8.121  0.8001  0.2908 -3.0395
  828MOL0     H11720   5.583   7.400   8.152 -0.3824  5.3990 -1.1646
  828MOL0     H11721   5.832   7.534   8.053 -0.3859  3.3696 -0.2008
  828MOL0     H11722   5.677   7.593   8.099  1.5901  0.6021 -1.4512
  828MOL0     H11723   5.721   7.463   8.340  1.1666  0.1513  0.6989
  828MOL0     H11724   5.880   7.505   8.296  0.3667  1.0626 -1.3769
  828MOL0     H11725   5.822   7.740   8.272 -1.7591  1.7827  0.0229
  828MOL0     H11726   5.654   7.705   8.287  0.9663  2.9492  0.6096
  828MOL0     H11727   5.866   7.656   8.508 -0.6605  0.1113  0.6212
  828MOL0     H11728   5.695   7.615   8.523 -3.9080  3.5865 -2.1641
  828MOL0     H11729   5.799   7.893   8.485 -0.7943  1.1816 -0.0272
  828MOL0     H11730   5.632   7.849   8.459  0.6076  0.6765 -0.5493
  828MOL0     H11731   5.895   7.815   8.739  1.0304  0.4616 -1.1185
  828MOL0     H11732   5.844   7.871   9.024 -1.9040 -0.8839  0.7284
  828MOL0     H11733   5.893   8.027   8.952  0.0760  0.5267  1.8858
  828MOL0     H11734   5.687   8.126   9.021  1.4364  0.7070  1.1083
  828MOL0     H11735   5.638   7.965   9.100 -0.2738  0.8240  1.8640
  828MOL0     H11736   5.864   8.144   9.185  0.7799 -2.5455 -0.6484
  828MOL0     H11737   5.853   7.977   9.226 -1.4985 -2.2581 -2.0326
  828MOL0     H11738   5.642   8.191   9.278 -2.9320 -1.3117  0.6097
  828MOL0     H11739   5.748   8.124   9.403  2.5199 -3.3076 -0.9184
  828MOL0     H11740   5.530   8.245   9.483 -1.6025  1.2617  0.8561
  828MOL0     H11741   5.324   8.251   9.629 -2.8428 -0.9044 -0.0624
  828MOL0     H11742   4.853   8.131   9.652 -0.3178 -0.1369  0.8896
  828MOL0     H11743   4.673   8.280   9.689  1.6173  2.0820 -1.3199
  828MOL0     H11744   4.667   8.560  10.039  2.3070  0.4840 -0.3343
  828MOL0     H11745   4.730   8.665   9.911  0.0757  0.4129 -1.0816
  828MOL0     H11746   4.507   8.733  10.025 -2.2364  1.9235 -1.0838
  828MOL0     H11747   4.485   8.726   9.857 -0.1837 -2.7828 -2.2347
  828MOL0     H11748   4.400   8.478  10.040 -1.7497 -2.2460 -1.8491
  828MOL0     H11749   4.311   8.605  10.033 -1.8963 -0.2890 -1.6377
  828MOL0     H11750   4.385   8.412   9.821  1.3599  0.3636 -0.3811
  828MOL0     H11751   4.316   8.577   9.768  1.8778  1.9905  1.3928
  828MOL0     H11752   4.130   8.558   9.922 -0.7735  0.0958 -0.5596
  828MOL0     H11753   4.186   8.387   9.961 -1.6706 -2.5452 -2.8971
  828MOL0     H11754   4.154   8.334   9.726  1.2501  1.3433 -0.0936
  828MOL0     H11755   4.015   8.363   9.829  0.0915 -0.9384 -0.2589
  828MOL0     H11756   4.138   8.566   9.621  0.7050 -1.5151 -0.8637
  828MOL0     H11757   4.008   8.596   9.745  0.7114 -0.8588  1.6797
  828MOL0     H11758   3.998   8.378   9.561  0.9300  1.9919 -1.2209
  828MOL0     H11759   3.862   8.431   9.669 -1.3106 -0.8133 -1.5334
  828MOL0     H11760   4.918   8.518   9.952 -1.4866 -2.2387  2.2623
  828MOL0     H11761   5.102   8.367   9.909  0.6826 -3.2215 -1.3323
  828MOL0     H11762   5.225   7.842   9.518  0.2840 -0.6319  1.4909
  828MOL0     H11763   5.443   7.839   9.388  5.0150  0.8406  0.9667
  828MOL0     H11764   5.370   7.136   8.157  3.4523 -0.1494  3.1794
  828MOL0     H11765   5.215   6.930   8.190 -1.8194  1.0771 -2.8931
  828MOL0     H11766   5.078   6.552   8.124  1.2584 -0.4700  0.0822
  828MOL0     H11767   4.973   6.351   8.087 -0.1893 -1.7746  1.4284
  828MOL0     H11768   5.169   5.958   8.209 -0.7399 -0.0413 -2.9976
  828MOL0     H11769   4.995   5.920   8.193  2.0761 -1.7981  0.3083
  828MOL0     H11770   4.946   6.041   8.418 -0.6133 -1.7382  0.4469
  828MOL0     H11771   5.127   6.040   8.439  0.0394  0.6082 -1.1756
  828MOL0     H11772   5.141   5.820   8.462  1.0503  1.1365 -0.0372
  828MOL0     H11773   4.972   5.796   8.397  0.9537 -0.2225 -1.3034
  828MOL0     H11774   5.059   5.908   8.670 -2.0865  1.0835  2.1299
  828MOL0     H11775   4.893   5.917   8.599  0.9743  0.8163  0.8947
  828MOL0     H11776   4.954   5.529   8.755  5.2480 -0.7794 -1.1680
  828MOL0     H11777   5.296   6.142   8.283  0.3813 -0.3122  0.6849
  828MOL0     H11778   5.449   6.380   8.416 -1.0101  3.8989  0.2099
  828MOL0     H11779   5.507   6.245   8.310  2.5396  1.7573 -0.4954
  828MOL0     H11780   5.529   6.405   8.254  0.9344 -2.5747 -0.1305
  829MOL0     O11781   6.367   3.175   9.706 -0.7605 -0.8960  0.7606
  829MOL0     C11782   6.440   3.196   9.799 -0.3137 -0.1008  0.0943
  829MOL0     O11783   6.572   3.230   9.799  0.4612  0.6173 -0.7091
  829MOL0     C11784   6.643   3.237   9.679 -0.2051  0.2802 -0.0743
  829MOL0     C11785   6.601   3.272   9.550  0.1478 -0.5857 -0.0469
  829MOL0     C11786   6.696   3.263   9.439  1.0749 -0.0559 -0.3023
  829MOL0     C11787   6.827   3.229   9.457  1.0662 -0.0370 -0.3089
  829MOL0     O11788   6.928   3.219   9.362 -1.0113 -0.0398 -0.3003
  829MOL0     C11789   6.899   3.283   9.236  0.2118 -0.0811 -0.3081
  829MOL0     C11790   7.033   3.321   9.182 -0.1597  1.1044  0.1097
  829MOL0     C11791   7.120   3.202   9.143 -0.0351  1.1039  0.2123
  829MOL0     C11792   7.269   3.243   9.142  0.2041  0.8326 -0.5911
  829MOL0     C11793   7.355   3.135   9.074  0.5801 -1.2773  1.0761
  829MOL0     C11794   7.499   3.184   9.056 -0.0380  0.0872 -0.8145
  829MOL0     C11795   7.580   3.061   9.034 -0.4052  0.1733 -0.0915
  829MOL0     C11796   7.631   2.973   9.156  0.8998 -0.4714 -0.2696
  829MOL0     N11797   7.733   2.874   9.128 -0.4097  0.1462 -0.0244
  829MOL0     C11798   7.869   2.894   9.117  0.2551 -0.0321  0.5955
  829MOL0     C11799   7.910   2.782   9.058  0.9301 -0.0816  0.1805
  829MOL0     C11800   8.055   2.744   9.015 -0.0598  0.1258  0.3939
  829MOL0     C11801   8.096   2.632   9.104 -0.4746 -0.0733 -0.4956
  829MOL0     C11802   8.119   2.678   9.252  0.4163  0.3278  0.4395
  829MOL0     C11803   8.163   2.569   9.351 -0.8841  0.9428  0.9245
  829MOL0     O11804   8.296   2.533   9.328 -0.1077  0.0569 -0.7460
  829MOL0     C11805   8.376   2.479   9.430 -0.1575 -0.6857  0.5155
  829MOL0     C11806   8.517   2.486   9.410  1.1998 -0.0169  0.1182
  829MOL0     C11807   8.605   2.438   9.499 -0.1091  0.1454 -1.2818
  829MOL0     C11808   8.565   2.396   9.628  0.5253  0.0583  0.5996
  829MOL0     C11809   8.663   2.366   9.733 -0.7789  1.0666  0.0145
  829MOL0     O11810   8.628   2.363   9.866  0.2299  0.1563  0.1405
  829MOL0     C11811   8.704   2.305   9.964  0.4344 -0.7134 -0.1036
  829MOL0     C11812   8.718   2.162   9.960  0.2001  0.0467 -1.0416
  829MOL0     C11813   8.790   2.103  10.067  0.1032 -0.9161 -0.2058
  829MOL0     C11814   8.833   2.178  10.178  0.2724 -0.1669 -0.0965
  829MOL0     O11815   8.898   2.103  10.274  0.7173  0.9098  0.2986
  829MOL0     C11816   8.987   2.170  10.363 -0.4636  0.6559 -0.0233
  829MOL0     C11817   9.080   2.051  10.397  0.1356 -0.2702  0.1689
  829MOL0     C11818   9.172   2.086  10.512  0.1891  0.2700 -0.4662
  829MOL0     C11819   9.299   2.147  10.464  0.3102 -0.5882  0.0788
  829MOL0     C11820   9.376   2.208  10.586 -0.4330 -1.0966  1.2432
  829MOL0     C11821   9.394   2.111  10.698  0.2953  0.3230 -0.5055
  829MOL0     C11822   9.464   2.188  10.816 -0.5075 -0.2828  0.4284
  829MOL0     C11823   9.452   2.117  10.942 -1.0787  0.1448 -0.9545
  829MOL0    Cl11824   9.291   2.106  11.024  0.1954  0.4306  0.2563
  829MOL0     C11825   8.800   2.316  10.181  0.0927  0.3037 -0.1677
  829MOL0     C11826   8.740   2.377  10.078 -0.0992 -0.5964  0.5051
  829MOL0     O11827   8.778   2.339   9.690  0.4466  0.2184 -0.3183
  829MOL0     C11828   8.425   2.387   9.652  0.0215 -0.5828  0.1172
  829MOL0     C11829   8.329   2.432   9.557 -0.2451  0.1684 -0.2701
  829MOL0     N11830   7.798   2.697   9.034  0.6863 -0.2669 -0.9543
  829MOL0     N11831   7.687   2.746   9.093 -0.5443  0.7632  1.1279
  829MOL0     C11832   6.861   3.180   9.582 -0.4301  0.2026  0.3795
  829MOL0     C11833   6.778   3.192   9.690 -0.4822  0.1474 -0.6348
  829MOL0     C11834   6.368   3.211   9.934  1.0015  0.5938  0.8218
  829MOL0     C11835   6.406   3.305  10.034  0.2115 -0.3600  1.7374
  829MOL0     C11836   6.348   3.316  10.164  0.2783 -0.4277  0.3192
  829MOL0     C11837   6.232   3.238  10.191  0.2906 -1.2586  0.1316
  829MOL0     O11838   6.157   3.246  10.309 -0.3014  0.6108 -0.5246
  829MOL0     C11839   6.146   3.372  10.384 -0.3139 -0.4356  0.7599
  829MOL0     C11840   6.209   3.369  10.524  0.6657  0.1859 -0.0470
  829MOL0     C11841   6.127   3.272  10.613 -0.6194 -0.5953 -0.5182
  829MOL0     C11842   6.143   3.304  10.767 -0.3446  0.9242 -0.1723
  829MOL0     C11843   6.279   3.295  10.827 -1.2311 -0.0193  0.2004
  829MOL0     C11844   6.390   3.298  10.882  0.1962 -0.6552 -0.0683
  829MOL0     C11845   6.199   3.149  10.087  0.6343  0.7774  0.0753
  829MOL0     C11846   6.265   3.128   9.969  0.3678 -0.8127 -0.7034
  829MOL0     C11847   6.208   3.011   9.896  0.3756  0.7664 -0.2668
  829MOL0     H11848   6.500   3.301   9.524  0.5651 -1.2550 -2.8156
  829MOL0     H11849   6.653   3.292   9.344 -0.0280  3.1236  1.0384
  829MOL0     H11850   6.840   3.218   9.171 -2.5633  2.7444 -0.8559
  829MOL0     H11851   6.842   3.372   9.263  0.1551 -0.2516  0.1627
  829MOL0     H11852   7.073   3.404   9.241  0.0670  2.1654 -1.4700
  829MOL0     H11853   7.011   3.372   9.088 -2.3830  1.0913  0.5822
  829MOL0     H11854   7.092   3.165   9.044  2.0108 -0.2615  0.0853
  829MOL0     H11855   7.110   3.115   9.209  0.9132  2.2230  1.9240
  829MOL0     H11856   7.294   3.333   9.086  3.6267  0.1439 -0.3915
  829MOL0     H11857   7.310   3.257   9.242  2.3563 -0.9205 -1.1432
  829MOL0     H11858   7.336   3.042   9.129 -2.2310 -1.2492  0.3049
  829MOL0     H11859   7.313   3.118   8.974 -1.4605 -0.0034  1.6606
  829MOL0     H11860   7.516   3.248   8.969 -1.8941  1.0428 -0.5067
  829MOL0     H11861   7.541   3.223   9.149  0.4364 -0.3821 -0.8238
  829MOL0     H11862   7.677   3.084   8.989  1.2037 -2.6487  1.6526
  829MOL0     H11863   7.533   2.992   8.963 -3.0753  0.0138  1.6781
  829MOL0     H11864   7.674   3.039   9.233  1.8966  0.4386 -1.5720
  829MOL0     H11865   7.532   2.928   9.172 -0.3640  0.9574 -3.2779
  829MOL0     H11866   7.923   2.984   9.145  2.5184 -1.4402  0.9577
  829MOL0     H11867   8.051   2.724   8.908 -1.0236  0.7411  0.3010
  829MOL0     H11868   8.118   2.831   9.033 -1.5758  1.1760  0.8705
  829MOL0     H11869   8.014   2.560   9.107  0.5243 -1.2040  0.6551
  829MOL0     H11870   8.184   2.590   9.056 -0.0833  1.5037 -1.2056
  829MOL0     H11871   8.026   2.719   9.292  0.1515  0.8260 -0.6516
  829MOL0     H11872   8.185   2.765   9.264  1.5170 -0.7803  3.2198
  829MOL0     H11873   8.088   2.491   9.329  0.0117  0.4716 -0.5820
  829MOL0     H11874   8.158   2.603   9.455 -0.7292  1.8047  0.6545
  829MOL0     H11875   8.552   2.531   9.318 -0.7790 -1.4483 -1.3993
  829MOL0     H11876   8.710   2.452   9.472  0.6789  0.6113  1.7274
  829MOL0     H11877   8.674   2.099   9.883 -0.5243 -0.0255 -0.5792
  829MOL0     H11878   8.806   1.996  10.057 -0.0087 -0.7759 -2.3949
  829MOL0     H11879   9.048   2.241  10.307  0.4864 -0.6185 -0.6566
  829MOL0     H11880   8.935   2.211  10.450 -0.3631  1.7311 -0.4574
  829MOL0     H11881   9.025   1.960  10.422  0.7390 -1.5325 -2.7132
  829MOL0     H11882   9.126   2.021  10.302  1.4326  1.7831  0.0863
  829MOL0     H11883   9.117   2.148  10.583 -0.2889  1.3870 -1.7585
  829MOL0     H11884   9.204   1.996  10.565 -0.8452 -0.4617 -1.0433
  829MOL0     H11885   9.275   2.208  10.377 -0.2657 -0.9966 -0.0537
  829MOL0     H11886   9.355   2.066  10.416 -1.3653  0.7509 -4.6341
  829MOL0     H11887   9.329   2.305  10.603  3.1410  1.8995 -3.4927
  829MOL0     H11888   9.472   2.242  10.547 -0.7611 -1.0315  0.4888
  829MOL0     H11889   9.295   2.084  10.736  1.0657  0.7108  1.9701
  829MOL0     H11890   9.440   2.017  10.668 -0.7825 -0.4071  0.0767
  829MOL0     H11891   9.427   2.291  10.820  1.9893  0.9681 -3.1110
  829MOL0     H11892   9.567   2.202  10.782 -0.7273  1.3839  0.3659
  829MOL0     H11893   9.496   2.017  10.936 -0.1736  0.4224  0.5235
  829MOL0     H11894   9.520   2.169  11.010 -0.8992  0.5393 -1.4271
  829MOL0     H11895   8.812   2.380  10.267 -1.2805  4.3023 -2.6826
  829MOL0     H11896   8.711   2.480  10.091 -0.2857 -0.7615  1.4910
  829MOL0     H11897   8.389   2.343   9.744 -0.2922 -0.4488  0.0579
  829MOL0     H11898   8.227   2.423   9.591 -0.0130 -0.5732  0.2625
  829MOL0     H11899   6.964   3.147   9.591  0.2000  1.9123 -0.0906
  829MOL0     H11900   6.825   3.174   9.786  1.2765  3.0396 -0.8394
  829MOL0     H11901   6.490   3.365  10.001 -0.8450 -0.2819 -1.1296
  829MOL0     H11902   6.382   3.380  10.244 -0.1000 -1.0209  0.9642
  829MOL0     H11903   6.039   3.395  10.393 -0.1474  0.0379  1.5699
  829MOL0     H11904   6.197   3.445  10.321 -0.1057 -0.3474  1.0297
  829MOL0     H11905   6.202   3.476  10.548  2.2850  0.3351 -0.1562
  829MOL0     H11906   6.314   3.342  10.511  2.2590  4.2370  2.3276
  829MOL0     H11907   6.149   3.167  10.592 -0.0608 -0.7294  0.6898
  829MOL0     H11908   6.022   3.284  10.584 -0.7570  1.6841  0.6853
  829MOL0     H11909   6.104   3.403  10.794 -1.0407 -0.0673  2.8490
  829MOL0     H11910   6.084   3.240  10.833  0.9450 -0.2129 -0.1018
  829MOL0     H11911   6.491   3.287  10.915  0.6161 -2.7506 -1.8516
  829MOL0     H11912   6.119   3.085  10.123 -0.0290  3.2386  3.4587
  829MOL0     H11913   6.294   2.962   9.850  1.4995  0.1933  2.2716
  829MOL0     H11914   6.158   2.931   9.951 -1.9041  2.6241  0.5661
  829MOL0     H11915   6.134   3.055   9.829  2.2041  2.0584 -1.5259
  830MOL0     O11916   7.711   7.154   8.070 -0.1672 -0.8933  0.7430
  830MOL0     C11917   7.735   7.264   8.117  0.3340 -0.0831 -1.1799
  830MOL0     O11918   7.847   7.334   8.080  0.9393 -0.5173  0.2689
  830MOL0     C11919   7.926   7.292   7.973 -0.1290 -0.1098 -0.7350
  830MOL0     C11920   7.919   7.336   7.845  0.2641  0.3751 -0.9367
  830MOL0     C11921   8.011   7.307   7.750  0.0798  0.0886 -0.9586
  830MOL0     C11922   8.104   7.209   7.770  0.5297 -0.0284 -0.4464
  830MOL0     O11923   8.189   7.168   7.674  0.1293  0.5101  0.2176
  830MOL0     C11924   8.131   7.120   7.548  0.0185  0.3339  0.2905
  830MOL0     C11925   8.097   6.977   7.570 -0.3401 -0.0514 -0.1467
  830MOL0     C11926   8.224   6.893   7.575 -0.1066 -0.4837  0.2372
  830MOL0     C11927   8.204   6.756   7.638 -0.2435  0.0938  0.6948
  830MOL0     C11928   8.309   6.645   7.607 -0.4450 -0.2710 -0.1772
  830MOL0     C11929   8.274   6.508   7.665  0.8163  0.7115  1.0084
  830MOL0     C11930   8.364   6.398   7.600  0.3383 -0.0816 -0.5767
  830MOL0     C11931   8.375   6.392   7.451 -0.9144  0.8336  0.3074
  830MOL0     N11932   8.240   6.403   7.384  0.3821 -0.1166  0.3956
  830MOL0     C11933   8.199   6.501   7.298  0.3582  0.6645  0.3622
  830MOL0     C11934   8.086   6.458   7.235 -0.2954  1.1185 -0.2041
  830MOL0     C11935   8.037   6.537   7.119  1.1988 -0.7413  0.0453
  830MOL0     C11936   7.885   6.557   7.147 -0.2763 -0.1964  1.0639
  830MOL0     C11937   7.820   6.634   7.035 -0.0420  0.5957 -0.8389
  830MOL0     C11938   7.809   6.556   6.905 -0.5286  0.0387  0.7508
  830MOL0     O11939   7.711   6.620   6.819  0.2296 -0.0416 -0.3054
  830MOL0     C11940   7.576   6.575   6.821  0.1347 -0.1008 -0.0647
  830MOL0     C11941   7.555   6.435   6.790 -0.1884 -1.2310 -0.3541
  830MOL0     C11942   7.422   6.388   6.781 -0.0235 -1.6397 -0.1145
  830MOL0     C11943   7.307   6.473   6.811  0.3325 -0.2589  0.5680
  830MOL0     C11944   7.173   6.408   6.809  0.2138 -0.5976 -0.3152
  830MOL0     O11945   7.063   6.486   6.829  0.2932  0.5307 -0.2635
  830MOL0     C11946   6.935   6.444   6.795 -0.3427 -0.0419 -0.4577
  830MOL0     C11947   6.892   6.334   6.719  0.0231 -0.1216  0.9928
  830MOL0     C11948   6.756   6.314   6.696 -0.8095 -1.1290  0.6201
  830MOL0     C11949   6.658   6.404   6.746  0.6733  0.3522  0.3618
  830MOL0     O11950   6.526   6.388   6.747  1.1209 -1.0285 -0.5771
  830MOL0     C11951   6.453   6.492   6.678 -0.3168 -0.3286 -0.3339
  830MOL0     C11952   6.325   6.433   6.607 -0.3601 -0.4436 -0.1622
  830MOL0     C11953   6.259   6.547   6.533  1.5050  0.4950  0.0061
  830MOL0     C11954   6.112   6.508   6.504 -0.6597  0.3170  0.0851
  830MOL0     C11955   6.051   6.627   6.431  0.4303 -0.3082 -0.4307
  830MOL0     C11956   5.990   6.741   6.525 -1.0744 -0.3791  0.5171
  830MOL0     C11957   5.965   6.861   6.431 -0.6145  0.6645  0.4241
  830MOL0     C11958   5.898   6.982   6.484  0.8512 -0.2493  0.3022
  830MOL0    Cl11959   5.838   7.070   6.335  0.1262  0.3937 -0.0886
  830MOL0     C11960   6.703   6.509   6.830  0.3036 -0.4849 -0.0579
  830MOL0     C11961   6.844   6.536   6.851 -0.2974  0.1322 -0.2524
  830MOL0     O11962   7.174   6.289   6.790 -0.4039 -0.4489 -0.3019
  830MOL0     C11963   7.335   6.608   6.840 -0.0572  0.1400  0.4120
  830MOL0     C11964   7.468   6.662   6.842 -0.9567 -0.2319 -0.4036
  830MOL0     N11965   8.055   6.326   7.285 -0.9048 -0.6262  0.2692
  830MOL0     N11966   8.147   6.304   7.375 -0.5735  0.3420  0.9094
  830MOL0     C11967   8.110   7.152   7.906  1.0121  0.1367 -0.5715
  830MOL0     C11968   8.025   7.204   8.004 -0.0416 -0.0816  0.4310
  830MOL0     C11969   7.653   7.333   8.232 -0.9601  0.0846 -0.4401
  830MOL0     C11970   7.712   7.439   8.302  0.3584 -0.1117 -0.7992
  830MOL0     C11971   7.638   7.511   8.388  0.1291 -0.3495 -0.9875
  830MOL0     C11972   7.501   7.484   8.409 -0.3255 -0.2337  0.0080
  830MOL0     O11973   7.421   7.538   8.503  0.8683  0.0711 -0.2094
  830MOL0     C11974   7.463   7.633   8.601  0.5841  0.3552  0.2379
  830MOL0     C11975   7.346   7.728   8.646 -0.3342 -0.4116  0.6694
  830MOL0     C11976   7.380   7.823   8.764  0.6022 -0.0210  0.2844
  830MOL0     C11977   7.273   7.928   8.788 -1.0246  0.0471  0.0885
  830MOL0     C11978   7.165   7.875   8.865 -0.7929 -1.1988  0.0179
  830MOL0     C11979   7.072   7.821   8.922  0.6250  0.4730 -0.2776
  830MOL0     C11980   7.442   7.398   8.325  0.1487 -0.0205  0.0474
  830MOL0     C11981   7.515   7.313   8.243  0.2450 -0.0880  0.0269
  830MOL0     C11982   7.435   7.209   8.170  0.2604  0.5570  0.4452
  830MOL0     H11983   7.836   7.399   7.816  0.2302 -0.5056 -2.9497
  830MOL0     H11984   8.009   7.356   7.654 -2.5641 -0.7304 -1.4182
  830MOL0     H11985   8.047   7.180   7.514  0.7155  0.1185 -1.9603
  830MOL0     H11986   8.204   7.120   7.466  1.1159 -0.5721  1.2283
  830MOL0     H11987   8.020   6.938   7.504 -1.4949 -1.1509  1.7560
  830MOL0     H11988   8.047   6.971   7.667  1.3315  3.7050  1.1612
  830MOL0     H11989   8.301   6.943   7.635 -1.1214  2.9162 -1.0408
  830MOL0     H11990   8.253   6.868   7.473  2.8419  2.2766  0.2219
  830MOL0     H11991   8.200   6.775   7.745 -1.9836  1.9304  0.3572
  830MOL0     H11992   8.105   6.714   7.620 -0.2179 -0.1027  1.0093
  830MOL0     H11993   8.334   6.633   7.501 -1.0091 -0.5930 -0.2814
  830MOL0     H11994   8.398   6.693   7.648 -0.1500  0.5425 -1.7290
  830MOL0     H11995   8.289   6.504   7.773  0.2271  1.4189  1.1272
  830MOL0     H11996   8.172   6.476   7.641  0.2437  2.2376  1.2616
  830MOL0     H11997   8.307   6.310   7.630 -2.8846  1.1101 -2.6654
  830MOL0     H11998   8.466   6.393   7.638  1.8302  2.4131 -3.7538
  830MOL0     H11999   8.460   6.452   7.417  2.2886 -2.2443  2.2002
  830MOL0     H12000   8.416   6.292   7.430 -1.9920  0.1652  1.2395
  830MOL0     H12001   8.250   6.595   7.280  0.9787  0.1622 -0.5970
  830MOL0     H12002   8.087   6.634   7.110 -0.2851  0.4915  3.3790
  830MOL0     H12003   8.052   6.470   7.035 -0.9628 -2.1008  0.6687
  830MOL0     H12004   7.835   6.460   7.146  1.6960 -1.2526 -0.0358
  830MOL0     H12005   7.888   6.613   7.241  4.6111  0.4311  0.7657
  830MOL0     H12006   7.880   6.725   7.027  0.6267  0.4846  1.8272
  830MOL0     H12007   7.718   6.657   7.065 -0.5939 -0.4291 -1.8660
  830MOL0     H12008   7.781   6.451   6.918 -1.0350  0.0024 -0.4806
  830MOL0     H12009   7.902   6.556   6.846 -1.8817 -0.3488 -1.5135
  830MOL0     H12010   7.638   6.366   6.777  1.6011  0.8249 -0.4879
  830MOL0     H12011   7.400   6.283   6.770 -0.6179 -1.6140  0.7334
  830MOL0     H12012   6.964   6.282   6.656 -2.1159 -2.0299  0.0065
  830MOL0     H12013   6.721   6.241   6.624 -0.1464 -0.0447 -0.8639
  830MOL0     H12014   6.423   6.567   6.753 -1.1247  1.8693 -2.7197
  830MOL0     H12015   6.518   6.536   6.602 -1.0026  0.7510 -0.3172
  830MOL0     H12016   6.355   6.355   6.536  2.2661  0.2197  0.0811
  830MOL0     H12017   6.257   6.407   6.688  0.8157  0.1124  1.0315
  830MOL0     H12018   6.262   6.632   6.603 -2.3273 -0.4285  1.5255
  830MOL0     H12019   6.307   6.577   6.439  3.8413  3.9276  2.0424
  830MOL0     H12020   6.061   6.488   6.598 -1.2544 -0.2762 -0.3555
  830MOL0     H12021   6.105   6.421   6.438 -0.8207 -0.5705  1.2382
  830MOL0     H12022   5.961   6.601   6.373 -0.7731  2.5645 -0.0420
  830MOL0     H12023   6.120   6.671   6.358 -0.8102  4.0901  0.7396
  830MOL0     H12024   5.894   6.712   6.570 -3.0306  1.9059 -1.9014
  830MOL0     H12025   6.062   6.787   6.594  0.6434  1.9541 -2.6127
  830MOL0     H12026   5.892   6.823   6.358  0.5418 -0.1311 -0.3586
  830MOL0     H12027   6.055   6.894   6.379 -0.7345 -0.2018 -0.3615
  830MOL0     H12028   5.815   6.940   6.541 -0.7211 -1.4000 -2.6090
  830MOL0     H12029   5.955   7.043   6.554  2.4461 -2.8029  1.3933
  830MOL0     H12030   6.630   6.572   6.880 -1.3680 -1.3572 -1.2918
  830MOL0     H12031   6.882   6.628   6.894 -0.8843 -0.8629  2.6072
  830MOL0     H12032   7.259   6.684   6.857  1.3600  2.2509 -1.8786
  830MOL0     H12033   7.467   6.766   6.871 -2.0091 -0.8859  2.2649
  830MOL0     H12034   8.183   7.072   7.921 -0.1666 -1.0585 -1.0475
  830MOL0     H12035   8.043   7.170   8.105 -0.4245 -4.2315 -0.7378
  830MOL0     H12036   7.821   7.443   8.305  0.4323 -1.2900  2.5359
  830MOL0     H12037   7.690   7.588   8.445  0.9258 -2.9993  2.1043
  830MOL0     H12038   7.540   7.703   8.567  1.2076 -0.3400  0.1954
  830MOL0     H12039   7.512   7.590   8.689  3.1693  4.4998  1.1390
  830MOL0     H12040   7.269   7.653   8.668  1.5538 -2.5093  0.4828
  830MOL0     H12041   7.315   7.791   8.563 -0.0238 -0.6000  0.4068
  830MOL0     H12042   7.465   7.883   8.732  1.1124  1.1507  3.5032
  830MOL0     H12043   7.415   7.773   8.855 -0.4488  0.8024  1.1820
  830MOL0     H12044   7.322   8.001   8.853 -0.6170 -0.4924  0.3952
  830MOL0     H12045   7.245   7.992   8.704  0.1430  2.2933  1.3222
  830MOL0     H12046   6.985   7.785   8.974  0.5133  1.6114  0.3616
  830MOL0     H12047   7.334   7.385   8.333  0.3399 -1.4436  0.6484
  830MOL0     H12048   7.457   7.222   8.064  1.2017 -1.4384  0.3495
  830MOL0     H12049   7.453   7.102   8.183  1.0084  0.4541 -1.1680
  830MOL0     H12050   7.329   7.231   8.185  0.1051  0.1916 -0.0966
  831MOL0     O12051   1.580   0.441   5.456 -0.2094 -0.4330  0.3201
  831MOL0     C12052   1.467   0.435   5.493  0.2359 -0.1282 -0.1866
  831MOL0     O12053   1.427   0.382   5.614 -0.8197  0.2060 -0.1165
  831MOL0     C12054   1.533   0.329   5.691  0.4991 -0.1194  0.2558
  831MOL0     C12055   1.602   0.422   5.772  0.4753 -0.2767 -0.1444
  831MOL0     C12056   1.664   0.370   5.884  0.6435 -0.0364  0.6157
  831MOL0     C12057   1.677   0.237   5.906  0.4413 -0.3389 -0.3284
  831MOL0     O12058   1.739   0.170   6.015 -0.4852 -0.1387 -0.0743
  831MOL0     C12059   1.724   0.231   6.141  0.2136 -0.2528 -0.5235
  831MOL0     C12060   1.717   0.133   6.262  0.6303  0.3183 -0.2855
  831MOL0     C12061   1.723   0.207   6.399 -1.2364 -0.4657 -0.3789
  831MOL0     C12062   1.602   0.293   6.420  1.1102  0.3089 -0.5297
  831MOL0     C12063   1.590   0.353   6.564 -0.0676 -0.5342  0.9540
  831MOL0     C12064   1.454   0.423   6.587  0.1488 -0.1753  0.7226
  831MOL0     C12065   1.459   0.551   6.502  0.0585 -0.2834  0.6510
  831MOL0     C12066   1.332   0.636   6.544 -0.4835  0.5254  0.4622
  831MOL0     N12067   1.302   0.755   6.459  0.0842  0.1126  0.7811
  831MOL0     C12068   1.374   0.870   6.454 -0.9241 -0.4749  1.0243
  831MOL0     C12069   1.303   0.947   6.379  0.0308 -1.0008 -0.6795
  831MOL0     C12070   1.347   1.088   6.342  0.0877  0.4079  0.0473
  831MOL0     C12071   1.458   1.084   6.230  0.6197 -0.2024  0.0331
  831MOL0     C12072   1.546   1.211   6.209  0.5607 -0.2302  0.3044
  831MOL0     C12073   1.696   1.194   6.251  0.3012 -0.4730 -0.1414
  831MOL0     O12074   1.717   1.122   6.377 -0.9495 -0.3449  0.5627
  831MOL0     C12075   1.850   1.106   6.410  0.1864 -0.5871  0.6822
  831MOL0     C12076   1.866   1.039   6.530 -0.3831  0.0782 -0.9458
  831MOL0     C12077   1.994   1.006   6.569 -0.0758 -0.1002 -0.4763
  831MOL0     C12078   2.106   1.056   6.511  0.1077  0.1629  0.1302
  831MOL0     C12079   2.236   1.028   6.575 -0.0668  0.1551  0.4046
  831MOL0     O12080   2.240   0.927   6.663  0.1714  0.5948 -0.1217
  831MOL0     C12081   2.336   0.915   6.766  0.7767  0.1793 -0.0792
  831MOL0     C12082   2.330   0.803   6.854  0.1611 -1.0107  1.4030
  831MOL0     C12083   2.404   0.781   6.964  0.3675  0.1204  0.8617
  831MOL0     C12084   2.502   0.873   6.995 -0.0760  1.1109 -0.0549
  831MOL0     O12085   2.578   0.842   7.104 -0.2963 -0.2391 -0.4513
  831MOL0     C12086   2.696   0.929   7.102 -0.0753 -1.2547 -0.5351
  831MOL0     C12087   2.807   0.880   7.198 -0.2982  0.1037 -0.3435
  831MOL0     C12088   2.869   0.748   7.155 -0.2377 -0.9007 -0.0111
  831MOL0     C12089   3.018   0.752   7.203  0.1814  0.2758 -0.1458
  831MOL0     C12090   3.099   0.636   7.159  0.6530 -0.3611 -0.4387
  831MOL0     C12091   3.245   0.667   7.192 -0.0411 -0.6725 -0.2223
  831MOL0     C12092   3.345   0.554   7.154 -0.2875  1.1387  0.3032
  831MOL0     C12093   3.460   0.610   7.077  0.6715 -0.2397  0.6245
  831MOL0    Cl12094   3.542   0.740   7.164 -0.0078  0.3898 -0.0742
  831MOL0     C12095   2.517   0.983   6.915  0.5890 -0.7251 -0.2531
  831MOL0     C12096   2.423   1.013   6.809 -0.0279 -0.6635 -0.3591
  831MOL0     O12097   2.332   1.091   6.532 -0.3605 -0.5300 -0.9017
  831MOL0     C12098   2.083   1.132   6.394 -0.2716  0.0116  0.4848
  831MOL0     C12099   1.962   1.157   6.347  0.1810 -0.3548  0.4626
  831MOL0     N12100   1.186   0.897   6.334 -0.0576  0.8513 -0.3603
  831MOL0     N12101   1.182   0.780   6.396 -0.1647  0.0871  0.2950
  831MOL0     C12102   1.635   0.156   5.816 -0.0763  0.4179  0.1880
  831MOL0     C12103   1.558   0.196   5.710  0.6071  0.4709  0.0040
  831MOL0     C12104   1.365   0.473   5.394  0.1389 -0.2948  0.1295
  831MOL0     C12105   1.241   0.410   5.403 -0.1500  0.7920  0.1728
  831MOL0     C12106   1.142   0.428   5.311 -0.2445 -0.5693  0.8921
  831MOL0     C12107   1.163   0.509   5.197 -0.7027  0.8719 -0.2001
  831MOL0     O12108   1.075   0.505   5.088 -0.1580  0.1123  1.1894
  831MOL0     C12109   0.940   0.456   5.097 -0.6360  0.7203  0.8429
  831MOL0     C12110   0.898   0.465   4.953  0.5098  0.4128  0.3597
  831MOL0     C12111   0.764   0.382   4.932 -0.4808 -0.2917 -0.5829
  831MOL0     C12112   0.731   0.367   4.795 -0.3204  0.9848 -0.9217
  831MOL0     C12113   0.741   0.492   4.719 -0.2685  0.4521 -0.0574
  831MOL0     C12114   0.755   0.573   4.632  0.1011 -0.6412  0.1639
  831MOL0     C12115   1.283   0.580   5.190  0.9768  0.6883 -0.4927
  831MOL0     C12116   1.378   0.568   5.292 -0.4019 -0.4701  0.3411
  831MOL0     C12117   1.501   0.655   5.285  0.3282 -0.3783 -0.1529
  831MOL0     H12118   1.584   0.529   5.765 -0.3003 -0.4745 -2.1944
  831MOL0     H12119   1.700   0.438   5.961  0.0635 -0.6208  1.4036
  831MOL0     H12120   1.799   0.309   6.157 -0.8086  0.7501 -0.5073
  831MOL0     H12121   1.629   0.282   6.161  0.9777 -0.0666  3.1660
  831MOL0     H12122   1.816   0.087   6.258  0.5767  0.1346  0.3265
  831MOL0     H12123   1.639   0.056   6.253  1.7953 -1.0769  0.9660
  831MOL0     H12124   1.819   0.259   6.395 -0.7763 -1.1863  0.7826
  831MOL0     H12125   1.724   0.129   6.476 -2.2123 -0.5844 -0.4712
  831MOL0     H12126   1.593   0.374   6.347  2.1182  0.5714 -0.3831
  831MOL0     H12127   1.514   0.231   6.400  0.6649  1.0837 -1.0145
  831MOL0     H12128   1.596   0.266   6.630 -1.0972 -0.4066  1.2354
  831MOL0     H12129   1.671   0.426   6.573 -0.2401  0.3187 -2.6826
  831MOL0     H12130   1.366   0.361   6.564 -0.5422 -0.5199  3.7322
  831MOL0     H12131   1.442   0.455   6.691  1.7826  0.3549  0.7688
  831MOL0     H12132   1.454   0.528   6.395  3.3255  2.9380 -0.3770
  831MOL0     H12133   1.550   0.609   6.520  0.6233 -0.9116 -0.0872
  831MOL0     H12134   1.250   0.564   6.539  0.9178 -1.0623 -1.3223
  831MOL0     H12135   1.341   0.665   6.649  1.6984  1.7393  0.0050
  831MOL0     H12136   1.468   0.886   6.507  1.5496 -0.4239 -2.9845
  831MOL0     H12137   1.256   1.144   6.318 -1.5074 -0.5377  3.2637
  831MOL0     H12138   1.381   1.126   6.439 -2.4202  0.2633  1.0783
  831MOL0     H12139   1.527   1.000   6.246  2.2403  1.2689  1.2412
  831MOL0     H12140   1.402   1.075   6.137  1.8971  0.2679 -0.8165
  831MOL0     H12141   1.507   1.296   6.267  0.0576 -0.0408 -0.2980
  831MOL0     H12142   1.544   1.244   6.105  1.9591 -2.1063 -0.3701
  831MOL0     H12143   1.737   1.295   6.249 -1.0213  0.0966 -0.1402
  831MOL0     H12144   1.748   1.140   6.171 -0.5672 -1.4910 -0.0573
  831MOL0     H12145   1.775   0.996   6.572 -0.1402 -0.8265 -1.3215
  831MOL0     H12146   2.011   0.965   6.668 -1.8639  2.0560  0.8266
  831MOL0     H12147   2.243   0.739   6.843 -1.3236  1.3591 -3.0291
  831MOL0     H12148   2.391   0.690   7.020  0.3035 -0.2393  0.2773
  831MOL0     H12149   2.756   0.944   7.012 -0.8079 -0.1599 -0.8692
  831MOL0     H12150   2.665   1.030   7.133 -0.3564 -0.7265 -2.4374
  831MOL0     H12151   2.888   0.953   7.190  1.4590 -1.7312 -0.1952
  831MOL0     H12152   2.775   0.881   7.303 -1.5739 -0.1924 -0.7124
  831MOL0     H12153   2.802   0.670   7.193 -0.9509 -0.1470  0.2976
  831MOL0     H12154   2.867   0.737   7.046 -1.6845 -2.8503  0.1605
  831MOL0     H12155   3.024   0.761   7.312  0.8850  3.5295 -0.3456
  831MOL0     H12156   3.062   0.845   7.166  0.1250  0.7540  0.9681
  831MOL0     H12157   3.085   0.622   7.052 -1.8398  0.9136 -0.3593
  831MOL0     H12158   3.064   0.541   7.202 -1.3322  0.5535  0.0934
  831MOL0     H12159   3.281   0.760   7.147 -0.5299 -0.1311  0.4859
  831MOL0     H12160   3.257   0.666   7.301  0.4516 -1.9180 -0.2678
  831MOL0     H12161   3.288   0.477   7.102  1.5922  1.0789 -1.8502
  831MOL0     H12162   3.388   0.497   7.236  2.3841  0.5759 -1.3570
  831MOL0     H12163   3.525   0.525   7.055 -0.9788 -2.1230  2.5870
  831MOL0     H12164   3.415   0.653   6.987 -1.3568  0.0140  1.6963
  831MOL0     H12165   2.594   1.060   6.920  1.2430 -1.1999 -2.3264
  831MOL0     H12166   2.426   1.104   6.751 -1.0461 -2.1816 -2.9862
  831MOL0     H12167   2.169   1.167   6.337  1.4640  1.2263  3.6023
  831MOL0     H12168   1.961   1.205   6.250  0.1273  1.5131  1.3547
  831MOL0     H12169   1.663   0.054   5.841  0.2869 -0.2536 -2.5980
  831MOL0     H12170   1.523   0.127   5.634  1.8374 -2.3178  1.8194
  831MOL0     H12171   1.223   0.329   5.472 -2.8882  0.7877 -0.4308
  831MOL0     H12172   1.064   0.353   5.305  1.8604 -2.8700  0.2911
  831MOL0     H12173   0.872   0.505   5.167 -2.8738 -2.0882  0.7968
  831MOL0     H12174   0.937   0.354   5.137 -1.9581  0.4581  0.1057
  831MOL0     H12175   0.974   0.441   4.878  0.2022  0.5674 -0.0039
  831MOL0     H12176   0.882   0.570   4.928  2.3984  0.8310  0.7502
  831MOL0     H12177   0.681   0.434   4.981  0.4914  1.9784 -1.2262
  831MOL0     H12178   0.775   0.284   4.979 -1.2001 -0.5373 -0.9096
  831MOL0     H12179   0.794   0.292   4.747 -1.1845 -2.2683  2.5773
  831MOL0     H12180   0.628   0.334   4.778 -0.3509 -1.4424  2.8241
  831MOL0     H12181   0.732   0.644   4.555  1.3394  0.2382  0.5772
  831MOL0     H12182   1.305   0.647   5.107  0.4339 -0.2240 -1.3970
  831MOL0     H12183   1.489   0.748   5.229  2.9181 -0.1683 -0.4561
  831MOL0     H12184   1.516   0.691   5.387 -2.9199 -4.3652  2.0635
  831MOL0     H12185   1.591   0.603   5.251  0.8856  1.4478 -1.6117
  832MOL0     O12186   8.118   5.016   5.420 -0.0828 -0.0800  0.0751
  832MOL0     C12187   8.207   5.087   5.473 -0.0405 -0.6786  0.4112
  832MOL0     O12188   8.337   5.102   5.427  0.5340 -0.1495 -0.2616
  832MOL0     C12189   8.398   5.015   5.344 -0.5550  0.4611 -0.0572
  832MOL0     C12190   8.529   4.976   5.378  0.1485 -0.7515 -0.3204
  832MOL0     C12191   8.598   4.883   5.302  0.2672  0.9667 -0.2301
  832MOL0     C12192   8.549   4.828   5.191  0.1553  0.3827  0.1477
  832MOL0     O12193   8.626   4.732   5.128  0.0796 -0.1644 -0.0125
  832MOL0     C12194   8.675   4.791   5.008 -0.3083 -0.3137 -0.3148
  832MOL0     C12195   8.754   4.672   4.942 -0.6757 -0.0240 -0.2186
  832MOL0     C12196   8.845   4.589   5.038  0.2679 -0.0233  0.2656
  832MOL0     C12197   8.893   4.461   4.969 -0.6327  0.3811 -0.7370
  832MOL0     C12198   8.959   4.366   5.072  1.1618 -0.4497  0.3104
  832MOL0     C12199   8.995   4.230   5.016  0.4072  0.3602 -0.1919
  832MOL0     C12200   8.874   4.141   4.988 -0.3093 -0.2917 -0.4278
  832MOL0     C12201   8.910   4.019   4.905 -0.4943  0.2451  0.1955
  832MOL0     N12202   8.995   3.916   4.971  0.9999 -0.3902 -0.6376
  832MOL0     C12203   8.951   3.794   5.009  0.1247 -1.0610  0.6381
  832MOL0     C12204   9.063   3.730   5.037 -0.3539  1.4786  0.8941
  832MOL0     C12205   9.084   3.598   5.099  0.2868 -0.3538 -0.0555
  832MOL0     C12206   8.954   3.543   5.165 -0.6340 -0.1479 -0.4879
  832MOL0     C12207   8.978   3.419   5.254  0.1069 -0.5687  0.1495
  832MOL0     C12208   9.069   3.428   5.377 -0.0476  0.6826  0.2966
  832MOL0     O12209   9.011   3.498   5.482  0.1535  0.0720  0.6262
  832MOL0     C12210   8.956   3.629   5.462  0.6320  0.6515  0.5884
  832MOL0     C12211   8.831   3.661   5.512  0.7512 -0.3644 -0.9528
  832MOL0     C12212   8.770   3.787   5.499 -0.0936  0.0047  0.1852
  832MOL0     C12213   8.839   3.885   5.434  0.1623  0.7687  0.3008
  832MOL0     C12214   8.780   4.017   5.418 -0.4648 -0.3455 -0.1719
  832MOL0     O12215   8.654   4.025   5.475 -0.0275  0.6554 -0.4740
  832MOL0     C12216   8.560   4.126   5.452  0.3713  0.1231  0.7073
  832MOL0     C12217   8.569   4.216   5.347 -0.0287  0.7156 -0.6518
  832MOL0     C12218   8.477   4.319   5.337  0.5437 -1.0356 -0.0731
  832MOL0     C12219   8.359   4.321   5.412 -0.0558 -0.3697  0.2215
  832MOL0     O12220   8.256   4.404   5.381 -0.1684  0.4334 -0.4096
  832MOL0     C12221   8.218   4.403   5.239  0.2936 -0.9515  0.4019
  832MOL0     C12222   8.075   4.466   5.229  0.1755 -0.9615  0.0571
  832MOL0     C12223   8.043   4.480   5.087 -0.0992  0.5974  0.4664
  832MOL0     C12224   7.983   4.352   5.028 -0.4406 -1.0325 -0.0030
  832MOL0     C12225   7.926   4.379   4.889  0.5401  0.5306 -0.8361
  832MOL0     C12226   7.815   4.275   4.858 -0.0133 -0.2816 -0.1330
  832MOL0     C12227   7.765   4.290   4.712  0.9766  0.0617 -0.7540
  832MOL0     C12228   7.618   4.239   4.710  0.1392  0.3228 -0.8200
  832MOL0    Cl12229   7.609   4.065   4.740 -0.5326  0.1436 -0.0473
  832MOL0     C12230   8.345   4.219   5.513  0.4057  1.3027  0.4806
  832MOL0     C12231   8.441   4.115   5.535  0.1213  0.4794 -0.2927
  832MOL0     O12232   8.831   4.108   5.357  0.7227  0.6319 -0.3586
  832MOL0     C12233   8.966   3.851   5.397 -0.1332 -0.9728 -0.2038
  832MOL0     C12234   9.031   3.729   5.416  0.2797 -0.0332  0.3531
  832MOL0     N12235   9.173   3.804   5.021 -0.6132  0.0853 -0.1127
  832MOL0     N12236   9.131   3.921   4.984  0.2747  0.8782  0.0960
  832MOL0     C12237   8.423   4.876   5.145 -0.0354 -0.0362  0.2177
  832MOL0     C12238   8.348   4.970   5.221 -0.5898  0.4106 -0.1893
  832MOL0     C12239   8.165   5.174   5.580  0.8689  0.5965 -0.0287
  832MOL0     C12240   8.030   5.221   5.574 -0.6613  0.8165 -0.7157
  832MOL0     C12241   7.983   5.319   5.660 -0.5277  0.7352 -0.1283
  832MOL0     C12242   8.062   5.357   5.769  0.1295  1.1311  0.3374
  832MOL0     O12243   8.007   5.463   5.838 -0.4901  0.4612  0.4971
  832MOL0     C12244   8.066   5.505   5.967  0.2375  0.6664 -0.7763
  832MOL0     C12245   7.990   5.624   6.018  0.1370  0.4149  0.4244
  832MOL0     C12246   8.020   5.733   5.919 -0.4231  0.4553 -0.6960
  832MOL0     C12247   7.901   5.799   5.845  0.5466  0.4523 -0.0009
  832MOL0     C12248   7.828   5.696   5.779  0.6462  0.2989  0.6022
  832MOL0     C12249   7.767   5.608   5.716  0.5951  0.3477 -0.3912
  832MOL0     C12250   8.189   5.296   5.780 -0.5740  0.7606 -0.5704
  832MOL0     C12251   8.243   5.209   5.683  0.5307  0.2216  0.6989
  832MOL0     C12252   8.386   5.177   5.697  0.0254 -0.1313 -0.1436
  832MOL0     H12253   8.577   5.023   5.464 -1.2313 -1.1214  0.6798
  832MOL0     H12254   8.700   4.854   5.326  0.3304 -0.1792 -1.7479
  832MOL0     H12255   8.587   4.809   4.946 -0.5212 -1.7969 -0.4886
  832MOL0     H12256   8.740   4.875   5.032 -2.1373  0.5841  1.9281
  832MOL0     H12257   8.812   4.717   4.861 -2.0193 -0.6325 -1.5743
  832MOL0     H12258   8.683   4.612   4.886 -0.5676  1.2593 -1.7924
  832MOL0     H12259   8.796   4.557   5.131 -0.2259 -0.2579 -0.0726
  832MOL0     H12260   8.929   4.659   5.040 -1.0789  1.9553 -3.3284
  832MOL0     H12261   8.815   4.413   4.909 -2.2186  0.6736  0.9640
  832MOL0     H12262   8.975   4.497   4.907  0.4041  2.4021  1.6152
  832MOL0     H12263   9.043   4.422   5.113  0.4298  1.6387 -0.8787
  832MOL0     H12264   8.890   4.338   5.152 -0.4315 -1.9447 -1.4951
  832MOL0     H12265   9.039   4.248   4.918 -1.9258 -0.3133 -1.4653
  832MOL0     H12266   9.063   4.189   5.091  0.4855  1.6161  0.4416
  832MOL0     H12267   8.813   4.203   4.921  0.8190  0.0404 -1.1723
  832MOL0     H12268   8.823   4.114   5.080 -0.1814 -0.4640 -0.4087
  832MOL0     H12269   8.820   3.970   4.868  0.8784 -1.0309 -1.6964
  832MOL0     H12270   8.981   4.039   4.824 -0.1466 -1.7549 -0.0421
  832MOL0     H12271   8.851   3.751   5.013  1.0042 -3.2788  0.1497
  832MOL0     H12272   9.120   3.530   5.021  0.4427 -0.9038  0.4836
  832MOL0     H12273   9.159   3.605   5.178  0.6712 -1.1870 -0.3308
  832MOL0     H12274   8.912   3.628   5.219 -0.4981 -1.0421  1.0799
  832MOL0     H12275   8.883   3.521   5.085 -1.4750  2.5688 -0.5944
  832MOL0     H12276   9.018   3.342   5.187  0.0644 -0.9833  0.5962
  832MOL0     H12277   8.877   3.388   5.283 -0.8238  0.8658 -1.3936
  832MOL0     H12278   9.165   3.478   5.360  0.5357  0.3851  2.4873
  832MOL0     H12279   9.099   3.327   5.407 -1.9122 -0.4811 -1.4605
  832MOL0     H12280   8.773   3.585   5.563  1.4002 -1.2557 -1.5184
  832MOL0     H12281   8.670   3.805   5.538 -0.6570 -0.0160 -1.1752
  832MOL0     H12282   8.654   4.218   5.281  0.9665  1.4364  0.6020
  832MOL0     H12283   8.502   4.389   5.258  3.5566 -1.9926 -0.0917
  832MOL0     H12284   8.286   4.472   5.188 -0.6946 -1.3337 -1.4922
  832MOL0     H12285   8.210   4.305   5.191 -2.9392 -0.1452 -0.9454
  832MOL0     H12286   8.010   4.398   5.286  1.4376 -0.6864  1.9291
  832MOL0     H12287   8.075   4.567   5.272  0.8474  0.4115 -2.9286
  832MOL0     H12288   7.970   4.560   5.073 -1.9523 -0.9946  0.5903
  832MOL0     H12289   8.133   4.520   5.040  0.5833 -1.3526  0.0200
  832MOL0     H12290   7.893   4.320   5.082 -0.1429  0.0551  1.1892
  832MOL0     H12291   8.064   4.278   5.034 -0.4275 -0.9006  2.5384
  832MOL0     H12292   8.009   4.360   4.820  0.4744 -0.7228 -0.6014
  832MOL0     H12293   7.894   4.483   4.878 -0.6518  0.1666 -0.9284
  832MOL0     H12294   7.850   4.172   4.868 -1.9761 -1.3403 -2.8104
  832MOL0     H12295   7.732   4.295   4.927  2.3965 -0.2767  2.9386
  832MOL0     H12296   7.831   4.246   4.637 -0.5638  0.8535 -2.6640
  832MOL0     H12297   7.751   4.396   4.689 -1.0217 -0.2599 -1.2305
  832MOL0     H12298   7.556   4.288   4.785  0.5101  0.7798 -0.8013
  832MOL0     H12299   7.576   4.265   4.612  1.3610 -1.5120 -1.8772
  832MOL0     H12300   8.258   4.222   5.579  1.6853  2.9778  2.1905
  832MOL0     H12301   8.431   4.035   5.606  2.8846 -0.6962 -1.0851
  832MOL0     H12302   9.028   3.924   5.345 -2.0866 -0.2083 -1.5762
  832MOL0     H12303   9.132   3.715   5.380  0.1635 -1.3599  0.5116
  832MOL0     H12304   8.397   4.835   5.048  0.9558  0.7125 -0.3773
  832MOL0     H12305   8.247   4.984   5.184 -2.0532 -1.2915  2.7682
  832MOL0     H12306   7.971   5.197   5.486 -1.1227 -0.1176 -0.1672
  832MOL0     H12307   7.885   5.365   5.653 -0.5245  0.5017 -2.1546
  832MOL0     H12308   8.172   5.528   5.951 -0.1602  0.8890 -3.6927
  832MOL0     H12309   8.060   5.428   6.044  1.5722  0.9334 -0.3784
  832MOL0     H12310   8.028   5.646   6.117 -0.7629  0.3829  0.7891
  832MOL0     H12311   7.881   5.610   6.014  0.2687 -0.5117 -0.8067
  832MOL0     H12312   8.101   5.711   5.849 -0.0044 -0.5513  0.0909
  832MOL0     H12313   8.047   5.821   5.978 -1.8363 -0.4579  1.4426
  832MOL0     H12314   7.826   5.853   5.903  1.1714  2.5163 -0.9880
  832MOL0     H12315   7.947   5.862   5.768 -1.6542  1.9874 -0.1718
  832MOL0     H12316   7.708   5.534   5.668  0.5974 -2.6220  3.6338
  832MOL0     H12317   8.258   5.333   5.855 -0.3013  1.4648 -1.1613
  832MOL0     H12318   8.438   5.256   5.643  0.9968 -0.5056  0.2340
  832MOL0     H12319   8.414   5.180   5.803  3.1416  2.2935 -0.9103
  832MOL0     H12320   8.408   5.076   5.660 -0.1826 -0.8767  1.6531
  833MOL0     O12321   3.483   8.489  10.353  0.1529 -0.7405  0.3160
  833MOL0     C12322   3.416   8.411  10.419  0.4756 -0.4834  0.4146
  833MOL0     O12323   3.345   8.301  10.373 -0.6526  0.7896 -0.3496
  833MOL0     C12324   3.324   8.293  10.233  0.1101  0.2120 -0.5765
  833MOL0     C12325   3.398   8.216  10.155 -0.1696  0.8107 -0.2825
  833MOL0     C12326   3.366   8.185  10.021  0.1689  0.2003 -0.3010
  833MOL0     C12327   3.255   8.251   9.962  0.5439 -0.0855 -0.8497
  833MOL0     O12328   3.212   8.250   9.832 -0.6650  0.0294 -0.5273
  833MOL0     C12329   3.264   8.164   9.741 -0.9313  0.0461  0.4330
  833MOL0     C12330   3.203   8.025   9.741  0.1250 -0.3524 -0.6587
  833MOL0     C12331   3.189   7.963   9.606  0.2104  0.5586  0.3925
  833MOL0     C12332   3.057   7.977   9.530  0.0162  0.1467 -0.5289
  833MOL0     C12333   3.046   7.919   9.395 -0.6782  0.3828  0.1884
  833MOL0     C12334   2.907   7.905   9.325 -0.1800 -0.2543 -0.5209
  833MOL0     C12335   2.888   7.817   9.198  0.1567 -0.3249  0.2945
  833MOL0     C12336   2.950   7.884   9.069  0.0408 -0.6758 -0.4185
  833MOL0     N12337   2.852   7.983   9.020 -0.8487  0.7172  0.3490
  833MOL0     C12338   2.749   7.970   8.928  0.0004 -0.1407  0.2584
  833MOL0     C12339   2.711   8.097   8.889  1.1200 -0.2017 -0.7528
  833MOL0     C12340   2.612   8.125   8.785  0.0525  0.6185  0.8119
  833MOL0     C12341   2.468   8.085   8.815  0.1499 -0.6777 -0.0007
  833MOL0     C12342   2.385   8.196   8.884 -0.2781 -0.1337  0.1157
  833MOL0     C12343   2.412   8.178   9.032  0.1761  0.1823  0.2971
  833MOL0     O12344   2.343   8.282   9.113 -0.5907  0.2977 -0.1409
  833MOL0     C12345   2.422   8.375   9.172  0.3984  0.1250 -0.5360
  833MOL0     C12346   2.564   8.383   9.173  1.0196 -0.5262  1.3958
  833MOL0     C12347   2.627   8.493   9.218 -0.1448  0.4607 -0.2297
  833MOL0     C12348   2.554   8.610   9.252  0.1611 -0.0787 -0.9778
  833MOL0     C12349   2.627   8.725   9.317 -0.3662  0.8533  0.0725
  833MOL0     O12350   2.553   8.802   9.402  0.0743 -0.2258  0.0784
  833MOL0     C12351   2.632   8.905   9.465 -0.1419  0.0379 -0.3721
  833MOL0     C12352   2.620   9.038   9.441  0.3875  1.1386  0.4804
  833MOL0     C12353   2.704   9.132   9.490 -0.7791  0.7024 -0.6280
  833MOL0     C12354   2.792   9.100   9.601  0.6471 -0.4142 -0.2972
  833MOL0     O12355   2.856   9.201   9.667 -0.5711 -0.4737  0.6633
  833MOL0     C12356   2.982   9.164   9.718  0.1461  0.7751  0.1162
  833MOL0     C12357   3.084   9.286   9.689 -0.3846  0.4126 -0.5047
  833MOL0     C12358   3.220   9.251   9.766 -0.7541 -0.6138  0.7813
  833MOL0     C12359   3.311   9.152   9.704  0.7453 -0.1760  0.5230
  833MOL0     C12360   3.428   9.116   9.795 -0.4055 -0.3043 -0.6053
  833MOL0     C12361   3.482   8.968   9.765 -0.7949  0.0405  0.1674
  833MOL0     C12362   3.593   8.925   9.854 -0.0447 -0.0643  0.4672
  833MOL0     C12363   3.728   9.001   9.827  0.2389  0.2714 -0.4553
  833MOL0    Cl12364   3.803   8.971   9.671 -0.2211  0.0257  0.2442
  833MOL0     C12365   2.789   8.968   9.641 -0.4824 -0.7883 -0.2407
  833MOL0     C12366   2.721   8.869   9.568  0.8270 -0.4278  0.7197
  833MOL0     O12367   2.747   8.730   9.295 -0.2333  0.3066  0.0075
  833MOL0     C12368   2.412   8.611   9.244 -0.2652  0.2417  0.3630
  833MOL0     C12369   2.351   8.495   9.202 -0.0855 -0.2819  0.3613
  833MOL0     N12370   2.805   8.182   8.946  0.0342  0.4005 -0.7707
  833MOL0     N12371   2.880   8.119   9.034 -0.9085  0.5927  0.1633
  833MOL0     C12372   3.180   8.342  10.049  0.4943 -0.2379  1.2042
  833MOL0     C12373   3.219   8.366  10.179  0.1574  0.4211  0.9310
  833MOL0     C12374   3.441   8.428  10.558  0.4026  0.4041 -0.7764
  833MOL0     C12375   3.410   8.325  10.655  0.2106 -0.7054  0.3862
  833MOL0     C12376   3.457   8.340  10.785  0.2579  0.2359 -0.0247
  833MOL0     C12377   3.507   8.463  10.828 -1.0605  1.2217  0.0877
  833MOL0     O12378   3.552   8.488  10.955  0.3861  0.8077 -1.1848
  833MOL0     C12379   3.655   8.415  11.020 -0.0986  0.6028 -0.1362
  833MOL0     C12380   3.770   8.364  10.931  0.1048  0.2236 -1.1030
  833MOL0     C12381   3.849   8.473  10.864 -0.9272  0.0331  0.5167
  833MOL0     C12382   3.917   8.419  10.738 -0.0603 -0.4254  0.4693
  833MOL0     C12383   3.827   8.398  10.629  0.0806 -0.4554  0.2650
  833MOL0     C12384   3.759   8.361  10.539  0.2707 -0.7409  0.2378
  833MOL0     C12385   3.517   8.569  10.742 -0.1853 -0.0462 -0.1730
  833MOL0     C12386   3.481   8.552  10.610 -1.0278  0.0356 -0.3002
  833MOL0     C12387   3.487   8.690  10.530 -0.1963  0.8742 -0.1758
  833MOL0     H12388   3.478   8.160  10.202 -0.2360  1.3725  0.5171
  833MOL0     H12389   3.428   8.116   9.965 -1.4536 -2.3877  0.9095
  833MOL0     H12390   3.252   8.217   9.647  1.2653 -0.5290 -0.2348
  833MOL0     H12391   3.372   8.152   9.754 -0.5908 -0.2844 -2.2178
  833MOL0     H12392   3.101   8.032   9.780  0.0729 -0.7584 -0.7135
  833MOL0     H12393   3.246   7.959   9.816 -0.8680  0.3860  0.5964
  833MOL0     H12394   3.200   7.854   9.616 -0.3740  0.1829 -2.3596
  833MOL0     H12395   3.274   7.989   9.541 -1.6290 -2.0317 -3.4349
  833MOL0     H12396   2.973   7.925   9.577 -2.3142  1.7602 -2.6040
  833MOL0     H12397   3.028   8.083   9.535  0.9206  0.3498  1.8396
  833MOL0     H12398   3.114   7.981   9.336  0.0102 -0.3899  0.1481
  833MOL0     H12399   3.101   7.825   9.401  2.5602  1.8765 -2.6667
  833MOL0     H12400   2.839   7.859   9.397  0.3637  0.2097  0.3063
  833MOL0     H12401   2.863   8.002   9.300 -1.1394 -0.3699  0.6560
  833MOL0     H12402   2.788   7.780   9.174  1.3705 -1.8340 -3.0731
  833MOL0     H12403   2.942   7.722   9.208  0.7619  0.0564  0.7617
  833MOL0     H12404   3.044   7.933   9.092  0.0877  0.0287 -1.9971
  833MOL0     H12405   2.962   7.808   8.992 -1.4573 -0.3266 -1.0280
  833MOL0     H12406   2.712   7.875   8.890 -2.2281  1.2541 -1.3054
  833MOL0     H12407   2.627   8.230   8.760  4.0288  0.0299 -0.0225
  833MOL0     H12408   2.639   8.065   8.698 -1.3101 -2.0142  2.0740
  833MOL0     H12409   2.424   8.080   8.714  1.3859  2.4786 -0.8315
  833MOL0     H12410   2.462   7.987   8.862  2.0733 -1.0145 -0.3942
  833MOL0     H12411   2.282   8.180   8.852  0.2407 -0.5721 -1.4053
  833MOL0     H12412   2.409   8.297   8.852 -1.0222  0.8768  2.5090
  833MOL0     H12413   2.519   8.163   9.044 -0.0217 -0.8532  0.9504
  833MOL0     H12414   2.376   8.076   9.053 -1.9896  0.3762 -1.9743
  833MOL0     H12415   2.631   8.306   9.135  0.3443  0.1436 -1.4377
  833MOL0     H12416   2.735   8.487   9.208 -0.0828  3.2660 -2.8438
  833MOL0     H12417   2.537   9.066   9.379  1.3562  3.3601  0.0945
  833MOL0     H12418   2.680   9.236   9.467 -1.3102  0.7873  0.2552
  833MOL0     H12419   2.976   9.145   9.825  1.1116  1.9563  0.4057
  833MOL0     H12420   3.018   9.074   9.667  1.7735  0.8181  1.1031
  833MOL0     H12421   3.101   9.299   9.582  2.2847  0.0601 -0.2060
  833MOL0     H12422   3.044   9.377   9.735 -0.5595 -1.6720  4.0611
  833MOL0     H12423   3.276   9.345   9.760  2.1716 -2.2284  0.8606
  833MOL0     H12424   3.193   9.220   9.868 -1.0233  1.1696  1.2845
  833MOL0     H12425   3.339   9.187   9.605  0.8006 -1.9635 -0.1407
  833MOL0     H12426   3.248   9.063   9.700  0.3514  0.1448 -0.6627
  833MOL0     H12427   3.412   9.137   9.901  1.8943 -1.1076 -0.0319
  833MOL0     H12428   3.516   9.177   9.771  1.3453 -2.8193 -1.0124
  833MOL0     H12429   3.400   8.898   9.786  1.9852 -2.9338  1.9584
  833MOL0     H12430   3.509   8.953   9.660  0.5978  0.8187  0.3877
  833MOL0     H12431   3.627   8.825   9.825 -0.1223  0.3940 -1.3280
  833MOL0     H12432   3.572   8.939   9.960  1.1804  4.8333  0.2764
  833MOL0     H12433   3.711   9.109   9.832  0.7671  0.3093  3.0043
  833MOL0     H12434   3.798   8.971   9.905  0.3156 -0.4205 -0.7826
  833MOL0     H12435   2.842   8.948   9.733 -1.4612  2.4639  1.1506
  833MOL0     H12436   2.726   8.767   9.605  2.1891 -0.3741  0.7320
  833MOL0     H12437   2.345   8.694   9.267 -1.9513 -1.0309  0.2490
  833MOL0     H12438   2.245   8.489   9.183  0.4425 -0.9645 -2.8797
  833MOL0     H12439   3.090   8.389  10.010 -0.0052 -0.0270  2.5484
  833MOL0     H12440   3.167   8.440  10.240  0.1101  0.8939  0.3275
  833MOL0     H12441   3.363   8.236  10.615 -1.8784 -0.8715  2.9354
  833MOL0     H12442   3.441   8.257  10.854  2.5353  0.0749  0.3881
  833MOL0     H12443   3.608   8.326  11.062  0.1661  0.1732 -0.7419
  833MOL0     H12444   3.697   8.467  11.107  0.7251 -1.0763  0.4955
  833MOL0     H12445   3.725   8.301  10.854 -1.9620 -0.6226  0.6810
  833MOL0     H12446   3.841   8.300  10.983 -0.7214  0.5297  0.4752
  833MOL0     H12447   3.925   8.517  10.930  0.9629 -0.7175 -1.0663
  833MOL0     H12448   3.785   8.554  10.827  1.2309  1.5134 -0.1853
  833MOL0     H12449   4.002   8.479  10.703 -0.4442 -0.3674 -0.4013
  833MOL0     H12450   3.975   8.329  10.759  1.0813 -0.2203 -1.5379
  833MOL0     H12451   3.708   8.323  10.453 -2.8874 -1.1809  2.1381
  833MOL0     H12452   3.557   8.668  10.766  1.7032 -0.6561 -0.5865
  833MOL0     H12453   3.407   8.700  10.456  0.6833 -5.3704 -2.5683
  833MOL0     H12454   3.477   8.773  10.600 -0.6512  0.6408  0.0463
  833MOL0     H12455   3.581   8.688  10.475  0.6945 -0.7862  1.3060
  834MOL0     O12456   7.699   5.745   0.547 -0.2876 -0.8753  0.9967
  834MOL0     C12457   7.729   5.675   0.451  0.4362  0.1860  0.6585
  834MOL0     O12458   7.644   5.639   0.346  0.0473 -0.6445 -0.0023
  834MOL0     C12459   7.508   5.650   0.361  0.9408 -0.1692 -1.1283
  834MOL0     C12460   7.431   5.664   0.242  0.2657 -1.0185  0.9778
  834MOL0     C12461   7.292   5.660   0.241 -0.2433 -0.3032  0.1056
  834MOL0     C12462   7.222   5.657   0.356 -0.0014 -0.0222 -0.7678
  834MOL0     O12463   7.091   5.667   0.369  0.4534  0.9665  0.1228
  834MOL0     C12464   7.029   5.776   0.293 -0.2092  0.1040 -0.2267
  834MOL0     C12465   6.898   5.817   0.368 -0.6094  0.6214  0.2952
  834MOL0     C12466   6.788   5.848   0.274  0.2899  0.5342  0.8612
  834MOL0     C12467   6.657   5.865   0.362 -0.8117  0.8674 -0.0977
  834MOL0     C12468   6.537   5.903   0.275 -0.9503  0.5460 -1.1405
  834MOL0     C12469   6.536   6.052   0.210 -1.1605  0.7547 -0.8033
  834MOL0     C12470   6.396   6.075   0.168  0.5636  0.0195  0.5370
  834MOL0     C12471   6.383   6.214   0.101 -0.5154 -0.0802 -0.2235
  834MOL0     N12472   6.267   6.212  -0.003 -1.1826  0.2161  0.5836
  834MOL0     C12473   6.180   6.109  -0.034  0.6243 -0.4232  1.1041
  834MOL0     C12474   6.086   6.172  -0.122 -0.1379  0.1274 -1.2566
  834MOL0     C12475   5.967   6.129  -0.189  1.2905 -0.1546 -0.0743
  834MOL0     C12476   5.842   6.115  -0.097  0.6908  0.2403  0.6285
  834MOL0     C12477   5.742   6.007  -0.157 -0.8737 -0.2376  0.2539
  834MOL0     C12478   5.604   6.024  -0.095 -0.6867  1.1352 -0.2007
  834MOL0     O12479   5.518   5.914  -0.114  0.1089  0.5046  0.0396
  834MOL0     C12480   5.559   5.788  -0.095  0.2371  0.0471  0.2551
  834MOL0     C12481   5.508   5.688  -0.178  0.1228 -0.4197  0.0747
  834MOL0     C12482   5.551   5.555  -0.164  0.5665  0.6405  0.1867
  834MOL0     C12483   5.635   5.511  -0.057  0.5882  0.3114  0.7890
  834MOL0     C12484   5.678   5.372  -0.037  0.3367 -0.9081  0.2376
  834MOL0     O12485   5.744   5.344   0.073  0.6692  0.0737  0.6184
  834MOL0     C12486   5.804   5.224   0.110 -1.0518 -0.0479 -0.0037
  834MOL0     C12487   5.791   5.169   0.243  0.4366 -0.3303  0.3302
  834MOL0     C12488   5.852   5.056   0.280 -0.3105 -0.1145 -0.6225
  834MOL0     C12489   5.941   4.986   0.195 -1.1600  0.1126  0.1477
  834MOL0     O12490   5.996   4.871   0.255 -0.0189  0.4915  0.5926
  834MOL0     C12491   6.133   4.844   0.203  0.1611 -0.3763 -0.5948
  834MOL0     C12492   6.185   4.749   0.307  1.0231  0.2965  0.6257
  834MOL0     C12493   6.335   4.744   0.326  0.0141  1.1371  0.4465
  834MOL0     C12494   6.363   4.647   0.446 -0.0021  0.0495  0.2920
  834MOL0     C12495   6.507   4.611   0.480  0.2978 -0.3467 -0.0485
  834MOL0     C12496   6.573   4.507   0.394 -0.5128 -0.0056 -0.2015
  834MOL0     C12497   6.717   4.489   0.450 -0.2172  0.1310  0.4348
  834MOL0     C12498   6.802   4.380   0.384  0.9342 -0.2241  0.9717
  834MOL0    Cl12499   6.974   4.393   0.429 -0.4130 -0.1659 -0.1208
  834MOL0     C12500   5.950   5.035   0.058 -0.8255  0.0880 -0.3917
  834MOL0     C12501   5.884   5.153   0.017 -0.7051  0.7154  0.3367
  834MOL0     O12502   5.641   5.293  -0.125  0.4078 -0.2768  0.5241
  834MOL0     C12503   5.677   5.612   0.038 -0.4536 -1.2291  0.6019
  834MOL0     C12504   5.646   5.746   0.012  0.5125  0.7083 -0.3267
  834MOL0     N12505   6.136   6.296  -0.151 -0.0482  0.5248  0.4559
  834MOL0     N12506   6.239   6.322  -0.075  0.4097 -0.3733 -0.0722
  834MOL0     C12507   7.295   5.643   0.481 -0.0195 -0.4890  0.1382
  834MOL0     C12508   7.437   5.639   0.487  0.4899 -0.2593  0.0711
  834MOL0     C12509   7.864   5.635   0.441 -0.1240 -0.1651  0.7893
  834MOL0     C12510   7.967   5.731   0.453 -0.3652  0.9484 -0.8335
  834MOL0     C12511   8.105   5.687   0.433  0.6774  0.8654  0.6201
  834MOL0     C12512   8.139   5.557   0.398 -0.5673  0.1315 -0.3094
  834MOL0     O12513   8.267   5.509   0.380  0.4310  0.7655 -0.2400
  834MOL0     C12514   8.374   5.602   0.413 -0.4097  0.3165  0.0584
  834MOL0     C12515   8.494   5.506   0.425  0.6411 -0.0934 -0.1370
  834MOL0     C12516   8.611   5.563   0.507  0.5727  0.2448 -0.3439
  834MOL0     C12517   8.743   5.483   0.486  0.0083  0.3183  0.5655
  834MOL0     C12518   8.823   5.480   0.607  0.1317 -0.7036  0.8453
  834MOL0     C12519   8.902   5.472   0.702  1.1042 -0.1570  0.0491
  834MOL0     C12520   8.038   5.461   0.393  0.6042  0.4298 -0.6613
  834MOL0     C12521   7.903   5.497   0.402  0.7452 -0.8407 -0.5067
  834MOL0     C12522   7.797   5.393   0.385  0.4647 -0.0350  0.2381
  834MOL0     H12523   7.478   5.673   0.145 -0.6649  2.3351  0.7129
  834MOL0     H12524   7.235   5.662   0.149 -0.8896  1.9419  0.4761
  834MOL0     H12525   7.096   5.862   0.283 -2.6071  2.3809  1.9437
  834MOL0     H12526   6.997   5.750   0.192 -2.9848  3.6169 -0.4667
  834MOL0     H12527   6.926   5.901   0.431  3.0266 -0.3467  0.1828
  834MOL0     H12528   6.866   5.729   0.425 -0.8062 -0.0837 -0.8707
  834MOL0     H12529   6.768   5.777   0.193 -0.1010  1.2336  0.3410
  834MOL0     H12530   6.793   5.944   0.223  0.1091  0.6977  1.1477
  834MOL0     H12531   6.636   5.770   0.410  4.1045 -1.4266 -1.8766
  834MOL0     H12532   6.671   5.936   0.444  0.5891  2.3676 -1.5623
  834MOL0     H12533   6.520   5.824   0.201 -0.8970 -4.0965  3.2732
  834MOL0     H12534   6.448   5.893   0.338 -1.1406 -3.5599 -1.7974
  834MOL0     H12535   6.556   6.124   0.290  1.3693  0.6910 -1.2751
  834MOL0     H12536   6.608   6.072   0.130  2.4567 -2.7300  1.2143
  834MOL0     H12537   6.324   6.061   0.249  1.5911  1.0549  1.6675
  834MOL0     H12538   6.367   6.002   0.092 -1.8781  0.4193  1.0190
  834MOL0     H12539   6.353   6.279   0.184  0.7795 -2.8289  2.5739
  834MOL0     H12540   6.469   6.257   0.049 -1.1068  2.1834  0.5515
  834MOL0     H12541   6.159   6.016   0.018 -2.0633 -0.5293 -0.0183
  834MOL0     H12542   5.928   6.197  -0.265 -2.1563 -0.2494  1.4175
  834MOL0     H12543   5.986   6.034  -0.239 -1.2271  0.1342 -1.7056
  834MOL0     H12544   5.882   6.075  -0.003  0.6070 -1.1919  0.0885
  834MOL0     H12545   5.792   6.211  -0.080 -1.0509 -0.5571  0.2645
  834MOL0     H12546   5.783   5.906  -0.147 -0.0202 -0.0739 -1.2931
  834MOL0     H12547   5.732   6.026  -0.264 -1.7141  0.1944  0.4015
  834MOL0     H12548   5.544   6.105  -0.138  0.1186  2.4236  1.0346
  834MOL0     H12549   5.615   6.031   0.013  3.1059 -0.3251 -0.3430
  834MOL0     H12550   5.443   5.725  -0.256 -3.6098  0.3793  3.2499
  834MOL0     H12551   5.525   5.476  -0.234  2.7103 -0.0392  0.0803
  834MOL0     H12552   5.734   5.239   0.303 -1.2594 -0.1180 -1.4246
  834MOL0     H12553   5.853   5.022   0.383  1.1106  1.2757 -0.1411
  834MOL0     H12554   6.136   4.811   0.099 -0.6515  3.4103 -1.9596
  834MOL0     H12555   6.196   4.933   0.211 -0.7312  0.3180 -1.1301
  834MOL0     H12556   6.139   4.771   0.404 -2.1344 -0.5684 -0.5596
  834MOL0     H12557   6.162   4.650   0.267  0.0302  0.8721 -0.2713
  834MOL0     H12558   6.381   4.702   0.236 -1.2115 -0.1648  0.3953
  834MOL0     H12559   6.385   4.838   0.352  1.1350  0.4561  0.8390
  834MOL0     H12560   6.316   4.552   0.420 -0.1922  0.5915 -1.4061
  834MOL0     H12561   6.315   4.695   0.533 -0.1495  0.6136 -0.0922
  834MOL0     H12562   6.506   4.585   0.587 -0.2295  0.9758  0.2984
  834MOL0     H12563   6.577   4.694   0.461  1.6473 -1.1142  1.2960
  834MOL0     H12564   6.512   4.416   0.404  0.4528 -0.8611 -1.6577
  834MOL0     H12565   6.579   4.547   0.292 -3.5821 -0.0971 -0.5181
  834MOL0     H12566   6.708   4.471   0.557 -0.1737 -1.2146  0.2325
  834MOL0     H12567   6.774   4.581   0.436 -0.6817  0.7278  2.1801
  834MOL0     H12568   6.757   4.283   0.412 -2.1125  0.5567 -0.7362
  834MOL0     H12569   6.797   4.376   0.275  1.1759  1.1476  0.8958
  834MOL0     H12570   6.012   4.979  -0.011  1.2253 -0.1371  1.5339
  834MOL0     H12571   5.891   5.179  -0.088 -0.6247  0.4486  0.2767
  834MOL0     H12572   5.737   5.584   0.124 -1.1677 -3.2618  0.5030
  834MOL0     H12573   5.681   5.822   0.081  1.3602  1.8958 -2.0019
  834MOL0     H12574   7.232   5.633   0.569  0.1971  0.0998  0.3668
  834MOL0     H12575   7.499   5.625   0.575  4.3016  1.6372 -2.0335
  834MOL0     H12576   7.946   5.835   0.478 -0.5997  0.5282  0.8789
  834MOL0     H12577   8.170   5.773   0.420 -2.1602  2.9296 -0.8855
  834MOL0     H12578   8.345   5.649   0.507  0.7544  0.3939  0.4025
  834MOL0     H12579   8.394   5.674   0.333  1.1642  0.1414  0.2465
  834MOL0     H12580   8.527   5.473   0.326  0.5739  1.2198 -0.6176
  834MOL0     H12581   8.458   5.415   0.474  0.7449 -0.1208 -0.1121
  834MOL0     H12582   8.582   5.559   0.612 -0.2600  0.2817 -0.5614
  834MOL0     H12583   8.636   5.668   0.490  0.3158  0.3352 -0.1722
  834MOL0     H12584   8.720   5.379   0.460  1.9578  0.0861 -0.3499
  834MOL0     H12585   8.800   5.516   0.399 -0.8856 -1.4022 -0.7367
  834MOL0     H12586   8.980   5.489   0.773  2.2651  1.4831 -1.5392
  834MOL0     H12587   8.056   5.354   0.388 -0.5013  0.2872 -2.7273
  834MOL0     H12588   7.782   5.373   0.278 -3.0897  0.9803  0.4370
  834MOL0     H12589   7.837   5.302   0.432  0.2920 -0.8492 -1.1403
  834MOL0     H12590   7.696   5.408   0.422 -0.4717 -0.8869 -1.8060
  835MOL0     O12591   8.431   2.582  11.014 -0.4608  0.3319 -0.6572
  835MOL0     C12592   8.368   2.688  11.031  0.0136 -0.3959  0.1838
  835MOL0     O12593   8.244   2.708  10.977  0.6156  0.3627  0.1324
  835MOL0     C12594   8.190   2.609  10.895 -0.1950 -0.2748  0.4429
  835MOL0     C12595   8.137   2.648  10.773  0.1924  0.5204 -0.0655
  835MOL0     C12596   8.081   2.557  10.684 -0.1237  0.8045 -0.1955
  835MOL0     C12597   8.077   2.421  10.723  0.4795  0.7671  0.2648
  835MOL0     O12598   8.027   2.344  10.619 -0.3985  0.5452 -0.3493
  835MOL0     C12599   8.071   2.204  10.614  0.6748 -1.1982  0.1556
  835MOL0     C12600   8.006   2.121  10.504 -0.3207 -0.3404  0.5971
  835MOL0     C12601   7.878   2.064  10.542 -0.0866  0.5636 -0.5711
  835MOL0     C12602   7.834   1.963  10.438  0.1240  0.4370  0.4135
  835MOL0     C12603   7.691   1.888  10.457  0.6172  0.1424  0.0970
  835MOL0     C12604   7.632   1.820  10.340  0.3993 -0.5833  0.3056
  835MOL0     C12605   7.549   1.912  10.256  0.2400 -0.3541 -0.3917
  835MOL0     C12606   7.501   1.834  10.132 -0.6665 -0.1376  0.4174
  835MOL0     N12607   7.403   1.920  10.062 -1.3822 -0.3877  0.3187
  835MOL0     C12608   7.462   2.007   9.974  1.1162 -0.0568 -0.4504
  835MOL0     C12609   7.358   2.076   9.920 -0.6225  0.0024  0.3023
  835MOL0     C12610   7.357   2.191   9.814 -0.4546  0.2072 -0.9024
  835MOL0     C12611   7.466   2.183   9.704 -1.1855  0.9486 -0.0894
  835MOL0     C12612   7.501   2.317   9.624 -0.1884  1.2091 -0.4998
  835MOL0     C12613   7.609   2.391   9.689 -0.1760 -1.0646 -0.6192
  835MOL0     O12614   7.732   2.319   9.690 -0.0417 -0.0392  0.3402
  835MOL0     C12615   7.838   2.362   9.768  0.2434 -0.0751 -0.3386
  835MOL0     C12616   7.839   2.496   9.807  0.0113  0.4242 -0.6062
  835MOL0     C12617   7.948   2.550   9.869  0.1785 -0.2027 -0.2797
  835MOL0     C12618   8.060   2.472   9.894  0.5009  0.3331 -0.1614
  835MOL0     C12619   8.168   2.527   9.972  0.8146 -0.4209 -0.3117
  835MOL0     O12620   8.132   2.610  10.074 -0.8581  0.3204 -0.5978
  835MOL0     C12621   8.239   2.666  10.155 -0.1812  0.7005  0.5972
  835MOL0     C12622   8.226   2.661  10.294  0.9019 -0.3207 -0.0184
  835MOL0     C12623   8.311   2.731  10.373 -1.2148  0.0910  0.8147
  835MOL0     C12624   8.431   2.795  10.317 -0.3159  0.2103  0.0906
  835MOL0     O12625   8.532   2.841  10.394  0.7254 -0.0496 -0.5200
  835MOL0     C12626   8.523   2.819  10.540 -0.2875  0.2187  0.6017
  835MOL0     C12627   8.663   2.866  10.601 -0.9346  0.5207  0.4946
  835MOL0     C12628   8.661   2.874  10.755 -0.1475 -1.1007  0.4607
  835MOL0     C12629   8.627   3.011  10.812 -0.2959 -0.2472  0.2570
  835MOL0     C12630   8.708   3.041  10.935 -0.2160  0.0522 -0.3418
  835MOL0     C12631   8.857   3.077  10.903  0.5738 -0.5449  0.6117
  835MOL0     C12632   8.936   3.112  11.032 -0.3594 -0.1086 -0.1236
  835MOL0     C12633   8.949   3.002  11.125  0.2804  0.2452 -0.0160
  835MOL0    Cl12634   9.058   3.066  11.249 -0.2405  0.0620 -0.0143
  835MOL0     C12635   8.437   2.802  10.179  0.0488 -0.3516 -0.6288
  835MOL0     C12636   8.338   2.746  10.095 -0.2295  0.7007 -0.2476
  835MOL0     O12637   8.277   2.499   9.936 -0.7011  0.7738 -0.9308
  835MOL0     C12638   8.072   2.342   9.849  0.1333  0.1870 -0.7121
  835MOL0     C12639   7.953   2.292   9.782  0.1391  0.9279 -0.0725
  835MOL0     N12640   7.248   2.016   9.981 -0.3092  1.2339 -0.6456
  835MOL0     N12641   7.274   1.921  10.060 -0.1725 -0.2892  0.1577
  835MOL0     C12642   8.119   2.376  10.847 -0.5909 -1.0190  0.1861
  835MOL0     C12643   8.181   2.470  10.931  0.6058  0.4040  0.6961
  835MOL0     C12644   8.423   2.798  11.120  0.5154 -0.0847  0.7132
  835MOL0     C12645   8.343   2.923  11.133 -0.9425  0.8886  0.7783
  835MOL0     C12646   8.373   3.019  11.223 -0.9129 -0.1298  0.1400
  835MOL0     C12647   8.482   2.994  11.311  1.0883  0.1541  0.3224
  835MOL0     O12648   8.502   3.086  11.409 -0.6128 -0.3504  0.0575
  835MOL0     C12649   8.606   3.076  11.500  0.4014 -0.0015  0.4499
  835MOL0     C12650   8.622   3.215  11.567  0.8200 -0.2343 -0.3422
  835MOL0     C12651   8.751   3.194  11.655 -0.0785  0.4234 -0.6189
  835MOL0     C12652   8.787   3.322  11.731  0.6108  0.3641 -0.5688
  835MOL0     C12653   8.901   3.295  11.820  0.1369  0.3799  0.4257
  835MOL0     C12654   9.000   3.268  11.888 -0.6831 -1.2419 -0.2219
  835MOL0     C12655   8.568   2.887  11.285  0.3424  0.3684 -0.1157
  835MOL0     C12656   8.545   2.791  11.197 -0.0332  0.0199  0.0716
  835MOL0     C12657   8.654   2.684  11.179 -0.1995 -0.5177  0.2099
  835MOL0     H12658   8.164   2.750  10.745  1.4591  0.2646  0.1696
  835MOL0     H12659   8.048   2.588  10.585  0.9909  3.3554  0.1644
  835MOL0     H12660   8.177   2.195  10.592  1.2977  1.7504  1.3581
  835MOL0     H12661   8.048   2.154  10.709  0.2425 -0.3823  0.4980
  835MOL0     H12662   8.077   2.040  10.486  0.6427  0.0743  2.3545
  835MOL0     H12663   7.993   2.178  10.411 -0.0107  0.3982  0.9963
  835MOL0     H12664   7.806   2.147  10.544  0.2613  0.8812 -0.9968
  835MOL0     H12665   7.896   2.013  10.637  4.3371 -0.2822 -1.6719
  835MOL0     H12666   7.822   2.016  10.343  1.6605 -2.7293 -1.7342
  835MOL0     H12667   7.914   1.889  10.425 -0.8881 -0.8773  1.3960
  835MOL0     H12668   7.702   1.804  10.526 -0.3970 -0.6782 -0.7061
  835MOL0     H12669   7.619   1.963  10.488  1.4747  2.0665 -2.2406
  835MOL0     H12670   7.713   1.777  10.281  1.7227  1.3076  0.6672
  835MOL0     H12671   7.573   1.735  10.376 -2.7408  1.8572  1.4090
  835MOL0     H12672   7.609   2.002  10.237 -0.4382  0.6654  1.9782
  835MOL0     H12673   7.464   1.955  10.309  2.0043  2.1558  0.5908
  835MOL0     H12674   7.591   1.820  10.071 -1.5663 -0.2920 -0.9246
  835MOL0     H12675   7.457   1.737  10.160 -1.7463 -0.3774 -1.8618
  835MOL0     H12676   7.570   2.020   9.971  0.8983  2.1768 -0.1368
  835MOL0     H12677   7.265   2.181   9.756  0.9371 -0.5116 -3.1410
  835MOL0     H12678   7.368   2.289   9.862  1.8301  0.2734 -1.4393
  835MOL0     H12679   7.563   2.142   9.733 -1.0785  0.1333 -1.4703
  835MOL0     H12680   7.431   2.111   9.629  0.5023 -1.3136  1.1549
  835MOL0     H12681   7.417   2.386   9.612  2.7544  5.1417 -0.3886
  835MOL0     H12682   7.525   2.282   9.523 -1.4089  0.4917 -0.5675
  835MOL0     H12683   7.580   2.402   9.795  4.6337 -0.0646  0.8152
  835MOL0     H12684   7.627   2.490   9.647 -3.4168 -0.6120 -1.2378
  835MOL0     H12685   7.759   2.568   9.803 -2.0596 -1.1318  4.1678
  835MOL0     H12686   7.949   2.655   9.896  0.5660 -0.5283  1.0075
  835MOL0     H12687   8.143   2.610  10.342 -0.4557  2.5766  0.9799
  835MOL0     H12688   8.307   2.706  10.479 -1.2293  1.4710  1.1667
  835MOL0     H12689   8.445   2.885  10.580  1.9165  2.5560  1.2992
  835MOL0     H12690   8.496   2.722  10.582  0.5796  0.4788  1.8155
  835MOL0     H12691   8.740   2.792  10.575  1.8722  3.2424  0.4543
  835MOL0     H12692   8.703   2.953  10.547  1.4777 -1.6129 -1.4543
  835MOL0     H12693   8.597   2.805  10.811  0.7773 -2.4504 -0.0871
  835MOL0     H12694   8.762   2.852  10.789  0.4839 -1.9230 -1.7712
  835MOL0     H12695   8.519   3.004  10.822 -0.4624  0.5602 -0.8256
  835MOL0     H12696   8.666   3.082  10.738  0.7517 -1.4317 -0.3745
  835MOL0     H12697   8.715   2.963  11.012  1.3699 -0.7525 -1.2531
  835MOL0     H12698   8.666   3.130  10.982  2.8317  0.4300  1.9563
  835MOL0     H12699   8.903   2.991  10.854  0.4510 -0.4388  0.3016
  835MOL0     H12700   8.859   3.161  10.833 -1.6773  0.9102  2.1398
  835MOL0     H12701   8.888   3.201  11.076  1.0129  0.5210  0.1675
  835MOL0     H12702   9.036   3.142  10.998 -0.0952  0.3241  0.9757
  835MOL0     H12703   8.856   2.988  11.180  0.5562  3.5738  1.5310
  835MOL0     H12704   8.996   2.911  11.087  3.2292  0.4963  2.6280
  835MOL0     H12705   8.504   2.866  10.123  1.3459 -0.5707  0.6239
  835MOL0     H12706   8.326   2.761   9.988 -0.5968  3.7956  0.1293
  835MOL0     H12707   8.150   2.270   9.870 -2.2879 -3.1043 -2.0278
  835MOL0     H12708   7.952   2.187   9.757  0.5424  1.5866 -3.2572
  835MOL0     H12709   8.111   2.273  10.881 -0.1918 -1.0031  0.3330
  835MOL0     H12710   8.219   2.441  11.029 -0.9915 -0.2255  1.1465
  835MOL0     H12711   8.250   2.942  11.079 -0.3364  3.7364  0.5659
  835MOL0     H12712   8.312   3.108  11.234  0.6073  0.7204  2.6040
  835MOL0     H12713   8.703   3.050  11.455  0.8132 -1.2844  1.9795
  835MOL0     H12714   8.580   3.002  11.576 -1.7089 -0.5290 -0.6939
  835MOL0     H12715   8.537   3.243  11.629 -1.4834 -1.0427 -2.9488
  835MOL0     H12716   8.644   3.290  11.492  1.9990  0.2948  0.4908
  835MOL0     H12717   8.833   3.158  11.593 -0.4103 -0.2747 -0.6679
  835MOL0     H12718   8.750   3.112  11.727  0.7409  0.8809 -0.0786
  835MOL0     H12719   8.808   3.394  11.652 -0.9166 -0.5800 -1.9007
  835MOL0     H12720   8.694   3.343  11.785 -0.6370 -2.3219 -1.4671
  835MOL0     H12721   9.076   3.242  11.958 -2.7564  2.5053  3.8775
  835MOL0     H12722   8.658   2.872  11.343  0.7510 -4.8977 -1.5730
  835MOL0     H12723   8.676   2.658  11.075  3.7556  3.0378 -0.0792
  835MOL0     H12724   8.753   2.717  11.211  0.9189 -1.9766 -1.5341
  835MOL0     H12725   8.617   2.593  11.227 -1.4314 -0.0161  0.2688
  836MOL0     O12726   0.567   8.930   1.023 -0.9042 -0.2675 -0.3899
  836MOL0     C12727   0.499   8.914   0.925 -0.3180 -0.7772 -0.5784
  836MOL0     O12728   0.527   8.837   0.818 -0.6216  0.0628 -0.5265
  836MOL0     C12729   0.655   8.787   0.809  0.0590  0.2663 -0.1489
  836MOL0     C12730   0.770   8.855   0.780  0.1647 -0.0642 -0.5887
  836MOL0     C12731   0.894   8.790   0.763  0.5330 -0.7318  0.0517
  836MOL0     C12732   0.902   8.656   0.792  0.0604 -0.3390  0.7946
  836MOL0     O12733   1.022   8.601   0.807 -0.7270  0.0914  0.0183
  836MOL0     C12734   1.053   8.488   0.723  0.1411 -0.0964  0.1820
  836MOL0     C12735   1.199   8.466   0.739 -0.3724  0.4129  0.0811
  836MOL0     C12736   1.243   8.336   0.671 -0.5837 -0.3313 -0.1526
  836MOL0     C12737   1.391   8.361   0.631 -0.1535  0.6736 -0.5370
  836MOL0     C12738   1.464   8.237   0.603  0.3899 -0.8414  0.2265
  836MOL0     C12739   1.604   8.263   0.547 -0.2756  0.7072  0.3179
  836MOL0     C12740   1.679   8.135   0.530 -0.4947 -1.0353  1.3529
  836MOL0     C12741   1.621   8.055   0.404 -0.6505  0.1013  0.1186
  836MOL0     N12742   1.688   7.925   0.384 -1.0874 -0.6189  0.8187
  836MOL0     C12743   1.811   7.887   0.438  0.6724  0.9083  0.7756
  836MOL0     C12744   1.834   7.769   0.379  0.1023 -0.0042 -0.3467
  836MOL0     C12745   1.955   7.686   0.397  0.1809  0.2662  0.1789
  836MOL0     C12746   2.071   7.714   0.292 -0.0292  1.4956  0.2514
  836MOL0     C12747   2.208   7.649   0.327 -0.5346 -0.0398  1.9304
  836MOL0     C12748   2.213   7.500   0.352 -0.1470  0.2454 -0.5995
  836MOL0     O12749   2.111   7.434   0.277 -0.2293 -0.7118  0.8057
  836MOL0     C12750   2.054   7.322   0.328 -0.2131 -0.8111  0.2480
  836MOL0     C12751   2.115   7.227   0.411  0.3924 -0.1174  0.1620
  836MOL0     C12752   2.040   7.107   0.447  0.1496 -0.5544  0.8488
  836MOL0     C12753   1.911   7.088   0.402 -0.3640  0.1280 -0.3484
  836MOL0     C12754   1.855   6.952   0.425  0.0709  0.5721 -0.2146
  836MOL0     O12755   1.743   6.940   0.351  1.0960  1.0480  0.0043
  836MOL0     C12756   1.710   6.810   0.339  0.0661 -0.6365 -0.3274
  836MOL0     C12757   1.610   6.754   0.416  0.6590 -0.5037 -0.5610
  836MOL0     C12758   1.576   6.622   0.415 -0.4867 -0.1684 -0.3490
  836MOL0     C12759   1.649   6.529   0.343 -0.1382 -0.2256 -0.3177
  836MOL0     O12760   1.636   6.391   0.351  0.3784  0.6671  0.2033
  836MOL0     C12761   1.753   6.308   0.341 -0.8163 -0.1280 -0.3172
  836MOL0     C12762   1.732   6.202   0.231  0.4546  0.0218 -0.1250
  836MOL0     C12763   1.846   6.094   0.211 -0.5248 -0.5218  0.0906
  836MOL0     C12764   1.831   5.999   0.093 -1.0512 -0.0654 -0.1917
  836MOL0     C12765   1.936   5.890   0.074 -0.4775 -0.1186  0.7688
  836MOL0     C12766   1.922   5.824  -0.062  0.4127 -0.3850 -0.4224
  836MOL0     C12767   2.029   5.733  -0.092 -0.0465  0.5456 -0.0811
  836MOL0     C12768   1.994   5.653  -0.215 -0.9598 -0.3545 -0.0208
  836MOL0    Cl12769   1.890   5.519  -0.146  0.0396 -0.3500  0.1347
  836MOL0     C12770   1.745   6.583   0.251 -0.4194 -0.1320 -1.1255
  836MOL0     C12771   1.788   6.724   0.256  0.6718  0.6836 -0.3436
  836MOL0     O12772   1.881   6.883   0.521 -0.7229 -0.0008  0.1172
  836MOL0     C12773   1.843   7.184   0.330  0.5590 -0.7809  0.2975
  836MOL0     C12774   1.909   7.308   0.299 -0.2105 -0.2642 -0.0360
  836MOL0     N12775   1.724   7.721   0.309  0.0263  0.1089  0.2438
  836MOL0     N12776   1.643   7.823   0.314 -0.0563 -0.9548  0.2100
  836MOL0     C12777   0.788   8.585   0.815  0.4869  0.3322 -0.1415
  836MOL0     C12778   0.666   8.648   0.833  0.1833  1.3426  0.4132
  836MOL0     C12779   0.365   8.980   0.948 -0.5470  0.0835 -0.9334
  836MOL0     C12780   0.259   8.898   0.924 -0.0936  0.0131  0.3348
  836MOL0     C12781   0.126   8.945   0.923  0.3453  0.0403 -0.3319
  836MOL0     C12782   0.099   9.077   0.960  0.7260  0.3174  0.5327
  836MOL0     O12783  -0.031   9.121   0.985 -0.2893 -0.2711  0.2376
  836MOL0     C12784  -0.141   9.032   0.975 -0.6042 -0.6290 -0.6694
  836MOL0     C12785  -0.278   9.104   0.999 -0.0038  0.0332 -0.6896
  836MOL0     C12786  -0.286   9.147   1.147  0.1712 -0.4806 -0.5093
  836MOL0     C12787  -0.295   9.039   1.251  0.1159 -0.1098 -0.4478
  836MOL0     C12788  -0.414   8.953   1.228 -0.4674  0.2542 -0.3080
  836MOL0     C12789  -0.500   8.877   1.207  1.0138 -0.0141 -0.3305
  836MOL0     C12790   0.206   9.160   1.005  0.8790  0.8965  0.0010
  836MOL0     C12791   0.338   9.117   0.994  0.3947  0.1451 -0.3137
  836MOL0     C12792   0.452   9.217   1.043 -0.0370  0.0481  0.3137
  836MOL0     H12793   0.767   8.963   0.770 -0.4822  0.1862  1.7098
  836MOL0     H12794   0.985   8.848   0.747  0.8456 -0.5302  2.2584
  836MOL0     H12795   1.008   8.396   0.762 -0.1224 -0.0122  0.0762
  836MOL0     H12796   1.013   8.501   0.622 -0.5633  1.0894  0.5921
  836MOL0     H12797   1.214   8.462   0.848  0.8756 -0.3029 -0.0974
  836MOL0     H12798   1.242   8.560   0.702  1.8690 -0.4762  0.2505
  836MOL0     H12799   1.182   8.313   0.583  1.0859  1.9555 -2.0389
  836MOL0     H12800   1.243   8.259   0.749  1.5167  0.0119  0.2585
  836MOL0     H12801   1.394   8.424   0.542  2.5397  0.6114 -0.5781
  836MOL0     H12802   1.447   8.416   0.707 -1.3529  0.5004  0.4999
  836MOL0     H12803   1.477   8.183   0.697  2.5702  2.3690  1.9591
  836MOL0     H12804   1.396   8.193   0.529  0.1402 -0.6123  0.3185
  836MOL0     H12805   1.591   8.328   0.460 -1.0539  1.0839  0.7067
  836MOL0     H12806   1.676   8.319   0.608 -1.5660  1.3917  1.2419
  836MOL0     H12807   1.689   8.074   0.620 -0.2920 -1.5830  0.9704
  836MOL0     H12808   1.784   8.152   0.504 -0.4396 -0.8216  1.7095
  836MOL0     H12809   1.512   8.048   0.409 -0.7713  1.6899  0.2093
  836MOL0     H12810   1.651   8.119   0.321  1.6425 -0.0911  0.7461
  836MOL0     H12811   1.877   7.944   0.502 -1.0855  2.5662  1.2071
  836MOL0     H12812   1.989   7.710   0.498 -1.4785  1.7778  0.4245
  836MOL0     H12813   1.923   7.582   0.408 -1.6257  0.7779 -0.0657
  836MOL0     H12814   2.043   7.679   0.192  1.3629  1.3856 -0.1272
  836MOL0     H12815   2.070   7.823   0.286 -1.4194  1.4874 -0.1692
  836MOL0     H12816   2.242   7.708   0.412 -0.3933 -0.4720  2.1796
  836MOL0     H12817   2.284   7.678   0.254 -1.2366 -1.6912  0.4506
  836MOL0     H12818   2.200   7.462   0.454  1.4217 -1.6019 -1.0238
  836MOL0     H12819   2.316   7.470   0.329 -1.0281 -3.0859 -0.6561
  836MOL0     H12820   2.217   7.246   0.441  0.0364 -0.7144  1.8619
  836MOL0     H12821   2.102   7.030   0.493  0.4516  0.8796  3.0092
  836MOL0     H12822   1.571   6.817   0.495  2.8624  0.6012 -0.2809
  836MOL0     H12823   1.498   6.592   0.483  0.5501 -0.2062  0.8591
  836MOL0     H12824   1.850   6.358   0.339 -0.4920 -0.7694 -1.4440
  836MOL0     H12825   1.750   6.252   0.435 -0.3934 -0.4198 -0.4765
  836MOL0     H12826   1.630   6.165   0.241 -0.9527  3.1986 -1.4233
  836MOL0     H12827   1.727   6.250   0.133  0.2051 -0.4860 -0.3633
  836MOL0     H12828   1.933   6.158   0.200 -2.5331  2.9400  2.4212
  836MOL0     H12829   1.849   6.037   0.304  2.4443 -1.0323 -0.2253
  836MOL0     H12830   1.834   6.059   0.002 -1.6078 -2.6784 -2.0459
  836MOL0     H12831   1.731   5.957   0.101 -1.5075  1.2402  1.6329
  836MOL0     H12832   1.932   5.821   0.159 -0.5730 -0.3786  0.5529
  836MOL0     H12833   2.035   5.936   0.073 -0.8232  0.7219 -1.8951
  836MOL0     H12834   1.826   5.773  -0.055 -0.5751  1.2041 -1.7087
  836MOL0     H12835   1.919   5.891  -0.149 -1.8307 -1.7038 -1.4434
  836MOL0     H12836   2.045   5.670  -0.005  0.1664  0.1845 -0.3820
  836MOL0     H12837   2.117   5.793  -0.117 -0.0478  0.1270 -1.1628
  836MOL0     H12838   1.942   5.698  -0.300  0.2393  2.1327  0.4636
  836MOL0     H12839   2.076   5.598  -0.262 -0.5273  1.7240 -1.8840
  836MOL0     H12840   1.803   6.517   0.187 -0.3364  0.0417 -1.2299
  836MOL0     H12841   1.858   6.765   0.184  0.4035 -0.4198 -1.2586
  836MOL0     H12842   1.739   7.182   0.301  0.4628 -0.0358  0.5592
  836MOL0     H12843   1.865   7.397   0.254 -0.5741 -1.3633 -1.9717
  836MOL0     H12844   0.786   8.481   0.845 -2.4806  0.7392  1.5199
  836MOL0     H12845   0.579   8.589   0.861  0.8255  0.0416 -0.2434
  836MOL0     H12846   0.279   8.795   0.897  0.6507  0.2682 -0.1165
  836MOL0     H12847   0.046   8.882   0.885  0.3482  1.5902 -3.1811
  836MOL0     H12848  -0.126   8.949   1.045  1.9642 -0.1075 -0.5186
  836MOL0     H12849  -0.139   8.998   0.871 -1.3354  1.3920 -1.3783
  836MOL0     H12850  -0.364   9.037   0.985  1.9812 -2.2671 -2.8702
  836MOL0     H12851  -0.292   9.191   0.936 -2.3184  1.0183  1.0447
  836MOL0     H12852  -0.375   9.210   1.155  0.7397  0.4075 -0.9256
  836MOL0     H12853  -0.199   9.212   1.165  1.1266 -1.9672  0.5176
  836MOL0     H12854  -0.205   8.978   1.262  0.1006 -0.6313 -2.6608
  836MOL0     H12855  -0.313   9.088   1.347 -1.5500 -1.7530  0.1441
  836MOL0     H12856  -0.596   8.831   1.193  0.4739  0.4765  1.4960
  836MOL0     H12857   0.180   9.257   1.047  0.9726  1.3972 -1.0489
  836MOL0     H12858   0.507   9.154   1.113 -2.6965  0.3247  2.8857
  836MOL0     H12859   0.503   9.254   0.954  1.2416  1.6822  1.6496
  836MOL0     H12860   0.414   9.311   1.085 -0.6907 -0.8430  1.7887
  837MOL0     O12861   7.036   4.749   9.333 -0.2465  0.4615  0.2211
  837MOL0     C12862   7.131   4.768   9.257 -0.7709  0.8047  0.0048
  837MOL0     O12863   7.245   4.691   9.259  0.8143  0.0121 -0.2314
  837MOL0     C12864   7.264   4.605   9.362  0.4196  0.9161  0.7241
  837MOL0     C12865   7.172   4.527   9.433 -0.2909  0.5076  0.6164
  837MOL0     C12866   7.221   4.444   9.538 -0.0106 -0.1135  1.3191
  837MOL0     C12867   7.361   4.432   9.560 -0.9469  0.2046  0.1336
  837MOL0     O12868   7.399   4.342   9.656  0.1987  0.4727  0.7835
  837MOL0     C12869   7.507   4.253   9.623 -0.0330 -0.0815  0.9111
  837MOL0     C12870   7.518   4.135   9.716  0.4238 -0.2004 -0.1356
  837MOL0     C12871   7.632   4.031   9.677  0.3187 -0.6067 -0.3199
  837MOL0     C12872   7.643   3.909   9.770 -0.0385  0.1998 -0.0944
  837MOL0     C12873   7.755   3.815   9.727 -0.1877  0.3955 -0.2260
  837MOL0     C12874   7.892   3.893   9.719 -0.5530 -0.6922 -0.4071
  837MOL0     C12875   8.008   3.794   9.695 -0.4537  1.7649  0.0431
  837MOL0     C12876   7.988   3.713   9.564 -0.2546  0.2617  1.0117
  837MOL0     N12877   8.108   3.630   9.522 -0.2709 -0.0126 -1.3469
  837MOL0     C12878   8.161   3.532   9.598  0.4258  0.5460  0.5004
  837MOL0     C12879   8.270   3.500   9.529  0.1255 -0.4178  0.4785
  837MOL0     C12880   8.377   3.400   9.567 -0.3694 -0.2669 -0.1201
  837MOL0     C12881   8.415   3.390   9.716  0.1707 -1.0496 -0.0951
  837MOL0     C12882   8.555   3.341   9.740 -0.2196 -0.6626 -0.0542
  837MOL0     C12883   8.547   3.195   9.768  0.5847 -0.4378 -0.1672
  837MOL0     O12884   8.524   3.177   9.911 -0.5879  0.0014 -0.7855
  837MOL0     C12885   8.633   3.159   9.997  0.8462 -0.3377  0.4327
  837MOL0     C12886   8.766   3.186   9.967 -0.4528  1.3464  0.0644
  837MOL0     C12887   8.864   3.187  10.065  0.8259 -0.3400  0.3715
  837MOL0     C12888   8.836   3.160  10.201 -0.4278  0.5031  0.3003
  837MOL0     C12889   8.937   3.156  10.317  0.5003 -0.4357 -0.3758
  837MOL0     O12890   8.899   3.143  10.446  0.4255  0.1160  0.6868
  837MOL0     C12891   8.996   3.102  10.532 -0.1005 -0.8657  0.4241
  837MOL0     C12892   9.080   3.195  10.607  0.3056 -0.4748  0.3330
  837MOL0     C12893   9.164   3.143  10.701 -0.5600 -1.0547  1.3088
  837MOL0     C12894   9.175   3.004  10.731  0.3112  0.4384  0.5527
  837MOL0     O12895   9.277   2.948  10.799  0.3652 -0.6689  0.0066
  837MOL0     C12896   9.277   2.975  10.938 -0.8560  0.4320  0.2303
  837MOL0     C12897   9.388   2.899  11.018  0.1731 -0.3013  0.5146
  837MOL0     C12898   9.396   2.939  11.162 -0.2984  0.4301  0.2756
  837MOL0     C12899   9.498   2.851  11.229 -0.1157  0.2233 -0.2022
  837MOL0     C12900   9.592   2.935  11.313  0.8856 -0.0131  0.4975
  837MOL0     C12901   9.702   2.869  11.393 -0.0206  0.1133  0.0310
  837MOL0     C12902   9.647   2.763  11.494  0.8623  0.0651  0.4372
  837MOL0     C12903   9.552   2.847  11.594  0.3178 -0.6126 -0.3527
  837MOL0    Cl12904   9.504   2.752  11.735 -0.4649  0.3235 -0.4293
  837MOL0     C12905   9.106   2.921  10.647 -0.1271 -0.2690  0.3947
  837MOL0     C12906   9.018   2.967  10.556 -0.6659 -0.0892 -0.1650
  837MOL0     O12907   9.052   3.148  10.269 -0.4005  0.5258 -1.0451
  837MOL0     C12908   8.703   3.126  10.224  0.4465 -0.5468 -0.7284
  837MOL0     C12909   8.601   3.131  10.129  0.1421 -0.0053 -0.1661
  837MOL0     N12910   8.277   3.577   9.422 -0.2825 -0.5601 -0.1071
  837MOL0     N12911   8.181   3.649   9.413  0.8599  0.5787  0.4397
  837MOL0     C12912   7.450   4.524   9.502 -0.3241  0.4909  0.2936
  837MOL0     C12913   7.405   4.607   9.395 -0.6835 -0.1471 -0.3559
  837MOL0     C12914   7.121   4.850   9.135 -0.4828  0.4454  0.1777
  837MOL0     C12915   6.989   4.921   9.120 -0.4858  0.1508 -0.2807
  837MOL0     C12916   6.975   4.997   9.003  0.9915  0.0646 -0.1216
  837MOL0     C12917   7.078   5.012   8.906 -0.3886 -0.3006  0.0780
  837MOL0     O12918   7.060   5.094   8.792 -0.2494  0.2603  0.5508
  837MOL0     C12919   6.929   5.159   8.770  0.3037  0.2350 -0.0730
  837MOL0     C12920   6.949   5.257   8.654  0.8078 -0.1841 -1.2078
  837MOL0     C12921   6.958   5.183   8.516 -0.3160 -0.4102  1.0822
  837MOL0     C12922   7.022   5.272   8.404  0.1282  0.1585  0.7784
  837MOL0     C12923   7.051   5.186   8.282 -0.0545  0.1461  1.0630
  837MOL0     C12924   7.052   5.105   8.186  0.1096 -0.0959  0.5831
  837MOL0     C12925   7.208   4.959   8.934 -0.0507  0.1933 -0.3957
  837MOL0     C12926   7.221   4.859   9.032 -0.4194  0.0031 -0.2830
  837MOL0     C12927   7.356   4.797   9.030  0.4533  0.0384  0.5435
  837MOL0     H12928   7.067   4.533   9.406 -0.2374 -1.1354 -0.0783
  837MOL0     H12929   7.160   4.388   9.608  0.5117 -0.6189  1.3794
  837MOL0     H12930   7.494   4.212   9.522  0.9893 -1.8052  1.4345
  837MOL0     H12931   7.604   4.300   9.634  0.4835 -0.5762 -1.1119
  837MOL0     H12932   7.422   4.084   9.717 -0.6623  1.7527 -0.7976
  837MOL0     H12933   7.529   4.160   9.822 -0.7938 -0.4507  0.0577
  837MOL0     H12934   7.724   4.087   9.696 -0.9589  0.5603  3.0989
  837MOL0     H12935   7.610   3.993   9.577 -2.8077  0.0572  0.0072
  837MOL0     H12936   7.650   3.939   9.875 -4.8880 -0.0545  0.5538
  837MOL0     H12937   7.547   3.858   9.755 -1.3440  2.1173  1.2285
  837MOL0     H12938   7.756   3.728   9.794  1.8356 -0.1021 -0.8205
  837MOL0     H12939   7.747   3.775   9.625  0.0972  2.0908 -0.9429
  837MOL0     H12940   7.887   3.962   9.634 -2.8993  0.5393  0.6361
  837MOL0     H12941   7.914   3.947   9.811  0.4565  2.6620 -2.4287
  837MOL0     H12942   8.016   3.733   9.786 -1.8286 -2.1331 -2.2463
  837MOL0     H12943   8.106   3.843   9.688  2.8514 -4.0216 -1.5605
  837MOL0     H12944   7.902   3.646   9.578  3.1069 -4.6764  0.4966
  837MOL0     H12945   7.967   3.781   9.482  1.9495  0.6302  0.6868
  837MOL0     H12946   8.137   3.490   9.695 -1.2008  0.1517 -0.0450
  837MOL0     H12947   8.359   3.297   9.535 -1.7894  0.0178 -0.3225
  837MOL0     H12948   8.464   3.432   9.509  0.4743 -1.3162  0.5096
  837MOL0     H12949   8.411   3.493   9.753  2.0133 -0.8649 -0.3133
  837MOL0     H12950   8.339   3.347   9.782  0.6942  1.1358  2.0903
  837MOL0     H12951   8.615   3.390   9.817  1.7418 -1.3601 -1.0550
  837MOL0     H12952   8.615   3.357   9.650  0.0173 -1.4481 -0.0452
  837MOL0     H12953   8.638   3.146   9.730  1.6802  1.9312 -0.7862
  837MOL0     H12954   8.463   3.151   9.713 -1.4793  0.4577  2.1082
  837MOL0     H12955   8.795   3.211   9.865  0.6852 -0.2675 -0.0584
  837MOL0     H12956   8.961   3.220  10.028  2.0378 -1.8495  2.0565
  837MOL0     H12957   9.074   3.301  10.588 -1.8196 -0.8408 -1.5852
  837MOL0     H12958   9.231   3.213  10.751 -1.2721  0.2417  0.5127
  837MOL0     H12959   9.279   3.082  10.961 -0.3858  0.2792  0.9019
  837MOL0     H12960   9.184   2.942  10.985 -3.3453  1.1630 -3.6333
  837MOL0     H12961   9.369   2.792  11.008 -0.2761 -0.0809 -1.5398
  837MOL0     H12962   9.482   2.930  10.971 -0.5186  1.0019 -0.0654
  837MOL0     H12963   9.417   3.047  11.171  0.8759  0.1249  1.7614
  837MOL0     H12964   9.299   2.916  11.206 -0.8119  0.6678 -0.7017
  837MOL0     H12965   9.559   2.803  11.152 -1.1427  1.2835 -1.7346
  837MOL0     H12966   9.444   2.771  11.280  1.2868 -1.7028 -1.5934
  837MOL0     H12967   9.536   3.004  11.376 -0.4079  0.0204 -0.6454
  837MOL0     H12968   9.645   2.996  11.239  1.5897 -2.0606 -0.7738
  837MOL0     H12969   9.765   2.825  11.316 -1.4660  0.4258 -1.3938
  837MOL0     H12970   9.756   2.943  11.452  0.6047 -0.1403 -0.2211
  837MOL0     H12971   9.727   2.711  11.546  0.2091 -1.2843  0.1427
  837MOL0     H12972   9.581   2.694  11.439  1.7230 -0.8652  0.5580
  837MOL0     H12973   9.580   2.948  11.625 -6.0679  2.4288 -2.6443
  837MOL0     H12974   9.458   2.872  11.544 -0.5822 -1.9457  0.6004
  837MOL0     H12975   9.119   2.814  10.658 -1.4642 -0.3993  1.0128
  837MOL0     H12976   8.950   2.897  10.511  1.3124 -1.9241 -0.4567
  837MOL0     H12977   8.664   3.102  10.322 -1.1873  3.3458 -0.2319
  837MOL0     H12978   8.499   3.115  10.165  0.3186 -1.2975 -0.2025
  837MOL0     H12979   7.552   4.531   9.537 -0.8944  2.5491  1.7569
  837MOL0     H12980   7.471   4.670   9.336  1.3441 -1.4165  0.4465
  837MOL0     H12981   6.902   4.902   9.182  1.9372  1.0920  3.7783
  837MOL0     H12982   6.877   5.042   8.989  0.5647 -0.9204 -0.4562
  837MOL0     H12983   6.890   5.216   8.854 -2.3872  0.4278 -1.3308
  837MOL0     H12984   6.854   5.083   8.744  0.7015 -0.2602  0.2170
  837MOL0     H12985   7.036   5.321   8.670  0.5039 -0.6661  4.0379
  837MOL0     H12986   6.863   5.325   8.653  1.9326  1.3073 -0.6566
  837MOL0     H12987   6.861   5.150   8.476  0.6948  0.8334 -2.8806
  837MOL0     H12988   7.021   5.095   8.530  1.8468  1.2564  2.4850
  837MOL0     H12989   6.960   5.357   8.374 -0.6893 -0.0578  1.8473
  837MOL0     H12990   7.125   5.292   8.438  1.5241 -1.6488 -2.0015
  837MOL0     H12991   7.059   5.026   8.115  0.7585  1.0568 -0.6908
  837MOL0     H12992   7.292   4.992   8.874  0.6401  4.1497  2.3925
  837MOL0     H12993   7.410   4.793   9.125 -2.1901  0.6124  2.1932
  837MOL0     H12994   7.354   4.706   8.970  1.7377  0.8353 -0.7492
  837MOL0     H12995   7.424   4.848   8.962  1.7443 -3.5677 -1.1274
  838MOL0     O12996   9.233   8.418   4.811  0.2232 -0.0992 -0.3934
  838MOL0     C12997   9.317   8.452   4.896 -0.4171 -0.3451 -0.7499
  838MOL0     O12998   9.439   8.390   4.910  0.1832 -0.2949 -0.7781
  838MOL0     C12999   9.503   8.352   4.800  0.1342  0.4189 -0.4791
  838MOL0     C13000   9.514   8.211   4.766  0.2316  0.1913  1.0436
  838MOL0     C13001   9.617   8.173   4.674 -0.6225 -0.4116  0.5334
  838MOL0     C13002   9.703   8.264   4.604  0.1213 -0.2898 -0.2121
  838MOL0     O13003   9.802   8.203   4.530 -0.5464  0.2197  0.2298
  838MOL0     C13004   9.896   8.287   4.471 -0.1327  1.1317  1.2473
  838MOL0     C13005  10.003   8.199   4.407 -0.3380  0.1097 -0.4898
  838MOL0     C13006  10.120   8.187   4.490 -0.0436 -0.8580 -0.3108
  838MOL0     C13007  10.242   8.149   4.410  0.3927 -0.5377  0.1817
  838MOL0     C13008  10.353   8.110   4.505  0.8464 -0.2072  0.1986
  838MOL0     C13009  10.435   8.227   4.556 -0.2886 -0.1529 -0.4698
  838MOL0     C13010  10.506   8.182   4.684 -0.1353  0.2599  0.3107
  838MOL0     C13011  10.409   8.204   4.799 -0.7924 -0.3510 -0.1806
  838MOL0     N13012  10.405   8.343   4.846  0.2060 -0.3879  0.0470
  838MOL0     C13013  10.441   8.382   4.969 -0.3789 -0.2441  0.1186
  838MOL0     C13014  10.379   8.499   5.003 -0.2867  0.6635  0.0042
  838MOL0     C13015  10.383   8.557   5.132  0.3047 -1.0109  0.3934
  838MOL0     C13016  10.413   8.719   5.119 -0.2526  0.0324 -0.6711
  838MOL0     C13017  10.443   8.791   5.256  0.5980  0.7471  0.4808
  838MOL0     C13018  10.505   8.923   5.232  0.7278  0.7539  0.0221
  838MOL0     O13019  10.512   8.988   5.357 -0.4687  0.5618 -1.0822
  838MOL0     C13020  10.612   9.076   5.388 -0.7689 -0.0817 -0.5865
  838MOL0     C13021  10.686   9.033   5.491  0.0880 -0.2393 -0.4959
  838MOL0     C13022  10.777   9.125   5.558 -0.3855 -0.2250 -0.0158
  838MOL0     C13023  10.795   9.255   5.498  1.3066  0.7834 -0.4745
  838MOL0     C13024  10.898   9.352   5.541 -0.4635 -0.7541  0.0973
  838MOL0     O13025  11.001   9.313   5.617 -0.0106 -0.0418 -0.1506
  838MOL0     C13026  11.108   9.397   5.646  0.0508  0.3660 -0.2350
  838MOL0     C13027  11.161   9.394   5.776  0.0101 -0.7544 -0.3610
  838MOL0     C13028  11.275   9.477   5.809  0.0145 -0.2363  0.3039
  838MOL0     C13029  11.335   9.555   5.710 -0.1756  0.2191 -0.0984
  838MOL0     O13030  11.453   9.618   5.738  0.6748 -0.3632  0.4478
  838MOL0     C13031  11.548   9.633   5.633  0.2297  0.1343  0.1576
  838MOL0     C13032  11.687   9.677   5.687  0.1706  0.5381  0.4056
  838MOL0     C13033  11.770   9.693   5.560 -0.5939  0.9386 -0.9891
  838MOL0     C13034  11.917   9.692   5.566 -0.4382 -0.7641 -0.5728
  838MOL0     C13035  11.973   9.565   5.634  0.5830 -0.0910  0.2040
  838MOL0     C13036  12.131   9.568   5.614  0.2304  0.8228  1.3210
  838MOL0     C13037  12.205   9.685   5.677 -0.5410  0.5425 -0.3397
  838MOL0     C13038  12.355   9.662   5.685  0.4496  0.0070 -0.0799
  838MOL0    Cl13039  12.431   9.814   5.734  0.4579 -0.1521 -0.3498
  838MOL0     C13040  11.276   9.567   5.585 -0.1332  0.6589  0.6882
  838MOL0     C13041  11.167   9.478   5.557  1.0079  0.4048 -0.5001
  838MOL0     O13042  10.882   9.472   5.500  0.2984 -0.6986 -0.3135
  838MOL0     C13043  10.721   9.283   5.379  1.0578 -0.4523 -0.5895
  838MOL0     C13044  10.628   9.201   5.323 -0.3065 -0.3771  0.2478
  838MOL0     N13045  10.313   8.539   4.889  0.8059 -0.1464 -0.0989
  838MOL0     N13046  10.321   8.444   4.799  0.8143 -0.1075  0.2843
  838MOL0     C13047   9.674   8.399   4.620  0.0287  0.2604  0.1980
  838MOL0     C13048   9.588   8.440   4.724 -0.9042 -0.2450  0.8080
  838MOL0     C13049   9.259   8.531   5.013 -0.9668 -0.5234  0.2444
  838MOL0     C13050   9.115   8.521   5.034 -0.5061 -0.5978  0.7803
  838MOL0     C13051   9.061   8.561   5.150  0.1490 -0.0752 -0.2757
  838MOL0     C13052   9.140   8.615   5.253 -0.8268  0.6220  0.3608
  838MOL0     O13053   9.095   8.649   5.380  0.7206  0.5833  1.0250
  838MOL0     C13054   8.968   8.717   5.380  0.5570 -0.0886  0.0536
  838MOL0     C13055   8.948   8.786   5.516 -0.5144  0.2907 -0.0795
  838MOL0     C13056   8.808   8.867   5.495 -0.0126  0.7334 -0.9937
  838MOL0     C13057   8.822   9.005   5.430  0.9082 -0.2079 -0.1991
  838MOL0     C13058   8.746   9.007   5.301 -0.1472  0.0973  0.4801
  838MOL0     C13059   8.681   8.996   5.196 -0.6245  0.1671 -0.1544
  838MOL0     C13060   9.280   8.634   5.228 -0.3865  0.2246  0.0331
  838MOL0     C13061   9.344   8.598   5.107 -0.4140  0.1220 -0.9790
  838MOL0     C13062   9.502   8.615   5.094 -0.1539  0.5830  0.1196
  838MOL0     H13063   9.449   8.144   4.820 -1.6117  0.7857 -0.3203
  838MOL0     H13064   9.641   8.073   4.639  0.7295 -0.0137  0.2681
  838MOL0     H13065   9.850   8.349   4.394 -0.4615  1.2939  1.5681
  838MOL0     H13066   9.939   8.364   4.536 -0.1812  0.0802  2.5899
  838MOL0     H13067  10.022   8.238   4.307  2.6729  2.2445  0.7525
  838MOL0     H13068   9.958   8.099   4.398  0.0364 -0.3776  2.1077
  838MOL0     H13069  10.091   8.120   4.571 -0.6016  1.1882  1.2823
  838MOL0     H13070  10.141   8.286   4.533  1.9422 -0.2154 -2.5424
  838MOL0     H13071  10.216   8.061   4.351 -0.5409 -1.3788  1.7614
  838MOL0     H13072  10.274   8.229   4.343 -0.0976  0.8416  1.5318
  838MOL0     H13073  10.307   8.045   4.580  0.9993  2.1205  2.4564
  838MOL0     H13074  10.439   8.062   4.458  0.1079  0.0001 -1.4453
  838MOL0     H13075  10.508   8.251   4.478  2.7590 -0.1532  2.1805
  838MOL0     H13076  10.373   8.316   4.572 -2.6566 -2.0469  1.6852
  838MOL0     H13077  10.591   8.246   4.709 -1.0773  1.3610  0.7902
  838MOL0     H13078  10.532   8.076   4.676 -1.4379 -0.1827  1.6422
  838MOL0     H13079  10.308   8.178   4.766 -1.1761  1.1061 -0.2559
  838MOL0     H13080  10.433   8.147   4.889 -2.2062 -3.5796 -1.6878
  838MOL0     H13081  10.509   8.325   5.031  4.5333  2.7942 -1.8855
  838MOL0     H13082  10.286   8.542   5.178 -0.1867  0.1640 -0.1978
  838MOL0     H13083  10.458   8.502   5.189  0.3211 -1.0596  0.3255
  838MOL0     H13084  10.499   8.721   5.052  0.4293 -2.1863  0.0583
  838MOL0     H13085  10.329   8.768   5.069 -1.3159 -4.0214 -3.3629
  838MOL0     H13086  10.502   8.719   5.313 -2.6985 -2.7694 -0.1724
  838MOL0     H13087  10.344   8.804   5.299 -0.1525  0.7578 -1.1543
  838MOL0     H13088  10.453   8.991   5.163 -1.9900  0.4705  1.6447
  838MOL0     H13089  10.609   8.914   5.199  1.3319  0.7664  1.8517
  838MOL0     H13090  10.672   8.934   5.532 -1.4806  0.4017  0.6227
  838MOL0     H13091  10.843   9.106   5.641 -1.3941 -2.2565  0.3847
  838MOL0     H13092  11.122   9.326   5.851 -0.9364 -0.7634 -0.8463
  838MOL0     H13093  11.309   9.480   5.912 -0.2137 -0.2042  0.3803
  838MOL0     H13094  11.554   9.537   5.582  1.0400 -0.2290  0.9183
  838MOL0     H13095  11.505   9.706   5.563 -1.5960 -0.3452  0.7389
  838MOL0     H13096  11.682   9.777   5.731 -0.3808 -0.0958  1.8565
  838MOL0     H13097  11.715   9.602   5.762  2.0400  0.6691 -0.1208
  838MOL0     H13098  11.737   9.613   5.492  1.0353  1.1083 -2.0346
  838MOL0     H13099  11.730   9.787   5.520  0.0467  2.4487  1.7381
  838MOL0     H13100  11.951   9.787   5.608 -4.3122  0.6954 -0.3826
  838MOL0     H13101  11.952   9.692   5.462 -1.8819  0.9338 -1.1091
  838MOL0     H13102  11.918   9.479   5.595  1.9440 -2.4779  3.1061
  838MOL0     H13103  11.965   9.571   5.743 -2.0023  2.0530  0.0125
  838MOL0     H13104  12.176   9.474   5.649 -0.0926  0.5682  1.0617
  838MOL0     H13105  12.145   9.571   5.505 -1.5761 -1.2794  0.9571
  838MOL0     H13106  12.161   9.693   5.777  1.6322  1.4067  0.6147
  838MOL0     H13107  12.187   9.775   5.617  4.1010  1.8841 -0.1277
  838MOL0     H13108  12.382   9.582   5.754 -0.1099  0.3362  0.5228
  838MOL0     H13109  12.398   9.627   5.590  1.5671 -1.7311  0.9976
  838MOL0     H13110  11.294   9.643   5.510  1.5027 -0.0041  0.3597
  838MOL0     H13111  11.120   9.483   5.459 -3.1875 -1.7969  1.1263
  838MOL0     H13112  10.742   9.376   5.329  3.4938  0.6912  2.2383
  838MOL0     H13113  10.566   9.216   5.235  0.5264  5.2936  0.2384
  838MOL0     H13114   9.735   8.469   4.564  0.3716 -0.3629 -0.2166
  838MOL0     H13115   9.587   8.548   4.739  4.5672 -0.0696  1.8588
  838MOL0     H13116   9.054   8.462   4.967  0.7516  1.5547 -2.5688
  838MOL0     H13117   8.960   8.531   5.175  0.2053  1.4394  2.1398
  838MOL0     H13118   8.888   8.643   5.368  0.2859  0.3571 -1.0609
  838MOL0     H13119   8.968   8.786   5.295 -1.7031  1.5199  1.2571
  838MOL0     H13120   9.029   8.854   5.544 -0.9866  0.5273  0.7323
  838MOL0     H13121   8.931   8.706   5.589 -0.3048 -0.4760 -0.8453
  838MOL0     H13122   8.762   8.881   5.593  0.7941  0.6328 -0.5882
  838MOL0     H13123   8.741   8.793   5.450 -1.0689 -0.9978  2.9261
  838MOL0     H13124   8.795   9.092   5.491 -0.4929  0.7184 -2.0192
  838MOL0     H13125   8.925   9.030   5.406  0.4743  2.8311  0.7394
  838MOL0     H13126   8.625   8.984   5.106 -2.7671  1.4931  0.9258
  838MOL0     H13127   9.349   8.664   5.307  0.0839  0.9184 -0.6282
  838MOL0     H13128   9.549   8.642   5.000  3.1582  0.0396  1.4886
  838MOL0     H13129   9.539   8.695   5.158 -3.2040  3.6564 -1.5916
  838MOL0     H13130   9.550   8.525   5.132 -2.2962  0.4800  2.9492
  839MOL0     O13131   2.121   2.329   2.113  0.4593 -0.3182 -0.3302
  839MOL0     C13132   2.101   2.210   2.075 -0.0355  0.4273  0.5222
  839MOL0     O13133   2.177   2.091   2.105 -0.0513 -0.1131 -0.2834
  839MOL0     C13134   2.275   2.108   2.188  0.4009 -0.4047 -0.2336
  839MOL0     C13135   2.274   2.191   2.303 -0.7059 -0.0487  0.5096
  839MOL0     C13136   2.385   2.214   2.376  0.1474  0.1423 -0.2042
  839MOL0     C13137   2.501   2.137   2.357 -0.0943 -0.1980 -1.0876
  839MOL0     O13138   2.600   2.171   2.448 -0.8128 -0.0597 -0.7276
  839MOL0     C13139   2.733   2.128   2.416 -0.4648  0.7350 -0.4688
  839MOL0     C13140   2.826   2.134   2.545 -0.5043 -0.4252 -0.4852
  839MOL0     C13141   2.767   2.051   2.662  0.6820 -0.3006  0.5880
  839MOL0     C13142   2.854   2.089   2.778 -0.3679 -0.0686  0.0045
  839MOL0     C13143   2.796   2.044   2.906  0.1291 -0.5982  0.5443
  839MOL0     C13144   2.813   1.891   2.931 -0.7514  0.6458 -0.1553
  839MOL0     C13145   2.808   1.878   3.088 -0.2402 -0.0382 -0.5556
  839MOL0     C13146   2.792   1.731   3.113  1.4889 -0.3447  0.3571
  839MOL0     N13147   2.774   1.690   3.254 -0.2047 -0.5012 -0.2597
  839MOL0     C13148   2.886   1.651   3.327 -0.3031  0.1048  0.1418
  839MOL0     C13149   2.834   1.573   3.427  0.0703 -0.6729 -0.3856
  839MOL0     C13150   2.909   1.515   3.544  0.3001  0.2420  0.0701
  839MOL0     C13151   3.046   1.449   3.507 -0.2061 -0.1499  1.1614
  839MOL0     C13152   3.103   1.354   3.608  0.1173 -0.3193 -0.1575
  839MOL0     C13153   3.245   1.310   3.581 -0.4967 -0.7232 -0.0733
  839MOL0     O13154   3.283   1.216   3.679 -0.2142  0.1873 -0.1255
  839MOL0     C13155   3.416   1.185   3.682 -0.3102  0.1494 -0.1266
  839MOL0     C13156   3.458   1.130   3.798 -0.0856 -0.2958  0.8789
  839MOL0     C13157   3.587   1.065   3.805 -0.5274 -0.9711 -0.0722
  839MOL0     C13158   3.672   1.072   3.690 -0.2102 -0.5000  0.5515
  839MOL0     C13159   3.804   1.006   3.698 -0.2210 -1.2432 -0.1964
  839MOL0     O13160   3.891   1.029   3.594  0.1971 -0.0213 -0.1771
  839MOL0     C13161   4.018   0.980   3.589 -0.7223  0.4987  0.2196
  839MOL0     C13162   4.065   0.951   3.459  0.5586  0.6748  0.7267
  839MOL0     C13163   4.197   0.904   3.438 -0.8326  0.0053 -0.4452
  839MOL0     C13164   4.280   0.887   3.553 -1.0117 -1.0890  1.1131
  839MOL0     O13165   4.411   0.846   3.540 -0.0864  0.0939 -0.1913
  839MOL0     C13166   4.483   0.919   3.442  0.2631  0.1022  0.5127
  839MOL0     C13167   4.571   1.017   3.508  0.8163  0.3709  0.6653
  839MOL0     C13168   4.511   1.154   3.522  0.3862 -0.3018  0.1520
  839MOL0     C13169   4.462   1.222   3.389  0.4319 -0.5198 -0.1539
  839MOL0     C13170   4.450   1.385   3.402  0.0045 -0.0255  0.0506
  839MOL0     C13171   4.587   1.460   3.402 -0.8561 -1.4541  0.0093
  839MOL0     C13172   4.654   1.465   3.265 -0.1437  0.1957 -1.1834
  839MOL0     C13173   4.762   1.576   3.268  0.1410 -0.0221 -0.3537
  839MOL0    Cl13174   4.867   1.538   3.132 -0.1518  0.0990  0.1357
  839MOL0     C13175   4.232   0.909   3.677  0.4163 -0.4198 -0.5084
  839MOL0     C13176   4.103   0.959   3.696  0.8448 -0.2043  0.5889
  839MOL0     O13177   3.833   0.940   3.803 -0.5693 -0.2528 -0.5593
  839MOL0     C13178   3.631   1.133   3.577 -0.6235  0.1783  0.0151
  839MOL0     C13179   3.505   1.193   3.571 -0.5827 -0.0207 -0.8061
  839MOL0     N13180   2.697   1.567   3.407 -0.3050  0.4872 -0.2692
  839MOL0     N13181   2.656   1.637   3.310  0.0693 -0.9569 -0.3466
  839MOL0     C13182   2.505   2.042   2.256 -1.0126  0.7392  0.5632
  839MOL0     C13183   2.394   2.029   2.174  1.0035  0.6357  0.5680
  839MOL0     C13184   1.982   2.184   1.995 -0.0658 -0.0415  0.0675
  839MOL0     C13185   1.902   2.073   2.024 -0.4871  0.3260 -0.0895
  839MOL0     C13186   1.787   2.039   1.949  1.0915 -0.3536 -1.2062
  839MOL0     C13187   1.765   2.106   1.832  0.3973  0.3597 -0.0718
  839MOL0     O13188   1.659   2.057   1.757 -0.5454  0.3336 -0.6035
  839MOL0     C13189   1.633   2.120   1.621  0.7501  0.5342 -0.9098
  839MOL0     C13190   1.497   2.062   1.573  0.3051  0.1679 -0.1192
  839MOL0     C13191   1.532   1.929   1.500 -0.1668 -0.5905 -0.6272
  839MOL0     C13192   1.418   1.830   1.501  0.1953  0.5334  0.0757
  839MOL0     C13193   1.290   1.861   1.432 -0.5197  0.9155 -0.7357
  839MOL0     C13194   1.199   1.865   1.354  0.8349  0.4163 -0.5322
  839MOL0     C13195   1.840   2.226   1.808  0.3635 -0.1833  0.4981
  839MOL0     C13196   1.955   2.261   1.881 -0.1517 -0.3492  0.0839
  839MOL0     C13197   2.036   2.377   1.822  0.1081  0.5558  0.1649
  839MOL0     H13198   2.182   2.244   2.324  0.4500  2.2975 -0.0560
  839MOL0     H13199   2.375   2.278   2.463 -2.1551  1.6376 -1.4748
  839MOL0     H13200   2.735   2.022   2.387 -1.2828  0.2459  1.1618
  839MOL0     H13201   2.780   2.193   2.341 -0.7545  2.3073  0.6624
  839MOL0     H13202   2.846   2.238   2.575  2.1262 -0.9392 -0.1833
  839MOL0     H13203   2.924   2.094   2.520  0.1133 -0.5019  1.8410
  839MOL0     H13204   2.770   1.944   2.641 -1.8657 -0.4472  0.7631
  839MOL0     H13205   2.665   2.082   2.685  0.5453 -0.3735  0.0803
  839MOL0     H13206   2.955   2.046   2.773 -1.7251 -4.0424  1.9701
  839MOL0     H13207   2.857   2.197   2.791 -1.7299 -0.3037  3.2455
  839MOL0     H13208   2.854   2.104   2.977 -0.4033  1.7552 -0.9138
  839MOL0     H13209   2.691   2.069   2.919 -0.6815 -3.3268 -0.0461
  839MOL0     H13210   2.739   1.830   2.879  1.8702 -4.6866  1.5659
  839MOL0     H13211   2.908   1.855   2.888 -0.5085 -0.0536  0.9190
  839MOL0     H13212   2.727   1.922   3.146  1.7475 -0.0194  2.3860
  839MOL0     H13213   2.905   1.915   3.122 -1.4277  0.3426  2.7318
  839MOL0     H13214   2.706   1.694   3.057  0.1347  0.2527  1.9611
  839MOL0     H13215   2.881   1.682   3.072 -0.0673 -3.5803  0.5192
  839MOL0     H13216   2.993   1.669   3.315  0.2273 -0.7454  2.7999
  839MOL0     H13217   2.922   1.590   3.624 -0.4375  0.0538  0.3795
  839MOL0     H13218   2.860   1.436   3.603  1.7722 -1.1755 -0.5476
  839MOL0     H13219   3.025   1.387   3.419  1.2127  3.6392 -2.1688
  839MOL0     H13220   3.120   1.528   3.498 -1.7936  1.2723 -0.2266
  839MOL0     H13221   3.036   1.269   3.615 -0.4799 -0.2847 -3.6852
  839MOL0     H13222   3.097   1.400   3.707  0.0045 -2.2694  0.7868
  839MOL0     H13223   3.307   1.400   3.581 -2.4611  0.6966 -0.7068
  839MOL0     H13224   3.256   1.269   3.480  2.1937  2.4157 -1.2378
  839MOL0     H13225   3.390   1.126   3.883 -2.5008 -4.1074 -0.9789
  839MOL0     H13226   3.628   1.025   3.897  2.8138 -0.1427 -1.0703
  839MOL0     H13227   4.006   0.958   3.368  0.2319 -3.9262  0.3716
  839MOL0     H13228   4.225   0.885   3.335 -0.6165 -1.8886 -0.0659
  839MOL0     H13229   4.545   0.855   3.377  1.6962  2.7279 -0.9095
  839MOL0     H13230   4.417   0.975   3.375 -1.8985 -2.4639  0.3641
  839MOL0     H13231   4.586   0.976   3.608 -1.2307  0.8676  1.2152
  839MOL0     H13232   4.668   1.014   3.457 -0.0366 -3.9033 -1.1905
  839MOL0     H13233   4.422   1.146   3.585  0.4887 -1.3000  0.1808
  839MOL0     H13234   4.591   1.215   3.565  0.6013 -0.3509 -0.1748
  839MOL0     H13235   4.364   1.189   3.353 -1.0364  1.8756  1.2858
  839MOL0     H13236   4.537   1.211   3.310  2.8871 -2.0992  2.2603
  839MOL0     H13237   4.408   1.395   3.502 -1.2712 -3.0953 -0.0578
  839MOL0     H13238   4.395   1.427   3.317 -1.8663 -0.5434  0.9284
  839MOL0     H13239   4.589   1.565   3.433  1.3095 -1.6353  0.7203
  839MOL0     H13240   4.645   1.406   3.478 -0.4716 -0.1158  0.6903
  839MOL0     H13241   4.589   1.470   3.177  0.5859 -1.3845 -1.8378
  839MOL0     H13242   4.715   1.374   3.269  0.6469  0.7127  2.5150
  839MOL0     H13243   4.717   1.676   3.262 -1.2770 -0.5929  0.4031
  839MOL0     H13244   4.823   1.575   3.359 -1.9437  2.0657  1.1820
  839MOL0     H13245   4.292   0.871   3.759 -1.2519 -4.5516 -0.9679
  839MOL0     H13246   4.073   0.990   3.795 -2.1146  1.7670 -0.7856
  839MOL0     H13247   3.709   1.131   3.501  3.1011  2.2573  3.3584
  839MOL0     H13248   3.482   1.222   3.469 -0.4394 -0.4200 -0.9540
  839MOL0     H13249   2.596   1.985   2.239 -2.1584 -1.1138  0.3547
  839MOL0     H13250   2.387   1.951   2.099 -1.6003 -2.0428  3.2983
  839MOL0     H13251   1.943   2.001   2.094  1.7090 -1.5339 -3.0118
  839MOL0     H13252   1.725   1.961   1.991  1.2251  1.6424  3.1683
  839MOL0     H13253   1.720   2.109   1.555  1.6367  1.0743  0.1345
  839MOL0     H13254   1.624   2.227   1.640  4.0362  0.9384 -1.1300
  839MOL0     H13255   1.445   2.132   1.507  2.3590  1.5995 -0.2889
  839MOL0     H13256   1.425   2.064   1.655 -0.9037 -0.3651 -1.1285
  839MOL0     H13257   1.617   1.879   1.548 -1.7140 -2.4644  0.2856
  839MOL0     H13258   1.562   1.939   1.395  1.6475 -2.0288 -0.3033
  839MOL0     H13259   1.455   1.739   1.454  2.5742  2.1599 -1.3861
  839MOL0     H13260   1.388   1.810   1.605 -0.6290  2.5676  0.2783
  839MOL0     H13261   1.118   1.867   1.284 -1.1175 -1.2200  1.5414
  839MOL0     H13262   1.811   2.269   1.713 -0.5876 -0.0598  0.8421
  839MOL0     H13263   2.111   2.326   1.761 -1.5167 -1.8061  0.0308
  839MOL0     H13264   1.971   2.432   1.754  0.8301  0.3967 -0.6765
  839MOL0     H13265   2.079   2.450   1.892 -1.0029  2.6681 -1.2330
  840MOL0     O13266   3.989   1.411   2.714  1.2129 -0.6169 -0.2785
  840MOL0     C13267   3.934   1.379   2.820  1.1881 -0.2336 -0.8278
  840MOL0     O13268   3.987   1.280   2.913  0.3463  1.1304  1.0693
  840MOL0     C13269   4.087   1.211   2.848  0.2357 -0.3893  0.8610
  840MOL0     C13270   4.075   1.095   2.766 -0.2755  0.5910 -0.4069
  840MOL0     C13271   4.176   1.024   2.698  1.2015 -0.7510 -0.9090
  840MOL0     C13272   4.305   1.070   2.722  0.3808  0.5000 -0.2051
  840MOL0     O13273   4.417   1.007   2.669  0.9244  0.3672  0.6033
  840MOL0     C13274   4.415   0.867   2.661 -0.6133  0.1376  0.1970
  840MOL0     C13275   4.563   0.831   2.647 -0.2759 -1.0252  0.3491
  840MOL0     C13276   4.599   0.848   2.500 -0.5554  0.6071 -0.1024
  840MOL0     C13277   4.739   0.821   2.468 -0.7013  0.5474 -0.9893
  840MOL0     C13278   4.767   0.846   2.318  0.2448 -0.8086  0.2124
  840MOL0     C13279   4.916   0.857   2.281 -0.3751 -0.4239 -1.2496
  840MOL0     C13280   4.933   0.918   2.147 -0.4828  0.5556 -1.3819
  840MOL0     C13281   5.083   0.931   2.124 -0.3237 -0.3810  0.3566
  840MOL0     N13282   5.122   0.940   1.986 -0.8212  0.6332  0.1970
  840MOL0     C13283   5.182   0.845   1.902  0.1376  0.5904 -0.1769
  840MOL0     C13284   5.156   0.884   1.774 -0.7147  0.1435  0.0846
  840MOL0     C13285   5.192   0.807   1.652  0.7225  0.5763  0.2045
  840MOL0     C13286   5.324   0.849   1.588  0.4165 -0.0652  0.1178
  840MOL0     C13287   5.444   0.823   1.685  0.5794 -0.0327 -0.6077
  840MOL0     C13288   5.579   0.871   1.624  1.4342  0.5635 -0.7113
  840MOL0     O13289   5.672   0.830   1.713 -0.2013  0.1451 -0.2393
  840MOL0     C13290   5.808   0.858   1.692 -1.1850  0.1373  0.5907
  840MOL0     C13291   5.863   0.918   1.570 -0.4509  0.1124 -0.7239
  840MOL0     C13292   6.005   0.923   1.558  0.2240 -0.7598 -0.2550
  840MOL0     C13293   6.083   0.893   1.667  0.3105 -0.1701 -0.0382
  840MOL0     C13294   6.223   0.897   1.654  0.4222  0.2889  0.0263
  840MOL0     O13295   6.272   0.997   1.581 -0.9734 -0.2567  0.6829
  840MOL0     C13296   6.394   0.981   1.513 -0.4100 -0.7343 -0.0717
  840MOL0     C13297   6.399   0.933   1.381  0.7539 -0.6869  0.1872
  840MOL0     C13298   6.524   0.906   1.327 -0.7581  0.4001  0.2157
  840MOL0     C13299   6.646   0.941   1.389  0.6856 -0.4690  0.5588
  840MOL0     O13300   6.760   0.888   1.329 -0.2644 -0.0694  1.0443
  840MOL0     C13301   6.892   0.904   1.384 -0.1024  0.4617  0.0305
  840MOL0     C13302   6.982   0.815   1.291 -0.0674 -0.0906  0.2889
  840MOL0     C13303   7.128   0.842   1.325  0.6131 -0.5750 -0.3760
  840MOL0     C13304   7.224   0.882   1.209  0.0829  0.9618  0.4200
  840MOL0     C13305   7.174   1.001   1.134  0.5418  0.2468  0.0178
  840MOL0     C13306   7.273   1.061   1.030  1.2406  0.6516 -0.1315
  840MOL0     C13307   7.247   1.003   0.893  0.3617  0.3050 -0.2403
  840MOL0     C13308   7.316   1.084   0.782 -0.3676  0.1618 -0.4422
  840MOL0    Cl13309   7.272   1.256   0.777  0.0278  0.2305  0.0200
  840MOL0     C13310   6.644   0.988   1.520  0.1106 -0.1952  0.0898
  840MOL0     C13311   6.518   1.009   1.575  0.6173  0.1906 -0.0336
  840MOL0     O13312   6.293   0.800   1.693 -0.0219  0.0625  0.2457
  840MOL0     C13313   6.029   0.853   1.783  0.7770 -0.5835  0.0713
  840MOL0     C13314   5.891   0.828   1.798 -0.0708 -0.4751 -0.1033
  840MOL0     N13315   5.101   1.004   1.779 -1.1669  0.3803  0.0989
  840MOL0     N13316   5.087   1.040   1.900  0.0253  0.0178  0.7224
  840MOL0     C13317   4.321   1.181   2.804 -0.4888  0.2287  0.2856
  840MOL0     C13318   4.217   1.250   2.858 -0.0994 -0.3301  0.3568
  840MOL0     C13319   3.801   1.434   2.864 -0.8450 -0.1890 -0.5688
  840MOL0     C13320   3.715   1.370   2.948  0.4342 -0.1031 -0.6065
  840MOL0     C13321   3.584   1.418   2.982  0.2333 -0.2861  0.0461
  840MOL0     C13322   3.543   1.540   2.922  0.5142  0.5178  0.2184
  840MOL0     O13323   3.412   1.572   2.962 -0.8260  0.1210  0.7356
  840MOL0     C13324   3.366   1.699   2.930  0.6272  0.1118 -0.1355
  840MOL0     C13325   3.221   1.674   2.939  0.8482  0.1784  0.0276
  840MOL0     C13326   3.157   1.595   2.819 -0.6166  0.5551 -0.0273
  840MOL0     C13327   3.147   1.444   2.845  0.4403 -0.3596  0.6572
  840MOL0     C13328   3.053   1.407   2.952  1.2873  0.5700 -0.2797
  840MOL0     C13329   2.985   1.378   3.048  0.5292 -1.3801 -0.9114
  840MOL0     C13330   3.628   1.616   2.845  0.3587  0.4452  0.6917
  840MOL0     C13331   3.758   1.561   2.814  0.7594 -0.1009  0.3091
  840MOL0     C13332   3.848   1.651   2.728  1.1041 -0.0558 -0.9284
  840MOL0     H13333   3.973   1.064   2.748 -0.6221  2.2489 -1.5165
  840MOL0     H13334   4.148   0.948   2.627 -2.9690  0.0499 -0.3580
  840MOL0     H13335   4.377   0.807   2.745 -2.4510  0.8336 -0.1001
  840MOL0     H13336   4.354   0.826   2.579  1.6338 -3.4671  0.0785
  840MOL0     H13337   4.567   0.724   2.670 -2.8988 -1.9253 -2.6809
  840MOL0     H13338   4.623   0.886   2.720 -2.3463  1.4729  0.3333
  840MOL0     H13339   4.576   0.947   2.460  1.4695  1.8274  1.5263
  840MOL0     H13340   4.551   0.769   2.441  2.7424 -1.4212 -0.3561
  840MOL0     H13341   4.805   0.880   2.531  0.1889 -1.0765 -0.3350
  840MOL0     H13342   4.757   0.717   2.498 -0.8743  1.0470  0.9771
  840MOL0     H13343   4.726   0.767   2.253  1.0760  0.3793 -1.8395
  840MOL0     H13344   4.720   0.943   2.304  0.3868 -0.3476  2.5380
  840MOL0     H13345   4.961   0.931   2.347  0.9469 -1.5785 -0.8265
  840MOL0     H13346   4.972   0.766   2.298  5.1364  2.9704  1.4025
  840MOL0     H13347   4.885   1.016   2.134 -1.9395  0.2326  1.0072
  840MOL0     H13348   4.884   0.843   2.084 -0.7078  0.9094 -1.6349
  840MOL0     H13349   5.124   1.016   2.179  0.0825 -0.3775  0.0541
  840MOL0     H13350   5.129   0.841   2.164 -2.0011 -2.1695 -1.5011
  840MOL0     H13351   5.222   0.749   1.934 -0.3800 -0.0809 -1.4635
  840MOL0     H13352   5.209   0.703   1.682 -0.6428 -0.4501 -2.3403
  840MOL0     H13353   5.106   0.820   1.586 -0.3180  3.0862  1.8826
  840MOL0     H13354   5.339   0.788   1.498 -0.5731  1.2356 -0.9765
  840MOL0     H13355   5.325   0.955   1.563  1.1365  0.1055  0.8349
  840MOL0     H13356   5.449   0.716   1.708 -1.8135  0.2558  1.6677
  840MOL0     H13357   5.430   0.874   1.781  1.8086  1.8575 -1.3671
  840MOL0     H13358   5.580   0.979   1.607  2.4461  0.5077 -1.0644
  840MOL0     H13359   5.575   0.826   1.525 -0.1675 -3.4252  0.9677
  840MOL0     H13360   5.789   0.952   1.499  1.3712  1.4843 -2.0722
  840MOL0     H13361   6.047   0.965   1.468  0.9694 -0.5746  0.1738
  840MOL0     H13362   6.308   0.909   1.328  1.5492  0.0830 -1.5937
  840MOL0     H13363   6.526   0.863   1.227  2.1382  3.0580 -1.0407
  840MOL0     H13364   6.918   1.010   1.373  2.4617 -0.1434 -0.2527
  840MOL0     H13365   6.896   0.868   1.487  0.0232 -0.7285 -0.3734
  840MOL0     H13366   6.955   0.711   1.310 -0.8789  0.0986  0.2379
  840MOL0     H13367   6.957   0.834   1.186 -0.2136  1.1478  0.5299
  840MOL0     H13368   7.132   0.918   1.403 -1.8524 -0.8621  0.1111
  840MOL0     H13369   7.179   0.755   1.368 -0.2353 -1.5002 -1.1890
  840MOL0     H13370   7.248   0.800   1.140  3.3492  2.5897 -0.6460
  840MOL0     H13371   7.324   0.898   1.250  0.2251  2.4102 -0.4237
  840MOL0     H13372   7.161   1.085   1.203 -0.5052 -1.4171  1.9406
  840MOL0     H13373   7.082   0.969   1.084 -0.3874  0.9846  1.1992
  840MOL0     H13374   7.249   1.168   1.029 -3.7377 -0.0925  3.2943
  840MOL0     H13375   7.374   1.039   1.064 -0.2786 -3.3590  2.5814
  840MOL0     H13376   7.139   1.014   0.879  0.3778  3.3551  1.2202
  840MOL0     H13377   7.281   0.900   0.897 -4.2500 -1.4272  1.8519
  840MOL0     H13378   7.425   1.075   0.785 -0.5404 -3.2810 -0.1841
  840MOL0     H13379   7.274   1.039   0.691 -1.1658  4.0638 -2.2025
  840MOL0     H13380   6.736   0.999   1.577  1.6276 -0.3532 -2.1862
  840MOL0     H13381   6.517   1.050   1.676 -1.2024 -0.2266  0.1519
  840MOL0     H13382   6.095   0.818   1.861 -0.5421 -0.6787  1.1815
  840MOL0     H13383   5.851   0.785   1.889  2.5148 -2.0307  0.3864
  840MOL0     H13384   4.422   1.220   2.813 -0.7408  1.6082 -1.9013
  840MOL0     H13385   4.232   1.347   2.903 -4.2876  0.8767 -0.3755
  840MOL0     H13386   3.746   1.274   2.986 -0.5317 -0.6393 -1.1436
  840MOL0     H13387   3.520   1.354   3.041  0.0335 -0.3723 -0.2636
  840MOL0     H13388   3.396   1.735   2.831 -2.8256  0.5270 -1.1397
  840MOL0     H13389   3.392   1.771   3.008 -0.2438 -0.0203  0.2865
  840MOL0     H13390   3.177   1.774   2.942 -1.4709 -0.4556 -4.4956
  840MOL0     H13391   3.181   1.625   3.029 -0.9080  0.4814 -0.5359
  840MOL0     H13392   3.219   1.617   2.732 -0.7143 -2.4331 -0.9546
  840MOL0     H13393   3.060   1.644   2.804  0.0969  1.4097 -2.4030
  840MOL0     H13394   3.121   1.385   2.756 -0.9504 -0.8438  1.3582
  840MOL0     H13395   3.249   1.424   2.879  0.5877  2.8159  2.5100
  840MOL0     H13396   2.925   1.339   3.128  3.4573  3.1661  4.1535
  840MOL0     H13397   3.598   1.715   2.811 -2.1887 -0.4233  0.2359
  840MOL0     H13398   3.854   1.619   2.624  0.5747 -0.1871 -0.9259
  840MOL0     H13399   3.833   1.759   2.737 -0.6678  0.0450 -3.7909
  840MOL0     H13400   3.949   1.662   2.768  1.3263  1.0787 -1.7661
  841MOL0     O13401   2.161   9.650   8.541  0.1876 -0.4394 -0.6533
  841MOL0     C13402   2.166   9.773   8.539  0.1069  0.2561 -0.7080
  841MOL0     O13403   2.248   9.847   8.475  0.0430 -0.1492 -0.3726
  841MOL0     C13404   2.371   9.805   8.421 -0.8496 -0.2646 -0.0292
  841MOL0     C13405   2.436   9.893   8.334  0.2243 -0.8907 -0.1942
  841MOL0     C13406   2.570   9.874   8.277 -0.0201  0.9184  0.5943
  841MOL0     C13407   2.631   9.746   8.292  0.0280 -0.7326  0.3840
  841MOL0     O13408   2.760   9.728   8.247  0.3455  0.1025 -0.3397
  841MOL0     C13409   2.856   9.641   8.319 -0.2717 -0.2898 -0.5294
  841MOL0     C13410   2.995   9.665   8.260  0.1638  0.5091  0.0346
  841MOL0     C13411   3.024   9.588   8.130 -0.0354 -0.2887 -0.9586
  841MOL0     C13412   3.178   9.578   8.097  0.1754 -0.2120  0.3740
  841MOL0     C13413   3.202   9.461   7.998 -0.0085 -0.3869 -0.9943
  841MOL0     C13414   3.127   9.484   7.866 -0.5019  1.5991 -0.2050
  841MOL0     C13415   3.151   9.371   7.766  0.3732 -1.0311 -0.3038
  841MOL0     C13416   3.179   9.417   7.622  0.0981  0.3422  0.8099
  841MOL0     N13417   3.228   9.297   7.547 -0.2241  0.9964 -0.1437
  841MOL0     C13418   3.327   9.215   7.578  0.6046  0.9014 -0.3870
  841MOL0     C13419   3.340   9.126   7.473  0.1668 -0.3072 -0.8318
  841MOL0     C13420   3.443   9.025   7.460 -0.1877  0.6646 -0.0568
  841MOL0     C13421   3.425   8.927   7.578  1.1933 -0.1572 -1.0037
  841MOL0     C13422   3.287   8.859   7.567 -0.4457  0.1003  0.1387
  841MOL0     C13423   3.223   8.855   7.707 -0.3123  0.1985  1.2806
  841MOL0     O13424   3.106   8.773   7.695  0.8786  1.0182  0.3511
  841MOL0     C13425   2.976   8.831   7.673  0.8063 -1.5790  0.0928
  841MOL0     C13426   2.876   8.741   7.636 -0.6750 -0.1920  1.4287
  841MOL0     C13427   2.745   8.770   7.632  1.3571 -0.0409  0.6266
  841MOL0     C13428   2.693   8.895   7.673 -0.0492  0.4353  0.0626
  841MOL0     C13429   2.546   8.935   7.688  0.2315  0.1946 -0.7098
  841MOL0     O13430   2.459   8.845   7.651  0.4081 -0.8497 -0.3600
  841MOL0     C13431   2.322   8.862   7.684 -0.3461  0.1452  0.2159
  841MOL0     C13432   2.226   8.874   7.583 -0.1327 -1.2471  0.3396
  841MOL0     C13433   2.090   8.892   7.620  0.4443 -0.1692  0.6899
  841MOL0     C13434   2.049   8.899   7.753  0.4419 -0.6500 -0.7655
  841MOL0     O13435   1.920   8.908   7.802  0.5703 -0.1378  0.1509
  841MOL0     C13436   1.823   8.943   7.703  0.1103 -0.6294 -0.3352
  841MOL0     C13437   1.689   8.988   7.755  0.7016 -0.4702 -0.0905
  841MOL0     C13438   1.690   9.071   7.884  0.6146  0.1794 -0.1066
  841MOL0     C13439   1.550   9.117   7.945 -0.7181  0.2020 -0.0492
  841MOL0     C13440   1.571   9.217   8.064  0.0412  0.4951 -1.2014
  841MOL0     C13441   1.439   9.244   8.118  0.0411 -0.4935 -0.7140
  841MOL0     C13442   1.440   9.363   8.220  0.4973  0.8228  0.6082
  841MOL0     C13443   1.303   9.393   8.279  0.6146  0.4715  0.1675
  841MOL0    Cl13444   1.313   9.543   8.374 -0.4454 -0.2319 -0.5164
  841MOL0     C13445   2.144   8.895   7.858  0.1050 -0.8202  0.5639
  841MOL0     C13446   2.283   8.876   7.823  0.5945  0.2550  0.1644
  841MOL0     O13447   2.530   9.039   7.746  0.2741  0.9639  0.0722
  841MOL0     C13448   2.797   8.989   7.701  0.0949  0.2681  0.3738
  841MOL0     C13449   2.928   8.958   7.700  0.1813 -0.7723  0.3527
  841MOL0     N13450   3.228   9.142   7.387 -0.0560  0.5036  0.0425
  841MOL0     N13451   3.163   9.252   7.434 -0.0920  0.0694  0.1340
  841MOL0     C13452   2.566   9.651   8.367 -0.1134 -0.0287 -0.3641
  841MOL0     C13453   2.442   9.683   8.443 -0.8023  0.8255  0.6703
  841MOL0     C13454   2.072   9.844   8.645  0.2524  0.3324  0.3174
  841MOL0     C13455   1.948   9.788   8.678 -0.0261  0.2966 -0.4801
  841MOL0     C13456   1.846   9.851   8.747 -0.0719 -0.7427 -0.0876
  841MOL0     C13457   1.862   9.981   8.795 -0.2827  0.0047  0.9113
  841MOL0     O13458   1.780  10.046   8.877 -0.3962 -0.3988 -0.5068
  841MOL0     C13459   1.648   9.999   8.905  0.4155  1.5180 -0.4022
  841MOL0     C13460   1.559  10.101   8.988  0.2758 -0.6898  0.6572
  841MOL0     C13461   1.408  10.066   8.967  0.7522 -1.2045  0.2567
  841MOL0     C13462   1.313  10.173   9.049  0.0799 -0.5288 -0.6223
  841MOL0     C13463   1.177  10.124   9.037 -0.8533 -1.2261 -0.3064
  841MOL0     C13464   1.065  10.090   9.033  0.5140 -0.2380 -0.6860
  841MOL0     C13465   1.978  10.044   8.760  0.7823  0.8018 -0.5571
  841MOL0     C13466   2.083   9.979   8.691  0.9307 -0.8390  0.5283
  841MOL0     C13467   2.208  10.064   8.666  0.8157 -0.4357 -0.3093
  841MOL0     H13468   2.404   9.991   8.299  0.8286 -0.9071 -0.8150
  841MOL0     H13469   2.621   9.963   8.239  2.0346  2.0122  5.1514
  841MOL0     H13470   2.861   9.677   8.423  0.6376 -1.1749 -0.2492
  841MOL0     H13471   2.832   9.535   8.324  2.3024 -0.9509 -0.7944
  841MOL0     H13472   3.064   9.653   8.344 -0.0429  0.4146  0.1937
  841MOL0     H13473   3.013   9.771   8.238 -0.4962  0.0420 -3.1156
  841MOL0     H13474   2.962   9.639   8.055 -1.0113 -0.4618 -0.2876
  841MOL0     H13475   2.982   9.488   8.143  2.2660 -0.8250  5.7400
  841MOL0     H13476   3.223   9.670   8.057  0.4894  0.3446  1.9618
  841MOL0     H13477   3.229   9.549   8.189  0.3874 -2.8266 -0.4765
  841MOL0     H13478   3.308   9.466   7.970 -0.2578  0.1067 -1.8860
  841MOL0     H13479   3.179   9.368   8.051 -2.0992  0.9819  0.6441
  841MOL0     H13480   3.019   9.489   7.882 -0.9880 -0.2159 -2.3613
  841MOL0     H13481   3.142   9.579   7.815  2.0048  0.9241 -0.8767
  841MOL0     H13482   3.065   9.303   7.766 -0.0564 -0.5595  1.6594
  841MOL0     H13483   3.255   9.342   7.787  2.5950  5.0919 -0.9570
  841MOL0     H13484   3.079   9.442   7.583  1.1919 -2.1376 -4.3253
  841MOL0     H13485   3.249   9.499   7.605  1.4929 -1.1366 -0.9121
  841MOL0     H13486   3.404   9.224   7.653  3.0798  0.8861 -2.7732
  841MOL0     H13487   3.428   8.966   7.369 -1.3156 -0.3805  0.7603
  841MOL0     H13488   3.543   9.069   7.456  0.0435  0.0460 -1.5222
  841MOL0     H13489   3.515   8.865   7.574  2.9056  2.0509  0.5188
  841MOL0     H13490   3.418   8.982   7.673  1.8823 -2.0943  0.2206
  841MOL0     H13491   3.304   8.759   7.527 -0.2815  0.0984  0.2116
  841MOL0     H13492   3.216   8.915   7.506  0.9360  2.0155  0.1968
  841MOL0     H13493   3.208   8.959   7.739  1.7663  0.5102  1.3556
  841MOL0     H13494   3.292   8.800   7.771 -2.4568 -2.3868  1.5628
  841MOL0     H13495   2.922   8.644   7.618  2.1664  1.6750 -3.2940
  841MOL0     H13496   2.675   8.692   7.604  1.3648  0.6632 -1.5686
  841MOL0     H13497   2.255   8.862   7.479 -0.5551 -0.3236  0.1020
  841MOL0     H13498   2.020   8.907   7.538  2.9854  0.7207 -1.4624
  841MOL0     H13499   1.873   9.030   7.660  0.7311 -0.8279 -0.0227
  841MOL0     H13500   1.812   8.865   7.627  0.0839 -0.4975 -0.4690
  841MOL0     H13501   1.645   9.037   7.667  1.2353 -1.4023 -0.9052
  841MOL0     H13502   1.629   8.899   7.775  1.7843 -0.9551  1.0572
  841MOL0     H13503   1.753   9.015   7.953  1.1946 -0.7115 -1.3281
  841MOL0     H13504   1.737   9.169   7.868 -0.8695  0.9639  0.1098
  841MOL0     H13505   1.508   9.029   7.995  1.5862 -1.0547 -0.1342
  841MOL0     H13506   1.477   9.141   7.868  0.4826  4.0337 -0.2092
  841MOL0     H13507   1.603   9.311   8.018 -2.2927  1.0130 -1.9332
  841MOL0     H13508   1.647   9.175   8.130  2.7684  4.4818 -1.4619
  841MOL0     H13509   1.372   9.280   8.039  1.7603 -0.8957 -2.4445
  841MOL0     H13510   1.404   9.155   8.171  0.3746  0.1741  0.6722
  841MOL0     H13511   1.477   9.446   8.160  2.3868  0.1274  0.7669
  841MOL0     H13512   1.509   9.338   8.301  1.7952  2.7779  0.1828
  841MOL0     H13513   1.223   9.398   8.204  1.2957 -2.3187 -0.8947
  841MOL0     H13514   1.270   9.308   8.339 -0.8040  2.0046  1.6685
  841MOL0     H13515   2.115   8.904   7.962 -3.1715 -1.8438 -0.1162
  841MOL0     H13516   2.360   8.881   7.899  1.3924  4.8278 -0.6486
  841MOL0     H13517   2.769   9.083   7.749  0.6261  0.6165  0.0052
  841MOL0     H13518   2.990   9.033   7.750 -1.1320  2.0768 -2.0145
  841MOL0     H13519   2.613   9.555   8.385  0.5153 -0.4157 -3.5689
  841MOL0     H13520   2.393   9.604   8.499 -1.4914  2.8115  3.0029
  841MOL0     H13521   1.951   9.681   8.657 -1.2677  0.0002  0.7167
  841MOL0     H13522   1.760   9.793   8.780 -1.0826  0.6655 -0.1148
  841MOL0     H13523   1.663   9.911   8.968 -2.1010  2.1970  1.3105
  841MOL0     H13524   1.609   9.965   8.808 -0.5439 -3.1439  1.3526
  841MOL0     H13525   1.584  10.200   8.950  3.2949 -0.2419  3.3993
  841MOL0     H13526   1.579  10.103   9.096 -0.0632  1.8555  0.7163
  841MOL0     H13527   1.386   9.967   9.008 -2.6388 -0.5019  0.4075
  841MOL0     H13528   1.382  10.075   8.861 -1.8537  0.2761  0.9395
  841MOL0     H13529   1.349  10.183   9.152  0.7690 -1.8452 -0.7230
  841MOL0     H13530   1.332  10.270   9.001  1.1451 -1.6629 -2.6384
  841MOL0     H13531   0.963  10.059   9.048  0.6597 -0.8356 -0.9108
  841MOL0     H13532   1.997  10.150   8.774  0.7785  1.3896 -4.0952
  841MOL0     H13533   2.186  10.134   8.585  0.8088 -0.0788 -0.0028
  841MOL0     H13534   2.226  10.131   8.751  0.2156 -0.4473 -0.1692
  841MOL0     H13535   2.300  10.007   8.657  1.7962  1.0075  0.1341
  842MOL0     O13536   6.037   8.746   6.060 -0.7954  0.7840  0.7627
  842MOL0     C13537   6.110   8.724   6.159 -0.9168 -1.3567 -0.4601
  842MOL0     O13538   6.151   8.608   6.205  0.2702  0.1834 -0.3484
  842MOL0     C13539   6.132   8.492   6.144 -0.1283 -0.7797 -0.0395
  842MOL0     C13540   6.196   8.467   6.027 -0.5106  0.9160  1.0129
  842MOL0     C13541   6.194   8.344   5.963 -1.1597 -0.2804 -0.8781
  842MOL0     C13542   6.115   8.234   6.010 -0.5496 -1.0727 -1.4383
  842MOL0     O13543   6.099   8.121   5.943 -0.3895  1.0970  0.5811
  842MOL0     C13544   6.227   8.047   5.917  0.6658 -0.0209  0.9263
  842MOL0     C13545   6.204   7.917   5.841 -0.2556  0.2952  0.1952
  842MOL0     C13546   6.137   7.926   5.706 -0.0856  0.2554 -1.0551
  842MOL0     C13547   6.097   7.786   5.649  0.5032  0.3592  0.6641
  842MOL0     C13548   5.973   7.716   5.711  0.4551  0.4726  0.0416
  842MOL0     C13549   5.853   7.778   5.640  0.3381  0.0518  0.1844
  842MOL0     C13550   5.719   7.711   5.683  0.8314 -0.0502  0.3510
  842MOL0     C13551   5.737   7.561   5.675 -0.2979  1.4743 -0.4704
  842MOL0     N13552   5.609   7.496   5.677 -0.0926  0.7258 -0.0125
  842MOL0     C13553   5.593   7.358   5.640  0.0499  0.0812 -0.1460
  842MOL0     C13554   5.456   7.331   5.644  0.7005  0.9388 -0.0753
  842MOL0     C13555   5.376   7.214   5.608  0.0728 -0.3404  0.6800
  842MOL0     C13556   5.279   7.181   5.725  0.2670  0.7528  0.2335
  842MOL0     C13557   5.178   7.087   5.674  0.9217 -0.5094 -0.0289
  842MOL0     C13558   5.054   7.135   5.597  0.4748 -0.3618 -0.9150
  842MOL0     O13559   5.060   7.071   5.465  0.3428 -0.4342  0.9430
  842MOL0     C13560   5.086   7.149   5.354 -0.2563  0.4952  0.0794
  842MOL0     C13561   5.112   7.284   5.345 -0.2033  0.5185  0.0698
  842MOL0     C13562   5.151   7.342   5.220  0.1733 -0.0977 -0.5465
  842MOL0     C13563   5.157   7.268   5.101 -0.0263  0.5086 -0.7166
  842MOL0     C13564   5.197   7.326   4.970  0.7082 -0.4917 -0.2543
  842MOL0     O13565   5.244   7.461   4.977  0.7075  0.5487 -0.6848
  842MOL0     C13566   5.259   7.524   4.857  0.5228 -0.1259  0.4105
  842MOL0     C13567   5.375   7.581   4.821 -0.0073  0.2829  0.3888
  842MOL0     C13568   5.397   7.641   4.698  0.5525 -0.7019 -0.0709
  842MOL0     C13569   5.284   7.669   4.617 -0.1215 -0.0810 -0.2647
  842MOL0     O13570   5.308   7.734   4.493  0.0737 -0.4972  0.4120
  842MOL0     C13571   5.192   7.779   4.411  0.4848  0.5378 -0.7919
  842MOL0     C13572   5.234   7.860   4.288 -0.1708 -0.3843  0.3821
  842MOL0     C13573   5.328   7.793   4.189 -0.7009  0.3342  0.4343
  842MOL0     C13574   5.398   7.897   4.115 -0.4417 -1.0526  0.5778
  842MOL0     C13575   5.510   7.860   4.024 -0.0020  0.3168 -0.5640
  842MOL0     C13576   5.571   7.998   3.961 -0.2066  0.2162  0.7514
  842MOL0     C13577   5.648   7.974   3.834 -0.9153 -0.3177  0.6335
  842MOL0     C13578   5.731   8.103   3.795 -1.0018  0.5608 -0.7864
  842MOL0    Cl13579   5.626   8.215   3.698  0.3616  0.0258 -0.2516
  842MOL0     C13580   5.159   7.618   4.653 -0.1966 -0.1516  0.5285
  842MOL0     C13581   5.151   7.544   4.771  0.2900  0.3165 -0.1130
  842MOL0     O13582   5.195   7.253   4.871 -0.4874  0.0640  0.8012
  842MOL0     C13583   5.106   7.137   5.112 -0.9882  0.2056 -0.6144
  842MOL0     C13584   5.077   7.081   5.231  0.0949  0.3851  0.0177
  842MOL0     N13585   5.406   7.452   5.701  0.1972  0.4703 -0.0592
  842MOL0     N13586   5.497   7.538   5.729  0.0285 -0.7048  0.4481
  842MOL0     C13587   6.053   8.260   6.137  0.3364 -0.6796 -0.0506
  842MOL0     C13588   6.060   8.384   6.195  0.5751 -0.2159  0.2302
  842MOL0     C13589   6.158   8.842   6.224  1.0408  0.3690  0.1164
  842MOL0     C13590   6.128   8.975   6.170  0.5994 -0.3091  0.3251
  842MOL0     C13591   6.172   9.089   6.235  0.1858 -0.2634 -0.3124
  842MOL0     C13592   6.250   9.087   6.345 -0.0324 -0.4067 -0.1719
  842MOL0     O13593   6.309   9.202   6.400  0.2470 -0.6150 -0.1006
  842MOL0     C13594   6.450   9.202   6.424 -0.0003  0.6015  0.1700
  842MOL0     C13595   6.480   9.265   6.549  0.7491  0.9521 -0.2909
  842MOL0     C13596   6.408   9.216   6.672  0.5897  0.1743  0.1466
  842MOL0     C13597   6.450   9.283   6.807 -0.2663 -0.6917 -0.4771
  842MOL0     C13598   6.592   9.255   6.836 -0.0477  0.4624 -0.0817
  842MOL0     C13599   6.709   9.228   6.859  0.1378 -0.7874  0.0490
  842MOL0     C13600   6.282   8.959   6.399  0.2437 -0.0010 -0.5000
  842MOL0     C13601   6.231   8.838   6.346  0.2408  0.5258  0.3530
  842MOL0     C13602   6.275   8.716   6.421 -0.3494 -0.5387 -0.3576
  842MOL0     H13603   6.254   8.545   5.980  2.1255 -2.4326 -1.8425
  842MOL0     H13604   6.247   8.341   5.869  0.0663  2.2803 -0.3483
  842MOL0     H13605   6.292   8.101   5.847 -0.7315 -2.0108 -2.1449
  842MOL0     H13606   6.279   8.024   6.010 -1.6956 -2.0688  1.8544
  842MOL0     H13607   6.150   7.852   5.911  2.8170 -0.3977  2.1293
  842MOL0     H13608   6.302   7.868   5.832 -1.1642 -1.3499 -1.4906
  842MOL0     H13609   6.213   7.969   5.639 -0.0985 -0.2712 -1.4180
  842MOL0     H13610   6.055   7.999   5.698 -0.4045 -0.1972 -2.2400
  842MOL0     H13611   6.068   7.798   5.544 -0.9267  0.7681  1.0791
  842MOL0     H13612   6.186   7.722   5.658  2.9334  3.5367  1.0545
  842MOL0     H13613   5.987   7.608   5.703 -2.7145  0.0518 -1.1679
  842MOL0     H13614   5.954   7.726   5.818 -1.7388 -2.0593 -0.0162
  842MOL0     H13615   5.852   7.887   5.655  1.1304  0.4082 -2.0126
  842MOL0     H13616   5.859   7.763   5.532  1.1590 -0.1686  0.2555
  842MOL0     H13617   5.653   7.737   5.599  0.5268  1.6432  1.0835
  842MOL0     H13618   5.679   7.749   5.777 -2.4984  2.3422 -1.7917
  842MOL0     H13619   5.799   7.540   5.588 -1.7624 -0.6959 -1.0878
  842MOL0     H13620   5.781   7.519   5.766  0.7347 -2.3206 -2.4800
  842MOL0     H13621   5.666   7.292   5.594 -1.4747 -1.9121  0.1810
  842MOL0     H13622   5.349   7.217   5.502  2.9577 -0.6698 -0.1445
  842MOL0     H13623   5.453   7.137   5.605  1.1176  0.6948 -0.3868
  842MOL0     H13624   5.338   7.120   5.795 -2.6803 -1.2166  1.1993
  842MOL0     H13625   5.238   7.269   5.777 -3.2254  0.1888 -1.2698
  842MOL0     H13626   5.131   7.052   5.766  0.5803 -1.4540 -0.5401
  842MOL0     H13627   5.221   7.000   5.622 -0.5492 -1.6452  0.5973
  842MOL0     H13628   5.047   7.244   5.590  0.6986 -0.4402 -2.8226
  842MOL0     H13629   4.966   7.094   5.647  0.1128 -1.9100 -2.7154
  842MOL0     H13630   5.106   7.341   5.438 -1.4104  1.0021 -0.2845
  842MOL0     H13631   5.180   7.446   5.224  0.5314 -0.1789 -0.9782
  842MOL0     H13632   5.463   7.564   4.883 -1.9157  1.8359  3.7463
  842MOL0     H13633   5.501   7.670   4.683  0.1527 -0.4488 -3.0842
  842MOL0     H13634   5.139   7.692   4.372  3.3881 -1.2798 -0.9325
  842MOL0     H13635   5.137   7.837   4.486  2.9214 -0.8717  2.3328
  842MOL0     H13636   5.146   7.891   4.231  0.4362  0.1362 -0.2864
  842MOL0     H13637   5.276   7.957   4.316 -1.2151  0.3824 -0.6279
  842MOL0     H13638   5.410   7.739   4.236 -0.3617  1.1018  0.7366
  842MOL0     H13639   5.269   7.727   4.124  1.8719  1.0281 -2.8723
  842MOL0     H13640   5.434   7.977   4.181 -1.1121 -0.0297 -0.2551
  842MOL0     H13641   5.330   7.954   4.051  0.9180  0.1031  0.1140
  842MOL0     H13642   5.459   7.812   3.940  0.7968  1.3028 -1.6565
  842MOL0     H13643   5.585   7.800   4.076 -1.2501  1.8542  3.3504
  842MOL0     H13644   5.493   8.072   3.941 -0.5130 -0.6477 -1.5136
  842MOL0     H13645   5.636   8.048   4.035  1.4497 -0.8586  0.0712
  842MOL0     H13646   5.573   7.947   3.759  1.0969  1.0721 -2.0495
  842MOL0     H13647   5.711   7.886   3.851 -1.2841 -0.1885  3.1557
  842MOL0     H13648   5.761   8.164   3.881  1.8078  1.1541 -2.0768
  842MOL0     H13649   5.822   8.073   3.742 -0.7926 -1.6585  0.6803
  842MOL0     H13650   5.075   7.617   4.585  0.5848 -0.4722 -0.4632
  842MOL0     H13651   5.054   7.506   4.801  0.5228 -0.1764  0.0112
  842MOL0     H13652   5.102   7.068   5.028  1.6806  1.6632 -2.0813
  842MOL0     H13653   5.038   6.980   5.241  1.2545  0.1145  2.9420
  842MOL0     H13654   5.993   8.174   6.168 -0.6830 -0.9218 -2.4213
  842MOL0     H13655   6.016   8.399   6.294  0.5382  0.4499  0.1210
  842MOL0     H13656   6.055   8.989   6.092  1.4802 -0.5592 -0.5714
  842MOL0     H13657   6.143   9.181   6.185 -1.5553 -0.4788  0.2387
  842MOL0     H13658   6.507   9.260   6.351  3.4883 -3.1691 -0.5012
  842MOL0     H13659   6.500   9.106   6.407  3.4245  1.9899  1.5427
  842MOL0     H13660   6.473   9.374   6.542  2.0352  1.0914  0.2520
  842MOL0     H13661   6.585   9.237   6.561  0.0514 -0.9271  2.4561
  842MOL0     H13662   6.428   9.109   6.681 -0.4632 -0.0050  0.5557
  842MOL0     H13663   6.299   9.220   6.659  0.7558  2.1106 -1.0244
  842MOL0     H13664   6.438   9.392   6.813  0.4835 -0.4769 -2.2566
  842MOL0     H13665   6.396   9.245   6.894  1.3561  0.8386  1.3210
  842MOL0     H13666   6.807   9.192   6.880 -0.7773 -1.5427  3.9452
  842MOL0     H13667   6.333   8.949   6.495 -2.2445 -1.9906  0.7476
  842MOL0     H13668   6.374   8.689   6.381 -0.9059  1.9010 -3.8008
  842MOL0     H13669   6.294   8.744   6.525  0.1371 -0.9596 -0.3293
  842MOL0     H13670   6.205   8.632   6.421  0.2202 -1.0355 -1.0961
  843MOL0     O13671   0.147   5.292   7.424  0.5434 -0.3323  0.2160
  843MOL0     C13672   0.268   5.290   7.398 -0.4133 -0.7263 -0.2576
  843MOL0     O13673   0.326   5.369   7.294  0.0060  0.4375  0.1826
  843MOL0     C13674   0.258   5.458   7.207  0.0931 -0.5939  0.6195
  843MOL0     C13675   0.335   5.550   7.138 -0.0077  0.0638  0.5742
  843MOL0     C13676   0.281   5.653   7.050  0.0490  0.0084 -2.1813
  843MOL0     C13677   0.145   5.665   7.049  0.1114  0.2763 -0.0038
  843MOL0     O13678   0.082   5.751   6.958 -0.6393  0.1474 -0.4537
  843MOL0     C13679   0.158   5.867   6.924 -1.1593 -0.0295 -0.9599
  843MOL0     C13680   0.082   5.973   6.849 -0.7285 -1.1639  0.6392
  843MOL0     C13681   0.023   5.903   6.723 -0.0408  0.6461  0.2722
  843MOL0     C13682  -0.035   6.015   6.636  0.6947 -0.4739  0.4317
  843MOL0     C13683  -0.055   5.972   6.493  0.5132 -0.2210 -0.2885
  843MOL0     C13684  -0.080   6.089   6.398 -1.0037  0.0078 -0.4693
  843MOL0     C13685  -0.110   6.032   6.262  0.7016 -0.6214  0.7326
  843MOL0     C13686  -0.067   6.127   6.143 -0.0479 -0.5130  0.0354
  843MOL0     N13687   0.079   6.148   6.128  0.5500 -0.0372 -0.1078
  843MOL0     C13688   0.177   6.066   6.069  0.9173 -0.5599  0.6179
  843MOL0     C13689   0.295   6.119   6.102 -1.2572  0.1569  0.4713
  843MOL0     C13690   0.424   6.073   6.052  0.0439  0.7718 -0.1993
  843MOL0     C13691   0.481   5.966   6.139 -0.3464 -0.3005 -0.5128
  843MOL0     C13692   0.621   5.938   6.096 -0.2427 -0.7262 -0.2087
  843MOL0     C13693   0.691   5.820   6.166 -0.2436 -0.5616  0.0146
  843MOL0     O13694   0.679   5.816   6.310 -0.1116  0.2177  0.6908
  843MOL0     C13695   0.756   5.719   6.368  0.1633  1.4014 -0.3993
  843MOL0     C13696   0.850   5.636   6.307  0.0523  0.5121  0.0210
  843MOL0     C13697   0.914   5.539   6.385 -0.0782  0.0852 -0.3484
  843MOL0     C13698   0.883   5.529   6.517  0.8870 -1.0620  0.2715
  843MOL0     C13699   0.948   5.431   6.604  0.1464  0.8485 -0.4242
  843MOL0     O13700   1.031   5.357   6.535  0.3093  0.1540  0.5092
  843MOL0     C13701   1.111   5.260   6.593 -0.1678 -0.4660  0.0024
  843MOL0     C13702   1.233   5.294   6.647  0.6059 -0.3989  1.3610
  843MOL0     C13703   1.330   5.203   6.686  0.1294  0.3814 -0.0144
  843MOL0     C13704   1.290   5.069   6.677  0.1928  0.5834  0.9574
  843MOL0     O13705   1.364   4.964   6.714 -0.5827  0.3643 -0.3773
  843MOL0     C13706   1.494   4.985   6.769 -0.1364  0.8515 -0.1539
  843MOL0     C13707   1.573   4.860   6.797 -0.2653  0.4123  1.4073
  843MOL0     C13708   1.682   4.878   6.906  0.7745 -1.2356 -1.1459
  843MOL0     C13709   1.783   4.775   6.913  0.2882 -0.6839  0.6990
  843MOL0     C13710   1.898   4.810   7.011 -1.0763 -0.9251 -0.7419
  843MOL0     C13711   1.986   4.691   7.044 -0.5332  0.3781 -0.1384
  843MOL0     C13712   2.125   4.721   7.111  0.1600  0.3132 -1.2062
  843MOL0     C13713   2.240   4.622   7.116  0.3778 -0.8207  0.4042
  843MOL0    Cl13714   2.322   4.611   6.959 -0.5314 -0.1377 -0.3453
  843MOL0     C13715   1.163   5.028   6.630  0.4909  0.3076 -0.5536
  843MOL0     C13716   1.070   5.123   6.584 -0.1500 -0.1614  0.1747
  843MOL0     O13717   0.931   5.426   6.728  0.1134  0.5253 -0.5342
  843MOL0     C13718   0.784   5.609   6.583 -0.5231 -0.9494  0.1495
  843MOL0     C13719   0.718   5.704   6.502 -0.0163  0.2120 -0.0289
  843MOL0     N13720   0.275   6.229   6.180  0.3526 -0.0007 -0.0058
  843MOL0     N13721   0.149   6.247   6.183  0.5003  0.3484  0.5056
  843MOL0     C13722   0.062   5.567   7.105 -0.7155 -0.6549  1.0013
  843MOL0     C13723   0.121   5.466   7.184 -0.1248  0.3247 -0.2421
  843MOL0     C13724   0.350   5.183   7.465  0.7128  0.9018 -0.1656
  843MOL0     C13725   0.488   5.163   7.415  0.1369  0.3846  0.0165
  843MOL0     C13726   0.584   5.097   7.483 -0.5042  0.4124 -0.0030
  843MOL0     C13727   0.553   5.034   7.609 -1.1972  0.2439  0.1815
  843MOL0     O13728   0.642   4.981   7.693  0.4736  0.6014  0.1334
  843MOL0     C13729   0.783   5.017   7.689  0.8361  0.1561  0.9440
  843MOL0     C13730   0.844   5.005   7.833  0.1172 -0.2794  0.7956
  843MOL0     C13731   0.918   5.127   7.891 -0.0383 -0.6168  0.1281
  843MOL0     C13732   0.825   5.222   7.960 -0.4802  0.0336 -0.7800
  843MOL0     C13733   0.748   5.296   7.857  0.6445  0.5084  0.4463
  843MOL0     C13734   0.694   5.361   7.776  0.2883 -0.0039  0.1630
  843MOL0     C13735   0.426   5.051   7.655  0.4497 -0.5130 -0.6474
  843MOL0     C13736   0.324   5.121   7.592 -0.2164  0.8744  0.8715
  843MOL0     C13737   0.183   5.113   7.659 -0.1293 -0.2854  1.3895
  843MOL0     H13738   0.439   5.551   7.169  0.2899 -2.4959 -0.1686
  843MOL0     H13739   0.347   5.729   7.007 -1.7300  2.5781 -0.6595
  843MOL0     H13740   0.165   5.919   7.020 -1.4407 -1.5033 -0.1080
  843MOL0     H13741   0.258   5.860   6.879  0.3377 -0.1521  2.1706
  843MOL0     H13742   0.146   6.057   6.823 -3.6106  0.7855 -0.6620
  843MOL0     H13743  -0.001   6.017   6.905  1.1981  4.0889 -0.1148
  843MOL0     H13744  -0.063   5.845   6.758 -0.0927  2.2091  3.0193
  843MOL0     H13745   0.097   5.841   6.672 -0.7631 -0.2259  0.2509
  843MOL0     H13746  -0.132   6.040   6.680 -0.7293 -3.3197 -0.7821
  843MOL0     H13747   0.043   6.091   6.644 -0.2841  0.4537  1.6333
  843MOL0     H13748   0.033   5.918   6.455 -0.4529 -2.2876  0.2906
  843MOL0     H13749  -0.146   5.912   6.495 -1.3890  2.5271 -0.4382
  843MOL0     H13750  -0.160   6.154   6.434 -0.5720  0.8119 -0.9411
  843MOL0     H13751   0.012   6.148   6.393 -0.6398 -0.3582  1.1329
  843MOL0     H13752  -0.218   6.018   6.254  0.8019 -1.0912  0.1139
  843MOL0     H13753  -0.061   5.936   6.242  1.9937 -0.3210  2.2895
  843MOL0     H13754  -0.102   6.098   6.044  2.3423 -0.9206 -0.7638
  843MOL0     H13755  -0.121   6.217   6.174  0.7065 -0.4896  1.3826
  843MOL0     H13756   0.166   5.986   5.997 -3.1113  1.9098 -1.9129
  843MOL0     H13757   0.422   6.037   5.949  1.8402 -0.9435  0.2858
  843MOL0     H13758   0.495   6.155   6.064  0.1294  0.4694  1.7982
  843MOL0     H13759   0.493   6.003   6.242  2.0399  0.3954 -0.9824
  843MOL0     H13760   0.418   5.877   6.136 -0.2332 -0.4052  0.0673
  843MOL0     H13761   0.673   6.033   6.112 -2.3422  0.6402 -1.0568
  843MOL0     H13762   0.611   5.917   5.989 -5.4356  1.7958 -0.5032
  843MOL0     H13763   0.793   5.823   6.125 -0.6507  3.5453 -1.1705
  843MOL0     H13764   0.645   5.727   6.134 -0.6455 -0.4707  0.3270
  843MOL0     H13765   0.873   5.640   6.201 -0.3417 -0.5490 -0.1119
  843MOL0     H13766   0.991   5.474   6.343 -0.4544  1.1461 -2.8545
  843MOL0     H13767   1.251   5.401   6.653 -1.8853  0.4118 -2.1799
  843MOL0     H13768   1.427   5.234   6.722 -0.1442 -2.1928  3.3932
  843MOL0     H13769   1.557   5.048   6.706  0.9793  1.0601  1.1061
  843MOL0     H13770   1.486   5.041   6.863  0.8744 -1.6841  1.5502
  843MOL0     H13771   1.499   4.782   6.819  2.0350 -1.6297  2.3392
  843MOL0     H13772   1.622   4.833   6.704 -0.3665  1.1953  1.1145
  843MOL0     H13773   1.736   4.969   6.877  2.6688 -2.9718 -3.4329
  843MOL0     H13774   1.632   4.897   7.002 -1.8847  1.1946 -2.8597
  843MOL0     H13775   1.819   4.767   6.810  1.1454  1.9281  0.7257
  843MOL0     H13776   1.720   4.689   6.938 -3.0354  0.9547 -1.3335
  843MOL0     H13777   1.855   4.848   7.104  1.7836 -2.5509  1.4315
  843MOL0     H13778   1.951   4.893   6.964 -1.9681  0.9631  1.3987
  843MOL0     H13779   1.930   4.628   7.114  2.6681 -1.0877  1.3396
  843MOL0     H13780   1.999   4.632   6.953  0.9855  1.5317 -0.7068
  843MOL0     H13781   2.100   4.750   7.213  3.1030  0.0878 -0.3298
  843MOL0     H13782   2.159   4.817   7.073  2.6255  0.4337  1.0697
  843MOL0     H13783   2.312   4.661   7.189 -1.2776  0.9586  1.1653
  843MOL0     H13784   2.199   4.524   7.145 -2.3565 -0.1818 -0.9994
  843MOL0     H13785   1.125   4.926   6.644 -1.5264  1.3299  2.7679
  843MOL0     H13786   0.976   5.092   6.541 -0.1865 -0.4504  0.4585
  843MOL0     H13787   0.757   5.601   6.687 -0.4264  2.0556  0.4973
  843MOL0     H13788   0.633   5.757   6.545  0.6906  2.0502 -0.7651
  843MOL0     H13789  -0.044   5.575   7.085 -0.2494 -1.0506 -2.0457
  843MOL0     H13790   0.063   5.385   7.228 -0.7192  0.4382 -0.8115
  843MOL0     H13791   0.508   5.219   7.324 -2.3405  1.4224  0.0341
  843MOL0     H13792   0.682   5.089   7.437  0.0204  2.8285  0.5536
  843MOL0     H13793   0.800   5.118   7.648 -0.5749 -0.2598 -0.8205
  843MOL0     H13794   0.832   4.949   7.618  1.4997  1.7694 -0.2119
  843MOL0     H13795   0.905   4.914   7.836 -1.4688 -1.3999  0.2583
  843MOL0     H13796   0.763   4.981   7.904  1.1401 -2.4036  1.3250
  843MOL0     H13797   0.969   5.182   7.811  0.6395  1.2959  1.8065
  843MOL0     H13798   0.989   5.101   7.970 -0.3584  1.7694  1.2747
  843MOL0     H13799   0.747   5.185   8.028  0.1199  1.2615  0.6550
  843MOL0     H13800   0.880   5.298   8.018  0.9684 -0.2120 -1.7787
  843MOL0     H13801   0.639   5.419   7.704 -1.4836 -0.8447  0.7785
  843MOL0     H13802   0.397   5.001   7.747 -1.1044 -0.6825 -1.1952
  843MOL0     H13803   0.128   5.031   7.612  1.5612  0.2377 -1.7888
  843MOL0     H13804   0.201   5.107   7.767  1.3953  3.7617  1.5542
  843MOL0     H13805   0.125   5.205   7.645 -2.1039 -1.5715  0.7074
  844MOL0     O13806   5.178   0.581   4.676 -0.3442 -0.4298  0.0859
  844MOL0     C13807   5.108   0.627   4.767 -0.8257 -0.0163  0.3062
  844MOL0     O13808   5.103   0.754   4.800 -0.0966 -0.0382  0.3066
  844MOL0     C13809   5.182   0.851   4.755  0.5464 -0.6132  0.9419
  844MOL0     C13810   5.306   0.830   4.697 -0.6431  0.0882 -0.4241
  844MOL0     C13811   5.385   0.936   4.649 -0.7774 -0.7606  0.0517
  844MOL0     C13812   5.334   1.063   4.669 -0.1328  0.1680  0.0425
  844MOL0     O13813   5.399   1.171   4.610  0.1564 -0.1556  0.5376
  844MOL0     C13814   5.418   1.277   4.704  0.4974 -0.0685 -0.2304
  844MOL0     C13815   5.556   1.330   4.697  0.1203 -0.7915 -0.4554
  844MOL0     C13816   5.611   1.392   4.828 -0.8639 -0.5316 -0.0937
  844MOL0     C13817   5.759   1.437   4.806  1.1601  0.3741 -0.5592
  844MOL0     C13818   5.820   1.485   4.936 -0.1984 -0.0175 -0.0334
  844MOL0     C13819   5.782   1.620   4.992  0.3172  0.0567 -0.3934
  844MOL0     C13820   5.836   1.639   5.130 -0.0444 -0.1363  0.1011
  844MOL0     C13821   5.751   1.749   5.201 -0.2060  0.8724  1.0946
  844MOL0     N13822   5.802   1.791   5.331  0.1365  0.2329  0.1134
  844MOL0     C13823   5.753   1.733   5.442 -0.1675 -0.5755 -0.3969
  844MOL0     C13824   5.798   1.812   5.544 -0.1523  1.0230  0.3993
  844MOL0     C13825   5.746   1.788   5.679  0.3229 -0.1072  0.7799
  844MOL0     C13826   5.800   1.668   5.746 -1.1946  0.1295  0.6150
  844MOL0     C13827   5.915   1.711   5.838  0.4541 -0.1426 -0.1298
  844MOL0     C13828   5.864   1.771   5.975  0.2804  0.8662  0.1560
  844MOL0     O13829   5.811   1.659   6.051 -0.0146 -0.5285  0.0044
  844MOL0     C13830   5.899   1.562   6.098  0.0050 -0.5398 -0.0699
  844MOL0     C13831   5.853   1.431   6.137 -0.1709 -0.2683  0.7435
  844MOL0     C13832   5.935   1.340   6.202 -0.5509 -0.0721  0.1667
  844MOL0     C13833   6.066   1.377   6.238 -0.0432 -0.8579  0.7179
  844MOL0     C13834   6.161   1.295   6.316  0.1997 -1.2232 -0.3776
  844MOL0     O13835   6.267   1.367   6.374  0.3130  0.4306 -1.0735
  844MOL0     C13836   6.370   1.300   6.441 -0.7916 -0.1057  0.4474
  844MOL0     C13837   6.405   1.348   6.567 -0.5792  0.2645  0.6222
  844MOL0     C13838   6.493   1.281   6.648  0.2631 -0.1839  0.0170
  844MOL0     C13839   6.566   1.168   6.594 -0.4866  0.2074  0.1471
  844MOL0     O13840   6.651   1.094   6.670 -0.6019  0.2670  0.5978
  844MOL0     C13841   6.617   1.086   6.813 -0.8019  0.1527  0.3967
  844MOL0     C13842   6.730   1.002   6.862  0.0958 -0.3405  0.1075
  844MOL0     C13843   6.711   0.986   7.015 -0.9962 -0.1571  0.8027
  844MOL0     C13844   6.597   0.894   7.049 -0.2270 -0.1510  0.2015
  844MOL0     C13845   6.576   0.850   7.194 -0.1516  0.3229 -0.4547
  844MOL0     C13846   6.459   0.752   7.212 -0.5151  0.3095 -0.6418
  844MOL0     C13847   6.472   0.690   7.353 -0.2856  0.4087 -0.5380
  844MOL0     C13848   6.356   0.598   7.397  0.1026 -0.1379 -0.6091
  844MOL0    Cl13849   6.379   0.493   7.538 -0.3472 -0.0003  0.1292
  844MOL0     C13850   6.530   1.122   6.464  0.6358 -0.5490  0.3607
  844MOL0     C13851   6.424   1.184   6.393  0.4011  0.2251  0.0879
  844MOL0     O13852   6.145   1.179   6.311  0.5217  0.7721 -0.7233
  844MOL0     C13853   6.109   1.507   6.199  0.1809 -0.0656 -0.5286
  844MOL0     C13854   6.030   1.596   6.132  0.3020 -1.0457 -0.0406
  844MOL0     N13855   5.876   1.909   5.496 -0.0166  0.3853 -0.0112
  844MOL0     N13856   5.881   1.894   5.363 -0.6483 -0.9225  0.0932
  844MOL0     C13857   5.210   1.083   4.729  0.2515 -0.6764  0.4226
  844MOL0     C13858   5.133   0.976   4.785 -0.1249 -0.7785 -1.1510
  844MOL0     C13859   5.049   0.522   4.859 -0.1307  0.6581  0.3372
  844MOL0     C13860   5.016   0.565   4.991 -0.4959 -0.6125  0.2581
  844MOL0     C13861   4.952   0.482   5.078 -0.1255 -0.3654  0.5441
  844MOL0     C13862   4.921   0.346   5.041  0.6912  0.4995 -0.7181
  844MOL0     O13863   4.845   0.256   5.110 -0.3749 -0.6072 -0.1640
  844MOL0     C13864   4.779   0.292   5.234 -1.8104  0.1303  1.1821
  844MOL0     C13865   4.713   0.165   5.298  0.7709 -0.9985  0.1368
  844MOL0     C13866   4.601   0.096   5.222  1.0781 -0.7294 -0.5246
  844MOL0     C13867   4.467   0.156   5.239  1.2503 -0.7394  0.1056
  844MOL0     C13868   4.424   0.162   5.373 -0.0055  0.5403 -0.1114
  844MOL0     C13869   4.378   0.153   5.482 -0.3376 -0.5906 -0.4474
  844MOL0     C13870   4.956   0.298   4.914 -0.4250 -0.6300 -0.1464
  844MOL0     C13871   5.025   0.382   4.825  0.3792  0.6122  0.6550
  844MOL0     C13872   5.047   0.309   4.687 -0.7741  0.4997 -0.0665
  844MOL0     H13873   5.341   0.728   4.687 -1.3180 -0.1381 -0.4943
  844MOL0     H13874   5.485   0.925   4.608 -0.7672  4.6467 -2.2128
  844MOL0     H13875   5.346   1.353   4.673 -0.2208 -1.4566 -2.2056
  844MOL0     H13876   5.400   1.259   4.810 -0.1148  0.2820 -0.2674
  844MOL0     H13877   5.550   1.410   4.622 -1.0734  0.3357  0.7745
  844MOL0     H13878   5.621   1.252   4.657 -3.1868 -4.0138 -0.0348
  844MOL0     H13879   5.613   1.311   4.902  2.8306 -1.7464 -1.2847
  844MOL0     H13880   5.554   1.475   4.870  0.3027  0.2786 -0.0361
  844MOL0     H13881   5.815   1.349   4.770  3.4131  0.1172  3.0673
  844MOL0     H13882   5.753   1.519   4.734  0.8156  2.2322  1.4854
  844MOL0     H13883   5.796   1.410   5.012  1.5964  0.3588  0.9425
  844MOL0     H13884   5.928   1.489   4.921 -0.1172  0.8210  0.7296
  844MOL0     H13885   5.822   1.696   4.924 -0.3106  2.4649  1.7701
  844MOL0     H13886   5.673   1.628   4.988  0.2556 -1.0911 -1.7665
  844MOL0     H13887   5.942   1.663   5.133  0.1361 -0.9755  0.8939
  844MOL0     H13888   5.818   1.548   5.188 -2.6063  1.7947  2.6710
  844MOL0     H13889   5.730   1.833   5.134 -1.1632 -2.1666 -2.8038
  844MOL0     H13890   5.648   1.713   5.201 -0.7834  2.2969 -1.2325
  844MOL0     H13891   5.680   1.652   5.445  2.2469 -2.9280  2.5146
  844MOL0     H13892   5.762   1.882   5.732 -1.9201  2.3415 -2.4511
  844MOL0     H13893   5.640   1.766   5.663  0.1043 -0.1287  2.1955
  844MOL0     H13894   5.720   1.613   5.797 -1.4222  0.6219  0.7961
  844MOL0     H13895   5.831   1.599   5.667 -0.6278 -0.8905  1.7130
  844MOL0     H13896   5.982   1.779   5.784 -0.1351 -0.1456 -0.8666
  844MOL0     H13897   5.979   1.626   5.865  2.4040  2.1499  3.2856
  844MOL0     H13898   5.783   1.842   5.955 -0.9542  0.1285  2.2609
  844MOL0     H13899   5.944   1.831   6.017 -0.5420  1.3995  1.0022
  844MOL0     H13900   5.747   1.426   6.113 -0.1641  2.0517 -0.1135
  844MOL0     H13901   5.897   1.244   6.237  0.7574  0.1190  2.3279
  844MOL0     H13902   6.358   1.442   6.593 -0.4376 -0.4540  3.9132
  844MOL0     H13903   6.512   1.325   6.746 -1.6276  1.1227 -0.1468
  844MOL0     H13904   6.620   1.188   6.854  1.1174 -0.1537  1.1332
  844MOL0     H13905   6.526   1.028   6.825  0.4507 -1.7733  1.0379
  844MOL0     H13906   6.726   0.907   6.809  1.6413  1.3539 -3.3503
  844MOL0     H13907   6.831   1.037   6.839  0.6044 -0.5788  1.8361
  844MOL0     H13908   6.797   0.935   7.060  0.5446  2.5250  1.1044
  844MOL0     H13909   6.697   1.081   7.066  2.8366  0.6437  0.6419
  844MOL0     H13910   6.592   0.807   6.983  0.7058  0.0942 -0.2080
  844MOL0     H13911   6.506   0.950   7.028  1.2644  3.4781  2.3730
  844MOL0     H13912   6.562   0.935   7.261  0.2952  2.1510 -2.5681
  844MOL0     H13913   6.667   0.799   7.227 -1.3940 -1.0882  0.9535
  844MOL0     H13914   6.363   0.802   7.202 -1.4734 -0.9715  1.4387
  844MOL0     H13915   6.481   0.676   7.137  2.5172  1.1530 -0.7333
  844MOL0     H13916   6.480   0.765   7.433  0.9312 -1.2935  1.0278
  844MOL0     H13917   6.564   0.631   7.355 -0.0541  0.7592 -0.7633
  844MOL0     H13918   6.269   0.663   7.412 -0.7283 -1.9053  3.9025
  844MOL0     H13919   6.314   0.539   7.316 -0.1102 -1.8958  0.7296
  844MOL0     H13920   6.570   1.027   6.428 -0.9097 -0.5973 -1.3909
  844MOL0     H13921   6.380   1.129   6.311 -0.2429 -2.4754  2.1048
  844MOL0     H13922   6.210   1.528   6.232  0.4045 -1.5071 -0.2329
  844MOL0     H13923   6.072   1.695   6.113  3.6408 -2.4537 -0.8202
  844MOL0     H13924   5.181   1.185   4.751 -1.9453 -1.3015  0.7334
  844MOL0     H13925   5.046   0.996   4.845  0.3150 -0.0246 -0.7532
  844MOL0     H13926   5.041   0.664   5.028  0.0409 -0.2232 -1.0862
  844MOL0     H13927   4.924   0.514   5.178 -1.8743 -3.1678  1.0611
  844MOL0     H13928   4.718   0.380   5.213 -3.0556 -0.5013  2.0729
  844MOL0     H13929   4.860   0.328   5.298  2.7534 -2.3663 -2.4657
  844MOL0     H13930   4.686   0.201   5.398  1.8254 -1.2354  0.5166
  844MOL0     H13931   4.793   0.093   5.318  0.5857 -0.9917  0.9480
  844MOL0     H13932   4.596  -0.013   5.238 -0.5595 -0.4926  0.8580
  844MOL0     H13933   4.623   0.112   5.116 -1.3490  0.0080 -0.9852
  844MOL0     H13934   4.446   0.253   5.192 -2.6388 -0.4741  1.9633
  844MOL0     H13935   4.398   0.085   5.191 -2.4181  2.5470  0.0241
  844MOL0     H13936   4.337   0.135   5.579 -1.7122  0.2367 -0.8499
  844MOL0     H13937   4.929   0.198   4.882  0.0838 -0.8324  0.0610
  844MOL0     H13938   5.129   0.237   4.703 -0.4023  1.0862  0.7231
  844MOL0     H13939   4.954   0.262   4.654 -1.0001  0.8135  0.1238
  844MOL0     H13940   5.072   0.373   4.603 -0.5593  0.0910 -0.3187
  845MOL0     O13941   5.264   8.051   5.554  0.0121 -0.4501 -0.0784
  845MOL0     C13942   5.383   8.080   5.580  0.3559 -0.6244  0.1258
  845MOL0     O13943   5.428   8.098   5.716  0.3491  0.2476  0.2771
  845MOL0     C13944   5.343   8.118   5.823 -0.2177  0.1725 -0.2401
  845MOL0     C13945   5.379   8.212   5.928  0.6436  0.1219  0.4246
  845MOL0     C13946   5.289   8.240   6.031 -0.2687  0.3951 -0.2000
  845MOL0     C13947   5.169   8.178   6.043  0.8183 -0.3276 -0.1417
  845MOL0     O13948   5.079   8.198   6.140  0.1258 -0.3959  0.2933
  845MOL0     C13949   5.118   8.241   6.268  0.1116  0.4934 -0.8513
  845MOL0     C13950   5.003   8.288   6.363  0.3626 -0.0499 -0.9665
  845MOL0     C13951   4.918   8.177   6.423 -0.6393  0.3210 -0.3296
  845MOL0     C13952   4.795   8.234   6.498  0.7884  0.2347 -0.1349
  845MOL0     C13953   4.712   8.109   6.542  0.3202 -0.9317  0.2264
  845MOL0     C13954   4.632   8.148   6.664  0.7182 -0.2565 -0.1212
  845MOL0     C13955   4.499   8.064   6.682  0.3377  0.1475 -0.4132
  845MOL0     C13956   4.514   7.916   6.680  0.7920  0.2741 -0.4793
  845MOL0     N13957   4.375   7.859   6.699 -0.4023 -0.2759  0.2018
  845MOL0     C13958   4.296   7.866   6.813  0.3098 -0.6200 -0.4733
  845MOL0     C13959   4.185   7.802   6.775 -0.6936 -0.9440 -0.1811
  845MOL0     C13960   4.054   7.820   6.849 -1.3780  0.9066  0.1353
  845MOL0     C13961   3.928   7.830   6.754  0.7510  0.2314 -1.0893
  845MOL0     C13962   3.928   7.949   6.656  0.5006  0.8189 -0.2326
  845MOL0     C13963   3.885   8.081   6.714 -0.5650 -0.5664 -0.3481
  845MOL0     O13964   3.896   8.172   6.607 -0.4686 -0.8420  0.3797
  845MOL0     C13965   3.888   8.302   6.656 -0.5685 -0.6001  0.0655
  845MOL0     C13966   4.009   8.373   6.671 -0.4050  0.1742 -0.3841
  845MOL0     C13967   3.996   8.511   6.725 -0.6050  0.5264 -0.0229
  845MOL0     C13968   3.883   8.571   6.770  0.4156  0.1653  0.1323
  845MOL0     C13969   3.882   8.708   6.846 -0.6712  0.3798 -0.1186
  845MOL0     O13970   3.763   8.753   6.864 -0.5027 -0.1795 -0.6121
  845MOL0     C13971   3.741   8.877   6.910 -0.4350 -0.8955  0.7216
  845MOL0     C13972   3.823   8.985   6.883 -0.8616 -1.1296 -1.6613
  845MOL0     C13973   3.796   9.107   6.948  0.4716 -0.5224  0.6484
  845MOL0     C13974   3.675   9.128   7.022 -0.4514  1.6882  0.3923
  845MOL0     O13975   3.633   9.254   7.054  0.0874 -0.0193 -0.3281
  845MOL0     C13976   3.536   9.278   7.161 -0.0443  1.2428  0.0438
  845MOL0     C13977   3.536   9.426   7.196  0.4706  0.0818  0.0856
  845MOL0     C13978   3.396   9.480   7.241 -0.5563 -0.6025 -0.6556
  845MOL0     C13979   3.428   9.612   7.325  0.2442  0.6597 -0.4814
  845MOL0     C13980   3.304   9.696   7.354 -0.3432  0.4776 -0.3994
  845MOL0     C13981   3.333   9.811   7.456 -0.2770 -0.5071  0.3435
  845MOL0     C13982   3.192   9.902   7.460 -0.5367  0.7507 -0.7375
  845MOL0     C13983   3.191  10.034   7.536  0.6055  0.0943 -0.3338
  845MOL0    Cl13984   3.083  10.153   7.451 -0.3153 -0.7515  0.2936
  845MOL0     C13985   3.598   9.014   7.049 -1.2787 -0.2077  0.9696
  845MOL0     C13986   3.628   8.896   6.985 -0.1960  0.5698  1.3981
  845MOL0     O13987   3.987   8.758   6.888  0.2984 -0.1003 -0.3296
  845MOL0     C13988   3.768   8.497   6.751  0.5997  0.1584 -0.5115
  845MOL0     C13989   3.769   8.362   6.695  0.1806  0.1632  0.1637
  845MOL0     N13990   4.205   7.748   6.649  0.1066 -0.3702 -0.0435
  845MOL0     N13991   4.320   7.786   6.608  0.1148 -0.4760 -0.0776
  845MOL0     C13992   5.139   8.079   5.950  0.0402 -0.3703 -0.6269
  845MOL0     C13993   5.222   8.047   5.846  0.6908 -0.3862 -0.0073
  845MOL0     C13994   5.490   8.097   5.482 -0.2423 -0.2713  1.1949
  845MOL0     C13995   5.464   8.044   5.351  0.3778  0.0658 -0.9133
  845MOL0     C13996   5.562   8.051   5.261 -0.5478  0.5421 -0.0580
  845MOL0     C13997   5.693   8.090   5.284 -0.0821 -0.5908 -0.4842
  845MOL0     O13998   5.800   8.084   5.203  0.7363 -0.8535 -0.5556
  845MOL0     C13999   5.788   8.020   5.083  0.6506  0.2663 -1.0015
  845MOL0     C14000   5.920   7.949   5.063 -0.1299 -0.6474 -0.3141
  845MOL0     C14001   5.972   7.865   5.182  0.6795  0.2586 -0.1453
  845MOL0     C14002   6.081   7.763   5.143  0.3398  0.1824  0.6144
  845MOL0     C14003   6.199   7.827   5.080  0.1714 -0.3891  0.2646
  845MOL0     C14004   6.286   7.878   5.015  0.4441 -0.0403  0.2108
  845MOL0     C14005   5.721   8.124   5.411 -0.0906 -0.1491  0.1989
  845MOL0     C14006   5.625   8.137   5.512  0.3550 -0.1424  0.6044
  845MOL0     C14007   5.671   8.203   5.648 -0.1589  0.1065 -0.7314
  845MOL0     H14008   5.464   8.279   5.925 -1.0324  2.4329  1.3376
  845MOL0     H14009   5.334   8.296   6.112 -0.9065 -4.1849  3.8080
  845MOL0     H14010   5.176   8.154   6.301 -2.1632 -0.4915  0.8124
  845MOL0     H14011   5.179   8.329   6.249  3.1934 -1.1159  0.7293
  845MOL0     H14012   4.935   8.356   6.311 -0.8930  1.2303  2.1402
  845MOL0     H14013   5.047   8.338   6.450 -0.4593 -1.0167  0.0357
  845MOL0     H14014   4.976   8.115   6.492 -0.3258  1.5928  0.6013
  845MOL0     H14015   4.880   8.107   6.348  0.1244 -3.0772  2.1915
  845MOL0     H14016   4.832   8.296   6.580  0.2650  0.9517 -0.4240
  845MOL0     H14017   4.730   8.299   6.437 -1.0125 -0.9830  0.3905
  845MOL0     H14018   4.641   8.075   6.466  3.0494 -0.6733 -2.6139
  845MOL0     H14019   4.773   8.025   6.576  2.2245  0.8768  1.5335
  845MOL0     H14020   4.692   8.140   6.755 -0.5734 -0.6448  0.7406
  845MOL0     H14021   4.596   8.251   6.657 -2.6319 -1.2458  0.7030
  845MOL0     H14022   4.441   8.085   6.591 -2.7083 -0.2855  1.2856
  845MOL0     H14023   4.437   8.102   6.764  0.0046 -2.2645  0.5411
  845MOL0     H14024   4.563   7.882   6.588  1.7326 -0.4188  0.2611
  845MOL0     H14025   4.581   7.877   6.757  3.8132  0.5004 -2.8264
  845MOL0     H14026   4.314   7.936   6.894  2.8260 -1.5065 -0.1602
  845MOL0     H14027   4.040   7.726   6.902 -0.7132  0.0383 -1.1781
  845MOL0     H14028   4.061   7.911   6.910  0.7828  3.4437 -3.4724
  845MOL0     H14029   3.913   7.738   6.697  0.1691  1.2648 -2.6849
  845MOL0     H14030   3.839   7.833   6.817  0.9952  0.2656 -0.7466
  845MOL0     H14031   3.858   7.922   6.576  2.5057 -2.6605 -1.0139
  845MOL0     H14032   4.029   7.954   6.615  0.8519  2.4835  0.7585
  845MOL0     H14033   3.939   8.119   6.801 -0.1959  2.5436 -1.8124
  845MOL0     H14034   3.781   8.071   6.746  0.3013 -1.4657  2.4674
  845MOL0     H14035   4.102   8.319   6.656 -1.3801 -1.7158  0.1154
  845MOL0     H14036   4.092   8.554   6.751 -0.7528 -1.2922  4.2703
  845MOL0     H14037   3.910   8.984   6.819 -2.2959  2.1754 -3.9124
  845MOL0     H14038   3.862   9.188   6.917 -1.1352  0.5497 -0.1063
  845MOL0     H14039   3.437   9.250   7.122 -0.6622  1.4992  1.3601
  845MOL0     H14040   3.545   9.225   7.256  0.0791 -0.7017 -0.9991
  845MOL0     H14041   3.609   9.432   7.277 -0.1878  1.5173  0.6225
  845MOL0     H14042   3.574   9.496   7.120  2.0034  2.9369  3.2186
  845MOL0     H14043   3.339   9.501   7.149 -1.1944  2.1444  0.2688
  845MOL0     H14044   3.353   9.403   7.305 -0.1653  0.7362  1.2838
  845MOL0     H14045   3.510   9.664   7.275 -1.2938  1.1308 -2.6172
  845MOL0     H14046   3.466   9.580   7.423  0.2990  1.5086 -0.2170
  845MOL0     H14047   3.243   9.631   7.417  0.0751  0.8645  0.4380
  845MOL0     H14048   3.244   9.734   7.271 -0.8520  0.9629  0.1784
  845MOL0     H14049   3.368   9.777   7.554 -0.4156 -0.5917  0.3646
  845MOL0     H14050   3.409   9.881   7.419  1.0148 -2.3158 -0.5821
  845MOL0     H14051   3.110   9.843   7.502 -0.9494  1.9088  0.1165
  845MOL0     H14052   3.173   9.922   7.354  2.2694 -0.1722 -1.5214
  845MOL0     H14053   3.155  10.020   7.638 -1.2079  4.1045 -0.2242
  845MOL0     H14054   3.287  10.087   7.537  0.2160  0.8312  0.8864
  845MOL0     H14055   3.503   9.025   7.098 -0.1610  1.4872  2.8924
  845MOL0     H14056   3.565   8.811   7.011  2.4564 -1.7678  0.6434
  845MOL0     H14057   3.677   8.545   6.785 -0.0652 -0.2723 -1.6150
  845MOL0     H14058   3.677   8.311   6.670  1.0318 -0.6803 -1.4038
  845MOL0     H14059   5.045   8.025   5.953  0.2023 -0.6995 -1.3510
  845MOL0     H14060   5.186   7.964   5.785 -1.4120  0.0920  0.5043
  845MOL0     H14061   5.366   8.011   5.318  0.0267  0.9155 -0.7627
  845MOL0     H14062   5.536   8.021   5.159 -2.1329 -3.9005  1.4153
  845MOL0     H14063   5.757   8.092   5.006 -0.2485 -0.2680 -1.1608
  845MOL0     H14064   5.707   7.947   5.095 -1.0329  2.3966  1.9173
  845MOL0     H14065   5.994   8.023   5.032  0.9145 -1.9654 -1.0589
  845MOL0     H14066   5.899   7.893   4.971  2.6700  0.4041 -1.7117
  845MOL0     H14067   5.887   7.808   5.220  2.1075 -3.4598 -2.0958
  845MOL0     H14068   6.011   7.934   5.258  0.9716  0.8598 -0.8308
  845MOL0     H14069   6.122   7.704   5.226  1.2690  0.5320  0.4199
  845MOL0     H14070   6.027   7.698   5.074 -0.8212  2.0729 -0.3212
  845MOL0     H14071   6.381   7.918   4.985 -0.0527 -0.7080 -2.4741
  845MOL0     H14072   5.821   8.160   5.433  0.7759 -2.8643  1.2510
  845MOL0     H14073   5.689   8.118   5.715  1.7035  0.8753 -0.1938
  845MOL0     H14074   5.754   8.273   5.634 -1.6926  2.4338  0.8922
  845MOL0     H14075   5.595   8.268   5.693 -0.2010 -1.5974  1.8674
  846MOL0     O14076  10.908   6.507   7.828 -1.2337 -0.7585 -0.1073
  846MOL0     C14077  10.857   6.400   7.844 -0.4996  1.2355  0.3118
  846MOL0     O14078  10.736   6.349   7.804 -0.1273 -0.1038 -0.5979
  846MOL0     C14079  10.648   6.446   7.797  0.9672  0.1715 -0.2528
  846MOL0     C14080  10.535   6.442   7.877 -0.0139  0.8957  0.2235
  846MOL0     C14081  10.434   6.544   7.868 -0.4007  0.4532 -1.0605
  846MOL0     C14082  10.459   6.662   7.786  0.5971 -0.3510 -0.1799
  846MOL0     O14083  10.376   6.775   7.797  0.3928  0.0037 -0.7489
  846MOL0     C14084  10.237   6.765   7.828  0.8977  0.4567 -0.1843
  846MOL0     C14085  10.211   6.886   7.923 -0.0867  0.1940  0.4882
  846MOL0     C14086  10.068   6.931   7.943  0.3560 -0.3184 -0.0916
  846MOL0     C14087  10.063   7.059   8.021 -0.2128  0.5198 -0.2527
  846MOL0     C14088   9.916   7.086   8.049 -0.6144  0.6998  0.1381
  846MOL0     C14089   9.907   7.206   8.140  0.4623  0.0749 -0.7799
  846MOL0     C14090   9.758   7.253   8.154 -0.3530  0.8140  0.5373
  846MOL0     C14091   9.765   7.400   8.200 -0.1665  0.7268  0.1678
  846MOL0     N14092   9.793   7.487   8.084  0.1271  0.7975  0.3771
  846MOL0     C14093   9.727   7.487   7.967 -0.8164 -0.4866 -0.1167
  846MOL0     C14094   9.776   7.600   7.905 -0.5698  1.0921  1.1022
  846MOL0     C14095   9.728   7.640   7.760  0.3449 -0.5873 -0.4425
  846MOL0     C14096   9.790   7.544   7.654 -0.1358 -0.7968 -0.1499
  846MOL0     C14097   9.762   7.592   7.503 -0.6825  0.4581  0.1821
  846MOL0     C14098   9.806   7.486   7.399 -0.9603  0.3523 -0.1143
  846MOL0     O14099   9.853   7.561   7.286 -0.6699 -0.1121 -0.1112
  846MOL0     C14100   9.984   7.540   7.236 -0.3554 -0.0573 -0.5086
  846MOL0     C14101  10.088   7.455   7.275  0.2424  0.8110  0.5871
  846MOL0     C14102  10.207   7.451   7.204  0.9577 -0.1824 -0.4610
  846MOL0     C14103  10.227   7.508   7.083 -0.5603 -0.7137  0.3747
  846MOL0     C14104  10.349   7.500   7.007  0.6314  0.1249  0.4678
  846MOL0     O14105  10.376   7.590   6.912  0.2306 -0.0254  0.1595
  846MOL0     C14106  10.428   7.552   6.794  0.9507  0.3450 -0.4654
  846MOL0     C14107  10.536   7.618   6.748 -0.2763  0.1519  0.5863
  846MOL0     C14108  10.595   7.576   6.633 -0.0715  0.4010 -0.1617
  846MOL0     C14109  10.534   7.474   6.563 -0.3026  0.0564 -0.8314
  846MOL0     O14110  10.582   7.418   6.447 -0.3174 -0.6729  0.1369
  846MOL0     C14111  10.716   7.454   6.411  0.0320 -1.1126  0.8312
  846MOL0     C14112  10.750   7.383   6.282  0.3344 -0.7275 -0.7322
  846MOL0     C14113  10.903   7.403   6.245 -0.6896 -0.6559 -0.8277
  846MOL0     C14114  10.922   7.391   6.099  0.2525 -0.5230 -0.0148
  846MOL0     C14115  11.075   7.364   6.057 -0.0047 -0.2523 -0.3211
  846MOL0     C14116  11.177   7.473   6.100  0.1268  0.0823  0.1627
  846MOL0     C14117  11.312   7.470   6.024 -0.1080  0.4727 -0.4874
  846MOL0     C14118  11.403   7.347   6.056  1.1188  0.1470  0.8050
  846MOL0    Cl14119  11.545   7.356   5.955 -0.2386  0.1686  0.0954
  846MOL0     C14120  10.416   7.410   6.606 -0.4607 -0.0204 -0.2591
  846MOL0     C14121  10.358   7.453   6.723  0.7064  0.1436  0.5714
  846MOL0     O14122  10.403   7.398   7.021  0.1013  0.9142 -0.3747
  846MOL0     C14123  10.121   7.594   7.041  0.4329 -0.1369 -0.3172
  846MOL0     C14124  10.004   7.613   7.115 -0.2067 -0.3222 -0.2949
  846MOL0     N14125   9.869   7.662   7.984  0.7377  0.5710 -0.6698
  846MOL0     N14126   9.882   7.588   8.089  0.6248  0.0869 -0.1426
  846MOL0     C14127  10.575   6.664   7.707  0.0261  0.1267 -0.3114
  846MOL0     C14128  10.665   6.562   7.717  0.0349  0.4087  0.1110
  846MOL0     C14129  10.953   6.297   7.900  0.7991  0.3204 -0.3523
  846MOL0     C14130  10.901   6.182   7.959 -0.0094  0.1530  0.1699
  846MOL0     C14131  10.978   6.080   8.009 -0.8233 -0.1702 -0.3037
  846MOL0     C14132  11.112   6.073   7.994 -0.1603 -0.4282 -0.7364
  846MOL0     O14133  11.176   5.973   8.045  0.1273 -0.2494  0.0305
  846MOL0     C14134  11.256   5.900   7.954 -0.7965 -0.1893 -0.5077
  846MOL0     C14135  11.253   5.752   8.010  0.5590 -0.0984  0.6596
  846MOL0     C14136  11.356   5.723   8.124 -0.0285 -0.5925 -0.6093
  846MOL0     C14137  11.368   5.574   8.145  0.5515 -0.3451  0.1479
  846MOL0     C14138  11.504   5.529   8.200  0.1557  0.0173 -0.4677
  846MOL0     C14139  11.616   5.502   8.241 -0.0700 -0.8734  0.6045
  846MOL0     C14140  11.175   6.183   7.942  0.7020 -0.1704  0.5096
  846MOL0     C14141  11.099   6.297   7.892 -0.1599  0.2940 -0.3980
  846MOL0     C14142  11.184   6.411   7.834  0.4549 -0.8276  0.3674
  846MOL0     H14143  10.523   6.373   7.959  2.8911  2.7218  2.3678
  846MOL0     H14144  10.356   6.538   7.943  1.1021 -1.9187  0.4416
  846MOL0     H14145  10.180   6.777   7.735  3.8558 -0.0859 -2.2189
  846MOL0     H14146  10.211   6.672   7.879 -1.2101  1.5861  0.8946
  846MOL0     H14147  10.275   6.969   7.891 -0.4385  0.0260 -0.7076
  846MOL0     H14148  10.243   6.870   8.026 -1.1343  0.9606  0.9543
  846MOL0     H14149  10.013   6.848   7.989 -0.0728 -2.0420 -3.3932
  846MOL0     H14150  10.019   6.956   7.848 -3.9409  2.1715  2.4373
  846MOL0     H14151  10.122   7.066   8.113 -3.3909 -0.3088  2.0075
  846MOL0     H14152  10.115   7.126   7.952  0.3178 -0.0324 -0.4039
  846MOL0     H14153   9.870   7.115   7.954  0.3592 -0.2870 -0.6550
  846MOL0     H14154   9.860   7.002   8.090  1.7811 -1.0211  0.0542
  846MOL0     H14155   9.949   7.203   8.241 -0.6721  6.9506  0.4060
  846MOL0     H14156   9.972   7.288   8.107 -1.5190  2.3703  0.6913
  846MOL0     H14157   9.709   7.203   8.238  3.2681 -0.4281  2.0739
  846MOL0     H14158   9.697   7.232   8.065  0.3161  1.4055 -0.0737
  846MOL0     H14159   9.675   7.441   8.245 -1.3532  0.6362 -1.9983
  846MOL0     H14160   9.850   7.415   8.267 -1.3252  2.0156  1.4094
  846MOL0     H14161   9.671   7.403   7.926 -1.1506 -1.4410  2.1808
  846MOL0     H14162   9.620   7.654   7.745  0.3615 -1.6556 -1.7355
  846MOL0     H14163   9.765   7.739   7.731 -0.9998 -0.2510 -1.1381
  846MOL0     H14164   9.898   7.546   7.672  0.3982  2.0792 -2.7629
  846MOL0     H14165   9.744   7.445   7.660  0.5295 -1.1231 -0.3091
  846MOL0     H14166   9.818   7.685   7.487 -1.7015  1.0507 -0.0387
  846MOL0     H14167   9.655   7.615   7.493 -1.9359 -3.6806  1.9048
  846MOL0     H14168   9.730   7.415   7.366 -2.3568  1.4727  0.5943
  846MOL0     H14169   9.885   7.433   7.454  0.3860  0.0031 -2.2853
  846MOL0     H14170  10.072   7.402   7.368 -0.5691 -0.7481 -0.3950
  846MOL0     H14171  10.279   7.401   7.268 -2.5329 -1.2336  3.0547
  846MOL0     H14172  10.571   7.695   6.816 -1.5401  0.3652  1.0145
  846MOL0     H14173  10.690   7.620   6.603 -0.0757  0.3030 -0.3203
  846MOL0     H14174  10.730   7.561   6.393 -2.8438 -0.8190 -0.1921
  846MOL0     H14175  10.793   7.436   6.486  3.9179  2.3708 -1.8401
  846MOL0     H14176  10.734   7.276   6.300 -0.6370 -0.2859  1.3477
  846MOL0     H14177  10.678   7.404   6.203 -0.7320 -0.7811  0.1994
  846MOL0     H14178  10.942   7.499   6.278  1.3932 -1.6966 -0.0570
  846MOL0     H14179  10.970   7.331   6.293 -0.0182  0.7273  0.3874
  846MOL0     H14180  10.885   7.486   6.060  0.1317 -1.2630 -1.8095
  846MOL0     H14181  10.856   7.321   6.046 -0.5007  1.3644 -1.6829
  846MOL0     H14182  11.074   7.364   5.948 -2.0840 -1.6988 -0.3611
  846MOL0     H14183  11.110   7.265   6.090  1.2586  0.4771  0.6327
  846MOL0     H14184  11.145   7.578   6.100 -2.0517 -0.5185 -0.1186
  846MOL0     H14185  11.199   7.444   6.203  0.7155 -0.9874 -0.2480
  846MOL0     H14186  11.363   7.559   6.064 -1.2744  1.5203 -1.2593
  846MOL0     H14187  11.296   7.483   5.916  2.6742  1.1244 -0.9117
  846MOL0     H14188  11.433   7.345   6.161  0.6753 -0.1048  0.9281
  846MOL0     H14189  11.343   7.257   6.041 -0.1377  0.5773  2.8877
  846MOL0     H14190  10.373   7.334   6.542 -0.6475  1.0033 -1.3756
  846MOL0     H14191  10.277   7.392   6.761  1.9214 -2.4028 -0.7170
  846MOL0     H14192  10.141   7.645   6.947  2.5061  0.3632  0.3424
  846MOL0     H14193   9.929   7.680   7.075 -2.5933 -3.8455 -2.2733
  846MOL0     H14194  10.601   6.744   7.638  0.2889 -0.4587 -0.9123
  846MOL0     H14195  10.745   6.573   7.645  1.9859  1.3243  2.3177
  846MOL0     H14196  10.794   6.165   7.964  0.1902 -2.9051 -2.6521
  846MOL0     H14197  10.937   5.994   8.062 -0.4958 -0.8147 -1.0728
  846MOL0     H14198  11.353   5.951   7.956  0.3349 -2.2454  1.8231
  846MOL0     H14199  11.216   5.900   7.852 -1.0144  0.7642 -0.4315
  846MOL0     H14200  11.295   5.700   7.923  1.1555  1.3863  0.0225
  846MOL0     H14201  11.153   5.710   8.025  0.9282 -1.3433 -0.2155
  846MOL0     H14202  11.336   5.766   8.223 -0.0651 -1.4979 -0.2135
  846MOL0     H14203  11.456   5.759   8.099  1.7867 -3.0414  2.3581
  846MOL0     H14204  11.287   5.537   8.209 -2.3359  2.2130 -1.7203
  846MOL0     H14205  11.359   5.532   8.044 -0.6116 -2.7504  1.1528
  846MOL0     H14206  11.717   5.470   8.251 -0.1626 -0.8268  1.7761
  846MOL0     H14207  11.282   6.185   7.929  0.6264  0.9814 -0.0533
  846MOL0     H14208  11.144   6.425   7.733 -2.1584 -3.7288  0.8275
  846MOL0     H14209  11.158   6.501   7.888 -1.6426 -0.5532 -0.9710
  846MOL0     H14210  11.292   6.396   7.838  0.6206 -0.0361 -0.6864
  847MOL0     O14211   3.713   4.696   9.067  0.0726  1.0387  0.2583
  847MOL0     C14212   3.725   4.574   9.078 -0.1993 -0.5113 -0.0738
  847MOL0     O14213   3.622   4.478   9.065 -0.1105  0.7141 -0.5336
  847MOL0     C14214   3.488   4.507   9.056 -0.8353  1.6072  0.3752
  847MOL0     C14215   3.429   4.627   9.070  0.2472 -0.0508 -0.4177
  847MOL0     C14216   3.288   4.621   9.056  0.1891  0.1176  0.5258
  847MOL0     C14217   3.209   4.515   9.024  0.6587 -0.8712  0.0975
  847MOL0     O14218   3.072   4.523   9.022  0.8850 -0.1000 -0.0149
  847MOL0     C14219   3.001   4.623   9.103 -0.2401 -0.2469  0.6269
  847MOL0     C14220   2.852   4.592   9.115 -0.0982 -0.3115 -0.4343
  847MOL0     C14221   2.768   4.664   9.008 -0.8972 -0.0198 -0.5361
  847MOL0     C14222   2.616   4.635   9.015  0.1214  0.2190  0.9916
  847MOL0     C14223   2.525   4.706   8.922  0.2413 -0.5819  0.4375
  847MOL0     C14224   2.374   4.690   8.939  1.0341  0.4586 -0.6840
  847MOL0     C14225   2.312   4.569   8.886 -0.6604  0.4454  0.3260
  847MOL0     C14226   2.162   4.595   8.869 -0.8127 -0.3987  0.1119
  847MOL0     N14227   2.089   4.502   8.775 -0.2732  0.5092 -0.1993
  847MOL0     C14228   2.104   4.374   8.780 -0.0143  0.1032  0.0938
  847MOL0     C14229   2.040   4.326   8.674  0.4743 -0.4209  0.7748
  847MOL0     C14230   2.036   4.182   8.643  0.4509 -0.9642 -0.0517
  847MOL0     C14231   2.156   4.131   8.565  0.6460 -0.3893 -0.3368
  847MOL0     C14232   2.179   4.187   8.426  0.2599  0.6267 -0.1272
  847MOL0     C14233   2.297   4.114   8.355  0.2075 -0.2964 -0.7825
  847MOL0     O14234   2.342   4.193   8.244  0.2740 -0.3288  0.2653
  847MOL0     C14235   2.460   4.268   8.260 -0.1346 -0.3990 -0.2595
  847MOL0     C14236   2.461   4.375   8.348  0.5531 -0.4036  0.2843
  847MOL0     C14237   2.583   4.441   8.377 -0.6261  0.4740 -0.1163
  847MOL0     C14238   2.702   4.402   8.321 -0.6439 -0.5726  0.3387
  847MOL0     C14239   2.827   4.480   8.347  0.5137 -0.5421 -0.2228
  847MOL0     O14240   2.824   4.577   8.441 -0.5715  0.2800  0.0816
  847MOL0     C14241   2.927   4.653   8.484  0.9166  0.3740 -0.5085
  847MOL0     C14242   2.910   4.696   8.615 -0.9964  0.8391  0.5301
  847MOL0     C14243   3.014   4.764   8.672 -0.2949 -0.0092  0.3239
  847MOL0     C14244   3.140   4.771   8.607 -0.1774  0.3787 -0.0919
  847MOL0     O14245   3.245   4.845   8.661 -0.5983  0.1816 -1.2035
  847MOL0     C14246   3.292   4.812   8.790  0.6100 -0.4215  0.6225
  847MOL0     C14247   3.386   4.919   8.837  0.7933  0.2897 -0.2806
  847MOL0     C14248   3.503   4.945   8.739 -0.0517  0.5643  1.2703
  847MOL0     C14249   3.619   4.831   8.745 -0.3155  0.1992  0.4065
  847MOL0     C14250   3.727   4.883   8.648 -0.2222 -0.9295  0.4075
  847MOL0     C14251   3.864   4.814   8.660  0.7630  0.0138  0.4648
  847MOL0     C14252   3.930   4.814   8.802 -0.6973  0.0208 -0.3102
  847MOL0     C14253   4.076   4.771   8.805 -0.1568  0.3597 -0.1442
  847MOL0    Cl14254   4.180   4.886   8.724 -0.2484  0.0436  0.0778
  847MOL0     C14255   3.151   4.728   8.480  0.3192 -0.2152 -0.1526
  847MOL0     C14256   3.042   4.668   8.416 -0.0991  0.1888  0.1745
  847MOL0     O14257   2.926   4.440   8.287 -0.0091  0.1992 -1.5102
  847MOL0     C14258   2.702   4.293   8.236  0.5119 -0.2475 -0.4107
  847MOL0     C14259   2.585   4.223   8.200 -0.7249  0.6971 -0.4615
  847MOL0     N14260   2.000   4.425   8.598  0.1687 -1.0744 -0.1562
  847MOL0     N14261   2.022   4.535   8.665 -0.0231  0.2811  0.5477
  847MOL0     C14262   3.277   4.391   9.012 -0.6626 -0.7411 -0.7921
  847MOL0     C14263   3.419   4.388   9.028  0.0897 -0.4756 -1.1187
  847MOL0     C14264   3.866   4.531   9.097 -0.0105 -0.8573 -0.2486
  847MOL0     C14265   3.910   4.414   9.041  1.1346 -0.5929  0.4410
  847MOL0     C14266   4.045   4.381   9.034 -0.5609  0.1935  0.1729
  847MOL0     C14267   4.144   4.463   9.091  0.1130 -0.2165 -0.4774
  847MOL0     O14268   4.279   4.429   9.107 -0.7904 -0.5886 -0.1258
  847MOL0     C14269   4.356   4.400   8.992  0.2748  0.0452 -0.0265
  847MOL0     C14270   4.374   4.517   8.902 -0.5130  0.2267  0.2818
  847MOL0     C14271   4.518   4.569   8.916  0.1063 -0.0063  0.0173
  847MOL0     C14272   4.552   4.702   8.852 -0.0180  0.4613 -0.9121
  847MOL0     C14273   4.465   4.818   8.898 -0.3665  0.1233 -1.2712
  847MOL0     C14274   4.406   4.911   8.942  0.5158  0.1767  0.5297
  847MOL0     C14275   4.096   4.572   9.159 -0.2987  0.5288  0.3112
  847MOL0     C14276   3.960   4.605   9.165  0.2369 -0.3767  0.6513
  847MOL0     C14277   3.935   4.737   9.235  0.2351 -0.5670  0.4385
  847MOL0     H14278   3.473   4.724   9.088 -2.5695  1.1843  0.3571
  847MOL0     H14279   3.236   4.714   9.081 -0.4601 -0.4301  1.2633
  847MOL0     H14280   3.047   4.630   9.202  4.4695 -0.5366 -1.2785
  847MOL0     H14281   2.996   4.717   9.047 -5.1702 -0.9804 -0.6171
  847MOL0     H14282   2.818   4.628   9.213 -0.7816  0.9431 -1.1015
  847MOL0     H14283   2.841   4.484   9.100  0.5671 -0.4070 -0.2434
  847MOL0     H14284   2.805   4.631   8.911  0.2809  0.1787 -0.1764
  847MOL0     H14285   2.787   4.770   9.028  0.1316 -0.0011 -1.4867
  847MOL0     H14286   2.605   4.527   9.006  0.9572  0.0803  1.4986
  847MOL0     H14287   2.584   4.667   9.115 -3.3823  0.7790 -0.1654
  847MOL0     H14288   2.553   4.811   8.936  1.4795 -0.7248 -0.7016
  847MOL0     H14289   2.546   4.676   8.819  1.8949  1.5115  0.0715
  847MOL0     H14290   2.348   4.707   9.044  1.8899  5.4959 -1.0170
  847MOL0     H14291   2.329   4.774   8.885 -2.2036 -1.3311 -1.0184
  847MOL0     H14292   2.329   4.485   8.954 -0.1309 -0.7811 -1.2599
  847MOL0     H14293   2.349   4.549   8.785 -3.9758 -1.0697 -0.7252
  847MOL0     H14294   2.112   4.584   8.966  0.2029 -0.4884  0.6394
  847MOL0     H14295   2.140   4.695   8.830  0.9033 -1.0296 -2.7232
  847MOL0     H14296   2.152   4.317   8.859  1.6271  1.8913  0.4668
  847MOL0     H14297   2.031   4.124   8.736  1.5697 -0.4774  0.3296
  847MOL0     H14298   1.946   4.153   8.588  0.1405  0.5646 -0.3834
  847MOL0     H14299   2.244   4.154   8.625  0.8781  2.8845 -1.6786
  847MOL0     H14300   2.133   4.025   8.553 -0.2159 -0.1385 -0.9775
  847MOL0     H14301   2.191   4.294   8.444  0.7925  0.1043  3.3534
  847MOL0     H14302   2.095   4.170   8.358  1.4882 -1.6321 -1.1926
  847MOL0     H14303   2.284   4.008   8.331 -0.4523 -0.3760 -0.1225
  847MOL0     H14304   2.380   4.107   8.425 -0.2137  0.7331 -0.1532
  847MOL0     H14305   2.365   4.391   8.396 -1.5139 -2.6291 -2.7277
  847MOL0     H14306   2.576   4.518   8.453  2.3369 -1.8161  2.7574
  847MOL0     H14307   2.813   4.680   8.660 -1.1590  1.0669  0.2608
  847MOL0     H14308   3.011   4.804   8.773  0.5181 -2.0940  1.2394
  847MOL0     H14309   3.207   4.806   8.860 -0.8071  2.7067 -0.6513
  847MOL0     H14310   3.355   4.723   8.792  1.5723  0.0372  5.7356
  847MOL0     H14311   3.319   5.001   8.862 -0.1504 -0.4359 -0.4080
  847MOL0     H14312   3.434   4.879   8.927  2.2805 -2.3102 -2.0746
  847MOL0     H14313   3.470   4.933   8.636 -1.1387 -0.0776  1.6730
  847MOL0     H14314   3.552   5.040   8.762  0.5535  0.5766 -0.0124
  847MOL0     H14315   3.584   4.734   8.709  1.5854 -0.4155  0.0928
  847MOL0     H14316   3.657   4.830   8.848 -1.7901  2.7989  1.0668
  847MOL0     H14317   3.729   4.990   8.668 -1.7680 -0.1377 -2.8723
  847MOL0     H14318   3.710   4.870   8.540  0.9535  2.2011 -0.2381
  847MOL0     H14319   3.840   4.712   8.631 -0.0664  0.1751  0.5475
  847MOL0     H14320   3.925   4.871   8.589  1.8560 -0.6862  0.8134
  847MOL0     H14321   3.874   4.744   8.863 -2.1907  0.5362 -1.0421
  847MOL0     H14322   3.926   4.912   8.850  1.3461  0.2949 -0.5912
  847MOL0     H14323   4.106   4.774   8.910  0.0951 -1.6172 -0.1224
  847MOL0     H14324   4.083   4.668   8.768 -2.3245 -1.3996  3.7806
  847MOL0     H14325   3.238   4.746   8.418 -0.4448 -3.0879 -2.2601
  847MOL0     H14326   3.052   4.640   8.312 -1.1525  1.1192 -0.1884
  847MOL0     H14327   2.796   4.257   8.196  1.3643  1.5261 -0.0837
  847MOL0     H14328   2.584   4.133   8.140  0.8627  2.0874 -2.6964
  847MOL0     H14329   3.207   4.309   8.998  0.0020 -1.5181  0.2165
  847MOL0     H14330   3.469   4.291   9.027 -2.1058 -1.6739 -0.9920
  847MOL0     H14331   3.837   4.347   8.998  0.6733  1.7800 -2.8333
  847MOL0     H14332   4.076   4.285   8.995  0.6200 -0.1748  1.9088
  847MOL0     H14333   4.311   4.317   8.936 -1.4670 -0.6455  2.2381
  847MOL0     H14334   4.458   4.376   9.024  0.6477  2.0225  0.3716
  847MOL0     H14335   4.315   4.605   8.929  1.3572  2.4652 -2.3170
  847MOL0     H14336   4.353   4.476   8.802  0.7637 -0.4562  0.2677
  847MOL0     H14337   4.587   4.494   8.877  0.0004  0.1241 -0.4214
  847MOL0     H14338   4.550   4.573   9.021  0.0754  0.0268  0.0255
  847MOL0     H14339   4.654   4.727   8.884 -1.1763  2.3188  1.6058
  847MOL0     H14340   4.550   4.708   8.742  1.4377  0.0135 -0.9867
  847MOL0     H14341   4.362   5.001   8.982 -3.6516  1.8949 -6.1633
  847MOL0     H14342   4.175   4.632   9.204 -1.4495  0.8292  2.0381
  847MOL0     H14343   4.003   4.748   9.319 -0.4808 -0.2755  0.9901
  847MOL0     H14344   3.956   4.819   9.166 -0.9275 -0.6019  0.0208
  847MOL0     H14345   3.833   4.738   9.274 -0.6144 -1.4881 -1.5841
  848MOL0     O14346  10.509   4.016   9.074  0.2098 -0.0654 -0.6608
  848MOL0     C14347  10.520   4.099   9.162 -1.0166 -0.4240 -0.1561
  848MOL0     O14348  10.436   4.121   9.268  0.4075 -0.4509  0.3722
  848MOL0     C14349  10.332   4.031   9.284  0.3554 -0.4191 -0.0488
  848MOL0     C14350  10.202   4.087   9.310  0.5676  0.5103  0.1995
  848MOL0     C14351  10.094   4.002   9.325  0.2432  0.1607  0.6243
  848MOL0     C14352  10.098   3.864   9.317 -0.7014  0.4565  0.1149
  848MOL0     O14353   9.984   3.787   9.314  0.7905 -0.2544  0.4358
  848MOL0     C14354   9.994   3.649   9.263 -0.6183 -0.0119 -0.5497
  848MOL0     C14355   9.860   3.582   9.242 -0.0570  0.8781 -0.1800
  848MOL0     C14356   9.869   3.453   9.161  0.0064  1.2939 -0.2375
  848MOL0     C14357   9.915   3.323   9.241 -0.2131  0.5227 -0.5219
  848MOL0     C14358   9.936   3.186   9.178  0.0750  0.5478  0.5344
  848MOL0     C14359   9.820   3.147   9.089  0.3435  0.4076  0.4446
  848MOL0     C14360   9.681   3.126   9.140  0.5000 -0.2086 -0.0131
  848MOL0     C14361   9.659   2.999   9.233  0.4137 -0.3178 -0.4780
  848MOL0     N14362   9.688   3.026   9.377  0.3681  0.0724 -0.2860
  848MOL0     C14363   9.643   3.133   9.453  0.8270 -0.6465 -0.7017
  848MOL0     C14364   9.706   3.113   9.572  0.0582 -0.0014  0.1957
  848MOL0     C14365   9.698   3.192   9.698 -0.8045 -0.5016 -0.8778
  848MOL0     C14366   9.725   3.336   9.660  0.0810 -0.5201 -0.4242
  848MOL0     C14367   9.877   3.351   9.632 -0.7149  1.0271  1.3399
  848MOL0     C14368   9.974   3.320   9.758  0.9469  0.3536 -0.0485
  848MOL0     O14369  10.094   3.392   9.749  0.1222  0.7348  0.0761
  848MOL0     C14370  10.167   3.385   9.626  0.4403  0.9634  0.0196
  848MOL0     C14371  10.252   3.496   9.600 -0.5899 -0.2250  0.4247
  848MOL0     C14372  10.340   3.502   9.487  0.0266 -0.0462 -0.4916
  848MOL0     C14373  10.337   3.399   9.391 -0.7683  0.4711 -0.5660
  848MOL0     C14374  10.413   3.423   9.267 -0.2438  0.7439 -0.2310
  848MOL0     O14375  10.476   3.548   9.264 -0.0495  0.2234 -0.3545
  848MOL0     C14376  10.581   3.546   9.169 -0.3284  0.2914 -0.1764
  848MOL0     C14377  10.558   3.600   9.038  1.2514  0.0475  0.4693
  848MOL0     C14378  10.659   3.626   8.949  0.4255 -0.1019  0.9485
  848MOL0     C14379  10.790   3.581   8.984  1.4337  0.2153  0.1157
  848MOL0     O14380  10.895   3.592   8.896  0.1966  0.0269  0.0266
  848MOL0     C14381  10.998   3.684   8.940  0.7524 -0.0380  0.0240
  848MOL0     C14382  11.136   3.649   8.889 -0.1976 -0.0661  0.0612
  848MOL0     C14383  11.146   3.697   8.734 -0.2480  0.6601 -0.3597
  848MOL0     C14384  11.285   3.731   8.690 -0.2970  0.3185 -0.1820
  848MOL0     C14385  11.309   3.806   8.556 -0.0161  0.3296  1.3912
  848MOL0     C14386  11.456   3.842   8.543 -0.2836 -0.4862 -0.3688
  848MOL0     C14387  11.492   3.913   8.414  0.4678  0.4514 -0.5372
  848MOL0     C14388  11.639   3.916   8.379 -0.5231  0.0191  0.6259
  848MOL0    Cl14389  11.734   3.976   8.529 -0.1997 -0.5071 -0.1246
  848MOL0     C14390  10.821   3.530   9.112  0.4359 -0.0713 -0.5307
  848MOL0     C14391  10.716   3.516   9.206  0.3346  0.8211  0.1300
  848MOL0     O14392  10.428   3.338   9.176  0.5387  0.4342 -0.0573
  848MOL0     C14393  10.263   3.288   9.419  1.0513  0.2509 -0.5576
  848MOL0     C14394  10.177   3.272   9.535  0.5533  0.0019  0.1518
  848MOL0     N14395   9.790   3.005   9.562 -0.1278  0.2685 -0.2553
  848MOL0     N14396   9.777   2.952   9.447 -1.1521  0.7872 -0.1483
  848MOL0     C14397  10.232   3.808   9.309 -0.0178 -0.0181 -0.4417
  848MOL0     C14398  10.346   3.888   9.299  0.2147  0.6848 -0.3552
  848MOL0     C14399  10.634   4.192   9.157 -0.4010 -0.3460  0.0105
  848MOL0     C14400  10.741   4.166   9.076  0.1201 -0.0221 -0.0181
  848MOL0     C14401  10.864   4.218   9.099  0.0902 -0.7789  0.0039
  848MOL0     C14402  10.886   4.319   9.198 -0.2069  0.2648 -0.1340
  848MOL0     O14403  11.019   4.356   9.230 -0.0881  0.7405  0.3920
  848MOL0     C14404  11.036   4.451   9.326  0.3061 -0.4129 -0.4974
  848MOL0     C14405  11.188   4.464   9.350  0.0412  0.0416 -0.3742
  848MOL0     C14406  11.267   4.493   9.223 -0.4974  0.3456 -0.0575
  848MOL0     C14407  11.228   4.625   9.167  0.3968  0.3079 -0.2711
  848MOL0     C14408  11.315   4.644   9.050  0.0717 -0.5087 -0.1283
  848MOL0     C14409  11.381   4.657   8.945  0.0108 -0.6513  0.1177
  848MOL0     C14410  10.769   4.369   9.258 -0.2856 -0.6193 -0.1995
  848MOL0     C14411  10.645   4.312   9.238  0.5698  0.1643 -1.1131
  848MOL0     C14412  10.539   4.375   9.326 -0.2056 -0.7955 -0.2481
  848MOL0     H14413  10.187   4.192   9.332 -2.3796 -0.0136  1.2298
  848MOL0     H14414   9.995   4.047   9.334 -0.4624 -1.4051  1.0339
  848MOL0     H14415  10.057   3.650   9.173 -0.1897  1.4040 -0.2558
  848MOL0     H14416  10.039   3.589   9.343 -0.6351 -0.0072 -0.5370
  848MOL0     H14417   9.806   3.658   9.186 -0.6082 -0.3885 -1.4408
  848MOL0     H14418   9.822   3.558   9.342 -1.9145 -1.5558 -1.3703
  848MOL0     H14419   9.937   3.458   9.075 -0.3495  0.0886 -0.6237
  848MOL0     H14420   9.770   3.426   9.121  0.5289  0.2965 -0.8888
  848MOL0     H14421  10.009   3.359   9.284  0.1966  2.1823 -2.6212
  848MOL0     H14422   9.842   3.298   9.318  0.9401  0.8726  0.7263
  848MOL0     H14423  10.024   3.175   9.115 -0.1217  0.4752  0.2696
  848MOL0     H14424   9.944   3.110   9.256 -2.7529 -3.0100 -2.2631
  848MOL0     H14425   9.807   3.207   8.999 -2.9832 -2.1430 -0.9954
  848MOL0     H14426   9.837   3.042   9.061  0.8165 -0.4980  3.6492
  848MOL0     H14427   9.621   3.127   9.049 -0.6358  2.6635  0.6520
  848MOL0     H14428   9.644   3.213   9.196  3.0993  1.2453 -0.3866
  848MOL0     H14429   9.554   2.966   9.231 -0.1731  1.4623 -0.2755
  848MOL0     H14430   9.730   2.919   9.211 -0.9617 -1.8781  0.4642
  848MOL0     H14431   9.566   3.203   9.423 -0.7381 -1.8593  0.2971
  848MOL0     H14432   9.600   3.180   9.747  0.5411 -0.5754  2.0214
  848MOL0     H14433   9.776   3.141   9.755  0.3059 -0.2852 -2.1501
  848MOL0     H14434   9.667   3.364   9.571 -4.1147 -1.3592  1.7649
  848MOL0     H14435   9.686   3.408   9.732  1.2121 -0.7477  0.4417
  848MOL0     H14436   9.901   3.457   9.616 -0.7391  1.0267  1.3034
  848MOL0     H14437   9.912   3.301   9.542  1.0900  2.6805  1.0682
  848MOL0     H14438   9.994   3.213   9.749  0.3980  0.3985 -2.9041
  848MOL0     H14439   9.924   3.352   9.850 -2.3171 -2.3426 -0.6980
  848MOL0     H14440  10.238   3.568   9.680 -1.3684 -2.0385  2.0149
  848MOL0     H14441  10.414   3.581   9.486  0.2986 -0.2301  1.3651
  848MOL0     H14442  10.452   3.621   9.024  1.2891 -0.2069 -0.2220
  848MOL0     H14443  10.642   3.680   8.856 -2.7651 -1.0593  0.8553
  848MOL0     H14444  10.967   3.782   8.900 -0.1139  0.3494  1.5795
  848MOL0     H14445  10.987   3.694   9.048 -2.4083 -1.2881 -0.0944
  848MOL0     H14446  11.221   3.697   8.938  2.2852 -3.0899 -0.9225
  848MOL0     H14447  11.149   3.541   8.896  0.7913  0.1697  3.0847
  848MOL0     H14448  11.100   3.622   8.668  0.3785 -2.1199  2.2002
  848MOL0     H14449  11.083   3.787   8.727 -1.3634  0.0807  1.5887
  848MOL0     H14450  11.334   3.633   8.680 -0.2104  0.5076 -1.9209
  848MOL0     H14451  11.318   3.790   8.776 -3.2469  1.8069  0.0298
  848MOL0     H14452  11.267   3.907   8.548 -0.9354 -0.0693  0.9516
  848MOL0     H14453  11.270   3.748   8.472  3.2674  0.3145 -0.2690
  848MOL0     H14454  11.491   3.913   8.619 -0.7157 -0.3957 -0.2535
  848MOL0     H14455  11.515   3.751   8.555 -3.1088 -2.4332 -0.5286
  848MOL0     H14456  11.462   4.018   8.405 -1.5443  0.2692  2.7503
  848MOL0     H14457  11.435   3.867   8.332  0.8904 -1.0230 -0.0393
  848MOL0     H14458  11.674   3.816   8.350  0.6981  0.4912  0.3903
  848MOL0     H14459  11.658   3.985   8.296  1.3614  3.3981  3.5681
  848MOL0     H14460  10.923   3.515   9.146 -0.1228  1.7301  2.2726
  848MOL0     H14461  10.737   3.483   9.307  0.8589  1.9867  0.4182
  848MOL0     H14462  10.269   3.204   9.351 -1.1303 -0.6355  0.2499
  848MOL0     H14463  10.116   3.183   9.540 -0.9396  0.8002 -2.1603
  848MOL0     H14464  10.244   3.700   9.304 -1.2545 -0.1786 -0.3187
  848MOL0     H14465  10.443   3.839   9.293  0.8348  2.0370 -2.2899
  848MOL0     H14466  10.740   4.082   9.007 -0.2949 -0.2190  0.2217
  848MOL0     H14467  10.954   4.174   9.058 -0.5266 -0.1780 -2.1144
  848MOL0     H14468  10.995   4.428   9.425 -1.4133  2.9236 -0.3226
  848MOL0     H14469  11.004   4.550   9.292  0.6276 -0.6813 -1.6464
  848MOL0     H14470  11.217   4.366   9.389 -0.5061 -0.0802 -0.2625
  848MOL0     H14471  11.209   4.545   9.420  4.1271  0.2151 -1.5540
  848MOL0     H14472  11.267   4.405   9.158 -2.7110  0.2648 -0.0059
  848MOL0     H14473  11.365   4.514   9.267 -1.9240  2.8362  2.1789
  848MOL0     H14474  11.125   4.627   9.131  0.1019 -0.5395  0.5001
  848MOL0     H14475  11.247   4.708   9.236 -0.3561 -0.3777  0.7810
  848MOL0     H14476  11.421   4.679   8.848  0.4046  1.5655  0.7128
  848MOL0     H14477  10.770   4.460   9.318 -6.8466 -1.2582  1.6718
  848MOL0     H14478  10.536   4.313   9.416 -0.5843 -0.3836  0.0301
  848MOL0     H14479  10.572   4.475   9.358 -0.9610 -0.0735 -1.6045
  848MOL0     H14480  10.436   4.382   9.288 -0.6953 -2.0980  0.7974
  849MOL0     O14481   3.568   0.975   5.728  1.1168 -0.1640  0.5241
  849MOL0     C14482   3.536   0.857   5.703  0.2216 -0.0023 -0.1694
  849MOL0     O14483   3.425   0.814   5.632  0.1904  0.1426  0.2793
  849MOL0     C14484   3.315   0.893   5.621 -0.6312 -0.5315  0.5696
  849MOL0     C14485   3.231   0.852   5.515  0.6123 -0.1456 -0.3923
  849MOL0     C14486   3.108   0.913   5.500  0.0241 -0.2873 -0.2917
  849MOL0     C14487   3.072   1.034   5.564 -0.1100  0.0166 -0.1921
  849MOL0     O14488   2.955   1.108   5.537 -0.9816 -0.8964 -0.5967
  849MOL0     C14489   2.976   1.245   5.502 -0.2529  0.9222  0.6626
  849MOL0     C14490   2.853   1.320   5.504 -0.4938 -0.1071 -0.1275
  849MOL0     C14491   2.752   1.265   5.610 -0.1547 -0.9323  0.7495
  849MOL0     C14492   2.635   1.351   5.583 -0.1979 -0.6364  0.0716
  849MOL0     C14493   2.533   1.341   5.694  0.7669  0.1923 -0.4602
  849MOL0     C14494   2.596   1.406   5.822  0.1783  0.3608 -0.6430
  849MOL0     C14495   2.485   1.412   5.933 -0.0238 -0.2822  0.7334
  849MOL0     C14496   2.548   1.449   6.069  0.8375 -0.0418  0.4799
  849MOL0     N14497   2.560   1.597   6.092 -0.7105  0.3384 -0.3989
  849MOL0     C14498   2.674   1.671   6.049  0.6994 -0.1576 -0.2084
  849MOL0     C14499   2.642   1.797   6.081  0.6468 -0.1665  0.3899
  849MOL0     C14500   2.743   1.914   6.073  0.4754  0.3507  1.0024
  849MOL0     C14501   2.757   1.978   6.209 -1.1829  0.0155 -0.1305
  849MOL0     C14502   2.862   2.089   6.223  0.3620  0.7837 -0.1141
  849MOL0     C14503   3.007   2.045   6.209  0.3964 -0.6254 -0.1774
  849MOL0     O14504   3.093   2.157   6.242  0.2938 -0.5364 -1.2006
  849MOL0     C14505   3.124   2.212   6.368 -0.6792 -0.3881  0.8491
  849MOL0     C14506   3.071   2.162   6.487  0.5268 -0.4453  0.3020
  849MOL0     C14507   3.103   2.220   6.610 -0.3795 -0.5697  0.1077
  849MOL0     C14508   3.195   2.330   6.610  0.0615  0.1466 -0.2395
  849MOL0     C14509   3.226   2.407   6.727 -0.5268 -0.9802  0.6686
  849MOL0     O14510   3.289   2.525   6.716  0.0682  0.8663  0.0579
  849MOL0     C14511   3.375   2.570   6.813 -1.2850 -0.5838 -0.8846
  849MOL0     C14512   3.354   2.695   6.860 -0.2162 -0.0109 -0.6334
  849MOL0     C14513   3.430   2.762   6.955 -0.2821  0.3021  0.6398
  849MOL0     C14514   3.545   2.691   7.005  0.1252  1.5115 -0.9639
  849MOL0     O14515   3.613   2.739   7.120  0.7373  0.7416 -0.8209
  849MOL0     C14516   3.561   2.845   7.198  0.0582 -0.5372 -0.5209
  849MOL0     C14517   3.665   2.912   7.290  0.4109  0.4013  0.5816
  849MOL0     C14518   3.779   2.989   7.219  0.7993 -0.7403  1.0108
  849MOL0     C14519   3.739   3.124   7.149  0.5807  0.5152 -0.5926
  849MOL0     C14520   3.859   3.199   7.088 -0.9984  0.4264  0.3308
  849MOL0     C14521   3.828   3.352   7.060  0.2511  0.3477 -0.3199
  849MOL0     C14522   3.698   3.378   6.985 -0.6874 -0.0477  0.2461
  849MOL0     C14523   3.700   3.319   6.844  0.5857  0.3615  0.0191
  849MOL0    Cl14524   3.859   3.330   6.761 -0.0216 -0.1606  0.2791
  849MOL0     C14525   3.574   2.561   6.953  1.0063 -0.4113  0.1510
  849MOL0     C14526   3.490   2.506   6.852 -0.2944  1.1111 -1.1317
  849MOL0     O14527   3.198   2.356   6.838  0.3054  0.0041 -0.2429
  849MOL0     C14528   3.239   2.376   6.487 -0.2647  0.5861 -0.2877
  849MOL0     C14529   3.212   2.318   6.369  0.5092 -0.3757  0.0918
  849MOL0     N14530   2.517   1.802   6.150  0.0068 -0.5363  0.5630
  849MOL0     N14531   2.465   1.685   6.137  0.1024 -0.4957 -0.4169
  849MOL0     C14532   3.163   1.075   5.671  0.3663 -0.0624 -0.3379
  849MOL0     C14533   3.279   1.005   5.699 -0.8343  0.0956  0.1839
  849MOL0     C14534   3.630   0.744   5.743  0.0151  0.0404 -0.0535
  849MOL0     C14535   3.629   0.630   5.659 -0.5129  0.0375  0.0951
  849MOL0     C14536   3.702   0.507   5.683  0.3404 -0.3209 -0.3247
  849MOL0     C14537   3.787   0.499   5.791  0.0081 -0.1410 -0.5439
  849MOL0     O14538   3.868   0.390   5.828 -0.7156  0.2280 -0.4374
  849MOL0     C14539   3.896   0.299   5.722 -0.2973 -0.0514  0.5871
  849MOL0     C14540   3.988   0.344   5.616  0.0710  0.8735  0.4532
  849MOL0     C14541   3.927   0.394   5.485  0.0968 -1.2070 -0.6488
  849MOL0     C14542   4.003   0.332   5.370 -0.0500 -0.6852  0.6707
  849MOL0     C14543   4.146   0.378   5.358 -0.8613 -0.0325 -0.3456
  849MOL0     C14544   4.263   0.423   5.349  0.3880 -0.1324 -0.9952
  849MOL0     C14545   3.805   0.622   5.862  0.1597 -1.0578 -0.5519
  849MOL0     C14546   3.727   0.740   5.845 -0.2581  0.2830  0.4304
  849MOL0     C14547   3.753   0.851   5.951 -0.0522  0.6762 -0.0021
  849MOL0     H14548   3.259   0.757   5.470 -0.0086 -0.2112 -0.6429
  849MOL0     H14549   3.063   0.865   5.414 -2.3047 -0.8107  1.1293
  849MOL0     H14550   3.046   1.298   5.568  0.2365  0.0444  0.8702
  849MOL0     H14551   3.011   1.250   5.399 -1.2551 -1.2153  0.1674
  849MOL0     H14552   2.816   1.312   5.401  2.2384  0.1604 -1.2073
  849MOL0     H14553   2.877   1.424   5.531  1.4502  0.3469 -3.0882
  849MOL0     H14554   2.804   1.281   5.705 -2.1190  1.0358  1.5653
  849MOL0     H14555   2.731   1.158   5.600  1.9594 -1.4456  1.2632
  849MOL0     H14556   2.654   1.458   5.591 -4.0723  0.1916 -0.0262
  849MOL0     H14557   2.595   1.341   5.481 -0.9569  4.3176 -0.3704
  849MOL0     H14558   2.438   1.384   5.663  0.8252 -0.5821 -1.7902
  849MOL0     H14559   2.512   1.238   5.725 -0.4923  1.0357  1.6749
  849MOL0     H14560   2.684   1.351   5.858  1.7465  2.6785 -0.6957
  849MOL0     H14561   2.630   1.508   5.803 -2.2195  1.2754 -0.3538
  849MOL0     H14562   2.422   1.323   5.934 -0.8088  0.2561  0.0369
  849MOL0     H14563   2.412   1.491   5.913  0.7249 -0.0343 -1.2674
  849MOL0     H14564   2.499   1.403   6.155  2.4375 -1.4489  0.7136
  849MOL0     H14565   2.652   1.415   6.073  1.6982  2.5004  2.6203
  849MOL0     H14566   2.751   1.634   5.983  2.0228  2.0472  0.0122
  849MOL0     H14567   2.844   1.876   6.054  0.6132  0.9846  0.3878
  849MOL0     H14568   2.712   1.984   5.994  1.6181 -0.8362 -0.5553
  849MOL0     H14569   2.661   2.023   6.233 -0.8739  1.0852 -0.8723
  849MOL0     H14570   2.778   1.906   6.289 -0.9532  1.3687  1.0653
  849MOL0     H14571   2.850   2.144   6.317  2.5931 -0.2595  0.8454
  849MOL0     H14572   2.842   2.154   6.137  0.1284  3.1573  1.6456
  849MOL0     H14573   3.030   2.007   6.109 -1.6033  1.7364 -1.6542
  849MOL0     H14574   3.030   1.971   6.285 -1.3750 -0.0552  0.9920
  849MOL0     H14575   3.013   2.071   6.499  0.9051 -0.7043  0.1759
  849MOL0     H14576   3.070   2.172   6.702 -2.2829  2.3901  1.0974
  849MOL0     H14577   3.264   2.739   6.819 -1.6963 -2.6716 -0.5322
  849MOL0     H14578   3.380   2.851   6.991 -1.5233 -0.5159  0.9916
  849MOL0     H14579   3.524   2.924   7.131 -1.6956  1.5418  2.6844
  849MOL0     H14580   3.482   2.808   7.262 -3.5148  3.1950 -2.2954
  849MOL0     H14581   3.612   2.971   7.365  0.7228 -1.5546  2.4540
  849MOL0     H14582   3.721   2.842   7.353 -1.0924  0.3093  1.8737
  849MOL0     H14583   3.856   3.022   7.289  2.4727 -4.9738  1.4289
  849MOL0     H14584   3.818   2.927   7.138  0.6045 -1.9064  1.7945
  849MOL0     H14585   3.689   3.189   7.221 -1.5499 -0.7302 -0.8831
  849MOL0     H14586   3.674   3.110   7.063  3.3073 -0.3801 -2.6297
  849MOL0     H14587   3.865   3.156   6.988  0.0122  1.4419 -0.0568
  849MOL0     H14588   3.947   3.177   7.150 -0.8554  1.7861  0.6444
  849MOL0     H14589   3.814   3.402   7.156  0.2895 -0.1918 -0.0284
  849MOL0     H14590   3.908   3.396   7.000  1.5139 -1.4019  0.0029
  849MOL0     H14591   3.701   3.487   6.976  0.7705 -0.1455 -0.8732
  849MOL0     H14592   3.613   3.338   7.041 -0.1055  0.2063  1.3433
  849MOL0     H14593   3.678   3.212   6.854 -3.3212  1.2785  3.9847
  849MOL0     H14594   3.619   3.366   6.788 -0.9490  0.2305  2.0239
  849MOL0     H14595   3.652   2.494   6.988 -0.5380 -2.4682 -0.1051
  849MOL0     H14596   3.530   2.421   6.799  0.2596  1.3550 -1.1183
  849MOL0     H14597   3.312   2.455   6.498 -0.0719  0.3040  0.5721
  849MOL0     H14598   3.232   2.367   6.274  2.8081 -0.4049  0.5242
  849MOL0     H14599   3.136   1.163   5.729 -2.6045 -0.1262 -1.4591
  849MOL0     H14600   3.347   1.044   5.774 -0.0957 -0.6024 -0.1103
  849MOL0     H14601   3.562   0.631   5.573 -0.9484  2.7589  0.3678
  849MOL0     H14602   3.683   0.427   5.613 -1.9795  0.3585 -0.5277
  849MOL0     H14603   3.805   0.264   5.673  1.1589 -0.6534 -1.8755
  849MOL0     H14604   3.949   0.216   5.770  0.1212 -0.8571 -1.2052
  849MOL0     H14605   4.057   0.261   5.599 -0.2260  0.7304 -0.0720
  849MOL0     H14606   4.059   0.414   5.662  1.5388 -0.5504  0.4090
  849MOL0     H14607   3.926   0.503   5.475 -2.4813 -1.0062  0.8596
  849MOL0     H14608   3.825   0.356   5.485  0.2421 -1.6579 -2.0251
  849MOL0     H14609   3.987   0.224   5.373 -0.2609 -0.8226 -2.2537
  849MOL0     H14610   3.948   0.365   5.281  1.4878  2.8415  0.8641
  849MOL0     H14611   4.365   0.456   5.350  1.4472 -3.1302  0.5325
  849MOL0     H14612   3.889   0.630   5.930  0.5094 -1.7061 -0.9009
  849MOL0     H14613   3.768   0.798   6.045  2.1323  0.4899 -0.3995
  849MOL0     H14614   3.850   0.894   5.923  0.8799  0.2880  2.4248
  849MOL0     H14615   3.670   0.922   5.947 -0.9811 -0.1425  2.5982
  850MOL0     O14616  10.618   3.438   7.667 -0.6184  0.1756 -0.7822
  850MOL0     C14617  10.561   3.360   7.750  0.4804 -0.5282 -0.0650
  850MOL0     O14618  10.577   3.358   7.882  0.1735 -0.4840 -0.2266
  850MOL0     C14619  10.667   3.436   7.933 -0.3636 -0.1270  0.4972
  850MOL0     C14620  10.788   3.381   7.970 -0.7888 -0.1829  0.5059
  850MOL0     C14621  10.888   3.469   8.006 -0.2794  1.2585  0.4789
  850MOL0     C14622  10.871   3.599   8.016  0.4161 -0.0936 -0.0770
  850MOL0     O14623  10.957   3.680   8.088 -0.4172 -0.0575 -0.0800
  850MOL0     C14624  11.092   3.688   8.020 -0.2475 -0.2340 -0.7727
  850MOL0     C14625  11.150   3.821   8.083  0.0195  0.2462 -0.0331
  850MOL0     C14626  11.076   3.936   8.018 -0.6660 -0.1635 -0.4832
  850MOL0     C14627  11.138   4.075   8.054  0.1496  0.5971 -0.1032
  850MOL0     C14628  11.228   4.118   7.930  0.6570  0.2675  0.7043
  850MOL0     C14629  11.340   4.210   7.960 -0.5538 -1.1150  0.5797
  850MOL0     C14630  11.435   4.218   7.834  0.2662 -0.3041 -0.2728
  850MOL0     C14631  11.523   4.338   7.844 -0.3116  0.4502  0.8617
  850MOL0     N14632  11.634   4.315   7.934  1.1778 -0.3254 -0.3053
  850MOL0     C14633  11.748   4.245   7.904 -0.5355  0.3046 -0.3529
  850MOL0     C14634  11.819   4.244   8.016 -0.0481  0.1626 -0.8357
  850MOL0     C14635  11.952   4.191   8.056 -0.5666 -0.2751  0.7454
  850MOL0     C14636  11.997   4.257   8.192 -0.2880 -0.0147 -0.1527
  850MOL0     C14637  12.150   4.236   8.239  0.3169 -0.2129  0.2014
  850MOL0     C14638  12.153   4.246   8.397 -0.9764 -0.4538  0.0081
  850MOL0     O14639  12.281   4.195   8.440 -0.2655  0.1326 -0.3387
  850MOL0     C14640  12.315   4.227   8.569  0.9760 -0.1437  0.5508
  850MOL0     C14641  12.441   4.182   8.607  1.0747 -0.4695 -0.5742
  850MOL0     C14642  12.474   4.193   8.749  0.6503  0.6317  0.6670
  850MOL0     C14643  12.382   4.237   8.845  1.2592 -0.5342  0.9607
  850MOL0     C14644  12.410   4.240   8.983 -0.6179  0.2413  0.6553
  850MOL0     O14645  12.311   4.279   9.072  0.4184 -0.0080  0.7130
  850MOL0     C14646  12.349   4.341   9.185 -0.3866 -0.1443 -0.1166
  850MOL0     C14647  12.428   4.460   9.188  0.1510  0.3835 -0.1134
  850MOL0     C14648  12.472   4.525   9.310 -0.3581 -0.0686  0.4313
  850MOL0     C14649  12.427   4.461   9.430 -0.8909  0.2411 -0.0897
  850MOL0     O14650  12.462   4.519   9.551 -0.9049 -0.2226  0.6061
  850MOL0     C14651  12.470   4.436   9.667 -0.2701 -0.0709 -0.4867
  850MOL0     C14652  12.494   4.541   9.777 -1.1990 -0.8159  0.1822
  850MOL0     C14653  12.652   4.591   9.792  0.6420  0.3664 -0.9190
  850MOL0     C14654  12.719   4.489   9.883  0.4754 -0.1667 -0.1704
  850MOL0     C14655  12.861   4.528   9.921 -0.6987 -0.0103  0.6378
  850MOL0     C14656  12.938   4.410   9.988 -0.2281  0.6219 -0.6036
  850MOL0     C14657  13.086   4.456   9.985 -0.2773 -0.3401  0.7186
  850MOL0     C14658  13.179   4.337   9.959  0.1457  0.2712 -0.3668
  850MOL0    Cl14659  13.175   4.274   9.789 -0.3190 -0.2419 -0.0941
  850MOL0     C14660  12.333   4.356   9.424  0.7580  0.2246  0.2158
  850MOL0     C14661  12.298   4.297   9.304 -0.2237 -0.0153  0.1659
  850MOL0     O14662  12.523   4.219   9.016 -0.8589 -0.3187  0.3322
  850MOL0     C14663  12.261   4.292   8.804  0.1807 -0.8149  0.5467
  850MOL0     C14664  12.228   4.271   8.671 -0.0130  0.0407  0.2371
  850MOL0     N14665  11.745   4.314   8.109 -0.0651  0.4845  0.0277
  850MOL0     N14666  11.631   4.359   8.062  0.0514  0.1101  1.6076
  850MOL0     C14667  10.749   3.657   7.985  0.7583  1.2048 -0.3434
  850MOL0     C14668  10.649   3.575   7.940 -0.1847  0.3558 -0.6760
  850MOL0     C14669  10.454   3.281   7.685 -0.3444 -0.8825 -0.2313
  850MOL0     C14670  10.368   3.210   7.773 -0.2348 -0.6317 -0.5277
  850MOL0     C14671  10.267   3.122   7.725 -0.2204  0.0985  0.0829
  850MOL0     C14672  10.232   3.121   7.595  0.9042 -0.5581  0.1950
  850MOL0     O14673  10.123   3.046   7.548 -0.4813  0.9450 -0.0771
  850MOL0     C14674  10.085   2.912   7.604 -0.5916  0.1007  0.6694
  850MOL0     C14675  10.193   2.811   7.635 -0.1702  0.2507  0.5176
  850MOL0     C14676  10.139   2.701   7.719  0.1688  0.7810  0.4009
  850MOL0     C14677  10.233   2.589   7.740  0.5743  0.8487  0.6198
  850MOL0     C14678  10.273   2.510   7.621  1.3248 -1.3789  0.2952
  850MOL0     C14679  10.308   2.434   7.529  0.2715  0.4241 -0.5487
  850MOL0     C14680  10.302   3.196   7.507  0.6154  0.1236 -0.4776
  850MOL0     C14681  10.414   3.273   7.547  0.3151 -0.8410  0.1872
  850MOL0     C14682  10.475   3.355   7.430  0.0761 -0.3510 -0.7770
  850MOL0     H14683  10.813   3.277   7.954  0.9230 -0.3032  3.2367
  850MOL0     H14684  10.983   3.430   8.042 -1.0990 -2.7328 -1.1382
  850MOL0     H14685  11.162   3.609   8.050  0.9563  1.2205  0.3975
  850MOL0     H14686  11.078   3.699   7.912 -0.7457  2.1270 -0.5308
  850MOL0     H14687  11.253   3.832   8.050  0.1777  2.0977  0.9306
  850MOL0     H14688  11.144   3.818   8.192  0.9786  0.7501  0.0395
  850MOL0     H14689  10.970   3.946   8.043 -0.4319  0.3988  0.3350
  850MOL0     H14690  11.079   3.920   7.910  1.0704  1.3758 -0.7084
  850MOL0     H14691  11.064   4.153   8.076 -0.8358 -0.1405 -0.7540
  850MOL0     H14692  11.210   4.058   8.135  2.1859  0.3195 -1.8831
  850MOL0     H14693  11.274   4.027   7.889  0.6460  0.8272 -0.5918
  850MOL0     H14694  11.163   4.150   7.848  2.5591  0.2210 -0.9005
  850MOL0     H14695  11.292   4.307   7.974  0.4230 -0.4616 -0.4389
  850MOL0     H14696  11.383   4.191   8.059  0.7355  0.1638  0.2934
  850MOL0     H14697  11.377   4.235   7.742 -0.8440 -1.0713  0.2524
  850MOL0     H14698  11.480   4.119   7.825  2.4913  0.7288 -1.2168
  850MOL0     H14699  11.552   4.363   7.741  0.0241  0.6773  1.0099
  850MOL0     H14700  11.473   4.430   7.874 -1.4418  0.0406  0.2940
  850MOL0     H14701  11.781   4.207   7.808 -0.4827  2.0144 -1.0548
  850MOL0     H14702  11.952   4.082   8.066 -1.9058 -0.0868  3.6823
  850MOL0     H14703  12.012   4.230   7.974 -0.3485 -2.1249 -0.0272
  850MOL0     H14704  11.981   4.364   8.177 -0.1930  0.0216  0.0046
  850MOL0     H14705  11.929   4.234   8.274 -0.2499  0.7187  0.0876
  850MOL0     H14706  12.205   4.328   8.215 -4.2311  2.9148  0.4959
  850MOL0     H14707  12.188   4.142   8.200  0.5317 -0.0924  0.1187
  850MOL0     H14708  12.070   4.188   8.438 -0.1186  1.2269  4.6511
  850MOL0     H14709  12.147   4.349   8.431  1.7341  0.6353 -2.3680
  850MOL0     H14710  12.522   4.163   8.536  2.7875 -0.1050  1.1942
  850MOL0     H14711  12.576   4.166   8.773 -0.2959 -2.2695  1.7949
  850MOL0     H14712  12.461   4.487   9.088  0.7486  0.5956  0.1349
  850MOL0     H14713  12.530   4.616   9.318 -0.8817  0.3113 -0.0623
  850MOL0     H14714  12.373   4.389   9.686  0.0026 -0.9100 -1.1171
  850MOL0     H14715  12.559   4.372   9.671  1.8640  2.6085  4.8995
  850MOL0     H14716  12.431   4.630   9.766  1.3614  0.9680 -1.3207
  850MOL0     H14717  12.458   4.510   9.875  0.4091  0.1824  1.1197
  850MOL0     H14718  12.696   4.586   9.692  3.2089 -0.2042  0.1705
  850MOL0     H14719  12.655   4.685   9.848 -0.6332 -0.6825  1.0512
  850MOL0     H14720  12.718   4.396   9.825  2.3023  0.4818 -1.3283
  850MOL0     H14721  12.664   4.483   9.978  2.5400 -0.3201  1.0806
  850MOL0     H14722  12.877   4.610   9.992  2.2935  0.4665 -0.4412
  850MOL0     H14723  12.906   4.567   9.830 -0.6087  3.0374  1.8612
  850MOL0     H14724  12.900   4.399  10.090  2.3004  0.6055  0.4057
  850MOL0     H14725  12.929   4.319   9.928  0.3333  0.3836 -0.3382
  850MOL0     H14726  13.098   4.512  10.078 -3.0027  1.1875  0.2590
  850MOL0     H14727  13.093   4.533   9.908 -1.2430 -0.5046  0.4473
  850MOL0     H14728  13.285   4.363   9.960  0.6305 -1.4838  1.5654
  850MOL0     H14729  13.173   4.260  10.036  5.3119  0.5710  0.7525
  850MOL0     H14730  12.276   4.332   9.513  0.6834  1.2676  0.4572
  850MOL0     H14731  12.224   4.218   9.302 -1.9655  1.4708  1.6176
  850MOL0     H14732  12.195   4.344   8.873  1.9913  1.0100  1.0058
  850MOL0     H14733  12.125   4.296   8.646  0.8770  4.6165  0.1620
  850MOL0     H14734  10.728   3.760   8.010 -2.0168 -0.2887  4.9271
  850MOL0     H14735  10.550   3.610   7.916 -0.1298  0.6591 -0.4615
  850MOL0     H14736  10.377   3.215   7.881  3.0669 -1.7628 -0.6481
  850MOL0     H14737  10.215   3.054   7.792  0.1776  3.3121  4.0719
  850MOL0     H14738  10.019   2.877   7.525 -3.0096  1.9935  1.7037
  850MOL0     H14739  10.034   2.943   7.696  0.1393  0.0789  1.0911
  850MOL0     H14740  10.275   2.860   7.689  0.1556 -2.7489  3.0252
  850MOL0     H14741  10.230   2.780   7.537  1.7890  2.0172  0.6281
  850MOL0     H14742  10.047   2.668   7.669  0.9180 -0.7574 -0.0085
  850MOL0     H14743  10.115   2.746   7.816  0.9902 -1.2236  1.6036
  850MOL0     H14744  10.324   2.626   7.788  2.4963  0.5205 -2.5012
  850MOL0     H14745  10.183   2.523   7.812  1.0254  0.9920  1.0758
  850MOL0     H14746  10.349   2.377   7.448  0.4099  0.5848 -0.5931
  850MOL0     H14747  10.265   3.199   7.404  0.8624  1.3285 -0.5482
  850MOL0     H14748  10.446   3.460   7.442 -0.2754 -0.7570  2.8358
  850MOL0     H14749  10.584   3.354   7.441  0.3519 -0.1008 -2.8805
  850MOL0     H14750  10.444   3.314   7.333 -2.0579  1.1063 -0.7723
  851MOL0     O14751  11.367   4.263   3.456 -0.0948  0.4119  0.2857
  851MOL0     C14752  11.358   4.138   3.474  0.2032  0.0126  1.0753
  851MOL0     O14753  11.450   4.056   3.535 -0.7498 -0.4017  0.3271
  851MOL0     C14754  11.564   4.126   3.569 -0.2773 -0.5023  0.1312
  851MOL0     C14755  11.571   4.178   3.697  0.7654 -0.7230 -0.6910
  851MOL0     C14756  11.680   4.247   3.745  0.5148  0.7005 -0.0486
  851MOL0     C14757  11.796   4.247   3.669  0.2972  0.1544  0.5186
  851MOL0     O14758  11.894   4.328   3.720 -0.4022 -0.9548 -1.0833
  851MOL0     C14759  12.017   4.341   3.642  0.3792 -0.1852  0.0388
  851MOL0     C14760  12.100   4.446   3.717  0.5456  1.3535 -0.5137
  851MOL0     C14761  12.200   4.516   3.619 -0.1220 -0.8232  0.0569
  851MOL0     C14762  12.278   4.642   3.674 -0.7981  0.0332  0.2483
  851MOL0     C14763  12.201   4.762   3.680 -0.4610  0.1003  0.7112
  851MOL0     C14764  12.128   4.820   3.558 -0.5977 -0.3152  0.5982
  851MOL0     C14765  12.215   4.842   3.431 -0.4323  0.1388  0.7009
  851MOL0     C14766  12.306   4.968   3.455 -0.3636  0.0861 -0.1893
  851MOL0     N14767  12.355   5.022   3.322  0.5572  0.3189 -0.4525
  851MOL0     C14768  12.440   4.951   3.238  0.3000  0.4039  0.6905
  851MOL0     C14769  12.448   5.032   3.129 -0.2956 -1.1798  0.1232
  851MOL0     C14770  12.512   4.998   3.003  0.4027 -0.3054  0.1794
  851MOL0     C14771  12.660   4.999   2.996 -0.7910 -0.0923  0.0529
  851MOL0     C14772  12.721   5.142   2.980  0.2249  0.0910  0.2110
  851MOL0     C14773  12.685   5.197   2.843  0.0462 -0.2672  0.1178
  851MOL0     O14774  12.776   5.295   2.786  0.2126  0.0989  0.5004
  851MOL0     C14775  12.739   5.345   2.665  0.3493  0.4411 -0.2854
  851MOL0     C14776  12.833   5.430   2.598  0.7352 -0.7634  0.9307
  851MOL0     C14777  12.822   5.472   2.471  0.3864 -0.7236 -0.5566
  851MOL0     C14778  12.706   5.444   2.400  0.1903  0.7378  0.1822
  851MOL0     C14779  12.700   5.502   2.267  0.9938 -0.2347 -0.3727
  851MOL0     O14780  12.585   5.478   2.196  0.2900 -0.0096  0.0816
  851MOL0     C14781  12.565   5.549   2.075 -0.6385 -0.2832  0.9643
  851MOL0     C14782  12.565   5.495   1.946  0.2388 -0.0448  0.4466
  851MOL0     C14783  12.519   5.571   1.840  0.8470  0.7085  0.2639
  851MOL0     C14784  12.468   5.696   1.860  0.0636 -0.1276 -0.0409
  851MOL0     O14785  12.424   5.761   1.744  0.3730  0.0955  0.4283
  851MOL0     C14786  12.419   5.899   1.738 -0.2198 -0.2576  0.8176
  851MOL0     C14787  12.364   5.940   1.601  0.2553 -0.2213 -0.3485
  851MOL0     C14788  12.450   6.039   1.522  0.1257  0.0695 -0.6763
  851MOL0     C14789  12.479   6.175   1.598 -0.1695  0.5256  0.0275
  851MOL0     C14790  12.351   6.276   1.594  0.5576 -0.4866  0.1208
  851MOL0     C14791  12.376   6.428   1.608  0.0864  0.6874  0.0593
  851MOL0     C14792  12.446   6.480   1.734  0.0459  0.4461  0.3181
  851MOL0     C14793  12.496   6.630   1.732 -0.5384  0.2334 -0.2378
  851MOL0    Cl14794  12.362   6.742   1.753 -0.1061 -0.2726 -0.0328
  851MOL0     C14795  12.467   5.756   1.992  1.0781 -0.8223 -0.3344
  851MOL0     C14796  12.516   5.679   2.097  0.5523 -0.1765  0.5651
  851MOL0     O14797  12.795   5.557   2.211 -0.1957  0.2912  0.1458
  851MOL0     C14798  12.606   5.370   2.458  0.0849  0.3576 -0.2013
  851MOL0     C14799  12.627   5.311   2.585 -0.0332 -1.2568  0.6839
  851MOL0     N14800  12.381   5.160   3.155  0.4120 -0.8279 -0.1687
  851MOL0     N14801  12.329   5.147   3.275 -0.1597 -0.0816  0.2313
  851MOL0     C14802  11.796   4.209   3.535 -0.4701 -0.0829 -0.0391
  851MOL0     C14803  11.677   4.146   3.484 -0.1929  0.9777 -0.5864
  851MOL0     C14804  11.229   4.073   3.432 -0.5362  0.1270  0.1567
  851MOL0     C14805  11.207   3.947   3.492  0.1542 -0.5446  0.7908
  851MOL0     C14806  11.108   3.866   3.435 -0.1030 -0.3711 -0.1087
  851MOL0     C14807  11.025   3.911   3.330 -0.0861 -1.1407 -0.0620
  851MOL0     O14808  10.919   3.830   3.299 -0.1832 -0.2436  0.0489
  851MOL0     C14809  10.804   3.897   3.252 -0.3781  0.6578 -0.5500
  851MOL0     C14810  10.674   3.833   3.309 -0.7046  0.2043  0.2241
  851MOL0     C14811  10.642   3.702   3.250 -0.7994  0.2054  0.7083
  851MOL0     C14812  10.507   3.656   3.296  0.5733  0.4882 -0.1153
  851MOL0     C14813  10.466   3.529   3.235 -0.0480 -0.5701  0.3390
  851MOL0     C14814  10.427   3.444   3.152  0.6572  0.1219 -0.5701
  851MOL0     C14815  11.049   4.041   3.273  0.2605  0.0071  0.0887
  851MOL0     C14816  11.150   4.117   3.322 -0.6162  0.2026  0.0173
  851MOL0     C14817  11.178   4.248   3.252  0.6296  0.6731  1.1103
  851MOL0     H14818  11.487   4.159   3.763  1.7180 -4.6833 -0.3926
  851MOL0     H14819  11.670   4.296   3.841 -0.4141 -0.2901  0.3814
  851MOL0     H14820  12.068   4.244   3.636 -1.1683 -1.1384  1.5398
  851MOL0     H14821  11.996   4.379   3.541  0.1969  2.0623  0.8619
  851MOL0     H14822  12.150   4.397   3.802  0.4821 -2.0854 -2.2811
  851MOL0     H14823  12.030   4.523   3.751  0.1466  0.8707 -0.2125
  851MOL0     H14824  12.135   4.540   3.534 -0.6531 -0.4471  0.5570
  851MOL0     H14825  12.272   4.445   3.578 -0.1841 -2.1300  2.0892
  851MOL0     H14826  12.315   4.613   3.773 -0.9495 -0.6877  0.1003
  851MOL0     H14827  12.363   4.677   3.615 -2.2127  1.6577 -0.9149
  851MOL0     H14828  12.132   4.746   3.764 -1.7306  0.8552 -0.1525
  851MOL0     H14829  12.269   4.839   3.718  0.0180 -0.6069  1.3318
  851MOL0     H14830  12.037   4.761   3.545 -1.9909  1.5647  1.3360
  851MOL0     H14831  12.080   4.916   3.579 -0.2769 -0.2992  1.2698
  851MOL0     H14832  12.159   4.870   3.342  2.9641  0.2641 -1.5926
  851MOL0     H14833  12.262   4.748   3.400  0.2198  0.9957 -1.0824
  851MOL0     H14834  12.241   5.033   3.515  0.9887 -1.9445  3.8572
  851MOL0     H14835  12.393   4.938   3.514 -1.2236  0.3430  1.2765
  851MOL0     H14836  12.477   4.849   3.244  0.7348  0.5228  0.1570
  851MOL0     H14837  12.481   4.896   2.979  3.8100 -1.5276  0.4155
  851MOL0     H14838  12.466   5.059   2.924 -0.7078 -1.1709  0.1346
  851MOL0     H14839  12.703   4.944   3.081  0.2528 -1.8185 -1.5177
  851MOL0     H14840  12.683   4.933   2.912 -4.3035 -0.7662 -0.5064
  851MOL0     H14841  12.830   5.140   2.970  0.2016  1.1859 -0.4259
  851MOL0     H14842  12.687   5.214   3.055  1.5808  3.4986 -2.1805
  851MOL0     H14843  12.580   5.227   2.841  0.5880  1.7614 -0.6616
  851MOL0     H14844  12.678   5.120   2.766 -0.4338  0.9956 -1.1453
  851MOL0     H14845  12.925   5.452   2.652 -0.7920  0.1187  3.3094
  851MOL0     H14846  12.898   5.544   2.442  0.2864  0.0118  0.9209
  851MOL0     H14847  12.593   5.391   1.928 -0.6862 -0.1558 -0.4086
  851MOL0     H14848  12.526   5.522   1.743  0.7323 -1.5429  1.3203
  851MOL0     H14849  12.363   5.951   1.817  3.0404  0.8648  2.5636
  851MOL0     H14850  12.524   5.921   1.757 -0.0618  1.6041 -1.7445
  851MOL0     H14851  12.329   5.851   1.549 -0.2204 -0.7234  0.8029
  851MOL0     H14852  12.272   5.996   1.619  0.2035  0.7613 -3.1693
  851MOL0     H14853  12.552   6.002   1.509  0.6104  0.1610  2.3471
  851MOL0     H14854  12.400   6.058   1.426  0.9549 -0.0181 -1.1354
  851MOL0     H14855  12.567   6.222   1.553 -1.2616  0.7436 -2.0135
  851MOL0     H14856  12.495   6.158   1.705 -0.0914  1.8629  0.2457
  851MOL0     H14857  12.282   6.252   1.675  0.3022 -4.1191 -1.0237
  851MOL0     H14858  12.297   6.261   1.500 -0.1193  4.1321 -0.4825
  851MOL0     H14859  12.436   6.459   1.523 -0.0942 -1.2885 -0.8411
  851MOL0     H14860  12.284   6.486   1.596  1.2035  2.9891  1.8042
  851MOL0     H14861  12.534   6.426   1.769 -0.6115  0.8323  2.7106
  851MOL0     H14862  12.375   6.482   1.817  2.2794 -1.9912  2.4475
  851MOL0     H14863  12.559   6.637   1.821 -0.0520 -0.9898 -0.4650
  851MOL0     H14864  12.559   6.656   1.646 -0.0153  2.5563  0.8059
  851MOL0     H14865  12.435   5.856   2.019 -2.1086 -1.6604 -0.5733
  851MOL0     H14866  12.498   5.713   2.198  3.1578 -1.2876  1.4713
  851MOL0     H14867  12.512   5.367   2.403 -0.7876  0.0474  1.2515
  851MOL0     H14868  12.551   5.242   2.621 -0.3926 -0.5211  1.3539
  851MOL0     H14869  11.873   4.229   3.462  0.1934  4.0070  1.5354
  851MOL0     H14870  11.671   4.119   3.379 -1.5781  1.0716 -0.5441
  851MOL0     H14871  11.261   3.920   3.582  1.0856  0.0462  0.4276
  851MOL0     H14872  11.086   3.773   3.487  1.8705  1.5793  4.7332
  851MOL0     H14873  10.796   3.896   3.143 -4.1509  1.2723 -0.4221
  851MOL0     H14874  10.818   4.002   3.280  2.5315  1.5910 -4.5520
  851MOL0     H14875  10.601   3.913   3.294  2.0236  3.0339  1.0501
  851MOL0     H14876  10.704   3.826   3.414  0.6007  1.2667 -0.0484
  851MOL0     H14877  10.725   3.640   3.285  0.8670  2.4896  1.0351
  851MOL0     H14878  10.642   3.707   3.141  1.1513 -3.1046  0.3988
  851MOL0     H14879  10.517   3.646   3.405  0.1628  1.6550  0.0438
  851MOL0     H14880  10.437   3.736   3.271 -0.0799  0.6980  2.1550
  851MOL0     H14881  10.388   3.377   3.079 -0.2921 -0.3046  0.2898
  851MOL0     H14882  10.987   4.079   3.192 -2.0192 -4.4041 -0.5679
  851MOL0     H14883  11.284   4.242   3.230  0.5864 -4.8480  0.9012
  851MOL0     H14884  11.108   4.253   3.168  0.2958 -2.8619  0.9993
  851MOL0     H14885  11.166   4.342   3.306  4.2702  3.0240 -1.7670
  852MOL0     O14886   5.371   0.435   1.226  0.4099  0.2346 -0.1028
  852MOL0     C14887   5.410   0.547   1.248 -0.2256  0.4950 -0.6581
  852MOL0     O14888   5.351   0.662   1.215 -0.7414 -0.4593  0.3773
  852MOL0     C14889   5.212   0.656   1.187 -0.3004  0.9083  0.4841
  852MOL0     C14890   5.192   0.643   1.053  0.1145 -0.1016  0.5733
  852MOL0     C14891   5.058   0.624   1.012  0.8793  0.2020 -0.4513
  852MOL0     C14892   4.944   0.639   1.102  0.7296  0.9275  0.5022
  852MOL0     O14893   4.815   0.618   1.049 -0.0468 -0.5831 -0.4030
  852MOL0     C14894   4.698   0.621   1.129  0.1142  0.7499  0.5232
  852MOL0     C14895   4.578   0.641   1.038 -0.3689  0.5450 -0.5518
  852MOL0     C14896   4.458   0.567   1.096  0.0831  0.4265 -0.3174
  852MOL0     C14897   4.327   0.603   1.017  0.3547  0.7851 -0.4327
  852MOL0     C14898   4.211   0.555   1.109  0.6421  0.9373 -0.6371
  852MOL0     C14899   4.077   0.606   1.081 -0.0527  0.3318 -0.3089
  852MOL0     C14900   3.970   0.547   1.168  0.1832 -0.4240 -0.0886
  852MOL0     C14901   3.833   0.585   1.108  0.1089  0.2483 -0.0358
  852MOL0     N14902   3.729   0.587   1.213 -0.3261 -0.2305  0.1534
  852MOL0     C14903   3.692   0.696   1.295  0.6817 -0.2352  0.0979
  852MOL0     C14904   3.593   0.645   1.375 -0.9259 -0.8749  0.4104
  852MOL0     C14905   3.532   0.723   1.483 -0.7034  0.7109 -0.0581
  852MOL0     C14906   3.638   0.714   1.599  0.1321 -0.9929  0.7337
  852MOL0     C14907   3.578   0.734   1.738  0.0517  0.0532  0.0676
  852MOL0     C14908   3.458   0.835   1.756 -0.7847  0.1490  0.6715
  852MOL0     O14909   3.501   0.970   1.724  0.5685 -0.9369 -0.2511
  852MOL0     C14910   3.531   1.062   1.820 -0.1848  0.0171  0.0578
  852MOL0     C14911   3.522   1.041   1.953  0.2670 -0.2142 -0.9697
  852MOL0     C14912   3.568   1.137   2.042 -0.5901  0.7988 -0.6874
  852MOL0     C14913   3.620   1.261   2.003  0.6811 -0.1744 -0.7397
  852MOL0     C14914   3.636   1.376   2.099 -1.0457  0.3041  0.0559
  852MOL0     O14915   3.576   1.361   2.221 -0.0917 -0.7009 -0.6344
  852MOL0     C14916   3.558   1.471   2.302 -0.4302 -0.5266  0.4753
  852MOL0     C14917   3.536   1.600   2.261 -0.7073  0.9681 -0.1416
  852MOL0     C14918   3.531   1.707   2.350  0.3329 -0.3408 -0.4516
  852MOL0     C14919   3.527   1.693   2.494  0.3562  0.2755  1.1843
  852MOL0     O14920   3.484   1.791   2.575 -0.4266  0.1634  0.2819
  852MOL0     C14921   3.465   1.929   2.536  0.4454  0.0661 -0.2688
  852MOL0     C14922   3.401   2.006   2.653  0.2543 -0.0833 -0.3242
  852MOL0     C14923   3.354   2.159   2.624  0.5263 -0.5808  0.9972
  852MOL0     C14924   3.283   2.210   2.740  0.0052  0.4522 -0.3305
  852MOL0     C14925   3.168   2.306   2.720 -0.1142 -0.3205  0.2682
  852MOL0     C14926   3.220   2.438   2.645 -0.4852  0.5307 -0.7736
  852MOL0     C14927   3.112   2.541   2.612  0.2451 -0.2100  0.4945
  852MOL0     C14928   3.053   2.599   2.737 -0.0571 -0.4084 -0.4841
  852MOL0    Cl14929   2.955   2.741   2.681 -0.2179  0.5830 -0.4699
  852MOL0     C14930   3.542   1.557   2.536  0.9180  0.4014  1.1167
  852MOL0     C14931   3.565   1.445   2.443 -0.8221 -0.0244  0.5082
  852MOL0     O14932   3.699   1.466   2.055  0.0043  0.3457 -0.0456
  852MOL0     C14933   3.617   1.287   1.863  0.2982  0.5124  0.6150
  852MOL0     C14934   3.570   1.188   1.777  0.1377  0.3509 -0.1620
  852MOL0     N14935   3.566   0.522   1.329  0.3988 -0.9301  0.2446
  852MOL0     N14936   3.653   0.478   1.240  0.8643  0.6782 -0.6153
  852MOL0     C14937   4.975   0.643   1.237 -0.0529 -1.2590  0.8949
  852MOL0     C14938   5.107   0.661   1.289 -0.4681 -0.2927  0.5970
  852MOL0     C14939   5.545   0.545   1.318 -0.1315 -0.5896 -0.4581
  852MOL0     C14940   5.619   0.668   1.305  0.1793  0.7313  0.1388
  852MOL0     C14941   5.752   0.671   1.355  0.2179 -0.7765  0.4519
  852MOL0     C14942   5.806   0.561   1.430 -0.5890 -0.8105  0.5257
  852MOL0     O14943   5.938   0.573   1.470  0.7528  0.3724 -0.6815
  852MOL0     C14944   5.974   0.509   1.590 -0.7157  0.1149 -0.1054
  852MOL0     C14945   6.087   0.408   1.594  0.9319  0.4073  1.1537
  852MOL0     C14946   6.227   0.463   1.536 -0.4478 -0.1014  0.0707
  852MOL0     C14947   6.325   0.349   1.483  0.1853 -0.1275 -0.3064
  852MOL0     C14948   6.264   0.267   1.377  0.8469 -0.1308 -0.0867
  852MOL0     C14949   6.217   0.198   1.284  1.4922 -0.5844  0.2532
  852MOL0     C14950   5.732   0.445   1.451 -0.3733  0.4239 -0.5621
  852MOL0     C14951   5.604   0.433   1.394  0.3549 -0.1775 -0.4466
  852MOL0     C14952   5.529   0.314   1.436 -0.4206  0.6089  0.3159
  852MOL0     H14953   5.274   0.653   0.983 -1.1114 -0.6406 -0.9786
  852MOL0     H14954   5.039   0.606   0.906  0.9628 -0.7045 -0.3219
  852MOL0     H14955   4.688   0.526   1.182  2.0947  0.5092  0.5612
  852MOL0     H14956   4.700   0.702   1.203  1.5825  0.5157  0.7770
  852MOL0     H14957   4.600   0.599   0.940  1.2251  1.0465 -0.4362
  852MOL0     H14958   4.554   0.745   1.016  0.2587  0.6516 -0.7370
  852MOL0     H14959   4.459   0.593   1.202  4.2192 -2.5970  0.6378
  852MOL0     H14960   4.462   0.458   1.095 -2.6658  0.2730 -0.5567
  852MOL0     H14961   4.331   0.711   1.002  1.2699  0.6812 -1.0420
  852MOL0     H14962   4.319   0.560   0.917  3.6069 -0.0752 -0.4362
  852MOL0     H14963   4.221   0.446   1.099  1.0902  0.7615  1.3869
  852MOL0     H14964   4.235   0.572   1.214 -0.8188  0.6145 -0.2339
  852MOL0     H14965   4.080   0.715   1.080 -0.8024  0.4446 -3.7218
  852MOL0     H14966   4.050   0.571   0.981  0.2243  1.9667 -0.9778
  852MOL0     H14967   3.965   0.587   1.270 -1.3719 -1.3776  0.2342
  852MOL0     H14968   3.990   0.441   1.184  3.0072  0.3933  3.1517
  852MOL0     H14969   3.832   0.682   1.057 -1.0415  0.4289  0.3054
  852MOL0     H14970   3.811   0.518   1.024  0.8944  2.1699 -1.8768
  852MOL0     H14971   3.729   0.798   1.304 -1.7536  0.5460  4.6633
  852MOL0     H14972   3.526   0.831   1.463  1.0508  0.5495 -1.7457
  852MOL0     H14973   3.439   0.679   1.518  0.3760  0.4913  2.8561
  852MOL0     H14974   3.702   0.625   1.598  0.8354 -0.5044  1.4179
  852MOL0     H14975   3.706   0.793   1.568 -0.8756 -1.1584 -2.1160
  852MOL0     H14976   3.658   0.776   1.799 -0.7717  2.7853 -0.6117
  852MOL0     H14977   3.533   0.637   1.761 -1.9038  0.6464 -0.9950
  852MOL0     H14978   3.415   0.819   1.856 -0.4551  0.4249  0.8582
  852MOL0     H14979   3.380   0.816   1.682 -0.8213  1.0715  0.4620
  852MOL0     H14980   3.480   0.945   1.982  0.5973 -1.1087 -3.2513
  852MOL0     H14981   3.567   1.104   2.145  1.0349 -1.2069 -1.2482
  852MOL0     H14982   3.524   1.617   2.154  4.6283  0.8666 -1.0450
  852MOL0     H14983   3.513   1.807   2.312  0.5773  0.8173  2.2170
  852MOL0     H14984   3.556   1.983   2.507 -0.7958  1.9854 -0.8436
  852MOL0     H14985   3.398   1.931   2.450 -1.6016 -0.0245  1.2522
  852MOL0     H14986   3.316   1.949   2.693 -0.1282  0.7099  0.0090
  852MOL0     H14987   3.476   2.014   2.732 -0.8784 -1.5074  0.9579
  852MOL0     H14988   3.438   2.226   2.602 -0.2155 -0.2399 -1.0021
  852MOL0     H14989   3.291   2.164   2.535  0.0595  0.2086  1.3643
  852MOL0     H14990   3.351   2.275   2.796 -0.6450 -0.1322  1.2091
  852MOL0     H14991   3.242   2.130   2.802 -1.8972  1.4801 -0.1930
  852MOL0     H14992   3.129   2.331   2.819  3.6016  0.6979  1.6470
  852MOL0     H14993   3.091   2.263   2.655  2.1645 -0.0255 -2.8890
  852MOL0     H14994   3.286   2.491   2.714 -2.6875  2.3689  0.0549
  852MOL0     H14995   3.266   2.422   2.548  1.8108  1.9317  0.0101
  852MOL0     H14996   3.032   2.508   2.544 -0.0382  0.7320  0.3393
  852MOL0     H14997   3.147   2.622   2.547 -1.4024 -1.7663 -2.5454
  852MOL0     H14998   2.980   2.528   2.778  0.1081 -0.7805 -0.8262
  852MOL0     H14999   3.127   2.624   2.812 -0.1147 -0.8391 -0.2776
  852MOL0     H15000   3.527   1.535   2.641 -5.0156  1.3185  0.8046
  852MOL0     H15001   3.583   1.347   2.486 -0.9905  0.6280  2.1465
  852MOL0     H15002   3.645   1.383   1.821  0.3774  0.4751  0.5834
  852MOL0     H15003   3.561   1.210   1.671  0.1110  1.1216 -0.0094
  852MOL0     H15004   4.897   0.636   1.312 -1.9510 -1.9493 -1.0182
  852MOL0     H15005   5.123   0.666   1.396  1.1739 -1.2095  0.4159
  852MOL0     H15006   5.597   0.754   1.242  2.8489  2.0771  0.9194
  852MOL0     H15007   5.820   0.748   1.320  1.2985 -1.3560  1.2064
  852MOL0     H15008   5.894   0.466   1.652 -0.0474 -1.2266 -0.1516
  852MOL0     H15009   6.020   0.598   1.633 -0.8124  0.3603 -0.5106
  852MOL0     H15010   6.053   0.319   1.540  0.9674  0.7748  0.5221
  852MOL0     H15011   6.101   0.374   1.697  1.3697 -2.4450  0.2400
  852MOL0     H15012   6.279   0.520   1.613 -2.0280  1.5172  0.0076
  852MOL0     H15013   6.194   0.528   1.455  0.1811  0.4784  0.2693
  852MOL0     H15014   6.401   0.414   1.439  0.2118  0.0267 -0.0317
  852MOL0     H15015   6.362   0.295   1.571 -2.6505 -2.2351 -0.2513
  852MOL0     H15016   6.186   0.131   1.206  1.6302 -0.4082  0.0436
  852MOL0     H15017   5.769   0.352   1.494  1.4585  0.5491 -1.7660
  852MOL0     H15018   5.419   0.315   1.435 -0.4406  0.9196  1.5026
  852MOL0     H15019   5.551   0.247   1.353 -2.2840 -0.8896  0.9398
  852MOL0     H15020   5.559   0.276   1.534  0.2135  3.2011  1.1949
  853MOL0     O15021   6.417   8.063   7.609 -0.5952  0.0627 -0.8668
  853MOL0     C15022   6.429   8.107   7.724 -0.2325  0.3530  1.7050
  853MOL0     O15023   6.379   8.049   7.829 -0.9482  1.1431  0.6425
  853MOL0     C15024   6.310   7.929   7.826  0.4633  0.3864  0.0652
  853MOL0     C15025   6.367   7.825   7.760 -0.5816  0.0924 -0.3490
  853MOL0     C15026   6.301   7.704   7.757  0.0185 -0.0280 -0.2596
  853MOL0     C15027   6.179   7.684   7.830 -0.0774 -0.5154 -0.4094
  853MOL0     O15028   6.112   7.558   7.843 -0.1155 -0.8305 -0.5685
  853MOL0     C15029   6.197   7.444   7.825 -0.2382  0.1038  0.9705
  853MOL0     C15030   6.176   7.404   7.677  0.3703 -0.4601  0.1988
  853MOL0     C15031   6.270   7.289   7.648 -0.4380 -0.1253 -0.0305
  853MOL0     C15032   6.253   7.236   7.510 -0.9408 -0.9760  0.1307
  853MOL0     C15033   6.313   7.095   7.477  0.2186  0.1213 -0.4995
  853MOL0     C15034   6.274   7.057   7.343  0.2718  0.4124  1.0878
  853MOL0     C15035   6.341   6.928   7.285  0.0534  0.2310 -0.9694
  853MOL0     C15036   6.241   6.817   7.259  0.0434  0.2592 -0.4839
  853MOL0     N15037   6.139   6.805   7.365 -0.0029 -0.5941  0.3896
  853MOL0     C15038   6.154   6.747   7.490  1.3114 -1.2771  0.3926
  853MOL0     C15039   6.034   6.746   7.554 -0.1029 -0.3787 -0.2948
  853MOL0     C15040   6.000   6.690   7.698 -0.2797  0.1824  0.9853
  853MOL0     C15041   5.991   6.800   7.798  0.1772  0.3171  0.3752
  853MOL0     C15042   5.886   6.902   7.774 -0.8664 -0.1021 -0.2399
  853MOL0     C15043   5.902   7.027   7.862  0.0517  0.6329 -0.6083
  853MOL0     O15044   5.940   6.993   7.998  0.3324 -0.0070 -0.4009
  853MOL0     C15045   6.013   7.087   8.073 -0.3341 -0.1491 -0.1875
  853MOL0     C15046   6.088   7.039   8.178 -0.7759  0.0040 -0.1606
  853MOL0     C15047   6.158   7.133   8.263 -0.1374  0.4176  0.5470
  853MOL0     C15048   6.158   7.272   8.233 -0.4438  0.8097  0.0206
  853MOL0     C15049   6.228   7.371   8.311 -0.9228 -0.1167 -0.7511
  853MOL0     O15050   6.165   7.493   8.325 -0.0286  0.0963 -0.7443
  853MOL0     C15051   6.184   7.582   8.431 -1.0494 -0.1242 -1.1544
  853MOL0     C15052   6.220   7.541   8.557 -0.0993  0.1765 -0.2559
  853MOL0     C15053   6.244   7.628   8.662 -1.3700  0.0691 -0.3369
  853MOL0     C15054   6.229   7.769   8.647 -0.1574 -0.1418  0.4087
  853MOL0     O15055   6.238   7.862   8.743 -0.1398  0.1669 -0.6704
  853MOL0     C15056   6.177   7.819   8.867 -0.0782  0.2566  0.3640
  853MOL0     C15057   6.280   7.769   8.973 -0.6568  0.0386 -0.1214
  853MOL0     C15058   6.340   7.871   9.073 -0.9446 -0.9377 -0.2334
  853MOL0     C15059   6.354   7.803   9.210  0.4263 -0.2674 -0.5133
  853MOL0     C15060   6.437   7.887   9.309 -0.0830  0.5935 -0.5125
  853MOL0     C15061   6.385   8.022   9.355  0.6608  0.0017 -0.0236
  853MOL0     C15062   6.241   8.035   9.409 -0.5335 -0.8957  0.0140
  853MOL0     C15063   6.176   8.172   9.402 -1.3929 -0.4122  0.2694
  853MOL0    Cl15064   6.282   8.317   9.446 -0.2455  0.3129  0.5803
  853MOL0     C15065   6.185   7.809   8.516  0.4350  0.3037  0.5043
  853MOL0     C15066   6.163   7.720   8.407  0.7323 -0.0572 -1.1038
  853MOL0     O15067   6.325   7.331   8.379  0.1878 -0.4614 -0.5823
  853MOL0     C15068   6.086   7.307   8.125 -0.6191 -0.2347  0.7239
  853MOL0     C15069   6.015   7.218   8.045 -0.5170  0.0931 -0.5580
  853MOL0     N15070   5.944   6.798   7.461  0.3290 -0.4276  0.2300
  853MOL0     N15071   6.003   6.832   7.357 -0.9528 -0.3565 -0.0180
  853MOL0     C15072   6.126   7.796   7.897 -0.1162 -0.4892  0.0918
  853MOL0     C15073   6.195   7.912   7.897  0.0373 -0.7976 -0.7379
  853MOL0     C15074   6.480   8.248   7.740  0.7631 -0.1180  0.3372
  853MOL0     C15075   6.582   8.285   7.649  0.8474 -0.0468 -0.8906
  853MOL0     C15076   6.634   8.410   7.674 -0.4130 -0.1786  0.0855
  853MOL0     C15077   6.606   8.497   7.779  1.2490 -0.4189 -0.3617
  853MOL0     O15078   6.670   8.621   7.785 -0.3724 -1.2350  0.8079
  853MOL0     C15079   6.645   8.704   7.901  0.6475  0.4019 -0.4978
  853MOL0     C15080   6.719   8.830   7.882 -0.8357  0.3545  0.0590
  853MOL0     C15081   6.873   8.815   7.872 -0.5067 -0.0768  0.1658
  853MOL0     C15082   6.944   8.926   7.804  0.2237  0.2781  0.5020
  853MOL0     C15083   7.093   8.921   7.795 -0.2022 -0.1981  0.6601
  853MOL0     C15084   7.217   8.914   7.790  0.4765 -0.0691  0.4263
  853MOL0     C15085   6.497   8.456   7.855 -0.0938  0.2118 -0.8268
  853MOL0     C15086   6.431   8.330   7.843 -0.5516  0.1036 -0.1489
  853MOL0     C15087   6.319   8.304   7.945  0.4557 -0.4556  0.2267
  853MOL0     H15088   6.469   7.842   7.728 -0.9140  1.3982 -0.7675
  853MOL0     H15089   6.355   7.625   7.707  0.0615 -0.0937 -0.1098
  853MOL0     H15090   6.305   7.461   7.835 -0.2089  1.0782 -0.6431
  853MOL0     H15091   6.179   7.356   7.887  3.5178 -1.7572 -0.3269
  853MOL0     H15092   6.215   7.482   7.612  2.1407  1.1860  3.0317
  853MOL0     H15093   6.074   7.377   7.649  1.0442 -1.5819 -1.3161
  853MOL0     H15094   6.249   7.203   7.713 -0.9583 -1.7391 -2.2442
  853MOL0     H15095   6.373   7.320   7.671 -1.3239  1.8143  1.6718
  853MOL0     H15096   6.150   7.247   7.475 -0.4445  2.1881 -0.6512
  853MOL0     H15097   6.306   7.311   7.452 -2.0960 -0.8881 -0.8540
  853MOL0     H15098   6.422   7.102   7.490  0.3829 -0.3406 -1.4811
  853MOL0     H15099   6.259   7.042   7.555 -1.6729  4.6914  1.6969
  853MOL0     H15100   6.166   7.050   7.358  0.3266  1.6875  2.3777
  853MOL0     H15101   6.286   7.144   7.277 -2.0125 -0.4057 -0.5458
  853MOL0     H15102   6.412   6.890   7.359 -2.9665 -3.7087  0.2825
  853MOL0     H15103   6.389   6.944   7.188  0.1628  2.7552 -0.5791
  853MOL0     H15104   6.201   6.828   7.157  0.1369 -2.0395 -0.8170
  853MOL0     H15105   6.296   6.723   7.247 -1.3414 -0.5160 -1.0654
  853MOL0     H15106   6.246   6.706   7.531  2.4007  0.6412 -0.0277
  853MOL0     H15107   5.902   6.642   7.690 -0.5785  0.9863 -0.5485
  853MOL0     H15108   6.061   6.607   7.736 -0.9348 -0.3386  0.9083
  853MOL0     H15109   6.001   6.755   7.898  2.6015  3.8919  1.9606
  853MOL0     H15110   6.085   6.856   7.788  0.7635 -0.5597  0.7905
  853MOL0     H15111   5.790   6.856   7.798  0.1745 -1.6905  1.1443
  853MOL0     H15112   5.897   6.942   7.673  0.0428  3.4092  1.1045
  853MOL0     H15113   5.805   7.077   7.866  0.1947  1.1254 -2.4309
  853MOL0     H15114   5.977   7.093   7.818  0.3813 -0.7686 -2.2501
  853MOL0     H15115   6.069   6.936   8.203  0.7103 -0.1649  0.3539
  853MOL0     H15116   6.202   7.099   8.357 -1.6494 -0.5684  0.9410
  853MOL0     H15117   6.236   7.436   8.580  1.4301  0.4522  0.0827
  853MOL0     H15118   6.270   7.581   8.756  1.1196 -1.6321 -1.7459
  853MOL0     H15119   6.097   7.888   8.897 -3.2279 -1.8465 -2.5248
  853MOL0     H15120   6.115   7.734   8.841  1.2367  0.4506 -4.1542
  853MOL0     H15121   6.232   7.687   9.026 -3.4383  0.2644 -2.0598
  853MOL0     H15122   6.365   7.726   8.920 -1.4356  1.4794 -2.7500
  853MOL0     H15123   6.436   7.906   9.035 -2.3225  3.6210 -0.1791
  853MOL0     H15124   6.272   7.956   9.083  0.0212 -0.3627  2.3714
  853MOL0     H15125   6.407   7.708   9.198 -0.0702 -0.8182  1.3318
  853MOL0     H15126   6.251   7.790   9.246  1.1231 -1.9737  1.0505
  853MOL0     H15127   6.541   7.898   9.277 -0.5365 -0.1993 -2.3730
  853MOL0     H15128   6.434   7.816   9.392  0.7241 -0.0594 -1.0290
  853MOL0     H15129   6.455   8.053   9.434  1.7740  1.8095 -1.6339
  853MOL0     H15130   6.388   8.093   9.272 -0.8717  0.6967  0.4628
  853MOL0     H15131   6.225   7.998   9.511 -0.0546  3.0169  1.6572
  853MOL0     H15132   6.167   7.978   9.351 -0.9187  0.3494 -0.7486
  853MOL0     H15133   6.141   8.187   9.299  0.8918 -1.8997 -0.8017
  853MOL0     H15134   6.089   8.167   9.468 -0.9217 -1.0785  0.8529
  853MOL0     H15135   6.180   7.918   8.512  2.4823  0.3880 -1.3972
  853MOL0     H15136   6.120   7.754   8.313 -1.3716 -0.0046 -0.1827
  853MOL0     H15137   6.065   7.411   8.101  0.1697 -0.6322 -2.0691
  853MOL0     H15138   5.949   7.258   7.968  0.5271  2.0218 -0.5180
  853MOL0     H15139   6.032   7.793   7.952  1.9823 -0.8735  3.9809
  853MOL0     H15140   6.158   7.992   7.959 -4.5002 -1.9790 -1.5632
  853MOL0     H15141   6.608   8.218   7.567 -1.4495 -0.9606 -0.9422
  853MOL0     H15142   6.720   8.433   7.612  0.9838 -3.4185  0.5949
  853MOL0     H15143   6.668   8.671   8.003 -0.9126  0.0692 -0.2350
  853MOL0     H15144   6.536   8.716   7.905  0.5416  0.7845 -3.1041
  853MOL0     H15145   6.690   8.897   7.964 -2.8479  0.4382 -0.6706
  853MOL0     H15146   6.674   8.869   7.791 -2.9323 -2.8566 -0.4343
  853MOL0     H15147   6.893   8.712   7.842 -0.6075  0.6092 -2.5345
  853MOL0     H15148   6.901   8.823   7.977 -3.1483 -4.2156  1.4655
  853MOL0     H15149   6.913   8.926   7.699 -0.1083  0.5991  0.5976
  853MOL0     H15150   6.908   9.022   7.843 -1.3894  0.5701 -1.5376
  853MOL0     H15151   7.320   8.889   7.805  0.5093  0.4591  1.1075
  853MOL0     H15152   6.470   8.513   7.944  2.5004  0.5745 -0.1641
  853MOL0     H15153   6.356   8.265   8.040  1.3370  0.4759  0.2901
  853MOL0     H15154   6.252   8.387   7.971 -0.4515 -0.9379 -0.5202
  853MOL0     H15155   6.249   8.237   7.896 -0.4941  0.3302  0.4753
  854MOL0     O15156   5.312   9.074   6.864  0.5589  0.0326  0.2492
  854MOL0     C15157   5.186   9.071   6.869 -0.9298 -0.8270  0.2478
  854MOL0     O15158   5.099   9.080   6.759 -0.0829 -0.4139  0.9282
  854MOL0     C15159   5.150   9.100   6.630  0.1961  0.0370 -0.3059
  854MOL0     C15160   5.252   9.194   6.591  0.7363  0.4643  0.2555
  854MOL0     C15161   5.306   9.192   6.454  0.1897 -0.4701 -0.0418
  854MOL0     C15162   5.261   9.107   6.353  0.9153  0.0024 -0.2830
  854MOL0     O15163   5.316   9.131   6.236 -0.1250  0.8138  0.2553
  854MOL0     C15164   5.301   9.029   6.130 -0.1020  0.2706 -0.2978
  854MOL0     C15165   5.176   9.054   6.046 -0.0318 -1.4239 -0.2030
  854MOL0     C15166   5.203   9.103   5.901  0.1053  0.7836  0.9108
  854MOL0     C15167   5.268   8.996   5.815 -0.4919  0.1179 -0.4681
  854MOL0     C15168   5.261   9.037   5.671  0.9694  0.1954 -0.5552
  854MOL0     C15169   5.338   8.945   5.584 -0.2304 -0.4344  0.2736
  854MOL0     C15170   5.309   8.999   5.450  0.0280 -0.7535  0.0992
  854MOL0     C15171   5.386   8.916   5.346  0.2585  0.4088 -1.1067
  854MOL0     N15172   5.338   8.775   5.344  0.3532 -0.3909 -0.2788
  854MOL0     C15173   5.216   8.730   5.391 -0.3066  0.4399 -0.8987
  854MOL0     C15174   5.218   8.594   5.376 -0.3224  0.0201  0.3802
  854MOL0     C15175   5.109   8.490   5.394 -0.1862  0.2807  0.1785
  854MOL0     C15176   5.045   8.476   5.535 -0.2607 -0.2707 -0.0496
  854MOL0     C15177   5.145   8.449   5.652  0.1751  0.0364  0.1135
  854MOL0     C15178   5.103   8.519   5.782  0.1348 -0.2195  0.1564
  854MOL0     O15179   4.961   8.504   5.799 -0.3780  0.0861 -0.5158
  854MOL0     C15180   4.912   8.576   5.899 -0.5042 -0.2734 -0.2280
  854MOL0     C15181   4.839   8.506   5.996 -0.5637  0.0096  0.7647
  854MOL0     C15182   4.782   8.578   6.107  0.3999  0.4749  0.8681
  854MOL0     C15183   4.793   8.713   6.116 -0.1636  0.6128  1.3984
  854MOL0     C15184   4.731   8.786   6.230 -1.3989  0.6187 -0.0797
  854MOL0     O15185   4.700   8.908   6.211  0.0341 -0.4438 -0.7211
  854MOL0     C15186   4.664   8.982   6.316 -0.9293  0.1871 -0.9733
  854MOL0     C15187   4.535   8.984   6.368  0.1825 -0.6105  0.4344
  854MOL0     C15188   4.511   9.074   6.477 -0.0962  1.2302 -0.0833
  854MOL0     C15189   4.605   9.161   6.528 -0.0180  0.6935 -0.7379
  854MOL0     O15190   4.570   9.253   6.628  0.3679  1.0863 -0.4430
  854MOL0     C15191   4.589   9.213   6.765  0.1046  0.9825 -0.6175
  854MOL0     C15192   4.570   9.334   6.855  0.1655  0.0987 -0.5677
  854MOL0     C15193   4.540   9.282   6.998  1.1556 -0.8499  0.3194
  854MOL0     C15194   4.533   9.397   7.105  0.3920 -0.1188 -0.6061
  854MOL0     C15195   4.425   9.389   7.225 -0.9261 -0.0351  0.0803
  854MOL0     C15196   4.406   9.530   7.308  0.1954 -0.1363  0.6770
  854MOL0     C15197   4.296   9.512   7.416 -0.6894 -0.0323 -0.0259
  854MOL0     C15198   4.272   9.629   7.507 -0.1023 -0.9325 -0.0870
  854MOL0    Cl15199   4.154   9.744   7.425 -0.2043  0.1721 -0.4966
  854MOL0     C15200   4.733   9.153   6.486 -0.1882 -0.1172 -0.3040
  854MOL0     C15201   4.760   9.066   6.376 -0.5733 -0.3214  0.7549
  854MOL0     O15202   4.724   8.727   6.333  0.4171 -0.4741 -0.7781
  854MOL0     C15203   4.862   8.782   6.008 -0.4286  0.2693 -0.1562
  854MOL0     C15204   4.929   8.717   5.903  0.3852  0.1871 -1.0303
  854MOL0     N15205   5.330   8.561   5.295 -0.1365 -0.4089 -0.3768
  854MOL0     N15206   5.404   8.673   5.281  1.0901  0.2013 -0.3169
  854MOL0     C15207   5.153   9.021   6.396 -0.1027 -0.2902 -0.6886
  854MOL0     C15208   5.098   9.012   6.527 -0.9270  0.1537 -0.2794
  854MOL0     C15209   5.119   9.079   6.998  0.7602 -0.0139  0.3024
  854MOL0     C15210   4.994   9.149   6.993  0.3402  0.3684  0.7802
  854MOL0     C15211   4.923   9.163   7.113 -0.2149 -0.7483  1.0418
  854MOL0     C15212   4.965   9.113   7.229 -0.7863  0.7293  0.7465
  854MOL0     O15213   4.899   9.106   7.351  1.4915  0.6083 -0.2272
  854MOL0     C15214   4.855   9.238   7.399 -0.5765  0.7903 -0.9697
  854MOL0     C15215   4.871   9.251   7.549 -0.5164 -0.3369 -0.9895
  854MOL0     C15216   4.797   9.159   7.641  0.9906 -0.5761 -0.0418
  854MOL0     C15217   4.642   9.169   7.626  0.5314 -0.2796  0.5328
  854MOL0     C15218   4.594   9.312   7.628 -0.1891  0.0157 -0.8819
  854MOL0     C15219   4.545   9.422   7.641  0.8446 -0.8818  0.3004
  854MOL0     C15220   5.089   9.034   7.233 -1.0486 -0.8813  0.7325
  854MOL0     C15221   5.168   9.025   7.122 -0.6253 -0.4606  0.3197
  854MOL0     C15222   5.295   8.945   7.139 -0.4188  0.7517  0.5553
  854MOL0     H15223   5.290   9.256   6.672 -3.1100  0.0633  2.6149
  854MOL0     H15224   5.391   9.257   6.440  1.8289 -2.5963 -0.4781
  854MOL0     H15225   5.386   9.019   6.062 -2.3311 -4.5936 -2.9073
  854MOL0     H15226   5.309   8.927   6.167  2.3939 -0.6311 -2.9785
  854MOL0     H15227   5.133   9.140   6.096 -0.6898 -1.0273 -1.4155
  854MOL0     H15228   5.114   8.965   6.060  2.3318 -3.2742 -0.8399
  854MOL0     H15229   5.274   9.185   5.918 -1.3449  1.7195  2.8842
  854MOL0     H15230   5.110   9.145   5.862 -0.0310 -0.8383 -0.6520
  854MOL0     H15231   5.373   8.990   5.845 -0.5075  3.2636  0.4763
  854MOL0     H15232   5.224   8.896   5.822  2.7444 -1.3815  0.7191
  854MOL0     H15233   5.156   9.024   5.643  0.6284 -0.1910  0.8374
  854MOL0     H15234   5.297   9.141   5.671 -0.2809  0.7247  2.1229
  854MOL0     H15235   5.446   8.937   5.598 -0.6120 -3.7838  2.4205
  854MOL0     H15236   5.297   8.844   5.597 -0.9940 -0.6842 -3.1214
  854MOL0     H15237   5.332   9.104   5.431  0.9800 -1.2061 -1.4730
  854MOL0     H15238   5.205   8.976   5.424  0.3166 -0.6230 -1.2481
  854MOL0     H15239   5.393   8.967   5.250  0.6553  1.1954 -0.6723
  854MOL0     H15240   5.489   8.904   5.381 -0.1025  1.2935  0.3552
  854MOL0     H15241   5.127   8.789   5.406 -1.4905 -1.1356 -1.4528
  854MOL0     H15242   5.030   8.535   5.333  0.9449  1.1928 -0.6553
  854MOL0     H15243   5.150   8.397   5.353 -1.2064  0.5996 -1.6935
  854MOL0     H15244   5.012   8.579   5.553 -1.9143 -0.5841 -1.0511
  854MOL0     H15245   4.958   8.410   5.527  0.7249 -1.4664 -1.2804
  854MOL0     H15246   5.245   8.486   5.625  1.3147 -3.0403 -0.2625
  854MOL0     H15247   5.157   8.342   5.673  2.9051  0.6492  2.4234
  854MOL0     H15248   5.139   8.622   5.778  2.1154 -0.9031 -1.1288
  854MOL0     H15249   5.154   8.475   5.868  0.8506 -0.5824 -0.4354
  854MOL0     H15250   4.836   8.398   6.003  0.4186 -0.0311  0.6837
  854MOL0     H15251   4.739   8.523   6.190  1.4606  0.1138  1.2023
  854MOL0     H15252   4.457   8.920   6.327 -0.7129  0.6866  0.0645
  854MOL0     H15253   4.409   9.081   6.511  0.2410  0.1247  1.2323
  854MOL0     H15254   4.521   9.132   6.790  0.6516  0.7679  0.2078
  854MOL0     H15255   4.690   9.173   6.766 -0.3694 -0.2240  0.0223
  854MOL0     H15256   4.660   9.396   6.857  0.8165 -0.8466  0.4743
  854MOL0     H15257   4.490   9.398   6.817  1.2169  0.3011 -2.5943
  854MOL0     H15258   4.438   9.243   6.989 -0.6504  3.0242  1.8256
  854MOL0     H15259   4.610   9.205   7.031  0.6381 -1.3179  0.3487
  854MOL0     H15260   4.496   9.489   7.058 -0.5260  0.1232  0.5567
  854MOL0     H15261   4.628   9.424   7.151  0.7209 -0.2955 -1.1660
  854MOL0     H15262   4.450   9.315   7.301  2.5668  1.2029  0.3091
  854MOL0     H15263   4.334   9.353   7.177  0.2312 -1.9744 -0.7686
  854MOL0     H15264   4.501   9.555   7.356  0.1872  1.8395 -0.2331
  854MOL0     H15265   4.373   9.605   7.236 -2.2544 -2.0070 -0.3097
  854MOL0     H15266   4.321   9.424   7.477 -1.4009  0.0960  0.4569
  854MOL0     H15267   4.205   9.483   7.364 -1.4932 -0.4261  1.5279
  854MOL0     H15268   4.211   9.587   7.587  2.1101 -0.5664  1.8717
  854MOL0     H15269   4.348   9.682   7.564 -0.1204 -0.6036 -0.3665
  854MOL0     H15270   4.817   9.211   6.522 -0.7981  1.5123 -1.3812
  854MOL0     H15271   4.863   9.055   6.345 -1.3901  0.9354 -2.8852
  854MOL0     H15272   4.865   8.891   6.008 -2.1445  0.4039  2.3227
  854MOL0     H15273   4.981   8.778   5.830  0.7674  2.6474  1.1764
  854MOL0     H15274   5.094   8.966   6.324  0.9966  1.4228 -3.0226
  854MOL0     H15275   5.018   8.943   6.551 -0.5938  0.3772  1.6875
  854MOL0     H15276   4.943   9.164   6.898  3.9431 -2.8864 -1.9907
  854MOL0     H15277   4.821   9.200   7.117 -0.7816 -2.2046  0.8820
  854MOL0     H15278   4.747   9.250   7.392 -0.8874 -1.7797 -1.5528
  854MOL0     H15279   4.914   9.319   7.355  1.5935  1.2538  2.3674
  854MOL0     H15280   4.849   9.354   7.579 -0.1539 -1.0075  1.8583
  854MOL0     H15281   4.977   9.232   7.565 -0.2817  0.3473 -1.6640
  854MOL0     H15282   4.825   9.191   7.742  1.8575 -0.9288 -0.1547
  854MOL0     H15283   4.828   9.056   7.624  3.1700  0.1572 -0.9167
  854MOL0     H15284   4.607   9.136   7.528 -0.3210  4.3813 -0.9949
  854MOL0     H15285   4.596   9.100   7.698 -3.1728  1.3095 -0.0763
  854MOL0     H15286   4.518   9.521   7.670  0.6694 -0.0999 -2.3237
  854MOL0     H15287   5.132   9.002   7.328 -1.5328 -3.1297  0.2506
  854MOL0     H15288   5.327   8.895   7.047  1.0976  4.8792 -1.4073
  854MOL0     H15289   5.369   9.021   7.166  0.0907  0.7316 -0.7428
  854MOL0     H15290   5.290   8.864   7.212  0.2179  0.1617 -0.0491
  855MOL0     O15291   0.017   7.720   6.481 -0.4316  0.8626  0.0178
  855MOL0     C15292   0.038   7.642   6.389 -0.5375 -0.7624  0.0791
  855MOL0     O15293  -0.045   7.548   6.339 -0.8716  0.3063  0.0814
  855MOL0     C15294  -0.160   7.528   6.414 -0.0332 -0.3965 -0.6883
  855MOL0     C15295  -0.261   7.618   6.429  0.1035 -0.4969 -0.3154
  855MOL0     C15296  -0.377   7.592   6.503  0.0210 -0.0700 -0.1778
  855MOL0     C15297  -0.393   7.474   6.568  0.1922 -0.9277  0.0962
  855MOL0     O15298  -0.508   7.455   6.644 -0.7487  0.3724 -0.2971
  855MOL0     C15299  -0.483   7.408   6.775  0.0333 -0.4592 -0.6140
  855MOL0     C15300  -0.622   7.366   6.832  0.5038 -0.0968  0.4251
  855MOL0     C15301  -0.651   7.226   6.785  0.3348 -1.2663  0.4154
  855MOL0     C15302  -0.784   7.170   6.841  0.2614  0.6213 -0.0976
  855MOL0     C15303  -0.803   7.022   6.785  1.5571 -0.7492  1.3118
  855MOL0     C15304  -0.934   6.950   6.823 -0.2373 -0.2177 -0.3300
  855MOL0     C15305  -1.053   7.028   6.768  0.0322  0.5828 -0.7324
  855MOL0     C15306  -1.171   6.943   6.756  0.7944  0.5882  0.5377
  855MOL0     N15307  -1.147   6.858   6.641 -0.3063  0.3698 -0.4348
  855MOL0     C15308  -1.161   6.912   6.519 -0.2469  1.0016 -0.9658
  855MOL0     C15309  -1.116   6.814   6.435 -0.0049 -0.3633 -0.3270
  855MOL0     C15310  -1.081   6.836   6.289 -0.3499  0.6950  0.4500
  855MOL0     C15311  -0.936   6.807   6.258 -0.6348  0.0646 -0.4778
  855MOL0     C15312  -0.859   6.918   6.333  0.1290  0.2533 -0.3649
  855MOL0     C15313  -0.709   6.927   6.288 -0.7358 -0.0714  0.6563
  855MOL0     O15314  -0.682   6.938   6.154 -0.3661  0.1403  0.2775
  855MOL0     C15315  -0.551   6.968   6.126  0.9287  1.2935  1.1630
  855MOL0     C15316  -0.440   6.915   6.199  0.2176  0.1408  0.0604
  855MOL0     C15317  -0.310   6.919   6.140 -0.4140  0.1799  1.1359
  855MOL0     C15318  -0.280   6.986   6.019  0.2944 -0.2770  0.6000
  855MOL0     C15319  -0.144   6.988   5.958 -0.1125  0.0034 -0.4326
  855MOL0     O15320  -0.038   6.979   6.043 -0.3032 -0.1709  0.1471
  855MOL0     C15321   0.074   6.900   6.013 -0.0681 -0.7848  1.0501
  855MOL0     C15322   0.136   6.828   6.120 -0.1211 -0.1390  0.0046
  855MOL0     C15323   0.251   6.757   6.088  0.3417 -0.8330  0.5220
  855MOL0     C15324   0.310   6.759   5.962  0.0761 -0.1805  0.7471
  855MOL0     O15325   0.414   6.670   5.926  0.6134  0.2416 -0.0790
  855MOL0     C15326   0.455   6.557   6.006  0.5003  0.0507 -1.2920
  855MOL0     C15327   0.557   6.471   5.924 -0.2870  0.3558  0.8392
  855MOL0     C15328   0.507   6.371   5.819 -1.1154 -0.3065  0.2709
  855MOL0     C15329   0.609   6.260   5.786 -0.7779  0.6147 -0.4426
  855MOL0     C15330   0.556   6.214   5.649  0.0798 -0.5470 -1.3809
  855MOL0     C15331   0.640   6.091   5.611 -0.6360  0.0008 -0.4490
  855MOL0     C15332   0.618   6.058   5.466  0.3542 -1.5538 -0.0003
  855MOL0     C15333   0.713   5.952   5.405 -1.3102  0.1859 -0.2942
  855MOL0    Cl15334   0.702   5.797   5.480 -0.2894  0.3145 -0.3606
  855MOL0     C15335   0.246   6.818   5.856 -0.6854  0.0516  1.1564
  855MOL0     C15336   0.129   6.892   5.880 -0.0580  1.5561 -0.7996
  855MOL0     O15337  -0.140   6.997   5.836  0.0308  0.0407 -0.3461
  855MOL0     C15338  -0.382   7.049   5.953  0.2723  0.4949 -0.4429
  855MOL0     C15339  -0.511   7.036   6.008  0.0517 -0.6013  0.6150
  855MOL0     N15340  -1.072   6.706   6.505 -0.4555  0.1748  0.5207
  855MOL0     N15341  -1.098   6.724   6.632  0.2307 -0.5280 -0.3594
  855MOL0     C15342  -0.285   7.389   6.568  0.0866 -0.1715  0.1466
  855MOL0     C15343  -0.177   7.414   6.486  0.6285  0.0196  0.2854
  855MOL0     C15344   0.177   7.663   6.320  0.4957 -0.1237  0.2706
  855MOL0     C15345   0.188   7.637   6.189 -0.2561 -0.6800  0.2914
  855MOL0     C15346   0.310   7.647   6.109 -0.9781 -0.1062  0.2041
  855MOL0     C15347   0.427   7.671   6.183  0.0132  0.4301 -0.0306
  855MOL0     O15348   0.555   7.670   6.128  0.6780  1.0252 -0.0160
  855MOL0     C15349   0.596   7.536   6.092  0.3236  0.4042 -0.2173
  855MOL0     C15350   0.563   7.483   5.945  0.8410  0.4968  0.0886
  855MOL0     C15351   0.475   7.359   5.929 -0.4655 -0.1376  0.0488
  855MOL0     C15352   0.529   7.221   5.986 -0.0201  1.3661 -0.1671
  855MOL0     C15353   0.669   7.193   5.956  0.3483 -0.7546 -0.0852
  855MOL0     C15354   0.779   7.153   5.920 -0.1827 -0.0479  0.2963
  855MOL0     C15355   0.423   7.700   6.318  1.0234 -0.0205 -0.8454
  855MOL0     C15356   0.300   7.706   6.383  0.3766  0.4142 -0.0788
  855MOL0     C15357   0.310   7.743   6.535 -0.1094 -0.2371  0.3618
  855MOL0     H15358  -0.260   7.721   6.395 -0.6650  1.1993  4.0658
  855MOL0     H15359  -0.468   7.649   6.521  1.0246  0.8681  2.3506
  855MOL0     H15360  -0.416   7.322   6.783 -1.8875 -1.8409  2.0793
  855MOL0     H15361  -0.448   7.492   6.835  1.7430  0.0724 -2.2389
  855MOL0     H15362  -0.705   7.425   6.793 -0.9420 -3.7861 -2.7789
  855MOL0     H15363  -0.617   7.363   6.941 -0.2628  1.0920  0.4993
  855MOL0     H15364  -0.579   7.150   6.815 -0.4366 -1.8216  0.9040
  855MOL0     H15365  -0.683   7.227   6.680  2.1221  0.1539 -0.1677
  855MOL0     H15366  -0.781   7.168   6.950  0.7994  0.6750 -0.1081
  855MOL0     H15367  -0.873   7.233   6.827  0.3883  0.5538 -1.4153
  855MOL0     H15368  -0.803   7.036   6.676  2.3115  2.1652  1.6245
  855MOL0     H15369  -0.718   6.959   6.814  0.5487 -1.6261  2.4761
  855MOL0     H15370  -0.935   6.847   6.786  0.1044  0.6621 -2.9930
  855MOL0     H15371  -0.939   6.940   6.932  0.8197 -1.8387 -0.3893
  855MOL0     H15372  -1.033   7.072   6.670 -1.6004 -2.1984 -2.4735
  855MOL0     H15373  -1.073   7.118   6.827 -1.7840  1.4206 -2.5137
  855MOL0     H15374  -1.183   6.878   6.843 -0.4688  0.9099  0.6373
  855MOL0     H15375  -1.266   6.997   6.748  0.3541 -0.2445 -0.0342
  855MOL0     H15376  -1.198   7.010   6.489  3.0884  3.2778  1.5538
  855MOL0     H15377  -1.130   6.752   6.239  3.2411 -0.4541 -1.5123
  855MOL0     H15378  -1.101   6.939   6.257 -0.5792  0.8451  1.0780
  855MOL0     H15379  -0.906   6.710   6.298  1.1088  0.6523 -0.2855
  855MOL0     H15380  -0.917   6.809   6.150 -2.8887 -1.4211 -0.9777
  855MOL0     H15381  -0.859   6.911   6.442  1.8624  2.0050 -0.1977
  855MOL0     H15382  -0.904   7.017   6.314  1.3730  1.2643  1.6507
  855MOL0     H15383  -0.657   6.841   6.332  0.3654  0.6844  0.8938
  855MOL0     H15384  -0.662   7.020   6.323  0.4819 -0.6130  0.5202
  855MOL0     H15385  -0.434   6.860   6.292  0.6578 -0.0777 -0.0956
  855MOL0     H15386  -0.229   6.869   6.193 -0.2951 -0.6837  0.1684
  855MOL0     H15387   0.111   6.847   6.224  2.6216 -0.4499  0.7963
  855MOL0     H15388   0.296   6.700   6.169 -1.1389 -1.4286  0.9584
  855MOL0     H15389   0.515   6.597   6.088  0.9507  0.0401 -1.6146
  855MOL0     H15390   0.371   6.496   6.041 -1.3231  1.6908 -2.5441
  855MOL0     H15391   0.631   6.538   5.879 -0.2560  0.7522  1.4754
  855MOL0     H15392   0.614   6.410   5.995  1.5946  1.6269  0.5050
  855MOL0     H15393   0.413   6.316   5.831 -0.9280 -0.5826  0.4747
  855MOL0     H15394   0.492   6.433   5.730  1.6424  0.2050  0.0767
  855MOL0     H15395   0.612   6.184   5.865 -1.6024 -1.6555 -2.4735
  855MOL0     H15396   0.710   6.296   5.768 -0.2648  0.1355  1.2372
  855MOL0     H15397   0.556   6.300   5.582 -0.6603  2.4029  2.0356
  855MOL0     H15398   0.453   6.177   5.651 -0.1947 -0.0351 -3.8879
  855MOL0     H15399   0.746   6.112   5.627 -1.0805  2.9173 -0.6049
  855MOL0     H15400   0.610   6.013   5.680 -2.9457  0.3158 -1.0002
  855MOL0     H15401   0.633   6.148   5.404 -0.6569 -1.1369  0.3355
  855MOL0     H15402   0.511   6.033   5.460 -0.1972  0.0858  1.8492
  855MOL0     H15403   0.689   5.943   5.299 -3.3894  1.2664  0.0212
  855MOL0     H15404   0.818   5.982   5.411 -0.9245 -0.6886 -2.1415
  855MOL0     H15405   0.284   6.794   5.758  2.2149 -3.7320  2.9697
  855MOL0     H15406   0.098   6.949   5.793  1.4328  1.3930 -1.4780
  855MOL0     H15407  -0.364   7.082   5.851 -2.9166 -1.1047 -1.6433
  855MOL0     H15408  -0.594   7.057   5.941  0.9271 -0.8438 -0.5668
  855MOL0     H15409  -0.282   7.297   6.624  0.0386  1.7238  3.5234
  855MOL0     H15410  -0.094   7.349   6.457  0.8007 -0.2116  1.2755
  855MOL0     H15411   0.096   7.624   6.132  0.3696 -0.7045 -0.7347
  855MOL0     H15412   0.311   7.635   6.001 -1.4494  0.4902  0.1274
  855MOL0     H15413   0.576   7.462   6.171  0.2714  1.2809  0.6060
  855MOL0     H15414   0.705   7.548   6.096  0.2251  2.8910 -2.7081
  855MOL0     H15415   0.659   7.474   5.894  0.8902 -0.7828  0.3901
  855MOL0     H15416   0.511   7.571   5.905  2.9731  2.2509  1.0173
  855MOL0     H15417   0.463   7.338   5.822  3.6403  0.0221 -0.5943
  855MOL0     H15418   0.376   7.386   5.969 -0.6193 -1.8590  0.9356
  855MOL0     H15419   0.513   7.216   6.094  0.0456 -0.5645 -0.2089
  855MOL0     H15420   0.468   7.143   5.940  1.6679  1.2622 -2.4300
  855MOL0     H15421   0.878   7.119   5.898  0.9651  1.8102  2.2235
  855MOL0     H15422   0.518   7.708   6.369  0.5377  0.1102  0.0794
  855MOL0     H15423   0.415   7.734   6.564  1.1125  0.0998 -3.3786
  855MOL0     H15424   0.269   7.842   6.557  0.4940 -0.0019  0.4281
  855MOL0     H15425   0.272   7.663   6.599  0.4885 -0.9120 -0.1179
  856MOL0     O15426   9.681   8.908   2.663 -0.1110 -0.1283 -0.6500
  856MOL0     C15427   9.579   8.930   2.742 -0.4352  0.7325  0.6531
  856MOL0     O15428   9.550   8.856   2.854  0.4439 -0.1189 -0.0047
  856MOL0     C15429   9.637   8.755   2.884  0.0580 -0.2289 -0.3235
  856MOL0     C15430   9.656   8.641   2.793 -1.4351  0.7890 -0.4930
  856MOL0     C15431   9.720   8.526   2.838 -1.7222  0.1123 -0.8637
  856MOL0     C15432   9.781   8.523   2.963 -0.2689  0.4733  0.0645
  856MOL0     O15433   9.852   8.414   3.025  0.5112 -0.4634 -0.0974
  856MOL0     C15434   9.830   8.289   2.965 -0.3657 -0.3663 -0.7049
  856MOL0     C15435   9.896   8.184   3.063  0.0047 -0.1282 -0.8304
  856MOL0     C15436   9.870   8.037   3.022  0.2448 -0.5137  0.2187
  856MOL0     C15437   9.936   7.996   2.892 -1.3330 -0.8712  0.6375
  856MOL0     C15438   9.914   7.844   2.866 -0.1250  0.5844 -0.6027
  856MOL0     C15439   9.792   7.808   2.786 -0.2650  0.6339 -0.0268
  856MOL0     C15440   9.823   7.670   2.723 -0.8404  0.0883 -0.1890
  856MOL0     C15441   9.715   7.602   2.646  0.2665  0.9587  0.2740
  856MOL0     N15442   9.687   7.666   2.512  0.2878  0.2742  0.1055
  856MOL0     C15443   9.761   7.647   2.397  0.1514  0.0595 -0.2574
  856MOL0     C15444   9.695   7.724   2.296 -0.6581  0.2940 -0.5707
  856MOL0     C15445   9.762   7.763   2.170 -0.2521 -0.6166 -0.1988
  856MOL0     C15446   9.747   7.913   2.144  0.1955 -0.7308  0.6538
  856MOL0     C15447   9.857   7.998   2.210 -0.6988 -0.3688 -0.4528
  856MOL0     C15448   9.812   8.029   2.354 -0.5805  0.6978  0.3901
  856MOL0     O15449   9.891   8.162   2.383  0.2056  0.0222 -0.2489
  856MOL0     C15450   9.985   8.148   2.486 -0.8040  0.2942  0.0341
  856MOL0     C15451  10.082   8.044   2.486  0.3129  0.0832 -0.5289
  856MOL0     C15452  10.164   8.024   2.594  0.2034 -1.0068 -0.2259
  856MOL0     C15453  10.175   8.128   2.693  0.4324 -0.4573 -0.0993
  856MOL0     C15454  10.286   8.124   2.802  0.5559  0.6108  0.5761
  856MOL0     O15455  10.332   8.240   2.850 -0.8525  0.1150 -0.1980
  856MOL0     C15456  10.409   8.227   2.969  0.7611  0.5532  0.1119
  856MOL0     C15457  10.351   8.171   3.085  0.6583  0.7044 -0.5912
  856MOL0     C15458  10.438   8.135   3.192 -0.4742  0.2499 -0.1822
  856MOL0     C15459  10.583   8.148   3.184  0.1705  0.8444 -0.7393
  856MOL0     O15460  10.674   8.084   3.268 -0.3657 -0.2758 -1.2662
  856MOL0     C15461  10.784   8.170   3.312 -0.1895  0.1846 -0.0466
  856MOL0     C15462  10.921   8.115   3.283 -0.7556  0.3186 -0.2509
  856MOL0     C15463  10.958   8.002   3.377  0.9577  0.1207 -0.3707
  856MOL0     C15464  11.090   7.926   3.353 -0.3384 -0.1540  0.6856
  856MOL0     C15465  11.192   8.022   3.297 -0.2456 -0.1880  0.9816
  856MOL0     C15466  11.330   7.954   3.298 -0.5442 -0.6801  0.2010
  856MOL0     C15467  11.449   8.051   3.276  0.0050  0.8848 -0.4149
  856MOL0     C15468  11.584   7.972   3.294  0.9033 -0.3976 -0.7808
  856MOL0    Cl15469  11.721   8.089   3.305 -0.1842  0.3908 -0.1702
  856MOL0     C15470  10.630   8.227   3.073 -0.0124 -0.1980 -1.2323
  856MOL0     C15471  10.539   8.267   2.969 -0.1110  0.8156  0.0668
  856MOL0     O15472  10.337   8.013   2.827  0.4114  0.1374  0.0755
  856MOL0     C15473  10.098   8.243   2.677  0.8107 -0.1809 -0.0280
  856MOL0     C15474   9.997   8.249   2.583  0.5459  1.0284 -0.7667
  856MOL0     N15475   9.583   7.789   2.365  0.6566 -0.2028 -0.3911
  856MOL0     N15476   9.581   7.754   2.489 -0.3211  0.5468  0.1691
  856MOL0     C15477   9.772   8.637   3.052  0.6696  0.8655  0.5427
  856MOL0     C15478   9.699   8.749   3.009 -0.0518  0.1149  0.0739
  856MOL0     C15479   9.503   9.063   2.718 -0.5358  0.3065 -0.0444
  856MOL0     C15480   9.407   9.097   2.816 -0.8971 -0.3940  0.4006
  856MOL0     C15481   9.313   9.205   2.792  0.3580  0.6678 -0.3474
  856MOL0     C15482   9.324   9.287   2.684 -0.1969 -0.2279  0.2499
  856MOL0     O15483   9.222   9.385   2.667 -0.0347 -0.8595  0.2313
  856MOL0     C15484   9.275   9.519   2.668 -0.1880 -1.0278 -0.0390
  856MOL0     C15485   9.167   9.619   2.670 -0.6235  0.6304  0.1690
  856MOL0     C15486   9.053   9.590   2.564  0.2654  0.3756  0.3434
  856MOL0     C15487   9.044   9.696   2.457  1.0815  0.6700 -0.0078
  856MOL0     C15488   8.971   9.811   2.502  1.5721 -0.1381  0.1408
  856MOL0     C15489   8.888   9.896   2.531 -0.7470 -0.0442 -0.0040
  856MOL0     C15490   9.423   9.258   2.590 -0.2907  0.2689  0.3064
  856MOL0     C15491   9.510   9.144   2.598  0.7604 -0.2420 -0.1963
  856MOL0     C15492   9.583   9.118   2.480 -0.2249 -0.1849 -0.0636
  856MOL0     H15493   9.621   8.643   2.690  2.0266  1.5605 -1.8080
  856MOL0     H15494   9.736   8.438   2.777 -3.5946  0.9404 -2.6461
  856MOL0     H15495   9.725   8.265   2.945 -0.1236 -1.3926 -0.8088
  856MOL0     H15496   9.882   8.278   2.869  1.7972  1.5291  0.1513
  856MOL0     H15497   9.868   8.204   3.167 -0.0337 -1.1855 -0.6264
  856MOL0     H15498  10.004   8.202   3.060 -0.1280  0.6842 -1.3253
  856MOL0     H15499   9.763   8.019   3.012 -0.1486  1.5473  0.3167
  856MOL0     H15500   9.905   7.961   3.093  1.9569 -1.2408 -1.2891
  856MOL0     H15501   9.891   8.060   2.815 -1.2602  0.3413  1.5693
  856MOL0     H15502  10.043   8.020   2.888 -1.6630  0.4513 -1.9629
  856MOL0     H15503  10.002   7.807   2.812 -0.4972  1.1540 -1.6235
  856MOL0     H15504   9.913   7.800   2.966  0.1320  0.2578 -0.7386
  856MOL0     H15505   9.700   7.796   2.844  0.3553 -2.5874  0.4786
  856MOL0     H15506   9.775   7.890   2.715  0.2547  1.7197  1.0646
  856MOL0     H15507   9.866   7.599   2.794  2.4374  2.7889  0.8151
  856MOL0     H15508   9.911   7.684   2.659  1.0112  0.5328  2.2831
  856MOL0     H15509   9.734   7.497   2.619 -0.5508 -0.0207  3.1769
  856MOL0     H15510   9.612   7.604   2.684 -1.2290 -0.7255 -3.2156
  856MOL0     H15511   9.849   7.585   2.388  1.2488  1.1442  2.1237
  856MOL0     H15512   9.866   7.729   2.175 -0.4507 -0.9862  2.3841
  856MOL0     H15513   9.705   7.716   2.088  0.5052  0.7733 -1.5785
  856MOL0     H15514   9.749   7.931   2.036  3.2053  1.8467  0.9970
  856MOL0     H15515   9.643   7.941   2.165  0.7006 -0.3876  2.8783
  856MOL0     H15516   9.866   8.088   2.149  0.7170 -0.9826 -1.2062
  856MOL0     H15517   9.955   7.950   2.201 -0.9766 -1.0669  0.0914
  856MOL0     H15518   9.835   7.945   2.420  2.9669  0.3295 -1.0953
  856MOL0     H15519   9.704   8.046   2.349 -1.0073 -0.4001  3.4655
  856MOL0     H15520  10.090   7.969   2.408 -1.9141 -0.1601 -0.5735
  856MOL0     H15521  10.232   7.941   2.605 -0.3040 -1.2157  1.8872
  856MOL0     H15522  10.246   8.143   3.094  0.7947  0.8484  3.0873
  856MOL0     H15523  10.411   8.075   3.278  1.0490 -0.9781 -0.5318
  856MOL0     H15524  10.780   8.270   3.269  3.3391  0.5635  0.2689
  856MOL0     H15525  10.770   8.188   3.419  1.6166  2.1606 -0.0890
  856MOL0     H15526  10.927   8.081   3.179 -2.0961 -1.4268  0.2057
  856MOL0     H15527  10.999   8.190   3.301 -1.4210  0.7802  0.8370
  856MOL0     H15528  10.966   8.049   3.475  4.3661  2.4761 -1.5875
  856MOL0     H15529  10.869   7.938   3.385 -1.1439  3.0727  1.7453
  856MOL0     H15530  11.070   7.841   3.287  0.3434  0.6723 -0.6337
  856MOL0     H15531  11.117   7.886   3.451  1.1478  0.5541  0.5840
  856MOL0     H15532  11.195   8.101   3.372 -1.6932  1.2072 -0.3688
  856MOL0     H15533  11.168   8.051   3.194  1.5987 -0.4543  0.4247
  856MOL0     H15534  11.345   7.918   3.400  1.0491  2.5160  1.2118
  856MOL0     H15535  11.336   7.872   3.225  2.6655  1.4126 -2.1730
  856MOL0     H15536  11.439   8.129   3.351  1.2886 -2.9907  4.3377
  856MOL0     H15537  11.442   8.098   3.177 -2.6796 -3.4938 -2.6883
  856MOL0     H15538  11.571   7.918   3.388  1.3686  1.7746  0.5870
  856MOL0     H15539  11.611   7.907   3.210  1.4843 -0.6429 -0.4023
  856MOL0     H15540  10.735   8.251   3.064  0.5379 -1.5095  1.1078
  856MOL0     H15541  10.571   8.330   2.887  2.5632 -1.0704 -0.4947
  856MOL0     H15542  10.095   8.329   2.742 -0.0843 -0.1006 -0.1616
  856MOL0     H15543   9.939   8.341   2.585 -1.5330 -0.2272 -0.1525
  856MOL0     H15544   9.813   8.627   3.152 -1.2924  0.2187  1.3305
  856MOL0     H15545   9.691   8.835   3.075  1.3456  1.7838 -1.7737
  856MOL0     H15546   9.407   9.044   2.911 -1.0184  0.1175  0.6882
  856MOL0     H15547   9.223   9.203   2.852  0.9574  1.0441  0.5906
  856MOL0     H15548   9.334   9.537   2.578  0.7558  2.1010  1.0625
  856MOL0     H15549   9.340   9.543   2.753  0.6513  0.1200 -0.9714
  856MOL0     H15550   9.206   9.721   2.667  0.3451  0.3034  1.0500
  856MOL0     H15551   9.114   9.607   2.766 -1.2042 -3.3253 -0.4442
  856MOL0     H15552   8.957   9.570   2.612 -0.7952  0.4679 -1.6084
  856MOL0     H15553   9.066   9.498   2.506  1.7496  1.4063 -1.0505
  856MOL0     H15554   9.146   9.725   2.428  0.8714  0.9102 -0.5137
  856MOL0     H15555   8.997   9.654   2.368  2.4200  0.3355 -0.5795
  856MOL0     H15556   8.831   9.980   2.566 -2.1475 -0.4613 -1.1888
  856MOL0     H15557   9.421   9.311   2.495 -0.9438  0.4139  0.3965
  856MOL0     H15558   9.541   9.160   2.389 -1.4081  1.6965  1.2707
  856MOL0     H15559   9.688   9.148   2.493 -0.7103  1.7136 -0.2147
  856MOL0     H15560   9.574   9.010   2.466  2.0369 -0.0698 -3.5839
  857MOL0     O15561   0.326   1.232   7.619  0.6902  0.5614 -0.2960
  857MOL0     C15562   0.410   1.300   7.565  1.1760 -0.9585 -0.3977
  857MOL0     O15563   0.539   1.289   7.574 -0.6440  0.1381  0.6083
  857MOL0     C15564   0.594   1.166   7.619  0.8470 -0.9475 -0.0162
  857MOL0     C15565   0.549   1.087   7.724  0.3270  0.6735 -0.1944
  857MOL0     C15566   0.612   0.967   7.749 -0.9196  0.1627  0.2196
  857MOL0     C15567   0.720   0.931   7.673  0.7084 -0.2203  0.8868
  857MOL0     O15568   0.789   0.818   7.688 -0.1359  0.1043 -0.1823
  857MOL0     C15569   0.813   0.767   7.828  1.0017 -0.4879 -0.0035
  857MOL0     C15570   0.933   0.813   7.900  0.4568 -1.0308  0.4807
  857MOL0     C15571   1.052   0.770   7.824 -0.9811  0.4173  0.2473
  857MOL0     C15572   1.188   0.784   7.899 -0.4392  0.2470 -0.7205
  857MOL0     C15573   1.300   0.716   7.823 -0.8906 -0.1378  0.2422
  857MOL0     C15574   1.444   0.767   7.857  0.1462  0.1374 -0.1912
  857MOL0     C15575   1.480   0.716   7.997 -0.5514  0.6180 -0.1575
  857MOL0     C15576   1.607   0.761   8.071  0.3332  0.5737  0.2264
  857MOL0     N15577   1.723   0.718   8.001  0.7300 -0.1972  0.8713
  857MOL0     C15578   1.805   0.615   8.039 -0.4901 -0.4097 -0.4500
  857MOL0     C15579   1.904   0.606   7.944 -0.3036 -0.2160  0.4239
  857MOL0     C15580   2.028   0.523   7.948  0.7385 -0.3357 -0.4105
  857MOL0     C15581   2.056   0.454   7.807  0.3398 -1.2059 -0.0347
  857MOL0     C15582   2.166   0.350   7.818 -0.0274  0.0472 -0.2175
  857MOL0     C15583   2.306   0.415   7.840  0.8760  0.2789  0.4521
  857MOL0     O15584   2.400   0.304   7.832 -0.1503 -0.1252  0.1251
  857MOL0     C15585   2.494   0.315   7.931 -0.9853 -0.1854 -0.1743
  857MOL0     C15586   2.629   0.322   7.884  0.3136  0.2163 -0.0660
  857MOL0     C15587   2.733   0.339   7.977 -0.0515 -0.0051  0.4500
  857MOL0     C15588   2.705   0.347   8.116  1.7792 -0.3430 -0.2055
  857MOL0     C15589   2.821   0.342   8.213  0.2500  0.9055 -0.4210
  857MOL0     O15590   2.788   0.259   8.321 -0.1262  0.6044 -0.1034
  857MOL0     C15591   2.868   0.254   8.434 -0.1867  0.2062 -0.0784
  857MOL0     C15592   2.951   0.354   8.486  0.1415  0.1056 -0.0512
  857MOL0     C15593   3.025   0.330   8.604 -0.6979 -0.8483 -0.6101
  857MOL0     C15594   3.008   0.212   8.680  0.4712  0.1451  0.2208
  857MOL0     O15595   3.085   0.200   8.789 -0.1188 -0.1805  0.4143
  857MOL0     C15596   3.150   0.072   8.814  0.3040 -0.1206 -0.2727
  857MOL0     C15597   3.076  -0.006   8.927 -0.6276  0.6098 -0.5428
  857MOL0     C15598   3.097  -0.164   8.933 -0.9741 -0.6801  0.5717
  857MOL0     C15599   2.996  -0.240   9.021  0.3898 -0.0410  0.5181
  857MOL0     C15600   3.024  -0.386   9.046 -0.0045  0.1224  0.9584
  857MOL0     C15601   3.165  -0.420   9.085 -0.3362 -0.1535  0.0481
  857MOL0     C15602   3.181  -0.571   9.112 -0.1544  0.1336  1.1550
  857MOL0     C15603   3.333  -0.613   9.087  0.0212  0.0262  0.4583
  857MOL0    Cl15604   3.447  -0.522   9.196  0.0481  0.1740  0.1723
  857MOL0     C15605   2.921   0.118   8.622 -0.4455 -0.2652 -0.4842
  857MOL0     C15606   2.849   0.142   8.505  0.4072 -0.3468 -0.0287
  857MOL0     O15607   2.924   0.406   8.190 -0.3058  0.5374 -0.7244
  857MOL0     C15608   2.568   0.341   8.165  0.0221  0.7677  0.7835
  857MOL0     C15609   2.463   0.324   8.071 -0.2026 -0.4284 -0.0282
  857MOL0     N15610   1.876   0.708   7.851 -0.0513 -0.3688  0.1296
  857MOL0     N15611   1.772   0.776   7.877 -0.7621 -0.0871 -0.9289
  857MOL0     C15612   0.766   1.007   7.570  0.9969  0.0028 -0.2791
  857MOL0     C15613   0.703   1.127   7.549 -0.2150  0.2384  0.3402
  857MOL0     C15614   0.364   1.417   7.483 -0.5996 -0.2855  0.4377
  857MOL0     C15615   0.456   1.515   7.437 -0.1834  0.6947 -0.4131
  857MOL0     C15616   0.417   1.637   7.370  0.8833  0.8819  0.5394
  857MOL0     C15617   0.287   1.663   7.337  0.4280 -0.8819 -0.2412
  857MOL0     O15618   0.270   1.781   7.268 -0.0870 -0.9304 -0.6498
  857MOL0     C15619   0.133   1.831   7.253  0.2512  0.5741  0.8008
  857MOL0     C15620   0.139   1.979   7.207 -1.3808 -0.3652 -0.4516
  857MOL0     C15621   0.214   2.060   7.316 -0.3602 -0.2356  0.5502
  857MOL0     C15622   0.340   2.134   7.251  0.2375  0.3356 -0.4694
  857MOL0     C15623   0.411   2.208   7.364 -0.2639  0.6216  0.7174
  857MOL0     C15624   0.466   2.249   7.469 -0.3185  0.4956 -0.2018
  857MOL0     C15625   0.192   1.560   7.372 -0.2077  0.7838 -0.6206
  857MOL0     C15626   0.231   1.446   7.443  0.9593  0.9307  0.3399
  857MOL0     C15627   0.104   1.350   7.477  0.2014 -1.0279 -0.7870
  857MOL0     H15628   0.463   1.119   7.782  0.3389 -2.4430  1.8030
  857MOL0     H15629   0.574   0.900   7.826 -0.0871  0.6880  1.1207
  857MOL0     H15630   0.729   0.768   7.898  1.4605 -0.0169  0.5467
  857MOL0     H15631   0.824   0.658   7.824 -1.8798 -0.8432 -3.5427
  857MOL0     H15632   0.947   0.775   8.002  0.9966 -1.4161  0.2636
  857MOL0     H15633   0.922   0.922   7.907  2.8666 -0.8097  1.9121
  857MOL0     H15634   1.066   0.828   7.732 -0.6628  0.3206  0.2326
  857MOL0     H15635   1.034   0.663   7.818 -1.6501  0.6129 -2.1936
  857MOL0     H15636   1.217   0.888   7.918 -1.5207 -0.0002  3.2351
  857MOL0     H15637   1.193   0.730   7.994  2.9945 -0.1819 -0.9981
  857MOL0     H15638   1.309   0.609   7.845 -1.8830 -0.1043  0.8627
  857MOL0     H15639   1.278   0.741   7.719 -0.0756 -0.5069 -0.0258
  857MOL0     H15640   1.520   0.731   7.788  0.3466 -1.1243  0.6461
  857MOL0     H15641   1.443   0.876   7.856 -1.6314  0.1849  1.3448
  857MOL0     H15642   1.480   0.607   7.993  2.1570  0.4939  1.1512
  857MOL0     H15643   1.397   0.746   8.061 -1.4677 -2.7657  0.3927
  857MOL0     H15644   1.602   0.869   8.084  1.0745  0.5475  0.7590
  857MOL0     H15645   1.607   0.722   8.173 -0.5450  0.0540  0.0414
  857MOL0     H15646   1.803   0.545   8.122  0.3386 -1.0046 -0.9237
  857MOL0     H15647   2.113   0.580   7.987  1.0871  0.0340 -1.6579
  857MOL0     H15648   2.018   0.439   8.018  3.9328  2.0711  3.3285
  857MOL0     H15649   1.969   0.393   7.779 -0.3299 -0.3543  0.1644
  857MOL0     H15650   2.073   0.528   7.729 -0.6684 -1.1542 -0.2172
  857MOL0     H15651   2.173   0.292   7.726  0.3387 -0.1393 -0.0721
  857MOL0     H15652   2.143   0.278   7.897 -0.7148 -0.1307 -0.5718
  857MOL0     H15653   2.301   0.467   7.936 -1.2920  0.4113  0.3278
  857MOL0     H15654   2.323   0.476   7.750  0.5296 -1.0144 -0.5089
  857MOL0     H15655   2.653   0.311   7.778  1.6655 -1.6241  0.3829
  857MOL0     H15656   2.832   0.326   7.935 -0.5932 -0.1225 -0.8427
  857MOL0     H15657   2.963   0.450   8.438 -5.9037  1.2592 -0.0949
  857MOL0     H15658   3.096   0.404   8.641 -1.1625 -0.4885 -0.4207
  857MOL0     H15659   3.141   0.012   8.723  0.0660  0.5724 -0.7172
  857MOL0     H15660   3.256   0.091   8.832  0.6809 -4.2833  3.7433
  857MOL0     H15661   3.107   0.033   9.024  2.1754 -3.5574  0.4766
  857MOL0     H15662   2.969   0.018   8.916 -0.4805  3.3630  2.4534
  857MOL0     H15663   3.083  -0.209   8.834  0.4291 -0.7633  0.3886
  857MOL0     H15664   3.201  -0.191   8.951  0.2567  2.3544 -1.2804
  857MOL0     H15665   2.899  -0.244   8.972  1.7835 -0.5005 -2.4572
  857MOL0     H15666   2.971  -0.186   9.113 -2.1061  0.6434 -0.4867
  857MOL0     H15667   2.977  -0.448   8.969  0.8499 -1.1656  1.4378
  857MOL0     H15668   2.954  -0.405   9.128 -2.1097  0.6902 -0.6196
  857MOL0     H15669   3.226  -0.393   8.999 -0.8757  1.7992  0.2206
  857MOL0     H15670   3.182  -0.359   9.174  1.1658  1.0856 -1.0391
  857MOL0     H15671   3.117  -0.625   9.042  0.4189 -0.1622  0.8520
  857MOL0     H15672   3.150  -0.598   9.214  2.5045 -1.0811  1.7269
  857MOL0     H15673   3.353  -0.720   9.101  0.4513  0.0366 -0.0293
  857MOL0     H15674   3.364  -0.588   8.985 -0.5142 -0.0225  0.2791
  857MOL0     H15675   2.931   0.017   8.662  0.5627  0.6351  1.7039
  857MOL0     H15676   2.790   0.066   8.454 -1.5780 -0.5033  2.2887
  857MOL0     H15677   2.543   0.344   8.271  0.6606  2.9193  0.9279
  857MOL0     H15678   2.359   0.316   8.098  0.3757 -0.0473  2.5555
  857MOL0     H15679   0.854   0.977   7.515  1.6468  2.6614 -0.7983
  857MOL0     H15680   0.750   1.178   7.465  2.5368 -2.8655 -0.2161
  857MOL0     H15681   0.563   1.507   7.453 -0.2934  3.4409  3.0009
  857MOL0     H15682   0.504   1.701   7.356  0.0680  2.0501  0.6717
  857MOL0     H15683   0.071   1.819   7.343  2.1436 -5.2063  1.7177
  857MOL0     H15684   0.077   1.769   7.183 -1.0048  0.6026  1.7422
  857MOL0     H15685   0.035   2.009   7.186 -1.9248 -2.4830 -0.9877
  857MOL0     H15686   0.189   1.988   7.110  0.9152  1.5601  0.7998
  857MOL0     H15687   0.249   1.986   7.388 -1.9797 -1.4207  0.1776
  857MOL0     H15688   0.141   2.125   7.365 -0.8036 -0.1732 -0.1748
  857MOL0     H15689   0.417   2.072   7.204  0.2987  0.2528 -0.2624
  857MOL0     H15690   0.302   2.192   7.166 -0.3055 -1.0745 -1.2218
  857MOL0     H15691   0.514   2.283   7.559  1.0607 -4.3106  1.1511
  857MOL0     H15692   0.091   1.590   7.344 -0.2783 -0.2605 -1.5617
  857MOL0     H15693   0.015   1.408   7.456  0.5658  1.0394  2.6156
  857MOL0     H15694   0.108   1.266   7.407  2.2432 -3.0918  1.5575
  857MOL0     H15695   0.093   1.324   7.583 -3.1127  2.1059 -0.1712
  858MOL0     O15696   0.702   5.945   3.745  0.4844  0.3818  1.0070
  858MOL0     C15697   0.762   5.934   3.851  1.1708  0.3437  0.2524
  858MOL0     O15698   0.708   5.862   3.959 -0.3041 -0.6798 -0.0355
  858MOL0     C15699   0.577   5.848   3.939 -1.1082 -1.2052 -0.6323
  858MOL0     C15700   0.518   5.740   3.869  0.0791 -0.4407 -0.4028
  858MOL0     C15701   0.381   5.733   3.852  0.4219  0.0928  0.3280
  858MOL0     C15702   0.299   5.823   3.916  0.2800  0.6568  0.2939
  858MOL0     O15703   0.160   5.804   3.899 -0.5108  0.4146 -0.1839
  858MOL0     C15704   0.083   5.824   4.015 -0.2304 -0.3321  0.1109
  858MOL0     C15705  -0.071   5.789   3.985  0.3375 -0.2438  0.1785
  858MOL0     C15706  -0.081   5.644   3.932  0.2793 -0.6156  0.7413
  858MOL0     C15707  -0.203   5.637   3.843  0.3760  0.9101 -0.7501
  858MOL0     C15708  -0.203   5.499   3.779 -0.5030  0.2599  0.1743
  858MOL0     C15709  -0.289   5.504   3.651 -0.3552  0.0090  0.0897
  858MOL0     C15710  -0.333   5.364   3.602 -0.0160 -0.0494  0.5103
  858MOL0     C15711  -0.414   5.283   3.706 -0.2661  0.2138 -0.4789
  858MOL0     N15712  -0.486   5.173   3.630 -0.3606 -1.2311 -0.0518
  858MOL0     C15713  -0.424   5.082   3.547 -1.0889 -1.4886 -0.0416
  858MOL0     C15714  -0.525   5.036   3.467  1.0761 -1.0081  0.0035
  858MOL0     C15715  -0.503   4.922   3.366  0.2122 -0.1868  0.1111
  858MOL0     C15716  -0.602   4.807   3.404  0.0142  1.2651  0.3714
  858MOL0     C15717  -0.561   4.671   3.337 -0.5397  0.6337 -0.6084
  858MOL0     C15718  -0.452   4.598   3.418  0.0077 -0.6253 -0.1096
  858MOL0     O15719  -0.335   4.679   3.436 -0.4469  0.5453 -0.3680
  858MOL0     C15720  -0.263   4.657   3.555  0.1820  0.2365  0.7465
  858MOL0     C15721  -0.178   4.756   3.603  0.0641 -0.2157 -0.4403
  858MOL0     C15722  -0.092   4.737   3.715 -0.1896  0.7963 -0.9234
  858MOL0     C15723  -0.084   4.607   3.777  0.1158 -0.6507  0.2991
  858MOL0     C15724   0.022   4.577   3.879 -0.0909  0.1331 -0.7722
  858MOL0     O15725   0.097   4.679   3.934 -0.4238 -0.6375  0.6450
  858MOL0     C15726   0.187   4.655   4.036 -0.3011 -0.1921  0.6704
  858MOL0     C15727   0.170   4.733   4.152  0.4374  0.0005  0.9710
  858MOL0     C15728   0.256   4.738   4.253  0.2023 -0.1033 -0.2791
  858MOL0     C15729   0.375   4.653   4.251  0.6758 -0.3047  0.1362
  858MOL0     O15730   0.450   4.633   4.366  0.0752  0.2329  0.1633
  858MOL0     C15731   0.458   4.727   4.480  0.2695  0.1893 -0.1512
  858MOL0     C15732   0.588   4.718   4.554  0.0305 -0.2159 -0.3839
  858MOL0     C15733   0.705   4.794   4.496 -0.3277 -0.5255  0.6406
  858MOL0     C15734   0.835   4.759   4.559  0.2877 -0.1062 -0.0021
  858MOL0     C15735   0.952   4.833   4.489 -0.4157  0.1515  0.0901
  858MOL0     C15736   1.084   4.777   4.539 -0.5039 -0.2366 -0.3433
  858MOL0     C15737   1.211   4.792   4.448  1.0064  0.0709 -0.4618
  858MOL0     C15738   1.258   4.935   4.429 -0.1539  0.3141  0.0114
  858MOL0    Cl15739   1.156   5.016   4.314 -0.1019 -0.1224  0.1701
  858MOL0     C15740   0.382   4.570   4.144 -0.3457  0.1865  0.4069
  858MOL0     C15741   0.296   4.572   4.027 -1.1788 -0.1758 -1.3827
  858MOL0     O15742   0.026   4.466   3.927  0.2425 -0.2470  0.1312
  858MOL0     C15743  -0.174   4.510   3.731  0.1463 -0.6451 -0.2870
  858MOL0     C15744  -0.256   4.537   3.618 -0.0022  0.2753  0.3612
  858MOL0     N15745  -0.637   5.106   3.502  0.4802 -0.3495  0.9599
  858MOL0     N15746  -0.615   5.177   3.606  0.3379  0.2279  0.5395
  858MOL0     C15747   0.355   5.938   3.970 -0.8999  0.4002 -0.0308
  858MOL0     C15748   0.494   5.947   3.995 -0.2133 -0.3187  0.5329
  858MOL0     C15749   0.902   5.967   3.863  0.0550 -0.9488  0.5474
  858MOL0     C15750   0.948   5.970   3.997 -0.2830 -0.5752  1.1550
  858MOL0     C15751   1.087   6.008   4.023 -0.7475  0.0681 -0.7305
  858MOL0     C15752   1.180   6.031   3.911  0.1498 -0.0071 -0.1045
  858MOL0     O15753   1.318   6.055   3.917 -0.4775 -0.4284  0.2513
  858MOL0     C15754   1.372   6.080   4.051  0.5014  0.4910 -0.3010
  858MOL0     C15755   1.513   6.138   4.039  0.8886 -0.0824  0.8246
  858MOL0     C15756   1.592   6.091   4.156 -0.4885 -0.3081  0.0552
  858MOL0     C15757   1.641   5.940   4.150  0.8727 -0.3068 -0.1470
  858MOL0     C15758   1.750   5.930   4.050  0.1078  0.1634  0.1800
  858MOL0     C15759   1.840   5.915   3.973  0.1042  0.2878 -0.0094
  858MOL0     C15760   1.129   6.016   3.781 -0.4809 -0.7931 -0.0279
  858MOL0     C15761   0.990   6.004   3.753  0.1470  0.0452  0.0909
  858MOL0     C15762   0.938   6.025   3.608 -0.1911  0.2592  0.4941
  858MOL0     H15763   0.596   5.673   3.835  3.0332  1.8356  1.3343
  858MOL0     H15764   0.333   5.647   3.807 -0.9831  0.5462  0.8895
  858MOL0     H15765   0.131   5.758   4.088  0.9832 -0.2013 -0.5396
  858MOL0     H15766   0.087   5.925   4.055  1.6502  0.0640 -0.9587
  858MOL0     H15767  -0.105   5.857   3.906 -1.2658 -0.3489  0.7493
  858MOL0     H15768  -0.134   5.777   4.073  0.4411 -1.3032  0.1256
  858MOL0     H15769  -0.091   5.582   4.022  0.9305  0.1723  1.3853
  858MOL0     H15770   0.006   5.619   3.870  0.4046  0.4088  0.4877
  858MOL0     H15771  -0.289   5.634   3.910  1.6665 -1.0382  0.9531
  858MOL0     H15772  -0.210   5.705   3.758  0.4800  0.7745 -0.8675
  858MOL0     H15773  -0.101   5.465   3.760 -0.4547 -0.8094  2.1238
  858MOL0     H15774  -0.241   5.418   3.841 -0.2632 -0.7539 -0.9722
  858MOL0     H15775  -0.378   5.566   3.663 -3.0097 -2.7642 -3.1246
  858MOL0     H15776  -0.225   5.552   3.576 -1.6369 -1.6017 -2.1395
  858MOL0     H15777  -0.243   5.306   3.583 -0.1870 -0.7810  1.8013
  858MOL0     H15778  -0.382   5.375   3.505 -1.5630  1.7820  1.4205
  858MOL0     H15779  -0.345   5.246   3.783 -1.5746 -0.4691  0.3994
  858MOL0     H15780  -0.492   5.336   3.762 -0.5003 -0.8204  0.1944
  858MOL0     H15781  -0.319   5.055   3.554 -0.4035  0.4496 -1.8287
  858MOL0     H15782  -0.530   4.945   3.263 -2.1829  1.8908  1.0791
  858MOL0     H15783  -0.397   4.895   3.369  0.2427 -0.1307 -0.3397
  858MOL0     H15784  -0.604   4.782   3.511 -1.0637 -2.7713 -0.4532
  858MOL0     H15785  -0.704   4.838   3.377 -0.2315  1.4696  1.4708
  858MOL0     H15786  -0.527   4.685   3.234  0.2592  0.3708 -0.3895
  858MOL0     H15787  -0.652   4.612   3.328 -1.6616  2.1900  0.1277
  858MOL0     H15788  -0.432   4.507   3.360 -0.2985  0.4726 -2.0499
  858MOL0     H15789  -0.491   4.582   3.519  3.3688  0.3763  1.4855
  858MOL0     H15790  -0.161   4.850   3.552  2.3708 -1.0245 -1.2570
  858MOL0     H15791  -0.013   4.808   3.739 -0.5510  0.3462  1.8934
  858MOL0     H15792   0.075   4.786   4.159 -0.6949 -1.6991 -0.4399
  858MOL0     H15793   0.227   4.785   4.347 -2.8096 -0.0806 -1.1207
  858MOL0     H15794   0.451   4.832   4.447 -0.5745 -0.3870 -1.9281
  858MOL0     H15795   0.385   4.707   4.559 -0.4840  0.2424 -0.8236
  858MOL0     H15796   0.567   4.757   4.654  0.0179 -0.0786 -0.4408
  858MOL0     H15797   0.618   4.614   4.572 -4.4531 -1.4866  0.9437
  858MOL0     H15798   0.713   4.763   4.391  1.5875  0.7268  0.3564
  858MOL0     H15799   0.695   4.903   4.495  3.6094 -0.0031  2.6011
  858MOL0     H15800   0.852   4.652   4.541  3.7769  0.3705 -0.1122
  858MOL0     H15801   0.833   4.781   4.666  3.3882 -0.2775  0.1628
  858MOL0     H15802   0.933   4.939   4.509 -4.0037  0.8105 -4.8279
  858MOL0     H15803   0.932   4.809   4.384 -1.9718 -3.4588  1.0774
  858MOL0     H15804   1.113   4.815   4.638  2.3994 -1.6031 -0.5612
  858MOL0     H15805   1.071   4.671   4.559 -1.4309 -0.2107 -0.7849
  858MOL0     H15806   1.204   4.735   4.356 -1.6945 -0.3064 -0.1022
  858MOL0     H15807   1.298   4.745   4.496 -0.2959 -0.9082  1.0208
  858MOL0     H15808   1.283   4.993   4.519  2.2519  2.0389 -1.6301
  858MOL0     H15809   1.360   4.931   4.388  0.1587  1.7102  0.5846
  858MOL0     H15810   0.458   4.493   4.159 -0.5035 -0.2533 -0.9420
  858MOL0     H15811   0.318   4.504   3.945 -2.5214 -2.6177  0.1661
  858MOL0     H15812  -0.177   4.413   3.780  1.3439 -2.1294 -2.9461
  858MOL0     H15813  -0.320   4.462   3.572 -4.4238  3.8504 -0.0973
  858MOL0     H15814   0.303   6.026   4.008  2.4458  3.3227 -1.5623
  858MOL0     H15815   0.524   6.037   4.048  1.3071  0.6313 -1.7411
  858MOL0     H15816   0.897   5.931   4.084  0.2204 -0.0330  1.7027
  858MOL0     H15817   1.103   6.028   4.128 -0.6942  1.0627 -0.9230
  858MOL0     H15818   1.367   5.985   4.106  0.9753 -1.0762 -2.8447
  858MOL0     H15819   1.311   6.155   4.103  2.9816  2.0501  0.5182
  858MOL0     H15820   1.510   6.248   4.041  0.8365 -0.0680  0.1016
  858MOL0     H15821   1.545   6.119   3.937 -2.4535 -2.2009  0.0263
  858MOL0     H15822   1.533   6.108   4.246 -1.1267  1.0929 -0.5972
  858MOL0     H15823   1.672   6.166   4.158 -1.7379  1.1282 -1.1291
  858MOL0     H15824   1.688   5.915   4.245  1.3992 -1.0690 -0.5989
  858MOL0     H15825   1.555   5.873   4.143  1.8332 -2.1221  3.2215
  858MOL0     H15826   1.925   5.901   3.909  0.2473 -1.0406  0.4348
  858MOL0     H15827   1.192   6.026   3.693  0.3159  0.7466  0.6684
  858MOL0     H15828   1.028   6.017   3.546  0.0498 -0.8634  0.9516
  858MOL0     H15829   0.876   5.939   3.580  2.0659 -1.5665  0.7195
  858MOL0     H15830   0.879   6.115   3.589 -1.3137 -0.6793 -0.6499
  859MOL0     O15831   4.811  10.443  11.110 -0.7561 -0.7299 -0.4063
  859MOL0     C15832   4.743  10.517  11.032  0.4800  0.8944 -0.4096
  859MOL0     O15833   4.765  10.517  10.900 -0.7434 -0.0234  0.5387
  859MOL0     C15834   4.830  10.413  10.834  0.4685  0.7058 -0.3651
  859MOL0     C15835   4.970  10.409  10.821 -0.4352  0.0148  0.9610
  859MOL0     C15836   5.032  10.301  10.766 -0.7561  0.3231 -0.3780
  859MOL0     C15837   4.962  10.201  10.699  0.5764  0.4304  0.5152
  859MOL0     O15838   5.031  10.101  10.642  0.1835 -0.6052  0.5341
  859MOL0     C15839   4.956   9.984  10.608  0.1236  0.9999 -0.1250
  859MOL0     C15840   5.056   9.864  10.584 -0.1357  0.6056 -0.1331
  859MOL0     C15841   5.125   9.860  10.447  1.1671  0.2327 -0.8908
  859MOL0     C15842   5.216   9.746  10.437  0.0110 -0.2752  0.8592
  859MOL0     C15843   5.320   9.765  10.319 -0.6822 -0.0207 -0.0430
  859MOL0     C15844   5.264   9.771  10.177  0.0714 -0.6564  0.5586
  859MOL0     C15845   5.380   9.789  10.074 -0.1855 -0.2170 -0.0684
  859MOL0     C15846   5.426   9.931  10.051  0.0272  0.4420 -0.5025
  859MOL0     N15847   5.314  10.016   9.985  0.1084 -0.2479  0.1212
  859MOL0     C15848   5.219  10.089  10.054 -0.5766  0.6334 -0.0100
  859MOL0     C15849   5.127  10.132   9.959 -0.1117  0.5269 -0.5863
  859MOL0     C15850   4.992  10.188   9.999  0.3346 -0.7932  0.2900
  859MOL0     C15851   4.895  10.105  10.085 -0.3747  0.1563 -0.1192
  859MOL0     C15852   4.843   9.983  10.004  0.2054 -0.1038 -0.4428
  859MOL0     C15853   4.848   9.849  10.074 -0.2371 -0.4466  0.2944
  859MOL0     O15854   4.737   9.837  10.155 -0.8156  0.2687 -1.2658
  859MOL0     C15855   4.753   9.734  10.241  0.8733  0.0697 -0.3604
  859MOL0     C15856   4.813   9.609  10.203 -0.4515 -1.1645  0.9754
  859MOL0     C15857   4.825   9.517  10.311 -0.4632  0.6058 -1.1415
  859MOL0     C15858   4.784   9.538  10.446  0.2647  1.1513  0.4882
  859MOL0     C15859   4.817   9.442  10.555 -0.7060  0.1913  0.4096
  859MOL0     O15860   4.816   9.489  10.677 -0.2516  0.1149 -0.1091
  859MOL0     C15861   4.838   9.398  10.781  0.4651 -0.3956  0.2741
  859MOL0     C15862   4.958   9.400  10.853 -0.2355  0.0055 -0.7171
  859MOL0     C15863   4.977   9.321  10.971 -0.1283  0.5502  0.7817
  859MOL0     C15864   4.890   9.216  10.994  0.2277 -0.9856 -0.8349
  859MOL0     O15865   4.919   9.144  11.105  0.2840  0.1137  0.6431
  859MOL0     C15866   4.824   9.053  11.159 -0.0621  0.3623 -0.1179
  859MOL0     C15867   4.839   8.923  11.085 -0.2278  0.1171 -0.5189
  859MOL0     C15868   4.802   8.800  11.176  0.4605  0.4445 -0.0142
  859MOL0     C15869   4.782   8.677  11.103  0.1056  0.4241  0.2171
  859MOL0     C15870   4.724   8.570  11.189 -0.0518  0.4382 -0.4360
  859MOL0     C15871   4.741   8.424  11.138  0.7291  0.4463  0.6728
  859MOL0     C15872   4.679   8.324  11.236 -0.2345 -0.4814 -0.6051
  859MOL0     C15873   4.722   8.188  11.196  0.3574 -0.3354  0.5504
  859MOL0    Cl15874   4.898   8.154  11.230  0.6052  0.0111  0.5890
  859MOL0     C15875   4.776   9.205  10.917 -0.3248  0.0081 -0.6115
  859MOL0     C15876   4.746   9.308  10.820  0.1527  0.2560 -0.4907
  859MOL0     O15877   4.849   9.321  10.520 -0.5936  0.3858  0.2081
  859MOL0     C15878   4.712   9.666  10.480  0.1459 -1.3044  1.1773
  859MOL0     C15879   4.697   9.756  10.368  0.1596  0.2530  0.1485
  859MOL0     N15880   5.176  10.075   9.838  0.5818  0.5819  0.2469
  859MOL0     N15881   5.288  10.018   9.848  0.1291 -0.7430  0.6196
  859MOL0     C15882   4.813  10.205  10.706 -0.5673 -0.0012 -0.8391
  859MOL0     C15883   4.757  10.312  10.779  0.6513 -0.2011  0.0667
  859MOL0     C15884   4.633  10.599  11.096  0.1860  0.0556 -0.4650
  859MOL0     C15885   4.658  10.640  11.227  0.0298 -2.1296 -0.1524
  859MOL0     C15886   4.564  10.724  11.283  0.8382  0.4166  0.7271
  859MOL0     C15887   4.443  10.761  11.220 -0.6786 -0.4949 -0.1502
  859MOL0     O15888   4.349  10.841  11.273 -0.2387  0.1939  0.2358
  859MOL0     C15889   4.352  10.863  11.414 -0.3880  0.1967 -0.2060
  859MOL0     C15890   4.240  10.962  11.449  0.0154  0.1230 -0.0036
  859MOL0     C15891   4.223  10.961  11.596  0.2604  0.1627 -0.5396
  859MOL0     C15892   4.110  11.050  11.638  0.0617 -0.0196 -0.1841
  859MOL0     C15893   4.131  11.068  11.782  0.5931 -0.8520 -0.5734
  859MOL0     C15894   4.148  11.095  11.901 -0.6091  0.1073  0.5196
  859MOL0     C15895   4.413  10.700  11.099  0.2906 -0.7031 -0.3249
  859MOL0     C15896   4.508  10.622  11.031 -0.3436  0.7787  1.0474
  859MOL0     C15897   4.478  10.575  10.897 -0.6245  0.2801  0.9918
  859MOL0     H15898   5.024  10.499  10.848 -0.6041  1.9453 -4.0273
  859MOL0     H15899   5.140  10.297  10.773 -0.7519 -0.9899 -0.9813
  859MOL0     H15900   4.884   9.971  10.690 -1.1427  4.3601 -0.5788
  859MOL0     H15901   4.896  10.001  10.518  0.6832  0.9822 -0.5053
  859MOL0     H15902   5.009   9.766  10.591  0.5987 -0.2873 -4.6091
  859MOL0     H15903   5.135   9.870  10.659 -0.2646 -0.2439  0.0737
  859MOL0     H15904   5.186   9.950  10.439  2.0974 -0.3648 -0.6136
  859MOL0     H15905   5.048   9.856  10.369  0.0614 -0.6701  0.1892
  859MOL0     H15906   5.279   9.752  10.526 -0.2549  2.1965  0.9410
  859MOL0     H15907   5.165   9.650  10.424  1.7990 -1.0725 -0.8351
  859MOL0     H15908   5.390   9.847  10.339  0.1485 -0.9954  1.1410
  859MOL0     H15909   5.370   9.668  10.323 -1.4116 -0.3843  0.6504
  859MOL0     H15910   5.214   9.676  10.156 -0.7047 -0.7122  2.5295
  859MOL0     H15911   5.186   9.847  10.164  1.9350  1.3484  0.4980
  859MOL0     H15912   5.351   9.749   9.976 -1.8986  1.4544 -0.3137
  859MOL0     H15913   5.452   9.722  10.121 -2.4352 -2.1379  0.8622
  859MOL0     H15914   5.444   9.993  10.140 -0.5422  4.5093 -2.9308
  859MOL0     H15915   5.518   9.938   9.993  0.6195  0.5320  0.4232
  859MOL0     H15916   5.205  10.101  10.161 -3.2644 -0.9439 -0.1061
  859MOL0     H15917   5.002  10.282  10.053  0.9726 -0.7580  0.1188
  859MOL0     H15918   4.946  10.220   9.905 -0.6845  0.9034  1.3217
  859MOL0     H15919   4.942  10.073  10.178 -0.7241  3.1559  1.1831
  859MOL0     H15920   4.807  10.161  10.117 -0.4801 -1.2679  2.3381
  859MOL0     H15921   4.907   9.974   9.916  0.7541  0.7493 -0.1451
  859MOL0     H15922   4.743   9.996   9.963 -0.8234  2.5406  2.5035
  859MOL0     H15923   4.945   9.838  10.122 -0.2855  0.5031  0.6269
  859MOL0     H15924   4.839   9.772   9.997 -2.5820  0.4447 -0.3971
  859MOL0     H15925   4.860   9.594  10.106  0.2330 -1.5088  1.3569
  859MOL0     H15926   4.895   9.435  10.305 -0.5563  0.6330 -2.9318
  859MOL0     H15927   5.033   9.472  10.822  0.6337 -0.2773  0.6462
  859MOL0     H15928   5.076   9.325  11.013  1.4456  0.3214 -2.5428
  859MOL0     H15929   4.857   9.052  11.263  2.3399 -1.0003 -0.8082
  859MOL0     H15930   4.728   9.105  11.158  1.9266  4.5052  0.5110
  859MOL0     H15931   4.771   8.931  10.999  1.2462 -3.5191 -2.2602
  859MOL0     H15932   4.941   8.907  11.049  0.2228 -4.1304  2.0195
  859MOL0     H15933   4.874   8.783  11.256 -0.6576 -0.4116  0.8606
  859MOL0     H15934   4.711   8.825  11.232  0.6980 -3.2112  2.3484
  859MOL0     H15935   4.874   8.635  11.063  0.2994  0.1995  0.8917
  859MOL0     H15936   4.714   8.683  11.017  3.5269  1.3610 -2.6588
  859MOL0     H15937   4.617   8.588  11.195  0.0499  1.3720 -1.3488
  859MOL0     H15938   4.769   8.575  11.289  1.3083 -0.8085 -0.9368
  859MOL0     H15939   4.691   8.420  11.041  1.1904  1.4333  0.3773
  859MOL0     H15940   4.847   8.403  11.120  0.9246  2.8904 -1.7184
  859MOL0     H15941   4.570   8.327  11.249 -0.1458  2.4582  0.0503
  859MOL0     H15942   4.713   8.342  11.339 -2.1106 -1.0372  0.1571
  859MOL0     H15943   4.659   8.113  11.246  1.7626 -1.1874  1.0765
  859MOL0     H15944   4.707   8.175  11.089 -1.4609  1.0930  0.5730
  859MOL0     H15945   4.695   9.135  10.933 -0.9149  0.1320 -2.7521
  859MOL0     H15946   4.659   9.308  10.755 -0.6506  1.2820  0.5408
  859MOL0     H15947   4.664   9.695  10.573 -2.9539 -0.0449 -0.6299
  859MOL0     H15948   4.656   9.856  10.383 -0.4013  0.1221 -0.4438
  859MOL0     H15949   4.745  10.140  10.652  0.3328 -0.7755 -1.0669
  859MOL0     H15950   4.655  10.287  10.808  1.3780 -2.3311  1.0505
  859MOL0     H15951   4.750  10.609  11.276  0.8541  1.1084  0.5995
  859MOL0     H15952   4.583  10.761  11.383  4.0240 -1.4385  0.9777
  859MOL0     H15953   4.441  10.911  11.456  1.7412 -2.2564 -1.6317
  859MOL0     H15954   4.327  10.766  11.458 -1.9681  0.0672 -1.3055
  859MOL0     H15955   4.145  10.932  11.403  0.1901  3.1219 -2.6243
  859MOL0     H15956   4.276  11.060  11.417 -0.7617  0.4392  0.0813
  859MOL0     H15957   4.319  10.991  11.638  0.6522  0.0897 -1.3486
  859MOL0     H15958   4.193  10.865  11.638 -2.4813  1.7313  1.3969
  859MOL0     H15959   4.115  11.153  11.600 -2.7977  0.0621 -0.5856
  859MOL0     H15960   4.012  11.005  11.621  0.2883 -0.1933 -1.0770
  859MOL0     H15961   4.148  11.105  12.008 -0.7360  0.5469  0.4798
  859MOL0     H15962   4.320  10.716  11.046 -1.2377 -2.8094  1.5168
  859MOL0     H15963   4.534  10.484  10.873  0.0572  1.0638 -0.5480
  859MOL0     H15964   4.372  10.556  10.877 -0.2465  1.2629 -2.7132
  859MOL0     H15965   4.510  10.659  10.835 -0.5618  0.4151  1.2041
  860MOL0     O15966   3.168   8.772   9.684 -0.0733 -0.4032 -0.4684
  860MOL0     C15967   3.078   8.743   9.603 -0.3282 -0.9811  0.0394
  860MOL0     O15968   3.068   8.814   9.483  1.0613  0.1383 -0.1470
  860MOL0     C15969   3.156   8.914   9.445  1.4653  0.8880  0.8329
  860MOL0     C15970   3.293   8.899   9.448 -0.3592  0.2670  0.3935
  860MOL0     C15971   3.372   8.998   9.385  0.8364  0.2906 -0.4914
  860MOL0     C15972   3.315   9.109   9.322 -0.1549 -0.4289 -0.2572
  860MOL0     O15973   3.394   9.204   9.250 -0.1731  0.7044  0.3768
  860MOL0     C15974   3.436   9.310   9.337 -0.5518  0.7067  0.5868
  860MOL0     C15975   3.539   9.410   9.267  0.1407  0.8675  0.3918
  860MOL0     C15976   3.462   9.507   9.177 -0.4231 -0.1620 -0.3879
  860MOL0     C15977   3.569   9.592   9.093  0.5361 -0.5010  0.3235
  860MOL0     C15978   3.487   9.687   9.001  0.4186  0.7259  0.3288
  860MOL0     C15979   3.574   9.806   8.957 -0.3625  0.7081  0.0689
  860MOL0     C15980   3.539   9.868   8.812  0.4786  0.1074 -0.1176
  860MOL0     C15981   3.395   9.920   8.804  0.5741  1.1798  0.2529
  860MOL0     N15982   3.372  10.001   8.680  0.4441  0.2589 -0.6480
  860MOL0     C15983   3.271   9.981   8.587  0.1919  0.1351 -0.4449
  860MOL0     C15984   3.292  10.075   8.494 -0.0928 -0.6929  0.0601
  860MOL0     C15985   3.217  10.081   8.372  0.4933 -0.6011  0.6970
  860MOL0     C15986   3.070  10.027   8.380 -0.4301 -0.3863  0.8926
  860MOL0     C15987   3.004  10.027   8.241 -0.7302 -0.0128 -0.3553
  860MOL0     C15988   2.956  10.158   8.190  0.0442 -0.5323  0.4793
  860MOL0     O15989   2.830  10.186   8.262 -0.3512 -0.1945  0.0276
  860MOL0     C15990   2.759  10.302   8.243 -0.1568  0.4585  0.1287
  860MOL0     C15991   2.633  10.301   8.296  0.5774 -0.0198 -0.6346
  860MOL0     C15992   2.551  10.413   8.289 -0.5295  0.0738  0.3556
  860MOL0     C15993   2.595  10.529   8.227  0.3851  0.5021 -0.3262
  860MOL0     C15994   2.508  10.653   8.241  0.0549 -0.1347 -0.4493
  860MOL0     O15995   2.378  10.633   8.277 -0.7005 -0.4697 -0.9978
  860MOL0     C15996   2.295  10.740   8.300 -0.2963 -0.5483 -0.4634
  860MOL0     C15997   2.190  10.756   8.215  0.2582  0.1488  0.1520
  860MOL0     C15998   2.093  10.853   8.244  0.3629 -0.6493  0.3350
  860MOL0     C15999   2.107  10.930   8.366 -0.0606  0.2123  0.8026
  860MOL0     O16000   2.028  11.033   8.397 -0.6571 -0.2178  0.7409
  860MOL0     C16001   1.896  11.042   8.348  0.1515 -0.8292 -0.5909
  860MOL0     C16002   1.836  11.169   8.416  0.2973  0.1064 -0.0575
  860MOL0     C16003   1.871  11.296   8.345 -0.2957 -0.4691  0.8192
  860MOL0     C16004   1.801  11.427   8.387  0.2281 -0.0159  0.2882
  860MOL0     C16005   1.840  11.562   8.325  0.5509 -0.2065  1.1158
  860MOL0     C16006   1.990  11.606   8.334 -0.3156 -0.1956 -0.8040
  860MOL0     C16007   2.049  11.583   8.465 -0.4236  0.3978 -0.1044
  860MOL0     C16008   1.995  11.670   8.574 -0.2413  0.3966 -0.7429
  860MOL0    Cl16009   2.071  11.623   8.725 -0.4836 -0.2790 -0.0654
  860MOL0     C16010   2.217  10.923   8.450 -0.0141 -0.1358 -0.2176
  860MOL0     C16011   2.313  10.825   8.417 -0.2987  0.3614  0.0129
  860MOL0     O16012   2.561  10.764   8.231 -0.0982  0.3927 -0.3604
  860MOL0     C16013   2.724  10.535   8.180  0.4251 -0.2437  1.0216
  860MOL0     C16014   2.803  10.420   8.182  0.3775  0.0449  0.3971
  860MOL0     N16015   3.395  10.156   8.525  0.1559  0.5501  0.5175
  860MOL0     N16016   3.442  10.112   8.643 -0.7114 -0.3338  0.2600
  860MOL0     C16017   3.172   9.115   9.304 -0.3266  0.7932  0.7535
  860MOL0     C16018   3.091   9.017   9.374 -0.5325  0.3489  0.4626
  860MOL0     C16019   2.976   8.630   9.625  0.0403 -0.3538  0.0470
  860MOL0     C16020   2.914   8.572   9.510 -0.4305 -0.5072 -0.6255
  860MOL0     C16021   2.814   8.475   9.536 -0.1457  0.8694 -0.0543
  860MOL0     C16022   2.775   8.426   9.660  0.9845 -0.6090  0.7374
  860MOL0     O16023   2.679   8.330   9.672  0.5073  0.3419  0.1140
  860MOL0     C16024   2.546   8.365   9.622 -0.7954  0.4643  0.2859
  860MOL0     C16025   2.505   8.260   9.508  0.2155 -0.5667 -0.4604
  860MOL0     C16026   2.466   8.122   9.552 -0.5754 -0.2344  0.2477
  860MOL0     C16027   2.579   8.037   9.574  0.3337 -0.9008 -0.2926
  860MOL0     C16028   2.562   7.932   9.680  0.2132 -0.5238 -0.8799
  860MOL0     C16029   2.545   7.838   9.758 -1.2229 -0.3952  0.3904
  860MOL0     C16030   2.830   8.493   9.771  0.3394 -0.9068 -0.4701
  860MOL0     C16031   2.934   8.583   9.754  0.6006  0.1625  0.7565
  860MOL0     C16032   3.003   8.628   9.873  0.5191 -0.1664  0.0245
  860MOL0     H16033   3.345   8.813   9.490 -0.5348  0.1979  0.4724
  860MOL0     H16034   3.479   8.990   9.364  0.4732  0.9055 -2.9557
  860MOL0     H16035   3.348   9.367   9.370 -2.0553  0.3987 -2.5416
  860MOL0     H16036   3.479   9.268   9.429 -1.3783  0.2077  0.7566
  860MOL0     H16037   3.617   9.353   9.215  0.5265 -0.3424  2.1840
  860MOL0     H16038   3.575   9.486   9.337  0.4507  3.0270 -1.9997
  860MOL0     H16039   3.398   9.576   9.234  0.3704 -0.1963  0.5765
  860MOL0     H16040   3.408   9.452   9.100 -1.8707 -0.5146  0.8153
  860MOL0     H16041   3.627   9.667   9.148 -1.8105  1.9535 -0.3342
  860MOL0     H16042   3.636   9.520   9.045 -0.1707 -2.7863  2.5037
  860MOL0     H16043   3.441   9.618   8.930  0.1222 -0.0312  1.2359
  860MOL0     H16044   3.406   9.734   9.056 -0.1297  0.6382 -0.3922
  860MOL0     H16045   3.555   9.876   9.038  1.9553  0.2141  1.1125
  860MOL0     H16046   3.679   9.778   8.968  0.3193  1.5998 -3.0369
  860MOL0     H16047   3.560   9.791   8.737  0.7213 -2.7850  2.6863
  860MOL0     H16048   3.606   9.953   8.794 -0.9394  1.3649  0.3695
  860MOL0     H16049   3.326   9.836   8.797  2.4417 -0.4810  0.8539
  860MOL0     H16050   3.366   9.980   8.891  0.9354 -1.1280  2.0477
  860MOL0     H16051   3.189   9.911   8.594  1.3362 -1.5066 -2.4415
  860MOL0     H16052   3.210  10.184   8.336  2.8198  0.3996  2.8121
  860MOL0     H16053   3.270  10.042   8.284  0.4709  2.6691 -0.9191
  860MOL0     H16054   3.059   9.921   8.405 -1.3880 -1.1039 -2.1283
  860MOL0     H16055   3.014  10.090   8.450 -0.3826  1.8229 -0.9601
  860MOL0     H16056   2.916   9.963   8.241  0.2249 -1.3818  0.0611
  860MOL0     H16057   3.079   9.996   8.167  1.6388  2.3132  0.8751
  860MOL0     H16058   2.941  10.136   8.084  1.7173  3.5236 -0.7978
  860MOL0     H16059   3.028  10.241   8.183  0.7083 -1.1916 -1.1391
  860MOL0     H16060   2.597  10.217   8.354  0.7571 -0.4986 -1.2065
  860MOL0     H16061   2.451  10.390   8.326 -1.7236 -0.4965 -2.8855
  860MOL0     H16062   2.173  10.686   8.134 -0.8051 -0.1096  0.5706
  860MOL0     H16063   2.011  10.859   8.173 -0.1066  1.4373  1.0146
  860MOL0     H16064   1.885  11.075   8.244 -1.5368  2.7305  0.5642
  860MOL0     H16065   1.835  10.955   8.374  0.4837 -0.3374  2.1054
  860MOL0     H16066   1.727  11.170   8.415  0.0806  5.2986 -2.9414
  860MOL0     H16067   1.876  11.170   8.518  1.9750 -1.4241 -0.6295
  860MOL0     H16068   1.979  11.302   8.358 -0.3809  1.4987  0.8861
  860MOL0     H16069   1.845  11.281   8.239 -0.2498 -3.0532  1.1102
  860MOL0     H16070   1.809  11.434   8.496  1.4132 -0.0577  0.2180
  860MOL0     H16071   1.695  11.407   8.371 -0.3869  3.0541 -0.2858
  860MOL0     H16072   1.773  11.643   8.357 -1.0699  0.0236 -2.3957
  860MOL0     H16073   1.806  11.549   8.222 -0.6837  1.6077  1.2413
  860MOL0     H16074   2.048  11.552   8.258  1.9319 -0.5388  1.0589
  860MOL0     H16075   2.000  11.713   8.312 -1.9229  1.0849  3.6973
  860MOL0     H16076   2.157  11.600   8.454 -0.4274 -0.0463 -0.8671
  860MOL0     H16077   2.042  11.478   8.494  0.5815  0.7102  1.4191
  860MOL0     H16078   2.017  11.775   8.554 -0.4668  0.5292 -0.2941
  860MOL0     H16079   1.886  11.663   8.582 -0.2454 -0.4750 -1.3733
  860MOL0     H16080   2.216  10.987   8.537  0.4062 -1.3577  0.7211
  860MOL0     H16081   2.402  10.810   8.478 -1.7913 -2.5531  1.6817
  860MOL0     H16082   2.748  10.628   8.131 -2.1678  1.0717  2.0566
  860MOL0     H16083   2.900  10.410   8.134  0.1772  2.3459 -0.6383
  860MOL0     H16084   3.124   9.186   9.238  3.4234  2.7568 -0.1429
  860MOL0     H16085   2.982   9.024   9.375 -0.5662  1.6811 -2.2785
  860MOL0     H16086   2.949   8.596   9.410  3.4684 -2.9276 -0.0477
  860MOL0     H16087   2.754   8.436   9.454 -0.3385  0.5700  0.2271
  860MOL0     H16088   2.551   8.465   9.579  1.2571  0.0301 -0.6256
  860MOL0     H16089   2.474   8.362   9.703  1.5927 -3.7667  2.6291
  860MOL0     H16090   2.592   8.262   9.441 -1.3566  2.4544 -2.6952
  860MOL0     H16091   2.414   8.289   9.454 -2.1040  1.0230  3.8349
  860MOL0     H16092   2.400   8.089   9.471 -0.2626  2.4007 -1.2059
  860MOL0     H16093   2.410   8.134   9.646 -0.6161  0.9420  0.0968
  860MOL0     H16094   2.614   7.995   9.479  2.3480  1.5407 -0.7563
  860MOL0     H16095   2.656   8.101   9.617 -3.5981  2.4195  2.6481
  860MOL0     H16096   2.548   7.761   9.833  0.7392  1.4365  2.3311
  860MOL0     H16097   2.807   8.458   9.871  0.3174  2.7418  0.9429
  860MOL0     H16098   2.996   8.737   9.869  1.2779  0.0710  2.7649
  860MOL0     H16099   2.953   8.601   9.967  0.4050 -2.1906 -0.5589
  860MOL0     H16100   3.105   8.587   9.869  1.1567  1.1172  1.7876
  861MOL0     O16101   3.756   6.198   5.953  0.4328 -0.1077  0.4046
  861MOL0     C16102   3.769   6.256   6.057 -0.8942  0.0981 -0.5326
  861MOL0     O16103   3.792   6.391   6.063 -0.5539 -0.3584  0.0654
  861MOL0     C16104   3.782   6.467   5.950 -0.1329  0.5944 -0.2532
  861MOL0     C16105   3.679   6.559   5.934  0.3354  0.3110 -0.0102
  861MOL0     C16106   3.672   6.635   5.814  0.2716 -0.1821  0.5416
  861MOL0     C16107   3.777   6.634   5.723 -0.6565  0.8563 -0.6798
  861MOL0     O16108   3.785   6.728   5.626  0.4103  0.1038 -0.4764
  861MOL0     C16109   3.850   6.855   5.655 -0.3559 -0.3865 -0.5226
  861MOL0     C16110   3.843   6.949   5.529  0.3351  0.2744 -0.0661
  861MOL0     C16111   3.899   7.093   5.552 -0.0083  0.0007  0.6291
  861MOL0     C16112   4.020   7.094   5.621 -0.7208 -0.5391  0.1639
  861MOL0     C16113   4.105   7.221   5.620  0.5901 -0.1523  0.0189
  861MOL0     C16114   4.171   7.243   5.479 -0.7319 -0.3636  0.3547
  861MOL0     C16115   4.113   7.382   5.426  0.0088  0.4932  0.5325
  861MOL0     C16116   4.168   7.423   5.290 -0.2612  0.2394 -0.4096
  861MOL0     N16117   4.103   7.550   5.248 -0.0956 -1.2028  0.7531
  861MOL0     C16118   4.010   7.578   5.150 -0.0499 -0.1050 -0.6694
  861MOL0     C16119   3.973   7.708   5.170  0.1968  0.6024  0.4960
  861MOL0     C16120   3.852   7.757   5.103 -0.7970 -0.0041 -0.4736
  861MOL0     C16121   3.800   7.882   5.176 -0.4914 -0.1038 -0.4860
  861MOL0     C16122   3.651   7.899   5.155  0.5182 -0.0676  0.0529
  861MOL0     C16123   3.629   8.051   5.192  1.1789 -0.7999  0.1428
  861MOL0     O16124   3.493   8.096   5.185  0.1413 -0.0878  0.2830
  861MOL0     C16125   3.465   8.224   5.197  0.5304  0.3207  0.3320
  861MOL0     C16126   3.330   8.248   5.205  0.4867  0.3078 -0.2020
  861MOL0     C16127   3.297   8.377   5.235  0.3816  0.2703  0.2685
  861MOL0     C16128   3.388   8.488   5.241  0.1725 -0.5657 -0.2050
  861MOL0     C16129   3.338   8.618   5.271 -0.1437 -0.2445  0.0116
  861MOL0     O16130   3.434   8.723   5.275  0.1215  1.0768 -0.6263
  861MOL0     C16131   3.411   8.855   5.316  0.1037  0.2513  0.3904
  861MOL0     C16132   3.534   8.925   5.333 -0.2910  0.4739 -0.5658
  861MOL0     C16133   3.527   9.053   5.386 -0.3063 -0.4295 -0.2572
  861MOL0     C16134   3.402   9.104   5.434 -0.5548 -0.2563  0.2364
  861MOL0     O16135   3.393   9.222   5.506 -0.1958  0.3208  0.0137
  861MOL0     C16136   3.512   9.293   5.557  0.1536  0.2413 -0.7555
  861MOL0     C16137   3.474   9.418   5.640 -0.4639  0.7157  0.1489
  861MOL0     C16138   3.413   9.526   5.559 -0.0836  0.2635 -0.0356
  861MOL0     C16139   3.507   9.603   5.465  1.0761  0.5628  1.1376
  861MOL0     C16140   3.442   9.736   5.430 -0.1735  0.1936  0.4641
  861MOL0     C16141   3.538   9.797   5.332  0.2706 -0.0346 -0.0896
  861MOL0     C16142   3.498   9.945   5.308  0.6197  0.7988  0.5192
  861MOL0     C16143   3.614  10.003   5.224 -0.7108 -0.3424  1.1809
  861MOL0    Cl16144   3.656   9.939   5.072 -0.4672  0.5268 -0.5976
  861MOL0     C16145   3.289   9.030   5.412  0.8480 -0.0977 -0.9160
  861MOL0     C16146   3.288   8.910   5.352  0.4084  0.6956 -0.4646
  861MOL0     O16147   3.227   8.625   5.312  0.4248  0.3975  0.9592
  861MOL0     C16148   3.527   8.462   5.225  0.9688  0.6589  0.3201
  861MOL0     C16149   3.565   8.328   5.201 -0.6324 -0.1861 -1.1398
  861MOL0     N16150   4.038   7.754   5.275  0.1022 -0.7286  0.3203
  861MOL0     N16151   4.101   7.659   5.332 -0.3469  0.0927 -0.2214
  861MOL0     C16152   3.880   6.539   5.737 -0.5534 -0.4702  0.0608
  861MOL0     C16153   3.877   6.446   5.842  0.1006 -0.3761 -0.0818
  861MOL0     C16154   3.768   6.175   6.192 -0.7145  0.0099 -0.1733
  861MOL0     C16155   3.718   6.231   6.312  0.4047 -0.4539  0.8671
  861MOL0     C16156   3.695   6.148   6.424 -0.5194  0.0374 -0.3063
  861MOL0     C16157   3.731   6.013   6.426 -0.3239 -0.2660 -0.2573
  861MOL0     O16158   3.701   5.934   6.539  0.1912 -0.6064 -0.4728
  861MOL0     C16159   3.789   5.971   6.654  0.6080  0.6478 -0.5194
  861MOL0     C16160   3.925   5.918   6.642 -0.2548 -0.0935  0.2580
  861MOL0     C16161   3.932   5.774   6.610  0.2864  0.0104 -0.3345
  861MOL0     C16162   3.954   5.676   6.733  0.2489 -0.1802  0.7169
  861MOL0     C16163   4.084   5.698   6.789  0.5702  0.1117 -1.2802
  861MOL0     C16164   4.191   5.743   6.832 -0.0993 -0.1748 -0.7512
  861MOL0     C16165   3.794   5.961   6.313  1.2297  0.3233  0.4327
  861MOL0     C16166   3.807   6.039   6.190  0.9984 -0.3238 -1.9903
  861MOL0     C16167   3.884   5.981   6.082  0.1479 -0.1198  0.7000
  861MOL0     H16168   3.611   6.576   6.017  2.1563  0.4538  1.5084
  861MOL0     H16169   3.592   6.707   5.801  1.9293  1.9564  1.4831
  861MOL0     H16170   3.803   6.909   5.738 -0.8998  0.0602 -1.1097
  861MOL0     H16171   3.955   6.837   5.680 -0.0292  0.8560 -0.9162
  861MOL0     H16172   3.739   6.956   5.495  0.7585 -0.9534 -1.7840
  861MOL0     H16173   3.906   6.900   5.454  1.2140  2.4022 -0.8119
  861MOL0     H16174   3.822   7.154   5.601 -2.1195 -1.3393 -0.8004
  861MOL0     H16175   3.918   7.135   5.453 -0.4321 -0.5284  0.3157
  861MOL0     H16176   3.978   7.080   5.721 -0.6255 -3.7661 -0.1274
  861MOL0     H16177   4.086   7.009   5.601  0.6942 -0.0879  2.5074
  861MOL0     H16178   4.048   7.305   5.660  0.6357  0.0150 -0.2694
  861MOL0     H16179   4.185   7.209   5.694  0.8097  0.3010 -0.1424
  861MOL0     H16180   4.276   7.263   5.503 -0.7433  0.3494 -0.1382
  861MOL0     H16181   4.158   7.173   5.396 -1.0325  1.7409 -1.5028
  861MOL0     H16182   4.149   7.458   5.496  1.0687  0.6671 -0.1809
  861MOL0     H16183   4.004   7.388   5.424  0.0649  1.9118 -1.6783
  861MOL0     H16184   4.275   7.447   5.295 -0.0505 -0.4752 -1.2771
  861MOL0     H16185   4.144   7.354   5.210 -0.8271  2.0954 -1.9171
  861MOL0     H16186   3.956   7.521   5.076 -1.8878  2.1073 -1.1458
  861MOL0     H16187   3.887   7.793   5.006  0.8635 -2.2102 -0.8020
  861MOL0     H16188   3.779   7.677   5.089 -2.8248  0.9602  3.1939
  861MOL0     H16189   3.810   7.863   5.283 -2.4739  0.1565 -0.2017
  861MOL0     H16190   3.843   7.973   5.133  1.9065  0.6152  3.0193
  861MOL0     H16191   3.598   7.826   5.217 -1.1526  0.5563 -0.5962
  861MOL0     H16192   3.618   7.885   5.052 -0.8241  0.1110  0.4394
  861MOL0     H16193   3.705   8.112   5.141  0.4221  1.9434  2.0791
  861MOL0     H16194   3.650   8.055   5.299 -0.1497 -0.0455  0.4016
  861MOL0     H16195   3.261   8.164   5.199  0.4754  0.3850 -1.4937
  861MOL0     H16196   3.189   8.391   5.237  0.5462  1.6548  0.3481
  861MOL0     H16197   3.632   8.886   5.308  0.1827  1.1918  0.1368
  861MOL0     H16198   3.613   9.118   5.400 -0.4599 -0.1199 -0.7079
  861MOL0     H16199   3.561   9.227   5.628  1.5426  1.4257 -0.5653
  861MOL0     H16200   3.582   9.329   5.481 -0.4171  0.8582 -1.0114
  861MOL0     H16201   3.402   9.388   5.717 -0.8689 -0.0690 -0.5119
  861MOL0     H16202   3.567   9.457   5.684  0.8715 -2.5437  0.5316
  861MOL0     H16203   3.325   9.482   5.511 -0.2823  1.4622 -0.8106
  861MOL0     H16204   3.370   9.598   5.630  1.2054  2.3481 -1.2615
  861MOL0     H16205   3.517   9.546   5.372 -0.8136 -1.2452  1.9756
  861MOL0     H16206   3.606   9.619   5.509  2.1800 -0.9699 -0.6746
  861MOL0     H16207   3.436   9.794   5.523  0.9360 -0.4881  0.9782
  861MOL0     H16208   3.344   9.716   5.386 -0.0034  0.5823 -0.0966
  861MOL0     H16209   3.642   9.804   5.364  0.4226  1.6635 -0.8117
  861MOL0     H16210   3.537   9.729   5.246  2.2011 -2.7518  1.8586
  861MOL0     H16211   3.486   9.993   5.406  0.4679 -2.8498  2.4747
  861MOL0     H16212   3.413   9.958   5.240  0.4845 -2.6841 -0.1642
  861MOL0     H16213   3.590  10.109   5.210  2.2286  0.0376 -2.7240
  861MOL0     H16214   3.706  10.003   5.284  0.4412  1.2692 -0.4678
  861MOL0     H16215   3.193   9.073   5.438  0.5015  2.6587 -5.5709
  861MOL0     H16216   3.194   8.855   5.348  0.4615  0.4507 -5.4075
  861MOL0     H16217   3.598   8.541   5.248  1.1550  1.2118 -1.9232
  861MOL0     H16218   3.671   8.308   5.195 -0.8224 -0.9797 -2.1722
  861MOL0     H16219   3.958   6.531   5.662 -1.3456  1.3863 -1.0245
  861MOL0     H16220   3.950   6.366   5.841 -1.0067 -1.4323 -2.3316
  861MOL0     H16221   3.676   6.330   6.320  2.3652  0.4796  0.2458
  861MOL0     H16222   3.646   6.200   6.506 -2.0561 -2.5865  0.5229
  861MOL0     H16223   3.754   5.926   6.747  0.2853 -0.9535 -1.3737
  861MOL0     H16224   3.795   6.077   6.681  4.7999  0.2170  0.9223
  861MOL0     H16225   3.976   5.939   6.737 -1.2463  0.0298  0.7809
  861MOL0     H16226   3.967   5.970   6.555 -2.8114 -2.2144 -2.4671
  861MOL0     H16227   4.014   5.765   6.539  0.1930  3.0957 -0.9851
  861MOL0     H16228   3.840   5.749   6.557 -0.2045  1.9488 -0.4759
  861MOL0     H16229   3.870   5.683   6.803  1.1918 -1.2151  1.9848
  861MOL0     H16230   3.959   5.577   6.688  3.1711 -0.4536  1.4669
  861MOL0     H16231   4.279   5.775   6.882 -1.7033  0.6947  1.6571
  861MOL0     H16232   3.818   5.856   6.308  3.2115  0.7703 -0.1544
  861MOL0     H16233   3.965   6.050   6.060  0.3821 -0.5639  0.1302
  861MOL0     H16234   3.913   5.877   6.101 -0.2686 -0.2686  0.5309
  861MOL0     H16235   3.831   5.979   5.986 -1.5201  0.0824  1.5699
  862MOL0     O16236   9.644   9.830   2.104 -0.2857 -0.6967  0.5245
  862MOL0     C16237   9.757   9.811   2.148  0.6203 -0.5839 -0.5616
  862MOL0     O16238   9.796   9.689   2.214 -0.1632  0.2208  0.2283
  862MOL0     C16239   9.701   9.583   2.217 -0.9693  0.5711  0.4785
  862MOL0     C16240   9.574   9.601   2.268  0.5246  0.6894  0.4559
  862MOL0     C16241   9.480   9.511   2.265  0.6536  0.1444  0.0017
  862MOL0     C16242   9.507   9.383   2.215 -0.3602 -0.3821  0.1950
  862MOL0     O16243   9.417   9.282   2.200  0.6880  0.0944 -0.3012
  862MOL0     C16244   9.276   9.321   2.193  0.0623 -0.7946  0.2427
  862MOL0     C16245   9.197   9.189   2.180 -0.2109  0.6300 -0.1623
  862MOL0     C16246   9.166   9.135   2.322  0.1762 -0.1632 -0.2347
  862MOL0     C16247   9.091   9.011   2.340  1.4925 -0.3867  0.6392
  862MOL0     C16248   9.159   8.886   2.271 -0.2799 -0.8554  0.6025
  862MOL0     C16249   9.302   8.853   2.319  0.4980 -1.1992 -0.2259
  862MOL0     C16250   9.308   8.785   2.454 -0.1602 -0.8426 -0.1755
  862MOL0     C16251   9.214   8.669   2.475 -0.5940 -0.3271  0.8965
  862MOL0     N16252   9.220   8.620   2.616 -0.0628 -0.5543 -0.1881
  862MOL0     C16253   9.121   8.630   2.709 -0.5630  0.0554 -0.1024
  862MOL0     C16254   9.168   8.581   2.824  0.2979 -1.3420 -0.2516
  862MOL0     C16255   9.075   8.562   2.945  0.2708  0.4347  0.4077
  862MOL0     C16256   9.120   8.466   3.045  0.5911  0.3557  0.0187
  862MOL0     C16257   9.006   8.424   3.140  0.1475  0.7348 -0.2630
  862MOL0     C16258   9.038   8.307   3.236 -0.4261  0.5257  0.1472
  862MOL0     O16259   8.917   8.253   3.298  0.1274 -0.3153  0.0197
  862MOL0     C16260   8.928   8.139   3.376  0.2332 -0.5541 -0.5346
  862MOL0     C16261   9.053   8.088   3.418  0.1648  0.2532  0.6721
  862MOL0     C16262   9.043   7.966   3.495 -0.7474 -0.1302 -0.6667
  862MOL0     C16263   8.926   7.897   3.522 -0.2131 -0.1681 -0.0412
  862MOL0     C16264   8.905   7.779   3.596 -0.2387  0.8378  0.5475
  862MOL0     O16265   8.784   7.721   3.604 -0.8841  0.1013  0.0237
  862MOL0     C16266   8.783   7.604   3.671  0.0772 -0.0177 -0.0309
  862MOL0     C16267   8.784   7.488   3.600 -0.1405  0.0065  0.2831
  862MOL0     C16268   8.758   7.367   3.656 -0.2817 -0.5865  0.3358
  862MOL0     C16269   8.741   7.353   3.794 -0.0982  0.3436 -0.1516
  862MOL0     O16270   8.714   7.224   3.853  0.3043 -0.6747  0.0192
  862MOL0     C16271   8.795   7.196   3.964 -0.5303  0.4593 -0.0257
  862MOL0     C16272   8.779   7.056   4.033  0.1216  0.0397  0.6581
  862MOL0     C16273   8.641   7.006   4.043  0.6113 -0.0101  0.1595
  862MOL0     C16274   8.656   6.866   4.107 -0.9362 -0.3039 -0.2584
  862MOL0     C16275   8.516   6.811   4.157  0.2434 -0.5446 -0.4126
  862MOL0     C16276   8.508   6.662   4.180 -0.0233 -0.9271 -1.4063
  862MOL0     C16277   8.374   6.639   4.254  0.5691  0.2601  0.3553
  862MOL0     C16278   8.375   6.524   4.347 -0.8487  0.6490 -0.0433
  862MOL0    Cl16279   8.470   6.590   4.485 -0.0311 -0.1052  0.0258
  862MOL0     C16280   8.755   7.478   3.875 -0.0724  0.4476 -0.6989
  862MOL0     C16281   8.762   7.595   3.807 -0.6282 -0.3617  0.7775
  862MOL0     O16282   9.011   7.729   3.648  0.6563 -0.5431  0.8302
  862MOL0     C16283   8.804   7.960   3.479  0.7190  0.5407  0.5106
  862MOL0     C16284   8.806   8.082   3.413  0.4240 -0.2549 -0.4122
  862MOL0     N16285   9.298   8.540   2.803 -0.2091 -1.0934  0.1516
  862MOL0     N16286   9.326   8.562   2.672 -0.5113 -0.1188 -0.6784
  862MOL0     C16287   9.642   9.350   2.176  0.9243 -1.0047 -0.1917
  862MOL0     C16288   9.740   9.456   2.174 -0.6510  0.4939  0.5004
  862MOL0     C16289   9.860   9.910   2.108 -0.2391  0.0477  0.2197
  862MOL0     C16290   9.997   9.878   2.126  0.5258  0.1647 -0.3725
  862MOL0     C16291  10.095   9.972   2.133  0.2514  0.5625 -0.7600
  862MOL0     C16292  10.066  10.097   2.097 -0.4376 -0.8410 -0.2462
  862MOL0     O16293  10.150  10.206   2.105 -0.7006 -0.3959  0.3501
  862MOL0     C16294  10.283  10.190   2.169 -0.1541 -0.5125 -0.0260
  862MOL0     C16295  10.274  10.216   2.322 -0.5784  0.1120  0.0394
  862MOL0     C16296  10.259  10.366   2.347  0.6727 -0.9354 -0.8667
  862MOL0     C16297  10.339  10.401   2.473 -0.6112 -0.8075  0.1182
  862MOL0     C16298  10.303  10.312   2.591 -0.1120 -0.3699 -0.5048
  862MOL0     C16299  10.284  10.259   2.699  0.8709  0.3413  0.6319
  862MOL0     C16300   9.934  10.139   2.061 -0.0069 -0.9443 -0.4626
  862MOL0     C16301   9.829  10.047   2.075 -0.7402 -1.1570  0.5088
  862MOL0     C16302   9.691  10.102   2.036  0.7124 -0.4972  0.8179
  862MOL0     H16303   9.544   9.701   2.297 -3.1301  0.0887 -0.7398
  862MOL0     H16304   9.385   9.552   2.300  1.8768  1.4040  2.0075
  862MOL0     H16305   9.253   9.374   2.285  2.8502  1.1730 -0.0709
  862MOL0     H16306   9.263   9.379   2.101  3.1908 -1.1924 -0.5987
  862MOL0     H16307   9.263   9.120   2.126 -2.6651 -0.8581 -1.5065
  862MOL0     H16308   9.111   9.213   2.117  0.5046  0.4328 -1.2340
  862MOL0     H16309   9.103   9.210   2.370  1.8504  0.4036  1.1874
  862MOL0     H16310   9.262   9.135   2.374 -0.5123  1.6079  1.1567
  862MOL0     H16311   9.082   9.002   2.448  2.4599 -3.4595  0.5599
  862MOL0     H16312   8.992   9.025   2.296  1.0564  0.6513  1.8901
  862MOL0     H16313   9.098   8.796   2.280 -0.2347 -0.9540 -0.0244
  862MOL0     H16314   9.156   8.902   2.162 -2.0962  5.8418  1.1932
  862MOL0     H16315   9.343   8.775   2.255 -3.1466 -4.8493  1.4110
  862MOL0     H16316   9.364   8.943   2.314 -2.8192  1.2836 -0.6162
  862MOL0     H16317   9.283   8.866   2.524  0.7725  2.3205 -3.1751
  862MOL0     H16318   9.416   8.771   2.459  0.3314  1.9439 -0.9327
  862MOL0     H16319   9.112   8.703   2.455  0.4298  1.8852 -1.1237
  862MOL0     H16320   9.234   8.585   2.407 -1.5812 -0.6568  0.9983
  862MOL0     H16321   9.021   8.665   2.688 -1.2895 -2.1949 -0.7108
  862MOL0     H16322   9.047   8.653   2.998 -3.2369  0.6700 -1.5377
  862MOL0     H16323   8.983   8.519   2.903  0.7934 -2.1648  1.7468
  862MOL0     H16324   9.176   8.389   2.990  1.6493  1.0870  0.0440
  862MOL0     H16325   9.199   8.520   3.098  0.3775  2.0580 -1.3247
  862MOL0     H16326   8.930   8.393   3.069  2.7073 -0.3514 -2.7314
  862MOL0     H16327   8.975   8.507   3.204 -0.5595  1.0500 -1.0121
  862MOL0     H16328   9.096   8.354   3.315  2.0270  0.4424 -1.4885
  862MOL0     H16329   9.095   8.226   3.188 -0.2732  2.0255 -2.3613
  862MOL0     H16330   9.157   8.113   3.401  0.8303 -1.4556  1.8719
  862MOL0     H16331   9.138   7.927   3.531 -0.2506  2.8510  1.6511
  862MOL0     H16332   8.790   7.498   3.492  0.9981  1.2997  0.4366
  862MOL0     H16333   8.751   7.275   3.600  4.2330 -0.5814 -0.5863
  862MOL0     H16334   8.901   7.189   3.935 -0.2767 -3.3986  1.2449
  862MOL0     H16335   8.774   7.265   4.046 -0.5518  2.7624 -1.8697
  862MOL0     H16336   8.837   6.987   3.973  2.0769  2.1805 -0.0731
  862MOL0     H16337   8.826   7.048   4.131  0.1049 -0.9155  0.5985
  862MOL0     H16338   8.565   7.062   4.099 -2.9781 -3.3858 -0.8402
  862MOL0     H16339   8.591   6.996   3.946 -1.1758 -2.2505  1.2029
  862MOL0     H16340   8.718   6.874   4.196 -0.3909 -0.2550 -0.6377
  862MOL0     H16341   8.701   6.788   4.045  1.1723  1.4238 -1.0428
  862MOL0     H16342   8.444   6.827   4.076  0.8153 -0.3028 -0.8799
  862MOL0     H16343   8.477   6.865   4.244  1.2080  0.4309 -0.5730
  862MOL0     H16344   8.521   6.597   4.093  1.4359 -3.3179  0.4640
  862MOL0     H16345   8.599   6.647   4.239  0.4860  2.2227 -1.2185
  862MOL0     H16346   8.297   6.621   4.178  0.4915  1.4076  0.1500
  862MOL0     H16347   8.351   6.725   4.317 -0.2826  1.0553 -0.9987
  862MOL0     H16348   8.270   6.499   4.365 -0.6055 -0.2791  0.1612
  862MOL0     H16349   8.420   6.432   4.309  0.3374 -0.1430  3.0247
  862MOL0     H16350   8.751   7.466   3.983 -1.9016 -0.6237 -0.8419
  862MOL0     H16351   8.749   7.684   3.868 -2.5030 -1.5895  2.2832
  862MOL0     H16352   8.702   7.925   3.492  1.0316 -0.8859 -0.6083
  862MOL0     H16353   8.707   8.125   3.402  0.5439 -0.0396 -0.6921
  862MOL0     H16354   9.661   9.247   2.149  1.1330 -0.6449 -1.4961
  862MOL0     H16355   9.833   9.435   2.123 -1.4032 -1.2126 -0.2793
  862MOL0     H16356  10.012   9.777   2.162 -0.4111  0.4850  1.0243
  862MOL0     H16357  10.194   9.945   2.169 -0.5784  1.9361  3.0178
  862MOL0     H16358  10.351  10.262   2.124 -2.6913  1.4281 -0.9850
  862MOL0     H16359  10.326  10.092   2.144  3.0152 -0.7956  5.1766
  862MOL0     H16360  10.361  10.168   2.368 -2.2327 -1.5669  1.5610
  862MOL0     H16361  10.201  10.146   2.363 -0.4310 -1.0298 -1.5429
  862MOL0     H16362  10.154  10.388   2.368  1.4914  0.9075  1.8754
  862MOL0     H16363  10.295  10.432   2.268  0.4950  2.1176  1.4203
  862MOL0     H16364  10.444  10.388   2.447 -0.0952  1.5806  0.7260
  862MOL0     H16365  10.331  10.505   2.508  2.4445 -1.3119  2.7415
  862MOL0     H16366  10.274  10.207   2.792 -0.0307 -1.1363 -0.2465
  862MOL0     H16367   9.900  10.234   2.022 -1.0498 -0.8551  0.5897
  862MOL0     H16368   9.649  10.047   1.952 -1.5763 -0.2329  1.7186
  862MOL0     H16369   9.625  10.085   2.122  2.5396 -0.3665  2.3246
  862MOL0     H16370   9.682  10.208   2.010 -0.8874 -1.0105 -0.9100
  863MOL0     O16371   4.076   2.393   0.112  0.3887 -1.2525  0.2332
  863MOL0     C16372   4.003   2.298   0.136 -0.7108 -0.5094 -0.1840
  863MOL0     O16373   3.898   2.306   0.223  0.3657  0.0586 -0.8283
  863MOL0     C16374   3.795   2.215   0.223  0.3089 -0.8503 -0.6519
  863MOL0     C16375   3.738   2.171   0.107 -0.3323  0.3285 -0.5767
  863MOL0     C16376   3.631   2.075   0.116  0.5076  0.2434  0.3641
  863MOL0     C16377   3.601   2.010   0.233  0.0311  0.0186 -0.5671
  863MOL0     O16378   3.500   1.918   0.249  0.2323  0.1614  0.2736
  863MOL0     C16379   3.373   1.954   0.195 -0.9363  0.0312  0.4701
  863MOL0     C16380   3.256   1.868   0.224 -0.5539 -0.1623  0.0859
  863MOL0     C16381   3.140   1.867   0.134 -0.1945 -1.0453  0.0665
  863MOL0     C16382   3.023   1.789   0.188  1.0239 -0.0008  0.6201
  863MOL0     C16383   2.913   1.783   0.092  0.1344 -0.3923 -0.5204
  863MOL0     C16384   2.776   1.767   0.158 -0.2192 -0.6864  0.7664
  863MOL0     C16385   2.745   1.641   0.230 -0.5359 -0.9064  0.3398
  863MOL0     C16386   2.612   1.656   0.306 -0.3747  0.7426  0.2299
  863MOL0     N16387   2.496   1.617   0.213 -0.4214 -0.1530 -0.0535
  863MOL0     C16388   2.386   1.695   0.180 -0.3374 -1.0592 -0.5666
  863MOL0     C16389   2.314   1.633   0.084 -0.0746  1.2393  0.4388
  863MOL0     C16390   2.181   1.675   0.035 -0.0950 -0.1758  0.2532
  863MOL0     C16391   2.104   1.573  -0.048 -0.0567  0.4275 -0.4294
  863MOL0     C16392   1.984   1.638  -0.117  0.4191  0.0811  0.3279
  863MOL0     C16393   1.909   1.534  -0.195 -0.1592  0.0744  0.6978
  863MOL0     O16394   1.830   1.611  -0.286  0.6761  0.6380 -0.1394
  863MOL0     C16395   1.784   1.545  -0.396 -1.2294  0.3229 -0.7190
  863MOL0     C16396   1.696   1.613  -0.477 -0.9870 -0.2595 -0.2487
  863MOL0     C16397   1.636   1.556  -0.583  0.1867  1.1425  0.2483
  863MOL0     C16398   1.661   1.415  -0.609  0.1412 -0.1975 -0.0718
  863MOL0     C16399   1.604   1.347  -0.730  0.2429 -1.2864  0.0657
  863MOL0     O16400   1.547   1.439  -0.825  0.6767 -0.0868  1.0061
  863MOL0     C16401   1.478   1.396  -0.931  0.0802  0.6964  0.0995
  863MOL0     C16402   1.499   1.275  -0.998  0.4675 -0.2812 -0.0792
  863MOL0     C16403   1.405   1.223  -1.090 -0.0354 -0.1414  0.5678
  863MOL0     C16404   1.288   1.298  -1.129  0.7919 -0.4747 -0.6683
  863MOL0     O16405   1.185   1.247  -1.207 -0.7008  0.0541  0.5626
  863MOL0     C16406   1.233   1.183  -1.336 -0.2093 -0.0471 -0.3828
  863MOL0     C16407   1.112   1.136  -1.412  0.1867  0.1083  0.5139
  863MOL0     C16408   1.082   1.243  -1.517  0.1192 -0.0831  1.0208
  863MOL0     C16409   1.147   1.213  -1.656 -0.0995  0.8082  0.3333
  863MOL0     C16410   1.116   1.328  -1.748  0.3586  0.8657  0.1319
  863MOL0     C16411   1.174   1.297  -1.890 -0.2346 -0.3016  0.6339
  863MOL0     C16412   1.143   1.412  -1.981 -0.4902 -0.5037  0.8362
  863MOL0     C16413   1.218   1.378  -2.116  0.0399 -0.3695 -0.1174
  863MOL0    Cl16414   1.111   1.257  -2.195 -0.3611 -0.0343 -0.1271
  863MOL0     C16415   1.263   1.417  -1.051 -0.4287  0.1124  0.8699
  863MOL0     C16416   1.355   1.451  -0.958 -0.6166  0.6143  0.1407
  863MOL0     O16417   1.589   1.228  -0.733 -0.3543 -0.0744  0.5930
  863MOL0     C16418   1.737   1.337  -0.526  0.3591  0.0647  0.0004
  863MOL0     C16419   1.803   1.410  -0.425 -0.2497 -0.4586 -0.3332
  863MOL0     N16420   2.376   1.510   0.062 -0.1154  0.0300  0.6894
  863MOL0     N16421   2.483   1.504   0.139  0.4059 -0.3234 -0.1673
  863MOL0     C16422   3.680   2.039   0.341  0.4812 -0.4657 -1.2322
  863MOL0     C16423   3.769   2.147   0.342  0.6896  1.0611  1.2749
  863MOL0     C16424   4.041   2.176   0.073  0.0671  0.3310  0.1499
  863MOL0     C16425   4.055   2.162  -0.069  0.4898 -0.6516  0.8264
  863MOL0     C16426   4.089   2.047  -0.138 -0.2537 -0.2540  0.8641
  863MOL0     C16427   4.123   1.936  -0.060  0.6152 -0.1616 -0.0350
  863MOL0     O16428   4.146   1.808  -0.108  0.2784 -0.5884 -0.5569
  863MOL0     C16429   4.180   1.802  -0.243 -0.4686 -0.5827  1.0781
  863MOL0     C16430   4.239   1.664  -0.272 -0.7834 -0.8513 -0.3218
  863MOL0     C16431   4.265   1.630  -0.415 -0.3995  0.0370 -0.4180
  863MOL0     C16432   4.278   1.483  -0.443 -0.9157  0.0260 -0.1274
  863MOL0     C16433   4.272   1.463  -0.588  0.9815 -0.6902 -0.0523
  863MOL0     C16434   4.273   1.432  -0.701 -0.4216  0.4774  0.3434
  863MOL0     C16435   4.114   1.946   0.080  0.5093 -0.1590  0.3862
  863MOL0     C16436   4.081   2.062   0.148 -1.0077 -0.0670  0.1315
  863MOL0     C16437   4.076   2.053   0.297  0.3754 -0.2846 -0.1800
  863MOL0     H16438   3.753   2.220   0.012 -0.1335  0.9871 -0.2111
  863MOL0     H16439   3.577   2.067   0.022  0.1685  3.2245  0.1820
  863MOL0     H16440   3.345   2.058   0.216 -1.7692 -0.2538  0.8167
  863MOL0     H16441   3.380   1.960   0.086 -0.9137  2.1843  0.5522
  863MOL0     H16442   3.215   1.904   0.319 -1.1129  0.1024 -0.2545
  863MOL0     H16443   3.295   1.767   0.243 -0.7003  0.0130  1.4437
  863MOL0     H16444   3.175   1.825   0.039  2.1141  1.4377 -0.3179
  863MOL0     H16445   3.112   1.973   0.127 -1.4657 -1.3622  0.2623
  863MOL0     H16446   3.068   1.690   0.202  0.2185 -0.4396  0.1817
  863MOL0     H16447   2.997   1.833   0.284  0.0413 -3.8979  2.3592
  863MOL0     H16448   2.904   1.885   0.054  0.0183 -0.4820 -0.7331
  863MOL0     H16449   2.929   1.712   0.009 -2.9727 -2.4274  0.4428
  863MOL0     H16450   2.753   1.857   0.215 -1.5111 -0.7249  0.3378
  863MOL0     H16451   2.703   1.762   0.077 -0.4019 -1.5680  0.9824
  863MOL0     H16452   2.823   1.619   0.303  0.0239  1.7982  0.6476
  863MOL0     H16453   2.725   1.551   0.172 -1.2624 -0.1877 -0.5594
  863MOL0     H16454   2.611   1.582   0.387  0.1592 -0.4863 -0.8429
  863MOL0     H16455   2.592   1.753   0.352 -0.3759 -0.6695  3.4580
  863MOL0     H16456   2.370   1.788   0.233 -0.7214 -1.7404  0.5539
  863MOL0     H16457   2.117   1.709   0.117 -0.1669 -1.9422  0.9900
  863MOL0     H16458   2.208   1.765  -0.020  2.9739  0.7659  3.0096
  863MOL0     H16459   2.177   1.538  -0.121  2.2624 -0.3812  2.0749
  863MOL0     H16460   2.075   1.488   0.015  0.2459  0.8721  0.3301
  863MOL0     H16461   2.034   1.702  -0.190  2.7449 -1.6016  0.3238
  863MOL0     H16462   1.927   1.695  -0.042 -1.7781 -0.2578 -0.9898
  863MOL0     H16463   1.842   1.476  -0.130 -1.0638  0.2191 -0.0750
  863MOL0     H16464   1.986   1.472  -0.241  0.2601  2.9602 -2.8850
  863MOL0     H16465   1.658   1.709  -0.444  2.3114  1.4799 -1.0955
  863MOL0     H16466   1.575   1.619  -0.646 -1.2906  2.2424  2.6186
  863MOL0     H16467   1.590   1.217  -0.989  0.4693  0.0446  3.5423
  863MOL0     H16468   1.425   1.126  -1.134  0.9226  0.3209 -0.0519
  863MOL0     H16469   1.295   1.253  -1.391 -0.5203  1.0229  0.5991
  863MOL0     H16470   1.295   1.093  -1.330  0.1883  0.0972 -2.0310
  863MOL0     H16471   1.124   1.043  -1.468 -1.3361  1.0958 -1.5674
  863MOL0     H16472   1.031   1.120  -1.340  0.6836  0.8932  1.2709
  863MOL0     H16473   0.972   1.244  -1.526 -0.1016 -2.6290  2.6862
  863MOL0     H16474   1.121   1.343  -1.495  3.3387 -1.6395  3.1375
  863MOL0     H16475   1.098   1.120  -1.683 -1.0945  1.3661  0.1564
  863MOL0     H16476   1.253   1.191  -1.641 -0.9387 -2.7088  2.1948
  863MOL0     H16477   1.162   1.419  -1.709 -1.9933  2.3773 -0.3851
  863MOL0     H16478   1.010   1.353  -1.740  0.4313  1.4504 -0.5423
  863MOL0     H16479   1.282   1.280  -1.881  0.2334  1.8516 -0.5185
  863MOL0     H16480   1.131   1.203  -1.928 -3.7333 -0.8924  5.1357
  863MOL0     H16481   1.174   1.507  -1.937 -2.7680  0.8847 -0.3041
  863MOL0     H16482   1.035   1.415  -2.002 -0.8284 -1.9362  2.1956
  863MOL0     H16483   1.232   1.468  -2.175  2.9657  0.4891  1.6834
  863MOL0     H16484   1.316   1.331  -2.108 -1.0738 -3.2402 -1.6076
  863MOL0     H16485   1.176   1.476  -1.079  1.7987  4.0089  1.4829
  863MOL0     H16486   1.344   1.544  -0.904  2.1574 -0.7366  3.4381
  863MOL0     H16487   1.736   1.228  -0.531 -0.1012  0.1190 -2.0017
  863MOL0     H16488   1.859   1.348  -0.356 -0.0461 -1.8429 -1.6795
  863MOL0     H16489   3.666   2.002   0.442 -2.1404  2.6892 -0.2642
  863MOL0     H16490   3.811   2.186   0.434  0.6262  2.8916  0.5686
  863MOL0     H16491   4.025   2.248  -0.129 -0.5123 -1.8116 -0.3981
  863MOL0     H16492   4.090   2.042  -0.246 -0.1141 -0.7214  0.8830
  863MOL0     H16493   4.257   1.877  -0.266  1.8868 -3.2304 -0.2695
  863MOL0     H16494   4.087   1.828  -0.294 -1.2723  0.8131  3.1267
  863MOL0     H16495   4.164   1.590  -0.243 -2.2865  0.0598 -1.7365
  863MOL0     H16496   4.331   1.648  -0.213  0.1236  2.0334 -0.8119
  863MOL0     H16497   4.362   1.672  -0.442  0.6448 -1.4399  0.8465
  863MOL0     H16498   4.184   1.677  -0.471 -2.7975  2.4846  4.4295
  863MOL0     H16499   4.383   1.460  -0.425  0.0207  1.7821 -2.6220
  863MOL0     H16500   4.197   1.430  -0.392 -1.7347  0.2651 -1.1402
  863MOL0     H16501   4.288   1.395  -0.801 -2.6974 -0.3442  0.2598
  863MOL0     H16502   4.140   1.855   0.134 -0.1201 -1.8744 -2.0430
  863MOL0     H16503   3.995   1.984   0.323 -2.3145  1.4162 -3.2956
  863MOL0     H16504   4.170   2.009   0.334 -0.5373  0.0556  2.7850
  863MOL0     H16505   4.062   2.152   0.340 -1.6294 -0.5992 -0.0147
  864MOL0     O16506   6.356   4.614   9.329  0.2434  0.4668  0.0096
  864MOL0     C16507   6.463   4.638   9.376 -0.3758 -0.1737 -0.1655
  864MOL0     O16508   6.530   4.753   9.357  0.2138  0.1434  0.4747
  864MOL0     C16509   6.470   4.856   9.294 -0.1632 -0.0727 -1.0390
  864MOL0     C16510   6.484   4.874   9.161  0.2847 -0.2242  0.7420
  864MOL0     C16511   6.406   4.979   9.092 -0.8560  0.9536 -0.9637
  864MOL0     C16512   6.326   5.066   9.164 -0.0532 -0.6968 -0.1088
  864MOL0     O16513   6.271   5.187   9.118 -0.3153 -0.5349 -0.6820
  864MOL0     C16514   6.279   5.216   8.978 -0.2308 -0.5673 -0.5878
  864MOL0     C16515   6.193   5.340   8.963  0.0714  0.3102  0.8382
  864MOL0     C16516   6.162   5.365   8.814  0.6577  0.3690  0.2021
  864MOL0     C16517   6.072   5.487   8.783  0.9614  0.1707  0.5661
  864MOL0     C16518   6.046   5.523   8.629  0.3107  0.3557  0.6111
  864MOL0     C16519   5.972   5.659   8.607 -0.5191  0.8992  0.8722
  864MOL0     C16520   5.874   5.654   8.482 -0.6188 -0.1013 -0.1938
  864MOL0     C16521   5.840   5.797   8.447 -0.1980 -0.9809 -0.0756
  864MOL0     N16522   5.744   5.811   8.332 -0.1389  0.3074 -0.3127
  864MOL0     C16523   5.781   5.821   8.205 -0.2045  0.0256 -0.9788
  864MOL0     C16524   5.673   5.820   8.123  0.2979  0.0653 -0.0518
  864MOL0     C16525   5.674   5.833   7.969 -0.1106  1.0952  0.6630
  864MOL0     C16526   5.679   5.980   7.930  0.8298 -0.9683  0.6119
  864MOL0     C16527   5.563   6.053   7.986 -0.3003  0.1078  0.3247
  864MOL0     C16528   5.531   6.188   7.920  0.1543 -0.3546  1.0733
  864MOL0     O16529   5.520   6.168   7.780 -0.2531 -0.1235 -0.0385
  864MOL0     C16530   5.514   6.276   7.695  0.1301  0.7408  0.2526
  864MOL0     C16531   5.584   6.389   7.729 -0.6336  0.1982 -0.1934
  864MOL0     C16532   5.562   6.504   7.652  0.5653 -0.3036 -0.0925
  864MOL0     C16533   5.476   6.499   7.539 -0.0168 -0.3341  0.3078
  864MOL0     C16534   5.461   6.617   7.455 -0.1363  0.2334  0.5801
  864MOL0     O16535   5.492   6.737   7.508  0.0150 -0.6107  0.0330
  864MOL0     C16536   5.530   6.843   7.431  0.2822 -1.2563 -0.0550
  864MOL0     C16537   5.442   6.953   7.390  0.0061  0.0965 -0.1965
  864MOL0     C16538   5.489   7.049   7.304 -0.6050  0.3977  0.3270
  864MOL0     C16539   5.620   7.046   7.251  0.4462 -0.2955  0.3203
  864MOL0     O16540   5.673   7.136   7.166 -0.1876  0.0406 -0.2188
  864MOL0     C16541   5.659   7.278   7.189 -1.0492 -0.1307  0.1503
  864MOL0     C16542   5.755   7.340   7.091  0.4978 -0.4822 -0.1810
  864MOL0     C16543   5.713   7.486   7.085 -0.0033 -0.5606 -0.1669
  864MOL0     C16544   5.573   7.507   7.009 -0.1050 -0.0080  1.5220
  864MOL0     C16545   5.575   7.628   6.907  0.3618 -0.4224 -0.3749
  864MOL0     C16546   5.555   7.772   6.965  0.1566  1.5916  1.0761
  864MOL0     C16547   5.664   7.809   7.061  0.6698 -0.7169  0.3667
  864MOL0     C16548   5.627   7.945   7.130  0.1692  0.4893  0.0201
  864MOL0    Cl16549   5.726   7.959   7.266  0.4492  0.1394  0.2920
  864MOL0     C16550   5.694   6.933   7.288  0.7438 -0.2719 -0.0377
  864MOL0     C16551   5.653   6.837   7.377 -0.5612 -0.8150 -0.6743
  864MOL0     O16552   5.416   6.598   7.339  0.1292 -0.1193 -0.3722
  864MOL0     C16553   5.407   6.378   7.508 -1.4487 -0.5094  0.3029
  864MOL0     C16554   5.424   6.257   7.591  0.8078 -1.3342  1.0596
  864MOL0     N16555   5.564   5.806   8.211 -0.1158  0.5105 -0.7475
  864MOL0     N16556   5.603   5.790   8.334  0.0108  0.4211  1.2180
  864MOL0     C16557   6.316   5.045   9.300  0.5890  0.2532 -0.3286
  864MOL0     C16558   6.381   4.941   9.359  0.3453  0.1133 -0.1610
  864MOL0     C16559   6.530   4.534   9.467  0.6104  0.5596  0.1514
  864MOL0     C16560   6.671   4.537   9.468 -0.0757  0.2925 -0.5595
  864MOL0     C16561   6.740   4.439   9.539 -0.8351  0.3479 -0.0118
  864MOL0     C16562   6.678   4.351   9.621  0.6365 -0.2289 -0.8028
  864MOL0     O16563   6.762   4.253   9.673  0.0465 -0.5847  0.5029
  864MOL0     C16564   6.742   4.228   9.809 -0.3181 -0.2455 -0.3794
  864MOL0     C16565   6.872   4.179   9.874 -0.4169  0.2241  1.5533
  864MOL0     C16566   6.860   4.154  10.021 -0.0712 -0.5760 -0.0255
  864MOL0     C16567   6.971   4.072  10.078 -0.1049 -0.5480 -0.0231
  864MOL0     C16568   7.113   4.111  10.056  0.1819 -0.2834  0.3880
  864MOL0     C16569   7.234   4.131  10.027  0.1533 -0.9047 -0.0553
  864MOL0     C16570   6.529   4.347   9.617 -0.4236  0.2121  0.3055
  864MOL0     C16571   6.461   4.439   9.540  0.9709 -0.6127 -0.2120
  864MOL0     C16572   6.313   4.423   9.549 -0.2996 -0.6631  0.6001
  864MOL0     H16573   6.544   4.806   9.101 -0.9884 -1.8774  1.2768
  864MOL0     H16574   6.398   4.972   8.984  2.8832  0.1192 -1.2991
  864MOL0     H16575   6.382   5.229   8.943 -0.2229  0.3898 -0.2375
  864MOL0     H16576   6.226   5.140   8.921 -1.0573  0.0452 -0.6563
  864MOL0     H16577   6.250   5.424   9.006  0.1113  2.2483 -2.6284
  864MOL0     H16578   6.097   5.317   9.008  0.3529 -1.5311  0.5459
  864MOL0     H16579   6.115   5.272   8.779 -2.0075  0.7742  2.3949
  864MOL0     H16580   6.254   5.388   8.760  0.9274  1.3448  1.0529
  864MOL0     H16581   5.968   5.465   8.811 -0.1145  3.3378 -0.4283
  864MOL0     H16582   6.108   5.571   8.843 -1.3789 -2.1616  5.8992
  864MOL0     H16583   6.135   5.537   8.567 -0.6784  1.3307 -0.6396
  864MOL0     H16584   5.999   5.442   8.574  3.0288 -0.0005 -1.3503
  864MOL0     H16585   5.907   5.676   8.693 -2.5975  0.3757 -0.5199
  864MOL0     H16586   6.051   5.735   8.604  0.9554 -0.4764  2.5056
  864MOL0     H16587   5.775   5.612   8.500  0.1068 -1.3807  0.8897
  864MOL0     H16588   5.912   5.618   8.386 -1.4107  3.9324 -2.2676
  864MOL0     H16589   5.800   5.839   8.540  2.3304  1.0897  0.2051
  864MOL0     H16590   5.927   5.860   8.428 -0.5302 -0.3634  0.4105
  864MOL0     H16591   5.882   5.853   8.180 -0.1545  1.4899  0.8980
  864MOL0     H16592   5.758   5.781   7.923 -1.0805 -0.2101  0.3026
  864MOL0     H16593   5.586   5.789   7.920  0.8802  0.1952 -0.3599
  864MOL0     H16594   5.772   6.031   7.958 -0.0061  0.6047  0.6579
  864MOL0     H16595   5.677   5.986   7.821  3.0820 -0.5603  0.5540
  864MOL0     H16596   5.566   6.072   8.094 -0.5473 -0.3442  0.4185
  864MOL0     H16597   5.478   5.988   7.964 -0.2643  0.0110  0.4669
  864MOL0     H16598   5.605   6.264   7.945  0.9753 -0.3262 -1.2154
  864MOL0     H16599   5.436   6.227   7.960 -0.1099  1.5154 -1.1800
  864MOL0     H16600   5.673   6.392   7.791  0.6739  0.1455 -1.9875
  864MOL0     H16601   5.624   6.581   7.698  2.1839 -1.9773  0.6618
  864MOL0     H16602   5.343   6.940   7.431 -0.7415 -1.0387 -2.2384
  864MOL0     H16603   5.427   7.131   7.271 -0.8980  0.6966  1.5729
  864MOL0     H16604   5.558   7.308   7.159 -1.2853 -2.0784 -1.1680
  864MOL0     H16605   5.701   7.315   7.283  2.8492 -0.8737 -1.0855
  864MOL0     H16606   5.856   7.338   7.133  0.6605 -1.1187 -0.5904
  864MOL0     H16607   5.760   7.302   6.988 -1.9809  2.0785 -1.3916
  864MOL0     H16608   5.694   7.531   7.183 -1.5001 -1.3999 -0.0413
  864MOL0     H16609   5.803   7.530   7.041  0.1738 -0.6915  0.0596
  864MOL0     H16610   5.481   7.522   7.066 -2.5839 -2.0743 -1.6203
  864MOL0     H16611   5.561   7.433   6.930 -0.5873 -1.1153  2.5974
  864MOL0     H16612   5.485   7.608   6.849  0.4797 -2.9771  0.1938
  864MOL0     H16613   5.664   7.626   6.843  0.1799  2.3230 -0.8082
  864MOL0     H16614   5.543   7.845   6.885 -0.0050  0.4985  0.0897
  864MOL0     H16615   5.452   7.767   7.001 -1.5956  4.2677 -2.8588
  864MOL0     H16616   5.761   7.802   7.010 -0.4023 -1.5424 -1.6766
  864MOL0     H16617   5.663   7.739   7.145 -0.3526  1.6320  2.4343
  864MOL0     H16618   5.652   8.034   7.072 -0.6775 -0.3903 -1.7695
  864MOL0     H16619   5.521   7.938   7.158 -0.5302  0.0702 -2.5109
  864MOL0     H16620   5.797   6.930   7.254  1.2793 -0.9831  1.6069
  864MOL0     H16621   5.703   6.749   7.417 -2.1776  0.1054  3.9318
  864MOL0     H16622   5.345   6.361   7.420  2.3797 -2.2850 -2.3453
  864MOL0     H16623   5.370   6.169   7.558  0.3863 -0.7608  0.1762
  864MOL0     H16624   6.264   5.113   9.367 -0.9330  0.2911 -1.5152
  864MOL0     H16625   6.363   4.926   9.466 -0.3231  1.5027 -0.0532
  864MOL0     H16626   6.731   4.600   9.403 -1.1022  0.3947 -1.4384
  864MOL0     H16627   6.847   4.454   9.549 -0.4296 -1.8471 -0.4685
  864MOL0     H16628   6.667   4.149   9.820 -1.2119  0.8341  1.9915
  864MOL0     H16629   6.715   4.316   9.869 -2.1899  0.1014 -1.6402
  864MOL0     H16630   6.950   4.251   9.850 -0.4252 -0.5843 -1.2664
  864MOL0     H16631   6.898   4.083   9.828  1.1168  1.1947  0.2975
  864MOL0     H16632   6.767   4.103  10.051 -1.6995  2.9258  1.3993
  864MOL0     H16633   6.851   4.250  10.072  1.8373  0.2823 -1.2178
  864MOL0     H16634   6.960   4.073  10.187  1.0256  3.7521  0.2494
  864MOL0     H16635   6.953   3.969  10.046 -1.9987 -0.5885  1.0108
  864MOL0     H16636   7.335   4.151   9.996  1.2539  0.3618  3.7860
  864MOL0     H16637   6.479   4.262   9.663  1.4441 -1.3215 -0.3754
  864MOL0     H16638   6.281   4.376   9.642  1.7474  1.5063  2.5603
  864MOL0     H16639   6.253   4.514   9.536 -0.8985 -1.1808 -0.4235
  864MOL0     H16640   6.274   4.354   9.474 -0.1374 -0.5699  0.4288
  865MOL0     O16641   2.477   9.730   6.448  0.3173 -0.1063 -0.4764
  865MOL0     C16642   2.495   9.828   6.516 -0.3577 -0.6288  0.0973
  865MOL0     O16643   2.402   9.918   6.567  0.7510  0.0988 -0.4377
  865MOL0     C16644   2.266   9.888   6.568 -0.7814 -0.2374 -0.2085
  865MOL0     C16645   2.190   9.990   6.528 -0.4013  0.1588  0.9693
  865MOL0     C16646   2.054   9.961   6.517 -0.5326  0.3722  0.2455
  865MOL0     C16647   1.990   9.838   6.547 -0.1353  0.0739 -0.1870
  865MOL0     O16648   1.857   9.806   6.524  0.1136 -0.1621  0.1610
  865MOL0     C16649   1.808   9.682   6.560  0.3142  0.5966  0.3011
  865MOL0     C16650   1.657   9.685   6.578  0.3139 -0.1875 -0.0366
  865MOL0     C16651   1.593   9.747   6.451 -0.3519  0.5050 -0.8668
  865MOL0     C16652   1.448   9.705   6.435  0.4167 -0.2487 -1.0928
  865MOL0     C16653   1.346   9.786   6.514  0.2641 -0.1469  0.4521
  865MOL0     C16654   1.207   9.745   6.474  1.5026  1.2554  0.2223
  865MOL0     C16655   1.105   9.819   6.561  0.5945 -0.0882  1.1515
  865MOL0     C16656   1.087   9.762   6.701 -0.1184 -0.7542 -0.7114
  865MOL0     N16657   0.946   9.782   6.748  0.2591 -0.3298 -1.1696
  865MOL0     C16658   0.895   9.902   6.755 -0.4792 -0.8437  0.4214
  865MOL0     C16659   0.772   9.881   6.805  0.5946  0.5998 -1.0915
  865MOL0     C16660   0.678   9.993   6.808  0.1629 -0.4728  0.7600
  865MOL0     C16661   0.533   9.956   6.760 -0.6870  0.0738 -0.0791
  865MOL0     C16662   0.451   9.899   6.877  0.6132  0.3062 -0.0274
  865MOL0     C16663   0.310   9.851   6.830  0.1623 -0.7141  0.1497
  865MOL0     O16664   0.228   9.961   6.785  0.6476 -0.4320  0.6056
  865MOL0     C16665   0.157  10.046   6.868 -0.5831 -0.9390  0.6421
  865MOL0     C16666   0.114  10.024   6.998 -0.3171  0.1227  0.0763
  865MOL0     C16667   0.013  10.101   7.043 -0.5349  0.2859  1.0375
  865MOL0     C16668  -0.042  10.204   6.973 -0.0384 -0.3874  0.9940
  865MOL0     C16669  -0.155  10.280   7.014  0.2627 -0.1680 -0.0253
  865MOL0     O16670  -0.191  10.275   7.141 -0.7109 -0.1901 -0.3050
  865MOL0     C16671  -0.315  10.325   7.182 -0.2208 -0.3388  0.6370
  865MOL0     C16672  -0.436  10.272   7.122 -0.2649  0.5742 -0.1830
  865MOL0     C16673  -0.558  10.312   7.181  0.0140  0.7395  0.1120
  865MOL0     C16674  -0.559  10.412   7.277  0.4989  0.2722  0.4588
  865MOL0     O16675  -0.674  10.458   7.337 -0.2651  0.6331 -0.4754
  865MOL0     C16676  -0.802  10.405   7.302  0.9282 -0.4422  0.0290
  865MOL0     C16677  -0.904  10.481   7.389  0.3329 -0.1056 -0.1579
  865MOL0     C16678  -0.909  10.422   7.536 -0.0735 -0.1177 -0.0320
  865MOL0     C16679  -0.940  10.534   7.636  1.0056  0.6867  0.1385
  865MOL0     C16680  -0.935  10.471   7.780  0.4686  0.3142 -0.1264
  865MOL0     C16681  -0.984  10.588   7.876  0.7284 -0.0989 -0.2186
  865MOL0     C16682  -0.946  10.561   8.022 -0.9814 -0.4441  0.0775
  865MOL0     C16683  -1.029  10.442   8.084  0.3665 -0.3999  1.6890
  865MOL0    Cl16684  -1.083  10.480   8.245  0.5301 -0.0380  0.2274
  865MOL0     C16685  -0.443  10.469   7.328  0.1016  0.5704  0.6043
  865MOL0     C16686  -0.320  10.422   7.281 -0.3665  0.6292 -0.3180
  865MOL0     O16687  -0.204  10.358   6.939 -0.5666 -0.7438  0.1094
  865MOL0     C16688   0.010  10.235   6.846 -0.2043 -0.2081 -0.8484
  865MOL0     C16689   0.109  10.160   6.797 -0.1640  0.2107 -0.1044
  865MOL0     N16690   0.748   9.744   6.824  1.4593  0.0291 -0.8192
  865MOL0     N16691   0.856   9.688   6.780  0.1105  0.4951 -1.2706
  865MOL0     C16692   2.082   9.742   6.587 -0.2534  0.1294 -0.3008
  865MOL0     C16693   2.217   9.756   6.590  0.6744 -0.2773 -0.0214
  865MOL0     C16694   2.648   9.864   6.549  0.3950  0.0023  0.1084
  865MOL0     C16695   2.674   9.984   6.613  0.2298 -0.8771  1.0311
  865MOL0     C16696   2.795  10.011   6.676  0.5526 -0.2396 -0.5914
  865MOL0     C16697   2.902   9.921   6.688 -0.1029  0.2444 -0.3609
  865MOL0     O16698   3.018   9.956   6.760  0.0033 -0.2508  0.3793
  865MOL0     C16699   3.119   9.860   6.769 -0.3696  0.9015  0.3152
  865MOL0     C16700   3.235   9.901   6.859  0.3169  0.0761 -0.5791
  865MOL0     C16701   3.307   9.793   6.945 -0.7706  0.8950 -0.4134
  865MOL0     C16702   3.412   9.833   7.054 -0.0006  0.1784  1.0037
  865MOL0     C16703   3.506   9.929   6.983  0.2914  0.0563  0.6016
  865MOL0     C16704   3.577   9.995   6.908  0.6277  0.0450 -0.3426
  865MOL0     C16705   2.876   9.801   6.623 -0.0669  0.1501 -0.3080
  865MOL0     C16706   2.756   9.769   6.551 -0.4736 -0.3891  0.1069
  865MOL0     C16707   2.741   9.637   6.492  0.0270  0.0711 -0.2642
  865MOL0     H16708   2.218  10.095   6.520  0.5740 -0.0860  1.0587
  865MOL0     H16709   1.994  10.044   6.481  0.6560  0.9241 -0.5071
  865MOL0     H16710   1.832   9.598   6.494  0.3780 -2.2193  3.6330
  865MOL0     H16711   1.843   9.648   6.658  1.2379 -0.7026 -0.4428
  865MOL0     H16712   1.633   9.743   6.668 -3.5438  2.3060 -2.3937
  865MOL0     H16713   1.622   9.582   6.594  1.6668 -0.8603 -1.2170
  865MOL0     H16714   1.651   9.735   6.359 -0.7854  0.7348 -1.1767
  865MOL0     H16715   1.604   9.855   6.463 -0.5982  0.5350 -0.9076
  865MOL0     H16716   1.440   9.700   6.326 -0.8534 -0.1688 -1.0164
  865MOL0     H16717   1.439   9.603   6.473  0.5059 -0.0309 -0.4642
  865MOL0     H16718   1.364   9.780   6.622 -0.0947  1.5476  0.6404
  865MOL0     H16719   1.376   9.888   6.488  1.6914 -1.2127 -2.4389
  865MOL0     H16720   1.197   9.764   6.366  0.6600  1.7790  0.3909
  865MOL0     H16721   1.182   9.641   6.493 -2.5596  1.7223 -1.5666
  865MOL0     H16722   1.005   9.816   6.517  0.6429  2.4339  0.7248
  865MOL0     H16723   1.125   9.926   6.576 -5.7317  1.5228  1.2098
  865MOL0     H16724   1.112   9.655   6.706 -0.7436 -0.8672  2.7849
  865MOL0     H16725   1.163   9.804   6.768 -1.0616 -0.8710  0.4722
  865MOL0     H16726   0.938   9.997   6.727 -1.4605  0.6091  3.4970
  865MOL0     H16727   0.678  10.024   6.912  0.6897 -0.1424  0.6645
  865MOL0     H16728   0.722  10.065   6.739 -1.6012 -0.9406 -0.9595
  865MOL0     H16729   0.479  10.044   6.724 -0.9873  0.2067  0.6800
  865MOL0     H16730   0.541   9.876   6.686 -2.9872 -2.7833  2.4471
  865MOL0     H16731   0.429   9.978   6.950 -0.4089 -0.5602  0.6311
  865MOL0     H16732   0.509   9.820   6.925  0.1290  0.1725  0.3450
  865MOL0     H16733   0.266   9.798   6.915 -0.4678 -1.1883 -0.4715
  865MOL0     H16734   0.319   9.771   6.757 -1.3354 -1.8324  1.1193
  865MOL0     H16735   0.142   9.935   7.054 -1.3813 -1.1398 -1.3133
  865MOL0     H16736  -0.030  10.052   7.130 -2.1876 -1.0224 -0.4590
  865MOL0     H16737  -0.436  10.183   7.060  2.8820  0.8674 -0.7448
  865MOL0     H16738  -0.642  10.248   7.154 -0.9505  2.0478 -0.1116
  865MOL0     H16739  -0.835  10.425   7.199  1.0882  1.3174  0.2976
  865MOL0     H16740  -0.809  10.297   7.319 -0.0900 -0.6753 -1.6633
  865MOL0     H16741  -0.861  10.580   7.372  0.0252 -0.0202 -0.4665
  865MOL0     H16742  -1.004  10.468   7.346 -0.9326 -2.5075  3.1437
  865MOL0     H16743  -0.974  10.335   7.551 -0.4682  0.2295  0.2952
  865MOL0     H16744  -0.810  10.386   7.565 -0.9580 -1.7593  1.0590
  865MOL0     H16745  -1.038  10.574   7.609 -0.2675 -1.5598  1.1697
  865MOL0     H16746  -0.865  10.614   7.632  2.7031 -0.8327 -0.1245
  865MOL0     H16747  -0.834  10.438   7.808 -0.5510 -1.6479  1.5866
  865MOL0     H16748  -1.003  10.386   7.794 -1.8847  1.7170 -2.2236
  865MOL0     H16749  -0.935  10.680   7.845  1.8669 -0.7075 -0.3104
  865MOL0     H16750  -1.092  10.603   7.869  0.5375 -0.6581  1.1677
  865MOL0     H16751  -0.932  10.657   8.074  3.6628  1.3207 -3.6440
  865MOL0     H16752  -0.843  10.525   8.014 -0.2560  1.5807 -0.3314
  865MOL0     H16753  -1.117  10.416   8.026 -1.1105  2.0104  2.6669
  865MOL0     H16754  -0.961  10.357   8.087 -1.3331 -1.8232  1.0587
  865MOL0     H16755  -0.459  10.551   7.398  0.3808  2.2784 -1.2376
  865MOL0     H16756  -0.230  10.460   7.328  0.5427  0.6617 -2.0228
  865MOL0     H16757  -0.028  10.322   6.793 -1.8242  1.8769  3.2639
  865MOL0     H16758   0.158  10.184   6.702  0.6957 -0.0267  0.2688
  865MOL0     H16759   2.057   9.638   6.606  0.6316 -0.1407 -0.5875
  865MOL0     H16760   2.277   9.669   6.617  1.1643  0.2157  0.4938
  865MOL0     H16761   2.598  10.061   6.607  3.9367  3.0869 -0.5992
  865MOL0     H16762   2.811  10.111   6.714 -4.1172  1.2420 -1.8311
  865MOL0     H16763   3.163   9.855   6.669  0.1055 -0.9342  0.5778
  865MOL0     H16764   3.090   9.760   6.800  0.9307  0.1098 -0.9193
  865MOL0     H16765   3.197   9.976   6.929  0.7725  0.1999 -0.4571
  865MOL0     H16766   3.316   9.938   6.796  0.8801  0.7386  0.5001
  865MOL0     H16767   3.350   9.721   6.876 -0.1324 -0.7100  1.5561
  865MOL0     H16768   3.231   9.742   7.006  0.0935  4.1078  3.8603
  865MOL0     H16769   3.365   9.870   7.145 -1.6325  0.3567  0.1381
  865MOL0     H16770   3.455   9.739   7.087  0.4808  0.1754  0.3927
  865MOL0     H16771   3.640  10.064   6.855  1.8353 -1.7159 -1.2891
  865MOL0     H16772   2.947   9.720   6.638 -2.1521 -2.4115 -3.0072
  865MOL0     H16773   2.707   9.634   6.388 -0.0250  4.6883 -0.5635
  865MOL0     H16774   2.840   9.591   6.481 -1.4210 -2.8132 -2.4562
  865MOL0     H16775   2.681   9.574   6.558 -1.0126  2.6371  1.3769
  866MOL0     O16776  11.146   0.585  11.341 -0.0168 -0.0130 -0.0659
  866MOL0     C16777  11.127   0.554  11.223  0.1959  0.0572  0.4921
  866MOL0     O16778  11.227   0.523  11.134  0.1582  0.7934  0.4373
  866MOL0     C16779  11.351   0.579  11.134  0.1924  0.6110 -0.2231
  866MOL0     C16780  11.443   0.519  11.048  0.5117  0.9297  0.3303
  866MOL0     C16781  11.564   0.570  11.044 -0.9788 -0.2496 -0.0579
  866MOL0     C16782  11.611   0.668  11.126 -0.3867  0.3571  0.0324
  866MOL0     O16783  11.739   0.708  11.133  0.5035  0.4356 -0.9091
  866MOL0     C16784  11.788   0.837  11.189 -0.4537  0.3055 -0.5664
  866MOL0     C16785  11.929   0.846  11.174  0.1572  0.3770  0.2386
  866MOL0     C16786  12.001   0.729  11.241 -0.2580  0.4445 -0.6791
  866MOL0     C16787  12.143   0.762  11.294  1.2131  0.1286 -0.3068
  866MOL0     C16788  12.131   0.843  11.422 -0.3214 -0.2412  0.5320
  866MOL0     C16789  12.255   0.833  11.518 -0.0552 -0.3549  0.1912
  866MOL0     C16790  12.374   0.896  11.445  0.1677  1.1769  0.4559
  866MOL0     C16791  12.488   0.900  11.550  0.7563  1.0349  0.1933
  866MOL0     N16792  12.611   0.958  11.491 -0.1696 -0.1804  0.1564
  866MOL0     C16793  12.656   1.079  11.532  1.1802 -0.2143  0.2764
  866MOL0     C16794  12.775   1.099  11.465  0.0281  0.0491 -0.1765
  866MOL0     C16795  12.867   1.219  11.497  0.0321  0.2929  0.0362
  866MOL0     C16796  12.926   1.300  11.377  0.3382  0.2828  0.4612
  866MOL0     C16797  12.957   1.244  11.236 -0.8270 -0.0346  0.7222
  866MOL0     C16798  13.075   1.151  11.247 -0.4407  0.0616 -0.0507
  866MOL0     O16799  13.187   1.215  11.319  0.0179 -0.3669 -0.5109
  866MOL0     C16800  13.315   1.150  11.320 -1.1485 -0.5449 -0.2034
  866MOL0     C16801  13.359   1.070  11.215 -0.7081  0.3740  0.6573
  866MOL0     C16802  13.479   1.006  11.210 -0.0786  0.6067  0.2082
  866MOL0     C16803  13.571   1.025  11.312  0.3755  0.0039  0.0597
  866MOL0     C16804  13.705   0.949  11.325 -0.0264  0.2655  0.1160
  866MOL0     O16805  13.806   1.000  11.407 -0.7484 -0.6571  0.0828
  866MOL0     C16806  13.900   0.910  11.454 -0.7935  0.6545 -1.2343
  866MOL0     C16807  13.999   0.854  11.370 -0.4793  0.0522 -0.0442
  866MOL0     C16808  14.104   0.773  11.417 -0.1615 -0.1661 -0.3107
  866MOL0     C16809  14.108   0.736  11.552 -0.3681 -1.4038 -0.2434
  866MOL0     O16810  14.213   0.649  11.574  0.1948 -0.1736 -0.5451
  866MOL0     C16811  14.212   0.571  11.695 -0.8891 -0.0882  1.1703
  866MOL0     C16812  14.143   0.437  11.670 -0.4897 -0.0715 -0.2691
  866MOL0     C16813  14.233   0.337  11.584  0.5019  0.0312 -0.0204
  866MOL0     C16814  14.172   0.206  11.553  0.7517  0.6159  0.6567
  866MOL0     C16815  14.034   0.206  11.480  0.9215 -0.0331  1.1702
  866MOL0     C16816  13.931   0.102  11.538  0.1073 -0.4065 -0.2434
  866MOL0     C16817  13.789   0.082  11.476 -0.6797 -0.6789 -0.2655
  866MOL0     C16818  13.773   0.153  11.348  0.3663 -1.0649  0.1609
  866MOL0    Cl16819  13.873   0.079  11.221 -0.4648  0.0921 -0.2269
  866MOL0     C16820  14.003   0.774  11.635 -1.2975 -0.1654  0.0512
  866MOL0     C16821  13.911   0.874  11.588  0.5632  0.6544  0.3383
  866MOL0     O16822  13.703   0.835  11.274 -0.5496 -0.4054 -0.2627
  866MOL0     C16823  13.524   1.105  11.422 -1.2679 -1.0090  0.4859
  866MOL0     C16824  13.401   1.174  11.426 -0.3843  0.4419  0.1221
  866MOL0     N16825  12.785   0.989  11.375  0.0171  0.3854  0.4752
  866MOL0     N16826  12.687   0.902  11.391  0.8744 -0.3128  0.0452
  866MOL0     C16827  11.529   0.714  11.227  0.0074 -0.8886  0.6142
  866MOL0     C16828  11.390   0.682  11.222 -0.2823 -0.0529 -0.3638
  866MOL0     C16829  10.983   0.527  11.164 -0.6934  0.7045 -0.9982
  866MOL0     C16830  10.976   0.470  11.027  0.4026 -0.2994  0.6310
  866MOL0     C16831  10.853   0.442  10.977 -0.1939  0.6080  0.0443
  866MOL0     C16832  10.733   0.463  11.041  0.1899 -0.0812 -0.8211
  866MOL0     O16833  10.622   0.411  10.980  0.8381 -0.0965 -0.3124
  866MOL0     C16834  10.489   0.474  11.019  0.1625  0.2206  0.2591
  866MOL0     C16835  10.480   0.621  10.954  0.1172  0.3611 -0.0545
  866MOL0     C16836  10.441   0.625  10.801  0.2733  0.1728  1.3827
  866MOL0     C16837  10.294   0.622  10.751 -0.0029  0.9996 -0.0794
  866MOL0     C16838  10.240   0.755  10.734  0.3805 -0.6405 -0.7420
  866MOL0     C16839  10.183   0.866  10.710  0.0843 -0.4642  0.1080
  866MOL0     C16840  10.741   0.534  11.166 -0.1380 -0.3116  0.2493
  866MOL0     C16841  10.864   0.570  11.223 -0.1712  0.5793 -0.0697
  866MOL0     C16842  10.862   0.662  11.346 -0.5785 -0.9389  0.0382
  866MOL0     H16843  11.408   0.438  10.985  2.4499 -0.6343  1.1475
  866MOL0     H16844  11.627   0.530  10.965 -2.7668 -0.2255 -1.5711
  866MOL0     H16845  11.736   0.920  11.141 -0.5708 -0.0593 -1.0806
  866MOL0     H16846  11.769   0.844  11.297  4.2451  0.5287  0.4370
  866MOL0     H16847  11.967   0.945  11.203  1.1320  0.0676  0.0806
  866MOL0     H16848  11.948   0.828  11.068 -2.1383  0.6120 -0.2550
  866MOL0     H16849  12.011   0.648  11.168 -1.2670 -3.2557  2.9378
  866MOL0     H16850  11.937   0.677  11.313  1.2276  0.0419  0.4037
  866MOL0     H16851  12.201   0.673  11.316  0.9633  0.4039  1.6140
  866MOL0     H16852  12.197   0.823  11.221  4.0690 -3.3923 -1.3643
  866MOL0     H16853  12.127   0.949  11.396 -3.4374 -0.5295 -0.5998
  866MOL0     H16854  12.043   0.820  11.484  0.8921 -1.7754  1.7896
  866MOL0     H16855  12.239   0.869  11.620  0.8465 -0.1622  0.2696
  866MOL0     H16856  12.279   0.727  11.532 -0.7768 -0.4501  0.8164
  866MOL0     H16857  12.351   1.002  11.431 -0.0561  0.8538 -2.0790
  866MOL0     H16858  12.396   0.847  11.350  0.1957  2.5219 -0.2462
  866MOL0     H16859  12.449   0.952  11.638 -3.1479  0.1676 -0.8234
  866MOL0     H16860  12.510   0.797  11.580 -3.1408  0.0037  0.0261
  866MOL0     H16861  12.615   1.147  11.605  0.0085  1.3407 -1.7357
  866MOL0     H16862  12.815   1.291  11.561  0.3839 -0.0152  0.6843
  866MOL0     H16863  12.949   1.189  11.563 -0.2297 -1.6022 -0.4304
  866MOL0     H16864  12.845   1.369  11.351 -0.8545 -1.3487 -0.3455
  866MOL0     H16865  13.017   1.356  11.400  1.6318 -0.9811 -1.2325
  866MOL0     H16866  12.980   1.326  11.168 -0.4815 -0.7733 -0.0628
  866MOL0     H16867  12.868   1.192  11.198  0.0669 -1.4230  0.4505
  866MOL0     H16868  13.095   1.125  11.143  0.3214  0.7772 -0.0903
  866MOL0     H16869  13.033   1.059  11.290  1.2479 -0.6241  0.1953
  866MOL0     H16870  13.307   1.064  11.120  0.1007 -1.2595  0.2784
  866MOL0     H16871  13.503   0.940  11.127 -3.1061 -3.0047  1.8981
  866MOL0     H16872  13.994   0.864  11.262  1.3655 -2.4216 -0.4533
  866MOL0     H16873  14.184   0.745  11.349 -0.0567 -0.5800 -0.0153
  866MOL0     H16874  14.316   0.551  11.720 -0.5111  2.5421  1.9961
  866MOL0     H16875  14.172   0.619  11.785 -1.3719  1.1400  0.3228
  866MOL0     H16876  14.119   0.387  11.765 -0.6136 -0.2528 -0.3952
  866MOL0     H16877  14.053   0.461  11.613 -0.0685  0.9162 -0.5454
  866MOL0     H16878  14.245   0.391  11.490 -1.2603 -0.4238 -0.5550
  866MOL0     H16879  14.325   0.316  11.638 -1.1289 -1.7765  2.2852
  866MOL0     H16880  14.156   0.153  11.648  1.7885 -1.1049 -0.0748
  866MOL0     H16881  14.245   0.159  11.486  0.6484 -0.5502  1.3312
  866MOL0     H16882  14.058   0.180  11.376 -1.9196 -0.0026  0.4374
  866MOL0     H16883  13.993   0.307  11.476  1.0361  0.2214  4.1604
  866MOL0     H16884  13.976   0.002  11.539  0.6451 -0.1953  1.7383
  866MOL0     H16885  13.919   0.121  11.645 -0.6685 -1.6166 -0.0887
  866MOL0     H16886  13.713   0.126  11.540  1.0487  0.4731  1.1042
  866MOL0     H16887  13.769  -0.025  11.461  3.4384 -1.6293 -0.3485
  866MOL0     H16888  13.668   0.149  11.315 -0.8264  2.0185  2.9910
  866MOL0     H16889  13.802   0.258  11.351 -2.8786 -0.0783  1.8654
  866MOL0     H16890  13.997   0.729  11.733  0.7032  2.9162  1.7644
  866MOL0     H16891  13.843   0.911  11.664  0.1196  2.2860 -0.7890
  866MOL0     H16892  13.585   1.134  11.507  1.8252  0.0769 -1.9158
  866MOL0     H16893  13.362   1.242  11.500 -1.7129  0.2432 -0.3777
  866MOL0     H16894  11.577   0.783  11.295  0.2961  0.1564 -0.6023
  866MOL0     H16895  11.313   0.726  11.285  0.2679 -1.7009  1.5967
  866MOL0     H16896  11.061   0.462  10.959  1.6785  4.2918  1.3253
  866MOL0     H16897  10.857   0.398  10.878 -0.0372 -0.9367  0.7046
  866MOL0     H16898  10.478   0.470  11.127  1.2961 -1.9397  0.3513
  866MOL0     H16899  10.413   0.404  10.982  0.3982 -0.2627  0.6709
  866MOL0     H16900  10.586   0.649  10.959  0.4205 -0.8162  0.6499
  866MOL0     H16901  10.412   0.691  11.004  0.7430  1.0056 -0.0942
  866MOL0     H16902  10.504   0.549  10.753  0.4135  1.1876 -0.0841
  866MOL0     H16903  10.478   0.724  10.775  0.9073  0.1630  2.1899
  866MOL0     H16904  10.289   0.573  10.653 -0.2525 -0.7268  0.7591
  866MOL0     H16905  10.239   0.551  10.813  0.0342  1.4080  0.4287
  866MOL0     H16906  10.162   0.971  10.700  4.1366  0.8618  2.9910
  866MOL0     H16907  10.651   0.561  11.220  0.3007 -0.0956  0.8743
  866MOL0     H16908  10.765   0.682  11.393  0.3928  0.2094  1.6728
  866MOL0     H16909  10.914   0.617  11.431  1.6365 -1.8401 -1.6957
  866MOL0     H16910  10.913   0.757  11.327 -2.0361 -0.4176 -1.5175
  867MOL0     O16911   8.298   6.485   2.815 -0.3203 -0.1767 -0.4028
  867MOL0     C16912   8.410   6.488   2.759  0.8556  0.8642 -0.2698
  867MOL0     O16913   8.524   6.519   2.812 -0.0773  0.1375 -0.3432
  867MOL0     C16914   8.522   6.531   2.949  0.1698  0.1618 -0.1403
  867MOL0     C16915   8.598   6.440   3.025  0.7519  0.0300 -0.4540
  867MOL0     C16916   8.614   6.459   3.159 -0.2660  0.2125 -0.0962
  867MOL0     C16917   8.543   6.557   3.228  0.9261 -0.4266  0.6678
  867MOL0     O16918   8.568   6.570   3.355 -0.0203 -0.5207  0.4074
  867MOL0     C16919   8.458   6.625   3.439  0.4956 -0.4114  0.3992
  867MOL0     C16920   8.513   6.652   3.580  0.2649 -0.5467 -0.6255
  867MOL0     C16921   8.592   6.531   3.632  0.1417 -0.1781 -0.4631
  867MOL0     C16922   8.641   6.544   3.772 -0.7751  0.6635 -0.0316
  867MOL0     C16923   8.678   6.405   3.824 -0.8011  0.3451  0.9345
  867MOL0     C16924   8.741   6.397   3.961 -0.4146  0.4098  0.6888
  867MOL0     C16925   8.704   6.267   4.037 -0.0154  0.2879 -0.3373
  867MOL0     C16926   8.708   6.271   4.190 -0.7658 -0.1895  0.4270
  867MOL0     N16927   8.831   6.336   4.244  0.0089  0.4528  0.0257
  867MOL0     C16928   8.945   6.270   4.285 -0.6601  0.0454 -0.3697
  867MOL0     C16929   9.021   6.368   4.343 -0.4697 -0.2196  0.8821
  867MOL0     C16930   9.157   6.342   4.404 -0.3031 -0.2131  0.5803
  867MOL0     C16931   9.249   6.289   4.290 -0.1758  0.2286  0.1688
  867MOL0     C16932   9.397   6.265   4.338 -0.9491  0.4971  0.7070
  867MOL0     C16933   9.402   6.145   4.443 -0.1655 -1.6452 -0.1806
  867MOL0     O16934   9.324   6.035   4.415  0.1392 -0.0792  0.2669
  867MOL0     C16935   9.352   5.915   4.480  0.7414  0.1390 -0.0994
  867MOL0     C16936   9.434   5.899   4.591 -0.3777  0.1599  0.0413
  867MOL0     C16937   9.436   5.779   4.668 -0.4912  0.5301  0.1116
  867MOL0     C16938   9.366   5.666   4.626  0.0146  0.2407  0.3919
  867MOL0     C16939   9.351   5.553   4.723  0.2585 -1.1721 -0.3954
  867MOL0     O16940   9.380   5.582   4.851  0.2372 -0.0751  0.2305
  867MOL0     C16941   9.332   5.514   4.958  0.4643 -0.8971 -0.0143
  867MOL0     C16942   9.205   5.550   5.020 -0.5971  0.4355 -0.1920
  867MOL0     C16943   9.162   5.485   5.138  0.0226  0.3552  1.0453
  867MOL0     C16944   9.252   5.398   5.207  0.5100  0.1579  1.5105
  867MOL0     O16945   9.225   5.351   5.330  0.8402 -0.7734 -0.6245
  867MOL0     C16946   9.318   5.276   5.417 -1.4220 -0.3824 -0.6279
  867MOL0     C16947   9.295   5.125   5.392  0.0164  0.2348 -0.3871
  867MOL0     C16948   9.284   5.039   5.513 -0.3295 -0.7248 -0.3936
  867MOL0     C16949   9.395   5.040   5.624  0.6010 -0.3027 -0.2451
  867MOL0     C16950   9.371   4.927   5.722 -0.2213  0.1812  0.4033
  867MOL0     C16951   9.449   4.932   5.852 -0.1873  0.4557 -0.2777
  867MOL0     C16952   9.551   4.820   5.866 -0.4081  1.0518 -0.1279
  867MOL0     C16953   9.492   4.699   5.937 -0.0710  0.0761 -0.1059
  867MOL0    Cl16954   9.484   4.742   6.117  0.2669  0.0400 -0.4558
  867MOL0     C16955   9.365   5.353   5.130  0.2850 -0.6300 -0.6964
  867MOL0     C16956   9.405   5.414   5.010  0.1770 -1.0919  0.5855
  867MOL0     O16957   9.290   5.455   4.692 -0.2728 -0.4788 -0.2598
  867MOL0     C16958   9.288   5.677   4.510 -0.9095 -0.1597  0.0926
  867MOL0     C16959   9.283   5.795   4.432 -0.4079 -0.0921  0.6911
  867MOL0     N16960   8.961   6.488   4.315 -0.9841 -0.2951  0.2407
  867MOL0     N16961   8.846   6.468   4.258 -0.3160  0.0546  0.7177
  867MOL0     C16962   8.459   6.640   3.154 -0.2133 -0.0323 -0.9964
  867MOL0     C16963   8.458   6.637   3.019 -0.2778 -0.1054  0.2713
  867MOL0     C16964   8.424   6.455   2.614  0.6280 -0.5104  0.5113
  867MOL0     C16965   8.499   6.343   2.575 -0.6344 -0.1097  0.1440
  867MOL0     C16966   8.512   6.308   2.441  0.9977 -0.0101  0.8522
  867MOL0     C16967   8.449   6.380   2.336  0.0461 -0.4501 -1.7731
  867MOL0     O16968   8.443   6.331   2.210 -0.4390 -0.5003 -0.6592
  867MOL0     C16969   8.556   6.368   2.134  0.0334  0.9593 -0.3813
  867MOL0     C16970   8.531   6.503   2.053  0.0278 -0.6604 -0.2629
  867MOL0     C16971   8.395   6.506   1.977  0.4238  1.0232  0.0880
  867MOL0     C16972   8.400   6.590   1.851 -0.8485  0.3585 -0.7477
  867MOL0     C16973   8.286   6.580   1.759 -0.8093  0.1572  0.1193
  867MOL0     C16974   8.204   6.584   1.675 -0.4940 -0.3969  0.7799
  867MOL0     C16975   8.365   6.484   2.385 -0.4799  0.2022  0.0908
  867MOL0     C16976   8.354   6.528   2.513 -0.6583 -0.6421 -0.1964
  867MOL0     C16977   8.266   6.652   2.540 -0.8941 -0.7943 -0.9039
  867MOL0     H16978   8.655   6.363   2.974  0.4354  0.1936 -1.0581
  867MOL0     H16979   8.695   6.410   3.212 -0.5378 -0.3018 -0.1493
  867MOL0     H16980   8.415   6.718   3.400 -1.5822 -1.8828 -1.0016
  867MOL0     H16981   8.369   6.562   3.437 -1.1511  1.7562 -2.3646
  867MOL0     H16982   8.427   6.676   3.644  0.3356 -0.2264 -0.6507
  867MOL0     H16983   8.591   6.728   3.584  1.3411 -1.6432  2.1456
  867MOL0     H16984   8.672   6.509   3.561  1.0561 -2.4732  1.1597
  867MOL0     H16985   8.531   6.440   3.624  0.8912 -0.6864 -0.4301
  867MOL0     H16986   8.731   6.607   3.777 -1.3503  1.5563 -0.4963
  867MOL0     H16987   8.567   6.590   3.839 -1.1792 -0.0346  0.0164
  867MOL0     H16988   8.581   6.355   3.827 -0.7742  0.3265  1.7839
  867MOL0     H16989   8.735   6.349   3.749 -0.2721  0.0832  1.5268
  867MOL0     H16990   8.849   6.415   3.957 -0.5710  1.9885  2.4442
  867MOL0     H16991   8.690   6.474   4.020  0.6229  1.4609  0.2632
  867MOL0     H16992   8.772   6.187   4.007  1.0147  1.3498 -0.9145
  867MOL0     H16993   8.608   6.225   4.006  0.6146 -0.7593 -0.8975
  867MOL0     H16994   8.620   6.325   4.225 -2.5841 -2.6760 -0.0739
  867MOL0     H16995   8.715   6.165   4.216  3.0447 -1.0070 -2.9875
  867MOL0     H16996   8.950   6.162   4.276 -1.3055  0.1127 -1.6688
  867MOL0     H16997   9.203   6.426   4.456 -0.1785  0.7106 -0.9618
  867MOL0     H16998   9.150   6.261   4.477  1.8855 -1.8110 -0.8889
  867MOL0     H16999   9.211   6.197   4.244  1.2766  0.6008 -1.9156
  867MOL0     H17000   9.256   6.368   4.215 -1.3132 -2.4531 -3.0083
  867MOL0     H17001   9.443   6.359   4.369  0.8461  0.2858 -1.1091
  867MOL0     H17002   9.465   6.229   4.259 -1.8376 -0.5160  0.3752
  867MOL0     H17003   9.358   6.189   4.532  0.8638  1.1112 -0.9169
  867MOL0     H17004   9.510   6.124   4.446 -0.6665 -4.5357 -0.2359
  867MOL0     H17005   9.488   5.987   4.622 -4.7865  2.2895  2.6397
  867MOL0     H17006   9.500   5.785   4.755  2.0669  2.5911 -1.7641
  867MOL0     H17007   9.142   5.627   4.976  1.3606  3.5305  2.0398
  867MOL0     H17008   9.062   5.493   5.179  0.2599  2.0576  1.3918
  867MOL0     H17009   9.424   5.299   5.407 -1.5219  0.5687  0.3518
  867MOL0     H17010   9.298   5.294   5.523  1.4270 -2.0182  0.2958
  867MOL0     H17011   9.205   5.113   5.331  0.4306 -0.4490 -0.8849
  867MOL0     H17012   9.380   5.094   5.330 -0.8938  1.1774 -2.2110
  867MOL0     H17013   9.187   5.065   5.557  0.4220  3.3421 -0.7448
  867MOL0     H17014   9.288   4.938   5.471  3.6884 -1.0716  0.4486
  867MOL0     H17015   9.406   5.137   5.674 -0.9794 -1.8044  3.4317
  867MOL0     H17016   9.490   5.009   5.581 -0.7252 -3.3871 -1.2368
  867MOL0     H17017   9.384   4.827   5.680 -0.3679  0.6155 -0.7121
  867MOL0     H17018   9.267   4.941   5.752  0.2262  2.4617  1.1038
  867MOL0     H17019   9.500   5.028   5.853  0.4824  0.2719 -3.6318
  867MOL0     H17020   9.371   4.938   5.928 -1.2925 -0.8844 -1.2296
  867MOL0     H17021   9.642   4.849   5.919  2.6199 -1.9194 -3.1599
  867MOL0     H17022   9.595   4.798   5.768  1.7393 -2.9700  1.5287
  867MOL0     H17023   9.396   4.653   5.909  0.5957 -1.0721 -0.5727
  867MOL0     H17024   9.569   4.622   5.931 -0.1062 -0.0624  1.0268
  867MOL0     H17025   9.430   5.273   5.163  1.5844  0.4438 -0.5825
  867MOL0     H17026   9.486   5.381   4.947 -1.0403 -0.7204 -1.2611
  867MOL0     H17027   9.223   5.596   4.479  1.4350 -2.4512  0.7794
  867MOL0     H17028   9.207   5.787   4.355 -1.3032  0.6494  1.4642
  867MOL0     H17029   8.398   6.713   3.206  1.7964  0.4369  0.8529
  867MOL0     H17030   8.399   6.708   2.963  0.9978  0.4472 -0.4197
  867MOL0     H17031   8.535   6.279   2.655  0.8367  1.4001  0.7618
  867MOL0     H17032   8.582   6.233   2.406 -2.1779 -1.2732 -3.8042
  867MOL0     H17033   8.574   6.289   2.060 -1.2257 -0.9734  1.2718
  867MOL0     H17034   8.646   6.381   2.194  0.4044  1.5558 -1.0516
  867MOL0     H17035   8.612   6.502   1.979  1.3816  1.7836  1.0265
  867MOL0     H17036   8.542   6.596   2.109 -0.0953  0.0893 -1.4521
  867MOL0     H17037   8.312   6.536   2.041  0.7018 -1.7849  1.9342
  867MOL0     H17038   8.374   6.407   1.936 -0.8077  0.8961  0.9922
  867MOL0     H17039   8.424   6.692   1.881 -0.5297 -0.3296  1.6192
  867MOL0     H17040   8.486   6.565   1.789 -0.5733  0.8528 -0.5704
  867MOL0     H17041   8.147   6.574   1.585  0.8688  3.5191 -0.7299
  867MOL0     H17042   8.300   6.522   2.307 -2.2208  0.0168  1.4001
  867MOL0     H17043   8.163   6.624   2.517 -2.2710  1.3678  1.9877
  867MOL0     H17044   8.268   6.703   2.637 -1.1507  2.0262 -2.2549
  867MOL0     H17045   8.295   6.737   2.476  2.9982 -0.2660  1.2942
  868MOL0     O17046  11.048   8.506   3.292  0.3611 -1.0203 -0.0221
  868MOL0     C17047  11.090   8.471   3.183 -0.7901 -0.9111 -1.1162
  868MOL0     O17048  11.214   8.411   3.167 -0.4907 -0.1468  0.2180
  868MOL0     C17049  11.312   8.446   3.254  0.2532  0.1656  0.0890
  868MOL0     C17050  11.328   8.374   3.370  0.0448  0.0981 -0.5558
  868MOL0     C17051  11.436   8.404   3.450  0.5310  0.2990 -0.5960
  868MOL0     C17052  11.524   8.506   3.420 -0.0452  1.1483 -1.0529
  868MOL0     O17053  11.616   8.572   3.498  0.1663 -0.3112  0.2422
  868MOL0     C17054  11.656   8.507   3.615  0.3446  0.5476 -0.0823
  868MOL0     C17055  11.807   8.522   3.641  0.6926  0.3940 -0.1099
  868MOL0     C17056  11.843   8.669   3.672  0.4651  0.0111  0.1415
  868MOL0     C17057  11.993   8.698   3.702 -0.1891  0.0178  0.5400
  868MOL0     C17058  12.034   8.837   3.744  1.0344  0.2604  0.7955
  868MOL0     C17059  11.971   8.890   3.870 -0.3543 -0.3831 -1.0321
  868MOL0     C17060  12.042   9.020   3.932  0.4001  0.9672  0.0233
  868MOL0     C17061  12.170   8.984   4.018  0.0857 -0.1106  0.6867
  868MOL0     N17062  12.142   8.961   4.158 -0.3782 -0.6066 -0.6449
  868MOL0     C17063  12.088   8.845   4.219  0.0833  0.2882 -0.4801
  868MOL0     C17064  12.057   8.874   4.349 -0.2326  0.2350  0.0734
  868MOL0     C17065  12.000   8.787   4.455  0.2417 -0.3147  0.3695
  868MOL0     C17066  11.909   8.672   4.402 -0.1560 -0.6325  0.1036
  868MOL0     C17067  11.786   8.645   4.485  0.2857 -0.1728 -0.2905
  868MOL0     C17068  11.709   8.519   4.429 -0.3040  0.1914 -0.1788
  868MOL0     O17069  11.595   8.500   4.515  0.7337  0.5144  0.2022
  868MOL0     C17070  11.556   8.371   4.496 -0.0537 -0.3225 -0.0404
  868MOL0     C17071  11.600   8.269   4.577  0.0654  0.1854 -0.5394
  868MOL0     C17072  11.552   8.147   4.570 -0.7371  0.1522  0.7914
  868MOL0     C17073  11.454   8.110   4.472 -0.2302  0.1940 -0.1152
  868MOL0     C17074  11.395   7.977   4.454 -0.0423  0.3511  0.5017
  868MOL0     O17075  11.275   7.965   4.382  0.2044 -0.0473  0.5711
  868MOL0     C17076  11.238   7.845   4.340 -0.0474  0.9899 -1.4724
  868MOL0     C17077  11.138   7.772   4.401  0.3223  0.6815 -0.2104
  868MOL0     C17078  11.092   7.651   4.343 -0.4100  0.9241 -0.0671
  868MOL0     C17079  11.157   7.594   4.239 -0.6383 -0.6035  0.9730
  868MOL0     O17080  11.126   7.480   4.173  0.3547  0.0403  0.0012
  868MOL0     C17081  11.091   7.371   4.255  0.0998 -1.0960  0.0158
  868MOL0     C17082  11.072   7.253   4.164  0.2297 -0.2819  0.2126
  868MOL0     C17083  11.208   7.207   4.098  0.3012  0.0284  0.1979
  868MOL0     C17084  11.188   7.088   4.012 -0.6894  0.8318 -0.5942
  868MOL0     C17085  11.155   7.124   3.870 -0.7447  0.5705  0.0096
  868MOL0     C17086  11.133   7.000   3.788 -0.1673 -0.1932 -0.6426
  868MOL0     C17087  11.254   6.914   3.785  1.1115  0.2702  0.2223
  868MOL0     C17088  11.280   6.852   3.645 -0.4198  0.8643 -0.3935
  868MOL0    Cl17089  11.432   6.750   3.644  0.1141  0.3127 -0.0815
  868MOL0     C17090  11.271   7.663   4.185 -0.2212 -0.4656  0.4315
  868MOL0     C17091  11.314   7.786   4.238  0.3169  0.1249 -0.1554
  868MOL0     O17092  11.468   7.877   4.479 -0.5737  0.3808 -0.2535
  868MOL0     C17093  11.410   8.216   4.390  0.1454  0.7619 -0.8431
  868MOL0     C17094  11.458   8.347   4.405  0.0943  0.3352  0.1176
  868MOL0     N17095  12.095   9.007   4.369 -0.2529  0.4291 -0.6490
  868MOL0     N17096  12.144   9.057   4.255  0.1324 -0.5873 -0.1200
  868MOL0     C17097  11.506   8.576   3.302  0.3212  0.2900  0.6067
  868MOL0     C17098  11.402   8.542   3.219 -0.1487 -0.1333  0.3341
  868MOL0     C17099  11.000   8.475   3.068  0.2446  0.8914 -0.6974
  868MOL0     C17100  10.871   8.530   3.086 -0.0013 -0.7287 -0.3041
  868MOL0     C17101  10.772   8.533   2.988 -0.5345  0.7078 -0.5579
  868MOL0     C17102  10.805   8.482   2.856 -0.2597 -0.4022 -0.4034
  868MOL0     O17103  10.703   8.490   2.763 -0.0581 -1.0119  0.4215
  868MOL0     C17104  10.724   8.430   2.637 -0.1426  0.4033  0.5104
  868MOL0     C17105  10.595   8.388   2.560  0.1825  0.4963 -0.9217
  868MOL0     C17106  10.631   8.293   2.439 -0.7818 -0.8630 -0.3895
  868MOL0     C17107  10.510   8.289   2.340  0.4253 -0.0122 -0.2859
  868MOL0     C17108  10.562   8.250   2.211  0.6315  0.3428  0.0723
  868MOL0     C17109  10.621   8.220   2.111 -0.5995  0.3906 -0.1594
  868MOL0     C17110  10.935   8.443   2.834 -0.2095  0.6197  0.3657
  868MOL0     C17111  11.033   8.426   2.934  0.3839 -0.1634  0.4904
  868MOL0     C17112  11.165   8.375   2.885  0.2413  0.4536  0.1562
  868MOL0     H17113  11.263   8.289   3.386  1.4132 -1.0132 -0.7470
  868MOL0     H17114  11.448   8.339   3.537 -0.3227 -1.2881 -1.6255
  868MOL0     H17115  11.591   8.544   3.695  0.4956  1.3175 -0.3011
  868MOL0     H17116  11.635   8.400   3.613 -1.5808  0.7860  2.4389
  868MOL0     H17117  11.873   8.484   3.561  2.6672  0.2781  1.4889
  868MOL0     H17118  11.821   8.462   3.731 -1.4388  0.3655  0.2345
  868MOL0     H17119  11.779   8.717   3.748  0.0657  1.4204 -1.0412
  868MOL0     H17120  11.824   8.732   3.585 -0.6233 -0.0377  0.3275
  868MOL0     H17121  12.035   8.634   3.781  0.7030  1.6505  1.4603
  868MOL0     H17122  12.058   8.677   3.617  0.8903  1.0655  1.0766
  868MOL0     H17123  12.141   8.826   3.764  1.1623  2.6639  1.7013
  868MOL0     H17124  12.016   8.911   3.666  0.2226  0.6293  1.3243
  868MOL0     H17125  11.866   8.909   3.847 -1.1883 -4.6529 -1.6980
  868MOL0     H17126  11.981   8.805   3.938  2.6956 -0.2335 -1.1396
  868MOL0     H17127  11.985   9.091   3.992  1.2242  1.7243 -0.0799
  868MOL0     H17128  12.073   9.078   3.844 -3.0316  2.7313 -0.1913
  868MOL0     H17129  12.221   8.896   3.979 -1.2882 -0.4772 -0.3631
  868MOL0     H17130  12.229   9.076   4.016 -0.2420  0.1040  0.7645
  868MOL0     H17131  12.077   8.746   4.176 -1.3121  0.5917 -0.8869
  868MOL0     H17132  12.079   8.734   4.510 -2.7840 -6.4025 -0.2555
  868MOL0     H17133  11.937   8.840   4.527 -0.2431  0.7844 -0.8433
  868MOL0     H17134  11.872   8.714   4.308  2.4201  2.6569  0.3486
  868MOL0     H17135  11.963   8.579   4.381 -1.3818 -1.4669  0.5884
  868MOL0     H17136  11.724   8.734   4.498  2.7086  1.6441 -0.4357
  868MOL0     H17137  11.825   8.616   4.583  0.3474 -1.6184 -0.7102
  868MOL0     H17138  11.777   8.433   4.420  2.8056  2.4706 -0.1260
  868MOL0     H17139  11.678   8.545   4.327 -0.5371 -2.1200 -0.7531
  868MOL0     H17140  11.663   8.289   4.663  1.3732 -0.3325 -1.3543
  868MOL0     H17141  11.584   8.085   4.653  1.4161  0.2843  0.1451
  868MOL0     H17142  11.089   7.816   4.488  0.5425  2.3457 -0.8972
  868MOL0     H17143  11.008   7.598   4.387  1.2201 -3.0412 -1.1982
  868MOL0     H17144  11.179   7.357   4.319  1.9353 -1.0045 -2.3373
  868MOL0     H17145  11.006   7.399   4.316  1.4555  0.6145  1.2234
  868MOL0     H17146  11.025   7.170   4.217 -0.2703  1.6922  3.0407
  868MOL0     H17147  11.006   7.287   4.084 -0.5458  0.5527  1.1844
  868MOL0     H17148  11.249   7.284   4.033  0.3505  0.8589  1.1917
  868MOL0     H17149  11.280   7.187   4.178  0.4143 -0.8150 -0.1058
  868MOL0     H17150  11.108   7.029   4.057  0.3089 -0.5381 -0.5341
  868MOL0     H17151  11.274   7.022   4.027  0.2164  1.7956 -1.3978
  868MOL0     H17152  11.243   7.175   3.829 -0.0323 -0.9948 -0.4961
  868MOL0     H17153  11.066   7.188   3.867 -2.6503 -1.9361 -0.4582
  868MOL0     H17154  11.064   6.936   3.844  3.0325 -1.3046  2.3931
  868MOL0     H17155  11.112   7.030   3.685  2.1609  0.6818 -0.9133
  868MOL0     H17156  11.253   6.840   3.866  0.8939 -0.1653 -0.1718
  868MOL0     H17157  11.340   6.981   3.797  1.5790  0.5242 -3.3695
  868MOL0     H17158  11.207   6.770   3.642  1.1023 -0.5356 -0.4154
  868MOL0     H17159  11.263   6.913   3.555 -0.8869 -1.7208 -2.1751
  868MOL0     H17160  11.317   7.626   4.094 -0.7976  0.9753 -0.4845
  868MOL0     H17161  11.398   7.839   4.194 -1.1624  2.7367 -0.0225
  868MOL0     H17162  11.349   8.195   4.302  1.9141  1.3179 -2.2809
  868MOL0     H17163  11.419   8.433   4.351  1.5881  0.0866 -1.4632
  868MOL0     H17164  11.568   8.655   3.261 -1.5924  0.3301 -2.4818
  868MOL0     H17165  11.400   8.580   3.117  3.5778 -1.3996 -0.3645
  868MOL0     H17166  10.853   8.589   3.175 -1.6737  2.1805 -2.4251
  868MOL0     H17167  10.679   8.577   3.023 -0.4376 -0.2407  1.0324
  868MOL0     H17168  10.776   8.336   2.655  1.8690  1.5369  0.8958
  868MOL0     H17169  10.795   8.494   2.584 -0.1536  1.2721  1.5059
  868MOL0     H17170  10.555   8.481   2.520 -1.0579  0.3618 -0.0524
  868MOL0     H17171  10.533   8.334   2.632  2.1774 -0.2291  0.3659
  868MOL0     H17172  10.660   8.195   2.477  1.3543 -1.8750 -4.0803
  868MOL0     H17173  10.719   8.331   2.386 -0.5100 -0.5942  0.2478
  868MOL0     H17174  10.434   8.222   2.383  0.1665  1.1527  1.1346
  868MOL0     H17175  10.458   8.385   2.343  2.1206  0.9639 -0.9826
  868MOL0     H17176  10.656   8.173   2.022 -3.2145  0.8193 -1.5152
  868MOL0     H17177  10.962   8.424   2.731 -3.2338 -0.2124 -0.3978
  868MOL0     H17178  11.198   8.286   2.940 -1.9188 -2.0419 -2.2234
  868MOL0     H17179  11.152   8.334   2.784 -0.6421 -1.1497  0.8822
  868MOL0     H17180  11.240   8.453   2.899  2.7176 -1.6594 -0.4131
  869MOL0     O17181  10.108   0.674   5.031 -0.3028 -0.3540  0.1113
  869MOL0     C17182  10.168   0.783   5.031  0.0342  0.6109  0.2829
  869MOL0     O17183  10.303   0.801   5.074  0.2062  0.2048  0.1287
  869MOL0     C17184  10.373   0.719   5.159  0.1514 -0.4184 -0.9659
  869MOL0     C17185  10.386   0.585   5.145 -0.7830  1.3617  0.1381
  869MOL0     C17186  10.470   0.503   5.229 -0.4609 -0.5024 -0.3698
  869MOL0     C17187  10.544   0.571   5.327  0.0574  0.0597 -0.5678
  869MOL0     O17188  10.633   0.480   5.388  0.0740  0.0391  0.5752
  869MOL0     C17189  10.691   0.528   5.512  0.1576 -0.3113 -0.2594
  869MOL0     C17190  10.778   0.420   5.568 -0.1518  0.7040 -0.5631
  869MOL0     C17191  10.909   0.383   5.488  0.3702 -0.1813 -0.7978
  869MOL0     C17192  10.876   0.306   5.352 -1.4379  0.2195 -0.1106
  869MOL0     C17193  11.010   0.283   5.269 -0.4383 -0.7564 -0.5628
  869MOL0     C17194  11.130   0.217   5.341  0.8954 -0.4081  0.3714
  869MOL0     C17195  11.259   0.248   5.269 -0.6145  0.2171 -0.2494
  869MOL0     C17196  11.365   0.146   5.300  0.8975 -0.7713  0.3145
  869MOL0     N17197  11.497   0.193   5.253 -0.2459  0.1333  0.4377
  869MOL0     C17198  11.550   0.316   5.237  0.9103 -0.4877 -0.0802
  869MOL0     C17199  11.669   0.292   5.189 -0.6944  1.0025 -0.1943
  869MOL0     C17200  11.772   0.398   5.150 -0.2250 -0.0634  0.3110
  869MOL0     C17201  11.912   0.384   5.209  0.5059 -0.5906 -0.5188
  869MOL0     C17202  11.919   0.335   5.351  0.5826 -0.4614 -0.0957
  869MOL0     C17203  12.062   0.343   5.403  0.6410  0.1456 -0.2168
  869MOL0     O17204  12.121   0.471   5.395 -0.4998  0.3025  0.4340
  869MOL0     C17205  12.226   0.492   5.475  0.1415  0.1554 -0.8613
  869MOL0     C17206  12.306   0.394   5.536  0.7219  0.7107 -0.7485
  869MOL0     C17207  12.425   0.425   5.610  0.0976 -0.0485  0.3535
  869MOL0     C17208  12.464   0.557   5.633  0.0150 -0.3570  1.4157
  869MOL0     C17209  12.576   0.575   5.722  0.1837 -0.9496  1.4660
  869MOL0     O17210  12.612   0.712   5.740  0.2579 -0.3254 -0.4461
  869MOL0     C17211  12.714   0.736   5.833  0.8912  0.2147  0.1576
  869MOL0     C17212  12.692   0.696   5.965  1.4313 -0.4644 -0.1150
  869MOL0     C17213  12.792   0.706   6.060  0.1979 -0.3417 -1.3570
  869MOL0     C17214  12.921   0.755   6.024 -0.0016  0.3542 -0.0769
  869MOL0     O17215  13.009   0.765   6.128  0.3200  0.0460  0.0501
  869MOL0     C17216  13.142   0.804   6.091  0.5344  0.2047 -0.0915
  869MOL0     C17217  13.234   0.803   6.213  0.1408 -0.3037 -0.1342
  869MOL0     C17218  13.263   0.666   6.262 -0.2085  0.1619 -0.0423
  869MOL0     C17219  13.328   0.656   6.406 -0.3435  0.2556  0.5610
  869MOL0     C17220  13.478   0.688   6.400  0.7008  0.3275  0.1780
  869MOL0     C17221  13.560   0.573   6.330 -0.8767 -0.0487 -0.3169
  869MOL0     C17222  13.722   0.579   6.343  0.6761 -0.3690 -0.0361
  869MOL0     C17223  13.762   0.677   6.229  0.1962 -0.0231 -0.8765
  869MOL0    Cl17224  13.938   0.697   6.227  0.2209 -0.1843  0.0378
  869MOL0     C17225  12.947   0.778   5.888 -0.4199 -0.5216 -0.3110
  869MOL0     C17226  12.844   0.770   5.798  0.1741  0.2462  0.4668
  869MOL0     O17227  12.625   0.483   5.779 -0.0568 -0.0264  0.5809
  869MOL0     C17228  12.384   0.660   5.577 -0.2270  0.0865 -0.9194
  869MOL0     C17229  12.268   0.627   5.500 -0.5420  0.4264  0.2096
  869MOL0     N17230  11.695   0.152   5.191  0.0072 -0.6994  0.0088
  869MOL0     N17231  11.587   0.096   5.228 -0.4186 -0.4151  1.3425
  869MOL0     C17232  10.525   0.709   5.346 -0.2236 -0.1019 -0.4884
  869MOL0     C17233  10.447   0.786   5.265 -0.5360  0.2016  0.6744
  869MOL0     C17234  10.097   0.894   4.952 -0.2721  0.3301 -0.5322
  869MOL0     C17235   9.953   0.887   4.957 -0.3183  0.1828  0.1644
  869MOL0     C17236   9.872   0.993   4.905 -1.0192  0.5626 -1.0023
  869MOL0     C17237   9.932   1.102   4.841 -0.1744  0.2184 -0.3188
  869MOL0     O17238   9.846   1.192   4.790 -0.0563  0.3125 -0.2105
  869MOL0     C17239   9.810   1.176   4.653 -0.7737  0.4643 -0.6267
  869MOL0     C17240   9.693   1.274   4.631  0.3235  0.2262  0.2219
  869MOL0     C17241   9.735   1.422   4.617  0.1890  0.2136 -0.2719
  869MOL0     C17242   9.814   1.456   4.481  0.7541  0.3186 -0.1781
  869MOL0     C17243   9.830   1.601   4.457 -0.5405 -0.1810  0.8745
  869MOL0     C17244   9.832   1.720   4.432 -0.3637  0.1547  0.5634
  869MOL0     C17245  10.071   1.120   4.850 -0.1656 -0.6473  0.4622
  869MOL0     C17246  10.156   1.018   4.904 -0.5191 -0.5279  0.6404
  869MOL0     C17247  10.304   1.037   4.908 -0.0842 -0.0349  0.8647
  869MOL0     H17248  10.320   0.539   5.071 -2.1692  1.0893  1.4975
  869MOL0     H17249  10.480   0.399   5.203  0.2793 -0.5573  0.1008
  869MOL0     H17250  10.765   0.607   5.501  2.3626 -2.0829  1.0969
  869MOL0     H17251  10.604   0.556   5.572  0.3793 -0.7391  0.2659
  869MOL0     H17252  10.724   0.326   5.581  1.6594 -0.3529 -0.2657
  869MOL0     H17253  10.814   0.464   5.662 -1.1498 -0.7083  0.5214
  869MOL0     H17254  10.972   0.316   5.547  1.5070  2.8069  1.6687
  869MOL0     H17255  10.974   0.470   5.475 -0.2258  0.3495 -0.2957
  869MOL0     H17256  10.837   0.205   5.368 -0.4534 -0.0524  0.7117
  869MOL0     H17257  10.808   0.369   5.294 -0.5459  1.2874 -0.0268
  869MOL0     H17258  10.993   0.215   5.184 -3.6244 -2.4225  1.2146
  869MOL0     H17259  11.045   0.379   5.231 -0.5731 -1.4920 -2.7330
  869MOL0     H17260  11.142   0.265   5.438  1.9094 -0.7154  0.4110
  869MOL0     H17261  11.095   0.113   5.342 -1.8996  0.4523  0.8116
  869MOL0     H17262  11.295   0.350   5.282  0.7991 -0.3597  0.6643
  869MOL0     H17263  11.224   0.237   5.167 -0.3977  0.3956 -0.3438
  869MOL0     H17264  11.371   0.151   5.409 -0.4009  2.2548  0.3670
  869MOL0     H17265  11.332   0.049   5.263 -1.7140 -0.0992  0.6513
  869MOL0     H17266  11.494   0.407   5.257 -1.7725 -2.2487  1.1392
  869MOL0     H17267  11.783   0.415   5.043  2.1578 -1.5755  0.2538
  869MOL0     H17268  11.728   0.492   5.187  1.1935  0.5814  0.4279
  869MOL0     H17269  11.977   0.326   5.144  2.4429  2.9484 -1.9883
  869MOL0     H17270  11.960   0.482   5.204  3.0806 -1.6983  0.7698
  869MOL0     H17271  11.875   0.236   5.365 -3.1499  1.0960  0.1740
  869MOL0     H17272  11.866   0.407   5.413  0.7951  2.4792 -3.0564
  869MOL0     H17273  12.117   0.281   5.333  0.3636  0.8468 -1.0749
  869MOL0     H17274  12.063   0.305   5.506  0.9356  4.4052  1.6022
  869MOL0     H17275  12.304   0.288   5.510  1.8741  0.0780  1.5258
  869MOL0     H17276  12.480   0.344   5.657  2.7471  0.8397 -1.0180
  869MOL0     H17277  12.599   0.656   6.005  0.4959  1.5797 -0.0965
  869MOL0     H17278  12.775   0.669   6.161 -0.2091 -1.8511 -1.9634
  869MOL0     H17279  13.175   0.721   6.028  0.9776  0.1714  0.1795
  869MOL0     H17280  13.137   0.897   6.034  1.2310  0.7447  0.6828
  869MOL0     H17281  13.321   0.861   6.182 -1.4720  1.7142 -1.0968
  869MOL0     H17282  13.187   0.865   6.290 -0.7124  0.6356 -1.3830
  869MOL0     H17283  13.170   0.609   6.263 -0.4227  0.4108 -2.0830
  869MOL0     H17284  13.327   0.614   6.190 -1.4628 -2.7767  0.8515
  869MOL0     H17285  13.318   0.553   6.441  1.7200 -0.0926  0.2476
  869MOL0     H17286  13.269   0.720   6.473 -0.7858  2.2943 -1.6091
  869MOL0     H17287  13.530   0.695   6.496  0.9862  0.3262  0.0261
  869MOL0     H17288  13.487   0.786   6.351 -2.3295 -0.2937 -1.9732
  869MOL0     H17289  13.528   0.479   6.377  0.0944 -0.3622 -0.2617
  869MOL0     H17290  13.544   0.573   6.222 -0.7912 -0.0268 -0.3295
  869MOL0     H17291  13.769   0.481   6.324 -0.2982 -0.9656  0.5589
  869MOL0     H17292  13.751   0.613   6.442  1.9143 -1.7137  0.0972
  869MOL0     H17293  13.737   0.631   6.133 -1.7789 -1.5075  0.2725
  869MOL0     H17294  13.715   0.774   6.244  1.2823  0.0268  3.3221
  869MOL0     H17295  13.048   0.804   5.859  0.6915 -2.4667  1.5328
  869MOL0     H17296  12.861   0.798   5.694  0.0062  1.3658  0.7252
  869MOL0     H17297  12.378   0.767   5.588 -0.5922 -0.0330  0.2973
  869MOL0     H17298  12.212   0.710   5.457  0.1023 -0.3697 -2.3767
  869MOL0     H17299  10.583   0.759   5.423  0.5894 -1.2868 -0.3157
  869MOL0     H17300  10.424   0.892   5.275  0.7604  0.6506 -0.6631
  869MOL0     H17301   9.900   0.799   4.993 -0.2797  0.9813  2.3062
  869MOL0     H17302   9.766   0.968   4.906 -2.0105  4.0605  1.3930
  869MOL0     H17303   9.787   1.071   4.635  1.9737 -0.4953  0.8617
  869MOL0     H17304   9.895   1.194   4.586  1.4034 -0.3339  1.7657
  869MOL0     H17305   9.622   1.253   4.712  0.9936 -0.5215  0.6271
  869MOL0     H17306   9.640   1.242   4.541 -1.6180  2.0648  0.6046
  869MOL0     H17307   9.805   1.452   4.696 -0.7434 -0.6561  0.9366
  869MOL0     H17308   9.655   1.495   4.631  1.0579  1.4584 -1.5592
  869MOL0     H17309   9.912   1.408   4.489 -0.5613 -2.5707 -0.2419
  869MOL0     H17310   9.762   1.412   4.396  0.3364 -1.3703  0.9057
  869MOL0     H17311   9.826   1.820   4.395  0.4530  0.5791  1.5276
  869MOL0     H17312  10.109   1.216   4.816 -0.9547 -0.9795 -1.4838
  869MOL0     H17313  10.328   1.121   4.843  2.7792  0.5912  2.5303
  869MOL0     H17314  10.342   1.048   5.010  3.7368 -2.1120 -0.1270
  869MOL0     H17315  10.355   0.951   4.862  2.0262  1.2982  0.5511
  870MOL0     O17316   4.297   4.307   2.325 -0.0768 -0.2937  0.2103
  870MOL0     C17317   4.385   4.270   2.407  1.3471 -0.5873 -0.5659
  870MOL0     O17318   4.432   4.347   2.516 -0.1647 -0.6564  0.2967
  870MOL0     C17319   4.360   4.454   2.555  0.1124  0.1460  0.2017
  870MOL0     C17320   4.405   4.586   2.529  0.3164  0.2918 -0.4858
  870MOL0     C17321   4.332   4.690   2.575 -0.5936  0.5961  0.6382
  870MOL0     C17322   4.220   4.676   2.656  0.1582  0.0582 -0.6745
  870MOL0     O17323   4.161   4.787   2.714  0.4389  0.6307  0.4567
  870MOL0     C17324   4.066   4.852   2.623 -0.2644 -0.4162 -0.2394
  870MOL0     C17325   4.134   4.989   2.568  1.1906 -0.7231  0.5123
  870MOL0     C17326   4.025   5.078   2.498 -0.3659 -0.4574  0.3010
  870MOL0     C17327   4.094   5.166   2.387  0.0819  0.1110 -1.1384
  870MOL0     C17328   4.012   5.274   2.330 -0.1250 -0.4986  0.8566
  870MOL0     C17329   3.926   5.230   2.210 -1.0626 -0.2133 -0.7721
  870MOL0     C17330   3.879   5.337   2.122  0.0120 -0.3613 -0.4469
  870MOL0     C17331   3.840   5.300   1.976  0.9693  0.3503  0.9909
  870MOL0     N17332   3.947   5.271   1.881  0.2186 -0.7900  0.6896
  870MOL0     C17333   4.018   5.358   1.792  0.5897  0.2908 -0.4857
  870MOL0     C17334   4.104   5.276   1.738 -0.5173 -1.3684  0.2436
  870MOL0     C17335   4.203   5.296   1.620  0.2947  0.1589  0.2650
  870MOL0     C17336   4.138   5.341   1.487  0.1579 -0.3099 -0.1416
  870MOL0     C17337   4.014   5.257   1.459  0.7806 -0.5232  0.8379
  870MOL0     C17338   3.956   5.294   1.322 -0.3636  0.1316  0.0892
  870MOL0     O17339   3.905   5.425   1.352 -0.1918  0.0109 -0.3540
  870MOL0     C17340   3.800   5.475   1.276 -0.0660 -0.2096  0.7926
  870MOL0     C17341   3.807   5.615   1.259 -0.7777 -0.1467 -0.0730
  870MOL0     C17342   3.708   5.683   1.194  0.4308  0.6703 -0.3285
  870MOL0     C17343   3.609   5.613   1.131  0.5231  0.7302 -0.0063
  870MOL0     C17344   3.505   5.677   1.058  0.1310 -0.1500  0.5239
  870MOL0     O17345   3.490   5.815   1.084 -0.3179  0.4633 -0.1814
  870MOL0     C17346   3.415   5.891   0.997  0.0089 -0.2821 -0.1960
  870MOL0     C17347   3.377   5.861   0.867  0.8375  0.3996  0.4077
  870MOL0     C17348   3.287   5.958   0.805  0.3445 -0.4352 -0.8434
  870MOL0     C17349   3.253   6.081   0.871  0.0121 -0.2409 -0.5365
  870MOL0     O17350   3.194   6.187   0.806  0.2093  0.8752 -0.6805
  870MOL0     C17351   3.219   6.206   0.663 -0.9095 -1.4313 -0.6045
  870MOL0     C17352   3.092   6.255   0.597  0.3371 -1.3020  0.2801
  870MOL0     C17353   3.063   6.403   0.647  0.0163  0.3115  0.0847
  870MOL0     C17354   2.933   6.450   0.593  0.2629 -0.2684  0.6603
  870MOL0     C17355   2.882   6.578   0.652  0.7623  0.7431 -0.7266
  870MOL0     C17356   2.749   6.610   0.586 -0.1692  0.1043 -0.0716
  870MOL0     C17357   2.698   6.741   0.618  0.8132 -0.2325 -0.1427
  870MOL0     C17358   2.571   6.770   0.544 -0.3121 -0.1799 -0.0444
  870MOL0    Cl17359   2.506   6.929   0.597 -0.6415  0.2082 -0.1021
  870MOL0     C17360   3.288   6.096   1.003  0.2566 -0.3109 -0.3718
  870MOL0     C17361   3.370   6.006   1.066  0.7114  0.8369  0.0833
  870MOL0     O17362   3.436   5.607   0.984  0.4148 -0.6927  0.3052
  870MOL0     C17363   3.595   5.475   1.145  0.0486  0.2750 -0.2508
  870MOL0     C17364   3.690   5.406   1.218 -1.1267 -0.0809 -0.5078
  870MOL0     N17365   4.102   5.152   1.799 -0.8252 -0.5446 -0.1624
  870MOL0     N17366   4.009   5.156   1.881  0.4194 -0.8948 -0.0137
  870MOL0     C17367   4.174   4.544   2.675  0.8874 -0.5991  0.7629
  870MOL0     C17368   4.241   4.431   2.633 -0.4243  0.9230 -0.2504
  870MOL0     C17369   4.461   4.159   2.370  0.7185  0.7274  0.3636
  870MOL0     C17370   4.537   4.167   2.251 -0.0878 -0.4978  0.2455
  870MOL0     C17371   4.617   4.057   2.207 -0.4440 -0.7549  0.6912
  870MOL0     C17372   4.642   3.944   2.295 -0.2184 -0.0340 -0.7124
  870MOL0     O17373   4.736   3.846   2.272 -0.3074 -0.3225 -0.0385
  870MOL0     C17374   4.704   3.744   2.176 -0.1894  0.5807  0.2039
  870MOL0     C17375   4.574   3.667   2.200 -0.4149 -0.1165 -0.2909
  870MOL0     C17376   4.577   3.582   2.327  0.2992  0.0689 -0.3999
  870MOL0     C17377   4.664   3.462   2.325  0.1433 -0.1806 -0.3601
  870MOL0     C17378   4.653   3.385   2.202 -0.4398 -0.5464  0.0714
  870MOL0     C17379   4.619   3.331   2.099  0.6631  0.0854 -0.1034
  870MOL0     C17380   4.576   3.950   2.421  0.6967 -0.0986  0.1992
  870MOL0     C17381   4.475   4.044   2.448  1.2342  0.7672  0.5555
  870MOL0     C17382   4.388   4.015   2.570  1.1386 -0.2199 -1.0631
  870MOL0     H17383   4.488   4.599   2.461  1.3886 -2.2498  0.1898
  870MOL0     H17384   4.385   4.781   2.548  1.8810 -1.3152 -1.5037
  870MOL0     H17385   4.048   4.797   2.531 -2.6450  1.5119 -1.0529
  870MOL0     H17386   3.971   4.875   2.673  0.2144  1.2590 -0.0321
  870MOL0     H17387   4.213   4.960   2.498  1.2693  1.3613 -0.3547
  870MOL0     H17388   4.170   5.050   2.651  0.6859  0.4534 -0.1044
  870MOL0     H17389   3.986   5.146   2.574 -0.8550  1.2808 -1.4342
  870MOL0     H17390   3.946   5.015   2.456 -1.4794 -0.5943  2.4212
  870MOL0     H17391   4.185   5.204   2.434 -0.2852  3.0544 -2.6226
  870MOL0     H17392   4.120   5.100   2.304  0.6204  0.0684 -0.9376
  870MOL0     H17393   3.951   5.333   2.399  0.8055  2.0552 -0.3632
  870MOL0     H17394   4.088   5.347   2.300 -0.3190 -0.2425  0.9775
  870MOL0     H17395   3.996   5.176   2.145 -0.7925  1.4235 -1.9081
  870MOL0     H17396   3.848   5.166   2.251 -1.4376  1.2643  0.9392
  870MOL0     H17397   3.961   5.409   2.116  0.5089 -0.5914  2.1560
  870MOL0     H17398   3.797   5.388   2.172  2.2495  2.5752  0.5479
  870MOL0     H17399   3.769   5.218   1.961  5.2268 -3.8664  1.6763
  870MOL0     H17400   3.797   5.391   1.931  4.2021  1.8060  0.5907
  870MOL0     H17401   3.999   5.461   1.763 -2.9596  0.1729  0.8875
  870MOL0     H17402   4.276   5.373   1.646  1.5580 -0.3656 -1.5911
  870MOL0     H17403   4.253   5.201   1.600 -1.8705 -0.3162 -3.9724
  870MOL0     H17404   4.107   5.446   1.495 -0.9193 -0.5407 -0.9692
  870MOL0     H17405   4.195   5.328   1.395  0.0406 -1.9862 -0.0040
  870MOL0     H17406   3.934   5.276   1.531 -0.3385 -1.4741 -0.1089
  870MOL0     H17407   4.031   5.149   1.459  2.5704 -0.3210  2.7891
  870MOL0     H17408   3.873   5.230   1.292 -0.1136 -0.2040  0.1055
  870MOL0     H17409   4.025   5.293   1.237  0.0855  2.0591  0.3812
  870MOL0     H17410   3.893   5.664   1.303 -2.7107  2.2973  1.2501
  870MOL0     H17411   3.717   5.791   1.186 -0.1416  0.7457  0.0109
  870MOL0     H17412   3.418   5.778   0.811 -0.9090  0.8441 -1.6671
  870MOL0     H17413   3.260   5.932   0.703  0.3829 -3.7797 -0.1245
  870MOL0     H17414   3.295   6.284   0.653 -2.1557 -0.1686 -0.4553
  870MOL0     H17415   3.247   6.123   0.598  1.6136 -0.3714 -0.9952
  870MOL0     H17416   3.096   6.249   0.488 -0.0539 -0.8802  0.2393
  870MOL0     H17417   3.007   6.191   0.621 -1.7284 -0.1907 -3.2643
  870MOL0     H17418   3.057   6.403   0.757  0.6781  3.2256  0.1934
  870MOL0     H17419   3.132   6.479   0.609 -1.1496  1.1064 -0.4862
  870MOL0     H17420   2.872   6.361   0.612  1.2230 -0.6911  1.9019
  870MOL0     H17421   2.939   6.457   0.484  1.4983 -2.1888  0.5462
  870MOL0     H17422   2.943   6.664   0.624  0.8615  1.5623  1.7621
  870MOL0     H17423   2.874   6.571   0.761  0.1540 -1.7744 -0.8776
  870MOL0     H17424   2.752   6.603   0.477  0.4208  1.8513 -0.1982
  870MOL0     H17425   2.679   6.534   0.622  0.3533  0.8381  2.6859
  870MOL0     H17426   2.774   6.819   0.604  0.6416 -0.4873 -3.1851
  870MOL0     H17427   2.669   6.740   0.724  0.0256  2.1626 -0.2740
  870MOL0     H17428   2.586   6.759   0.436 -2.1156 -0.3837 -0.3116
  870MOL0     H17429   2.496   6.696   0.572  0.3009 -0.7755  0.0365
  870MOL0     H17430   3.252   6.186   1.053  4.2013 -0.3628  3.1455
  870MOL0     H17431   3.403   6.021   1.168 -1.7280 -0.6245  1.1780
  870MOL0     H17432   3.521   5.413   1.095  1.8687 -0.3965 -2.2413
  870MOL0     H17433   3.677   5.300   1.237  0.3079 -0.9620 -3.8123
  870MOL0     H17434   4.078   4.534   2.726 -0.1674  3.8937  0.0520
  870MOL0     H17435   4.206   4.330   2.648  2.3189  0.2006  2.0794
  870MOL0     H17436   4.528   4.253   2.185 -1.6936 -0.4061  0.5472
  870MOL0     H17437   4.677   4.070   2.117  2.4253 -2.2313  2.2471
  870MOL0     H17438   4.773   3.660   2.189 -0.1623  0.7102  0.9339
  870MOL0     H17439   4.715   3.768   2.070 -1.0277 -1.7979 -0.5032
  870MOL0     H17440   4.544   3.611   2.111 -3.8916  2.4998 -0.9638
  870MOL0     H17441   4.492   3.737   2.213  0.5491  0.9031  0.4476
  870MOL0     H17442   4.476   3.540   2.321 -0.4877  1.9970 -1.8815
  870MOL0     H17443   4.599   3.647   2.412 -0.2504 -1.6868  1.1444
  870MOL0     H17444   4.769   3.483   2.344  1.3146 -5.1653  0.1536
  870MOL0     H17445   4.634   3.398   2.408 -1.5940  0.5161 -0.4154
  870MOL0     H17446   4.591   3.297   2.001  0.2845  3.7612 -1.4311
  870MOL0     H17447   4.586   3.864   2.486 -1.4577 -1.9306 -1.7292
  870MOL0     H17448   4.377   4.113   2.618  3.5587  1.5474 -3.7348
  870MOL0     H17449   4.287   3.985   2.543 -0.3809  1.7517  1.9355
  870MOL0     H17450   4.439   3.947   2.639 -1.9978  0.8086  2.5617
  871MOL0     O17451   2.723   1.251   5.065 -0.3606  0.0401  0.2864
  871MOL0     C17452   2.604   1.273   5.076 -0.4551 -0.7071 -0.0212
  871MOL0     O17453   2.526   1.345   4.991  0.2294 -0.2065  0.3555
  871MOL0     C17454   2.590   1.415   4.888 -0.1908  0.9018 -0.0364
  871MOL0     C17455   2.705   1.496   4.909  0.0633 -0.4006 -0.5137
  871MOL0     C17456   2.769   1.559   4.808  0.1402  0.9334  0.4324
  871MOL0     C17457   2.726   1.533   4.678 -0.5028  0.5040  0.7359
  871MOL0     O17458   2.807   1.592   4.583 -0.7442 -0.0441  0.9483
  871MOL0     C17459   2.766   1.601   4.445 -0.1400 -0.1961 -0.3111
  871MOL0     C17460   2.873   1.685   4.362 -0.5619  0.1827  0.6680
  871MOL0     C17461   2.965   1.768   4.449  0.2710 -0.0120  0.4341
  871MOL0     C17462   3.050   1.875   4.366 -0.4763 -0.3941  0.2446
  871MOL0     C17463   3.160   1.925   4.462 -0.3974  0.2424  0.5665
  871MOL0     C17464   3.233   2.045   4.406 -0.2107  0.1501  0.8974
  871MOL0     C17465   3.368   2.088   4.465 -1.3114 -0.2425 -0.8481
  871MOL0     C17466   3.374   2.119   4.618 -0.4398  0.2233 -0.1409
  871MOL0     N17467   3.520   2.103   4.652  0.3634  0.6232  0.0706
  871MOL0     C17468   3.615   2.197   4.609 -0.4625  1.0203 -0.2889
  871MOL0     C17469   3.731   2.161   4.675 -0.1554 -0.3070 -0.5674
  871MOL0     C17470   3.871   2.210   4.643  0.1682 -0.2504 -0.6832
  871MOL0     C17471   3.936   2.281   4.761  0.3941  0.3957  0.3974
  871MOL0     C17472   3.983   2.188   4.874  0.5965  0.3775  0.7026
  871MOL0     C17473   4.042   2.269   4.980 -0.8375 -0.8001  0.1844
  871MOL0     O17474   4.175   2.294   4.936 -0.0530 -0.3950  0.5061
  871MOL0     C17475   4.255   2.368   5.016 -0.7541 -0.2671 -0.1719
  871MOL0     C17476   4.224   2.442   5.130  0.5201 -0.0427  0.1621
  871MOL0     C17477   4.323   2.514   5.190  0.3555  1.6607 -0.4939
  871MOL0     C17478   4.459   2.506   5.155 -0.4362 -0.4058 -0.0513
  871MOL0     C17479   4.562   2.576   5.239 -0.3518 -0.5861 -1.0357
  871MOL0     O17480   4.688   2.547   5.211 -1.0140  0.8030  0.6095
  871MOL0     C17481   4.787   2.630   5.254 -0.2239  0.0915 -0.2140
  871MOL0     C17482   4.839   2.624   5.383  0.0803  0.0624  0.2150
  871MOL0     C17483   4.920   2.723   5.428  0.2520 -0.5085  0.2859
  871MOL0     C17484   4.963   2.828   5.342  0.4529  0.5419 -0.4991
  871MOL0     O17485   5.035   2.931   5.388  0.3873 -0.8781 -0.2029
  871MOL0     C17486   5.076   2.943   5.522 -0.4149 -0.4674  0.1259
  871MOL0     C17487   5.130   3.089   5.539  0.2844 -0.1564 -0.6105
  871MOL0     C17488   5.170   3.122   5.686 -0.5014 -0.0490 -0.2160
  871MOL0     C17489   5.177   3.269   5.710 -0.8583 -0.1124 -0.0337
  871MOL0     C17490   5.208   3.309   5.855  0.0752  0.4645  0.0176
  871MOL0     C17491   5.347   3.295   5.915  0.1922  0.9700 -0.3385
  871MOL0     C17492   5.342   3.334   6.059  0.5393  0.3848  0.0706
  871MOL0     C17493   5.482   3.358   6.102  0.1931 -0.4160 -0.3553
  871MOL0    Cl17494   5.573   3.468   5.992 -0.4561 -0.2522 -0.1371
  871MOL0     C17495   4.924   2.825   5.208  1.2151 -0.3131  0.4643
  871MOL0     C17496   4.831   2.732   5.158  0.3496  0.8696 -0.7638
  871MOL0     O17497   4.526   2.658   5.327 -0.4710 -0.2371  0.2781
  871MOL0     C17498   4.491   2.425   5.049  0.7567 -0.0841  0.5880
  871MOL0     C17499   4.388   2.360   4.980 -0.4378 -1.1159  0.1670
  871MOL0     N17500   3.707   2.051   4.747 -0.5695  0.1305  0.9981
  871MOL0     N17501   3.583   2.016   4.731  0.5125 -0.3221 -0.6172
  871MOL0     C17502   2.608   1.455   4.647 -0.4304  0.2328 -0.1976
  871MOL0     C17503   2.546   1.393   4.757 -0.0376 -1.9635 -0.1478
  871MOL0     C17504   2.537   1.240   5.210  0.1770 -0.3636  0.5951
  871MOL0     C17505   2.411   1.295   5.232 -0.3774 -0.2233 -1.1383
  871MOL0     C17506   2.325   1.264   5.338 -0.0343  0.0759 -0.7913
  871MOL0     C17507   2.371   1.174   5.430 -0.6636  1.5260  0.0663
  871MOL0     O17508   2.304   1.116   5.536 -0.3415  0.2183 -0.3175
  871MOL0     C17509   2.160   1.111   5.549  0.8932 -0.1199 -0.6847
  871MOL0     C17510   2.107   1.227   5.633 -1.2389 -0.3085 -0.6621
  871MOL0     C17511   2.157   1.217   5.780  0.0598  0.1576 -0.9758
  871MOL0     C17512   2.124   1.346   5.861  0.3264  0.7743  0.1378
  871MOL0     C17513   2.163   1.355   5.997  0.4565 -0.4378 -0.8692
  871MOL0     C17514   2.175   1.359   6.119 -0.4132 -0.4042 -0.5017
  871MOL0     C17515   2.498   1.106   5.411  0.2333 -0.3594 -0.0590
  871MOL0     C17516   2.573   1.137   5.297 -0.1296 -0.0879  0.2587
  871MOL0     C17517   2.693   1.031   5.282 -0.8311 -0.7674 -0.7110
  871MOL0     H17518   2.742   1.495   5.011  1.3851 -0.8125 -0.9847
  871MOL0     H17519   2.856   1.621   4.826 -0.2495  1.6371 -0.0561
  871MOL0     H17520   2.749   1.500   4.406 -1.6179  0.7897 -2.3717
  871MOL0     H17521   2.676   1.663   4.451 -0.8953 -1.2009 -1.0142
  871MOL0     H17522   2.824   1.759   4.298  0.4471  1.3628  1.2381
  871MOL0     H17523   2.934   1.610   4.312 -0.4048  0.7697 -0.0461
  871MOL0     H17524   3.030   1.717   4.520 -2.5137 -0.5568  2.7945
  871MOL0     H17525   2.898   1.831   4.509 -1.7592 -2.9353  1.4612
  871MOL0     H17526   3.083   1.820   4.278 -0.0298 -1.0441  0.8060
  871MOL0     H17527   2.985   1.956   4.332 -1.2838 -1.0877  0.1151
  871MOL0     H17528   3.117   1.955   4.558  1.3402  2.9186  0.6417
  871MOL0     H17529   3.232   1.844   4.475 -1.5040 -0.6848  1.0149
  871MOL0     H17530   3.245   2.038   4.298  0.9140 -3.3050  1.1340
  871MOL0     H17531   3.173   2.134   4.429 -1.1402 -0.8825  2.7544
  871MOL0     H17532   3.407   2.180   4.422  0.8891  0.0356  1.4624
  871MOL0     H17533   3.442   2.009   4.447 -1.2028 -0.5861  0.9149
  871MOL0     H17534   3.341   2.222   4.630 -1.2310 -0.0702  0.2967
  871MOL0     H17535   3.303   2.048   4.662 -3.5463  1.9392 -2.0535
  871MOL0     H17536   3.609   2.273   4.532  2.5947  1.7414  0.0525
  871MOL0     H17537   3.921   2.117   4.617  0.0208 -0.3185 -0.7241
  871MOL0     H17538   3.884   2.265   4.550  1.8485  0.2214 -0.2093
  871MOL0     H17539   4.023   2.335   4.723  1.7959 -1.2070  1.1800
  871MOL0     H17540   3.861   2.353   4.796 -0.3980 -1.1912  2.1881
  871MOL0     H17541   4.051   2.116   4.827 -0.5209  1.9791 -3.8337
  871MOL0     H17542   3.898   2.132   4.914 -2.5955  2.1038 -3.0152
  871MOL0     H17543   4.047   2.222   5.079  2.8245  1.3736  1.2115
  871MOL0     H17544   3.991   2.365   4.996 -3.4836 -2.0585 -0.1977
  871MOL0     H17545   4.122   2.434   5.165  0.4078 -0.5362 -0.2651
  871MOL0     H17546   4.294   2.563   5.283 -2.0166 -1.7129  0.7557
  871MOL0     H17547   4.814   2.550   5.458 -1.0572 -0.3932 -0.5730
  871MOL0     H17548   4.951   2.714   5.532  0.3442  1.7196  0.4884
  871MOL0     H17549   4.990   2.930   5.588  1.0715  0.4401  2.3456
  871MOL0     H17550   5.154   2.869   5.543  0.4159 -0.0636 -1.3816
  871MOL0     H17551   5.211   3.108   5.468 -0.0842 -3.8230 -2.2514
  871MOL0     H17552   5.050   3.163   5.526  3.2461  3.7163  1.0542
  871MOL0     H17553   5.098   3.075   5.754  0.2334 -1.9255 -0.6822
  871MOL0     H17554   5.267   3.079   5.712 -0.4635  0.1614 -0.0017
  871MOL0     H17555   5.075   3.301   5.685 -0.3320  0.6618 -1.2588
  871MOL0     H17556   5.254   3.315   5.648 -0.2859 -0.3114  0.5188
  871MOL0     H17557   5.153   3.247   5.927  2.2000 -1.4936  0.0714
  871MOL0     H17558   5.159   3.406   5.866 -2.4903 -0.7232 -0.0015
  871MOL0     H17559   5.386   3.193   5.926 -2.0897  0.3247  3.3589
  871MOL0     H17560   5.405   3.369   5.859 -1.3066  3.2350  0.9952
  871MOL0     H17561   5.282   3.267   6.121 -0.3175  2.2160  1.3452
  871MOL0     H17562   5.303   3.436   6.065  0.5716  0.6976 -3.3040
  871MOL0     H17563   5.482   3.405   6.201  0.4533  1.7901 -1.3497
  871MOL0     H17564   5.536   3.265   6.118 -0.3798 -0.3677  2.3888
  871MOL0     H17565   4.958   2.902   5.140 -0.6517  1.5171  1.4854
  871MOL0     H17566   4.785   2.742   5.060 -1.4029 -1.4803 -0.2615
  871MOL0     H17567   4.594   2.418   5.015  1.2354 -1.6192  2.2136
  871MOL0     H17568   4.415   2.310   4.888 -2.7848 -2.2498  0.0347
  871MOL0     H17569   2.588   1.433   4.542 -0.2889 -0.7886 -0.0123
  871MOL0     H17570   2.463   1.325   4.741  0.0086 -1.9735 -0.3430
  871MOL0     H17571   2.364   1.358   5.157 -0.1953 -0.1613 -1.2011
  871MOL0     H17572   2.224   1.300   5.355 -0.3364 -1.1728  0.2172
  871MOL0     H17573   2.115   1.017   5.584  0.5929 -0.3504 -1.6495
  871MOL0     H17574   2.111   1.123   5.452 -1.6561  0.5862  0.6136
  871MOL0     H17575   2.001   1.243   5.612 -1.0762  0.9448 -0.6011
  871MOL0     H17576   2.150   1.319   5.593 -0.9096 -0.0152  0.3316
  871MOL0     H17577   2.266   1.212   5.773  0.0319 -0.7778 -0.8424
  871MOL0     H17578   2.124   1.126   5.832  2.9375  0.6657  2.0969
  871MOL0     H17579   2.164   1.426   5.798 -0.1882  0.4363 -0.6294
  871MOL0     H17580   2.015   1.351   5.866  0.1679  0.5672 -2.2494
  871MOL0     H17581   2.211   1.359   6.220  2.4669 -0.0115 -1.4138
  871MOL0     H17582   2.541   1.027   5.472  3.0580 -0.2672 -1.7556
  871MOL0     H17583   2.672   0.938   5.335  0.3446  1.0865  3.5095
  871MOL0     H17584   2.712   1.007   5.177  0.7119 -1.5580 -0.2726
  871MOL0     H17585   2.783   1.070   5.330 -0.6258 -1.0211 -0.8905
  872MOL0     O17586   1.641   1.731   7.226 -0.2055  0.5427  0.1335
  872MOL0     C17587   1.714   1.814   7.284  0.4999  0.4018 -0.3736
  872MOL0     O17588   1.786   1.790   7.393 -0.3700  0.8353  0.1743
  872MOL0     C17589   1.814   1.657   7.427 -0.3071 -0.2776 -0.7125
  872MOL0     C17590   1.839   1.551   7.341 -0.2835 -0.7424  0.1104
  872MOL0     C17591   1.880   1.425   7.383  1.0753  0.2917  0.4181
  872MOL0     C17592   1.909   1.399   7.510  0.0710 -0.5240 -1.1713
  872MOL0     O17593   1.925   1.275   7.563  0.0083 -0.0331 -0.0225
  872MOL0     C17594   2.013   1.181   7.495 -0.3455  0.1647 -0.5628
  872MOL0     C17595   2.026   1.053   7.580 -0.6751  0.5155 -0.0663
  872MOL0     C17596   2.156   0.973   7.538 -0.4127 -0.1383  0.5941
  872MOL0     C17597   2.168   0.839   7.616  0.1691  0.1449  0.3995
  872MOL0     C17598   2.323   0.797   7.614  0.2057  0.1826  0.4372
  872MOL0     C17599   2.400   0.821   7.481 -0.8167 -0.7335 -0.4060
  872MOL0     C17600   2.552   0.776   7.502 -0.1813  0.1789  0.9562
  872MOL0     C17601   2.563   0.621   7.500  0.1579  0.2034  1.0816
  872MOL0     N17602   2.696   0.578   7.550  0.1911 -0.6305 -0.5092
  872MOL0     C17603   2.750   0.608   7.675 -0.7788  0.2213  0.5063
  872MOL0     C17604   2.883   0.586   7.672  0.5014  0.8653 -0.4863
  872MOL0     C17605   2.974   0.582   7.793 -0.4913  0.5856  0.6388
  872MOL0     C17606   2.962   0.723   7.864  1.3549  1.4443  0.1581
  872MOL0     C17607   3.064   0.813   7.808 -0.1151  0.8546  0.1735
  872MOL0     C17608   3.027   0.960   7.846  0.2978 -0.0898  0.0120
  872MOL0     O17609   2.888   0.997   7.845 -0.7172 -0.7283 -0.0289
  872MOL0     C17610   2.818   1.034   7.732 -0.7118  0.4258  0.2270
  872MOL0     C17611   2.688   1.053   7.763  0.4021 -1.3568  0.4322
  872MOL0     C17612   2.607   1.106   7.665  0.2904  0.6883 -0.2976
  872MOL0     C17613   2.649   1.131   7.536 -1.3646 -0.0071 -0.1726
  872MOL0     C17614   2.559   1.177   7.431 -0.0488  0.5039  0.3052
  872MOL0     O17615   2.431   1.201   7.454 -0.0375 -0.0395  0.1410
  872MOL0     C17616   2.360   1.236   7.337  0.2703  1.3742 -0.3560
  872MOL0     C17617   2.345   1.154   7.228 -0.1189 -1.2503  0.4257
  872MOL0     C17618   2.252   1.187   7.121  0.2100 -0.0737 -0.7292
  872MOL0     C17619   2.158   1.290   7.145 -0.8075  0.9251 -0.6101
  872MOL0     O17620   2.047   1.323   7.071 -0.0271  0.5083 -0.4480
  872MOL0     C17621   2.051   1.286   6.932  0.2854 -0.1755 -0.6030
  872MOL0     C17622   1.938   1.355   6.861  1.0769 -0.2459 -0.6655
  872MOL0     C17623   1.807   1.291   6.894  0.3225  0.1875  0.5450
  872MOL0     C17624   1.673   1.357   6.838  0.2358 -0.5489 -0.6159
  872MOL0     C17625   1.664   1.342   6.688  0.2950 -0.3503 -0.4170
  872MOL0     C17626   1.577   1.446   6.618  0.5742 -0.0074  0.5187
  872MOL0     C17627   1.432   1.429   6.645  0.7802 -0.2100  0.1055
  872MOL0     C17628   1.340   1.542   6.582 -0.5181  0.3386  0.0364
  872MOL0    Cl17629   1.368   1.702   6.660 -0.3453  0.2931  0.1434
  872MOL0     C17630   2.179   1.375   7.256  0.0606  0.6538  0.5405
  872MOL0     C17631   2.287   1.353   7.341 -0.4504 -0.3350  0.4197
  872MOL0     O17632   2.610   1.198   7.321 -0.8033 -0.0059  0.2835
  872MOL0     C17633   2.784   1.101   7.503  0.2853  0.2612 -0.0252
  872MOL0     C17634   2.872   1.052   7.604 -0.4111 -0.1374 -0.2431
  872MOL0     N17635   2.913   0.532   7.552  0.6821 -0.6470 -0.2915
  872MOL0     N17636   2.802   0.536   7.478 -0.0217 -0.6008  0.2415
  872MOL0     C17637   1.895   1.509   7.599  0.6678 -0.0487 -0.6536
  872MOL0     C17638   1.846   1.632   7.556 -0.2096 -1.1302  0.5706
  872MOL0     C17639   1.689   1.954   7.243 -0.2874 -0.2886 -0.2951
  872MOL0     C17640   1.768   2.054   7.316 -0.4450 -0.2678  1.0318
  872MOL0     C17641   1.752   2.187   7.283  0.1760  0.1967  0.0507
  872MOL0     C17642   1.661   2.227   7.190 -0.3531 -0.2024  0.5037
  872MOL0     O17643   1.632   2.361   7.159  0.2580  0.0275  0.5789
  872MOL0     C17644   1.726   2.467   7.198 -0.4729  0.6551 -0.2426
  872MOL0     C17645   1.653   2.580   7.256  0.5014 -0.4471 -0.2018
  872MOL0     C17646   1.555   2.650   7.154 -0.5206 -0.5294  0.4265
  872MOL0     C17647   1.612   2.678   7.011 -0.3396  0.0482 -0.0852
  872MOL0     C17648   1.738   2.751   7.001 -0.4376  0.1021 -0.0993
  872MOL0     C17649   1.836   2.819   6.996  0.5074  1.2468 -0.4085
  872MOL0     C17650   1.596   2.128   7.121  0.5313  0.7627  0.0985
  872MOL0     C17651   1.594   1.996   7.149 -0.8149  0.0793 -0.1991
  872MOL0     C17652   1.512   1.900   7.060 -0.3981 -0.6894 -0.3534
  872MOL0     H17653   1.846   1.563   7.233  0.4548  1.0854  0.3270
  872MOL0     H17654   1.879   1.352   7.303  1.7665 -0.2563  0.8931
  872MOL0     H17655   1.999   1.157   7.389  0.7620 -0.8510 -0.4995
  872MOL0     H17656   2.114   1.222   7.501  0.3212 -1.6230  1.7658
  872MOL0     H17657   1.935   0.997   7.559 -0.7180  1.0662 -1.4175
  872MOL0     H17658   2.042   1.074   7.686 -0.7821 -2.3363  0.5938
  872MOL0     H17659   2.244   1.037   7.553 -1.7397  2.0686 -0.6478
  872MOL0     H17660   2.171   0.951   7.432  1.1018 -2.0614  1.1337
  872MOL0     H17661   2.136   0.843   7.721  1.1383 -0.4971  0.7347
  872MOL0     H17662   2.110   0.768   7.556  1.9147  0.5469 -1.8988
  872MOL0     H17663   2.382   0.860   7.682  0.5231  0.7583 -0.3416
  872MOL0     H17664   2.322   0.693   7.647  2.0737  1.3664  5.1176
  872MOL0     H17665   2.351   0.772   7.396 -1.9235 -0.6381  0.1599
  872MOL0     H17666   2.404   0.929   7.465  0.8076 -0.6855  0.1385
  872MOL0     H17667   2.593   0.825   7.590 -3.3479  3.1458  1.0031
  872MOL0     H17668   2.620   0.791   7.417 -0.8768 -2.7237 -0.2518
  872MOL0     H17669   2.483   0.575   7.560 -1.5386  0.6266 -0.7650
  872MOL0     H17670   2.550   0.586   7.398  5.5202 -0.0570  0.1757
  872MOL0     H17671   2.687   0.642   7.757 -1.8153  1.2230 -0.6580
  872MOL0     H17672   2.938   0.500   7.856  1.6562 -0.1675  0.9638
  872MOL0     H17673   3.078   0.562   7.767 -0.7923 -0.1289 -0.0874
  872MOL0     H17674   2.864   0.761   7.834 -1.5324 -1.5581  4.5717
  872MOL0     H17675   2.968   0.719   7.973  3.8657 -1.9568  0.0583
  872MOL0     H17676   3.076   0.805   7.700  0.3841  3.3009  0.0002
  872MOL0     H17677   3.157   0.774   7.852 -1.4039 -1.1200  1.3107
  872MOL0     H17678   3.086   1.025   7.780  0.5352 -0.9740 -0.6704
  872MOL0     H17679   3.066   0.985   7.945 -0.5814  1.5978 -0.0291
  872MOL0     H17680   2.660   1.044   7.868 -2.8128  0.7455 -0.0996
  872MOL0     H17681   2.502   1.129   7.682  0.9163  3.4290  0.3133
  872MOL0     H17682   2.408   1.066   7.212 -0.8143 -1.3389 -2.4170
  872MOL0     H17683   2.237   1.125   7.033  2.3341 -0.3232 -0.9531
  872MOL0     H17684   2.148   1.313   6.890  1.1260  0.2354  1.4593
  872MOL0     H17685   2.024   1.180   6.934 -1.8559  0.2851 -1.8134
  872MOL0     H17686   1.920   1.456   6.898  1.7498  0.3305 -1.8678
  872MOL0     H17687   1.953   1.363   6.753  1.3569 -1.0892 -0.6963
  872MOL0     H17688   1.809   1.188   6.858 -1.0144 -0.3294  1.8108
  872MOL0     H17689   1.790   1.279   7.002 -0.0295 -0.8050  0.3931
  872MOL0     H17690   1.678   1.461   6.872 -1.2925 -0.2235 -1.2776
  872MOL0     H17691   1.590   1.316   6.898  0.5790  2.2924  2.0907
  872MOL0     H17692   1.632   1.241   6.664  0.9886 -0.4431 -0.9872
  872MOL0     H17693   1.762   1.358   6.643 -0.3610  2.9492 -0.9269
  872MOL0     H17694   1.609   1.547   6.646 -1.9803  0.6271  1.3801
  872MOL0     H17695   1.590   1.431   6.510  1.0561 -2.7051  0.8939
  872MOL0     H17696   1.418   1.431   6.753 -1.6086  2.2478 -0.1332
  872MOL0     H17697   1.396   1.335   6.603  2.9642 -0.7187 -0.7497
  872MOL0     H17698   1.366   1.551   6.476 -1.1547 -3.1623 -0.5673
  872MOL0     H17699   1.234   1.520   6.601 -0.6895 -1.9771 -2.8599
  872MOL0     H17700   2.123   1.467   7.262 -0.1888  0.4720  1.0283
  872MOL0     H17701   2.318   1.426   7.415  2.5560  0.9822 -1.9245
  872MOL0     H17702   2.826   1.141   7.411  2.0156  2.9084  1.7635
  872MOL0     H17703   2.973   1.027   7.573  0.3317  0.7986  1.3133
  872MOL0     H17704   1.912   1.489   7.704 -2.8034  1.0719  0.2342
  872MOL0     H17705   1.849   1.716   7.625 -2.3169 -1.3319  0.9638
  872MOL0     H17706   1.833   2.031   7.399  2.5319  1.8589 -0.5284
  872MOL0     H17707   1.801   2.260   7.347 -0.3146  2.0295 -1.5380
  872MOL0     H17708   1.777   2.494   7.106 -1.5751 -0.3950 -1.1939
  872MOL0     H17709   1.810   2.430   7.258  0.9450  1.7601 -1.4783
  872MOL0     H17710   1.721   2.654   7.300 -0.2490 -0.9624  1.9869
  872MOL0     H17711   1.591   2.539   7.337  0.2626  0.2445 -0.0274
  872MOL0     H17712   1.537   2.752   7.189  3.1268  0.6120 -0.5383
  872MOL0     H17713   1.466   2.588   7.153  0.2055 -1.5977 -0.1513
  872MOL0     H17714   1.619   2.584   6.956 -0.3058  0.4780 -0.8168
  872MOL0     H17715   1.538   2.737   6.957 -1.8637 -2.3432 -0.7597
  872MOL0     H17716   1.923   2.880   6.981  0.5918  0.3314 -5.5050
  872MOL0     H17717   1.515   2.167   7.059 -1.5120 -0.3423  1.9390
  872MOL0     H17718   1.427   1.853   7.110 -0.9117 -0.0440 -0.5960
  872MOL0     H17719   1.478   1.967   6.980  3.2918  3.5190  1.2216
  872MOL0     H17720   1.572   1.822   7.014 -0.5581 -0.6836 -0.5757
  873MOL0     O17721   0.413   0.611   4.282 -0.7777 -0.3045  0.4981
  873MOL0     C17722   0.340   0.691   4.340  0.9663 -0.3666  0.6832
  873MOL0     O17723   0.253   0.771   4.277 -0.2030 -0.8085  0.3755
  873MOL0     C17724   0.271   0.794   4.142  0.0073 -1.0536  0.6941
  873MOL0     C17725   0.152   0.806   4.075 -0.2684 -0.0397 -0.5911
  873MOL0     C17726   0.148   0.819   3.938  0.0928  0.4191  0.4456
  873MOL0     C17727   0.265   0.831   3.867 -0.3064  1.1303 -0.5126
  873MOL0     O17728   0.247   0.857   3.734  0.3406 -0.7122 -0.4315
  873MOL0     C17729   0.291   0.764   3.639 -0.3003  0.7100 -1.2567
  873MOL0     C17730   0.263   0.812   3.498 -0.3996  0.2172 -0.0343
  873MOL0     C17731   0.342   0.939   3.455  0.6075  1.0683 -0.2475
  873MOL0     C17732   0.302   0.968   3.308  0.3268 -0.2795 -0.4359
  873MOL0     C17733   0.373   1.089   3.241 -0.5762  0.5560 -0.0746
  873MOL0     C17734   0.350   1.107   3.089 -0.7488 -1.0178  0.0157
  873MOL0     C17735   0.201   1.147   3.046  0.6099 -0.2791 -0.6455
  873MOL0     C17736   0.184   1.158   2.885  0.8694 -0.8173 -0.1823
  873MOL0     N17737   0.257   1.276   2.841 -0.1372  0.1481 -0.0848
  873MOL0     C17738   0.219   1.407   2.869  0.5283  0.3108  1.4322
  873MOL0     C17739   0.317   1.477   2.815 -0.2827 -0.2071 -0.4142
  873MOL0     C17740   0.340   1.625   2.824 -0.2526  0.0563 -0.2626
  873MOL0     C17741   0.425   1.689   2.722  0.3234 -0.3151 -0.0403
  873MOL0     C17742   0.352   1.727   2.595 -0.7320 -0.2408 -0.7395
  873MOL0     C17743   0.301   1.867   2.601  0.5440 -0.3631  0.2482
  873MOL0     O17744   0.254   1.897   2.473 -0.2753  1.0377 -0.0684
  873MOL0     C17745   0.193   2.011   2.449 -0.0564 -0.6421  1.1562
  873MOL0     C17746   0.176   2.047   2.319  0.3799  0.7832 -0.9610
  873MOL0     C17747   0.117   2.172   2.283 -0.6646 -0.2233 -0.0893
  873MOL0     C17748   0.068   2.254   2.390  0.4921 -0.5214 -0.0318
  873MOL0     C17749   0.008   2.390   2.365 -0.4088  0.5132  0.4180
  873MOL0     O17750   0.027   2.434   2.240 -0.0196 -0.0902  0.8199
  873MOL0     C17751   0.003   2.560   2.202  0.2752  0.5824  0.0107
  873MOL0     C17752  -0.015   2.678   2.284 -0.1718  1.3390  0.1977
  873MOL0     C17753  -0.051   2.798   2.238 -0.0385 -0.5348  0.4749
  873MOL0     C17754  -0.055   2.814   2.096  0.1619  0.0722 -0.3076
  873MOL0     O17755  -0.086   2.938   2.050 -0.7177 -1.1055  1.1677
  873MOL0     C17756  -0.220   2.956   2.006  0.5696  0.0602  0.3792
  873MOL0     C17757  -0.221   2.938   1.849  0.2402  0.2645  0.0760
  873MOL0     C17758  -0.139   3.039   1.769  0.3658 -0.7412 -0.4913
  873MOL0     C17759  -0.180   3.021   1.622 -0.1744  0.7701 -0.1377
  873MOL0     C17760  -0.117   3.142   1.539 -0.0392 -0.9526 -0.5688
  873MOL0     C17761   0.036   3.159   1.558 -0.2815 -0.6498  0.5463
  873MOL0     C17762   0.087   3.238   1.442 -0.1649  1.2742 -0.4030
  873MOL0     C17763   0.238   3.215   1.424 -0.3513  0.1602 -0.5745
  873MOL0    Cl17764   0.317   3.320   1.541 -0.2108  0.7266  0.5449
  873MOL0     C17765  -0.033   2.704   2.007  0.3759  0.5607  0.1671
  873MOL0     C17766  -0.012   2.575   2.073  1.3350  0.5223 -1.2892
  873MOL0     O17767  -0.044   2.452   2.457  0.1379  0.3690  0.6398
  873MOL0     C17768   0.075   2.207   2.519  0.7010  0.1248 -0.3590
  873MOL0     C17769   0.160   2.099   2.549  1.1583 -0.9298 -0.3470
  873MOL0     N17770   0.410   1.390   2.754  0.0841 -0.1903 -0.1859
  873MOL0     N17771   0.369   1.271   2.761  0.0790  0.2052  0.0122
  873MOL0     C17772   0.391   0.811   3.936 -0.5391  0.2915  1.1611
  873MOL0     C17773   0.394   0.797   4.070  0.0654  0.4640 -0.2837
  873MOL0     C17774   0.327   0.691   4.486  0.3040 -0.6950  0.9636
  873MOL0     C17775   0.260   0.799   4.552  0.2256  0.2654 -0.0228
  873MOL0     C17776   0.228   0.801   4.686  0.1313  0.5657  0.8988
  873MOL0     C17777   0.251   0.687   4.757  0.3709 -0.4629 -0.2258
  873MOL0     O17778   0.217   0.664   4.891  0.2960 -0.0142  0.1174
  873MOL0     C17779   0.162   0.773   4.969 -0.1699 -0.4529 -0.0089
  873MOL0     C17780   0.125   0.733   5.112 -0.7925 -0.4664 -0.0998
  873MOL0     C17781   0.035   0.839   5.180 -0.0026  0.7566  0.5287
  873MOL0     C17782  -0.003   0.797   5.327 -0.8203  0.1496 -0.4951
  873MOL0     C17783  -0.109   0.697   5.337  0.0682  0.9196  0.6116
  873MOL0     C17784  -0.199   0.614   5.339  0.7221  0.4887 -0.7120
  873MOL0     C17785   0.331   0.589   4.697 -0.2143  0.6742 -0.2851
  873MOL0     C17786   0.367   0.585   4.562 -0.0840  0.0649 -0.3057
  873MOL0     C17787   0.439   0.469   4.505  0.4381 -0.7015  0.5249
  873MOL0     H17788   0.064   0.796   4.137  1.2119  0.7400  1.7870
  873MOL0     H17789   0.055   0.826   3.884 -0.7947 -0.2068  1.8196
  873MOL0     H17790   0.389   0.719   3.659 -0.2231  1.1114 -0.7377
  873MOL0     H17791   0.222   0.680   3.651 -2.8637  2.8373 -0.0476
  873MOL0     H17792   0.154   0.808   3.494 -0.3666 -0.7008 -0.2278
  873MOL0     H17793   0.286   0.733   3.427  1.0227  0.5626  0.0014
  873MOL0     H17794   0.445   0.918   3.485 -0.8118 -1.3441  3.9460
  873MOL0     H17795   0.313   1.021   3.522 -0.8694 -1.1775  2.0942
  873MOL0     H17796   0.326   0.878   3.250  0.8563 -0.6350  0.3163
  873MOL0     H17797   0.194   0.986   3.302  0.2735 -0.1086  0.8078
  873MOL0     H17798   0.348   1.184   3.289  0.6149  0.3381  1.0340
  873MOL0     H17799   0.479   1.076   3.264 -0.7351 -0.1828  0.2675
  873MOL0     H17800   0.416   1.191   3.065 -0.4779 -1.4677 -0.8604
  873MOL0     H17801   0.384   1.022   3.030 -0.1553 -0.0332 -1.0933
  873MOL0     H17802   0.162   1.235   3.097  0.0390 -0.5699 -0.5676
  873MOL0     H17803   0.136   1.064   3.076  2.8068 -2.2483 -1.0491
  873MOL0     H17804   0.243   1.079   2.838  1.2249 -1.1703  0.8237
  873MOL0     H17805   0.082   1.165   2.848  0.1700  0.8714  1.8297
  873MOL0     H17806   0.123   1.423   2.916  0.1893 -1.6198  1.4740
  873MOL0     H17807   0.242   1.674   2.818  0.4166  1.2772 -1.8773
  873MOL0     H17808   0.382   1.646   2.923  2.0779 -2.7759 -0.5196
  873MOL0     H17809   0.463   1.777   2.775 -0.2736  0.3315 -0.6684
  873MOL0     H17810   0.506   1.622   2.692  1.3162 -1.1405  3.8206
  873MOL0     H17811   0.266   1.667   2.564 -0.8824 -0.6416  0.3907
  873MOL0     H17812   0.426   1.712   2.517  1.1615  2.5177  0.3853
  873MOL0     H17813   0.378   1.938   2.630  1.2542  0.3651 -3.0229
  873MOL0     H17814   0.221   1.866   2.675 -2.0198 -1.2585 -2.3127
  873MOL0     H17815   0.219   1.993   2.235  1.4744 -3.8758  2.2176
  873MOL0     H17816   0.108   2.196   2.178 -1.1428 -1.9108 -0.4701
  873MOL0     H17817  -0.014   2.676   2.393 -0.0974  1.0268  0.1927
  873MOL0     H17818  -0.080   2.883   2.299  1.5434  2.4423 -2.5658
  873MOL0     H17819  -0.280   2.879   2.055 -0.2973  2.1568  2.8398
  873MOL0     H17820  -0.250   3.061   2.014 -2.5033 -0.3952 -2.7421
  873MOL0     H17821  -0.172   2.846   1.813 -0.9881 -0.5249  0.3534
  873MOL0     H17822  -0.320   2.933   1.803  0.5143  2.5527 -0.8604
  873MOL0     H17823  -0.160   3.141   1.801 -1.9618 -1.5185  0.6745
  873MOL0     H17824  -0.033   3.030   1.797  0.1638  2.2655  1.7153
  873MOL0     H17825  -0.289   3.014   1.610 -0.1075 -0.5326 -0.1607
  873MOL0     H17826  -0.154   2.925   1.576  0.9622  2.0403 -2.3245
  873MOL0     H17827  -0.154   3.236   1.579  2.7946 -1.1171  2.8947
  873MOL0     H17828  -0.128   3.124   1.431  0.8709 -0.3691 -0.7711
  873MOL0     H17829   0.051   3.221   1.647  1.1788  1.1254 -0.8499
  873MOL0     H17830   0.088   3.064   1.554 -0.3184 -0.6631  0.4052
  873MOL0     H17831   0.055   3.343   1.450 -2.1284  0.6139  1.2398
  873MOL0     H17832   0.035   3.210   1.349 -1.6726  4.2962 -0.6099
  873MOL0     H17833   0.264   3.109   1.416  0.6275 -0.3699  5.1884
  873MOL0     H17834   0.268   3.257   1.327  3.9662 -0.5840  0.2173
  873MOL0     H17835  -0.014   2.713   1.900  0.4553  1.5019  0.2514
  873MOL0     H17836   0.001   2.483   2.016  2.2039 -0.0815 -0.1612
  873MOL0     H17837   0.046   2.268   2.604 -1.2612  0.5937 -1.2993
  873MOL0     H17838   0.181   2.074   2.653  1.2276  2.2549  0.5049
  873MOL0     H17839   0.484   0.799   3.881 -0.3698 -2.6413  1.9648
  873MOL0     H17840   0.489   0.770   4.115 -0.5137 -2.5148 -0.6003
  873MOL0     H17841   0.241   0.890   4.497 -1.3990  1.1949  1.9595
  873MOL0     H17842   0.183   0.889   4.730  1.2896  2.3592 -1.2861
  873MOL0     H17843   0.079   0.811   4.910  1.8593  3.1300 -0.8572
  873MOL0     H17844   0.238   0.852   4.967 -1.3316  0.6924  0.1385
  873MOL0     H17845   0.224   0.714   5.156 -0.3860  0.0965 -0.7450
  873MOL0     H17846   0.065   0.642   5.102 -1.6777  0.2482 -1.6983
  873MOL0     H17847  -0.054   0.853   5.120  0.8508  0.8617 -0.7453
  873MOL0     H17848   0.079   0.939   5.188 -0.3832  0.8365  1.8580
  873MOL0     H17849   0.086   0.776   5.387 -0.2567  0.2973 -1.2560
  873MOL0     H17850  -0.030   0.897   5.362  1.3340  0.0015  1.9091
  873MOL0     H17851  -0.270   0.536   5.356  1.7463 -0.1878  0.7447
  873MOL0     H17852   0.358   0.504   4.759 -0.5966  0.6900 -0.0922
  873MOL0     H17853   0.375   0.421   4.431  3.0029 -0.4564 -2.0300
  873MOL0     H17854   0.534   0.493   4.454  0.1359 -3.2056 -1.3854
  873MOL0     H17855   0.464   0.401   4.587  0.5330  2.0912  3.0168
  874MOL0     O17856   4.436  11.146   9.881 -0.0183  0.1974  0.5649
  874MOL0     C17857   4.548  11.202   9.860 -0.5751  0.3049  0.0435
  874MOL0     O17858   4.654  11.133   9.814 -0.7851 -0.1940  0.3663
  874MOL0     C17859   4.655  11.029   9.727 -0.3080  0.0802 -0.2034
  874MOL0     C17860   4.768  10.964   9.692 -0.5746  0.6575  0.3110
  874MOL0     C17861   4.772  10.854   9.601 -0.0114 -0.6692  0.3823
  874MOL0     C17862   4.659  10.816   9.533 -0.0181  0.0700 -0.7842
  874MOL0     O17863   4.653  10.731   9.428  0.3040 -0.4502 -0.0351
  874MOL0     C17864   4.764  10.645   9.409 -0.9600  0.6807  0.8405
  874MOL0     C17865   4.849  10.703   9.294 -0.4720 -1.0848 -1.6358
  874MOL0     C17866   4.789  10.691   9.153 -0.0443 -0.0404  0.0590
  874MOL0     C17867   4.872  10.760   9.049 -0.1060 -0.1937 -0.2732
  874MOL0     C17868   5.005  10.686   9.013 -0.7363  1.1443 -0.2211
  874MOL0     C17869   5.057  10.740   8.888  0.2930 -0.0990 -0.1865
  874MOL0     C17870   5.190  10.685   8.852  0.4645  0.1916  0.6718
  874MOL0     C17871   5.315  10.766   8.900 -0.2964 -0.0809  0.8822
  874MOL0     N17872   5.436  10.716   8.842 -0.4526  0.3755 -0.3537
  874MOL0     C17873   5.500  10.773   8.733  0.4004  1.1671  0.2895
  874MOL0     C17874   5.607  10.690   8.716 -1.1621 -0.4614 -0.2733
  874MOL0     C17875   5.716  10.707   8.613  0.1377  0.2977 -0.2875
  874MOL0     C17876   5.860  10.697   8.656  0.3094 -0.8943  0.5663
  874MOL0     C17877   5.891  10.844   8.707 -0.0558  0.3231  0.2482
  874MOL0     C17878   6.023  10.833   8.772 -0.0129 -0.4648  0.5562
  874MOL0     O17879   6.044  10.966   8.829  0.7771  0.3404  0.3048
  874MOL0     C17880   6.133  10.974   8.929 -0.3218 -0.3658  0.4449
  874MOL0     C17881   6.240  10.890   8.955 -1.0633  0.4966  0.2650
  874MOL0     C17882   6.330  10.916   9.058  0.0712 -0.2037  0.1101
  874MOL0     C17883   6.322  11.044   9.134 -0.7928  1.0607 -0.3659
  874MOL0     C17884   6.413  11.076   9.235  0.4747  1.0566 -0.0180
  874MOL0     O17885   6.382  11.157   9.335 -0.0837  0.2267  0.2384
  874MOL0     C17886   6.467  11.181   9.442 -0.5286  0.5400  0.4488
  874MOL0     C17887   6.599  11.214   9.418 -0.3814  0.3609 -0.3340
  874MOL0     C17888   6.692  11.238   9.519 -0.1114  0.2945  0.2937
  874MOL0     C17889   6.640  11.247   9.652 -0.3961 -1.0979  0.2832
  874MOL0     O17890   6.734  11.284   9.751  0.2659  0.7721  0.4119
  874MOL0     C17891   6.695  11.345   9.880 -0.5410  0.0714 -0.2203
  874MOL0     C17892   6.805  11.415   9.945 -0.4066  0.2041  0.3870
  874MOL0     C17893   6.949  11.355   9.949  0.1428  0.1832  0.5675
  874MOL0     C17894   6.948  11.213   9.999  0.2077 -0.2601  0.0058
  874MOL0     C17895   7.088  11.159  10.014  0.1555  0.7910  0.0257
  874MOL0     C17896   7.073  11.008  10.052  0.2225 -0.3218  0.1502
  874MOL0     C17897   7.202  10.934  10.011 -0.5580 -0.4023 -0.0055
  874MOL0     C17898   7.174  10.784   9.988 -1.2177  0.1172 -0.4675
  874MOL0    Cl17899   7.123  10.714  10.147  0.3547 -0.2522  0.2767
  874MOL0     C17900   6.501  11.232   9.672  0.1704  0.1095 -0.8257
  874MOL0     C17901   6.411  11.181   9.570  0.2016 -0.7298  0.1763
  874MOL0     O17902   6.511  11.001   9.235 -0.1512  0.9319 -0.6138
  874MOL0     C17903   6.221  11.132   9.097 -0.1417 -0.0082 -0.7799
  874MOL0     C17904   6.120  11.087   9.004  0.9916 -0.7069  0.2489
  874MOL0     N17905   5.604  10.591   8.813 -0.0533 -0.4743 -0.2592
  874MOL0     N17906   5.490  10.599   8.876  0.0028  0.1945 -0.0887
  874MOL0     C17907   4.541  10.880   9.566  0.3939 -0.3174 -0.3162
  874MOL0     C17908   4.536  10.986   9.657 -0.6989 -0.2270  0.2602
  874MOL0     C17909   4.578  11.345   9.892  0.1322  0.1853 -0.6975
  874MOL0     C17910   4.711  11.382   9.899  0.4828 -1.4488  0.0730
  874MOL0     C17911   4.736  11.519   9.949  0.4903  0.7453  0.7880
  874MOL0     C17912   4.641  11.610   9.988 -0.6430 -0.0285 -1.1932
  874MOL0     O17913   4.684  11.730  10.036  0.0547 -0.2468  0.3367
  874MOL0     C17914   4.635  11.784  10.155  0.5798 -0.5655  0.1256
  874MOL0     C17915   4.689  11.724  10.286  0.6012  0.2326  0.7973
  874MOL0     C17916   4.835  11.749  10.313  0.2619  0.3916  0.0701
  874MOL0     C17917   4.932  11.626  10.323  0.3302 -0.9465  1.2718
  874MOL0     C17918   4.888  11.527  10.428  0.2326 -0.3022 -0.0775
  874MOL0     C17919   4.852  11.460  10.522  0.4091 -0.4719 -0.0042
  874MOL0     C17920   4.506  11.573   9.963  0.6551 -0.0002  0.1129
  874MOL0     C17921   4.468  11.445   9.913 -0.3601 -0.3805  0.8512
  874MOL0     C17922   4.327  11.410   9.900  0.8822 -0.1596 -0.7783
  874MOL0     H17923   4.859  10.986   9.748  0.7817  0.3917 -1.7031
  874MOL0     H17924   4.867  10.804   9.586  1.4955  0.8516  3.8359
  874MOL0     H17925   4.817  10.623   9.502  0.2992 -3.4323 -0.6031
  874MOL0     H17926   4.730  10.549   9.368 -2.3919  0.9038  1.4325
  874MOL0     H17927   4.953  10.670   9.298  0.0971  0.7104 -1.0767
  874MOL0     H17928   4.865  10.805   9.328 -1.0369 -1.8947  1.3011
  874MOL0     H17929   4.687  10.732   9.152 -0.3086 -0.6605  0.7408
  874MOL0     H17930   4.792  10.582   9.143  1.4802 -0.5837  4.3755
  874MOL0     H17931   4.815  10.769   8.956 -2.1953  1.0793  1.0427
  874MOL0     H17932   4.889  10.864   9.077  0.4065 -0.4655  0.4707
  874MOL0     H17933   5.084  10.687   9.089  1.6554  0.1186 -2.5547
  874MOL0     H17934   4.986  10.581   8.991 -0.8260  0.7498  1.5552
  874MOL0     H17935   4.987  10.722   8.806  1.4721  1.2393 -1.5525
  874MOL0     H17936   5.065  10.847   8.911 -2.7855 -0.2158  1.9420
  874MOL0     H17937   5.202  10.678   8.743  2.3002  0.9119  0.8025
  874MOL0     H17938   5.202  10.586   8.896 -2.8336 -0.5704  0.1256
  874MOL0     H17939   5.296  10.869   8.870 -1.2688 -1.2648 -3.1785
  874MOL0     H17940   5.332  10.765   9.008  0.1188  0.7927  0.8351
  874MOL0     H17941   5.461  10.853   8.671  2.2974  1.3613 -0.7454
  874MOL0     H17942   5.696  10.620   8.551  3.4485 -1.3188  0.6941
  874MOL0     H17943   5.696  10.798   8.555  0.8378  2.2536  2.3058
  874MOL0     H17944   5.866  10.627   8.740  0.1740 -0.7112  0.7303
  874MOL0     H17945   5.914  10.654   8.571 -2.6244 -0.0433 -1.9060
  874MOL0     H17946   5.822  10.870   8.787  2.5101  3.1158  1.7796
  874MOL0     H17947   5.880  10.913   8.622 -1.0500  1.8729  1.5757
  874MOL0     H17948   6.093  10.802   8.694 -0.1093 -1.3789  0.8232
  874MOL0     H17949   6.024  10.749   8.842  1.0208 -0.6155  0.3801
  874MOL0     H17950   6.254  10.807   8.886  0.0625 -0.5102  1.6602
  874MOL0     H17951   6.404  10.844   9.091  2.2782  1.8975  0.0037
  874MOL0     H17952   6.636  11.205   9.316  1.0206  0.3553  0.1529
  874MOL0     H17953   6.799  11.251   9.506  0.1899 -1.2604  1.0449
  874MOL0     H17954   6.604  11.405   9.873 -1.5195 -1.2331  0.8419
  874MOL0     H17955   6.679  11.267   9.955 -0.9658  0.6816  0.3356
  874MOL0     H17956   6.819  11.506   9.886 -2.3856 -0.3544 -1.0843
  874MOL0     H17957   6.778  11.443  10.047 -1.5688 -0.1796  0.2031
  874MOL0     H17958   6.991  11.366   9.848 -0.5076  1.4874  0.4147
  874MOL0     H17959   7.017  11.416  10.008  1.0913  0.3761 -0.6884
  874MOL0     H17960   6.888  11.149   9.933 -2.9229  0.8505  1.5281
  874MOL0     H17961   6.892  11.223  10.092  0.5136 -1.9541  0.3946
  874MOL0     H17962   7.146  11.199  10.097  3.0160 -2.9479  0.1018
  874MOL0     H17963   7.136  11.163   9.916  1.9888  1.4530  0.9094
  874MOL0     H17964   7.077  10.997  10.161 -0.3700 -0.0432  0.2003
  874MOL0     H17965   6.982  10.972  10.003  0.6155 -0.9632 -0.1354
  874MOL0     H17966   7.268  10.944  10.098 -2.5057 -1.4996  1.7051
  874MOL0     H17967   7.233  10.957   9.909 -2.4195  2.8001 -0.0136
  874MOL0     H17968   7.101  10.762   9.910 -2.3405 -0.1688  0.6409
  874MOL0     H17969   7.265  10.734   9.953 -0.5245  0.5147  0.6857
  874MOL0     H17970   6.446  11.250   9.764 -0.9333  1.3560 -1.7037
  874MOL0     H17971   6.309  11.158   9.601 -0.1448  1.6037  0.9513
  874MOL0     H17972   6.214  11.236   9.129  0.3789 -0.1031 -0.3506
  874MOL0     H17973   6.033  11.151   8.993  0.8386 -1.1661 -1.6649
  874MOL0     H17974   4.445  10.856   9.521  0.1487 -1.1297  0.6068
  874MOL0     H17975   4.437  11.025   9.681  0.7501  3.3332  1.1399
  874MOL0     H17976   4.788  11.306   9.885  1.8850 -0.3799  1.6249
  874MOL0     H17977   4.844  11.531   9.961  1.6980 -4.4746 -1.9784
  874MOL0     H17978   4.526  11.785  10.140  1.0455  2.3980 -5.7405
  874MOL0     H17979   4.663  11.889  10.150  1.4863 -0.8144 -0.2102
  874MOL0     H17980   4.675  11.615  10.279  3.7545 -0.2749  0.9819
  874MOL0     H17981   4.626  11.783  10.354 -1.3215 -0.5424 -0.2183
  874MOL0     H17982   4.833  11.804  10.407  1.0018  3.1848 -1.4645
  874MOL0     H17983   4.879  11.823  10.247 -0.1424 -1.2978 -2.2202
  874MOL0     H17984   4.934  11.573  10.227  1.9980 -0.8895  1.2451
  874MOL0     H17985   5.037  11.651  10.344  1.6503 -4.3596 -0.4863
  874MOL0     H17986   4.804  11.414  10.607 -0.0453  2.7884  1.6557
  874MOL0     H17987   4.437  11.656   9.977  1.3953  0.6087  0.2364
  874MOL0     H17988   4.246  11.484   9.889 -0.6910 -1.7860 -0.5760
  874MOL0     H17989   4.324  11.343   9.814  0.2482 -0.1161 -0.7936
  874MOL0     H17990   4.310  11.348   9.989  0.8908  0.5059 -0.3050
  875MOL0     O17991   6.987   5.425  10.823 -0.4344 -0.3776 -0.1398
  875MOL0     C17992   7.046   5.526  10.785  0.3705  0.0670 -0.0516
  875MOL0     O17993   7.140   5.528  10.685  0.2020 -0.0206  0.7023
  875MOL0     C17994   7.192   5.406  10.656 -0.8024  0.5776 -0.3456
  875MOL0     C17995   7.325   5.374  10.662  1.1222  0.4998 -0.1345
  875MOL0     C17996   7.377   5.251  10.616 -0.1267  1.5632 -0.0200
  875MOL0     C17997   7.295   5.174  10.539  0.1965 -0.0566  0.1312
  875MOL0     O17998   7.339   5.053  10.492  0.1826 -0.0387 -0.3252
  875MOL0     C17999   7.452   4.993  10.565  0.2841  0.6351 -0.9690
  875MOL0     C18000   7.466   4.842  10.533 -0.8082 -0.4538 -0.4672
  875MOL0     C18001   7.542   4.822  10.402  0.1523  0.8400  0.6435
  875MOL0     C18002   7.475   4.866  10.269  0.8811  0.9058  0.7606
  875MOL0     C18003   7.563   4.877  10.145 -0.0601  1.2106 -0.4531
  875MOL0     C18004   7.661   4.761  10.117  0.8722 -0.6544 -0.3501
  875MOL0     C18005   7.709   4.781   9.968 -0.3011 -0.6889 -0.0356
  875MOL0     C18006   7.810   4.671   9.936 -0.7177  0.2872  0.8801
  875MOL0     N18007   7.907   4.710   9.825  0.2353  0.0560 -0.0563
  875MOL0     C18008   7.909   4.655   9.701 -0.0534 -0.0532  0.5650
  875MOL0     C18009   8.021   4.710   9.641  0.1740  0.7134 -1.0661
  875MOL0     C18010   8.055   4.676   9.498 -0.0648  0.1188 -0.4441
  875MOL0     C18011   8.166   4.575   9.499  0.0075  0.3513 -0.2871
  875MOL0     C18012   8.308   4.638   9.537 -0.1309 -0.4106  0.6800
  875MOL0     C18013   8.410   4.543   9.478  0.4930 -0.0999  0.5136
  875MOL0     O18014   8.418   4.563   9.336  0.1332  1.0050 -0.8503
  875MOL0     C18015   8.531   4.521   9.274  0.8524 -0.4677  0.1172
  875MOL0     C18016   8.607   4.405   9.302 -0.0363  0.2819  0.0706
  875MOL0     C18017   8.713   4.365   9.215  0.1257 -0.9899 -0.6709
  875MOL0     C18018   8.751   4.443   9.101 -0.0456  0.0085 -0.8376
  875MOL0     C18019   8.861   4.409   9.007  0.0261 -0.1236  0.0149
  875MOL0     O18020   8.902   4.283   9.015 -0.1234 -0.1870  0.1505
  875MOL0     C18021   9.012   4.267   8.945  0.3599  0.2395 -0.1489
  875MOL0     C18022   9.134   4.273   9.014 -0.5286  0.4507  0.3222
  875MOL0     C18023   9.249   4.273   8.936 -0.3048  0.7457  0.0918
  875MOL0     C18024   9.247   4.241   8.798 -0.0484 -0.1979 -0.4182
  875MOL0     O18025   9.369   4.232   8.727  0.5633  0.2152 -0.3620
  875MOL0     C18026   9.423   4.108   8.672  0.5183  0.0565 -0.2618
  875MOL0     C18027   9.496   4.027   8.785 -0.0184  0.0217  0.5193
  875MOL0     C18028   9.545   3.894   8.729  0.5596  0.4826 -0.2545
  875MOL0     C18029   9.432   3.799   8.690 -0.7141  0.5982  0.1367
  875MOL0     C18030   9.484   3.654   8.691  0.6911 -0.5003 -0.3690
  875MOL0     C18031   9.389   3.551   8.629 -0.4291 -0.3553  0.1057
  875MOL0     C18032   9.457   3.417   8.592 -0.0623 -0.0943 -1.2806
  875MOL0     C18033   9.345   3.317   8.544  0.0896 -0.6046 -0.4517
  875MOL0    Cl18034   9.296   3.368   8.380 -0.1854 -0.0021 -0.2344
  875MOL0     C18035   9.124   4.206   8.735  0.2208  1.1449  0.1947
  875MOL0     C18036   9.005   4.218   8.809  0.1422 -0.0518 -0.4043
  875MOL0     O18037   8.920   4.497   8.944  0.3714 -0.5788 -0.1123
  875MOL0     C18038   8.663   4.545   9.071 -0.3889  0.5142  0.0796
  875MOL0     C18039   8.559   4.586   9.154 -0.4387  0.6157  1.0792
  875MOL0     N18040   8.073   4.793   9.726  0.0104 -0.7425 -0.1952
  875MOL0     N18041   8.008   4.794   9.836 -0.6594  0.5385 -0.5705
  875MOL0     C18042   7.163   5.212  10.516 -0.2805  0.6120  0.2420
  875MOL0     C18043   7.113   5.325  10.573  0.4694 -0.1054 -0.6598
  875MOL0     C18044   7.017   5.651  10.851 -0.4666  0.2812  0.0983
  875MOL0     C18045   7.111   5.755  10.847 -0.1197  0.8577  0.4797
  875MOL0     C18046   7.096   5.877  10.908 -0.2164 -0.2575 -0.3221
  875MOL0     C18047   6.981   5.909  10.980 -0.1771 -0.5561 -0.0608
  875MOL0     O18048   6.959   6.032  11.044 -0.1648  0.4867  0.3868
  875MOL0     C18049   6.979   6.144  10.958  1.1904 -0.6281  0.7854
  875MOL0     C18050   6.875   6.136  10.840  0.3082 -0.6650 -0.1356
  875MOL0     C18051   6.947   6.120  10.704  0.2911  0.0841 -0.4973
  875MOL0     C18052   7.024   6.247  10.659 -0.3931  0.1890 -0.1541
  875MOL0     C18053   7.067   6.225  10.523  0.1732  0.3661  0.8321
  875MOL0     C18054   7.121   6.223  10.414  0.6516  0.0555  0.5031
  875MOL0     C18055   6.883   5.810  10.983 -0.9165  0.1112  0.4759
  875MOL0     C18056   6.890   5.690  10.915 -1.2067  0.1865  0.0109
  875MOL0     C18057   6.763   5.600  10.893 -1.0858 -0.2660 -0.7096
  875MOL0     H18058   7.390   5.437  10.721 -0.0911  0.8593  0.8468
  875MOL0     H18059   7.477   5.219  10.642 -1.0091 -2.9662 -1.4159
  875MOL0     H18060   7.547   5.046  10.551  1.7253 -1.2085  1.1006
  875MOL0     H18061   7.439   4.988  10.673  2.6939  0.5889 -0.6187
  875MOL0     H18062   7.371   4.787  10.536 -1.4379  0.6282  0.6705
  875MOL0     H18063   7.537   4.804  10.607  0.1228  0.0260 -1.0998
  875MOL0     H18064   7.570   4.716  10.396  2.3120  1.3645  0.4283
  875MOL0     H18065   7.643   4.865  10.403 -0.3179  2.0030 -0.5057
  875MOL0     H18066   7.394   4.801  10.235  1.3876  1.2827 -1.3042
  875MOL0     H18067   7.429   4.962  10.290  1.0637  1.3641 -0.7897
  875MOL0     H18068   7.500   4.893  10.056 -1.0235  0.4843  0.0776
  875MOL0     H18069   7.628   4.965  10.151  0.6265  0.7603 -1.0467
  875MOL0     H18070   7.738   4.762  10.195  0.5577 -1.4197 -0.0252
  875MOL0     H18071   7.607   4.666  10.126 -1.4334  0.6681  0.5410
  875MOL0     H18072   7.754   4.880   9.961  0.6929 -1.1220  0.0366
  875MOL0     H18073   7.628   4.773   9.895 -1.1710 -0.2360  0.8476
  875MOL0     H18074   7.871   4.638  10.020 -0.5833  1.7094  1.3593
  875MOL0     H18075   7.755   4.584   9.898 -0.4930  0.5984 -0.1877
  875MOL0     H18076   7.846   4.575   9.664 -0.8291  1.9174 -2.7871
  875MOL0     H18077   7.966   4.629   9.455 -0.5441 -0.2904  0.9230
  875MOL0     H18078   8.087   4.768   9.448  0.1340 -0.6059 -1.6845
  875MOL0     H18079   8.139   4.484   9.554  0.4957 -0.8519 -1.9395
  875MOL0     H18080   8.172   4.546   9.394  1.3871  2.2359 -0.7742
  875MOL0     H18081   8.320   4.630   9.646  0.3475  0.2100  0.6751
  875MOL0     H18082   8.333   4.740   9.508  0.1439 -0.4271  0.8570
  875MOL0     H18083   8.381   4.442   9.510  0.0396  0.7406  2.9460
  875MOL0     H18084   8.508   4.573   9.517  0.2005  0.0169  1.1617
  875MOL0     H18085   8.571   4.328   9.368 -1.1438 -0.2186 -1.0636
  875MOL0     H18086   8.761   4.268   9.207 -1.5631 -1.8232 -1.2248
  875MOL0     H18087   9.137   4.301   9.119  0.2229  0.5813  0.2703
  875MOL0     H18088   9.343   4.285   8.990 -1.0372  1.0347  1.3411
  875MOL0     H18089   9.331   4.058   8.642 -0.8205  0.7306  2.4103
  875MOL0     H18090   9.494   4.128   8.592  0.0926 -0.0972 -0.6817
  875MOL0     H18091   9.579   4.088   8.821  1.9602 -1.9580 -0.4499
  875MOL0     H18092   9.424   4.012   8.866 -0.9480  1.1149 -0.0812
  875MOL0     H18093   9.606   3.912   8.640  1.9748  0.5021  0.6730
  875MOL0     H18094   9.611   3.853   8.807 -1.8980  0.2609  1.8629
  875MOL0     H18095   9.401   3.820   8.587  3.1886 -0.7634 -1.4860
  875MOL0     H18096   9.346   3.819   8.755 -0.4687  2.2006  0.0160
  875MOL0     H18097   9.515   3.634   8.794  1.9514  1.0042 -0.4140
  875MOL0     H18098   9.562   3.644   8.614 -2.7835  1.3688 -4.6078
  875MOL0     H18099   9.304   3.540   8.697 -1.5579 -1.0446 -1.3621
  875MOL0     H18100   9.351   3.586   8.533 -0.7250  0.1545  0.4010
  875MOL0     H18101   9.506   3.384   8.684  1.0561  1.2466 -1.3721
  875MOL0     H18102   9.536   3.432   8.518  0.0928 -1.0877 -1.3300
  875MOL0     H18103   9.384   3.215   8.534  2.3045 -0.1653  2.3601
  875MOL0     H18104   9.253   3.321   8.604  0.0432  0.1272 -0.5722
  875MOL0     H18105   9.120   4.166   8.634  0.2055 -1.6846  1.2374
  875MOL0     H18106   8.914   4.185   8.761 -0.0908  0.1891 -0.1360
  875MOL0     H18107   8.680   4.616   8.991  1.2033  0.4433  0.3168
  875MOL0     H18108   8.494   4.672   9.143 -1.3983 -0.0590  1.4013
  875MOL0     H18109   7.099   5.144  10.460 -1.4318  1.4764  0.4599
  875MOL0     H18110   7.010   5.352  10.554  0.5167  0.9875  0.5687
  875MOL0     H18111   7.211   5.739  10.808 -0.3262  1.9178 -0.5504
  875MOL0     H18112   7.182   5.941  10.889 -1.9172  1.9397 -1.1091
  875MOL0     H18113   7.076   6.161  10.911  1.1183 -3.2234 -0.4697
  875MOL0     H18114   6.930   6.221  11.019 -2.1894 -3.8671  2.5566
  875MOL0     H18115   6.820   6.230  10.827  1.6734 -0.1053 -2.5320
  875MOL0     H18116   6.798   6.060  10.858 -2.0006  2.0159  2.2997
  875MOL0     H18117   6.868   6.094  10.633  0.6411 -2.3639 -0.0711
  875MOL0     H18118   7.012   6.033  10.713  1.5817  0.9461 -1.2080
  875MOL0     H18119   6.960   6.335  10.656 -0.1326  0.3792 -3.1727
  875MOL0     H18120   7.109   6.264  10.725 -1.1806 -0.4069  1.0592
  875MOL0     H18121   7.176   6.227  10.323 -0.1220  2.6998  0.0618
  875MOL0     H18122   6.799   5.833  11.048 -0.7858  2.5595 -0.1233
  875MOL0     H18123   6.769   5.551  10.795  1.3219  1.8598 -1.7287
  875MOL0     H18124   6.771   5.528  10.975  3.4797  0.5287 -0.2260
  875MOL0     H18125   6.668   5.654  10.901 -0.3746  0.6564  3.0266
  876MOL0     O18126   6.791  10.062   0.367 -0.3528 -0.6994  0.3403
  876MOL0     C18127   6.672  10.095   0.343 -0.0076 -0.2029  1.1186
  876MOL0     O18128   6.623  10.171   0.235  0.0726 -0.1726  0.1001
  876MOL0     C18129   6.708  10.228   0.151 -0.6941 -1.1272 -0.4788
  876MOL0     C18130   6.812  10.310   0.195  0.1556  0.2243  0.0963
  876MOL0     C18131   6.914  10.356   0.103 -0.7447  0.1051 -1.0196
  876MOL0     C18132   6.901  10.338  -0.033  0.3749  0.1226  0.4488
  876MOL0     O18133   7.004  10.400  -0.110 -0.0804  0.5426 -0.2307
  876MOL0     C18134   7.024  10.343  -0.236  0.0044 -0.7854 -0.7980
  876MOL0     C18135   7.089  10.204  -0.230  0.8132 -0.7559  0.1033
  876MOL0     C18136   7.196  10.181  -0.338 -0.4906 -0.8219 -0.4223
  876MOL0     C18137   7.280  10.059  -0.302  0.3157  0.1362  1.5774
  876MOL0     C18138   7.384  10.007  -0.401 -0.6718 -0.1387  0.0369
  876MOL0     C18139   7.487  10.108  -0.440 -0.5626  0.8671  1.1742
  876MOL0     C18140   7.588  10.047  -0.556  0.1441  0.4704 -0.4575
  876MOL0     C18141   7.699  10.151  -0.593  0.0651 -0.3803 -0.2214
  876MOL0     N18142   7.758  10.118  -0.729  0.3579 -0.0664  0.3092
  876MOL0     C18143   7.798   9.989  -0.771 -0.6154 -0.2230 -0.9241
  876MOL0     C18144   7.875  10.015  -0.879  0.2223  0.1415 -0.6749
  876MOL0     C18145   7.936   9.921  -0.985  0.9721  0.8222  0.2754
  876MOL0     C18146   7.979   9.781  -0.941  0.7693  0.6176  1.1583
  876MOL0     C18147   8.126   9.748  -0.933  0.7741 -0.3796 -0.4201
  876MOL0     C18148   8.159   9.610  -0.870 -0.6529  0.3707 -0.3857
  876MOL0     O18149   8.095   9.507  -0.950  0.1523 -0.6997  0.4998
  876MOL0     C18150   8.135   9.378  -0.939  0.4081  0.4354 -0.2407
  876MOL0     C18151   8.108   9.287  -1.036  0.5115  0.9572 -0.8997
  876MOL0     C18152   8.140   9.152  -1.020  0.3475 -0.4191  0.0254
  876MOL0     C18153   8.202   9.110  -0.909 -0.0260 -0.4704 -0.6323
  876MOL0     C18154   8.231   8.968  -0.902  0.3350  0.2765  0.4064
  876MOL0     O18155   8.244   8.891  -1.010 -0.2488 -0.1665  0.1270
  876MOL0     C18156   8.304   8.771  -0.988  0.2592  0.1053 -0.2494
  876MOL0     C18157   8.444   8.752  -0.984 -0.3234  0.4363 -1.0821
  876MOL0     C18158   8.496   8.620  -0.970 -0.0815  0.7791  0.5756
  876MOL0     C18159   8.408   8.510  -0.965 -0.1741  0.6997  0.5158
  876MOL0     O18160   8.472   8.388  -0.972 -0.7138 -0.4455 -0.4478
  876MOL0     C18161   8.387   8.275  -0.939  1.2473  0.6720  0.2417
  876MOL0     C18162   8.461   8.148  -0.900  0.5961  0.8181 -0.3946
  876MOL0     C18163   8.370   8.025  -0.915  0.2542 -0.3052 -0.6391
  876MOL0     C18164   8.422   7.899  -0.860 -0.0417 -0.3768 -0.6394
  876MOL0     C18165   8.316   7.797  -0.900 -0.0380 -0.2179  0.0213
  876MOL0     C18166   8.350   7.643  -0.861  0.3464 -1.2693 -0.3880
  876MOL0     C18167   8.483   7.595  -0.928 -0.1196 -0.4184  0.4353
  876MOL0     C18168   8.490   7.576  -1.078 -1.1955 -0.0032  0.3762
  876MOL0    Cl18169   8.401   7.437  -1.115 -0.1757  0.3822 -0.4572
  876MOL0     C18170   8.262   8.535  -0.974  0.2025 -0.2926 -0.4994
  876MOL0     C18171   8.216   8.667  -0.983  0.3749 -0.2780 -0.4178
  876MOL0     O18172   8.246   8.927  -0.787 -0.1867  0.1931 -0.9324
  876MOL0     C18173   8.244   9.204  -0.807  1.3553  0.6780 -0.2458
  876MOL0     C18174   8.202   9.340  -0.823  0.8850 -0.4221  0.3868
  876MOL0     N18175   7.872  10.153  -0.899  0.4963 -0.4242  0.4809
  876MOL0     N18176   7.798  10.211  -0.806 -0.8535 -0.1801 -0.5406
  876MOL0     C18177   6.797  10.254  -0.076  0.3597 -0.6365  0.3741
  876MOL0     C18178   6.710  10.191   0.011  0.2381 -0.6112 -0.0781
  876MOL0     C18179   6.571  10.016   0.429  0.4260  0.0512 -0.3333
  876MOL0     C18180   6.439  10.069   0.433  0.0447 -0.0821 -0.3954
  876MOL0     C18181   6.335   9.998   0.496 -0.3533 -0.4160 -0.1467
  876MOL0     C18182   6.360   9.884   0.571  0.0580  0.2207  0.2370
  876MOL0     O18183   6.269   9.821   0.652  0.0777  0.0124  0.2471
  876MOL0     C18184   6.142   9.785   0.603  0.6558  0.2004  0.7301
  876MOL0     C18185   6.106   9.656   0.678  0.2258 -0.5408 -0.0083
  876MOL0     C18186   5.955   9.629   0.702 -0.4468 -0.5143 -0.1162
  876MOL0     C18187   5.913   9.485   0.683 -0.3814  0.1143 -0.3896
  876MOL0     C18188   5.999   9.392   0.764  0.7248  0.3565  0.1573
  876MOL0     C18189   6.062   9.316   0.835  0.0849  0.3643 -0.7686
  876MOL0     C18190   6.491   9.835   0.571 -0.1456  0.8789  0.1901
  876MOL0     C18191   6.595   9.901   0.509 -0.1221 -0.0074  0.6709
  876MOL0     C18192   6.734   9.845   0.519 -1.0082 -0.0422 -0.0597
  876MOL0     H18193   6.819  10.331   0.301 -1.5246  2.3114 -0.1269
  876MOL0     H18194   6.985  10.426   0.145 -1.3781  1.7861 -2.5694
  876MOL0     H18195   6.929  10.344  -0.291 -0.9270  0.7368  0.7466
  876MOL0     H18196   7.091  10.413  -0.288  0.6636  0.4930  1.6434
  876MOL0     H18197   7.022  10.119  -0.246 -0.0496 -0.4582  1.8364
  876MOL0     H18198   7.129  10.189  -0.129 -0.0055  0.9475  0.7397
  876MOL0     H18199   7.272  10.259  -0.348  2.7044 -3.8195 -1.5448
  876MOL0     H18200   7.148  10.168  -0.436  1.6788 -2.6951 -1.3311
  876MOL0     H18201   7.324  10.064  -0.202  1.7141 -3.8417  1.3325
  876MOL0     H18202   7.207   9.978  -0.294  1.1280 -0.9361 -0.7386
  876MOL0     H18203   7.443   9.922  -0.368  0.8370  1.0820  0.5948
  876MOL0     H18204   7.320   9.978  -0.485 -0.9419 -1.0785  0.5657
  876MOL0     H18205   7.441  10.202  -0.474 -2.4593  0.0283  1.2515
  876MOL0     H18206   7.540  10.130  -0.347  0.1138  0.2101  0.9560
  876MOL0     H18207   7.532  10.024  -0.647 -1.5239  1.1482  0.3666
  876MOL0     H18208   7.639   9.954  -0.529  0.9875  1.4445  1.4612
  876MOL0     H18209   7.643  10.245  -0.605  1.8130  0.6402 -0.7133
  876MOL0     H18210   7.783  10.166  -0.525 -1.0822  2.2948  0.7568
  876MOL0     H18211   7.770   9.892  -0.731  1.0048  0.1625  1.3169
  876MOL0     H18212   7.863   9.927  -1.067 -0.8485  2.6207  1.9221
  876MOL0     H18213   8.022   9.981  -1.015  0.8421  1.4421  1.1319
  876MOL0     H18214   7.932   9.747  -0.848  2.7317  0.7520  2.2472
  876MOL0     H18215   7.954   9.712  -1.022  0.4282  1.0392  0.9009
  876MOL0     H18216   8.172   9.824  -0.870  0.3482 -0.4799  0.0185
  876MOL0     H18217   8.172   9.748  -1.032  1.3863 -2.1531 -0.1781
  876MOL0     H18218   8.101   9.602  -0.777 -1.9744 -3.8249 -1.3154
  876MOL0     H18219   8.266   9.601  -0.853 -0.8627 -0.0785  0.8034
  876MOL0     H18220   8.054   9.324  -1.122 -2.9050 -3.2985 -0.9171
  876MOL0     H18221   8.108   9.074  -1.088 -1.1172 -0.8202  1.1255
  876MOL0     H18222   8.512   8.837  -0.986 -0.6476  0.7960  0.9617
  876MOL0     H18223   8.605   8.619  -0.973 -0.0667  2.2133 -1.3254
  876MOL0     H18224   8.332   8.306  -0.849 -0.0569  0.1113 -0.3375
  876MOL0     H18225   8.319   8.252  -1.021  1.4551 -1.5644  0.6394
  876MOL0     H18226   8.554   8.132  -0.956  0.5622  4.1721 -1.5967
  876MOL0     H18227   8.498   8.140  -0.798 -2.2618  0.1030  0.6811
  876MOL0     H18228   8.276   8.054  -0.867  0.3222  1.4157 -1.4470
  876MOL0     H18229   8.347   8.006  -1.021  0.8198 -2.3558 -0.4364
  876MOL0     H18230   8.428   7.911  -0.751 -0.4454 -0.9408 -0.5524
  876MOL0     H18231   8.511   7.862  -0.910  1.0242 -4.3559  3.5574
  876MOL0     H18232   8.309   7.796  -1.009  1.1264 -5.4444 -0.2722
  876MOL0     H18233   8.225   7.825  -0.847  0.0994  1.3275 -0.5225
  876MOL0     H18234   8.350   7.626  -0.753 -2.4466 -0.3923 -0.1515
  876MOL0     H18235   8.265   7.584  -0.896  0.1669 -0.1897 -1.9188
  876MOL0     H18236   8.491   7.503  -0.869 -2.3698 -0.9388  0.0330
  876MOL0     H18237   8.561   7.666  -0.898 -0.6859  0.0477  0.8314
  876MOL0     H18238   8.448   7.667  -1.122  4.2972  1.6955 -2.3388
  876MOL0     H18239   8.593   7.577  -1.115 -1.2954  1.0462  0.0887
  876MOL0     H18240   8.198   8.448  -0.987  0.9370 -0.7641 -0.9958
  876MOL0     H18241   8.111   8.692  -0.993  0.7371  2.1922  1.1065
  876MOL0     H18242   8.308   9.192  -0.720  0.5427 -0.0769  0.2624
  876MOL0     H18243   8.223   9.407  -0.741  0.1018 -3.0603  2.9518
  876MOL0     H18244   6.797  10.220  -0.179  0.6138 -0.2691  0.2487
  876MOL0     H18245   6.635  10.118  -0.019 -2.1347  1.0150  1.5206
  876MOL0     H18246   6.403  10.154   0.375  0.2684  0.4712  0.2687
  876MOL0     H18247   6.234  10.037   0.490  0.3544  1.4265 -1.0253
  876MOL0     H18248   6.125   9.781   0.495 -1.7601 -2.3497  1.0632
  876MOL0     H18249   6.071   9.862   0.633  0.8331  1.6391 -2.2107
  876MOL0     H18250   6.159   9.670   0.773 -2.2837  0.6498  1.3052
  876MOL0     H18251   6.159   9.582   0.617  1.2839 -0.0637  0.3050
  876MOL0     H18252   5.905   9.691   0.627 -0.0086  0.0539  0.0466
  876MOL0     H18253   5.927   9.665   0.801 -0.5880 -0.7554 -0.0696
  876MOL0     H18254   5.813   9.475   0.726  0.6329  3.8262  3.6145
  876MOL0     H18255   5.912   9.452   0.578  3.9056 -1.0039 -0.2460
  876MOL0     H18256   6.131   9.253   0.887  0.4291 -0.4236 -2.1381
  876MOL0     H18257   6.520   9.749   0.631  1.7709  1.4965  0.2230
  876MOL0     H18258   6.768   9.834   0.416 -0.4291 -0.0222  0.1272
  876MOL0     H18259   6.806   9.903   0.577 -0.9880  0.2856 -0.4031
  876MOL0     H18260   6.734   9.753   0.578 -2.2191 -0.1064 -0.1348
  877MOL0     O18261   8.742   9.005   9.888 -0.2551 -0.1534  0.0479
  877MOL0     C18262   8.634   9.022   9.944 -0.7596  0.3514 -0.1668
  877MOL0     O18263   8.519   8.961   9.905  0.1052 -0.1472 -0.4517
  877MOL0     C18264   8.529   8.901   9.786  0.4970 -0.4211  0.1788
  877MOL0     C18265   8.449   8.967   9.692 -0.6718 -0.1652  0.6317
  877MOL0     C18266   8.436   8.934   9.560 -0.4643  1.2923  0.6978
  877MOL0     C18267   8.523   8.820   9.519 -0.2968  0.3914  0.4771
  877MOL0     O18268   8.537   8.770   9.392  0.0698 -0.4522  0.0344
  877MOL0     C18269   8.519   8.862   9.278 -0.4408 -0.4205 -0.4571
  877MOL0     C18270   8.621   8.984   9.284 -0.4358  0.8635  0.1382
  877MOL0     C18271   8.740   8.950   9.202 -0.7392  0.1767  0.6808
  877MOL0     C18272   8.730   8.988   9.055  0.9244 -0.8362 -0.6348
  877MOL0     C18273   8.862   8.959   8.973  0.6502 -0.4572  0.0536
  877MOL0     C18274   8.888   8.811   8.949 -0.4773  0.0424  0.4043
  877MOL0     C18275   9.009   8.780   8.867 -0.3510 -0.0426 -0.6789
  877MOL0     C18276   9.114   8.701   8.957  0.4009  1.1304  0.7101
  877MOL0     N18277   9.194   8.614   8.879  0.0883  0.3848  0.5361
  877MOL0     C18278   9.235   8.493   8.924  0.3652  1.1674 -0.2762
  877MOL0     C18279   9.343   8.454   8.845 -0.0632 -0.6043 -0.0209
  877MOL0     C18280   9.452   8.347   8.870 -0.5280  0.4299 -0.0897
  877MOL0     C18281   9.600   8.391   8.901  0.8108  0.4018  0.2495
  877MOL0     C18282   9.669   8.474   8.797  0.8569 -0.0902 -0.2146
  877MOL0     C18283   9.820   8.448   8.799 -0.0657  0.3473 -0.4298
  877MOL0     O18284   9.883   8.485   8.682 -0.1629  0.3713  0.4881
  877MOL0     C18285   9.998   8.427   8.642  0.2291 -0.0108 -0.4649
  877MOL0     C18286  10.083   8.354   8.735 -0.1947 -1.0740  0.5043
  877MOL0     C18287  10.200   8.288   8.694  0.3224 -1.2753  0.2526
  877MOL0     C18288  10.242   8.303   8.560 -0.5979 -0.6364 -0.1792
  877MOL0     C18289  10.360   8.222   8.504 -0.1852 -0.3736 -0.4278
  877MOL0     O18290  10.374   8.192   8.371  0.2225  0.7610 -0.3287
  877MOL0     C18291  10.463   8.096   8.327 -0.1529  0.2217  0.1559
  877MOL0     C18292  10.436   7.962   8.348  0.6087 -0.0346 -0.0635
  877MOL0     C18293  10.535   7.864   8.322 -1.0246  0.0749  0.2703
  877MOL0     C18294  10.664   7.914   8.283  0.3724  0.3594  0.7471
  877MOL0     O18295  10.764   7.826   8.270  0.1766  0.1137  0.0817
  877MOL0     C18296  10.756   7.708   8.191  0.0103 -0.2159  0.0920
  877MOL0     C18297  10.741   7.747   8.030 -0.4478  0.3817  0.0252
  877MOL0     C18298  10.770   7.627   7.937 -0.3151  0.0691 -0.1458
  877MOL0     C18299  10.648   7.534   7.943  0.2636  0.1064  0.0614
  877MOL0     C18300  10.690   7.399   7.886 -0.2632 -1.1912  0.9890
  877MOL0     C18301  10.572   7.293   7.862 -0.7627 -0.7158 -0.4012
  877MOL0     C18302  10.629   7.157   7.825  0.1802  0.5362 -1.0663
  877MOL0     C18303  10.702   7.144   7.687 -0.2947 -0.1449 -0.5178
  877MOL0    Cl18304  10.575   7.140   7.566  0.6863  0.1054 -0.1537
  877MOL0     C18305  10.686   8.049   8.272 -0.8906 -0.5169 -0.8168
  877MOL0     C18306  10.591   8.141   8.293  0.1641  1.7662 -0.1166
  877MOL0     O18307  10.437   8.178   8.590 -0.3133  0.1901  0.2239
  877MOL0     C18308  10.172   8.384   8.477 -0.0712 -0.0331  0.0433
  877MOL0     C18309  10.054   8.448   8.510  0.3172 -0.3363 -0.8435
  877MOL0     N18310   9.339   8.541   8.740  0.3670  1.1500 -0.2179
  877MOL0     N18311   9.261   8.639   8.759  0.9091  0.0809  0.4572
  877MOL0     C18312   8.598   8.752   9.616 -1.0319  0.2130  0.0709
  877MOL0     C18313   8.594   8.776   9.753  0.2298 -0.8926  1.0661
  877MOL0     C18314   8.618   9.118  10.064 -0.2660  0.3490  0.0319
  877MOL0     C18315   8.499   9.111  10.136  0.2927 -0.3621  0.4994
  877MOL0     C18316   8.481   9.191  10.254  0.2900 -0.1530 -0.2133
  877MOL0     C18317   8.581   9.266  10.305 -0.0943 -0.5830 -0.4871
  877MOL0     O18318   8.559   9.327  10.427 -0.2564 -0.0931 -0.8380
  877MOL0     C18319   8.651   9.410  10.501 -0.1265  0.1630 -0.4199
  877MOL0     C18320   8.745   9.303  10.567  0.6778 -0.4183  0.6367
  877MOL0     C18321   8.870   9.377  10.614  0.0738 -0.0958  0.7731
  877MOL0     C18322   8.945   9.284  10.712  0.4353 -0.6850 -0.0849
  877MOL0     C18323   9.016   9.366  10.812  0.7347  1.1786 -0.7627
  877MOL0     C18324   9.083   9.412  10.899  0.0036  0.0259 -0.9842
  877MOL0     C18325   8.692   9.275  10.232  0.8981 -0.4814  0.2938
  877MOL0     C18326   8.712   9.199  10.114 -0.2737 -0.0446  0.0415
  877MOL0     C18327   8.846   9.222  10.046 -0.3728  0.5100  0.2414
  877MOL0     H18328   8.414   9.062   9.732 -0.0160  0.8675 -1.1348
  877MOL0     H18329   8.382   8.997   9.491 -2.0829  0.6323  1.3106
  877MOL0     H18330   8.531   8.821   9.178 -1.1139  3.5362 -2.3691
  877MOL0     H18331   8.417   8.902   9.286 -1.3845 -2.7105 -0.3616
  877MOL0     H18332   8.629   9.020   9.387  3.5281 -0.7639  0.5779
  877MOL0     H18333   8.573   9.066   9.230 -0.9244 -0.6288 -1.7948
  877MOL0     H18334   8.767   8.844   9.208  0.5651  0.3290 -1.4285
  877MOL0     H18335   8.822   9.006   9.249 -1.4052  0.2558  1.7767
  877MOL0     H18336   8.646   8.929   9.018 -0.5808  2.3037 -2.6610
  877MOL0     H18337   8.715   9.095   9.034 -1.8870 -1.0756 -0.1883
  877MOL0     H18338   8.857   9.009   8.875  2.3808 -2.9075 -1.3899
  877MOL0     H18339   8.949   8.999   9.026  0.9217 -0.9826  0.0127
  877MOL0     H18340   8.882   8.765   9.049 -1.1242  0.8460  0.7448
  877MOL0     H18341   8.800   8.761   8.908 -2.1075  1.6866  1.7378
  877MOL0     H18342   9.051   8.873   8.826 -2.4725  2.3344  2.1396
  877MOL0     H18343   8.976   8.728   8.776 -1.6425 -0.2394 -0.1154
  877MOL0     H18344   9.179   8.765   9.017  0.3299  1.8479  0.0374
  877MOL0     H18345   9.061   8.629   9.021  2.1655  0.0633  1.0607
  877MOL0     H18346   9.209   8.441   9.016 -0.6487  0.3752 -0.9937
  877MOL0     H18347   9.414   8.279   8.947  2.3740 -1.5832 -0.2790
  877MOL0     H18348   9.465   8.278   8.786  1.9465  0.1636  0.4364
  877MOL0     H18349   9.590   8.450   8.993  0.8387 -1.1822  1.3099
  877MOL0     H18350   9.654   8.301   8.931  1.9679  0.6532 -0.9347
  877MOL0     H18351   9.645   8.578   8.821 -1.2488 -1.3624  4.1051
  877MOL0     H18352   9.623   8.458   8.699 -2.7392 -2.3866  1.6564
  877MOL0     H18353   9.844   8.342   8.811  0.3800  0.2117 -2.2379
  877MOL0     H18354   9.873   8.495   8.884 -1.9378 -1.4188  1.8550
  877MOL0     H18355  10.062   8.350   8.842  1.5983  1.6771  1.0571
  877MOL0     H18356  10.245   8.234   8.777  1.4658  0.7112  0.9858
  877MOL0     H18357  10.342   7.922   8.383  0.0239  0.1491 -1.3567
  877MOL0     H18358  10.524   7.757   8.337 -0.4392 -0.1392 -0.7297
  877MOL0     H18359  10.857   7.670   8.206 -0.0913 -0.9844 -1.0980
  877MOL0     H18360  10.683   7.630   8.213  1.0003 -1.8112 -1.9691
  877MOL0     H18361  10.637   7.774   8.010 -0.3476 -0.3827 -1.7423
  877MOL0     H18362  10.793   7.840   8.003 -1.2221 -0.0277 -3.4139
  877MOL0     H18363  10.780   7.666   7.836  1.4717 -0.5375 -0.2410
  877MOL0     H18364  10.865   7.576   7.960 -1.3111 -1.2831  1.1725
  877MOL0     H18365  10.572   7.594   7.891 -0.3214  1.0697  1.9535
  877MOL0     H18366  10.604   7.515   8.041 -0.0093  1.9968  0.3466
  877MOL0     H18367  10.767   7.365   7.955  0.1073 -4.7987 -0.9543
  877MOL0     H18368  10.742   7.414   7.791  0.7514 -1.7473  1.4438
  877MOL0     H18369  10.506   7.288   7.949 -2.1627 -2.6807 -1.4919
  877MOL0     H18370  10.518   7.334   7.775 -2.2783  0.0011  0.8226
  877MOL0     H18371  10.541   7.093   7.833  0.1494  0.5426 -1.3401
  877MOL0     H18372  10.685   7.110   7.906 -0.2227 -1.7997 -2.0767
  877MOL0     H18373  10.783   7.216   7.677  0.2425 -0.4987  1.0369
  877MOL0     H18374  10.746   7.045   7.674  2.9375  1.3097 -1.6858
  877MOL0     H18375  10.790   8.079   8.261 -1.4583  1.0982 -2.2695
  877MOL0     H18376  10.591   8.249   8.289  2.4944  2.0569  3.2098
  877MOL0     H18377  10.201   8.397   8.373 -1.4031 -3.1865 -0.8303
  877MOL0     H18378  10.001   8.514   8.442  2.4822 -0.1557 -2.4864
  877MOL0     H18379   8.663   8.672   9.580  3.4408  3.4150  0.1029
  877MOL0     H18380   8.657   8.714   9.815  3.0660 -0.9474 -1.6043
  877MOL0     H18381   8.416   9.048  10.107 -0.1139  0.0996  0.6499
  877MOL0     H18382   8.393   9.186  10.317  1.2803 -0.0508  1.2328
  877MOL0     H18383   8.600   9.477  10.571  0.2073  3.8577 -3.3588
  877MOL0     H18384   8.709   9.471  10.430 -0.1813 -0.4449 -0.9983
  877MOL0     H18385   8.764   9.220  10.498 -2.3701 -0.1291 -0.7199
  877MOL0     H18386   8.690   9.266  10.654 -0.2877  2.3859  1.3437
  877MOL0     H18387   8.830   9.463  10.667 -0.9910 -1.2227  1.8546
  877MOL0     H18388   8.936   9.411  10.533  0.6392  1.8989  2.0034
  877MOL0     H18389   8.869   9.225  10.764  1.1350 -2.9146 -1.4392
  877MOL0     H18390   9.018   9.218  10.665  0.6245  0.9735 -2.2791
  877MOL0     H18391   9.145   9.453  10.975 -0.6883 -0.1745 -0.3001
  877MOL0     H18392   8.766   9.339  10.279  1.3877  0.0288 -1.0911
  877MOL0     H18393   8.900   9.298  10.103 -1.5726  0.5346  1.4149
  877MOL0     H18394   8.905   9.132  10.028  3.3653  2.8933 -0.3301
  877MOL0     H18395   8.825   9.271   9.950 -1.1395  0.6789  0.4897
  878MOL0     O18396   4.693   3.571  10.638 -0.6812  0.8465 -0.6215
  878MOL0     C18397   4.662   3.661  10.560 -0.7671 -0.1315 -0.1671
  878MOL0     O18398   4.677   3.659  10.417  0.3644  0.5024 -0.0930
  878MOL0     C18399   4.707   3.540  10.350 -1.3958  0.1191  0.1835
  878MOL0     C18400   4.814   3.457  10.392  0.3469  0.0174  0.1959
  878MOL0     C18401   4.832   3.333  10.327 -0.2153 -0.3374  0.4037
  878MOL0     C18402   4.754   3.301  10.212 -0.8456  0.3085 -0.5373
  878MOL0     O18403   4.772   3.180  10.140 -0.2477 -0.4768 -0.5107
  878MOL0     C18404   4.840   3.081  10.209 -0.0430 -0.3247 -0.8055
  878MOL0     C18405   4.855   2.964  10.113  0.0759 -0.3789 -0.3771
  878MOL0     C18406   4.967   3.004  10.015  0.4230  0.4777 -0.0176
  878MOL0     C18407   4.975   2.896   9.905 -0.3870  0.2433  0.7341
  878MOL0     C18408   5.099   2.923   9.825 -0.9022 -0.7322  0.8773
  878MOL0     C18409   5.102   2.848   9.688 -0.4738 -0.4619 -0.8011
  878MOL0     C18410   5.203   2.896   9.585  0.7113 -0.1256 -0.4969
  878MOL0     C18411   5.347   2.919   9.637  0.0793  0.2520  0.0753
  878MOL0     N18412   5.445   2.959   9.531 -0.4135 -0.4119  0.6640
  878MOL0     C18413   5.410   3.018   9.416  0.0057  0.0501  0.0428
  878MOL0     C18414   5.507   2.999   9.323 -0.3860 -0.4796 -0.3714
  878MOL0     C18415   5.512   3.050   9.176 -0.1059 -0.7887 -0.0067
  878MOL0     C18416   5.654   3.055   9.118  0.0957 -0.4459 -0.2544
  878MOL0     C18417   5.712   3.195   9.143 -1.2711  0.9822  0.0866
  878MOL0     C18418   5.853   3.215   9.100 -0.7168 -0.4325  0.3437
  878MOL0     O18419   5.911   3.342   9.138  0.3721  0.1990  0.3408
  878MOL0     C18420   6.047   3.355   9.128  1.2042 -0.2767  0.0484
  878MOL0     C18421   6.120   3.286   9.035  0.4792  1.1216  0.1364
  878MOL0     C18422   6.262   3.299   9.037 -0.1698 -0.0469  0.3671
  878MOL0     C18423   6.323   3.394   9.110 -0.5397  0.5493  0.0450
  878MOL0     C18424   6.469   3.412   9.107  0.8255  0.1565  0.2678
  878MOL0     O18425   6.512   3.499   9.196  0.7918  0.0501 -0.2020
  878MOL0     C18426   6.638   3.553   9.180  0.7582 -0.0921 -1.0779
  878MOL0     C18427   6.696   3.608   9.295  0.5507  0.2288 -0.2473
  878MOL0     C18428   6.819   3.676   9.293  0.4760  0.0127 -0.9752
  878MOL0     C18429   6.895   3.682   9.180  0.5050 -0.0010 -0.2460
  878MOL0     O18430   7.023   3.740   9.190 -0.0536 -0.1446  0.0916
  878MOL0     C18431   7.132   3.666   9.131 -0.3070 -0.2812 -0.8702
  878MOL0     C18432   7.271   3.710   9.176 -0.0321 -0.7972 -0.1595
  878MOL0     C18433   7.275   3.860   9.160 -0.2189 -0.9680  0.0874
  878MOL0     C18434   7.411   3.923   9.200  0.0244 -0.8059 -0.1815
  878MOL0     C18435   7.402   4.090   9.182  0.0681  0.8679  0.8493
  878MOL0     C18436   7.539   4.156   9.186 -0.4422 -0.1072  0.4329
  878MOL0     C18437   7.528   4.311   9.194  0.1283  0.7577  0.0231
  878MOL0     C18438   7.664   4.367   9.147  0.1670 -0.0523  0.0915
  878MOL0    Cl18439   7.780   4.362   9.284 -0.4915 -0.4017 -0.5050
  878MOL0     C18440   6.841   3.623   9.068 -0.3551  0.0713 -1.3214
  878MOL0     C18441   6.712   3.573   9.060 -1.4631  0.8370 -0.8120
  878MOL0     O18442   6.539   3.350   9.027 -0.4699 -0.2709 -0.4571
  878MOL0     C18443   6.247   3.466   9.208 -0.3063  1.2590  0.4985
  878MOL0     C18444   6.113   3.447   9.212 -0.5020 -0.4282  0.6285
  878MOL0     N18445   5.602   2.919   9.390  0.3694  0.0632  0.2546
  878MOL0     N18446   5.559   2.894   9.506 -0.3938 -0.6335 -0.3527
  878MOL0     C18447   4.662   3.385  10.167  0.9035 -0.5181 -0.0730
  878MOL0     C18448   4.636   3.501  10.235  0.1096  0.0872 -0.1415
  878MOL0     C18449   4.575   3.767  10.614  0.4639 -0.3613  0.0496
  878MOL0     C18450   4.466   3.812  10.536 -0.7777  0.4800  0.0054
  878MOL0     C18451   4.364   3.885  10.592 -0.5531  0.5993  0.3002
  878MOL0     C18452   4.369   3.922  10.722  0.6602  0.2870 -1.1378
  878MOL0     O18453   4.265   3.991  10.779  0.1191  0.1528 -0.7394
  878MOL0     C18454   4.214   3.939  10.901  0.5710  1.0983  0.0599
  878MOL0     C18455   4.071   3.975  10.919 -0.0665  0.3952 -0.1202
  878MOL0     C18456   4.007   3.861  11.009  1.0223 -0.0588  0.7212
  878MOL0     C18457   3.865   3.904  11.056 -0.4050 -0.8451 -1.3889
  878MOL0     C18458   3.878   4.006  11.161  0.2533  0.2117  0.6447
  878MOL0     C18459   3.914   4.103  11.223 -0.4105  0.5252 -0.7503
  878MOL0     C18460   4.483   3.896  10.800 -0.1917 -1.2662 -0.8270
  878MOL0     C18461   4.586   3.811  10.746 -0.6537  0.2062 -0.3807
  878MOL0     C18462   4.712   3.778  10.821  0.6086  0.1881  0.0607
  878MOL0     H18463   4.873   3.493  10.476  0.2478  0.6735 -0.0101
  878MOL0     H18464   4.901   3.272  10.384  0.2028 -0.2896 -0.0488
  878MOL0     H18465   4.938   3.109  10.247 -2.5331  6.0602  2.3427
  878MOL0     H18466   4.780   3.039  10.290  2.2261 -2.9969 -0.3464
  878MOL0     H18467   4.759   2.934  10.070  0.9875 -4.7730  0.2330
  878MOL0     H18468   4.896   2.878  10.167  3.0604  0.6429 -0.8205
  878MOL0     H18469   5.063   3.002  10.067  0.4959  2.4387  0.0070
  878MOL0     H18470   4.956   3.105   9.972  1.4150  0.8271  0.5154
  878MOL0     H18471   4.977   2.798   9.954  1.2994  0.3362  0.8859
  878MOL0     H18472   4.895   2.903   9.831 -1.5305 -0.5493  1.8465
  878MOL0     H18473   5.096   3.031   9.810 -3.0759 -0.2921  3.7699
  878MOL0     H18474   5.190   2.902   9.882 -0.1941  0.4732  0.2386
  878MOL0     H18475   5.118   2.742   9.712  0.4922  0.1049  1.2965
  878MOL0     H18476   5.003   2.845   9.642  0.0926 -2.3750 -2.0163
  878MOL0     H18477   5.161   2.988   9.545  0.9219 -1.4665 -4.1742
  878MOL0     H18478   5.210   2.826   9.501 -1.7737  2.1727 -2.8522
  878MOL0     H18479   5.355   2.991   9.718 -1.1481 -0.5236  0.9169
  878MOL0     H18480   5.364   2.821   9.681 -0.8008 -0.2210 -0.6125
  878MOL0     H18481   5.321   3.078   9.401  0.6472  0.9958 -0.0505
  878MOL0     H18482   5.456   2.985   9.108 -1.4913 -0.4550  0.7804
  878MOL0     H18483   5.468   3.147   9.152  1.4424 -1.0640 -4.9401
  878MOL0     H18484   5.723   2.984   9.164  0.0416  0.4689  1.3160
  878MOL0     H18485   5.655   3.037   9.010 -0.6779  2.5096 -0.8581
  878MOL0     H18486   5.719   3.225   9.248 -2.1561  1.8670 -0.0876
  878MOL0     H18487   5.656   3.265   9.079 -1.4608 -0.9052 -1.9333
  878MOL0     H18488   5.843   3.215   8.991 -4.5277  0.7284  0.5607
  878MOL0     H18489   5.905   3.129   9.143 -1.1209 -1.4006 -1.0198
  878MOL0     H18490   6.090   3.204   8.971  0.7533 -0.8587  2.4206
  878MOL0     H18491   6.321   3.231   8.976  1.0533  1.2972 -0.0050
  878MOL0     H18492   6.648   3.606   9.392  2.0745 -0.5416  0.5327
  878MOL0     H18493   6.855   3.727   9.381  2.4856 -4.2284  0.9448
  878MOL0     H18494   7.111   3.559   9.138 -3.0421  0.2814  2.0179
  878MOL0     H18495   7.124   3.684   9.023  0.6567  1.1584 -0.7276
  878MOL0     H18496   7.299   3.682   9.278 -0.3460  0.5076  0.3063
  878MOL0     H18497   7.349   3.656   9.122  2.4988 -0.8944  3.2461
  878MOL0     H18498   7.239   3.882   9.060 -1.2022 -0.7545  0.4753
  878MOL0     H18499   7.212   3.904   9.238 -0.4040 -1.1184  0.0228
  878MOL0     H18500   7.490   3.888   9.135 -0.7337  0.3956 -1.8230
  878MOL0     H18501   7.444   3.890   9.299  1.5738  2.1833  0.4283
  878MOL0     H18502   7.341   4.133   9.263 -0.2548 -0.3248  1.2651
  878MOL0     H18503   7.358   4.094   9.082  0.1917 -3.4586  0.4416
  878MOL0     H18504   7.595   4.128   9.275  0.2691  1.5233  0.5300
  878MOL0     H18505   7.605   4.128   9.104  1.0297  0.1462  1.4905
  878MOL0     H18506   7.491   4.335   9.294 -1.4208  1.1851 -0.6151
  878MOL0     H18507   7.461   4.353   9.118  1.5556  0.2120 -1.6062
  878MOL0     H18508   7.694   4.311   9.058  0.8299  1.9242 -1.0171
  878MOL0     H18509   7.659   4.470   9.110  5.0440  0.0295 -1.0438
  878MOL0     H18510   6.904   3.614   8.979 -0.3485 -2.2562 -1.1342
  878MOL0     H18511   6.675   3.537   8.965 -6.7670 -0.6821  1.4549
  878MOL0     H18512   6.291   3.534   9.280  4.7052 -1.2916  0.2907
  878MOL0     H18513   6.051   3.496   9.287  0.7104  1.7065  0.3206
  878MOL0     H18514   4.613   3.371  10.071  0.4314  1.1676 -0.1163
  878MOL0     H18515   4.571   3.581  10.198 -0.0480  0.2307  0.4391
  878MOL0     H18516   4.465   3.787  10.430  0.0016  3.6182 -0.8340
  878MOL0     H18517   4.281   3.910  10.526  0.3531 -1.2861 -1.6663
  878MOL0     H18518   4.282   3.970  10.981  0.0883  0.4474  0.7350
  878MOL0     H18519   4.223   3.830  10.895 -0.2206  0.9779  0.8309
  878MOL0     H18520   4.020   3.974  10.822 -2.0160 -3.9120  0.7247
  878MOL0     H18521   4.058   4.076  10.957 -0.8974  0.3335 -0.2186
  878MOL0     H18522   4.070   3.835  11.096  0.5339 -1.4730  0.6805
  878MOL0     H18523   4.011   3.762  10.963 -0.5797 -0.9583  2.4023
  878MOL0     H18524   3.795   3.937  10.978  0.0383 -1.7460 -2.1856
  878MOL0     H18525   3.839   3.810  11.106  1.7049 -2.1642 -2.6003
  878MOL0     H18526   3.935   4.185  11.289 -0.2078  0.4076 -0.6661
  878MOL0     H18527   4.491   3.926  10.904 -0.5427 -3.8759  0.0151
  878MOL0     H18528   4.795   3.727  10.771  0.0471 -1.0155  0.3148
  878MOL0     H18529   4.755   3.870  10.861 -1.9591  2.5640 -2.2099
  878MOL0     H18530   4.676   3.710  10.898 -0.5262 -0.6118 -1.1413
  879MOL0     O18531   1.901   4.089   1.160 -0.0857 -0.3291 -0.0275
  879MOL0     C18532   1.859   3.980   1.183  1.1433  0.6978 -0.2453
  879MOL0     O18533   1.891   3.900   1.293 -0.1479  0.3188 -0.3168
  879MOL0     C18534   1.978   3.947   1.386 -0.3067  0.7390 -0.6458
  879MOL0     C18535   2.115   3.960   1.355  0.1700 -0.3771  0.8262
  879MOL0     C18536   2.209   4.000   1.457 -0.1083  0.0149  1.0399
  879MOL0     C18537   2.167   3.986   1.597  0.1039 -0.2775  0.4374
  879MOL0     O18538   2.253   4.042   1.688  0.2248 -0.5169 -0.0945
  879MOL0     C18539   2.203   4.129   1.790  0.9149 -0.0321 -1.2901
  879MOL0     C18540   2.195   4.039   1.913  0.9029 -0.5741 -0.1077
  879MOL0     C18541   2.145   4.111   2.036 -0.0474 -0.1075 -0.3666
  879MOL0     C18542   2.128   4.022   2.168 -0.5372 -0.3850 -0.0983
  879MOL0     C18543   1.992   3.961   2.170  0.5597 -0.5151 -0.3704
  879MOL0     C18544   1.967   3.912   2.308 -0.1244  1.6242 -0.7118
  879MOL0     C18545   1.815   3.854   2.316 -0.7396  0.2282  0.4115
  879MOL0     C18546   1.780   3.782   2.455 -1.0723  0.4160  0.3487
  879MOL0     N18547   1.787   3.861   2.577 -0.0692 -0.4392 -0.0499
  879MOL0     C18548   1.676   3.933   2.622 -0.0068  0.3257  0.2716
  879MOL0     C18549   1.719   4.010   2.720 -0.4897  0.3029  0.7031
  879MOL0     C18550   1.629   4.107   2.795  0.4662  0.5851 -0.6176
  879MOL0     C18551   1.665   4.110   2.948  0.7194  0.0300 -0.3249
  879MOL0     C18552   1.547   4.185   3.025 -0.6044 -1.2118  0.2715
  879MOL0     C18553   1.546   4.144   3.176 -0.0229  0.0429  0.4565
  879MOL0     O18554   1.443   4.049   3.206  0.6553 -0.6784 -0.5518
  879MOL0     C18555   1.481   3.922   3.226 -1.0289  0.4496  0.4397
  879MOL0     C18556   1.503   3.866   3.357  0.6781 -0.1175  1.0332
  879MOL0     C18557   1.554   3.736   3.374  1.3609  0.1585 -0.6182
  879MOL0     C18558   1.570   3.654   3.267  0.7227 -0.2370  0.0701
  879MOL0     C18559   1.602   3.512   3.286 -0.4088  0.3161 -1.1703
  879MOL0     O18560   1.608   3.435   3.174 -0.8992 -0.5957  0.0514
  879MOL0     C18561   1.645   3.306   3.163 -0.1204  0.1557  0.1202
  879MOL0     C18562   1.686   3.211   3.261  0.0343  0.6741 -0.2894
  879MOL0     C18563   1.733   3.084   3.217 -0.1475 -0.5355 -0.6249
  879MOL0     C18564   1.729   3.056   3.082 -0.6912 -0.3970 -0.2942
  879MOL0     O18565   1.765   2.933   3.030  0.1646  0.0043  0.2013
  879MOL0     C18566   1.787   2.826   3.118 -0.2455  0.8060  0.5343
  879MOL0     C18567   1.836   2.710   3.030 -1.0685  0.5405  0.9455
  879MOL0     C18568   1.718   2.640   2.975  0.4841  0.4595 -0.4300
  879MOL0     C18569   1.764   2.530   2.875 -0.7307  0.7170 -0.4771
  879MOL0     C18570   1.647   2.461   2.792 -0.2763 -0.1956 -0.5569
  879MOL0     C18571   1.701   2.339   2.717 -0.7725 -0.6133 -0.4260
  879MOL0     C18572   1.751   2.380   2.578 -1.1806  0.0930  0.4723
  879MOL0     C18573   1.814   2.256   2.514 -0.5554  0.9942  0.7762
  879MOL0    Cl18574   1.713   2.114   2.514  0.1384 -0.3293  0.3034
  879MOL0     C18575   1.692   3.150   2.990 -0.5094  0.4953 -0.8099
  879MOL0     C18576   1.640   3.275   3.026 -0.8301  0.5650 -0.8435
  879MOL0     O18577   1.629   3.476   3.402 -0.4480  0.6137  0.6541
  879MOL0     C18578   1.532   3.701   3.143 -0.6055  0.7692  1.0230
  879MOL0     C18579   1.512   3.837   3.119  0.8229  0.6362  0.0781
  879MOL0     N18580   1.857   3.980   2.751  0.0641 -0.5373  0.6623
  879MOL0     N18581   1.890   3.895   2.658 -0.6917  0.2965  0.3349
  879MOL0     C18582   2.041   3.953   1.630 -1.1893  0.7742  0.8062
  879MOL0     C18583   1.944   3.943   1.526 -0.4248  0.5555  1.1964
  879MOL0     C18584   1.764   3.928   1.074 -0.4952 -0.3986  0.5609
  879MOL0     C18585   1.722   3.794   1.083  0.7207  0.1346 -0.2315
  879MOL0     C18586   1.635   3.734   0.992  0.1102 -0.7638 -0.3251
  879MOL0     C18587   1.605   3.809   0.878  0.5257  0.0961  0.9446
  879MOL0     O18588   1.526   3.730   0.791  0.1891 -0.6673  0.6415
  879MOL0     C18589   1.472   3.795   0.673  0.7287 -0.0825  0.2933
  879MOL0     C18590   1.376   3.696   0.598  1.3191 -0.0711 -0.1833
  879MOL0     C18591   1.257   3.627   0.677 -0.2100 -0.4398  0.4883
  879MOL0     C18592   1.169   3.533   0.593 -0.3210 -1.0927  0.5502
  879MOL0     C18593   1.126   3.597   0.461  0.4124 -0.3011 -0.4560
  879MOL0     C18594   1.109   3.649   0.348 -0.4082  0.4094  0.1480
  879MOL0     C18595   1.649   3.941   0.860  0.2656  0.2362 -0.6870
  879MOL0     C18596   1.724   4.009   0.962 -0.3098  0.2049 -0.9408
  879MOL0     C18597   1.760   4.148   0.927 -0.2834 -0.4889  0.8078
  879MOL0     H18598   2.150   3.941   1.254  0.8104 -0.7473  1.1048
  879MOL0     H18599   2.313   4.023   1.438 -0.3356  0.6418  0.5319
  879MOL0     H18600   2.270   4.213   1.810  2.9097 -1.4320 -1.7700
  879MOL0     H18601   2.100   4.161   1.774  0.5079 -0.8494 -0.4577
  879MOL0     H18602   2.292   3.997   1.939  3.0152  2.4418 -2.4125
  879MOL0     H18603   2.132   3.951   1.894  1.4763 -0.3359 -4.1589
  879MOL0     H18604   2.057   4.173   2.016 -0.3571 -0.1389  0.8194
  879MOL0     H18605   2.231   4.177   2.054  1.7415 -1.3241 -3.7077
  879MOL0     H18606   2.199   3.940   2.152  0.5696  0.5727 -0.1916
  879MOL0     H18607   2.160   4.078   2.256 -0.6884 -2.5513  1.4163
  879MOL0     H18608   1.922   4.041   2.145 -1.0780 -1.7588  0.0807
  879MOL0     H18609   1.992   3.880   2.096  3.2686 -1.1695  0.2198
  879MOL0     H18610   2.046   3.837   2.321  0.2155  1.8516 -1.4257
  879MOL0     H18611   1.976   3.986   2.388 -0.7661  1.7796 -0.7803
  879MOL0     H18612   1.802   3.770   2.247 -1.8986 -1.3793  2.4777
  879MOL0     H18613   1.743   3.935   2.305 -1.6375 -0.7291 -0.9359
  879MOL0     H18614   1.685   3.728   2.459  0.2593 -2.0803  1.1627
  879MOL0     H18615   1.854   3.703   2.471 -1.1669 -0.0059 -1.1351
  879MOL0     H18616   1.571   3.941   2.597 -0.0586  3.3555  1.0970
  879MOL0     H18617   1.659   4.200   2.745 -0.7839  0.5186 -1.5636
  879MOL0     H18618   1.523   4.102   2.770 -0.2773  0.6058  2.2656
  879MOL0     H18619   1.670   4.009   2.988  3.7488  0.6565  1.1695
  879MOL0     H18620   1.769   4.143   2.962  0.9439 -0.1540 -1.4452
  879MOL0     H18621   1.450   4.169   2.978 -0.6072 -3.4049  0.9228
  879MOL0     H18622   1.584   4.288   3.025 -2.2774 -0.5040 -2.6826
  879MOL0     H18623   1.517   4.235   3.228  1.1700  1.7737 -1.7221
  879MOL0     H18624   1.644   4.114   3.214  0.4474 -0.5841 -1.1360
  879MOL0     H18625   1.484   3.939   3.434  2.8672 -0.0251  1.5418
  879MOL0     H18626   1.574   3.703   3.475 -0.0416 -0.8674 -0.6485
  879MOL0     H18627   1.689   3.229   3.368 -3.0493  5.7055 -0.7550
  879MOL0     H18628   1.782   3.020   3.290 -1.5780  2.2647  3.0622
  879MOL0     H18629   1.864   2.842   3.194 -0.4183 -2.7494  1.6464
  879MOL0     H18630   1.693   2.803   3.170 -0.2490 -0.6118 -0.0515
  879MOL0     H18631   1.899   2.740   2.946 -0.8649  2.3769  1.7247
  879MOL0     H18632   1.902   2.644   3.086  0.9228  1.3775 -0.3282
  879MOL0     H18633   1.666   2.578   3.048 -0.5612  0.7674 -0.8955
  879MOL0     H18634   1.643   2.708   2.934 -0.2585 -1.2517 -2.0896
  879MOL0     H18635   1.797   2.456   2.949 -1.7624  1.4824  0.7942
  879MOL0     H18636   1.845   2.562   2.809  1.0833  1.2086  1.8456
  879MOL0     H18637   1.594   2.531   2.727  1.3107  4.8597  2.9651
  879MOL0     H18638   1.577   2.431   2.870 -0.3031 -2.3906 -1.3634
  879MOL0     H18639   1.784   2.290   2.769 -1.3336 -1.1822 -0.0458
  879MOL0     H18640   1.617   2.269   2.710 -0.7863 -0.6707  0.2370
  879MOL0     H18641   1.829   2.455   2.592 -0.7412  0.3869 -2.8755
  879MOL0     H18642   1.668   2.410   2.513 -0.3667  2.2830  0.3845
  879MOL0     H18643   1.848   2.285   2.414  1.6525 -0.1970  1.1113
  879MOL0     H18644   1.901   2.225   2.573 -0.6083  0.2039  0.4538
  879MOL0     H18645   1.696   3.116   2.887  2.1507 -1.2290 -0.2520
  879MOL0     H18646   1.617   3.351   2.952  4.3465  0.9078 -2.4916
  879MOL0     H18647   1.536   3.623   3.067 -0.4179 -0.7662  2.5367
  879MOL0     H18648   1.495   3.875   3.019  1.6781  0.5339 -0.1153
  879MOL0     H18649   1.995   3.935   1.727 -1.4458 -5.6950 -0.0935
  879MOL0     H18650   1.843   3.922   1.559 -0.1691 -0.7445  1.2132
  879MOL0     H18651   1.758   3.726   1.160  2.5163 -0.4838 -1.5584
  879MOL0     H18652   1.593   3.635   0.992  2.1742 -1.8547 -4.1717
  879MOL0     H18653   1.558   3.824   0.611  1.2283 -3.2289 -0.6465
  879MOL0     H18654   1.411   3.883   0.696  1.4942 -0.0606  2.4153
  879MOL0     H18655   1.444   3.614   0.573  0.0579 -0.9928 -0.6232
  879MOL0     H18656   1.335   3.740   0.507 -1.1882 -3.1070 -0.6551
  879MOL0     H18657   1.186   3.701   0.715 -2.3362 -0.8255 -2.3397
  879MOL0     H18658   1.297   3.567   0.759 -1.3910 -0.2183  1.2582
  879MOL0     H18659   1.224   3.438   0.587 -0.8967 -1.3460 -3.2242
  879MOL0     H18660   1.076   3.514   0.647 -2.4219  0.2434 -2.3605
  879MOL0     H18661   1.094   3.670   0.244 -2.3268  0.3162  0.3697
  879MOL0     H18662   1.624   3.980   0.762 -1.3067 -2.1593 -1.3465
  879MOL0     H18663   1.722   4.212   1.007 -0.3600  0.4095  0.0797
  879MOL0     H18664   1.866   4.175   0.931 -0.8710  1.9077  2.7032
  879MOL0     H18665   1.707   4.174   0.834  0.2760 -3.0082 -0.3043
  880MOL0     O18666   3.541   0.598   8.426 -0.2788  0.1542  0.2449
  880MOL0     C18667   3.513   0.587   8.540  0.0023  0.1706 -0.8817
  880MOL0     O18668   3.491   0.467   8.606  0.8000  0.0741  0.2001
  880MOL0     C18669   3.444   0.354   8.546  0.3332  0.2822  0.0503
  880MOL0     C18670   3.469   0.233   8.612 -0.0448 -0.0738  0.3605
  880MOL0     C18671   3.431   0.120   8.548  0.1175  0.3687  0.5349
  880MOL0     C18672   3.393   0.118   8.415  0.1957 -0.1066 -0.3625
  880MOL0     O18673   3.390   0.005   8.338  0.9041  0.3687 -0.8010
  880MOL0     C18674   3.257  -0.050   8.338  0.9198 -0.9954  0.1204
  880MOL0     C18675   3.258  -0.199   8.306  0.0589 -0.0984  0.1009
  880MOL0     C18676   3.326  -0.236   8.171  0.2129  0.4299  0.3841
  880MOL0     C18677   3.292  -0.386   8.144  0.8287 -0.2479 -0.0513
  880MOL0     C18678   3.411  -0.443   8.071 -0.6460  0.0703  0.0284
  880MOL0     C18679   3.376  -0.557   7.979  0.2385 -0.4331  0.7402
  880MOL0     C18680   3.500  -0.617   7.905  0.0263  0.2964 -1.6669
  880MOL0     C18681   3.607  -0.680   7.997 -0.9302  0.3762  0.4015
  880MOL0     N18682   3.558  -0.797   8.069  0.7744  0.0467 -0.1997
  880MOL0     C18683   3.524  -0.806   8.206 -0.9076 -0.0356  0.4242
  880MOL0     C18684   3.459  -0.925   8.222 -0.1061 -0.2794 -0.4559
  880MOL0     C18685   3.412  -0.977   8.355  0.8454 -0.3182 -0.4727
  880MOL0     C18686   3.266  -0.925   8.379  1.2118  0.2102 -0.6033
  880MOL0     C18687   3.202  -0.992   8.498  0.4810 -0.5071 -0.9586
  880MOL0     C18688   3.291  -1.014   8.619  0.7526 -0.3007 -0.8768
  880MOL0     O18689   3.223  -1.065   8.734 -0.4463  0.9670 -0.7891
  880MOL0     C18690   3.288  -1.080   8.853  0.1938  0.1743  0.2280
  880MOL0     C18691   3.421  -1.118   8.866  0.7066  0.2570 -0.3088
  880MOL0     C18692   3.472  -1.155   8.983  0.2430 -0.9198  0.1238
  880MOL0     C18693   3.398  -1.146   9.107 -0.6637  1.0384 -0.1100
  880MOL0     C18694   3.455  -1.185   9.237  0.8029 -0.8302  0.1311
  880MOL0     O18695   3.374  -1.216   9.346  0.0902  0.6677 -0.2044
  880MOL0     C18696   3.412  -1.210   9.484 -0.0426  0.5083  0.7310
  880MOL0     C18697   3.497  -1.098   9.528  0.5670  0.3128  0.3724
  880MOL0     C18698   3.532  -1.079   9.667 -0.6612  0.1892  0.7394
  880MOL0     C18699   3.499  -1.170   9.766 -0.0140 -0.2222 -1.0467
  880MOL0     O18700   3.524  -1.155   9.903  0.1357  0.1362  0.6466
  880MOL0     C18701   3.417  -1.182   9.992 -0.1012  0.1430 -0.6633
  880MOL0     C18702   3.448  -1.144  10.126 -0.7346  0.4983 -0.3047
  880MOL0     C18703   3.341  -1.202  10.223  0.1555 -0.2125 -0.4700
  880MOL0     C18704   3.327  -1.131  10.357 -0.3205  0.9541 -0.1918
  880MOL0     C18705   3.211  -1.208  10.435 -0.4767  0.3210  0.6267
  880MOL0     C18706   3.171  -1.135  10.567  0.8657  0.6151  0.6849
  880MOL0     C18707   3.115  -1.243  10.669  0.0774 -0.2388 -0.1829
  880MOL0     C18708   3.084  -1.182  10.807 -0.2866  0.0853 -0.0475
  880MOL0    Cl18709   2.980  -1.051  10.775  0.2489 -0.0896  0.1206
  880MOL0     C18710   3.424  -1.281   9.720  0.4759 -0.7799  0.4306
  880MOL0     C18711   3.377  -1.302   9.586 -0.6086 -0.1033  0.0322
  880MOL0     O18712   3.575  -1.171   9.237 -0.8044  0.4776  0.2480
  880MOL0     C18713   3.263  -1.107   9.100  0.7679  0.2092 -0.1103
  880MOL0     C18714   3.215  -1.073   8.976 -0.2535  1.1485  0.0751
  880MOL0     N18715   3.457  -0.986   8.098  0.2187  1.1022  0.1018
  880MOL0     N18716   3.514  -0.917   8.008 -0.2139 -0.4928  0.3437
  880MOL0     C18717   3.361   0.237   8.353  0.8411 -0.5565 -0.1034
  880MOL0     C18718   3.368   0.354   8.425  0.6050  0.4182 -0.2777
  880MOL0     C18719   3.539   0.710   8.626  0.7396 -0.1164 -0.3509
  880MOL0     C18720   3.645   0.701   8.720  0.1683 -0.3550 -0.1415
  880MOL0     C18721   3.659   0.807   8.806 -0.1686 -0.5771  0.2980
  880MOL0     C18722   3.574   0.920   8.796 -0.0850 -0.3650 -0.4747
  880MOL0     O18723   3.579   1.030   8.881 -0.3449  0.1943 -0.1599
  880MOL0     C18724   3.678   1.037   8.981  0.6460 -0.5755 -0.5084
  880MOL0     C18725   3.631   1.160   9.056  0.2001  0.6952 -0.2262
  880MOL0     C18726   3.716   1.192   9.170 -0.4155  0.2794  0.9612
  880MOL0     C18727   3.861   1.216   9.144 -0.9658  0.2684  0.2786
  880MOL0     C18728   3.891   1.312   9.032 -1.0703  1.0220 -0.5859
  880MOL0     C18729   3.922   1.388   8.945  0.4228  0.1633  0.6702
  880MOL0     C18730   3.475   0.936   8.694 -0.5234  0.4196  0.8721
  880MOL0     C18731   3.451   0.824   8.611 -0.1573 -0.4998 -0.1997
  880MOL0     C18732   3.329   0.816   8.524  0.0846  0.4834 -0.6180
  880MOL0     H18733   3.524   0.232   8.706  0.1887 -0.8577  0.2225
  880MOL0     H18734   3.460   0.030   8.601 -0.0391  1.7391  3.1461
  880MOL0     H18735   3.196  -0.024   8.425 -1.0580 -0.0849 -1.4541
  880MOL0     H18736   3.216  -0.013   8.244  3.1874  1.0356 -0.1704
  880MOL0     H18737   3.156  -0.239   8.306  0.3613 -0.9443 -1.2205
  880MOL0     H18738   3.321  -0.249   8.380 -1.5618 -3.7138 -0.7196
  880MOL0     H18739   3.434  -0.226   8.182  0.8238 -0.7788 -3.0689
  880MOL0     H18740   3.295  -0.172   8.088  2.7871 -0.0173 -1.0270
  880MOL0     H18741   3.281  -0.444   8.236 -0.4536  1.4255  0.9027
  880MOL0     H18742   3.201  -0.397   8.085  0.6196 -0.0521  0.2334
  880MOL0     H18743   3.462  -0.367   8.011  0.6176  0.0606  1.0446
  880MOL0     H18744   3.476  -0.475   8.153 -3.2058  0.3060  2.2893
  880MOL0     H18745   3.333  -0.632   8.045  1.6941 -2.3762 -0.4118
  880MOL0     H18746   3.304  -0.512   7.910  0.2683 -0.7709  0.4849
  880MOL0     H18747   3.544  -0.526   7.865  1.8157  2.4580  4.1477
  880MOL0     H18748   3.478  -0.689   7.825 -1.8495  0.4254 -1.3228
  880MOL0     H18749   3.694  -0.712   7.939  0.1597  2.1857  0.9534
  880MOL0     H18750   3.643  -0.605   8.068  0.5537  0.4029 -0.3525
  880MOL0     H18751   3.534  -0.737   8.289  2.6102 -2.1365  1.9793
  880MOL0     H18752   3.406  -1.087   8.351  3.8132 -0.5882  0.0774
  880MOL0     H18753   3.484  -0.950   8.432 -0.2104  2.2106 -0.2863
  880MOL0     H18754   3.259  -0.818   8.396  0.5947  0.2698 -1.1901
  880MOL0     H18755   3.211  -0.943   8.286  4.7467 -0.7547 -2.7159
  880MOL0     H18756   3.158  -1.091   8.479  0.3021 -1.0393  1.7430
  880MOL0     H18757   3.123  -0.926   8.534  0.9011 -1.5739  2.2260
  880MOL0     H18758   3.327  -0.913   8.640  0.1507 -0.6222  2.2827
  880MOL0     H18759   3.383  -1.071   8.609  0.7325 -2.1539  5.1266
  880MOL0     H18760   3.479  -1.143   8.778 -1.6240 -1.9060 -1.3658
  880MOL0     H18761   3.573  -1.195   8.988  0.0373 -1.7038 -1.3797
  880MOL0     H18762   3.521  -1.021   9.455 -2.9352  2.1952  0.9270
  880MOL0     H18763   3.593  -0.992   9.685  2.9730 -2.2412  1.2722
  880MOL0     H18764   3.343  -1.106   9.965  0.1550  0.8041  0.4033
  880MOL0     H18765   3.370  -1.280   9.983 -3.6826  1.6646 -0.2324
  880MOL0     H18766   3.547  -1.174  10.164 -1.2170 -0.7585  0.0092
  880MOL0     H18767   3.446  -1.036  10.138  1.3218  0.7446 -1.7163
  880MOL0     H18768   3.244  -1.208  10.174  0.4351 -0.6969 -0.9772
  880MOL0     H18769   3.370  -1.306  10.239  0.1166  0.1155  2.2357
  880MOL0     H18770   3.299  -1.025  10.350 -1.6237  0.5175 -2.5446
  880MOL0     H18771   3.417  -1.152  10.417 -0.4902 -3.0553 -1.0900
  880MOL0     H18772   3.253  -1.308  10.454 -0.6007 -0.7324 -3.6752
  880MOL0     H18773   3.122  -1.230  10.375  0.1716 -0.9716  0.0925
  880MOL0     H18774   3.253  -1.070  10.600  2.4176  0.2018 -2.0245
  880MOL0     H18775   3.093  -1.063  10.543  0.9329  0.0962 -1.2382
  880MOL0     H18776   3.198  -1.313  10.683  1.1006  0.8015 -0.9848
  880MOL0     H18777   3.022  -1.291  10.635 -1.0966  0.9062  1.2570
  880MOL0     H18778   3.023  -1.258  10.858  0.1012 -2.0523 -2.5935
  880MOL0     H18779   3.174  -1.153  10.861 -1.1355 -0.5093  1.8071
  880MOL0     H18780   3.390  -1.356   9.790  0.7280 -1.9961 -0.7104
  880MOL0     H18781   3.308  -1.384   9.571 -0.9929 -0.0452  1.3546
  880MOL0     H18782   3.198  -1.106   9.187 -0.6443  3.4509 -1.0657
  880MOL0     H18783   3.111  -1.042   8.972  0.4942  3.7676 -3.0508
  880MOL0     H18784   3.319   0.244   8.253 -0.4145 -2.0318  0.2766
  880MOL0     H18785   3.334   0.453   8.395 -0.1529  0.5238  0.8842
  880MOL0     H18786   3.702   0.608   8.722  0.8420 -0.0337 -2.0192
  880MOL0     H18787   3.726   0.801   8.891  0.5264 -0.8005 -0.2539
  880MOL0     H18788   3.774   1.034   8.929 -0.1405 -3.1493 -1.9710
  880MOL0     H18789   3.671   0.955   9.053  1.8374 -0.0428  0.2467
  880MOL0     H18790   3.529   1.144   9.092 -0.8735 -0.5426 -3.4620
  880MOL0     H18791   3.629   1.243   8.985 -1.2570  2.0055  1.2735
  880MOL0     H18792   3.710   1.122   9.254 -3.8676 -0.9742 -0.1521
  880MOL0     H18793   3.669   1.287   9.199 -2.5871 -0.4907  0.2148
  880MOL0     H18794   3.900   1.258   9.237  1.0374 -1.1244  0.1196
  880MOL0     H18795   3.913   1.123   9.121 -2.2650 -0.0528 -1.5933
  880MOL0     H18796   3.959   1.447   8.863  0.4848  1.9860  1.9361
  880MOL0     H18797   3.414   1.026   8.699  0.7757  1.2461  2.6276
  880MOL0     H18798   3.278   0.912   8.537  0.6914  0.6869  0.3739
  880MOL0     H18799   3.362   0.795   8.422  1.6511 -0.9177  0.1386
  880MOL0     H18800   3.268   0.734   8.562  2.4117 -1.6370 -1.2255
  881MOL0     O18801   8.198   6.049   4.100 -0.3937  0.6590 -0.2220
  881MOL0     C18802   8.298   6.098   4.163 -0.2688  0.0836  1.2362
  881MOL0     O18803   8.344   6.228   4.161  0.1038 -0.4571 -0.1483
  881MOL0     C18804   8.283   6.294   4.067  0.0827 -0.8350 -0.4086
  881MOL0     C18805   8.173   6.372   4.090 -0.1967  0.3941  0.5059
  881MOL0     C18806   8.122   6.453   3.991  0.2054  0.4593  0.5840
  881MOL0     C18807   8.172   6.448   3.858 -0.8210 -0.1037 -0.3747
  881MOL0     O18808   8.119   6.502   3.743  0.4606  0.2715 -0.1989
  881MOL0     C18809   8.030   6.615   3.768  0.4460  0.5380  0.0625
  881MOL0     C18810   7.982   6.680   3.635 -0.0318 -0.6148  0.0040
  881MOL0     C18811   8.089   6.764   3.569 -0.6686 -1.2015  0.1735
  881MOL0     C18812   8.049   6.791   3.420 -0.3258  0.6472  0.0675
  881MOL0     C18813   8.148   6.858   3.332  0.2774 -0.0435  0.1261
  881MOL0     C18814   8.076   6.929   3.219 -0.1640  0.1410 -0.2767
  881MOL0     C18815   8.181   6.994   3.123 -0.1003 -0.2892 -0.0586
  881MOL0     C18816   8.100   7.068   3.008 -0.4757  0.5736  0.2487
  881MOL0     N18817   8.028   7.192   3.033 -0.1326 -0.3149 -0.6556
  881MOL0     C18818   8.081   7.315   3.075  0.7014  0.5801  0.0735
  881MOL0     C18819   7.978   7.378   3.141 -0.4478  0.3397  0.1162
  881MOL0     C18820   7.981   7.507   3.224  0.0431  0.1257  0.0459
  881MOL0     C18821   7.982   7.465   3.372 -0.7136 -0.7248  0.8772
  881MOL0     C18822   8.034   7.579   3.465 -0.1037  0.5537 -0.1881
  881MOL0     C18823   8.020   7.562   3.613 -0.0250  0.2987 -0.0221
  881MOL0     O18824   7.881   7.542   3.653 -0.0923 -0.0143  0.0163
  881MOL0     C18825   7.795   7.654   3.666 -0.5015 -0.8729 -0.1928
  881MOL0     C18826   7.833   7.773   3.727  0.0803 -0.3969 -0.0417
  881MOL0     C18827   7.755   7.889   3.711  0.5901  0.6364 -0.3869
  881MOL0     C18828   7.624   7.875   3.650  0.8337 -0.5201  0.5944
  881MOL0     C18829   7.532   7.997   3.642 -0.5763  0.3482 -0.8586
  881MOL0     O18830   7.408   7.979   3.592 -0.3335 -0.3039 -0.1444
  881MOL0     C18831   7.312   8.079   3.607 -0.3572  0.3283  0.6529
  881MOL0     C18832   7.176   8.038   3.630  1.2671 -0.2245  0.3780
  881MOL0     C18833   7.072   8.132   3.652  0.1645  0.0762 -0.0315
  881MOL0     C18834   7.094   8.270   3.651  0.0966 -0.3080 -0.3911
  881MOL0     O18835   7.015   8.382   3.654 -0.8613  0.2198 -0.7471
  881MOL0     C18836   6.887   8.365   3.705 -0.2055 -0.2015  0.2927
  881MOL0     C18837   6.878   8.398   3.849  0.0258 -1.1154 -0.5530
  881MOL0     C18838   6.770   8.488   3.898 -0.0212  0.5338  0.9497
  881MOL0     C18839   6.666   8.401   3.976 -0.2882 -0.0957  0.6697
  881MOL0     C18840   6.547   8.478   4.039 -0.3739 -0.2698  0.8751
  881MOL0     C18841   6.444   8.388   4.104  0.0670  0.9044  0.1366
  881MOL0     C18842   6.358   8.465   4.207 -0.0222 -0.8302  0.6905
  881MOL0     C18843   6.239   8.382   4.256 -0.2786 -0.7601  0.3194
  881MOL0    Cl18844   6.283   8.248   4.361  0.3262  0.1902 -0.3905
  881MOL0     C18845   7.218   8.307   3.645 -0.2611 -0.2642 -0.0223
  881MOL0     C18846   7.328   8.217   3.611 -0.1380  0.0937  0.1608
  881MOL0     O18847   7.580   8.104   3.678  0.1861 -0.4270  0.2947
  881MOL0     C18848   7.589   7.751   3.595  0.2020 -0.5321  0.3919
  881MOL0     C18849   7.677   7.646   3.599  0.0831  0.0173  0.6734
  881MOL0     N18850   7.861   7.302   3.127 -0.7764  0.1100 -0.1783
  881MOL0     N18851   7.897   7.198   3.056 -0.0419  0.6286  0.3690
  881MOL0     C18852   8.287   6.371   3.839 -0.6016 -0.1305 -0.3696
  881MOL0     C18853   8.343   6.299   3.946  0.4762 -0.7762 -0.4663
  881MOL0     C18854   8.374   6.007   4.262 -0.4371  0.4140  0.3415
  881MOL0     C18855   8.385   6.057   4.387  0.7298  0.1656  0.5434
  881MOL0     C18856   8.437   5.977   4.493 -0.4554 -0.1725  0.5924
  881MOL0     C18857   8.486   5.849   4.464  0.0740  0.7466  0.2201
  881MOL0     O18858   8.567   5.779   4.541 -0.3690  0.5162  0.5963
  881MOL0     C18859   8.521   5.756   4.675  0.5393 -0.2859  0.3720
  881MOL0     C18860   8.630   5.763   4.772  0.1583 -0.0584 -0.2071
  881MOL0     C18861   8.708   5.626   4.781  0.9224  0.7280  0.1853
  881MOL0     C18862   8.841   5.624   4.850  0.6055 -0.4950 -0.5757
  881MOL0     C18863   8.820   5.650   5.001  0.6503 -0.1350 -0.1963
  881MOL0     C18864   8.776   5.648   5.118  0.0837  0.3756  0.2329
  881MOL0     C18865   8.489   5.813   4.331  0.1010 -0.4604  0.6550
  881MOL0     C18866   8.431   5.888   4.228 -0.3142 -0.1476  1.0074
  881MOL0     C18867   8.441   5.833   4.090 -0.5721  0.1553 -0.5504
  881MOL0     H18868   8.127   6.365   4.188  0.2047 -1.3595  0.6119
  881MOL0     H18869   8.038   6.522   3.997  0.6066  1.1578 -1.2016
  881MOL0     H18870   7.942   6.570   3.816 -0.8669  0.1224 -2.5137
  881MOL0     H18871   8.076   6.697   3.823 -0.8129  2.8071 -2.0483
  881MOL0     H18872   7.891   6.738   3.651  0.1019 -0.3901 -0.0433
  881MOL0     H18873   7.950   6.605   3.562  1.0655 -0.4221 -0.6953
  881MOL0     H18874   8.188   6.717   3.568  2.3809  4.3059 -0.5651
  881MOL0     H18875   8.097   6.860   3.621 -3.6471 -2.0869  2.5467
  881MOL0     H18876   8.026   6.704   3.358  2.0102 -0.4644  0.6820
  881MOL0     H18877   7.954   6.844   3.432 -0.3781 -0.0726  4.2788
  881MOL0     H18878   8.203   6.932   3.390  0.1017  1.5127 -1.6251
  881MOL0     H18879   8.214   6.782   3.290 -1.4156 -0.0196 -2.8151
  881MOL0     H18880   8.014   6.859   3.162  0.2804  0.5315 -1.2571
  881MOL0     H18881   8.008   7.005   3.259  1.6797  0.9293  1.5243
  881MOL0     H18882   8.224   6.910   3.069  0.7193 -0.0126  0.1586
  881MOL0     H18883   8.265   7.051   3.163  0.4285  0.5696 -2.2317
  881MOL0     H18884   8.167   7.087   2.924 -2.3621  0.9849 -1.2450
  881MOL0     H18885   8.034   6.992   2.966  0.7932  1.7366 -4.3921
  881MOL0     H18886   8.178   7.356   3.047  0.0536  1.3405 -1.1354
  881MOL0     H18887   8.074   7.561   3.203  2.1574 -1.4560  4.2448
  881MOL0     H18888   7.892   7.570   3.207  0.2853  0.8618  1.3701
  881MOL0     H18889   7.877   7.446   3.398 -2.1724  1.8347 -2.4430
  881MOL0     H18890   8.053   7.381   3.381 -0.0999 -0.8265 -3.0621
  881MOL0     H18891   7.994   7.677   3.440 -5.5703 -1.2122  0.1845
  881MOL0     H18892   8.140   7.574   3.440  0.2891  0.0879  1.4675
  881MOL0     H18893   8.062   7.654   3.656 -0.7402 -0.1448  1.7357
  881MOL0     H18894   8.081   7.478   3.647  0.8201  0.3746 -1.2717
  881MOL0     H18895   7.933   7.785   3.765 -0.1605  0.6152  0.3101
  881MOL0     H18896   7.796   7.981   3.753 -0.4850  0.5961  0.7836
  881MOL0     H18897   7.160   7.935   3.658 -0.1490 -0.4601 -1.1318
  881MOL0     H18898   6.980   8.087   3.687 -2.0608  2.4629 -2.2826
  881MOL0     H18899   6.832   8.438   3.644 -0.1485 -2.1850 -2.3149
  881MOL0     H18900   6.854   8.263   3.682  2.4027 -1.1290  0.3126
  881MOL0     H18901   6.880   8.312   3.917 -1.7099  0.4347  1.6161
  881MOL0     H18902   6.969   8.455   3.871 -0.1093 -0.0085 -2.6633
  881MOL0     H18903   6.810   8.565   3.963 -2.3728  0.6466  2.3837
  881MOL0     H18904   6.715   8.533   3.814 -1.5673  1.8531  2.5824
  881MOL0     H18905   6.715   8.347   4.058  1.0962 -3.2441 -1.9923
  881MOL0     H18906   6.621   8.323   3.914 -2.7362  2.1213 -0.5478
  881MOL0     H18907   6.504   8.543   3.962 -0.0821  0.1025  1.0231
  881MOL0     H18908   6.599   8.549   4.105  0.5530 -1.2027  1.1775
  881MOL0     H18909   6.382   8.329   4.035 -1.1164 -1.4901  3.0439
  881MOL0     H18910   6.499   8.313   4.162 -1.2476  1.1461  1.7520
  881MOL0     H18911   6.333   8.562   4.161  1.5504 -1.2062 -1.0919
  881MOL0     H18912   6.417   8.487   4.296 -0.6602  0.2555  0.8647
  881MOL0     H18913   6.168   8.447   4.309  2.7567  1.0348  2.5321
  881MOL0     H18914   6.180   8.340   4.174 -0.4546 -1.1232  0.6279
  881MOL0     H18915   7.256   8.408   3.659  2.2527 -0.3163 -4.5452
  881MOL0     H18916   7.428   8.259   3.612  0.2391 -0.7705  0.8070
  881MOL0     H18917   7.495   7.750   3.542 -1.2986 -0.5723  2.8934
  881MOL0     H18918   7.646   7.551   3.555  0.7951  0.7685 -1.5963
  881MOL0     H18919   8.332   6.375   3.740 -1.7956 -0.7537 -0.9712
  881MOL0     H18920   8.424   6.234   3.914  1.5802  0.7268 -0.8005
  881MOL0     H18921   8.350   6.157   4.407 -0.3145  0.1023 -0.8139
  881MOL0     H18922   8.438   6.019   4.593 -1.2627  0.5398  0.3170
  881MOL0     H18923   8.465   5.663   4.685 -2.4831  1.2620 -1.0156
  881MOL0     H18924   8.454   5.840   4.696 -1.0701 -0.7888 -2.2909
  881MOL0     H18925   8.592   5.797   4.868 -0.1794  0.9728 -0.6967
  881MOL0     H18926   8.699   5.838   4.732 -2.8632  1.9861 -1.9451
  881MOL0     H18927   8.719   5.592   4.678 -1.4362  0.2601  0.0401
  881MOL0     H18928   8.644   5.555   4.835  0.9781  1.8000  1.7243
  881MOL0     H18929   8.882   5.527   4.820 -0.7727 -1.1397 -0.4244
  881MOL0     H18930   8.900   5.711   4.817 -2.4230  1.4462 -1.2709
  881MOL0     H18931   8.726   5.648   5.213 -2.5138  0.8589 -1.0236
  881MOL0     H18932   8.545   5.724   4.305 -1.7494 -1.4075 -0.3195
  881MOL0     H18933   8.350   5.784   4.052  1.1989 -3.3842 -0.6545
  881MOL0     H18934   8.478   5.916   4.030  0.5516  0.6395  0.7631
  881MOL0     H18935   8.519   5.756   4.082  0.6168  1.5423 -3.7646
  882MOL0     O18936   7.231   0.269   3.374 -0.3592  0.4182 -0.3868
  882MOL0     C18937   7.173   0.249   3.270 -0.1263 -0.4994  0.0526
  882MOL0     O18938   7.222   0.287   3.151  0.1014  0.2523 -0.9060
  882MOL0     C18939   7.329   0.376   3.145  0.9381  0.7606 -0.4944
  882MOL0     C18940   7.293   0.504   3.102  0.2371  0.3828  0.1757
  882MOL0     C18941   7.388   0.598   3.081 -0.1657  0.1197 -0.4459
  882MOL0     C18942   7.518   0.568   3.104 -0.9695 -0.0335 -0.0032
  882MOL0     O18943   7.599   0.675   3.066  0.4456  0.1952  0.0096
  882MOL0     C18944   7.735   0.676   3.097 -0.1077  0.4190  0.2298
  882MOL0     C18945   7.776   0.680   3.250 -0.2155  0.1633 -0.6966
  882MOL0     C18946   7.743   0.819   3.292  0.7560 -0.3863 -1.0846
  882MOL0     C18947   7.805   0.852   3.429  0.5729  0.0112 -0.8726
  882MOL0     C18948   7.956   0.864   3.440 -0.9052 -0.2590 -0.7766
  882MOL0     C18949   8.020   0.968   3.346  0.4870  0.4192  0.4619
  882MOL0     C18950   8.173   0.960   3.335  0.4643  0.1775 -0.3077
  882MOL0     C18951   8.248   1.022   3.451  0.4609 -0.4687 -0.1257
  882MOL0     N18952   8.388   1.002   3.429  0.9646  0.0332 -0.7333
  882MOL0     C18953   8.464   0.910   3.485 -0.5998 -0.4126 -0.3110
  882MOL0     C18954   8.569   0.896   3.398 -0.5240  0.4646  0.1800
  882MOL0     C18955   8.687   0.804   3.407  0.3780  0.6006  0.4933
  882MOL0     C18956   8.755   0.805   3.545  0.1239  0.4032  0.1542
  882MOL0     C18957   8.778   0.947   3.609  1.1624  0.9213 -0.5268
  882MOL0     C18958   8.852   1.052   3.524  0.3075  0.4145  0.1393
  882MOL0     O18959   8.979   1.010   3.482  0.4325 -0.2133 -0.2865
  882MOL0     C18960   9.083   1.054   3.562  0.3506 -0.9236  0.6499
  882MOL0     C18961   9.066   1.099   3.690 -0.4288 -0.0304 -0.8174
  882MOL0     C18962   9.158   1.187   3.749  0.5464 -0.4472  0.4534
  882MOL0     C18963   9.287   1.204   3.692 -0.3391  0.0500 -0.5332
  882MOL0     C18964   9.389   1.276   3.775 -1.1045  0.0563 -0.3101
  882MOL0     O18965   9.510   1.305   3.712  0.1337  0.0642 -0.4494
  882MOL0     C18966   9.616   1.354   3.783  0.0933 -0.2953 -0.2124
  882MOL0     C18967   9.737   1.320   3.732 -0.6776 -0.9096 -0.3724
  882MOL0     C18968   9.851   1.360   3.806 -0.0039  0.4413 -0.1272
  882MOL0     C18969   9.850   1.429   3.922  0.3562 -0.6368  0.0514
  882MOL0     O18970   9.976   1.456   3.981  0.9187  0.3908 -0.1468
  882MOL0     C18971   9.975   1.498   4.116  0.2923  0.3994 -0.7919
  882MOL0     C18972  10.116   1.510   4.163 -1.1369  0.5974 -0.4546
  882MOL0     C18973  10.189   1.378   4.197  0.4437 -0.1763  1.1625
  882MOL0     C18974  10.338   1.385   4.167 -0.7987 -1.1102 -0.2821
  882MOL0     C18975  10.405   1.249   4.177  1.0171  0.7723  0.7593
  882MOL0     C18976  10.387   1.174   4.309  0.1870 -0.5557  0.4887
  882MOL0     C18977  10.466   1.047   4.308  0.0431  0.1974 -0.6065
  882MOL0     C18978  10.428   0.941   4.417 -0.0639 -0.0551  0.3310
  882MOL0    Cl18979  10.405   1.028   4.572 -0.4001 -0.1261 -0.1638
  882MOL0     C18980   9.727   1.480   3.967 -0.7210 -0.0641  0.4705
  882MOL0     C18981   9.612   1.441   3.889 -0.2685  1.0434 -0.7659
  882MOL0     O18982   9.371   1.281   3.893 -0.2138  0.3069  0.4142
  882MOL0     C18983   9.293   1.172   3.555 -0.5857  0.7352 -0.0707
  882MOL0     C18984   9.199   1.086   3.493  1.0319 -0.4914 -0.1443
  882MOL0     N18985   8.550   0.970   3.289  0.1746  0.2421 -1.1818
  882MOL0     N18986   8.449   1.038   3.317 -0.5492 -0.6902 -0.3981
  882MOL0     C18987   7.559   0.437   3.137 -0.1825 -0.0102 -0.8059
  882MOL0     C18988   7.462   0.341   3.156  0.0365 -0.7709  0.7869
  882MOL0     C18989   7.043   0.172   3.276  0.0428  0.2694 -0.1978
  882MOL0     C18990   7.007   0.116   3.400 -0.7511  0.5863  0.2355
  882MOL0     C18991   6.883   0.052   3.402  0.7160  0.2179 -0.0254
  882MOL0     C18992   6.795   0.040   3.301  0.8356  1.3970  0.9323
  882MOL0     O18993   6.681  -0.036   3.328  0.0288  0.1124 -0.7866
  882MOL0     C18994   6.560  -0.032   3.254  0.0217  0.2904  0.0037
  882MOL0     C18995   6.497   0.106   3.239  0.3512 -0.1234 -0.3742
  882MOL0     C18996   6.359   0.115   3.298 -0.0274  0.0383  1.6332
  882MOL0     C18997   6.249   0.014   3.235 -0.3300 -0.4191  0.3467
  882MOL0     C18998   6.186   0.034   3.095  0.4862  0.4814 -0.3401
  882MOL0     C18999   6.136   0.040   2.980 -0.5176  0.4030 -0.3663
  882MOL0     C19000   6.832   0.100   3.176 -0.1114  0.2570 -0.6354
  882MOL0     C19001   6.963   0.156   3.160  0.4227 -0.8007 -1.1591
  882MOL0     C19002   6.995   0.207   3.021 -0.3520  0.7377  0.0964
  882MOL0     H19003   7.191   0.537   3.087  0.2210  0.8698  1.2261
  882MOL0     H19004   7.353   0.698   3.053  0.4131  0.5140  0.2123
  882MOL0     H19005   7.783   0.587   3.055 -0.6204  1.5836 -3.1946
  882MOL0     H19006   7.770   0.758   3.033  1.2438 -1.4486 -1.5586
  882MOL0     H19007   7.884   0.666   3.257 -0.0676  1.3646 -0.1934
  882MOL0     H19008   7.722   0.608   3.312 -0.0970 -0.6200 -1.4924
  882MOL0     H19009   7.638   0.847   3.286  0.6839 -0.7583 -1.6733
  882MOL0     H19010   7.784   0.889   3.219 -1.7616  1.5908 -0.7227
  882MOL0     H19011   7.742   0.936   3.460 -1.3166 -0.7025 -2.5429
  882MOL0     H19012   7.767   0.784   3.506 -0.6592 -0.2400 -1.6781
  882MOL0     H19013   7.989   0.889   3.541  0.1073  1.5781 -1.5125
  882MOL0     H19014   8.000   0.767   3.417  0.7889  0.3876 -0.3698
  882MOL0     H19015   7.984   0.964   3.242 -0.3289 -0.0960  0.7533
  882MOL0     H19016   7.996   1.067   3.386  1.1262  0.8903 -0.2924
  882MOL0     H19017   8.208   1.014   3.246  1.4914  1.9600  1.1079
  882MOL0     H19018   8.203   0.858   3.312  2.7810  1.1355 -1.9230
  882MOL0     H19019   8.229   1.129   3.461  2.8208  0.1896 -1.8478
  882MOL0     H19020   8.218   0.993   3.553  1.0792  1.3133  0.6030
  882MOL0     H19021   8.450   0.860   3.580 -3.5520 -0.7718 -0.8487
  882MOL0     H19022   8.651   0.702   3.391  0.6741  0.9225 -3.0225
  882MOL0     H19023   8.761   0.825   3.329  0.8510  4.2788  1.7338
  882MOL0     H19024   8.697   0.745   3.616 -0.6708 -0.3414 -1.0798
  882MOL0     H19025   8.845   0.749   3.522 -2.2469 -3.7926  0.0639
  882MOL0     H19026   8.815   0.926   3.710 -0.2711 -0.9974 -0.3581
  882MOL0     H19027   8.682   0.995   3.630  1.5761  2.1919 -1.4591
  882MOL0     H19028   8.853   1.147   3.579 -1.9308  1.5311 -1.5461
  882MOL0     H19029   8.790   1.077   3.437  0.1429  3.0908  0.9363
  882MOL0     H19030   8.985   1.060   3.750  2.9470 -2.9530  2.2871
  882MOL0     H19031   9.147   1.222   3.851  2.1073 -0.2877  0.5918
  882MOL0     H19032   9.745   1.272   3.635  1.6725  4.2159 -3.1463
  882MOL0     H19033   9.944   1.315   3.770  1.1013  0.4260  2.5094
  882MOL0     H19034   9.940   1.602   4.121  0.3870  0.3761  2.2086
  882MOL0     H19035   9.902   1.449   4.182  0.9640  1.7411  1.0452
  882MOL0     H19036  10.181   1.557   4.089  3.4467 -2.1202  1.3384
  882MOL0     H19037  10.121   1.561   4.260  0.3864  0.9537 -0.6912
  882MOL0     H19038  10.176   1.344   4.301 -0.3571 -3.5863  0.0672
  882MOL0     H19039  10.140   1.304   4.133 -1.4094  0.9510  1.2090
  882MOL0     H19040  10.376   1.445   4.250  1.1042  0.0899 -1.9467
  882MOL0     H19041  10.361   1.431   4.070  2.2396  1.3175  1.4043
  882MOL0     H19042  10.514   1.258   4.166  1.1864 -0.9614  0.8439
  882MOL0     H19043  10.363   1.189   4.096 -0.5258  2.2734  0.3760
  882MOL0     H19044  10.419   1.241   4.389  1.1814 -2.2323  1.5388
  882MOL0     H19045  10.282   1.150   4.329  0.7317 -0.9759  3.1537
  882MOL0     H19046  10.566   1.077   4.341 -0.5827  2.1948 -0.4044
  882MOL0     H19047  10.468   1.006   4.206 -1.8265  2.6465 -1.7127
  882MOL0     H19048  10.334   0.890   4.393 -2.6181  4.3295  0.0191
  882MOL0     H19049  10.512   0.873   4.429  1.0597  1.0384 -0.9476
  882MOL0     H19050   9.715   1.543   4.054 -2.5997  0.8213 -0.3641
  882MOL0     H19051   9.520   1.484   3.926  0.7349  2.7341 -0.1353
  882MOL0     H19052   9.377   1.201   3.494 -2.4079 -0.6953 -3.5518
  882MOL0     H19053   9.209   1.058   3.388  0.1208  0.1247 -0.4136
  882MOL0     H19054   7.660   0.397   3.143 -0.2966 -0.0565  1.3696
  882MOL0     H19055   7.494   0.243   3.189  0.7437 -0.8292 -0.0462
  882MOL0     H19056   7.084   0.106   3.475 -1.4625  2.2801  1.2299
  882MOL0     H19057   6.849   0.006   3.494 -3.0397 -1.3326 -1.9881
  882MOL0     H19058   6.489  -0.100   3.302 -0.9857  0.6876 -0.8840
  882MOL0     H19059   6.568  -0.078   3.155  0.2090  4.4159 -2.1200
  882MOL0     H19060   6.490   0.137   3.134 -2.3440 -1.6949 -0.7384
  882MOL0     H19061   6.558   0.186   3.283  0.1514  1.0406 -2.1094
  882MOL0     H19062   6.308   0.209   3.274 -0.3568 -0.9605 -2.1497
  882MOL0     H19063   6.359   0.094   3.405 -2.0542 -0.3599  1.5893
  882MOL0     H19064   6.297  -0.083   3.216 -0.5277  0.0556 -3.3393
  882MOL0     H19065   6.169  -0.001   3.308  0.9958 -2.3474  1.5157
  882MOL0     H19066   6.083   0.056   2.888  1.9592  1.5270 -1.7059
  882MOL0     H19067   6.765   0.080   3.093 -3.6399 -0.9314  2.2103
  882MOL0     H19068   7.006   0.316   3.022  2.5172  0.6479 -3.5964
  882MOL0     H19069   7.085   0.158   2.984  0.8916  2.5173  0.6379
  882MOL0     H19070   6.916   0.192   2.947 -1.9690  1.1415  1.6511
  883MOL0     O19071   9.874  11.258  10.887 -1.1380 -0.4782 -0.0637
  883MOL0     C19072   9.886  11.141  10.850 -0.2342 -0.5285  0.7494
  883MOL0     O19073   9.787  11.058  10.818 -0.3196  0.2365 -0.9721
  883MOL0     C19074   9.657  11.080  10.878  0.3695 -0.3117 -0.6296
  883MOL0     C19075   9.536  11.037  10.809 -0.3619 -0.0781 -0.0643
  883MOL0     C19076   9.412  11.054  10.871  0.6419 -0.1155 -0.5189
  883MOL0     C19077   9.402  11.105  11.006 -0.2006  0.3140 -0.2375
  883MOL0     O19078   9.276  11.133  11.061  0.3928 -0.3972  0.2464
  883MOL0     C19079   9.276  11.192  11.196  0.2484  0.0806 -0.2255
  883MOL0     C19080   9.141  11.181  11.265  0.2165 -0.8782 -0.0895
  883MOL0     C19081   9.079  11.048  11.229 -0.6884  0.1076  0.2019
  883MOL0     C19082   8.942  11.047  11.297  0.7467 -0.4980 -0.2259
  883MOL0     C19083   8.885  10.907  11.301 -0.3945 -0.2302  1.1853
  883MOL0     C19084   8.964  10.796  11.382  0.5564 -0.3363 -0.6099
  883MOL0     C19085   8.881  10.669  11.419 -1.4831 -0.5202 -0.0467
  883MOL0     C19086   8.817  10.606  11.306 -0.2956 -0.2692  0.4258
  883MOL0     N19087   8.916  10.561  11.209 -0.5175 -0.3182  0.5753
  883MOL0     C19088   8.939  10.620  11.099 -0.4747 -0.8297  1.0859
  883MOL0     C19089   9.014  10.539  11.016  0.0628  0.0129  0.6715
  883MOL0     C19090   9.044  10.584  10.872 -0.2781 -0.7913 -0.2715
  883MOL0     C19091   9.171  10.506  10.832 -0.1709  0.2262  0.6957
  883MOL0     C19092   9.303  10.585  10.849  1.3163  0.0394  0.2685
  883MOL0     C19093   9.319  10.638  10.989  0.3374  0.5124  0.3327
  883MOL0     O19094   9.459  10.687  10.996  0.8384  0.4243  0.5457
  883MOL0     C19095   9.490  10.743  11.111  0.3856 -0.8418 -0.6420
  883MOL0     C19096   9.626  10.762  11.140 -1.0437 -0.2657 -0.8505
  883MOL0     C19097   9.680  10.806  11.256 -0.5406  0.7581 -0.3664
  883MOL0     C19098   9.599  10.869  11.347 -0.0216 -0.3062  0.7137
  883MOL0     C19099   9.661  10.933  11.471 -0.0389 -0.2611  0.4214
  883MOL0     O19100   9.787  10.976  11.452  0.5043  0.1892  0.2427
  883MOL0     C19101   9.850  11.060  11.534  0.9699  0.1534 -0.3695
  883MOL0     C19102   9.982  11.031  11.554 -1.1577  0.0477  0.0111
  883MOL0     C19103  10.058  11.114  11.643 -0.6954  0.7034  0.6088
  883MOL0     C19104  10.002  11.222  11.705  0.1438 -0.4729  0.5012
  883MOL0     O19105  10.078  11.318  11.768 -0.2710  0.7126  0.5705
  883MOL0     C19106  10.189  11.367  11.694 -0.0425 -0.1870 -0.7846
  883MOL0     C19107  10.282  11.440  11.791  0.0109  0.3764  0.1726
  883MOL0     C19108  10.413  11.486  11.720  0.3057 -0.4554 -0.0722
  883MOL0     C19109  10.522  11.506  11.817 -0.7623 -0.5105 -0.3343
  883MOL0     C19110  10.654  11.549  11.754  0.6255  0.6263  0.4690
  883MOL0     C19111  10.648  11.656  11.655 -0.2390 -0.2141 -0.6067
  883MOL0     C19112  10.777  11.681  11.591  0.7058  0.0107 -0.0563
  883MOL0     C19113  10.761  11.783  11.480 -0.6589  0.0664  0.0903
  883MOL0    Cl19114  10.688  11.933  11.544  0.1371 -0.0218  0.3170
  883MOL0     C19115   9.872  11.250  11.669 -0.8598 -1.3149  0.0857
  883MOL0     C19116   9.791  11.172  11.594 -0.3407  1.4218  0.1558
  883MOL0     O19117   9.591  10.953  11.571 -0.3826  0.3391  0.9002
  883MOL0     C19118   9.459  10.867  11.322  0.3841  0.3265  0.2822
  883MOL0     C19119   9.408  10.798  11.206  1.4922  0.1265  0.6480
  883MOL0     N19120   9.044  10.426  11.091 -0.2487 -0.0960  0.6138
  883MOL0     N19121   8.985  10.439  11.202 -0.0357 -0.5764 -0.2796
  883MOL0     C19122   9.522  11.142  11.069 -0.6083  0.0153  0.4528
  883MOL0     C19123   9.647  11.128  11.014  0.1092 -1.2971 -0.8089
  883MOL0     C19124  10.021  11.085  10.850 -0.8826 -0.1812  0.1827
  883MOL0     C19125  10.038  10.948  10.860 -0.2808 -0.5386 -0.3962
  883MOL0     C19126  10.160  10.885  10.844 -0.1365 -0.6604  0.7643
  883MOL0     C19127  10.278  10.959  10.814  0.3614 -0.6672 -0.3095
  883MOL0     O19128  10.404  10.911  10.784  0.1898  0.5514 -0.3726
  883MOL0     C19129  10.409  10.775  10.749  0.8321  0.3462 -0.0858
  883MOL0     C19130  10.545  10.717  10.727 -0.5620 -1.1714 -0.0271
  883MOL0     C19131  10.542  10.584  10.653  0.0249 -0.7632  0.4162
  883MOL0     C19132  10.503  10.460  10.726  0.4927  0.6918 -0.2552
  883MOL0     C19133  10.497  10.344  10.641 -0.3221 -0.4975 -0.1847
  883MOL0     C19134  10.483  10.250  10.567  0.2950  0.6620 -0.5080
  883MOL0     C19135  10.268  11.099  10.823  0.3439  0.1875 -0.3161
  883MOL0     C19136  10.143  11.160  10.841 -0.0467 -0.3503 -0.9835
  883MOL0     C19137  10.151  11.310  10.854 -0.8376 -0.1871 -1.2039
  883MOL0     H19138   9.541  11.012  10.703 -1.0129 -0.0976 -0.0930
  883MOL0     H19139   9.321  11.024  10.819 -0.2434  1.2174  0.2108
  883MOL0     H19140   9.351  11.144  11.259 -0.5285 -0.0631  0.6117
  883MOL0     H19141   9.307  11.297  11.185 -4.1847  1.6245  0.0311
  883MOL0     H19142   9.079  11.264  11.231  1.7421 -0.0095 -0.8607
  883MOL0     H19143   9.144  11.187  11.375 -0.0461 -4.9258  0.3065
  883MOL0     H19144   9.139  10.973  11.281  1.2316  2.8558  2.2562
  883MOL0     H19145   9.065  11.040  11.121 -6.8434 -0.4705  0.6667
  883MOL0     H19146   8.950  11.077  11.402 -0.9250 -1.4076  0.1748
  883MOL0     H19147   8.869  11.117  11.256  0.6221  0.4129  1.4269
  883MOL0     H19148   8.784  10.909  11.341  0.5352 -1.6512  3.9303
  883MOL0     H19149   8.878  10.878  11.196 -0.8810  0.3459  1.0575
  883MOL0     H19150   9.052  10.757  11.330 -0.6592 -2.5591 -1.1450
  883MOL0     H19151   8.992  10.846  11.475 -0.8646  0.7296 -0.7230
  883MOL0     H19152   8.801  10.693  11.490  0.5694  1.4699  1.7732
  883MOL0     H19153   8.942  10.594  11.471 -4.3851 -3.1500 -0.1546
  883MOL0     H19154   8.761  10.522  11.347  2.3049 -1.9524  0.7861
  883MOL0     H19155   8.749  10.673  11.253  0.8279  0.0420 -0.6823
  883MOL0     H19156   8.890  10.710  11.063  1.9241 -1.0063 -3.2870
  883MOL0     H19157   8.960  10.570  10.803  0.4748 -2.1006 -0.9586
  883MOL0     H19158   9.070  10.690  10.876  3.6871 -1.5252 -2.1663
  883MOL0     H19159   9.180  10.407  10.876  1.7778 -0.8626 -1.8369
  883MOL0     H19160   9.157  10.474  10.728 -1.1499  0.7211  0.6674
  883MOL0     H19161   9.302  10.667  10.777  1.4381  0.8996  1.2126
  883MOL0     H19162   9.384  10.518  10.818  1.2634 -1.6780  3.4487
  883MOL0     H19163   9.291  10.566  11.067  1.0497  1.6757  1.6940
  883MOL0     H19164   9.245  10.718  11.000 -0.2926 -0.1346  0.9876
  883MOL0     H19165   9.705  10.742  11.068 -1.8017  0.4756 -1.9173
  883MOL0     H19166   9.787  10.804  11.274 -0.9280 -0.4151  2.1853
  883MOL0     H19167  10.019  10.944  11.500  1.7452  1.0091  0.2899
  883MOL0     H19168  10.163  11.086  11.650 -0.6193 -0.5713 -3.3308
  883MOL0     H19169  10.234  11.288  11.634  2.7766  0.5461  0.2038
  883MOL0     H19170  10.151  11.440  11.622  0.8468  2.3618  1.1787
  883MOL0     H19171  10.223  11.527  11.821  0.5103  1.0962 -0.9009
  883MOL0     H19172  10.294  11.381  11.883  0.6205  1.5640  0.8740
  883MOL0     H19173  10.432  11.409  11.645 -3.5569 -1.8020  0.0837
  883MOL0     H19174  10.387  11.584  11.679 -1.4255  1.8083  5.4966
  883MOL0     H19175  10.540  11.424  11.888 -1.8885  0.6243  1.3400
  883MOL0     H19176  10.495  11.589  11.883  0.4798 -2.2004  2.5302
  883MOL0     H19177  10.704  11.464  11.707 -0.1072  0.2383  0.3742
  883MOL0     H19178  10.714  11.582  11.840  0.2042  0.9226  0.6541
  883MOL0     H19179  10.573  11.653  11.575 -0.7452  1.2153 -0.2180
  883MOL0     H19180  10.615  11.742  11.714  4.0067  0.0032  1.8230
  883MOL0     H19181  10.811  11.587  11.545  0.3559  0.0754 -0.4517
  883MOL0     H19182  10.852  11.716  11.663  2.2303 -0.3579 -1.3849
  883MOL0     H19183  10.861  11.800  11.437 -0.5667 -1.7860 -0.4888
  883MOL0     H19184  10.690  11.739  11.409 -0.3136 -2.4209  1.1919
  883MOL0     H19185   9.826  11.334  11.721 -1.3315 -0.8376 -1.0580
  883MOL0     H19186   9.683  11.181  11.593 -0.2941  2.1568  1.0004
  883MOL0     H19187   9.389  10.897  11.399 -0.4690 -3.7220  1.3604
  883MOL0     H19188   9.304  10.819  11.182  1.9411  0.3733 -1.1939
  883MOL0     H19189   9.529  11.203  11.158  5.8695  0.8963 -0.1440
  883MOL0     H19190   9.735  11.165  11.066  0.3142 -1.6197 -0.9150
  883MOL0     H19191   9.955  10.881  10.878 -0.3206  0.1542  2.5553
  883MOL0     H19192  10.159  10.778  10.858  2.3831 -0.9671 -0.8493
  883MOL0     H19193  10.347  10.766  10.660  0.4812  0.3877  0.1497
  883MOL0     H19194  10.351  10.718  10.823  1.6007 -1.6824 -0.9887
  883MOL0     H19195  10.594  10.711  10.825 -0.2562  1.1848  0.0205
  883MOL0     H19196  10.606  10.791  10.676  0.7794 -1.0391  1.6573
  883MOL0     H19197  10.633  10.566  10.596  0.2638  1.1005  0.1687
  883MOL0     H19198  10.462  10.591  10.578 -1.9412  1.6614  2.5297
  883MOL0     H19199  10.572  10.438  10.808  0.7105  0.1525 -0.5835
  883MOL0     H19200  10.399  10.482  10.753 -0.2396  1.0075 -3.0022
  883MOL0     H19201  10.452  10.168  10.505 -0.9584  2.7879 -2.9209
  883MOL0     H19202  10.362  11.152  10.821  1.0697 -0.6781  3.2590
  883MOL0     H19203  10.098  11.357  10.771 -3.7839 -0.4129  0.4160
  883MOL0     H19204  10.109  11.340  10.950  0.8313 -0.0748 -0.4661
  883MOL0     H19205  10.249  11.359  10.861 -0.7186 -0.6840  1.9940
  884MOL0     O19206   2.042   8.615   0.410 -0.3669  0.4018 -0.1032
  884MOL0     C19207   1.924   8.625   0.444  0.8167  0.1175  0.7638
  884MOL0     O19208   1.819   8.530   0.413 -0.3217 -0.0144  0.3904
  884MOL0     C19209   1.859   8.407   0.361 -0.4888 -0.3566 -0.1220
  884MOL0     C19210   1.797   8.352   0.252 -0.2857  0.7962 -0.2912
  884MOL0     C19211   1.858   8.245   0.182  0.0504 -0.0191  0.5753
  884MOL0     C19212   1.976   8.183   0.225  0.2910 -0.1307 -0.4874
  884MOL0     O19213   2.045   8.080   0.157 -0.1343 -0.7228 -0.3836
  884MOL0     C19214   1.984   8.030   0.038 -0.6307 -0.0660 -0.0128
  884MOL0     C19215   2.086   7.936  -0.027 -0.4444  0.1547  0.1229
  884MOL0     C19216   2.029   7.862  -0.159 -0.3307  0.6689  0.3998
  884MOL0     C19217   2.109   7.732  -0.194  0.6286  0.6801  0.8294
  884MOL0     C19218   2.253   7.765  -0.234 -0.2461  0.8154  0.8780
  884MOL0     C19219   2.337   7.636  -0.277  0.2996  0.0024  0.8024
  884MOL0     C19220   2.371   7.556  -0.159 -0.2499  0.0108 -0.0960
  884MOL0     C19221   2.448   7.430  -0.190 -0.1108  0.1826 -0.1517
  884MOL0     N19222   2.440   7.345  -0.068  0.0541 -1.1532 -0.0643
  884MOL0     C19223   2.510   7.371   0.047  0.3012  0.0938 -0.8506
  884MOL0     C19224   2.453   7.282   0.141 -1.6504 -0.2287  0.1090
  884MOL0     C19225   2.499   7.269   0.287  0.2181  0.1487 -0.2836
  884MOL0     C19226   2.623   7.186   0.303 -0.1604  0.0696  1.2610
  884MOL0     C19227   2.622   7.045   0.239  0.0516 -0.5568  0.1404
  884MOL0     C19228   2.759   6.977   0.273  0.6563 -0.3204  0.1889
  884MOL0     O19229   2.773   6.871   0.180  0.1389  0.0453  0.0144
  884MOL0     C19230   2.872   6.772   0.197 -0.3281  0.2810  0.5170
  884MOL0     C19231   2.980   6.772   0.282  1.2117 -0.0721  0.9507
  884MOL0     C19232   3.065   6.661   0.297  0.9269  0.5036  0.1723
  884MOL0     C19233   3.059   6.550   0.206 -0.5145  0.9688  0.2068
  884MOL0     C19234   3.150   6.431   0.218 -0.4002  0.4041  0.1006
  884MOL0     O19235   3.254   6.450   0.308 -0.1514  0.3934 -0.0832
  884MOL0     C19236   3.363   6.360   0.326  0.0933 -0.1872 -0.2247
  884MOL0     C19237   3.370   6.230   0.281 -0.7905  0.0570  0.2886
  884MOL0     C19238   3.474   6.145   0.327 -0.3916  0.0613  0.6768
  884MOL0     C19239   3.570   6.196   0.412 -0.1483 -0.4147  0.9086
  884MOL0     O19240   3.677   6.119   0.466 -0.4074  0.1862 -0.8865
  884MOL0     C19241   3.684   5.980   0.469 -0.7348 -0.5664  0.5799
  884MOL0     C19242   3.810   5.955   0.558  0.2997 -0.5752  0.1695
  884MOL0     C19243   3.830   5.803   0.595 -0.6387 -0.5821 -0.3865
  884MOL0     C19244   3.756   5.765   0.721  0.0542  0.4911 -0.1055
  884MOL0     C19245   3.790   5.627   0.783  1.4624 -0.3201 -0.4852
  884MOL0     C19246   3.916   5.646   0.872 -0.4926  0.1300 -0.2548
  884MOL0     C19247   3.980   5.508   0.901 -1.0115  0.4837  0.5553
  884MOL0     C19248   4.082   5.521   1.014 -1.0450  0.2239 -0.2491
  884MOL0    Cl19249   4.157   5.350   1.040 -0.1506  0.4053 -0.1860
  884MOL0     C19250   3.568   6.325   0.462 -0.4933 -0.1813  0.6404
  884MOL0     C19251   3.464   6.408   0.419 -0.0058 -0.2474  0.2539
  884MOL0     O19252   3.123   6.332   0.153  0.0713 -0.4601 -0.6272
  884MOL0     C19253   2.945   6.545   0.123  0.1422  0.5853  0.3345
  884MOL0     C19254   2.845   6.652   0.121  0.2012 -0.2858 -0.6084
  884MOL0     N19255   2.364   7.194   0.071 -0.4274  0.0307 -0.5427
  884MOL0     N19256   2.355   7.242  -0.054  0.6683  0.5925 -0.7321
  884MOL0     C19257   2.031   8.237   0.344  0.0589  0.0523  0.2393
  884MOL0     C19258   1.977   8.348   0.407 -0.1856  0.6195 -0.0027
  884MOL0     C19259   1.884   8.731   0.538  0.3171 -0.2297 -0.0966
  884MOL0     C19260   1.783   8.687   0.637  0.8939 -0.4637  0.4748
  884MOL0     C19261   1.744   8.769   0.738  1.2646 -0.6188 -0.7719
  884MOL0     C19262   1.792   8.902   0.751  0.2537 -0.3856  0.5943
  884MOL0     O19263   1.729   8.967   0.854 -0.3669 -0.2963  0.2674
  884MOL0     C19264   1.764   9.106   0.874  0.7702  0.9346  0.2469
  884MOL0     C19265   1.648   9.186   0.923  0.4844 -0.1251  0.0167
  884MOL0     C19266   1.652   9.334   0.886  0.4180  0.0268  0.9021
  884MOL0     C19267   1.523   9.398   0.941 -0.5211 -0.5255  1.0727
  884MOL0     C19268   1.406   9.346   0.860 -0.2422 -0.4201 -0.1709
  884MOL0     C19269   1.319   9.312   0.789  0.3585  0.6258 -0.9014
  884MOL0     C19270   1.876   8.950   0.649 -0.0477  0.1718  0.7561
  884MOL0     C19271   1.931   8.861   0.545  0.2748  0.2342 -0.0358
  884MOL0     C19272   2.039   8.916   0.447 -0.0664 -0.1392  0.3213
  884MOL0     H19273   1.706   8.395   0.211 -0.7369  1.3082  1.1977
  884MOL0     H19274   1.808   8.226   0.088  0.0749  2.6552 -0.0568
  884MOL0     H19275   1.899   7.971   0.074  0.8894 -0.4308  3.4494
  884MOL0     H19276   1.956   8.111  -0.029 -0.2345 -0.2798 -0.4455
  884MOL0     H19277   2.102   7.851   0.039  2.3151 -1.7532 -2.7042
  884MOL0     H19278   2.185   7.982  -0.038 -0.4175  1.3179  3.8901
  884MOL0     H19279   2.033   7.935  -0.241  2.2936  0.6461  0.4425
  884MOL0     H19280   1.923   7.837  -0.146 -0.6093 -0.5671 -3.2813
  884MOL0     H19281   2.117   7.671  -0.104  2.8313 -2.0354 -1.0453
  884MOL0     H19282   2.069   7.678  -0.280  1.7277 -0.6419  1.1141
  884MOL0     H19283   2.241   7.839  -0.314 -1.2025  0.0634  0.3109
  884MOL0     H19284   2.317   7.817  -0.161  1.0369  2.1609 -1.0849
  884MOL0     H19285   2.281   7.585  -0.356  3.7367 -1.0595 -1.1282
  884MOL0     H19286   2.424   7.657  -0.339  0.2580 -0.8171  0.4569
  884MOL0     H19287   2.283   7.532  -0.099  0.0613  2.1530  1.3343
  884MOL0     H19288   2.444   7.612  -0.099  1.3542 -1.3823 -0.6666
  884MOL0     H19289   2.400   7.374  -0.270  0.1885 -1.7169  0.9357
  884MOL0     H19290   2.549   7.457  -0.219 -0.7361  2.8042 -0.1192
  884MOL0     H19291   2.574   7.456   0.070 -1.6334  0.9329  2.0413
  884MOL0     H19292   2.525   7.367   0.329 -0.0089  0.4070 -0.7406
  884MOL0     H19293   2.421   7.221   0.346  1.4163 -1.1842  0.2535
  884MOL0     H19294   2.707   7.236   0.253  0.6420 -0.4681  2.0360
  884MOL0     H19295   2.640   7.178   0.410 -1.0848 -2.7532  1.2658
  884MOL0     H19296   2.597   7.056   0.133 -3.2625  3.0524  1.0752
  884MOL0     H19297   2.550   6.978   0.286 -0.8649  1.5980  2.0044
  884MOL0     H19298   2.746   6.936   0.374 -1.1230  1.8743  0.9222
  884MOL0     H19299   2.846   7.044   0.270  1.6548 -1.6042 -1.1117
  884MOL0     H19300   2.982   6.857   0.349  1.5554  0.0481  0.7917
  884MOL0     H19301   3.147   6.667   0.368  1.3474 -2.5669  0.0802
  884MOL0     H19302   3.292   6.204   0.210  2.4135  1.5587 -4.2112
  884MOL0     H19303   3.472   6.041   0.294 -2.1360 -0.1608  1.3413
  884MOL0     H19304   3.591   5.943   0.514  0.6367 -3.3613  1.3935
  884MOL0     H19305   3.693   5.931   0.371  2.0688 -1.7804  1.3227
  884MOL0     H19306   3.895   5.993   0.501 -1.4089  2.3338 -0.6760
  884MOL0     H19307   3.808   6.023   0.643  0.9846 -1.4889  0.9337
  884MOL0     H19308   3.800   5.747   0.506  0.8838 -0.7691 -0.7989
  884MOL0     H19309   3.936   5.793   0.617 -0.5539  2.5066  1.1836
  884MOL0     H19310   3.655   5.737   0.688  0.7296 -0.0828 -1.7867
  884MOL0     H19311   3.763   5.838   0.801  3.0260 -0.2716  0.4662
  884MOL0     H19312   3.811   5.561   0.698  1.3755 -0.1378 -0.6472
  884MOL0     H19313   3.711   5.596   0.852  1.9275  0.3066  0.3564
  884MOL0     H19314   3.994   5.693   0.812 -0.9822 -3.8402 -4.6501
  884MOL0     H19315   3.900   5.704   0.963  0.3244 -1.4632  0.9657
  884MOL0     H19316   4.015   5.465   0.807  1.0568  2.2773  0.4341
  884MOL0     H19317   3.912   5.434   0.945 -0.2535  0.1188  1.1252
  884MOL0     H19318   4.154   5.602   0.998  0.6937 -0.8210  1.6755
  884MOL0     H19319   4.038   5.536   1.112  2.0195 -1.8307  1.6108
  884MOL0     H19320   3.644   6.354   0.534 -0.3898  0.8024  0.1471
  884MOL0     H19321   3.455   6.508   0.461  2.5507 -0.1653  0.7752
  884MOL0     H19322   2.930   6.452   0.069 -0.6654  0.8544  0.0649
  884MOL0     H19323   2.752   6.646   0.065 -0.9068  1.0411  0.9844
  884MOL0     H19324   2.125   8.200   0.383  1.7649  1.9531 -1.8051
  884MOL0     H19325   2.025   8.378   0.499 -0.8645 -3.5892  1.9564
  884MOL0     H19326   1.740   8.587   0.638  1.8011 -0.9010 -1.3661
  884MOL0     H19327   1.687   8.723   0.818 -0.4070 -3.0135 -3.1724
  884MOL0     H19328   1.801   9.151   0.781 -0.4939  0.5481 -0.4613
  884MOL0     H19329   1.853   9.099   0.938 -0.0031 -0.9376  1.1876
  884MOL0     H19330   1.635   9.177   1.031 -2.5290  0.3387 -0.2243
  884MOL0     H19331   1.565   9.135   0.873  0.1109  1.0228 -0.5715
  884MOL0     H19332   1.668   9.350   0.779 -4.6398 -0.9694 -0.2425
  884MOL0     H19333   1.735   9.373   0.946 -0.4231  0.6051  1.7167
  884MOL0     H19334   1.521   9.380   1.049  1.4183 -1.0294  1.0523
  884MOL0     H19335   1.529   9.506   0.924  1.1134 -0.7030  0.2994
  884MOL0     H19336   1.235   9.284   0.729 -0.8064 -1.1735  1.4088
  884MOL0     H19337   1.904   9.055   0.640  0.5124  0.0005  0.5091
  884MOL0     H19338   2.013   8.876   0.349  1.2464 -2.3115  0.7970
  884MOL0     H19339   2.043   9.025   0.449  1.6103 -0.1787  0.0687
  884MOL0     H19340   2.141   8.889   0.474 -0.5850  0.4560  3.2970
  885MOL0     O19341   8.307   0.020   9.983 -0.5622  0.5285  1.2401
  885MOL0     C19342   8.305   0.086  10.085 -0.7395  0.2887 -0.3049
  885MOL0     O19343   8.320   0.222  10.098 -0.8154  0.2432 -0.3484
  885MOL0     C19344   8.370   0.294  10.001 -0.7653  0.5468  0.0880
  885MOL0     C19345   8.425   0.409  10.051 -0.6141 -0.5183  0.5474
  885MOL0     C19346   8.492   0.501   9.965  0.1168 -0.3009  0.9392
  885MOL0     C19347   8.497   0.477   9.826 -0.2637 -0.4071  0.6836
  885MOL0     O19348   8.551   0.587   9.760  0.3415  1.0941  0.8241
  885MOL0     C19349   8.576   0.579   9.616 -1.0715 -0.0508 -0.1376
  885MOL0     C19350   8.664   0.459   9.558 -0.2138 -0.8942 -0.4352
  885MOL0     C19351   8.779   0.414   9.642 -0.3202 -0.5158  0.5801
  885MOL0     C19352   8.882   0.532   9.680  0.7076  0.2638 -0.1303
  885MOL0     C19353   9.014   0.476   9.726 -0.3112 -0.3560  0.0923
  885MOL0     C19354   9.116   0.579   9.785  0.6269  0.7742 -0.2041
  885MOL0     C19355   9.257   0.514   9.818  0.4122 -0.4020  1.3285
  885MOL0     C19356   9.376   0.613   9.789  0.0625 -0.6547 -0.4949
  885MOL0     N19357   9.505   0.555   9.836  1.1668 -0.0386  0.1055
  885MOL0     C19358   9.575   0.447   9.794  0.9128  0.9395  0.2435
  885MOL0     C19359   9.694   0.453   9.855  0.4536 -0.2467  0.2254
  885MOL0     C19360   9.803   0.362   9.824 -0.3749  0.6306  0.1695
  885MOL0     C19361   9.840   0.367   9.677  0.2319  0.4786  0.4205
  885MOL0     C19362   9.906   0.504   9.632  0.0224 -0.6049  0.3650
  885MOL0     C19363   9.974   0.505   9.494 -0.4758  0.6558 -0.5931
  885MOL0     O19364   9.889   0.560   9.397 -0.3174 -0.5615 -0.0885
  885MOL0     C19365   9.941   0.584   9.272 -0.0405  0.3491  1.6267
  885MOL0     C19366  10.070   0.553   9.229 -0.4964  0.0538 -0.4842
  885MOL0     C19367  10.114   0.574   9.089  0.2979  0.4730 -0.4925
  885MOL0     C19368  10.024   0.616   8.986 -0.1874 -0.1406 -0.5215
  885MOL0     C19369  10.071   0.638   8.854  0.2002 -0.0227  0.9768
  885MOL0     O19370  10.180   0.580   8.808 -0.0256  0.0479  0.1987
  885MOL0     C19371  10.221   0.630   8.682  0.4095 -0.1806 -0.0356
  885MOL0     C19372  10.240   0.549   8.575  0.0327  0.0719  0.2240
  885MOL0     C19373  10.302   0.587   8.455  0.5276  0.1762  0.1969
  885MOL0     C19374  10.341   0.722   8.440 -0.2807  0.1133  0.4528
  885MOL0     O19375  10.400   0.765   8.328 -0.6917 -0.2708 -0.1101
  885MOL0     C19376  10.328   0.875   8.264  0.7673 -0.4084  0.2694
  885MOL0     C19377  10.413   0.923   8.145 -0.5987 -0.1783 -1.0697
  885MOL0     C19378  10.558   0.938   8.185  0.0923  0.7250  0.3457
  885MOL0     C19379  10.631   0.952   8.055 -0.2175 -0.1284 -0.2397
  885MOL0     C19380  10.762   1.033   8.064 -0.2951 -0.1278  0.7395
  885MOL0     C19381  10.870   0.950   8.136  0.0112 -0.9149  0.3804
  885MOL0     C19382  11.019   1.006   8.117 -0.0675  0.8811  0.2301
  885MOL0     C19383  11.077   0.938   7.995  0.2962  0.2883  0.1564
  885MOL0    Cl19384  11.253   0.984   7.978 -0.5851  0.3101 -0.1152
  885MOL0     C19385  10.327   0.804   8.556  0.5065 -0.2323 -0.0339
  885MOL0     C19386  10.261   0.766   8.670  0.6415  0.6299 -0.8156
  885MOL0     O19387  10.002   0.715   8.786 -0.2916 -0.0447 -0.3567
  885MOL0     C19388   9.899   0.656   9.035 -0.0540  0.7258  0.0767
  885MOL0     C19389   9.855   0.638   9.171 -0.6291 -1.6070  0.0935
  885MOL0     N19390   9.679   0.550   9.959 -1.0792  0.8751 -0.1870
  885MOL0     N19391   9.573   0.620   9.934  0.1033  1.0377 -1.1951
  885MOL0     C19392   8.415   0.368   9.774  0.1639 -0.0697  1.0581
  885MOL0     C19393   8.351   0.279   9.859 -0.0742 -0.0859 -0.2920
  885MOL0     C19394   8.263   0.012  10.201 -0.4621 -0.8454 -0.0545
  885MOL0     C19395   8.187  -0.102  10.185  0.2130 -0.3454  0.5260
  885MOL0     C19396   8.150  -0.186  10.287 -0.0043  0.5580 -0.0187
  885MOL0     C19397   8.182  -0.155  10.416  0.0368 -0.2695 -0.1314
  885MOL0     O19398   8.152  -0.249  10.503 -0.5637  0.1279 -0.5940
  885MOL0     C19399   8.206  -0.254  10.640  0.0933  0.0908  0.2852
  885MOL0     C19400   8.090  -0.219  10.736 -0.3790  0.2213  1.1046
  885MOL0     C19401   8.140  -0.217  10.879  0.7778  1.0957 -0.7691
  885MOL0     C19402   8.129  -0.077  10.946 -0.1834  0.1913 -0.4539
  885MOL0     C19403   8.227   0.008  10.880 -0.4001 -0.1616 -0.1726
  885MOL0     C19404   8.297   0.094  10.835 -0.1958  0.8651 -0.1719
  885MOL0     C19405   8.248  -0.028  10.445 -0.4900  0.7081  0.5220
  885MOL0     C19406   8.286   0.055  10.338 -0.3136 -0.4848 -0.2284
  885MOL0     C19407   8.337   0.188  10.385  0.3225  0.3071  0.3096
  885MOL0     H19408   8.432   0.418  10.159 -1.0287 -1.8571  0.7002
  885MOL0     H19409   8.545   0.587  10.004  0.1639  0.3388 -0.4585
  885MOL0     H19410   8.481   0.574   9.562 -0.7291  0.3342 -0.7925
  885MOL0     H19411   8.635   0.667   9.586 -3.0776  1.8143  1.0852
  885MOL0     H19412   8.706   0.467   9.457 -0.2364 -4.5938 -0.8608
  885MOL0     H19413   8.589   0.383   9.538 -0.4852 -0.5909 -0.5807
  885MOL0     H19414   8.826   0.327   9.594  0.1676 -0.3775  0.8081
  885MOL0     H19415   8.736   0.377   9.735  1.6397 -1.7235  1.0799
  885MOL0     H19416   8.897   0.584   9.585  2.0355 -1.1883 -0.7672
  885MOL0     H19417   8.836   0.593   9.758  0.4496 -1.1876  0.8912
  885MOL0     H19418   9.008   0.390   9.793  0.4710  0.4005  1.1561
  885MOL0     H19419   9.061   0.436   9.636 -1.7039  1.0133 -1.3206
  885MOL0     H19420   9.130   0.660   9.713 -0.7173  0.9897 -0.2327
  885MOL0     H19421   9.075   0.617   9.879  0.4631 -2.0375  0.9606
  885MOL0     H19422   9.268   0.429   9.750 -1.8784 -0.4711  0.9394
  885MOL0     H19423   9.260   0.466   9.917 -2.2041  0.6301  2.0019
  885MOL0     H19424   9.376   0.649   9.685 -0.4685  0.1298 -0.2318
  885MOL0     H19425   9.358   0.707   9.843 -1.9845 -1.6442  0.6517
  885MOL0     H19426   9.538   0.382   9.716  0.2151  0.5287  0.9046
  885MOL0     H19427   9.882   0.388   9.895 -0.0026 -0.6312  0.2424
  885MOL0     H19428   9.776   0.259   9.848  3.0037 -0.2152  0.7268
  885MOL0     H19429   9.903   0.281   9.653 -3.7416 -2.3887 -0.8944
  885MOL0     H19430   9.746   0.352   9.623  1.0679 -1.9330 -0.5507
  885MOL0     H19431   9.984   0.531   9.703  0.7224  2.8277 -1.4479
  885MOL0     H19432   9.831   0.584   9.622  1.1964  0.3096 -1.8753
  885MOL0     H19433  10.008   0.407   9.459  1.8090  1.6071 -1.2240
  885MOL0     H19434  10.057   0.576   9.491 -2.2403  2.8049 -2.3446
  885MOL0     H19435  10.145   0.511   9.295 -0.5436  3.3706  1.9300
  885MOL0     H19436  10.218   0.553   9.065  0.4719  0.0868  0.5365
  885MOL0     H19437  10.198   0.449   8.583  1.9262 -0.9320 -1.5892
  885MOL0     H19438  10.320   0.508   8.383  0.8534 -0.0899  0.5691
  885MOL0     H19439  10.230   0.836   8.233  1.1825 -0.6038 -0.8731
  885MOL0     H19440  10.315   0.959   8.332  2.4118  1.6193 -1.7282
  885MOL0     H19441  10.390   0.857   8.061 -2.7617 -0.4253 -0.3454
  885MOL0     H19442  10.385   1.027   8.126 -0.1249  0.3521  0.8763
  885MOL0     H19443  10.567   1.008   8.268  0.4927 -2.8320  3.5737
  885MOL0     H19444  10.588   0.841   8.225  1.8392  1.1521  0.1532
  885MOL0     H19445  10.562   1.004   7.988  0.8619  0.8332 -0.6454
  885MOL0     H19446  10.652   0.860   8.001 -1.1055  1.3539 -3.3643
  885MOL0     H19447  10.741   1.134   8.100  1.9518  1.0629 -1.0053
  885MOL0     H19448  10.799   1.035   7.961 -1.0902 -0.1476  0.4450
  885MOL0     H19449  10.837   0.957   8.241 -0.3907 -0.3132  0.2202
  885MOL0     H19450  10.868   0.850   8.091 -1.3620 -0.3914 -0.7941
  885MOL0     H19451  11.077   0.991   8.208 -1.2110 -0.3151  0.8047
  885MOL0     H19452  11.012   1.113   8.094 -1.3752  0.7719 -0.0128
  885MOL0     H19453  11.064   0.830   8.001 -2.3265  0.4515 -1.1547
  885MOL0     H19454  11.022   0.970   7.906  3.4999  1.7145 -1.4952
  885MOL0     H19455  10.367   0.904   8.557  3.3936 -1.2427 -2.3347
  885MOL0     H19456  10.232   0.835   8.748 -1.8687 -3.0354  1.8466
  885MOL0     H19457   9.828   0.688   8.960 -0.4408  0.2131  0.2230
  885MOL0     H19458   9.762   0.679   9.208 -1.9799 -2.1865 -2.4233
  885MOL0     H19459   8.413   0.360   9.665  1.9928 -0.2348  1.0041
  885MOL0     H19460   8.294   0.197   9.817 -3.0183  2.8178 -2.4918
  885MOL0     H19461   8.160  -0.132  10.085  0.4626  2.4251 -0.4654
  885MOL0     H19462   8.109  -0.286  10.273  2.2075 -0.1189 -2.4609
  885MOL0     H19463   8.288  -0.184  10.663  0.7742 -0.2080 -1.1297
  885MOL0     H19464   8.252  -0.352  10.657  1.6249  1.0012  1.7407
  885MOL0     H19465   8.006  -0.286  10.717 -0.6750  0.6997  0.7007
  885MOL0     H19466   8.050  -0.122  10.705  0.7261  0.1868 -0.5890
  885MOL0     H19467   8.244  -0.251  10.878 -0.1077 -1.8146 -1.7672
  885MOL0     H19468   8.078  -0.291  10.931  1.7237 -0.2981 -1.5586
  885MOL0     H19469   8.033  -0.024  10.938 -0.1122  0.5079  0.6772
  885MOL0     H19470   8.162  -0.079  11.050  2.0326 -1.2431 -1.1215
  885MOL0     H19471   8.362   0.171  10.799  1.2069  0.3858  1.2301
  885MOL0     H19472   8.266  -0.002  10.549 -2.7194 -1.1264  1.4471
  885MOL0     H19473   8.445   0.195  10.375  0.3984 -2.6487 -2.2621
  885MOL0     H19474   8.275   0.257  10.327  1.7172 -0.4504 -2.2322
  885MOL0     H19475   8.325   0.206  10.493  2.2042 -3.2262  1.2869
  886MOL0     O19476   1.535  11.310   8.183  1.0476 -0.0996  0.1336
  886MOL0     C19477   1.583  11.322   8.072  1.2430  0.2453 -0.7462
  886MOL0     O19478   1.634  11.216   7.994 -0.6489  0.1368  0.1784
  886MOL0     C19479   1.639  11.091   8.032 -0.2634 -0.0449  0.4150
  886MOL0     C19480   1.625  11.033   8.161  0.6309  0.5060  0.3577
  886MOL0     C19481   1.622  10.889   8.174  0.3574 -0.4442 -0.3096
  886MOL0     C19482   1.651  10.801   8.065  0.1849 -0.1373  0.1895
  886MOL0     O19483   1.646  10.674   8.088  1.0551  0.1151 -0.5860
  886MOL0     C19484   1.780  10.630   8.122  0.1038  0.7422  0.4226
  886MOL0     C19485   1.776  10.555   8.255  0.2101  0.3010 -0.0691
  886MOL0     C19486   1.908  10.514   8.311 -0.0481  0.3536 -0.4322
  886MOL0     C19487   2.007  10.428   8.208  0.4571  0.3022 -0.4089
  886MOL0     C19488   2.101  10.345   8.295  0.5332  0.1208  0.2270
  886MOL0     C19489   2.229  10.292   8.212 -0.2700  0.0264  0.0201
  886MOL0     C19490   2.204  10.182   8.111  0.0450  0.5670  0.2870
  886MOL0     C19491   2.344  10.146   8.050  0.1547  0.1475  0.0526
  886MOL0     N19492   2.415  10.241   7.959  0.8202  0.3799 -0.3550
  886MOL0     C19493   2.545  10.235   7.946 -0.0977  1.1258 -0.5601
  886MOL0     C19494   2.572  10.343   7.877  0.5362 -0.8140 -0.0542
  886MOL0     C19495   2.708  10.361   7.820 -1.0921  1.1943 -0.5471
  886MOL0     C19496   2.727  10.280   7.694 -0.8182 -0.0434 -0.5366
  886MOL0     C19497   2.747  10.129   7.706  0.2809 -0.3820  0.8333
  886MOL0     C19498   2.785  10.066   7.571  0.1791  0.4101 -0.3616
  886MOL0     O19499   2.851   9.938   7.604  0.8083  0.3738 -1.0095
  886MOL0     C19500   2.782   9.817   7.570 -0.6776 -0.1229  0.1117
  886MOL0     C19501   2.659   9.792   7.632  0.0438 -0.3676  0.8015
  886MOL0     C19502   2.596   9.672   7.600  0.3082  0.0187 -0.6400
  886MOL0     C19503   2.649   9.580   7.509 -0.2552  0.5104  0.0785
  886MOL0     C19504   2.576   9.452   7.483  1.0622 -0.2375 -0.4130
  886MOL0     O19505   2.631   9.372   7.381  0.0993 -0.7568 -0.8839
  886MOL0     C19506   2.566   9.259   7.360  0.4511  0.5953  0.3886
  886MOL0     C19507   2.437   9.261   7.294 -0.8982 -0.2457 -0.0823
  886MOL0     C19508   2.374   9.146   7.252 -0.1423 -0.2981 -0.1483
  886MOL0     C19509   2.439   9.027   7.278  0.1042 -0.1553  0.1209
  886MOL0     O19510   2.368   8.908   7.241 -0.7447 -0.4461 -0.9683
  886MOL0     C19511   2.263   8.908   7.146 -0.8115 -0.2215  0.4605
  886MOL0     C19512   2.135   8.882   7.226  0.9291  0.6002 -0.4901
  886MOL0     C19513   2.016   8.873   7.129 -0.5622  0.5323 -0.2804
  886MOL0     C19514   1.882   8.855   7.194 -0.2385  0.2362  0.1145
  886MOL0     C19515   1.777   8.838   7.088  0.2553 -0.2077 -0.3921
  886MOL0     C19516   1.646   8.805   7.156  0.8244 -0.1995  0.7933
  886MOL0     C19517   1.532   8.755   7.046 -0.2898  0.2183  0.2957
  886MOL0     C19518   1.398   8.805   7.093  0.2416 -0.7266 -0.1272
  886MOL0    Cl19519   1.369   8.730   7.261 -0.8552  0.0655 -0.3202
  886MOL0     C19520   2.558   9.018   7.349 -0.2342  0.1981  0.9849
  886MOL0     C19521   2.617   9.131   7.389  0.1795  1.1495  0.5021
  886MOL0     O19522   2.484   9.424   7.559 -0.6064  0.3689 -0.3920
  886MOL0     C19523   2.765   9.609   7.435  0.1294  0.4344  1.3595
  886MOL0     C19524   2.828   9.731   7.469  0.4181  1.0476  0.8861
  886MOL0     N19525   2.463  10.428   7.874 -0.6387  0.4868  0.2799
  886MOL0     N19526   2.361  10.349   7.906 -0.5500  0.1869 -0.5086
  886MOL0     C19527   1.677  10.856   7.946  1.1297 -0.0875 -0.1164
  886MOL0     C19528   1.672  10.999   7.927 -0.9772 -0.5535  0.6679
  886MOL0     C19529   1.610  11.466   8.033 -0.7722 -0.2275 -0.7272
  886MOL0     C19530   1.525  11.572   8.072 -0.4224  0.4820  0.3301
  886MOL0     C19531   1.544  11.700   8.021  0.2088 -0.1511 -0.5157
  886MOL0     C19532   1.649  11.731   7.938 -0.2403  0.2850  0.5538
  886MOL0     O19533   1.676  11.852   7.891 -0.5437  1.0312  0.2409
  886MOL0     C19534   1.695  11.869   7.748  0.8884  0.3392 -0.3511
  886MOL0     C19535   1.555  11.879   7.678 -0.6541  0.1974  0.8003
  886MOL0     C19536   1.480  11.748   7.665  0.0299  0.1703 -0.3620
  886MOL0     C19537   1.364  11.776   7.560 -0.3897  0.2955  0.3738
  886MOL0     C19538   1.300  11.646   7.530 -0.0806 -0.6814 -0.2506
  886MOL0     C19539   1.264  11.534   7.498  0.0654 -0.2220  0.7900
  886MOL0     C19540   1.748  11.639   7.922 -0.2266  0.3669 -0.3982
  886MOL0     C19541   1.731  11.511   7.967  0.5374  1.0439  0.0872
  886MOL0     C19542   1.849  11.416   7.964  0.3404 -0.2742  0.3250
  886MOL0     H19543   1.607  11.087   8.254  1.4244 -0.2314  0.9500
  886MOL0     H19544   1.610  10.864   8.279  3.1465  1.0027  0.4384
  886MOL0     H19545   1.822  10.571   8.040  2.1761  2.5773  0.0504
  886MOL0     H19546   1.846  10.717   8.130 -0.5232  1.2085  0.6563
  886MOL0     H19547   1.713  10.467   8.238 -0.1447  0.6073 -0.3600
  886MOL0     H19548   1.731  10.613   8.337 -2.4687  1.6914 -2.3588
  886MOL0     H19549   1.886  10.461   8.404  0.5213  0.3543 -0.2950
  886MOL0     H19550   1.961  10.608   8.332  2.2060 -0.7887 -0.7358
  886MOL0     H19551   1.939  10.370   8.145 -1.2017  1.0992  0.5797
  886MOL0     H19552   2.061  10.498   8.144  0.6242 -0.3823 -1.0332
  886MOL0     H19553   2.139  10.398   8.383 -0.2889 -1.1591  1.3997
  886MOL0     H19554   2.038  10.265   8.335 -0.9700  1.9535  1.7247
  886MOL0     H19555   2.284  10.372   8.161 -0.1112  0.1786  0.4275
  886MOL0     H19556   2.309  10.260   8.280 -0.4167 -1.6442 -0.5448
  886MOL0     H19557   2.134  10.222   8.037  1.6651  1.3524 -0.8942
  886MOL0     H19558   2.151  10.097   8.154 -0.8973  1.5864  1.2076
  886MOL0     H19559   2.408  10.127   8.137 -2.1238  1.4903  2.1428
  886MOL0     H19560   2.324  10.055   7.993 -2.9931 -1.3337  3.1444
  886MOL0     H19561   2.613  10.155   7.972 -0.7114  1.2719  1.6200
  886MOL0     H19562   2.736  10.464   7.798  4.0581  0.5901  1.6711
  886MOL0     H19563   2.775  10.320   7.897 -1.1181  2.0952 -0.0344
  886MOL0     H19564   2.633  10.277   7.639 -2.5841 -0.2305  2.2956
  886MOL0     H19565   2.809  10.318   7.632 -0.6180 -1.4428 -1.1680
  886MOL0     H19566   2.657  10.090   7.756  2.0234 -2.0664  2.8928
  886MOL0     H19567   2.839  10.114   7.764  3.0316  0.0312 -3.0351
  886MOL0     H19568   2.858  10.125   7.516  3.2226 -3.6428 -1.1019
  886MOL0     H19569   2.693  10.056   7.513  0.2051 -2.4034 -0.0897
  886MOL0     H19570   2.623   9.865   7.703 -0.5117  1.4804 -1.2955
  886MOL0     H19571   2.515   9.640   7.665  3.4234 -0.7067  3.2655
  886MOL0     H19572   2.391   9.359   7.287 -0.2481 -0.0762 -3.0473
  886MOL0     H19573   2.283   9.173   7.200 -0.3930  0.5724  0.7250
  886MOL0     H19574   2.251   8.997   7.085 -0.7003 -0.8836 -0.5472
  886MOL0     H19575   2.274   8.834   7.066  1.1036 -0.2275  0.6866
  886MOL0     H19576   2.149   8.786   7.277  1.2646  1.3698  0.8980
  886MOL0     H19577   2.112   8.959   7.300 -1.4862 -1.8015  1.4684
  886MOL0     H19578   2.007   8.955   7.057 -4.3739  1.4389  0.9711
  886MOL0     H19579   2.047   8.784   7.074  1.7923  1.9894 -1.4390
  886MOL0     H19580   1.860   8.940   7.259  0.3007  1.3892 -1.1601
  886MOL0     H19581   1.886   8.763   7.254 -0.7698  0.1325  0.0019
  886MOL0     H19582   1.795   8.757   7.017 -4.4713 -2.9519  1.0704
  886MOL0     H19583   1.757   8.935   7.042 -0.1036 -0.7399 -1.3968
  886MOL0     H19584   1.668   8.717   7.218  0.8215 -1.6749 -1.2179
  886MOL0     H19585   1.595   8.886   7.208 -1.9925 -1.3107 -0.0350
  886MOL0     H19586   1.537   8.646   7.040 -1.0162  0.1784  0.3682
  886MOL0     H19587   1.555   8.801   6.949 -3.5196  3.8178  1.0104
  886MOL0     H19588   1.396   8.914   7.088  1.6810 -0.6187  1.0471
  886MOL0     H19589   1.322   8.753   7.033  1.1213 -1.1426 -0.9010
  886MOL0     H19590   2.611   8.923   7.353 -1.9318 -0.7620  1.6734
  886MOL0     H19591   2.715   9.128   7.435  0.9037  3.9597 -0.6712
  886MOL0     H19592   2.800   9.554   7.348  0.4456  0.6326  1.3608
  886MOL0     H19593   2.912   9.744   7.402  0.2213 -1.9920 -0.1258
  886MOL0     H19594   1.713  10.784   7.873  0.7479 -1.0060  0.5824
  886MOL0     H19595   1.688  11.038   7.827 -2.6882  1.3579  1.0763
  886MOL0     H19596   1.444  11.554   8.141  0.0332 -1.2166  0.4875
  886MOL0     H19597   1.488  11.783   8.063  0.5696  1.4709 -3.0506
  886MOL0     H19598   1.754  11.787   7.705  2.5472  1.5858 -0.5795
  886MOL0     H19599   1.758  11.957   7.734  0.4835  0.5374 -0.9498
  886MOL0     H19600   1.568  11.914   7.576  0.3412  0.3454  0.9698
  886MOL0     H19601   1.494  11.955   7.728 -1.4612  0.3817 -0.4101
  886MOL0     H19602   1.438  11.733   7.764 -4.4398  2.2212 -1.6815
  886MOL0     H19603   1.544  11.669   7.624 -0.6848  0.1266 -1.4455
  886MOL0     H19604   1.289  11.840   7.608 -0.2718 -0.8724  2.2277
  886MOL0     H19605   1.385  11.824   7.464 -3.1595 -1.1984 -1.0862
  886MOL0     H19606   1.233  11.432   7.490  0.5740 -0.2381 -1.7258
  886MOL0     H19607   1.841  11.652   7.869 -0.4954 -3.8032 -2.3404
  886MOL0     H19608   1.943  11.466   7.937 -0.7380  1.1519 -0.9268
  886MOL0     H19609   1.857  11.379   8.067 -1.2161  0.2932  0.6748
  886MOL0     H19610   1.827  11.338   7.890 -0.2271  1.0136 -0.9043
  887MOL0     O19611  10.751  11.116  11.356  0.1759  0.4018 -0.6196
  887MOL0     C19612  10.699  11.222  11.366 -0.3920 -0.6172 -0.4613
  887MOL0     O19613  10.684  11.293  11.481  0.3757  0.8188  0.2551
  887MOL0     C19614  10.728  11.227  11.593 -0.0054 -0.8274 -0.2336
  887MOL0     C19615  10.643  11.137  11.665  0.6852 -0.3531  0.9662
  887MOL0     C19616  10.676  11.067  11.778 -0.9262  1.0687 -0.4028
  887MOL0     C19617  10.799  11.109  11.840  0.4503 -0.2193 -0.4535
  887MOL0     O19618  10.831  11.064  11.969  0.7151 -0.6128  0.1461
  887MOL0     C19619  10.787  10.932  12.019  0.1407 -0.5713  0.0004
  887MOL0     C19620  10.689  10.960  12.123 -0.2751 -0.4560 -1.2997
  887MOL0     C19621  10.621  10.830  12.163  0.1625 -0.6153  0.5318
  887MOL0     C19622  10.546  10.861  12.304 -0.0237 -1.0799  0.5413
  887MOL0     C19623  10.393  10.857  12.289  0.3062  0.3895  0.4398
  887MOL0     C19624  10.315  10.875  12.425 -1.4480 -0.1144  0.5021
  887MOL0     C19625  10.167  10.852  12.412 -0.3246 -0.0449 -0.0148
  887MOL0     C19626  10.092  10.872  12.551 -1.2901  0.0142 -0.4858
  887MOL0     N19627   9.944  10.859  12.524 -0.2183  0.2932  0.0685
  887MOL0     C19628   9.871  10.949  12.460  0.1529 -0.2970  0.2310
  887MOL0     C19629   9.747  10.914  12.489 -0.2354  0.1297 -1.5337
  887MOL0     C19630   9.637  10.980  12.437  0.5358 -0.0085 -0.7328
  887MOL0     C19631   9.523  10.980  12.545 -0.3249 -0.2661 -0.4734
  887MOL0     C19632   9.404  11.050  12.474 -0.5053  0.5152  0.0576
  887MOL0     C19633   9.276  11.025  12.546 -0.3190  0.7600 -0.1834
  887MOL0     O19634   9.155  11.073  12.486 -0.3180  0.3516  0.3081
  887MOL0     C19635   9.037  11.018  12.524  0.6063 -0.2000 -0.6338
  887MOL0     C19636   8.938  11.018  12.423  0.0169  0.8758  0.0923
  887MOL0     C19637   8.812  10.974  12.465  0.9893 -0.3258  0.7877
  887MOL0     C19638   8.782  10.940  12.599  0.0861  0.0680  0.4199
  887MOL0     C19639   8.656  10.876  12.631  0.1134 -0.8696  0.5334
  887MOL0     O19640   8.535  10.908  12.569  0.6941  0.4075 -0.5241
  887MOL0     C19641   8.427  10.823  12.585  0.4590 -0.5015  0.1337
  887MOL0     C19642   8.382  10.771  12.698  0.0711 -0.0610 -0.7033
  887MOL0     C19643   8.274  10.682  12.696  0.3492 -0.2372 -0.1543
  887MOL0     C19644   8.196  10.671  12.581 -0.4414  0.2248  0.4796
  887MOL0     O19645   8.080  10.607  12.573  0.3661 -0.1754 -0.4779
  887MOL0     C19646   8.062  10.487  12.654  0.0070 -0.0254  0.1308
  887MOL0     C19647   7.954  10.397  12.607 -0.0550 -0.5307 -0.5039
  887MOL0     C19648   7.921  10.287  12.714  0.6060 -0.2651 -0.0125
  887MOL0     C19649   7.829  10.181  12.658  0.3664 -0.4672  0.2504
  887MOL0     C19650   7.798  10.066  12.758 -0.0509  0.0738 -0.3305
  887MOL0     C19651   7.704   9.962  12.714  0.0828  0.6284 -0.3619
  887MOL0     C19652   7.686   9.849  12.822  0.0959  0.6867  0.2304
  887MOL0     C19653   7.550   9.789  12.821 -0.4456  0.3457  1.2973
  887MOL0    Cl19654   7.520   9.690  12.671  0.1383 -0.4480  0.1714
  887MOL0     C19655   8.235  10.737  12.463 -0.6661 -0.8415  0.8031
  887MOL0     C19656   8.347  10.810  12.468  0.9369 -0.7269  0.0163
  887MOL0     O19657   8.669  10.776  12.697 -0.2054 -0.0267  0.0763
  887MOL0     C19658   8.875  10.962  12.694 -0.9941  0.5620 -0.7926
  887MOL0     C19659   9.001  10.990  12.655  0.3043  0.9769 -0.4107
  887MOL0     N19660   9.748  10.798  12.564 -0.5205  0.2675 -0.2147
  887MOL0     N19661   9.870  10.787  12.603 -0.6261  1.0241  0.3897
  887MOL0     C19662  10.887  11.196  11.776 -0.4705  0.3760 -0.7196
  887MOL0     C19663  10.857  11.249  11.652 -0.2093 -0.7690  0.5618
  887MOL0     C19664  10.641  11.276  11.238 -1.0541 -0.1551  0.2046
  887MOL0     C19665  10.628  11.415  11.229 -0.3209  0.0073  0.1931
  887MOL0     C19666  10.575  11.475  11.113 -0.3570  0.7638  0.1143
  887MOL0     C19667  10.552  11.402  10.999 -0.6446 -0.5806 -0.2168
  887MOL0     O19668  10.525  11.462  10.876 -0.2991 -0.0593 -0.2094
  887MOL0     C19669  10.527  11.610  10.881  0.3278  0.2608  0.4702
  887MOL0     C19670  10.510  11.663  10.741  0.4961  0.5710  0.2164
  887MOL0     C19671  10.367  11.621  10.703 -0.0386  0.8087  0.2818
  887MOL0     C19672  10.329  11.637  10.557 -0.2247 -0.6112 -0.1425
  887MOL0     C19673  10.423  11.583  10.460 -0.2604 -0.1854 -0.1322
  887MOL0     C19674  10.494  11.546  10.375  0.0183  0.4003  0.4668
  887MOL0     C19675  10.560  11.266  11.010 -0.0314 -0.2333  0.4461
  887MOL0     C19676  10.605  11.197  11.125  0.5319  0.3215  0.5585
  887MOL0     C19677  10.604  11.048  11.118  0.0925  0.8245 -1.5222
  887MOL0     H19678  10.547  11.118  11.618  0.3976  1.5097  0.7372
  887MOL0     H19679  10.606  10.999  11.826  1.3474 -2.5989 -1.8022
  887MOL0     H19680  10.742  10.879  11.934 -2.2293  3.0225 -1.1642
  887MOL0     H19681  10.866  10.863  12.051  1.6598  1.4952  0.9626
  887MOL0     H19682  10.617  11.039  12.101  2.5553  3.2256  1.3836
  887MOL0     H19683  10.744  10.995  12.211  0.4382  0.3994 -2.0672
  887MOL0     H19684  10.699  10.755  12.174 -0.9354 -1.8933 -0.1227
  887MOL0     H19685  10.549  10.800  12.086 -0.8032  1.2064  0.6729
  887MOL0     H19686  10.565  10.787  12.382  2.7361  0.2222  1.2249
  887MOL0     H19687  10.583  10.955  12.346 -3.9763  0.0074  2.0965
  887MOL0     H19688  10.368  10.932  12.214  1.2914  0.3612  0.0637
  887MOL0     H19689  10.374  10.757  12.248  2.2537 -0.1155  0.6566
  887MOL0     H19690  10.354  10.795  12.489 -2.3032 -2.5151 -1.8125
  887MOL0     H19691  10.327  10.979  12.456  4.2904  0.7250 -3.1510
  887MOL0     H19692  10.154  10.747  12.387  0.7575  0.5360 -3.5392
  887MOL0     H19693  10.130  10.927  12.342  1.2912  0.2100 -0.6383
  887MOL0     H19694  10.127  10.792  12.618  1.0847  1.3229 -0.0543
  887MOL0     H19695  10.113  10.963  12.607 -2.2410  0.1686 -0.3674
  887MOL0     H19696   9.903  11.035  12.402  3.3778 -1.6993 -0.3127
  887MOL0     H19697   9.660  11.084  12.409 -1.2054  0.5514 -0.2685
  887MOL0     H19698   9.599  10.932  12.347 -1.7581 -0.0961  0.2011
  887MOL0     H19699   9.514  10.879  12.586  0.2290 -0.5938 -1.1287
  887MOL0     H19700   9.567  11.043  12.623 -0.1470 -3.7213  2.4899
  887MOL0     H19701   9.393  11.016  12.370  1.5139 -1.8014  0.5150
  887MOL0     H19702   9.417  11.158  12.468  1.3306  0.2421 -2.9416
  887MOL0     H19703   9.271  11.071  12.645  1.1748  0.2106  0.1788
  887MOL0     H19704   9.260  10.917  12.558  1.4292  0.1388 -2.5496
  887MOL0     H19705   8.944  11.048  12.319 -0.7155 -1.9537 -0.8487
  887MOL0     H19706   8.726  10.974  12.398  1.8518  2.1930 -0.4431
  887MOL0     H19707   8.443  10.795  12.785  2.0037 -4.7402 -0.4496
  887MOL0     H19708   8.239  10.637  12.788 -0.4582 -2.2931 -1.4153
  887MOL0     H19709   8.156  10.435  12.636  1.1928  2.6077 -1.9220
  887MOL0     H19710   8.047  10.512  12.760 -0.7662  0.6528 -0.1243
  887MOL0     H19711   7.862  10.455  12.601 -0.0738 -0.4299  0.5800
  887MOL0     H19712   7.974  10.362  12.505 -0.5678  1.7287 -1.4527
  887MOL0     H19713   8.010  10.240  12.757  1.2440 -2.9304 -3.7848
  887MOL0     H19714   7.880  10.338  12.802 -2.3157 -1.4572 -0.5328
  887MOL0     H19715   7.850  10.142  12.558 -0.1081 -0.2019  0.0477
  887MOL0     H19716   7.731  10.229  12.653 -0.0065 -0.5051  4.0060
  887MOL0     H19717   7.773  10.109  12.855 -1.5448  0.1964 -0.7392
  887MOL0     H19718   7.895  10.020  12.780 -0.9266 -0.8735  1.8154
  887MOL0     H19719   7.607  10.012  12.701 -0.0557  0.4372 -0.0602
  887MOL0     H19720   7.740   9.928  12.616  1.4405  3.2378 -0.8589
  887MOL0     H19721   7.703   9.896  12.919 -0.5914 -2.2089  1.8816
  887MOL0     H19722   7.759   9.769  12.810 -1.3365 -0.4690 -1.2299
  887MOL0     H19723   7.534   9.723  12.907 -2.7057 -2.0678 -0.7943
  887MOL0     H19724   7.473   9.867  12.834  0.9099  1.8320  0.6809
  887MOL0     H19725   8.176  10.737  12.372 -1.0607 -0.5143  1.0568
  887MOL0     H19726   8.370  10.875  12.385 -1.1849 -1.3482 -1.1480
  887MOL0     H19727   8.845  10.929  12.793  1.3605  0.1589 -0.1467
  887MOL0     H19728   9.075  11.006  12.734 -0.1646 -0.0637  0.2748
  887MOL0     H19729  10.971  11.236  11.832 -0.3811  0.4377 -0.8947
  887MOL0     H19730  10.939  11.308  11.609 -1.2453 -0.3674 -0.9613
  887MOL0     H19731  10.656  11.487  11.305 -3.5794  2.2539 -0.5472
  887MOL0     H19732  10.571  11.583  11.120  0.3669  0.6775  2.8375
  887MOL0     H19733  10.628  11.647  10.900 -0.1969  1.3472  1.2227
  887MOL0     H19734  10.457  11.650  10.955 -0.1298 -1.2105  0.8658
  887MOL0     H19735  10.579  11.624  10.665 -3.0740 -0.6645 -2.6592
  887MOL0     H19736  10.516  11.773  10.739 -1.5234  0.7553 -3.6791
  887MOL0     H19737  10.297  11.671  10.770 -2.8317 -2.3166 -0.0167
  887MOL0     H19738  10.358  11.512  10.715 -0.0514  0.3635 -2.8610
  887MOL0     H19739  10.239  11.579  10.535 -0.6912  0.4780 -1.2287
  887MOL0     H19740  10.304  11.743  10.546  1.9197 -0.1131 -0.6660
  887MOL0     H19741  10.571  11.511  10.309 -0.8353 -3.3923  1.2730
  887MOL0     H19742  10.551  11.206  10.921 -0.7235 -1.9073  1.5876
  887MOL0     H19743  10.708  11.021  11.138  0.2234  0.3381 -2.7690
  887MOL0     H19744  10.533  11.016  11.195 -0.3523  4.6948 -0.0944
  887MOL0     H19745  10.572  11.010  11.021 -0.1793  1.4513 -1.6820
  888MOL0     O19746   9.679   6.836   7.554 -0.0719 -0.4200  0.0912
  888MOL0     C19747   9.781   6.879   7.491 -0.7170  0.1814  0.7227
  888MOL0     O19748   9.837   7.005   7.494 -0.1905  0.4498 -0.4371
  888MOL0     C19749   9.755   7.100   7.545  0.0101  0.6200  0.1194
  888MOL0     C19750   9.738   7.114   7.684  0.9096  0.7565 -0.4656
  888MOL0     C19751   9.649   7.209   7.742 -0.7409  0.8709  0.4533
  888MOL0     C19752   9.558   7.279   7.666  0.2251  0.6204  0.3128
  888MOL0     O19753   9.478   7.383   7.704 -0.6323 -0.4692 -0.8585
  888MOL0     C19754   9.376   7.349   7.793 -0.8025  0.2242 -0.0933
  888MOL0     C19755   9.293   7.481   7.835 -0.1407  0.9188 -0.0036
  888MOL0     C19756   9.205   7.530   7.714  0.6666 -0.5361  0.3485
  888MOL0     C19757   9.064   7.465   7.730  0.8466 -0.6853  0.2038
  888MOL0     C19758   8.972   7.526   7.615 -0.3404  0.3094 -0.7686
  888MOL0     C19759   8.824   7.497   7.634  0.4839  0.7883 -0.6986
  888MOL0     C19760   8.747   7.498   7.495  0.5890 -0.0727  0.3973
  888MOL0     C19761   8.739   7.647   7.429 -0.2264  0.8615 -0.1402
  888MOL0     N19762   8.683   7.625   7.291  1.0890  0.1756 -0.0181
  888MOL0     C19763   8.548   7.652   7.258  0.0564  0.1911 -0.6736
  888MOL0     C19764   8.533   7.608   7.130  0.5444  0.5478 -0.6572
  888MOL0     C19765   8.410   7.605   7.043 -0.1537 -0.1976  0.1740
  888MOL0     C19766   8.403   7.737   6.974 -0.6438 -0.3406  0.1887
  888MOL0     C19767   8.484   7.745   6.840 -0.3200 -0.6175  0.9282
  888MOL0     C19768   8.455   7.877   6.781 -0.2010 -0.6533 -0.7546
  888MOL0     O19769   8.321   7.887   6.733 -0.0409 -0.2487  0.2741
  888MOL0     C19770   8.286   7.830   6.617 -0.7475 -1.5241 -0.4267
  888MOL0     C19771   8.299   7.903   6.493  0.1934  0.2161  0.2680
  888MOL0     C19772   8.244   7.847   6.372 -0.4815 -0.3536 -1.2527
  888MOL0     C19773   8.193   7.719   6.376  0.3039  0.3284  0.2640
  888MOL0     C19774   8.144   7.638   6.264 -0.0221  0.1611 -0.7011
  888MOL0     O19775   8.171   7.699   6.142  0.8858 -0.1079  0.7688
  888MOL0     C19776   8.149   7.620   6.033 -0.1597 -0.0300 -0.6934
  888MOL0     C19777   8.047   7.646   5.939  0.7138  0.2650 -0.7016
  888MOL0     C19778   8.018   7.567   5.827  0.2118 -0.0701 -0.1762
  888MOL0     C19779   8.103   7.457   5.802 -0.0087 -1.0302  0.1618
  888MOL0     O19780   8.085   7.377   5.693 -0.2212 -0.2126  0.5653
  888MOL0     C19781   8.190   7.351   5.604 -0.3414 -0.6731  0.2773
  888MOL0     C19782   8.236   7.475   5.517 -0.1632  0.8516 -0.1286
  888MOL0     C19783   8.121   7.530   5.431 -0.3366  0.5810  0.9346
  888MOL0     C19784   8.161   7.651   5.349 -0.3343 -0.2980 -0.1370
  888MOL0     C19785   8.051   7.680   5.242 -0.4991 -0.2489  0.6224
  888MOL0     C19786   8.108   7.772   5.131 -0.3410  0.4565 -0.8485
  888MOL0     C19787   7.990   7.851   5.074  0.0571 -0.2114 -0.5791
  888MOL0     C19788   8.045   7.925   4.956  0.2292 -0.2753 -1.3014
  888MOL0    Cl19789   7.903   7.990   4.881  0.0157  0.2962  0.3897
  888MOL0     C19790   8.211   7.433   5.894 -0.2400 -0.4600  0.4205
  888MOL0     C19791   8.233   7.519   6.002 -0.2324 -0.0044 -0.1510
  888MOL0     O19792   8.075   7.546   6.274 -0.3374  0.5005 -0.1772
  888MOL0     C19793   8.175   7.663   6.503  0.4551 -1.1648  0.4599
  888MOL0     C19794   8.234   7.706   6.616  0.3121 -0.2812 -0.1775
  888MOL0     N19795   8.653   7.558   7.085 -0.4883  0.0241  0.7721
  888MOL0     N19796   8.742   7.564   7.186 -0.9994 -0.3468  0.9747
  888MOL0     C19797   9.570   7.260   7.526  0.1395  0.6189  0.0999
  888MOL0     C19798   9.660   7.175   7.463 -0.0102 -0.5311 -0.5668
  888MOL0     C19799   9.885   6.780   7.457  0.1362  0.3206 -0.3929
  888MOL0     C19800  10.015   6.798   7.511  0.5277 -1.4331  0.8317
  888MOL0     C19801  10.113   6.703   7.477  0.0062  0.2154 -0.7588
  888MOL0     C19802  10.085   6.586   7.412  0.2914  0.1898 -0.0589
  888MOL0     O19803  10.192   6.497   7.407  0.2614  0.0520  0.1121
  888MOL0     C19804  10.179   6.384   7.317  0.7850 -0.9562 -0.8407
  888MOL0     C19805  10.118   6.264   7.383  0.2225 -0.0613  0.3540
  888MOL0     C19806  10.092   6.146   7.291  0.3260  0.5043 -0.7609
  888MOL0     C19807   9.977   6.057   7.328  0.2815 -0.0245  0.4903
  888MOL0     C19808   9.851   6.113   7.290  1.2791  0.1543  1.3181
  888MOL0     C19809   9.734   6.135   7.279  0.0728 -0.7038  0.0076
  888MOL0     C19810   9.958   6.568   7.358  0.6526 -0.0066  0.7505
  888MOL0     C19811   9.858   6.663   7.380  0.1599  0.0067 -0.8919
  888MOL0     C19812   9.724   6.649   7.304  0.5019 -0.0943 -0.6364
  888MOL0     H19813   9.781   7.030   7.738 -2.0847 -1.8350 -1.7197
  888MOL0     H19814   9.661   7.211   7.850  1.0391 -3.7656  0.5943
  888MOL0     H19815   9.310   7.282   7.737  0.6378  0.6448 -2.4231
  888MOL0     H19816   9.411   7.297   7.882  0.2493  0.5666 -0.2938
  888MOL0     H19817   9.360   7.555   7.879  3.3580 -1.0802 -1.5021
  888MOL0     H19818   9.224   7.456   7.917  0.2535 -1.2590 -0.2577
  888MOL0     H19819   9.243   7.508   7.614  1.0300 -0.0523  0.3732
  888MOL0     H19820   9.187   7.637   7.731 -2.3648 -0.8926 -0.1777
  888MOL0     H19821   9.071   7.356   7.732 -1.4380 -1.0249 -2.8631
  888MOL0     H19822   9.025   7.497   7.827 -2.2870  0.9277 -1.4210
  888MOL0     H19823   8.998   7.632   7.608  0.8565  0.6082  4.4827
  888MOL0     H19824   9.011   7.484   7.521  1.1192  1.9900 -0.9476
  888MOL0     H19825   8.809   7.399   7.679 -2.5216  0.4669 -2.2306
  888MOL0     H19826   8.775   7.568   7.701 -2.1167 -2.6012  1.3303
  888MOL0     H19827   8.644   7.465   7.510  0.4953 -1.1458 -2.1587
  888MOL0     H19828   8.791   7.422   7.431 -0.0464  0.2144 -0.3953
  888MOL0     H19829   8.682   7.721   7.485  1.7827  3.5577 -1.4127
  888MOL0     H19830   8.836   7.697   7.426  0.0033  0.4307 -3.4344
  888MOL0     H19831   8.476   7.700   7.323  1.0514  2.6252 -1.2660
  888MOL0     H19832   8.422   7.524   6.971  0.8689  1.2986 -1.4059
  888MOL0     H19833   8.326   7.593   7.112  0.9390 -3.4570  1.0799
  888MOL0     H19834   8.300   7.760   6.945  0.4050  1.6117 -2.3364
  888MOL0     H19835   8.430   7.817   7.043 -1.5005 -1.4568  1.8728
  888MOL0     H19836   8.454   7.657   6.783  2.3055 -0.6137 -0.6083
  888MOL0     H19837   8.592   7.731   6.853 -0.4818 -1.5363  1.3827
  888MOL0     H19838   8.531   7.911   6.711  0.5541 -0.3035  0.2136
  888MOL0     H19839   8.466   7.948   6.863 -1.7540 -4.1498  2.8398
  888MOL0     H19840   8.336   8.005   6.490  1.1343 -0.0987  0.6220
  888MOL0     H19841   8.266   7.907   6.285 -2.2435  2.1132 -0.1252
  888MOL0     H19842   7.996   7.742   5.946 -1.5534 -0.6775 -2.9213
  888MOL0     H19843   7.946   7.590   5.750  0.3304 -0.7599 -0.4933
  888MOL0     H19844   8.278   7.312   5.655  1.1609  2.4395  0.2893
  888MOL0     H19845   8.170   7.281   5.522  1.8687  1.7332 -2.5322
  888MOL0     H19846   8.291   7.550   5.576  1.7136  0.6690 -1.5285
  888MOL0     H19847   8.320   7.434   5.460  0.8691 -1.7423  2.9797
  888MOL0     H19848   8.078   7.448   5.374 -2.3115  2.1378  0.0442
  888MOL0     H19849   8.048   7.564   5.505 -3.1447 -1.0216 -0.9281
  888MOL0     H19850   8.260   7.639   5.304 -0.1118  0.7683  0.0638
  888MOL0     H19851   8.164   7.743   5.408 -0.0034  0.7069 -1.6614
  888MOL0     H19852   7.969   7.733   5.293  1.5295  1.0948  2.6754
  888MOL0     H19853   8.020   7.584   5.201  0.4680 -0.4971  0.4515
  888MOL0     H19854   8.179   7.838   5.180 -1.2077 -0.3056  1.5682
  888MOL0     H19855   8.158   7.718   5.050  0.1456  1.0065 -0.9263
  888MOL0     H19856   7.938   7.919   5.143 -1.7188  0.6592 -2.6511
  888MOL0     H19857   7.916   7.775   5.048 -2.0227  0.5069  2.6706
  888MOL0     H19858   8.112   8.010   4.974 -3.6435  2.7562  0.2877
  888MOL0     H19859   8.100   7.856   4.891  0.8641 -2.4039  1.3376
  888MOL0     H19860   8.283   7.353   5.891 -0.7975 -1.0219  1.5012
  888MOL0     H19861   8.306   7.487   6.076  0.0105 -2.9824 -1.5275
  888MOL0     H19862   8.131   7.563   6.507 -0.6807 -0.6444  1.4943
  888MOL0     H19863   8.217   7.664   6.715  0.2451  1.6695  0.6901
  888MOL0     H19864   9.516   7.324   7.457  0.3675  0.4500 -0.2354
  888MOL0     H19865   9.666   7.180   7.354 -0.5539 -1.1345 -0.6313
  888MOL0     H19866  10.047   6.878   7.577  2.8935 -2.6438  1.2330
  888MOL0     H19867  10.216   6.712   7.511 -0.3561 -0.9265  0.7164
  888MOL0     H19868  10.282   6.361   7.288  1.6564  1.3298  0.2287
  888MOL0     H19869  10.125   6.403   7.223 -1.3030 -3.5001 -0.2758
  888MOL0     H19870  10.025   6.296   7.431 -0.6674  0.8936 -1.8830
  888MOL0     H19871  10.187   6.220   7.456  1.6005  0.2833 -0.6902
  888MOL0     H19872  10.178   6.080   7.306  0.7343  1.0522 -0.6645
  888MOL0     H19873  10.104   6.175   7.187  1.2193  2.1535 -0.2410
  888MOL0     H19874  10.003   5.959   7.289 -2.6162 -1.3869  1.6916
  888MOL0     H19875   9.973   6.046   7.437 -1.8361 -1.0007  0.3636
  888MOL0     H19876   9.627   6.136   7.269  0.3158  0.0606 -4.7180
  888MOL0     H19877   9.930   6.475   7.309 -1.1750  0.8159  0.1050
  888MOL0     H19878   9.701   6.543   7.288  1.3280 -0.0129 -2.7319
  888MOL0     H19879   9.631   6.684   7.350 -1.6119 -1.2917 -3.6552
  888MOL0     H19880   9.733   6.695   7.205 -0.6423 -2.8439 -2.1340
  889MOL0     O19881   8.358   6.075   8.708 -1.0781  0.1977 -0.2564
  889MOL0     C19882   8.321   6.164   8.788  0.6251  0.0545 -0.3849
  889MOL0     O19883   8.371   6.177   8.917  0.2890 -0.4696  0.5041
  889MOL0     C19884   8.477   6.093   8.947  0.6236 -0.8630  0.1464
  889MOL0     C19885   8.579   6.148   9.021 -0.2397  0.9420  0.1528
  889MOL0     C19886   8.694   6.080   9.066  0.1523 -0.3050  0.2352
  889MOL0     C19887   8.702   5.943   9.056 -1.2532 -0.4876 -0.0877
  889MOL0     O19888   8.809   5.876   9.117  0.2465 -0.5341 -1.0989
  889MOL0     C19889   8.790   5.741   9.164  0.0842 -0.3968  0.1728
  889MOL0     C19890   8.906   5.692   9.251  0.0691 -0.4230 -0.1517
  889MOL0     C19891   8.869   5.568   9.330 -0.5357  0.4635  0.1921
  889MOL0     C19892   8.992   5.530   9.408 -0.0324 -0.9093 -0.6967
  889MOL0     C19893   8.970   5.405   9.505  0.4765 -0.1688  1.0659
  889MOL0     C19894   8.978   5.278   9.416 -0.1415  0.7053 -0.6694
  889MOL0     C19895   8.958   5.158   9.512 -0.3456 -0.0950  0.2732
  889MOL0     C19896   8.828   5.167   9.595 -0.3344  0.2777 -0.2706
  889MOL0     N19897   8.830   5.054   9.679  0.7240  0.1979  0.3773
  889MOL0     C19898   8.759   4.936   9.664 -0.7492 -0.0567  0.0200
  889MOL0     C19899   8.796   4.850   9.762  0.2807 -0.0703 -0.1769
  889MOL0     C19900   8.735   4.711   9.781 -0.1535 -0.2738 -0.6169
  889MOL0     C19901   8.833   4.607   9.720 -0.0457  0.7284 -0.5028
  889MOL0     C19902   8.833   4.600   9.566  0.4211 -0.0807  0.3949
  889MOL0     C19903   8.926   4.491   9.525 -0.8202  1.1456  0.0031
  889MOL0     O19904   9.063   4.533   9.541 -0.1420  0.1637 -0.0891
  889MOL0     C19905   9.137   4.555   9.426  0.1348  0.2539 -0.7805
  889MOL0     C19906   9.282   4.551   9.427 -0.0464 -0.0596 -0.4159
  889MOL0     C19907   9.354   4.553   9.309 -0.6936 -0.0325  1.0299
  889MOL0     C19908   9.292   4.589   9.190  0.1128 -0.1100  0.3500
  889MOL0     C19909   9.370   4.601   9.070 -0.4403  0.9076  0.4660
  889MOL0     O19910   9.492   4.538   9.058  0.3530  0.7841 -1.2780
  889MOL0     C19911   9.581   4.599   8.980 -0.5177  0.4932 -0.1637
  889MOL0     C19912   9.670   4.524   8.892  1.6370 -0.3436  0.3491
  889MOL0     C19913   9.770   4.590   8.822  0.5227 -0.3326 -0.6549
  889MOL0     C19914   9.790   4.730   8.828  0.6540  0.7818 -1.0498
  889MOL0     O19915   9.895   4.786   8.756 -0.2193 -0.3471  0.9872
  889MOL0     C19916   9.876   4.928   8.725  0.3069 -0.0935 -0.0354
  889MOL0     C19917   9.930   4.959   8.584 -0.7293  0.9758  0.4972
  889MOL0     C19918   9.860   5.088   8.538 -0.0045  0.0101 -0.9149
  889MOL0     C19919   9.947   5.139   8.428 -0.7436 -1.0717  1.1767
  889MOL0     C19920   9.891   5.253   8.340 -0.3725 -0.8599  0.7132
  889MOL0     C19921   9.980   5.296   8.216 -0.1450  0.1208  0.2845
  889MOL0     C19922  10.012   5.177   8.118 -0.4717  0.7968 -0.0888
  889MOL0     C19923   9.949   5.192   7.982 -0.2646 -0.4871  0.5603
  889MOL0    Cl19924   9.775   5.182   8.001  0.1915  0.0713  0.3049
  889MOL0     C19925   9.718   4.800   8.925  0.0913 -0.4555 -0.9741
  889MOL0     C19926   9.623   4.731   9.002  0.2693  0.3140 -0.5141
  889MOL0     O19927   9.332   4.683   8.989 -0.0567 -0.5395 -0.3342
  889MOL0     C19928   9.151   4.606   9.187  0.4429  0.2414  0.3240
  889MOL0     C19929   9.074   4.582   9.301  0.5236  0.2254  0.2502
  889MOL0     N19930   8.872   4.920   9.843 -0.8706  0.0902 -0.0248
  889MOL0     N19931   8.889   5.040   9.804  0.4315 -0.0136 -0.4590
  889MOL0     C19932   8.593   5.882   8.995 -0.0008  0.3394  0.2107
  889MOL0     C19933   8.486   5.952   8.935  0.4415 -0.4867  1.5650
  889MOL0     C19934   8.217   6.257   8.749  0.4280  0.1985 -0.4774
  889MOL0     C19935   8.187   6.270   8.610  0.3007  1.2268  0.5509
  889MOL0     C19936   8.073   6.342   8.573 -0.0173 -0.0986 -0.6987
  889MOL0     C19937   8.001   6.427   8.662  0.6042  0.6374 -0.0345
  889MOL0     O19938   7.893   6.492   8.617 -0.2687  0.1414  1.0803
  889MOL0     C19939   7.789   6.546   8.694  0.4194 -0.0528 -0.6601
  889MOL0     C19940   7.667   6.570   8.598 -0.5191  0.6457 -0.2960
  889MOL0     C19941   7.689   6.667   8.480  0.1429 -0.4456  0.9126
  889MOL0     C19942   7.582   6.652   8.378 -0.7934 -0.0681  0.9051
  889MOL0     C19943   7.588   6.769   8.282  0.5758 -0.3062  0.4162
  889MOL0     C19944   7.627   6.850   8.199  0.8421 -0.4688  0.2981
  889MOL0     C19945   8.035   6.421   8.793  0.4300 -0.0526  0.2777
  889MOL0     C19946   8.144   6.345   8.842  0.4833  1.4176 -0.6780
  889MOL0     C19947   8.164   6.354   8.992  0.4508  0.0234 -0.2849
  889MOL0     H19948   8.555   6.250   9.046 -1.3632  1.0702 -1.3402
  889MOL0     H19949   8.763   6.143   9.121  2.1750  0.5889 -3.0452
  889MOL0     H19950   8.696   5.727   9.218 -0.5434 -2.9399 -1.3878
  889MOL0     H19951   8.766   5.675   9.080 -0.5419 -1.5778  1.2436
  889MOL0     H19952   8.937   5.771   9.320 -1.3934  1.1948 -1.2454
  889MOL0     H19953   8.990   5.676   9.183 -0.3630  0.1768 -0.8454
  889MOL0     H19954   8.850   5.490   9.256  3.2730 -0.6338  0.1965
  889MOL0     H19955   8.798   5.583   9.412  2.1454  0.6158  2.6176
  889MOL0     H19956   9.078   5.504   9.345  2.7552  0.8763  2.0820
  889MOL0     H19957   9.019   5.613   9.475 -2.6767  0.1403 -0.7995
  889MOL0     H19958   9.042   5.393   9.587  3.4355 -0.6459 -1.3934
  889MOL0     H19959   8.873   5.426   9.551  0.4514  3.6398 -0.3782
  889MOL0     H19960   8.914   5.268   9.328 -1.7274 -2.0559  0.6508
  889MOL0     H19961   9.081   5.268   9.382 -0.2649  1.5990 -1.3491
  889MOL0     H19962   9.044   5.145   9.578 -0.8896  5.2890  2.6104
  889MOL0     H19963   8.953   5.067   9.452  2.1183 -1.2697  1.7156
  889MOL0     H19964   8.810   5.259   9.651  3.3022  0.4141  0.9778
  889MOL0     H19965   8.742   5.161   9.528  0.2730  0.1500 -1.0678
  889MOL0     H19966   8.687   4.915   9.586 -0.7258 -0.0029 -0.0159
  889MOL0     H19967   8.730   4.696   9.889 -1.7795 -0.0103 -0.6310
  889MOL0     H19968   8.635   4.706   9.737 -0.7644  1.7684  0.4021
  889MOL0     H19969   8.933   4.636   9.754 -0.1124 -1.7963  2.1973
  889MOL0     H19970   8.813   4.509   9.763 -0.7181  0.0043 -2.3360
  889MOL0     H19971   8.859   4.693   9.515 -3.0950  0.2171 -1.1940
  889MOL0     H19972   8.730   4.578   9.536  0.5802 -0.8185  0.3767
  889MOL0     H19973   8.904   4.457   9.424  1.7664  1.9101 -0.9055
  889MOL0     H19974   8.909   4.408   9.594 -1.5790 -0.2730 -1.8164
  889MOL0     H19975   9.340   4.538   9.518  0.3230 -0.6036 -0.7306
  889MOL0     H19976   9.462   4.541   9.309 -0.8229 -2.3187 -1.7802
  889MOL0     H19977   9.642   4.420   8.876  3.0683 -0.6561 -0.2545
  889MOL0     H19978   9.845   4.543   8.760  2.0941 -0.5248  1.3003
  889MOL0     H19979   9.771   4.958   8.738  0.7926  1.4282  0.5784
  889MOL0     H19980   9.944   4.979   8.793 -1.5841  0.1723  1.7902
  889MOL0     H19981  10.039   4.969   8.581 -0.8607  4.1782  2.1752
  889MOL0     H19982   9.896   4.877   8.521  0.6911  1.3000 -0.7759
  889MOL0     H19983   9.760   5.072   8.496  0.3400 -1.7895 -1.1197
  889MOL0     H19984   9.861   5.167   8.613  0.5233 -0.9465  0.1249
  889MOL0     H19985   9.961   5.057   8.357 -2.2654 -0.7618  0.4707
  889MOL0     H19986  10.042   5.168   8.475  0.7092 -1.9594 -1.0192
  889MOL0     H19987   9.850   5.336   8.399 -1.8551 -0.3887 -0.8869
  889MOL0     H19988   9.794   5.219   8.303  0.5897 -0.8677 -2.0425
  889MOL0     H19989   9.915   5.370   8.168  0.8236  1.3191  0.7732
  889MOL0     H19990  10.071   5.349   8.245 -0.5497  1.6408 -1.0451
  889MOL0     H19991   9.978   5.080   8.156  0.5133 -1.8643 -5.1782
  889MOL0     H19992  10.117   5.173   8.091 -0.0603 -2.3426  1.4740
  889MOL0     H19993   9.972   5.294   7.950 -0.8194 -1.5339 -3.7683
  889MOL0     H19994   9.978   5.118   7.907  0.8851 -0.2730  0.7766
  889MOL0     H19995   9.746   4.901   8.951  0.8474 -1.3752  2.3477
  889MOL0     H19996   9.564   4.792   9.070  0.1527  1.0123 -1.2343
  889MOL0     H19997   9.094   4.621   9.096  0.4786  1.2884  0.4553
  889MOL0     H19998   8.969   4.600   9.279  0.2018 -0.0199  1.4959
  889MOL0     H19999   8.602   5.774   8.986  1.4608  0.3864  0.7902
  889MOL0     H20000   8.405   5.905   8.881  1.9844 -0.5208 -0.8552
  889MOL0     H20001   8.254   6.216   8.544 -3.9579 -2.9869 -0.8511
  889MOL0     H20002   8.042   6.333   8.470  1.9997 -3.1469 -1.1597
  889MOL0     H20003   7.819   6.641   8.741 -0.5298 -0.0652  0.0030
  889MOL0     H20004   7.752   6.480   8.773 -0.9551  1.1208 -0.2804
  889MOL0     H20005   7.578   6.598   8.656 -0.0820 -1.2717  1.3988
  889MOL0     H20006   7.645   6.476   8.545 -0.1250  0.9084 -0.9431
  889MOL0     H20007   7.783   6.632   8.434 -1.3187 -4.6376  0.6678
  889MOL0     H20008   7.680   6.770   8.516 -0.5667  0.0329 -0.5443
  889MOL0     H20009   7.610   6.566   8.317  1.2200  0.4204  1.0600
  889MOL0     H20010   7.487   6.637   8.430 -0.4231  0.2488  1.6985
  889MOL0     H20011   7.658   6.925   8.129  0.9565 -0.5756  0.2332
  889MOL0     H20012   7.975   6.483   8.860 -0.3710  0.6992 -1.0713
  889MOL0     H20013   8.123   6.264   9.037  0.0041 -0.8469 -2.3086
  889MOL0     H20014   8.267   6.360   9.030 -0.6016  2.1615  2.6009
  889MOL0     H20015   8.113   6.440   9.038 -0.1900 -0.8332  0.6315
  890MOL0     O20016   0.896   6.828   6.824  0.0307  0.3202 -0.2857
  890MOL0     C20017   0.927   6.726   6.765  0.2138  0.3115  0.4427
  890MOL0     O20018   1.044   6.670   6.795 -0.8929 -0.0702 -0.4872
  890MOL0     C20019   1.089   6.693   6.923  0.0410 -0.4700  0.1919
  890MOL0     C20020   1.032   6.626   7.023 -0.1574 -0.7153 -0.0702
  890MOL0     C20021   1.079   6.653   7.148  0.5540 -0.7664 -1.1360
  890MOL0     C20022   1.173   6.756   7.179 -1.0383  0.7177  0.2880
  890MOL0     O20023   1.205   6.770   7.316  0.3793  0.9634 -0.2064
  890MOL0     C20024   1.284   6.881   7.367  0.1615  0.9467 -0.1839
  890MOL0     C20025   1.295   6.886   7.521  0.3644  0.0334 -0.0170
  890MOL0     C20026   1.179   6.957   7.587 -0.0126  0.5865 -0.8311
  890MOL0     C20027   1.205   6.986   7.736 -1.2593  0.5219 -0.4057
  890MOL0     C20028   1.095   7.054   7.807 -0.6634 -0.1853  0.2302
  890MOL0     C20029   1.054   7.184   7.748  0.6741  0.3313  0.3180
  890MOL0     C20030   0.924   7.231   7.815  0.2544 -0.1270  0.2739
  890MOL0     C20031   0.941   7.267   7.959  0.0687 -0.3044 -0.1633
  890MOL0     N20032   0.866   7.400   7.985  0.4265  0.5581  0.1696
  890MOL0     C20033   0.801   7.423   8.102  0.0821 -0.4077  0.1969
  890MOL0     C20034   0.754   7.548   8.094 -0.4486 -0.5808  0.0070
  890MOL0     C20035   0.645   7.588   8.198 -0.0418 -0.9475  0.5451
  890MOL0     C20036   0.509   7.582   8.137 -0.3915  0.6390 -0.0805
  890MOL0     C20037   0.461   7.438   8.130 -0.5278 -0.1601  0.7655
  890MOL0     C20038   0.318   7.422   8.106  0.5206  0.4668 -0.2154
  890MOL0     O20039   0.235   7.463   8.211  0.0891 -0.7412 -0.4188
  890MOL0     C20040   0.097   7.443   8.201 -1.0778 -0.6836  0.2982
  890MOL0     C20041   0.029   7.424   8.077  0.7042  0.2930  0.0318
  890MOL0     C20042  -0.113   7.423   8.082 -0.5229  0.0762  0.5268
  890MOL0     C20043  -0.189   7.429   8.197 -0.7293  0.1684 -0.2360
  890MOL0     C20044  -0.335   7.441   8.201  0.3263 -0.0148  0.4048
  890MOL0     O20045  -0.397   7.474   8.308  0.2157 -0.2852  0.9127
  890MOL0     C20046  -0.530   7.449   8.337  0.0082  0.2782 -0.2745
  890MOL0     C20047  -0.602   7.338   8.282 -0.5409 -0.1587  0.5454
  890MOL0     C20048  -0.733   7.315   8.308  0.1209  0.1008  0.0916
  890MOL0     C20049  -0.799   7.393   8.401  1.1595 -0.0593  0.2035
  890MOL0     O20050  -0.917   7.347   8.444  0.3079 -0.5447  0.4198
  890MOL0     C20051  -1.024   7.421   8.505 -0.1849 -0.9091 -0.7503
  890MOL0     C20052  -1.154   7.401   8.432  0.0235  0.0697  1.0429
  890MOL0     C20053  -1.157   7.423   8.281  0.4962  0.4294 -0.2561
  890MOL0     C20054  -1.233   7.539   8.243  0.2399 -0.2768  1.3176
  890MOL0     C20055  -1.212   7.575   8.094  0.6763 -0.2636  0.1375
  890MOL0     C20056  -1.261   7.458   8.007  0.3443 -0.2252 -0.6003
  890MOL0     C20057  -1.304   7.515   7.870 -0.0306 -0.5458  0.1029
  890MOL0     C20058  -1.313   7.408   7.761 -0.5051 -0.1344  0.8609
  890MOL0    Cl20059  -1.462   7.324   7.776 -0.1931  0.1926 -0.2406
  890MOL0     C20060  -0.737   7.508   8.451 -0.0968 -0.8510 -0.2358
  890MOL0     C20061  -0.602   7.540   8.417 -0.5957  0.0231 -0.2484
  890MOL0     O20062  -0.388   7.420   8.092  0.7833 -0.0303 -0.0217
  890MOL0     C20063  -0.116   7.441   8.320  0.2386  0.2533  1.2365
  890MOL0     C20064   0.021   7.453   8.317  0.6211 -1.0694 -0.1547
  890MOL0     N20065   0.801   7.607   7.973  0.2114 -0.3303  0.8601
  890MOL0     N20066   0.862   7.517   7.909 -0.0470  0.3919  0.2640
  890MOL0     C20067   1.231   6.838   7.073 -0.7963  0.2966 -0.2780
  890MOL0     C20068   1.183   6.799   6.950  0.6723 -0.0527 -0.0271
  890MOL0     C20069   0.834   6.651   6.677  0.1029 -0.1182  0.1381
  890MOL0     C20070   0.862   6.518   6.646 -0.2632  1.0363  0.0266
  890MOL0     C20071   0.768   6.430   6.590 -0.8885  0.7934 -0.9912
  890MOL0     C20072   0.647   6.476   6.541  0.1917 -0.2392  0.0765
  890MOL0     O20073   0.564   6.392   6.468 -1.0020  0.2975  0.3497
  890MOL0     C20074   0.424   6.397   6.509 -1.3574 -0.3246  0.2826
  890MOL0     C20075   0.394   6.272   6.601 -0.0263  0.0771 -0.5671
  890MOL0     C20076   0.358   6.147   6.516  0.0947  1.1087  0.1008
  890MOL0     C20077   0.392   6.014   6.599 -0.4672  0.3778  0.3375
  890MOL0     C20078   0.361   5.887   6.526  0.2053 -0.9413  0.2418
  890MOL0     C20079   0.342   5.775   6.484 -0.3977 -0.3055 -0.5594
  890MOL0     C20080   0.626   6.616   6.542  0.3448  0.2083  0.1729
  890MOL0     C20081   0.717   6.699   6.615  0.7242 -0.9600  0.4198
  890MOL0     C20082   0.656   6.837   6.635 -0.2025  1.2908 -0.0020
  890MOL0     H20083   0.956   6.551   7.004 -3.0464  1.2688  2.6540
  890MOL0     H20084   1.031   6.600   7.230 -1.8660  1.3105 -1.0862
  890MOL0     H20085   1.386   6.885   7.327  0.7944 -0.4145  1.1760
  890MOL0     H20086   1.235   6.970   7.327 -1.8681  0.8566  1.9278
  890MOL0     H20087   1.394   6.929   7.539  2.4783 -3.4561 -2.1150
  890MOL0     H20088   1.274   6.785   7.557  0.8887 -0.2480 -0.4844
  890MOL0     H20089   1.084   6.903   7.579  0.4841 -0.7521  1.4193
  890MOL0     H20090   1.157   7.048   7.530 -0.1649  1.2459  0.2523
  890MOL0     H20091   1.210   6.889   7.786 -1.2665  1.4212  1.3948
  890MOL0     H20092   1.303   7.033   7.750  0.1562 -2.0141 -0.9722
  890MOL0     H20093   1.009   6.987   7.799  1.2484 -2.9153  1.0667
  890MOL0     H20094   1.119   7.063   7.913 -0.1226  3.0918 -0.0646
  890MOL0     H20095   1.138   7.255   7.747 -0.1555  1.3343  0.2163
  890MOL0     H20096   1.020   7.177   7.645 -0.6067  1.9801  0.5833
  890MOL0     H20097   0.851   7.150   7.798  0.5332 -0.3545  0.1519
  890MOL0     H20098   0.898   7.307   7.742 -1.8274  0.4881  1.5631
  890MOL0     H20099   0.891   7.189   8.017  1.2382 -0.3249  0.8392
  890MOL0     H20100   1.045   7.272   7.990 -0.1181 -2.1177  0.9409
  890MOL0     H20101   0.798   7.353   8.185  0.4453  0.8519  1.3216
  890MOL0     H20102   0.657   7.524   8.285 -0.5088  0.6254  1.8243
  890MOL0     H20103   0.668   7.690   8.230  0.5124 -0.8650 -0.0985
  890MOL0     H20104   0.443   7.634   8.207  0.0090  4.1498 -2.1006
  890MOL0     H20105   0.511   7.630   8.039  1.4784  1.1424  0.1682
  890MOL0     H20106   0.495   7.388   8.221 -2.1510 -0.4559  1.2315
  890MOL0     H20107   0.513   7.391   8.046  0.1636 -0.0193  1.1058
  890MOL0     H20108   0.307   7.314   8.093  0.2996  0.3819  0.6357
  890MOL0     H20109   0.288   7.481   8.019 -2.7415  1.1067  1.1915
  890MOL0     H20110   0.065   7.428   7.974  0.4923  0.7261 -0.0267
  890MOL0     H20111  -0.174   7.413   7.993 -0.9149 -3.5682  1.0828
  890MOL0     H20112  -0.547   7.273   8.215  2.4615  0.6981  1.9994
  890MOL0     H20113  -0.774   7.228   8.258  0.1703  0.7937 -1.1923
  890MOL0     H20114  -1.041   7.383   8.606  2.3402 -1.0744 -0.3382
  890MOL0     H20115  -1.010   7.529   8.511 -1.4241 -0.7229 -0.8577
  890MOL0     H20116  -1.179   7.297   8.454  6.6047 -2.9597 -2.6556
  890MOL0     H20117  -1.219   7.470   8.487 -1.3447  0.0942 -0.5438
  890MOL0     H20118  -1.054   7.444   8.252  1.1226 -0.2857  1.3038
  890MOL0     H20119  -1.200   7.329   8.245 -0.0496  1.0428 -1.2327
  890MOL0     H20120  -1.193   7.624   8.299  3.0017 -0.8269  0.3376
  890MOL0     H20121  -1.340   7.528   8.262 -0.6842  1.9645 -1.7089
  890MOL0     H20122  -1.106   7.588   8.071  0.3840  0.5881 -0.7952
  890MOL0     H20123  -1.265   7.663   8.057  2.3559  0.9323  0.4421
  890MOL0     H20124  -1.180   7.385   7.998 -1.7383 -2.8764  0.8933
  890MOL0     H20125  -1.349   7.408   8.049  0.7143  0.5560  1.2439
  890MOL0     H20126  -1.246   7.602   7.839 -0.6323 -0.3056 -0.3817
  890MOL0     H20127  -1.396   7.573   7.875  0.6181  0.3880  3.2921
  890MOL0     H20128  -1.307   7.446   7.659 -2.3310  0.3086  0.8885
  890MOL0     H20129  -1.231   7.337   7.775  0.8694  0.9432 -1.1683
  890MOL0     H20130  -0.783   7.575   8.522 -1.4089 -2.0454  0.0993
  890MOL0     H20131  -0.552   7.629   8.453  1.6064 -1.1115 -0.3426
  890MOL0     H20132  -0.169   7.459   8.413  1.0494  2.3431  1.3362
  890MOL0     H20133   0.079   7.480   8.405  1.2615  2.1113 -1.4190
  890MOL0     H20134   1.299   6.922   7.082 -0.6773  0.1077  0.8239
  890MOL0     H20135   1.212   6.865   6.869  1.6057 -1.5059 -0.9299
  890MOL0     H20136   0.956   6.484   6.689  0.1959  2.5215  0.2205
  890MOL0     H20137   0.793   6.329   6.561 -1.8995  0.1624  0.2713
  890MOL0     H20138   0.359   6.388   6.422 -1.1481 -0.5216  0.1467
  890MOL0     H20139   0.404   6.486   6.569  2.5419 -0.0265  1.4007
  890MOL0     H20140   0.303   6.293   6.657 -0.3581 -1.2236 -0.5661
  890MOL0     H20141   0.482   6.251   6.662 -0.1034 -0.1931 -0.5445
  890MOL0     H20142   0.430   6.151   6.434 -2.7210  0.7974 -2.5708
  890MOL0     H20143   0.254   6.155   6.482  0.2962  3.3555 -0.1164
  890MOL0     H20144   0.497   6.014   6.630  0.4673 -0.4409 -2.5123
  890MOL0     H20145   0.335   6.014   6.692 -0.7247  1.0527  0.1851
  890MOL0     H20146   0.310   5.677   6.455 -3.2759 -0.4688  2.6632
  890MOL0     H20147   0.545   6.666   6.490  0.5393  3.3356  2.5209
  890MOL0     H20148   0.621   6.828   6.739  1.1128  0.8556  0.4260
  890MOL0     H20149   0.710   6.928   6.608 -0.5644  0.4240 -4.2463
  890MOL0     H20150   0.566   6.834   6.572  0.1354 -0.2862 -0.4625
  891MOL0     O20151   7.354   4.577   1.719 -0.2876 -0.9291  0.7639
  891MOL0     C20152   7.309   4.500   1.638  1.1805  0.2227  0.3132
  891MOL0     O20153   7.354   4.372   1.608  0.0253 -0.2534  0.4694
  891MOL0     C20154   7.479   4.320   1.637 -0.4731 -0.2533 -1.6300
  891MOL0     C20155   7.591   4.380   1.694 -0.0949 -0.9190 -0.0192
  891MOL0     C20156   7.712   4.316   1.716  0.3001 -0.2665 -0.9402
  891MOL0     C20157   7.721   4.176   1.692  0.5529  0.6151  0.5258
  891MOL0     O20158   7.822   4.094   1.717 -0.2797 -0.0498 -0.0105
  891MOL0     C20159   7.955   4.147   1.712  0.8789  0.1439 -0.3203
  891MOL0     C20160   8.061   4.045   1.749  0.0246 -0.1723  0.4459
  891MOL0     C20161   8.063   3.924   1.655 -0.3093 -0.0942  0.4509
  891MOL0     C20162   8.208   3.849   1.674  0.4570 -0.4997  0.0873
  891MOL0     C20163   8.211   3.721   1.588 -0.3585  0.1268 -0.4323
  891MOL0     C20164   8.344   3.651   1.595 -0.0683 -0.7277 -0.5968
  891MOL0     C20165   8.354   3.572   1.475 -0.8893 -0.1023  0.2065
  891MOL0     C20166   8.490   3.508   1.454 -0.4118 -0.5792 -0.4221
  891MOL0     N20167   8.488   3.363   1.479  0.4261  1.0506  0.4686
  891MOL0     C20168   8.431   3.267   1.390 -0.4479 -0.1380 -0.5361
  891MOL0     C20169   8.473   3.152   1.443 -0.8720  0.4937 -0.2765
  891MOL0     C20170   8.440   3.019   1.388  0.2102 -0.3769 -0.2292
  891MOL0     C20171   8.514   2.987   1.259  0.0191  0.5751 -1.2583
  891MOL0     C20172   8.492   2.839   1.222 -0.2027 -0.0879  0.0285
  891MOL0     C20173   8.571   2.799   1.088  0.3838  0.0914 -1.0109
  891MOL0     O20174   8.707   2.815   1.109  0.1099 -0.1882  0.4426
  891MOL0     C20175   8.779   2.703   1.069  0.2921  0.5639  0.0168
  891MOL0     C20176   8.758   2.572   1.123  0.1354  0.2108  0.7127
  891MOL0     C20177   8.838   2.470   1.067  1.5171 -0.4723  0.7370
  891MOL0     C20178   8.919   2.483   0.950 -1.0677 -0.1974 -0.1215
  891MOL0     C20179   9.008   2.375   0.896  0.4049  0.1566  1.5890
  891MOL0     O20180   8.988   2.255   0.945 -0.6912 -0.0794 -0.2113
  891MOL0     C20181   9.090   2.168   0.906  0.3161  0.6095  0.0832
  891MOL0     C20182   9.064   2.094   0.789 -0.3634  0.3687  0.2903
  891MOL0     C20183   9.157   1.998   0.747  0.0021  0.4641  0.4446
  891MOL0     C20184   9.281   1.979   0.810  0.1721 -0.5136  0.2028
  891MOL0     O20185   9.364   1.883   0.762  1.2707 -0.0262  0.3694
  891MOL0     C20186   9.454   1.831   0.851 -0.6997  0.0753  0.1424
  891MOL0     C20187   9.536   1.726   0.775  0.6033  0.7741 -0.8164
  891MOL0     C20188   9.602   1.623   0.879 -0.7850  0.1133  0.5933
  891MOL0     C20189   9.498   1.525   0.930 -0.0383 -0.6549  1.0439
  891MOL0     C20190   9.517   1.494   1.073 -0.3644  0.3554 -1.0438
  891MOL0     C20191   9.499   1.620   1.166  0.1863  0.1121  0.0037
  891MOL0     C20192   9.445   1.579   1.306 -0.7523 -0.4794  0.4516
  891MOL0     C20193   9.294   1.594   1.328  0.1250  0.2916 -0.2293
  891MOL0    Cl20194   9.202   1.447   1.260 -0.3161  0.2522  0.1939
  891MOL0     C20195   9.312   2.069   0.922 -0.2850  0.0716  0.2675
  891MOL0     C20196   9.212   2.153   0.968 -0.8075 -0.0316 -0.5020
  891MOL0     O20197   9.078   2.401   0.795 -0.5512  0.7659  0.1650
  891MOL0     C20198   8.949   2.616   0.904 -0.4184 -0.0611 -0.1514
  891MOL0     C20199   8.870   2.715   0.957  0.1666 -1.0275  0.3068
  891MOL0     N20200   8.545   3.173   1.555  0.4017 -0.0462  0.1383
  891MOL0     N20201   8.538   3.296   1.589  0.5229  0.0527  0.4847
  891MOL0     C20202   7.605   4.117   1.646 -0.0094  0.8747 -0.3071
  891MOL0     C20203   7.490   4.191   1.613  0.0611  0.7687  0.4636
  891MOL0     C20204   7.188   4.548   1.555 -0.0871 -0.6345 -0.0735
  891MOL0     C20205   7.085   4.459   1.533  0.3459  0.1185 -0.5740
  891MOL0     C20206   6.988   4.471   1.438 -1.1631 -0.7819  0.6255
  891MOL0     C20207   6.976   4.597   1.375 -0.4088  0.4588  0.2634
  891MOL0     O20208   6.879   4.635   1.290 -0.3767 -1.2752  0.4219
  891MOL0     C20209   6.776   4.551   1.246 -0.4007 -0.1944  0.6272
  891MOL0     C20210   6.824   4.454   1.139 -0.2324 -0.2810 -0.3195
  891MOL0     C20211   6.703   4.372   1.087 -0.1687 -0.1747  0.1767
  891MOL0     C20212   6.737   4.283   0.972  0.0637  0.1082 -0.5973
  891MOL0     C20213   6.789   4.359   0.851 -0.3091 -0.2022 -0.0918
  891MOL0     C20214   6.838   4.417   0.759  0.0831  0.2017 -1.3664
  891MOL0     C20215   7.086   4.684   1.393  0.1379 -0.4792  0.5362
  891MOL0     C20216   7.197   4.665   1.475 -0.3432  1.5628 -0.5793
  891MOL0     C20217   7.316   4.747   1.470 -0.1089 -0.0853  0.2500
  891MOL0     H20218   7.592   4.486   1.719 -0.5518  0.1050 -3.7039
  891MOL0     H20219   7.799   4.363   1.760 -1.4323  2.0932  0.1667
  891MOL0     H20220   7.971   4.194   1.615 -0.7103  1.0888 -0.1698
  891MOL0     H20221   7.956   4.230   1.783  2.4961 -0.7547  0.7600
  891MOL0     H20222   8.025   4.012   1.847 -2.6023 -0.3436 -0.4941
  891MOL0     H20223   8.163   4.082   1.762  0.8804 -2.7013  1.6935
  891MOL0     H20224   8.041   3.964   1.556 -1.0319 -1.4342  0.0594
  891MOL0     H20225   7.984   3.853   1.680  1.3206 -1.8665  0.8325
  891MOL0     H20226   8.286   3.919   1.640 -1.8531  2.1251 -0.1516
  891MOL0     H20227   8.224   3.825   1.780 -0.8180  2.7325  1.1356
  891MOL0     H20228   8.138   3.653   1.632  1.7300 -0.2915  2.7394
  891MOL0     H20229   8.195   3.754   1.485 -2.7704  0.9009  0.1199
  891MOL0     H20230   8.426   3.723   1.590 -1.3940  0.9081  0.2620
  891MOL0     H20231   8.345   3.591   1.687 -1.1835  0.3936  0.1739
  891MOL0     H20232   8.343   3.631   1.383  2.5941 -0.3002 -0.4666
  891MOL0     H20233   8.283   3.489   1.472  2.1622 -2.8965 -0.4887
  891MOL0     H20234   8.519   3.526   1.350 -1.5549 -1.5533 -0.9305
  891MOL0     H20235   8.565   3.538   1.527 -1.2501 -1.1225  0.6933
  891MOL0     H20236   8.366   3.280   1.305  0.4208 -2.4677 -1.6203
  891MOL0     H20237   8.475   2.947   1.462  0.1388 -2.3861 -2.0467
  891MOL0     H20238   8.334   3.018   1.358  0.9842  0.4223 -3.4368
  891MOL0     H20239   8.473   3.051   1.181 -2.2058  0.7824 -0.0180
  891MOL0     H20240   8.619   3.007   1.282 -0.7543  0.8396  2.8603
  891MOL0     H20241   8.385   2.824   1.206 -0.5710  0.9132  1.4393
  891MOL0     H20242   8.511   2.765   1.300  0.3452 -1.0970 -1.0154
  891MOL0     H20243   8.531   2.867   1.012 -1.7592  1.3957  1.1559
  891MOL0     H20244   8.552   2.695   1.059  2.7593 -0.6222 -0.2191
  891MOL0     H20245   8.693   2.547   1.206  0.5861 -1.1451  0.6805
  891MOL0     H20246   8.826   2.372   1.114 -0.2059 -1.4546 -1.5514
  891MOL0     H20247   8.964   2.099   0.747 -0.7721  1.5836  1.3463
  891MOL0     H20248   9.124   1.940   0.662  2.2792  0.9147 -0.8317
  891MOL0     H20249   9.526   1.910   0.874 -1.6055  1.0109 -0.1345
  891MOL0     H20250   9.409   1.785   0.939  1.5704  1.4534  2.1145
  891MOL0     H20251   9.477   1.683   0.694  0.6522 -3.9508  1.3127
  891MOL0     H20252   9.621   1.776   0.727  1.2645 -1.1987 -1.7767
  891MOL0     H20253   9.688   1.569   0.837 -1.7780 -0.3568 -0.9199
  891MOL0     H20254   9.645   1.672   0.966 -1.5953 -0.0692  1.0986
  891MOL0     H20255   9.495   1.431   0.874 -1.1368  0.2997 -0.5762
  891MOL0     H20256   9.402   1.577   0.923  0.9015  1.0441  0.2657
  891MOL0     H20257   9.621   1.466   1.092 -0.4034 -0.5382 -2.0563
  891MOL0     H20258   9.448   1.415   1.103  1.0774 -0.7630 -0.5708
  891MOL0     H20259   9.597   1.665   1.187 -0.2225  0.3468  1.5287
  891MOL0     H20260   9.429   1.694   1.125 -1.1676 -2.2547 -2.2601
  891MOL0     H20261   9.485   1.658   1.370 -0.3972  0.1555 -0.5329
  891MOL0     H20262   9.484   1.484   1.343  1.6129  0.0697 -0.4551
  891MOL0     H20263   9.281   1.587   1.436 -2.0913 -0.4756 -0.4801
  891MOL0     H20264   9.255   1.690   1.291 -0.4913  0.0207 -0.3032
  891MOL0     H20265   9.412   2.076   0.963  0.4417 -2.9623 -0.6839
  891MOL0     H20266   9.236   2.220   1.050 -2.4218 -0.1754  0.1207
  891MOL0     H20267   9.032   2.632   0.836 -0.8521 -1.6267 -1.0913
  891MOL0     H20268   8.884   2.817   0.923  1.4034 -0.5275  2.1426
  891MOL0     H20269   7.600   4.009   1.637  1.8516  0.6935  0.4343
  891MOL0     H20270   7.396   4.151   1.575  0.1010  0.8186  0.3134
  891MOL0     H20271   7.090   4.362   1.582  1.0106 -0.0616 -0.9851
  891MOL0     H20272   6.919   4.392   1.411 -2.7747  0.7312  0.0740
  891MOL0     H20273   6.698   4.617   1.208  1.7907  1.2989 -1.6466
  891MOL0     H20274   6.735   4.496   1.332  0.0922 -1.4987  0.0486
  891MOL0     H20275   6.904   4.392   1.180  0.2402 -0.5487 -1.6092
  891MOL0     H20276   6.874   4.514   1.063 -1.8897  3.5287  1.3100
  891MOL0     H20277   6.628   4.448   1.062 -1.2132 -0.7385  1.4601
  891MOL0     H20278   6.672   4.322   1.179  2.3912 -0.4158  0.9953
  891MOL0     H20279   6.823   4.227   1.010  0.6036  1.4718  0.2854
  891MOL0     H20280   6.667   4.206   0.938  1.2334 -0.5077 -1.6759
  891MOL0     H20281   6.877   4.470   0.674  2.7256 -3.7962 -2.9600
  891MOL0     H20282   7.093   4.773   1.331  1.8108  0.5728  2.1349
  891MOL0     H20283   7.307   4.852   1.501  1.4577 -0.2086  1.2243
  891MOL0     H20284   7.400   4.702   1.523 -2.8498 -6.0389  0.2901
  891MOL0     H20285   7.342   4.755   1.364  1.5341  0.3397  0.6568
  892MOL0     O20286   6.516  10.305  10.826  0.1209  0.3236  0.3959
  892MOL0     C20287   6.571  10.330  10.933 -0.9359 -0.7404  0.1002
  892MOL0     O20288   6.688  10.275  10.970  0.2409  0.0784  1.0228
  892MOL0     C20289   6.751  10.181  10.895  1.1071 -0.1240 -0.2140
  892MOL0     C20290   6.886  10.193  10.880 -0.0896 -0.1828 -0.9278
  892MOL0     C20291   6.968  10.090  10.825  0.0826 -0.6303 -0.8124
  892MOL0     C20292   6.914   9.965  10.785  0.3752 -0.3349 -0.3730
  892MOL0     O20293   7.002   9.888  10.724 -0.0685 -0.2837  0.4161
  892MOL0     C20294   7.014   9.762  10.786  0.1121 -0.5788 -0.4042
  892MOL0     C20295   7.097   9.661  10.713  0.4022 -0.2484  0.3817
  892MOL0     C20296   7.245   9.698  10.703  0.2144 -0.0018  0.9138
  892MOL0     C20297   7.343   9.593  10.753 -0.2474  0.7154  0.2256
  892MOL0     C20298   7.489   9.627  10.742  0.4119  0.4080  0.2081
  892MOL0     C20299   7.585   9.506  10.781  0.3067 -0.1465 -0.1287
  892MOL0     C20300   7.728   9.532  10.717  0.0079 -1.6346  0.3238
  892MOL0     C20301   7.804   9.398  10.718  0.1194  0.1865 -0.2217
  892MOL0     N20302   7.748   9.300  10.619 -0.5237  0.8315  0.0064
  892MOL0     C20303   7.777   9.287  10.486 -0.4222  0.0957  0.1793
  892MOL0     C20304   7.723   9.172  10.439  0.7681  0.9861  0.0991
  892MOL0     C20305   7.738   9.116  10.303 -0.5549 -0.1970 -0.5293
  892MOL0     C20306   7.768   8.971  10.310 -0.4568 -0.4325  0.1979
  892MOL0     C20307   7.791   8.912  10.166  0.2495  0.6084  0.0326
  892MOL0     C20308   7.909   8.960  10.095 -0.2046  0.6825  1.0545
  892MOL0     O20309   7.946   8.873   9.984  0.4411  0.3829 -0.6347
  892MOL0     C20310   8.039   8.781  10.010  0.6451  0.8885 -0.3345
  892MOL0     C20311   8.178   8.805   9.984  0.1456  1.5579 -0.5589
  892MOL0     C20312   8.270   8.702   9.999  0.6231 -0.9607 -0.9534
  892MOL0     C20313   8.232   8.573  10.043  0.5095  0.6725 -0.7375
  892MOL0     C20314   8.332   8.470  10.067  1.2047 -1.1347 -0.6314
  892MOL0     O20315   8.284   8.362  10.135 -0.1662  0.7569 -0.1512
  892MOL0     C20316   8.382   8.262  10.162  1.3690  0.0224 -0.3896
  892MOL0     C20317   8.499   8.292  10.237 -0.1311  0.9597 -0.3094
  892MOL0     C20318   8.600   8.194  10.265  0.3432 -0.4154  0.3783
  892MOL0     C20319   8.572   8.059  10.240  0.1877 -0.3945  0.7702
  892MOL0     O20320   8.653   7.956  10.274 -0.0098 -0.2375 -1.0301
  892MOL0     C20321   8.784   7.993  10.330 -0.0975 -0.9033 -0.4286
  892MOL0     C20322   8.857   7.870  10.374 -0.8014 -0.7971  1.3050
  892MOL0     C20323   8.989   7.913  10.429 -0.0330  1.1269 -0.0557
  892MOL0     C20324   8.988   7.914  10.585  0.1764 -0.3117  0.2230
  892MOL0     C20325   9.113   7.991  10.636  0.1250  0.1934 -0.0446
  892MOL0     C20326   9.114   8.025  10.784 -0.3777  0.6767  0.9269
  892MOL0     C20327   9.240   8.102  10.806 -0.3915  0.0495 -0.5037
  892MOL0     C20328   9.260   8.128  10.956  0.3114 -0.8258 -0.2196
  892MOL0    Cl20329   9.129   8.230  11.005  0.4584  0.6058  0.1816
  892MOL0     C20330   8.446   8.023  10.198 -0.4493  0.5280 -0.1455
  892MOL0     C20331   8.351   8.120  10.167  0.2519 -0.0516  0.3159
  892MOL0     O20332   8.437   8.474  10.004 -0.2555  0.6048  0.6911
  892MOL0     C20333   8.094   8.557  10.059  0.0983  0.7413 -0.2622
  892MOL0     C20334   8.003   8.653  10.037  1.1235 -0.5426 -0.1574
  892MOL0     N20335   7.671   9.101  10.548 -0.6189 -0.5867  0.0831
  892MOL0     N20336   7.672   9.192  10.649  0.0255  0.2682  0.5471
  892MOL0     C20337   6.782   9.944  10.811 -0.7916  0.4158  0.8362
  892MOL0     C20338   6.692  10.050  10.867 -0.6434  0.5157 -0.1154
  892MOL0     C20339   6.510  10.441  11.019  0.0150  0.1960  0.1890
  892MOL0     C20340   6.580  10.466  11.139 -0.6638  0.3517 -0.9830
  892MOL0     C20341   6.559  10.581  11.216 -0.0472  0.1292 -0.7426
  892MOL0     C20342   6.462  10.677  11.177 -0.2067  0.2960  0.7043
  892MOL0     O20343   6.438  10.780  11.266  0.1032 -0.1221 -0.2199
  892MOL0     C20344   6.349  10.883  11.222  0.0438 -0.5029  0.0300
  892MOL0     C20345   6.322  10.983  11.326 -0.1845 -0.2166 -0.4244
  892MOL0     C20346   6.446  11.071  11.357  0.2450  0.0082 -0.4365
  892MOL0     C20347   6.425  11.118  11.498 -0.8337 -0.2889  0.2593
  892MOL0     C20348   6.524  11.220  11.538  0.9025 -0.3669  0.3240
  892MOL0     C20349   6.621  11.293  11.547 -0.5792  0.0918 -0.3366
  892MOL0     C20350   6.399  10.654  11.050  0.2552 -0.2172 -0.3236
  892MOL0     C20351   6.413  10.539  10.974 -0.2529 -0.0017 -0.4947
  892MOL0     C20352   6.342  10.532  10.839  0.7510  0.2477  0.1128
  892MOL0     H20353   6.928  10.283  10.925 -2.7615  0.3902  0.6775
  892MOL0     H20354   7.076  10.094  10.815  0.3816 -3.3579  0.2959
  892MOL0     H20355   7.061   9.776  10.884  0.3602  0.6383 -0.6800
  892MOL0     H20356   6.919   9.708  10.791  1.4922 -3.0241  1.9972
  892MOL0     H20357   7.053   9.649  10.613 -0.8011  1.3577  0.6915
  892MOL0     H20358   7.090   9.569  10.772  0.2393  1.3556  3.0024
  892MOL0     H20359   7.260   9.791  10.759 -0.6257  2.5563 -2.7228
  892MOL0     H20360   7.268   9.720  10.598  0.6368  3.6525  1.6283
  892MOL0     H20361   7.333   9.573  10.860 -2.5550 -0.7788 -0.1927
  892MOL0     H20362   7.327   9.500  10.697  2.2574  0.1304  0.3564
  892MOL0     H20363   7.496   9.653  10.636  1.0909  0.2157  0.2008
  892MOL0     H20364   7.514   9.720  10.794 -3.6930  2.2800 -0.7183
  892MOL0     H20365   7.609   9.505  10.887  3.2736  1.4359 -0.6733
  892MOL0     H20366   7.553   9.409  10.741  1.1569  0.2099 -1.7449
  892MOL0     H20367   7.773   9.616  10.769 -1.1356  0.9571 -2.5787
  892MOL0     H20368   7.734   9.559  10.611  1.6689 -2.5886  0.1418
  892MOL0     H20369   7.908   9.421  10.694 -0.3597  2.2629 -0.4853
  892MOL0     H20370   7.788   9.358  10.819  1.7591 -1.5514 -0.5825
  892MOL0     H20371   7.819   9.370  10.431  0.0083 -1.6736 -2.3272
  892MOL0     H20372   7.650   9.131  10.239  2.1940  0.8740 -4.4635
  892MOL0     H20373   7.808   9.169  10.238 -0.1479  0.8571  0.7284
  892MOL0     H20374   7.856   8.958  10.374 -0.2779  0.6111  0.1680
  892MOL0     H20375   7.683   8.921  10.358  0.5389 -1.6044  0.7943
  892MOL0     H20376   7.710   8.943  10.098  1.6311 -1.1586 -2.5575
  892MOL0     H20377   7.797   8.804  10.180 -1.6368  0.3693 -0.6829
  892MOL0     H20378   7.995   8.990  10.155  0.5664 -1.0030  0.8626
  892MOL0     H20379   7.879   9.051  10.043 -1.5921 -2.7060 -5.1176
  892MOL0     H20380   8.211   8.899   9.941 -3.6886  2.8030 -1.2007
  892MOL0     H20381   8.373   8.732   9.986 -0.3571  5.0973  1.6986
  892MOL0     H20382   8.531   8.391  10.266  0.3509  0.9029 -0.6239
  892MOL0     H20383   8.697   8.231  10.299 -0.9098  3.5758  0.2189
  892MOL0     H20384   8.842   8.048  10.257  1.5667 -0.1296  1.3837
  892MOL0     H20385   8.776   8.059  10.417  1.5964 -1.5550  0.2674
  892MOL0     H20386   8.807   7.811  10.451  0.3643 -1.1751  1.7925
  892MOL0     H20387   8.877   7.815  10.281 -2.7593  2.0437 -0.9774
  892MOL0     H20388   9.057   7.832  10.400 -2.7046 -2.0345  1.7767
  892MOL0     H20389   9.021   8.010  10.390 -1.0760  2.0599  1.3167
  892MOL0     H20390   8.991   7.808  10.608 -1.7446 -1.2530 -3.2235
  892MOL0     H20391   8.899   7.959  10.630 -1.6335 -2.8702 -0.5886
  892MOL0     H20392   9.124   8.084  10.579  1.2665 -0.8071 -1.5019
  892MOL0     H20393   9.193   7.920  10.614 -0.0158 -0.8925  2.5217
  892MOL0     H20394   9.027   8.089  10.799  0.1851  1.8696 -0.7079
  892MOL0     H20395   9.107   7.942  10.856 -0.3816  1.0835  1.4047
  892MOL0     H20396   9.230   8.199  10.757  1.8472  1.9914  2.5001
  892MOL0     H20397   9.328   8.052  10.763 -0.7560 -2.0707  1.0461
  892MOL0     H20398   9.248   8.037  11.016  0.7587  1.4289  3.5771
  892MOL0     H20399   9.355   8.175  10.984  0.7339 -1.8135  0.0513
  892MOL0     H20400   8.418   7.919  10.189 -1.3672  0.7914 -0.4268
  892MOL0     H20401   8.250   8.088  10.143 -0.6005  1.9872  0.9617
  892MOL0     H20402   8.061   8.457  10.089  0.4121  0.5889 -0.4276
  892MOL0     H20403   7.900   8.622  10.048  2.0124 -3.3696  1.1400
  892MOL0     H20404   6.743   9.848  10.778 -0.7724  0.1926  1.4427
  892MOL0     H20405   6.588  10.017  10.870  0.1395 -2.1651  0.2737
  892MOL0     H20406   6.666  10.408  11.170  1.4323  2.8990 -1.6926
  892MOL0     H20407   6.623  10.600  11.302 -2.9164 -1.3415  1.9061
  892MOL0     H20408   6.257  10.832  11.191  0.8487  0.1681 -4.0430
  892MOL0     H20409   6.387  10.935  11.133  0.0095  2.0293  1.4117
  892MOL0     H20410   6.296  10.928  11.417 -2.7983  0.2847 -0.7831
  892MOL0     H20411   6.238  11.051  11.308  1.6124  2.7204  1.4640
  892MOL0     H20412   6.449  11.152  11.284 -1.5906 -0.3027 -0.9114
  892MOL0     H20413   6.530  11.001  11.345  0.9072  0.9826 -1.8766
  892MOL0     H20414   6.326  11.163  11.508  0.3811  2.7605 -0.2870
  892MOL0     H20415   6.435  11.039  11.573 -2.3169  0.5100  1.3368
  892MOL0     H20416   6.708  11.354  11.559  1.4542 -2.6927  0.1080
  892MOL0     H20417   6.332  10.725  11.003  0.4117 -1.4810 -2.6293
  892MOL0     H20418   6.414  10.549  10.758 -1.1592 -3.9288 -2.8621
  892MOL0     H20419   6.301  10.431  10.829  3.4166 -0.8814 -0.3105
  892MOL0     H20420   6.261  10.604  10.828  0.0856 -0.7815 -2.6901
  893MOL0     O20421   2.763   5.969   6.348 -0.3567  0.6364 -0.4384
  893MOL0     C20422   2.787   5.991   6.228 -0.4840  0.8511 -0.3171
  893MOL0     O20423   2.770   6.104   6.160 -0.0914 -0.3886 -0.8276
  893MOL0     C20424   2.751   6.224   6.228  0.4173  0.1925 -0.6026
  893MOL0     C20425   2.753   6.245   6.367  0.3159  0.3732  0.0314
  893MOL0     C20426   2.748   6.371   6.428 -0.4003 -0.5316 -0.5476
  893MOL0     C20427   2.761   6.481   6.350 -0.1660 -0.1607  0.0381
  893MOL0     O20428   2.780   6.608   6.398 -0.1467 -0.5101 -0.4909
  893MOL0     C20429   2.712   6.629   6.525 -0.8994 -0.3737 -0.7917
  893MOL0     C20430   2.726   6.782   6.537 -0.6206  0.1313  0.7673
  893MOL0     C20431   2.627   6.847   6.648 -0.4747  0.2905 -0.0904
  893MOL0     C20432   2.689   6.947   6.741  0.5157  0.3478 -0.2768
  893MOL0     C20433   2.590   7.049   6.804  0.0507 -0.0396 -0.0151
  893MOL0     C20434   2.459   6.996   6.869  0.4044  1.0217 -0.1847
  893MOL0     C20435   2.492   6.902   6.984 -0.5337  0.6048 -0.4614
  893MOL0     C20436   2.550   6.972   7.114  0.1795  0.6173 -0.7534
  893MOL0     N20437   2.598   6.864   7.209 -0.2480 -0.4177 -0.6949
  893MOL0     C20438   2.679   6.755   7.181 -1.3613 -0.0572  0.3692
  893MOL0     C20439   2.678   6.680   7.291  0.1634 -0.4740 -0.5038
  893MOL0     C20440   2.742   6.549   7.324  0.8216 -0.3486 -0.4704
  893MOL0     C20441   2.852   6.567   7.438  0.0249  0.0121 -0.1287
  893MOL0     C20442   2.992   6.640   7.408 -0.9740  0.5819  0.0499
  893MOL0     C20443   3.068   6.649   7.543 -0.5521  0.7476 -0.2481
  893MOL0     O20444   3.094   6.511   7.572  0.2151 -0.0824 -0.0604
  893MOL0     C20445   3.202   6.480   7.646 -0.1974 -0.1128 -0.2753
  893MOL0     C20446   3.215   6.349   7.692  0.1514 -0.6552 -0.3727
  893MOL0     C20447   3.317   6.315   7.786 -0.8819  0.3251 -0.8945
  893MOL0     C20448   3.401   6.409   7.850 -0.2434 -0.3758  0.3806
  893MOL0     C20449   3.489   6.379   7.963  0.1283  0.5131  0.1231
  893MOL0     O20450   3.483   6.254   8.010 -0.2132 -0.1877 -0.8278
  893MOL0     C20451   3.507   6.226   8.144  0.1531 -0.5387  0.5813
  893MOL0     C20452   3.629   6.160   8.179  0.3750  0.2318  0.8206
  893MOL0     C20453   3.652   6.111   8.306 -0.5920  0.1504 -0.4726
  893MOL0     C20454   3.559   6.135   8.404 -0.0635 -0.1392 -0.6557
  893MOL0     O20455   3.571   6.060   8.520  0.4374  0.2358 -0.1144
  893MOL0     C20456   3.474   6.084   8.624  0.6676  0.5913  0.3435
  893MOL0     C20457   3.526   6.000   8.737  0.1276 -0.8242  1.0062
  893MOL0     C20458   3.677   6.017   8.772 -0.3781  0.4712  0.9307
  893MOL0     C20459   3.719   5.950   8.899  0.4664  0.9671 -0.7803
  893MOL0     C20460   3.868   5.934   8.909 -0.1234  0.2923 -0.4726
  893MOL0     C20461   3.943   6.069   8.889  0.9266  0.6032 -0.2018
  893MOL0     C20462   4.107   6.041   8.890 -0.1696 -0.0925 -0.1256
  893MOL0     C20463   4.180   6.167   8.920 -0.0025 -0.4589 -0.2674
  893MOL0    Cl20464   4.114   6.221   9.080 -0.1178  0.5534 -0.0095
  893MOL0     C20465   3.453   6.212   8.368  1.4331  0.1396 -0.3585
  893MOL0     C20466   3.417   6.252   8.241 -0.2393  0.1977  0.4924
  893MOL0     O20467   3.543   6.475   8.022  0.4565 -0.0384  0.5932
  893MOL0     C20468   3.390   6.548   7.800 -0.5751  0.8797  0.5785
  893MOL0     C20469   3.292   6.577   7.697 -0.3559 -0.1677 -1.1811
  893MOL0     N20470   2.596   6.744   7.386  0.3451 -0.6497 -0.3309
  893MOL0     N20471   2.546   6.856   7.334 -0.5319 -0.1955  0.3992
  893MOL0     C20472   2.754   6.471   6.212  0.0475  1.4817  0.4824
  893MOL0     C20473   2.736   6.340   6.157  0.3908 -0.3160  0.2753
  893MOL0     C20474   2.804   5.869   6.151  0.3652  0.3580 -0.6768
  893MOL0     C20475   2.801   5.743   6.206  1.0263  0.2558 -0.3659
  893MOL0     C20476   2.805   5.630   6.129 -0.4830  0.1332  0.4896
  893MOL0     C20477   2.830   5.634   5.992 -0.7471  0.7052  0.2865
  893MOL0     O20478   2.841   5.509   5.925  0.4928 -0.5239 -0.5169
  893MOL0     C20479   2.916   5.504   5.805  0.1181  1.1036  0.6496
  893MOL0     C20480   2.987   5.358   5.795 -0.5507  0.0472  0.4502
  893MOL0     C20481   3.080   5.360   5.916  0.6076  0.2366 -0.1117
  893MOL0     C20482   3.166   5.242   5.926  0.0098 -0.0900  0.1509
  893MOL0     C20483   3.089   5.124   5.963 -0.1287 -0.3212 -0.3599
  893MOL0     C20484   3.038   5.017   5.987 -1.3998 -0.7411  0.8281
  893MOL0     C20485   2.858   5.755   5.935  0.6551  0.2358  0.9598
  893MOL0     C20486   2.840   5.868   6.020 -0.5788 -0.7202  1.2653
  893MOL0     C20487   2.876   5.994   5.940 -0.1097 -0.2846  0.7254
  893MOL0     H20488   2.749   6.168   6.443  0.9899  2.1450  1.9924
  893MOL0     H20489   2.762   6.381   6.535 -1.3232  2.3693 -0.6339
  893MOL0     H20490   2.606   6.604   6.530 -1.2740  1.3455  1.2558
  893MOL0     H20491   2.753   6.570   6.608  0.0727 -0.5979 -1.4161
  893MOL0     H20492   2.696   6.827   6.443 -0.2298 -3.1785 -1.0928
  893MOL0     H20493   2.829   6.803   6.568  0.0754  1.1529 -1.9649
  893MOL0     H20494   2.590   6.766   6.711 -0.8822  0.8207  0.3721
  893MOL0     H20495   2.545   6.896   6.593 -1.2548 -2.1873 -1.2950
  893MOL0     H20496   2.745   6.893   6.817  1.6693 -1.5407 -2.3693
  893MOL0     H20497   2.763   6.998   6.678  0.4239 -0.2963 -0.9087
  893MOL0     H20498   2.645   7.113   6.874 -1.1395 -1.8452  2.7625
  893MOL0     H20499   2.560   7.110   6.719  0.6801  0.3366  0.0238
  893MOL0     H20500   2.399   7.083   6.896 -1.6035  0.2037 -1.7398
  893MOL0     H20501   2.401   6.942   6.794  0.1344  1.0192  0.0273
  893MOL0     H20502   2.569   6.835   6.946 -2.7464 -2.3833 -0.0390
  893MOL0     H20503   2.407   6.837   7.007 -0.9263  0.1527 -2.8959
  893MOL0     H20504   2.627   7.044   7.088  0.8833  0.4854  0.8143
  893MOL0     H20505   2.477   7.032   7.169 -0.1803 -0.5437  0.1079
  893MOL0     H20506   2.735   6.739   7.090 -0.4246  2.2225  0.4723
  893MOL0     H20507   2.664   6.482   7.360  0.9110  0.4322  1.2938
  893MOL0     H20508   2.790   6.508   7.235  1.4341  3.7680 -2.2494
  893MOL0     H20509   2.815   6.626   7.523 -1.2210 -1.4654  0.4090
  893MOL0     H20510   2.866   6.464   7.471 -0.1425  0.1097  0.2584
  893MOL0     H20511   2.986   6.743   7.373  1.7074  2.0673  3.3795
  893MOL0     H20512   3.039   6.582   7.328  2.2428  1.6954  0.9609
  893MOL0     H20513   3.014   6.700   7.623  1.8481 -1.3595  2.9162
  893MOL0     H20514   3.159   6.705   7.522 -2.7560  3.7164 -2.8994
  893MOL0     H20515   3.157   6.271   7.644 -0.5081 -0.5950  0.3131
  893MOL0     H20516   3.324   6.210   7.811 -1.4189 -0.4759 -3.6794
  893MOL0     H20517   3.704   6.160   8.101  1.2409 -1.7528  1.6072
  893MOL0     H20518   3.745   6.060   8.331  1.0396  2.1228 -2.1648
  893MOL0     H20519   3.470   6.190   8.651  1.3276  0.4219  1.1356
  893MOL0     H20520   3.374   6.065   8.585  1.0606  2.9148 -2.1179
  893MOL0     H20521   3.478   6.038   8.828 -0.7928 -1.6147  0.8676
  893MOL0     H20522   3.496   5.895   8.730  0.7949 -1.1818  2.9086
  893MOL0     H20523   3.725   5.955   8.694 -1.9413 -1.3312  1.3341
  893MOL0     H20524   3.708   6.122   8.775  0.7342  0.1952  0.0939
  893MOL0     H20525   3.666   5.855   8.908 -2.0962  2.1393 -2.3161
  893MOL0     H20526   3.691   6.012   8.984 -1.5000 -1.5472  0.5144
  893MOL0     H20527   3.898   5.870   8.826  0.3736  1.0851 -0.9090
  893MOL0     H20528   3.891   5.884   9.003 -1.1027  0.1699 -0.2820
  893MOL0     H20529   3.923   6.111   8.790 -0.0744  0.2044 -0.1818
  893MOL0     H20530   3.910   6.145   8.960  0.6676  0.0044  0.3326
  893MOL0     H20531   4.144   5.990   8.801 -2.1577 -1.3749 -0.2749
  893MOL0     H20532   4.123   5.976   8.977 -2.2762 -1.8312 -0.9781
  893MOL0     H20533   4.288   6.154   8.929  0.3467  0.6565 -2.2596
  893MOL0     H20534   4.159   6.237   8.839  0.1639 -0.7014 -0.5221
  893MOL0     H20535   3.381   6.244   8.443 -0.0835  3.5166 -2.9794
  893MOL0     H20536   3.323   6.305   8.224 -0.0886  0.6641  1.0700
  893MOL0     H20537   3.455   6.624   7.841  2.5438 -0.6066 -1.2525
  893MOL0     H20538   3.287   6.683   7.675 -1.0276  0.4267  1.4409
  893MOL0     H20539   2.751   6.557   6.147 -3.0391  2.6424  1.9330
  893MOL0     H20540   2.741   6.339   6.048  1.7834 -1.1196  0.3268
  893MOL0     H20541   2.773   5.729   6.309 -0.4490  0.7779 -0.6804
  893MOL0     H20542   2.805   5.536   6.183  1.2074  0.1029  0.4703
  893MOL0     H20543   2.990   5.584   5.808  0.9480  0.4142 -0.6274
  893MOL0     H20544   2.854   5.532   5.718 -0.1250  0.8892  0.7509
  893MOL0     H20545   3.052   5.362   5.707 -1.1727  0.1762 -0.0052
  893MOL0     H20546   2.919   5.272   5.798 -0.4795 -0.1112  4.9177
  893MOL0     H20547   3.011   5.351   6.000  1.5682 -0.5939  0.6052
  893MOL0     H20548   3.138   5.452   5.926  4.4176 -1.7384 -1.8418
  893MOL0     H20549   3.220   5.233   5.831  0.3348  3.7252 -0.1814
  893MOL0     H20550   3.245   5.254   6.000 -0.7103  2.4375  0.5953
  893MOL0     H20551   2.993   4.920   5.992  0.2202 -1.6763 -1.2832
  893MOL0     H20552   2.881   5.766   5.829 -0.3496 -1.6195  0.5135
  893MOL0     H20553   2.784   6.044   5.910  0.5088 -0.0282 -0.8569
  893MOL0     H20554   2.939   6.063   5.996  0.4603 -1.2189  1.2666
  893MOL0     H20555   2.938   5.966   5.854 -1.0324 -3.2743  0.9155
  894MOL0     O20556   4.066   7.324   6.348 -0.2483  0.9321  0.0847
  894MOL0     C20557   4.063   7.357   6.469 -0.1757 -0.1712 -1.0959
  894MOL0     O20558   4.020   7.476   6.513  0.0830 -1.2433  0.0036
  894MOL0     C20559   3.974   7.559   6.415 -0.6625  1.2934 -0.0858
  894MOL0     C20560   4.054   7.665   6.378  0.2370 -0.3033 -0.2866
  894MOL0     C20561   4.008   7.766   6.290 -0.2327  1.1232  0.0798
  894MOL0     C20562   3.881   7.751   6.237  0.0252  0.5661 -0.5792
  894MOL0     O20563   3.817   7.847   6.159 -0.0013  0.7989  0.3163
  894MOL0     C20564   3.877   7.871   6.030  0.3495  0.1197 -0.2482
  894MOL0     C20565   3.865   8.019   6.005  0.1799  0.0152  0.2370
  894MOL0     C20566   3.717   8.081   6.003 -0.5533 -0.2277  0.3720
  894MOL0     C20567   3.733   8.228   5.992  0.0521  0.3422  0.1824
  894MOL0     C20568   3.608   8.310   5.948  0.3517  1.4992  0.8498
  894MOL0     C20569   3.638   8.457   5.972  0.3508 -0.2060  0.0578
  894MOL0     C20570   3.537   8.545   5.894 -0.3443  0.4377 -0.6993
  894MOL0     C20571   3.549   8.695   5.916 -0.5451 -0.2483 -0.4490
  894MOL0     N20572   3.447   8.777   5.856  0.3820 -0.3657 -0.3709
  894MOL0     C20573   3.341   8.847   5.914  0.4859  0.2744  0.0497
  894MOL0     C20574   3.273   8.918   5.828 -0.3820  0.4383  0.3569
  894MOL0     C20575   3.142   8.997   5.851  0.0239  0.0427 -0.6741
  894MOL0     C20576   3.154   9.138   5.805  0.6167 -0.3245 -0.3365
  894MOL0     C20577   3.021   9.200   5.749 -0.1786 -0.7035  0.4810
  894MOL0     C20578   3.051   9.335   5.677 -0.2039 -0.9805  0.6969
  894MOL0     O20579   3.117   9.430   5.761 -0.3337 -0.7468  0.1544
  894MOL0     C20580   3.127   9.562   5.721  1.2061  0.5797 -0.3138
  894MOL0     C20581   3.093   9.597   5.592  0.3715 -0.5557  0.8718
  894MOL0     C20582   3.100   9.732   5.556 -1.1544 -0.5003  0.0093
  894MOL0     C20583   3.139   9.833   5.647 -0.3969  0.7361  0.8108
  894MOL0     C20584   3.157   9.977   5.607  0.5691 -0.0724  0.6322
  894MOL0     O20585   3.106  10.006   5.483 -0.2649 -0.9794  0.1613
  894MOL0     C20586   3.108  10.140   5.450  1.6014 -0.0747  0.3307
  894MOL0     C20587   3.219  10.220   5.433 -0.1771 -0.2025 -0.4591
  894MOL0     C20588   3.210  10.359   5.444  0.3914  0.5119 -0.5167
  894MOL0     C20589   3.088  10.419   5.430  0.0144  0.4626  0.8683
  894MOL0     O20590   3.080  10.553   5.407  0.1309 -0.3442 -0.7818
  894MOL0     C20591   2.960  10.624   5.429 -0.3129  0.0547  0.5881
  894MOL0     C20592   2.975  10.760   5.370 -0.6142  0.5178  0.0337
  894MOL0     C20593   2.846  10.832   5.364 -0.3847 -0.0229 -0.8778
  894MOL0     C20594   2.860  10.986   5.338 -0.2075 -0.0278 -0.2480
  894MOL0     C20595   2.730  11.059   5.376 -0.1121  0.0284  0.7917
  894MOL0     C20596   2.733  11.109   5.520 -0.0622  0.0319  0.0270
  894MOL0     C20597   2.813  11.232   5.521 -1.3603  0.1805  0.4827
  894MOL0     C20598   2.822  11.288   5.669  0.1689  0.1160 -0.5244
  894MOL0    Cl20599   2.960  11.218   5.754  0.4515  0.0791  0.0401
  894MOL0     C20600   2.971  10.340   5.420  0.2233  0.5002 -0.1733
  894MOL0     C20601   2.978  10.202   5.438 -0.1850  0.0278  0.3987
  894MOL0     O20602   3.194  10.058   5.693  0.6938 -0.7332 -0.0936
  894MOL0     C20603   3.187   9.791   5.770 -0.0504  0.3848  0.0442
  894MOL0     C20604   3.181   9.660   5.806  0.1620  0.2147 -0.6931
  894MOL0     N20605   3.335   8.882   5.710  1.0337 -0.0315 -0.8943
  894MOL0     N20606   3.428   8.798   5.727  0.0113 -0.5444  0.0410
  894MOL0     C20607   3.796   7.647   6.285 -0.8834 -0.6767 -0.3480
  894MOL0     C20608   3.844   7.548   6.370  0.6598 -0.4579  0.0624
  894MOL0     C20609   4.144   7.280   6.573  0.6555 -0.1005 -0.0309
  894MOL0     C20610   4.135   7.316   6.714 -0.0151  0.5738  0.6014
  894MOL0     C20611   4.203   7.248   6.813  0.7547  1.0370 -0.2751
  894MOL0     C20612   4.291   7.142   6.778  0.0004  1.0937  0.4828
  894MOL0     O20613   4.362   7.066   6.871 -0.6225 -0.1124  0.6079
  894MOL0     C20614   4.504   7.091   6.852 -0.2942 -0.5983 -0.0342
  894MOL0     C20615   4.575   7.019   6.966 -0.2170 -0.7812 -0.2061
  894MOL0     C20616   4.556   7.078   7.103 -0.4135 -0.3343 -0.7861
  894MOL0     C20617   4.551   7.230   7.128  0.5309 -0.2475 -1.4044
  894MOL0     C20618   4.677   7.298   7.092  1.2939 -0.3087  0.7085
  894MOL0     C20619   4.779   7.355   7.054 -1.1311 -0.4774  0.1117
  894MOL0     C20620   4.286   7.097   6.644  0.1663 -0.5957 -1.0022
  894MOL0     C20621   4.211   7.159   6.543 -0.1046  0.5329  0.2758
  894MOL0     C20622   4.188   7.086   6.408  0.4406  0.0134  0.0003
  894MOL0     H20623   4.155   7.680   6.413 -0.4424 -0.6539  1.9595
  894MOL0     H20624   4.062   7.859   6.279  0.8233  0.3216 -2.2907
  894MOL0     H20625   3.982   7.842   6.021  0.0106 -1.0259 -0.6269
  894MOL0     H20626   3.829   7.811   5.952  2.9807 -2.4557 -0.0299
  894MOL0     H20627   3.903   8.031   5.903 -2.4198 -0.3972 -0.8812
  894MOL0     H20628   3.922   8.085   6.071 -0.3117  4.3799 -3.2228
  894MOL0     H20629   3.658   8.051   6.090 -0.4153 -4.2035 -0.7348
  894MOL0     H20630   3.661   8.043   5.917  0.2560 -2.0849  0.6235
  894MOL0     H20631   3.769   8.260   6.090  2.0213 -2.3694  0.4494
  894MOL0     H20632   3.810   8.250   5.917  0.6794 -5.4140 -1.3753
  894MOL0     H20633   3.585   8.278   5.846  4.0686 -2.2566  0.9019
  894MOL0     H20634   3.530   8.275   6.016  1.9325 -0.5569  1.7108
  894MOL0     H20635   3.633   8.478   6.079 -1.1540  2.3517 -0.4341
  894MOL0     H20636   3.741   8.486   5.948  1.9262 -4.6740  0.4544
  894MOL0     H20637   3.437   8.515   5.929 -1.0541  3.3349  0.0061
  894MOL0     H20638   3.544   8.521   5.788 -0.6095 -1.4448 -0.3375
  894MOL0     H20639   3.550   8.727   6.020 -0.4382 -0.8306 -0.2695
  894MOL0     H20640   3.642   8.722   5.864 -2.6551 -2.1159 -5.8664
  894MOL0     H20641   3.313   8.845   6.019  0.4603  1.0849  0.0669
  894MOL0     H20642   3.073   8.948   5.781  0.9396 -1.8355 -0.3180
  894MOL0     H20643   3.119   8.981   5.957  0.8583  1.8603 -0.1809
  894MOL0     H20644   3.203   9.208   5.873  0.3684  0.9903 -1.4619
  894MOL0     H20645   3.226   9.133   5.723  0.1105  0.3741 -0.8351
  894MOL0     H20646   2.957   9.232   5.832 -0.0323  1.8844 -0.3143
  894MOL0     H20647   2.974   9.134   5.676  1.7382  1.9915 -3.5360
  894MOL0     H20648   2.955   9.373   5.640 -1.2536 -4.4617 -0.5953
  894MOL0     H20649   3.117   9.312   5.593  2.1481  1.5736  1.7138
  894MOL0     H20650   3.048   9.528   5.521  1.5363  1.1920 -1.7339
  894MOL0     H20651   3.078   9.766   5.455 -1.2700 -1.2658 -0.2284
  894MOL0     H20652   3.314  10.170   5.417  1.2927  2.5849 -1.0300
  894MOL0     H20653   3.299  10.422   5.444  0.6384  0.1908 -1.6313
  894MOL0     H20654   2.884  10.560   5.383  1.3744 -2.5881  1.2594
  894MOL0     H20655   2.943  10.635   5.537  0.0484 -0.0626  0.6567
  894MOL0     H20656   3.048  10.813   5.432 -1.4380  1.5056  0.1913
  894MOL0     H20657   3.034  10.758   5.278  2.3648 -1.4982  1.8091
  894MOL0     H20658   2.785  10.786   5.285 -1.0514 -2.7413  1.0899
  894MOL0     H20659   2.788  10.816   5.455 -1.8849  2.3313 -1.3330
  894MOL0     H20660   2.885  11.010   5.235 -0.2625  0.0745 -0.2379
  894MOL0     H20661   2.942  11.030   5.396  0.6579 -4.1179  1.9989
  894MOL0     H20662   2.644  10.993   5.362 -0.5248  0.6061  0.6055
  894MOL0     H20663   2.722  11.141   5.304  0.5541  1.6425  2.4714
  894MOL0     H20664   2.632  11.135   5.553  0.3626  1.0662  0.5178
  894MOL0     H20665   2.778  11.035   5.587 -0.0827  0.4130  0.4635
  894MOL0     H20666   2.779  11.309   5.451 -3.8867 -0.9193  0.3924
  894MOL0     H20667   2.916  11.215   5.489 -1.7596  3.3465 -3.4491
  894MOL0     H20668   2.827  11.397   5.676  4.2484  0.0421  0.2560
  894MOL0     H20669   2.727  11.259   5.716  0.0135 -1.6951 -1.8438
  894MOL0     H20670   2.868  10.367   5.399  0.6931  0.0015 -3.6072
  894MOL0     H20671   2.892  10.136   5.431 -2.1076  2.2649  1.4126
  894MOL0     H20672   3.226   9.872   5.831 -0.5724  2.5952 -2.3671
  894MOL0     H20673   3.217   9.619   5.900  0.8257 -0.0731 -1.0624
  894MOL0     H20674   3.695   7.651   6.246 -0.3465 -0.2119 -1.7600
  894MOL0     H20675   3.786   7.464   6.404  0.5217 -1.0165 -1.4501
  894MOL0     H20676   4.064   7.396   6.730 -0.8933  0.9467 -3.8833
  894MOL0     H20677   4.208   7.285   6.915  0.2127  2.9032 -0.8705
  894MOL0     H20678   4.530   7.197   6.850  0.7849 -0.8591 -0.6534
  894MOL0     H20679   4.527   7.049   6.753  0.9912  0.2482 -0.1240
  894MOL0     H20680   4.681   7.036   6.944 -0.5901  1.3213 -0.5188
  894MOL0     H20681   4.540   6.915   6.958 -2.3099  0.0051 -2.0232
  894MOL0     H20682   4.608   7.027   7.185 -0.7956 -1.3324 -1.1516
  894MOL0     H20683   4.453   7.057   7.130  0.0458 -1.5014  0.1674
  894MOL0     H20684   4.464   7.266   7.071  0.7741  0.5670 -1.2758
  894MOL0     H20685   4.522   7.257   7.230 -0.5256  0.0430 -1.7684
  894MOL0     H20686   4.859   7.414   7.015 -2.1310  0.7826 -0.1193
  894MOL0     H20687   4.343   7.007   6.623  1.5702  0.4905 -2.0253
  894MOL0     H20688   4.081   7.069   6.398  0.4839  0.7963 -2.7891
  894MOL0     H20689   4.226   7.157   6.333  0.0961 -0.3981 -0.5753
  894MOL0     H20690   4.237   6.990   6.390  0.6999  0.2760 -0.7806
  895MOL0     O20691  10.631   3.006   4.564  0.0205 -0.2929  0.2967
  895MOL0     C20692  10.619   3.119   4.606  0.1168  0.2800  0.0745
  895MOL0     O20693  10.686   3.237   4.556 -0.0569  0.0691  0.3467
  895MOL0     C20694  10.755   3.236   4.444  0.1796  1.1046  0.4860
  895MOL0     C20695  10.847   3.132   4.411 -0.1278  0.1230 -0.2991
  895MOL0     C20696  10.932   3.146   4.307  0.5295 -0.0858 -1.4916
  895MOL0     C20697  10.932   3.261   4.225  0.0429  0.8030 -0.1546
  895MOL0     O20698  11.018   3.284   4.123  0.3548 -0.1330  0.1113
  895MOL0     C20699  11.119   3.184   4.101 -0.5087  0.7722 -0.2939
  895MOL0     C20700  11.231   3.240   4.018 -0.2385 -1.3759 -1.1257
  895MOL0     C20701  11.197   3.249   3.877 -0.6605  0.1885  0.3770
  895MOL0     C20702  11.323   3.270   3.790 -0.6636  0.0131 -0.4661
  895MOL0     C20703  11.283   3.360   3.668 -1.3281 -0.0575  0.0158
  895MOL0     C20704  11.417   3.423   3.624 -0.5968 -0.2782 -0.0028
  895MOL0     C20705  11.414   3.511   3.502  0.4461 -0.2364 -1.5668
  895MOL0     C20706  11.375   3.443   3.372  0.2813  0.0980 -0.1747
  895MOL0     N20707  11.407   3.522   3.257  0.0236 -0.1492 -0.2888
  895MOL0     C20708  11.367   3.650   3.242 -0.1225  0.8159  0.8291
  895MOL0     C20709  11.423   3.686   3.126 -1.0378 -0.8832 -0.6496
  895MOL0     C20710  11.446   3.825   3.087 -1.3389 -0.8783  0.0938
  895MOL0     C20711  11.556   3.883   3.175  0.2144 -0.6073  0.4867
  895MOL0     C20712  11.600   4.004   3.095  0.5742 -0.4366  0.9128
  895MOL0     C20713  11.681   3.986   2.968 -0.5862  0.1500  0.1828
  895MOL0     O20714  11.745   4.105   2.935 -0.5697 -0.1691 -0.7094
  895MOL0     C20715  11.828   4.126   2.829 -0.0503 -0.0888  0.4945
  895MOL0     C20716  11.894   4.242   2.829 -1.0468  0.0171 -0.0737
  895MOL0     C20717  11.992   4.276   2.727 -0.1353 -0.0757 -0.6283
  895MOL0     C20718  12.020   4.181   2.628 -0.2652  0.6485 -0.4610
  895MOL0     C20719  12.126   4.199   2.524 -1.6970 -1.1231  0.1348
  895MOL0     O20720  12.168   4.091   2.444 -0.2979 -0.3019 -0.0668
  895MOL0     C20721  12.284   4.092   2.363  1.1192 -0.7556 -0.0724
  895MOL0     C20722  12.279   4.123   2.230 -0.1181 -0.2062 -0.6540
  895MOL0     C20723  12.397   4.122   2.150 -0.6005 -0.2235  0.2436
  895MOL0     C20724  12.516   4.088   2.205  0.2679 -0.4477  0.3303
  895MOL0     O20725  12.625   4.106   2.135 -0.9011 -0.1085 -0.0622
  895MOL0     C20726  12.689   4.236   2.165 -0.1119 -0.3061 -0.4174
  895MOL0     C20727  12.731   4.289   2.027 -0.3143  0.3081 -0.2428
  895MOL0     C20728  12.829   4.410   2.042 -0.7243  0.3092 -0.8102
  895MOL0     C20729  12.977   4.397   1.975  0.1530  0.0075  0.8444
  895MOL0     C20730  12.965   4.382   1.822  0.0516 -0.5053 -0.8135
  895MOL0     C20731  12.919   4.516   1.750  0.8608 -0.6403 -0.4974
  895MOL0     C20732  13.041   4.610   1.716  0.5048 -0.6024  0.0277
  895MOL0     C20733  13.101   4.701   1.832  0.5367  0.6647 -0.0535
  895MOL0    Cl20734  12.976   4.801   1.907  0.4056 -0.0707  0.1744
  895MOL0     C20735  12.526   4.055   2.343  0.0143  0.2767 -0.2058
  895MOL0     C20736  12.407   4.066   2.421  0.2883 -0.2265  0.1889
  895MOL0     O20737  12.172   4.317   2.511 -0.0093 -0.3870  0.2512
  895MOL0     C20738  11.948   4.064   2.620  0.1872 -0.3121 -0.1463
  895MOL0     C20739  11.843   4.037   2.718  0.4137 -0.4315 -0.8244
  895MOL0     N20740  11.502   3.583   3.085  0.4985 -0.3059  0.3602
  895MOL0     N20741  11.476   3.477   3.156  0.1247 -0.0031  0.9940
  895MOL0     C20742  10.840   3.358   4.255  0.6454  0.8549 -0.1139
  895MOL0     C20743  10.757   3.345   4.369 -0.4365 -0.5887 -0.1483
  895MOL0     C20744  10.552   3.154   4.725 -0.1343 -1.0764 -1.3359
  895MOL0     C20745  10.565   3.284   4.785  0.4662 -0.3427 -0.4836
  895MOL0     C20746  10.516   3.302   4.916  0.1737  1.1885 -0.0871
  895MOL0     C20747  10.435   3.207   4.983 -0.7096 -0.4209  0.3863
  895MOL0     O20748  10.385   3.242   5.105  0.1847  0.0553  0.3605
  895MOL0     C20749  10.319   3.144   5.186  0.3480 -0.1444  0.3646
  895MOL0     C20750  10.298   3.193   5.329  0.0532 -1.1697  0.4876
  895MOL0     C20751  10.204   3.317   5.319 -0.7121 -0.2319 -0.2290
  895MOL0     C20752  10.236   3.427   5.417  0.8636 -0.0665 -0.3956
  895MOL0     C20753  10.181   3.554   5.381  0.5807 -0.1218  0.4080
  895MOL0     C20754  10.138   3.662   5.346 -0.1329 -0.0046  0.1013
  895MOL0     C20755  10.431   3.085   4.924  0.5453  0.6446 -0.1108
  895MOL0     C20756  10.480   3.059   4.797  0.2078 -0.0754 -0.6468
  895MOL0     C20757  10.441   2.921   4.748  0.6720 -0.3277 -0.4151
  895MOL0     H20758  10.855   3.044   4.473  2.5459 -0.0149 -0.7175
  895MOL0     H20759  10.986   3.054   4.289  0.7167 -0.9985  2.8044
  895MOL0     H20760  11.161   3.139   4.191  3.6374 -0.5676 -2.5732
  895MOL0     H20761  11.074   3.104   4.042  1.3922 -0.2223 -0.4854
  895MOL0     H20762  11.319   3.176   4.033  1.1573  0.6123 -0.5036
  895MOL0     H20763  11.252   3.339   4.058 -2.3186 -1.0856 -0.6714
  895MOL0     H20764  11.141   3.343   3.865  0.3798  0.9053  0.9626
  895MOL0     H20765  11.134   3.163   3.853 -1.3840  0.5902  0.8186
  895MOL0     H20766  11.399   3.327   3.845  0.3456 -0.4530 -1.3393
  895MOL0     H20767  11.360   3.170   3.762 -2.2840 -1.7853  3.1216
  895MOL0     H20768  11.231   3.295   3.598 -0.9647  0.7292 -1.0004
  895MOL0     H20769  11.217   3.445   3.685  0.2781  2.0275 -3.1963
  895MOL0     H20770  11.461   3.490   3.699 -2.1812  0.5432  0.2282
  895MOL0     H20771  11.489   3.342   3.608 -0.5786 -0.2168 -0.2258
  895MOL0     H20772  11.518   3.538   3.486  0.5687 -0.1812 -0.7238
  895MOL0     H20773  11.345   3.595   3.512 -0.7406 -1.1535 -1.7180
  895MOL0     H20774  11.444   3.358   3.366 -0.8402 -0.9086  0.7334
  895MOL0     H20775  11.275   3.400   3.374  0.9193 -1.4529  0.5929
  895MOL0     H20776  11.323   3.719   3.314 -2.0830  0.6183 -0.1123
  895MOL0     H20777  11.477   3.829   2.982  0.0125  0.4312  0.5010
  895MOL0     H20778  11.358   3.886   3.109 -0.7514 -0.3007  0.9218
  895MOL0     H20779  11.519   3.907   3.275 -0.5724  1.3250 -0.2147
  895MOL0     H20780  11.641   3.814   3.181  1.0126  0.3238  0.1482
  895MOL0     H20781  11.669   4.061   3.157  0.9006 -2.4038  2.4279
  895MOL0     H20782  11.510   4.065   3.081  0.4779 -0.1878  2.4409
  895MOL0     H20783  11.611   3.957   2.889  1.9714  0.1474 -2.2232
  895MOL0     H20784  11.757   3.907   2.968 -0.7584 -0.0901 -2.3935
  895MOL0     H20785  11.874   4.301   2.918 -0.0674  2.7631 -1.5487
  895MOL0     H20786  12.037   4.375   2.723  0.9100 -0.5696 -1.2019
  895MOL0     H20787  12.187   4.140   2.174 -1.4382  3.9114  2.2168
  895MOL0     H20788  12.397   4.151   2.045 -1.8219 -0.6770  0.0973
  895MOL0     H20789  12.621   4.302   2.219 -0.2991  0.4540 -1.5443
  895MOL0     H20790  12.778   4.221   2.227 -0.3100 -1.7944 -0.4345
  895MOL0     H20791  12.789   4.219   1.967 -1.1159 -1.2127  0.7117
  895MOL0     H20792  12.641   4.316   1.970  0.4833  3.2758 -0.2821
  895MOL0     H20793  12.789   4.491   1.981  0.4074  2.0755  0.7009
  895MOL0     H20794  12.844   4.439   2.146 -0.1225  0.2151 -0.8635
  895MOL0     H20795  13.024   4.305   2.013 -2.6721 -1.6088  0.6969
  895MOL0     H20796  13.048   4.478   1.996  0.9884 -0.5944  0.4237
  895MOL0     H20797  12.886   4.309   1.802 -1.7579  1.8556 -3.0791
  895MOL0     H20798  13.049   4.341   1.765  1.2530  0.7210  0.0306
  895MOL0     H20799  12.890   4.486   1.649  3.4042  0.8745 -1.7794
  895MOL0     H20800  12.845   4.571   1.810 -1.3010 -2.4111 -1.4380
  895MOL0     H20801  13.017   4.685   1.640  1.8376 -1.2837 -1.0973
  895MOL0     H20802  13.125   4.553   1.678  3.8974  1.9156  3.0360
  895MOL0     H20803  13.157   4.638   1.901 -0.5040 -0.5687 -0.2946
  895MOL0     H20804  13.163   4.784   1.795 -0.5498  3.0219  2.9879
  895MOL0     H20805  12.629   4.052   2.380 -0.4343  1.4869  1.2658
  895MOL0     H20806  12.403   4.031   2.524  2.0274  0.5883  0.5711
  895MOL0     H20807  11.961   3.991   2.541  2.7314 -0.1526  0.0379
  895MOL0     H20808  11.786   3.946   2.707  2.3577 -1.4929 -2.8739
  895MOL0     H20809  10.833   3.450   4.198 -1.3385 -0.5382 -2.3212
  895MOL0     H20810  10.692   3.427   4.397 -0.2655  0.1555 -1.8330
  895MOL0     H20811  10.627   3.363   4.744  0.8070 -0.7442 -0.7549
  895MOL0     H20812  10.536   3.396   4.966  1.3243  0.3667  1.0611
  895MOL0     H20813  10.377   3.050   5.189 -2.1061 -1.8614 -1.7376
  895MOL0     H20814  10.225   3.117   5.138  0.0735  1.5096 -0.0798
  895MOL0     H20815  10.395   3.218   5.371 -0.3203 -1.0910  1.3333
  895MOL0     H20816  10.245   3.129   5.401 -0.1818  0.7711  2.1258
  895MOL0     H20817  10.098   3.292   5.327 -0.7402  0.0043  0.1865
  895MOL0     H20818  10.218   3.365   5.222  0.3539  2.0610  0.9556
  895MOL0     H20819  10.195   3.401   5.514  0.7234 -0.1528 -0.4785
  895MOL0     H20820  10.343   3.451   5.424  0.3589  2.4406 -0.1833
  895MOL0     H20821  10.098   3.750   5.299 -0.2043  1.2885  2.4280
  895MOL0     H20822  10.368   3.016   4.980 -3.3967  3.0636 -1.1752
  895MOL0     H20823  10.413   2.917   4.642  0.7171  0.4150 -0.4600
  895MOL0     H20824  10.532   2.861   4.754 -0.6119 -2.5290 -1.6893
  895MOL0     H20825  10.365   2.877   4.813  2.4586 -0.0237  2.0122
  896MOL0     O20826   2.797   6.602   9.130  0.1671  0.1854  0.0351
  896MOL0     C20827   2.766   6.523   9.044  0.0953  1.0676  0.1546
  896MOL0     O20828   2.827   6.396   9.035  0.8693 -0.4573  0.7238
  896MOL0     C20829   2.748   6.308   8.967  0.3168  0.0117 -0.1403
  896MOL0     C20830   2.626   6.263   9.016  0.9796  0.5412  0.2970
  896MOL0     C20831   2.553   6.168   8.944 -0.3737 -0.5749  0.4332
  896MOL0     C20832   2.613   6.100   8.837  0.0787 -0.1341 -0.5702
  896MOL0     O20833   2.538   6.012   8.769 -0.7344  0.1518  0.8155
  896MOL0     C20834   2.564   5.993   8.630  0.0367  0.1604 -0.0609
  896MOL0     C20835   2.458   5.906   8.548 -0.0465 -0.1366 -0.1404
  896MOL0     C20836   2.500   5.893   8.392 -0.6002 -0.5984  0.0798
  896MOL0     C20837   2.425   5.781   8.329 -0.6781  0.3106 -0.1707
  896MOL0     C20838   2.486   5.768   8.183  0.4291 -0.6009 -1.0558
  896MOL0     C20839   2.427   5.633   8.133  0.4803 -0.7176 -0.2360
  896MOL0     C20840   2.477   5.617   7.982  0.4793  0.2494 -0.4696
  896MOL0     C20841   2.618   5.564   7.963  0.2684 -0.8134 -0.2827
  896MOL0     N20842   2.645   5.559   7.818 -0.5244 -0.4671 -0.5711
  896MOL0     C20843   2.642   5.447   7.744 -0.9722  0.2440  0.5669
  896MOL0     C20844   2.698   5.488   7.627 -0.5576 -0.0607  0.0669
  896MOL0     C20845   2.702   5.392   7.506 -0.5216 -1.0598 -0.7651
  896MOL0     C20846   2.846   5.365   7.471 -1.0483 -0.1113 -0.5384
  896MOL0     C20847   2.858   5.267   7.357 -0.4401  0.1906  0.4658
  896MOL0     C20848   2.850   5.318   7.217 -0.1046 -0.0012 -0.4408
  896MOL0     O20849   2.972   5.384   7.176  1.2900  0.2438  0.6926
  896MOL0     C20850   3.026   5.353   7.050 -0.6581  0.5828 -0.0156
  896MOL0     C20851   2.954   5.315   6.934 -0.2830 -0.6621 -0.4422
  896MOL0     C20852   3.023   5.278   6.813  0.6167 -0.7416 -0.0724
  896MOL0     C20853   3.166   5.277   6.806  0.1585 -0.2434  0.4779
  896MOL0     C20854   3.241   5.222   6.681 -0.0009  0.5743 -0.6171
  896MOL0     O20855   3.166   5.196   6.569  0.1279 -0.1526  0.1051
  896MOL0     C20856   3.225   5.152   6.456  0.5042 -0.9567  0.0962
  896MOL0     C20857   3.167   5.038   6.401  0.0113 -1.3912 -0.7008
  896MOL0     C20858   3.231   4.974   6.296 -0.0789 -0.2557  0.2334
  896MOL0     C20859   3.356   5.012   6.259  0.0282  0.1619 -0.7472
  896MOL0     O20860   3.425   4.934   6.166  0.3791 -0.2141 -0.4966
  896MOL0     C20861   3.414   4.986   6.034  0.1843  0.1653  0.2098
  896MOL0     C20862   3.450   4.877   5.920 -0.0681 -0.3067 -0.7387
  896MOL0     C20863   3.589   4.824   5.933  0.6634  0.1872  0.2373
  896MOL0     C20864   3.591   4.708   5.831 -0.6294 -0.3838  0.0824
  896MOL0     C20865   3.731   4.638   5.834 -0.2267 -0.6468  0.2852
  896MOL0     C20866   3.787   4.617   5.694  0.1162  0.2688 -0.9415
  896MOL0     C20867   3.903   4.519   5.718  0.0310  0.6746  0.7281
  896MOL0     C20868   4.024   4.576   5.796 -0.1519 -0.0348 -0.6723
  896MOL0    Cl20869   4.078   4.729   5.719  0.4549  0.0173 -0.0793
  896MOL0     C20870   3.406   5.134   6.295 -0.4680 -1.4219 -0.1426
  896MOL0     C20871   3.340   5.204   6.396  0.8310 -0.7969 -0.3907
  896MOL0     O20872   3.364   5.202   6.694 -0.1167  0.5565  0.1370
  896MOL0     C20873   3.231   5.319   6.926 -0.1042  0.4357  0.4411
  896MOL0     C20874   3.160   5.351   7.038 -0.0294 -0.3741 -0.3175
  896MOL0     N20875   2.738   5.620   7.632 -0.0673 -0.9887 -0.0005
  896MOL0     N20876   2.705   5.659   7.755 -0.0782 -0.9687 -0.5306
  896MOL0     C20877   2.744   6.130   8.799  0.0801  0.1934 -0.8388
  896MOL0     C20878   2.800   6.237   8.860 -0.3316  0.3069 -0.1991
  896MOL0     C20879   2.649   6.572   8.962 -0.3811 -0.9605 -0.6779
  896MOL0     C20880   2.527   6.589   9.028  0.5777  0.4055 -0.2067
  896MOL0     C20881   2.412   6.641   8.972  0.4024 -0.1569 -0.0283
  896MOL0     C20882   2.411   6.642   8.831  0.7012  0.5542  0.4920
  896MOL0     O20883   2.291   6.678   8.766 -0.2796 -0.3407  0.5439
  896MOL0     C20884   2.237   6.806   8.819  0.4189  0.5550  0.0959
  896MOL0     C20885   2.102   6.841   8.762  0.7850 -0.8960 -0.2478
  896MOL0     C20886   2.071   6.798   8.615  0.0060  0.3943  0.0778
  896MOL0     C20887   1.978   6.902   8.554 -0.8785  0.1479  0.5448
  896MOL0     C20888   1.915   6.840   8.439  0.2536  0.6261 -0.0030
  896MOL0     C20889   1.862   6.771   8.350  0.3721  0.9108 -0.6442
  896MOL0     C20890   2.529   6.627   8.759 -0.2055 -0.0611 -0.6789
  896MOL0     C20891   2.647   6.589   8.827 -0.3642 -0.4530  0.1468
  896MOL0     C20892   2.772   6.580   8.750 -0.0124  0.1072 -0.7831
  896MOL0     H20893   2.579   6.306   9.104 -0.3759  1.5756 -0.9094
  896MOL0     H20894   2.458   6.129   8.980 -0.4250 -0.1372  0.7821
  896MOL0     H20895   2.576   6.088   8.578 -3.6566  0.0396 -1.3764
  896MOL0     H20896   2.662   5.945   8.631 -0.2391 -0.4553  1.5691
  896MOL0     H20897   2.357   5.947   8.561  0.2050 -0.0664  2.0428
  896MOL0     H20898   2.465   5.805   8.590  0.4224 -0.7757 -1.6784
  896MOL0     H20899   2.607   5.872   8.378 -0.2117 -0.1193  2.0102
  896MOL0     H20900   2.487   5.988   8.339 -3.4841 -0.8021  0.2921
  896MOL0     H20901   2.415   5.687   8.385 -5.1511  1.5948  1.6220
  896MOL0     H20902   2.320   5.813   8.321 -0.7397  1.1331  2.7117
  896MOL0     H20903   2.461   5.859   8.128 -4.5593 -3.1845 -3.9201
  896MOL0     H20904   2.594   5.753   8.178  0.8516  2.1328 -1.7977
  896MOL0     H20905   2.457   5.548   8.195 -1.4632 -2.9501 -2.1921
  896MOL0     H20906   2.319   5.633   8.144  0.1848  1.2434 -2.3677
  896MOL0     H20907   2.470   5.710   7.926 -1.3843 -0.3905 -1.3696
  896MOL0     H20908   2.407   5.550   7.932  3.4543 -5.1007  1.6837
  896MOL0     H20909   2.684   5.640   8.008 -2.9287 -0.4399  4.4639
  896MOL0     H20910   2.628   5.464   8.005 -1.2711 -1.8063 -2.1448
  896MOL0     H20911   2.618   5.347   7.777  0.8422  0.3079  2.2983
  896MOL0     H20912   2.647   5.297   7.516  0.8546 -1.6580  2.2486
  896MOL0     H20913   2.659   5.443   7.420  2.9828 -0.2892 -2.2328
  896MOL0     H20914   2.892   5.459   7.441  1.2667 -1.1299 -0.4302
  896MOL0     H20915   2.900   5.315   7.553 -1.9384 -1.6271 -0.8251
  896MOL0     H20916   2.790   5.182   7.365 -1.8058  0.6484 -3.7928
  896MOL0     H20917   2.950   5.208   7.357 -0.4478  0.1748 -0.0584
  896MOL0     H20918   2.765   5.387   7.204 -0.7730 -0.9677 -1.3577
  896MOL0     H20919   2.836   5.235   7.147 -1.0732 -0.8716  0.7377
  896MOL0     H20920   2.849   5.307   6.961 -0.0693  0.1684  0.6839
  896MOL0     H20921   2.957   5.253   6.731  1.1217  1.7348 -1.3077
  896MOL0     H20922   3.064   5.018   6.432 -1.1959  2.0756 -1.9577
  896MOL0     H20923   3.172   4.891   6.257  0.4312 -1.2601  1.4989
  896MOL0     H20924   3.310   5.019   6.022 -0.1800 -0.4763  1.4316
  896MOL0     H20925   3.478   5.073   6.017 -0.6092  1.1163  1.7586
  896MOL0     H20926   3.382   4.793   5.937 -1.2886  0.9489  0.8810
  896MOL0     H20927   3.434   4.911   5.817 -0.5260 -2.2775 -1.3646
  896MOL0     H20928   3.668   4.899   5.925  2.8364 -2.2049 -3.4311
  896MOL0     H20929   3.601   4.787   6.035  3.8836  1.0744  0.3208
  896MOL0     H20930   3.578   4.757   5.734 -1.9139  1.5495  1.1599
  896MOL0     H20931   3.522   4.625   5.847 -0.1751 -0.8096 -0.1547
  896MOL0     H20932   3.715   4.546   5.890 -1.9094  1.5162  3.7670
  896MOL0     H20933   3.805   4.694   5.891  0.8783  0.2209 -1.8820
  896MOL0     H20934   3.707   4.569   5.636  0.1408  0.4605 -1.1390
  896MOL0     H20935   3.818   4.706   5.637  2.0606 -0.2328 -0.7109
  896MOL0     H20936   3.946   4.485   5.623  2.9282  1.4893  1.6553
  896MOL0     H20937   3.865   4.433   5.775  0.6195 -0.3348 -0.3511
  896MOL0     H20938   3.998   4.591   5.901 -3.9077 -1.1711 -1.3023
  896MOL0     H20939   4.115   4.516   5.785 -0.1222  0.4852 -6.7342
  896MOL0     H20940   3.490   5.169   6.236 -0.3593 -0.8524  0.3370
  896MOL0     H20941   3.385   5.295   6.437  0.6032 -0.6219 -0.5303
  896MOL0     H20942   3.338   5.312   6.941  0.0325 -4.0608 -1.3477
  896MOL0     H20943   3.209   5.394   7.125 -1.2145  2.1091 -0.7569
  896MOL0     H20944   2.802   6.088   8.718  1.3517  1.6695 -0.7395
  896MOL0     H20945   2.898   6.266   8.824  0.3706  2.8132  3.1854
  896MOL0     H20946   2.519   6.565   9.134 -0.7261  1.0564 -0.1432
  896MOL0     H20947   2.324   6.659   9.034 -0.6101 -1.4721 -0.9951
  896MOL0     H20948   2.304   6.889   8.795  4.2510 -1.7728  1.9395
  896MOL0     H20949   2.225   6.807   8.927  2.0149 -2.4898  0.4043
  896MOL0     H20950   2.089   6.949   8.775 -0.8893 -1.3620  2.7687
  896MOL0     H20951   2.026   6.795   8.825 -1.1723  1.3741 -0.8206
  896MOL0     H20952   2.015   6.704   8.618 -0.6658  0.6179 -2.5022
  896MOL0     H20953   2.166   6.787   8.561 -0.4013  1.2091 -0.8502
  896MOL0     H20954   1.899   6.932   8.622 -1.8765  0.2305 -0.6116
  896MOL0     H20955   2.037   6.982   8.509  3.2388 -2.3628  0.8562
  896MOL0     H20956   1.833   6.696   8.280 -0.7097 -1.1735  1.8520
  896MOL0     H20957   2.525   6.640   8.651 -0.8577  1.6527 -0.4710
  896MOL0     H20958   2.764   6.642   8.661 -2.2810 -1.5470 -1.8446
  896MOL0     H20959   2.861   6.598   8.810  1.3151  0.3007 -2.7176
  896MOL0     H20960   2.781   6.480   8.706 -3.0381 -0.2326 -0.8670
  897MOL0     O20961   4.890   7.575   4.325  0.1886  0.7947  0.0259
  897MOL0     C20962   4.834   7.609   4.427 -0.5402 -0.3625 -1.2611
  897MOL0     O20963   4.794   7.736   4.460  0.4495 -0.4708 -0.1464
  897MOL0     C20964   4.811   7.842   4.368 -0.6090  0.8254  0.0140
  897MOL0     C20965   4.785   7.968   4.416 -1.0299 -1.4567 -0.8754
  897MOL0     C20966   4.815   8.090   4.345 -0.3551  0.0525 -0.1039
  897MOL0     C20967   4.849   8.084   4.212 -0.6117  0.9759 -0.4299
  897MOL0     O20968   4.869   8.194   4.133 -0.0414  0.5501 -0.4918
  897MOL0     C20969   4.822   8.323   4.169 -0.6105 -0.9034  0.8291
  897MOL0     C20970   4.873   8.442   4.072 -0.3153 -0.1694  0.4889
  897MOL0     C20971   4.828   8.423   3.932  1.0864 -0.0807  0.2473
  897MOL0     C20972   4.681   8.475   3.894 -0.8772  0.1293  0.5909
  897MOL0     C20973   4.677   8.614   3.851 -0.5491 -0.9932 -0.3482
  897MOL0     C20974   4.727   8.646   3.710 -0.7396 -0.3612  0.0698
  897MOL0     C20975   4.642   8.575   3.596 -0.3422  0.9163 -1.3935
  897MOL0     C20976   4.678   8.640   3.456  0.6888  0.4395  0.0642
  897MOL0     N20977   4.626   8.787   3.446  0.3060  0.5194  0.6843
  897MOL0     C20978   4.680   8.872   3.347  0.4017 -0.0579 -0.8524
  897MOL0     C20979   4.604   8.996   3.372 -0.9855 -0.4831  0.4897
  897MOL0     C20980   4.610   9.128   3.293  0.3895  1.0893 -0.4282
  897MOL0     C20981   4.468   9.187   3.265 -0.5525 -0.0678  0.7401
  897MOL0     C20982   4.358   9.096   3.205 -0.2811 -0.0786 -0.5878
  897MOL0     C20983   4.373   9.083   3.055  0.1045 -0.0160 -0.7275
  897MOL0     O20984   4.355   9.210   3.001  0.0454  0.5275  0.1739
  897MOL0     C20985   4.390   9.227   2.870 -0.6118  1.3128  0.0495
  897MOL0     C20986   4.347   9.129   2.779 -0.1374  0.1474  0.1657
  897MOL0     C20987   4.355   9.161   2.647  0.2990  0.8651 -0.4240
  897MOL0     C20988   4.412   9.267   2.601  0.1888 -1.0036  0.1289
  897MOL0     C20989   4.436   9.280   2.452  0.2025 -0.8622 -0.6357
  897MOL0     O20990   4.409   9.168   2.379 -0.1336 -0.3428 -0.1800
  897MOL0     C20991   4.383   9.177   2.244  0.3451  0.2877 -0.4125
  897MOL0     C20992   4.286   9.265   2.187  1.1866  0.4372  0.0272
  897MOL0     C20993   4.283   9.276   2.048  0.4969  0.5404 -0.6516
  897MOL0     C20994   4.366   9.208   1.960 -0.4264 -0.4016  0.1808
  897MOL0     O20995   4.346   9.219   1.822  0.0603 -1.0391  0.1419
  897MOL0     C20996   4.434   9.153   1.727  0.3312 -0.4341 -0.5504
  897MOL0     C20997   4.404   9.221   1.597  0.6865 -0.2158 -0.2707
  897MOL0     C20998   4.507   9.339   1.576  0.5354 -0.0862  0.1436
  897MOL0     C20999   4.479   9.398   1.444  0.5841  1.0235 -0.6622
  897MOL0     C21000   4.583   9.508   1.422  1.0912 -0.1931  0.6861
  897MOL0     C21001   4.681   9.489   1.314 -0.4869  0.3147  0.1912
  897MOL0     C21002   4.791   9.597   1.316 -0.7933 -0.2561  0.1463
  897MOL0     C21003   4.757   9.739   1.272  0.1272  0.3667  0.6280
  897MOL0    Cl21004   4.697   9.753   1.107  0.0272 -0.2987 -0.6452
  897MOL0     C21005   4.448   9.112   2.021 -0.6339 -1.1640 -0.0125
  897MOL0     C21006   4.462   9.100   2.163  0.4833  0.2363  0.5809
  897MOL0     O21007   4.481   9.388   2.417 -0.1611 -0.4446  0.1801
  897MOL0     C21008   4.446   9.369   2.691 -0.3524  0.4327 -0.0427
  897MOL0     C21009   4.443   9.345   2.829 -0.2678  1.5142 -0.5103
  897MOL0     N21010   4.525   8.974   3.482 -0.7273  0.4850  0.0839
  897MOL0     N21011   4.541   8.852   3.537  0.5461 -0.4633  0.4432
  897MOL0     C21012   4.855   7.954   4.153 -0.1570  0.0720  0.6158
  897MOL0     C21013   4.840   7.831   4.230 -0.2842 -0.0781 -0.2149
  897MOL0     C21014   4.839   7.510   4.543  0.3772  0.2156  1.0514
  897MOL0     C21015   4.739   7.535   4.642  0.2605 -0.3942  0.0001
  897MOL0     C21016   4.730   7.446   4.750  0.3940  0.2357  0.3952
  897MOL0     C21017   4.812   7.340   4.760  0.1741 -0.3696 -0.1574
  897MOL0     O21018   4.805   7.274   4.882  0.4770  0.4715  0.3890
  897MOL0     C21019   4.861   7.140   4.896 -0.0953  0.1696  0.6709
  897MOL0     C21020   4.817   7.037   4.792  0.0100  0.3751  0.5735
  897MOL0     C21021   4.680   6.986   4.826  0.1968  0.3452  0.9846
  897MOL0     C21022   4.686   6.865   4.931  1.2375 -0.0519 -0.7114
  897MOL0     C21023   4.566   6.895   5.016  1.0315  0.3652  0.1485
  897MOL0     C21024   4.453   6.924   5.050  0.0945 -0.4420  0.4704
  897MOL0     C21025   4.907   7.318   4.655 -0.1242  0.3086  0.5282
  897MOL0     C21026   4.916   7.395   4.546 -0.6373  0.6013  0.6168
  897MOL0     C21027   5.023   7.360   4.444 -0.8835 -0.0753  0.2032
  897MOL0     H21028   4.752   7.984   4.518 -2.2577 -1.5085 -1.2506
  897MOL0     H21029   4.812   8.188   4.393  4.2020  2.3756 -3.7899
  897MOL0     H21030   4.713   8.317   4.173 -0.5690 -0.9091  2.1021
  897MOL0     H21031   4.848   8.346   4.272 -0.4559 -2.7183  1.2267
  897MOL0     H21032   4.981   8.437   4.084 -0.2786 -0.1281  0.1796
  897MOL0     H21033   4.854   8.543   4.110  1.6583  0.7876 -0.9158
  897MOL0     H21034   4.839   8.317   3.908  0.1204  0.0355 -0.7798
  897MOL0     H21035   4.899   8.480   3.872  0.4503  2.1168  1.4434
  897MOL0     H21036   4.660   8.415   3.805  0.5045 -2.9458  2.1625
  897MOL0     H21037   4.617   8.451   3.980 -3.7397  1.2996 -1.0714
  897MOL0     H21038   4.573   8.644   3.858 -0.0366  1.8611 -2.8884
  897MOL0     H21039   4.733   8.666   3.929 -2.2678  2.3651 -1.1583
  897MOL0     H21040   4.710   8.753   3.696 -1.0238 -0.4463 -0.2598
  897MOL0     H21041   4.830   8.614   3.689 -1.4900 -4.2104  1.4446
  897MOL0     H21042   4.536   8.592   3.615 -0.3050  0.4860 -0.7696
  897MOL0     H21043   4.647   8.466   3.605  3.3113  1.0934  0.9152
  897MOL0     H21044   4.786   8.630   3.446  1.0334  1.4246  2.3665
  897MOL0     H21045   4.625   8.584   3.378 -0.6356 -0.2481  1.3941
  897MOL0     H21046   4.748   8.868   3.263 -1.8408 -0.6119 -2.7547
  897MOL0     H21047   4.671   9.193   3.357 -2.4754  1.8825  1.6835
  897MOL0     H21048   4.658   9.110   3.197  1.0086  3.4194 -0.6141
  897MOL0     H21049   4.427   9.226   3.358 -0.8322  2.4412 -0.3740
  897MOL0     H21050   4.496   9.268   3.197 -1.9394 -2.4815 -3.1042
  897MOL0     H21051   4.265   9.149   3.229  1.5046  2.2532  1.8148
  897MOL0     H21052   4.363   8.996   3.251  2.6787  1.2852  2.5354
  897MOL0     H21053   4.302   9.014   3.008 -1.1639 -1.1725  2.6023
  897MOL0     H21054   4.475   9.048   3.042  0.7222  0.1069  2.7679
  897MOL0     H21055   4.283   9.045   2.805  1.0178 -0.4624  1.1510
  897MOL0     H21056   4.314   9.089   2.577  1.1142 -0.5701  0.5296
  897MOL0     H21057   4.208   9.308   2.249  0.6836  0.8391 -0.8643
  897MOL0     H21058   4.204   9.338   2.008 -0.2606  0.1763  0.2254
  897MOL0     H21059   4.541   9.150   1.752  0.3449  1.5207 -0.2575
  897MOL0     H21060   4.395   9.051   1.722 -0.9655  0.0029  0.1934
  897MOL0     H21061   4.415   9.152   1.512  0.9942 -1.6238  0.8650
  897MOL0     H21062   4.300   9.253   1.592  0.6577 -0.0488  1.0497
  897MOL0     H21063   4.485   9.419   1.647 -1.6156 -0.8917  0.4674
  897MOL0     H21064   4.608   9.300   1.590  0.0923 -0.7017  1.9418
  897MOL0     H21065   4.378   9.440   1.441  1.6864  4.1078  1.1535
  897MOL0     H21066   4.491   9.319   1.369  3.9538 -0.3624  1.1392
  897MOL0     H21067   4.640   9.548   1.506  3.0920  1.0343 -1.1826
  897MOL0     H21068   4.514   9.591   1.403  2.6737  0.8792 -0.6102
  897MOL0     H21069   4.729   9.392   1.330 -1.4828  0.3813  4.7732
  897MOL0     H21070   4.624   9.500   1.221  0.7880 -0.7768 -0.7602
  897MOL0     H21071   4.880   9.567   1.259 -0.0046 -1.3833  1.8827
  897MOL0     H21072   4.830   9.621   1.415  1.2895  3.0880 -1.2696
  897MOL0     H21073   4.685   9.765   1.350  1.8717  2.5121  1.6132
  897MOL0     H21074   4.841   9.807   1.286 -0.9741  1.9780 -0.2371
  897MOL0     H21075   4.514   9.055   1.956 -1.6861 -1.2803 -1.0172
  897MOL0     H21076   4.541   9.034   2.197 -1.6611 -2.7727  0.0836
  897MOL0     H21077   4.499   9.454   2.649  0.4880 -0.0445  0.0345
  897MOL0     H21078   4.471   9.416   2.905 -1.5752  0.2026  1.2728
  897MOL0     H21079   4.891   7.945   4.051 -0.1781 -0.6570  0.6630
  897MOL0     H21080   4.854   7.746   4.165 -0.5458 -0.3091  0.0267
  897MOL0     H21081   4.663   7.612   4.640  1.4972  1.0495  2.8271
  897MOL0     H21082   4.658   7.472   4.827  0.9363  0.8157  0.7225
  897MOL0     H21083   4.853   7.095   4.995  2.6792 -0.9543  0.4562
  897MOL0     H21084   4.967   7.154   4.873 -0.2619 -1.6928 -1.6209
  897MOL0     H21085   4.886   6.956   4.768  0.1585  0.6099  0.1851
  897MOL0     H21086   4.801   7.088   4.696 -3.6613  1.9675  1.8191
  897MOL0     H21087   4.629   6.951   4.735  1.8388 -0.8488  0.4892
  897MOL0     H21088   4.612   7.068   4.853  0.4801  1.7932 -2.1908
  897MOL0     H21089   4.686   6.768   4.881  1.3738  0.4139 -1.6359
  897MOL0     H21090   4.774   6.864   4.997  0.4943  1.0932  0.3371
  897MOL0     H21091   4.347   6.931   5.058  0.0345 -0.0943 -0.4837
  897MOL0     H21092   4.964   7.226   4.655 -1.0365 -0.2857  1.9001
  897MOL0     H21093   4.990   7.313   4.351  2.8444 -3.3192  0.2686
  897MOL0     H21094   5.075   7.449   4.406  1.7382 -0.8450  1.7802
  897MOL0     H21095   5.101   7.293   4.480  0.0251  1.3271  0.9411
  898MOL0     O21096   3.982   6.017   1.105 -0.5371  0.0866  0.3821
  898MOL0     C21097   3.919   6.070   1.010  0.2046 -0.7232  0.1377
  898MOL0     O21098   3.958   6.075   0.877  0.1022  0.2338  0.0908
  898MOL0     C21099   4.076   6.005   0.840 -0.4211 -0.2649  0.0796
  898MOL0     C21100   4.149   5.905   0.902 -0.2597  0.4724  0.6748
  898MOL0     C21101   4.260   5.851   0.840 -1.1163 -0.0460 -0.1096
  898MOL0     C21102   4.300   5.884   0.710  0.1077  0.0523  0.9308
  898MOL0     O21103   4.422   5.843   0.647  0.5446 -0.3464 -0.1681
  898MOL0     C21104   4.443   5.709   0.665 -0.3758  0.3941 -0.1673
  898MOL0     C21105   4.337   5.613   0.612 -0.9128  0.9106 -0.2360
  898MOL0     C21106   4.238   5.659   0.498 -0.0711  0.6127 -0.5069
  898MOL0     C21107   4.168   5.534   0.452  0.7915  0.7749 -0.4040
  898MOL0     C21108   4.078   5.553   0.329  0.5265  0.5882  0.4661
  898MOL0     C21109   3.994   5.432   0.268 -0.7027 -1.1000  0.2909
  898MOL0     C21110   4.078   5.304   0.273  1.1244 -0.7658  0.6324
  898MOL0     C21111   4.196   5.290   0.168  0.6665 -0.0970 -0.3512
  898MOL0     N21112   4.309   5.235   0.240  0.6251  0.2365 -0.0603
  898MOL0     C21113   4.411   5.304   0.283  0.3229  0.5375  0.1559
  898MOL0     C21114   4.499   5.212   0.338  0.6828 -0.8230 -0.2479
  898MOL0     C21115   4.630   5.246   0.392  0.9975  0.9983  0.2186
  898MOL0     C21116   4.724   5.277   0.280  0.2330 -0.0316 -0.0471
  898MOL0     C21117   4.866   5.273   0.343  0.8963  0.9095  0.5658
  898MOL0     C21118   4.889   5.367   0.461 -0.3060  0.0535  0.9745
  898MOL0     O21119   4.873   5.307   0.594 -0.5247  0.9748  0.0380
  898MOL0     C21120   4.814   5.396   0.675 -0.4340  0.3819 -0.7831
  898MOL0     C21121   4.683   5.383   0.712 -0.0789 -0.0369  0.8435
  898MOL0     C21122   4.633   5.459   0.819  0.1834  1.2132  0.3141
  898MOL0     C21123   4.706   5.564   0.875  0.0756 -0.0272 -0.3091
  898MOL0     C21124   4.640   5.656   0.971 -0.7030  0.3132  0.0309
  898MOL0     O21125   4.699   5.779   0.987 -0.2529 -0.1383 -0.0107
  898MOL0     C21126   4.641   5.875   1.071  1.0210  0.4000 -0.6910
  898MOL0     C21127   4.693   5.892   1.195 -0.0823  0.4975  0.2025
  898MOL0     C21128   4.649   5.997   1.283 -0.2936 -0.0823  0.8117
  898MOL0     C21129   4.541   6.073   1.249  1.0492  0.1335 -0.8614
  898MOL0     O21130   4.500   6.174   1.343 -0.0748 -0.4903  0.0822
  898MOL0     C21131   4.400   6.265   1.297  0.4043  0.1319  0.0267
  898MOL0     C21132   4.390   6.394   1.384 -0.9976  0.4582  0.8848
  898MOL0     C21133   4.257   6.457   1.371 -0.0170 -0.4713  0.1970
  898MOL0     C21134   4.249   6.606   1.399  0.8026 -0.1632  0.4854
  898MOL0     C21135   4.109   6.665   1.391  0.0421 -0.4450 -0.7770
  898MOL0     C21136   4.075   6.816   1.424  0.5973 -0.3933 -0.6233
  898MOL0     C21137   4.129   6.915   1.321  0.2999 -0.5537 -0.5403
  898MOL0     C21138   4.126   7.057   1.370 -0.9465 -0.8028  0.2114
  898MOL0    Cl21139   4.164   7.176   1.235 -0.3112 -0.1419 -0.1902
  898MOL0     C21140   4.482   6.046   1.124  0.4014 -0.8387 -0.3572
  898MOL0     C21141   4.527   5.956   1.033 -1.1015  0.5209  1.1745
  898MOL0     O21142   4.553   5.610   1.042  0.3585  0.0296  0.5442
  898MOL0     C21143   4.838   5.585   0.835 -0.2168 -0.2103  0.5220
  898MOL0     C21144   4.888   5.498   0.735 -0.5496 -0.5483  1.0400
  898MOL0     N21145   4.446   5.087   0.311  0.4847 -0.9250  1.0546
  898MOL0     N21146   4.334   5.099   0.256  0.6032 -1.1495 -0.0049
  898MOL0     C21147   4.224   5.982   0.650  0.1209  0.7768  0.0956
  898MOL0     C21148   4.114   6.039   0.710 -0.7716  0.4493  0.3220
  898MOL0     C21149   3.797   6.158   1.041  0.2711  0.4539  1.1455
  898MOL0     C21150   3.751   6.248   0.944 -0.0041 -0.0507 -0.7688
  898MOL0     C21151   3.641   6.332   0.964 -0.4464 -0.0770 -0.2990
  898MOL0     C21152   3.564   6.332   1.082 -0.4887  0.6786  0.8345
  898MOL0     O21153   3.470   6.421   1.110 -0.3414  0.1917  0.1095
  898MOL0     C21154   3.434   6.538   1.036  0.5884 -0.0980 -0.2782
  898MOL0     C21155   3.330   6.502   0.930 -0.0146 -0.0270  0.6314
  898MOL0     C21156   3.336   6.630   0.838  0.2848 -0.4750 -0.7522
  898MOL0     C21157   3.265   6.757   0.898 -0.3622  0.2846 -0.8129
  898MOL0     C21158   3.198   6.836   0.808  0.7545 -0.8140 -0.0530
  898MOL0     C21159   3.130   6.902   0.740 -0.8088 -0.2140  0.0707
  898MOL0     C21160   3.609   6.252   1.179 -0.6314  0.4421 -0.0660
  898MOL0     C21161   3.722   6.162   1.166  0.6696 -0.3133  0.3217
  898MOL0     C21162   3.727   6.058   1.271 -0.4422  1.4535  0.0430
  898MOL0     H21163   4.134   5.869   1.003  0.2724 -1.2596  0.1755
  898MOL0     H21164   4.321   5.783   0.898  1.0330  2.0561  0.2593
  898MOL0     H21165   4.528   5.689   0.599 -0.4481 -2.3525  0.4254
  898MOL0     H21166   4.480   5.675   0.762  2.0488  0.9741 -0.8047
  898MOL0     H21167   4.269   5.580   0.691 -0.7813 -0.5976 -0.7281
  898MOL0     H21168   4.395   5.522   0.596  0.8112  2.3303 -2.6829
  898MOL0     H21169   4.296   5.702   0.415 -0.7799  0.1040 -1.2766
  898MOL0     H21170   4.166   5.732   0.535 -0.4435 -1.1444  2.6401
  898MOL0     H21171   4.245   5.461   0.426 -0.3799 -0.0272 -1.7379
  898MOL0     H21172   4.112   5.496   0.538 -0.2261  0.5853 -1.1287
  898MOL0     H21173   3.997   5.619   0.360  0.2586 -1.0271  3.5207
  898MOL0     H21174   4.135   5.586   0.241 -1.3612 -2.3153 -2.0504
  898MOL0     H21175   3.904   5.424   0.329 -1.7051  0.6913 -0.8575
  898MOL0     H21176   3.952   5.446   0.168 -3.4776 -0.7681  1.4320
  898MOL0     H21177   4.016   5.216   0.251  1.5244 -0.5337 -1.6264
  898MOL0     H21178   4.120   5.303   0.374  1.2083  0.6571  0.6261
  898MOL0     H21179   4.170   5.214   0.093  2.2987  0.4414 -1.5203
  898MOL0     H21180   4.226   5.382   0.118  3.8871  0.1217  1.7066
  898MOL0     H21181   4.412   5.411   0.270 -2.6136  0.5342 -0.8096
  898MOL0     H21182   4.611   5.340   0.445  1.2258  1.6474 -0.8142
  898MOL0     H21183   4.671   5.185   0.472 -3.4750  0.6044  2.5169
  898MOL0     H21184   4.721   5.197   0.205 -1.6520  1.4363 -1.6337
  898MOL0     H21185   4.699   5.374   0.238 -2.2084  0.3046  1.9025
  898MOL0     H21186   4.938   5.288   0.262 -0.3338  0.5953 -0.6162
  898MOL0     H21187   4.883   5.170   0.377  2.1138  0.0125 -2.4426
  898MOL0     H21188   4.831   5.458   0.446  0.7545  0.3755 -1.4933
  898MOL0     H21189   4.994   5.397   0.464  0.5090 -2.3780 -0.2961
  898MOL0     H21190   4.638   5.294   0.669  0.9572  0.3600 -1.2152
  898MOL0     H21191   4.529   5.451   0.846  0.5753  1.6599  2.1419
  898MOL0     H21192   4.790   5.848   1.214 -0.1790 -0.9071 -2.0983
  898MOL0     H21193   4.705   6.020   1.373  1.3039 -2.6376  0.5791
  898MOL0     H21194   4.410   6.298   1.193  3.0639  1.1098  0.5045
  898MOL0     H21195   4.305   6.212   1.296  1.2453 -1.4913  1.5143
  898MOL0     H21196   4.409   6.360   1.486 -0.9637  0.4458  0.8743
  898MOL0     H21197   4.468   6.466   1.358  0.5480 -0.4371  2.8231
  898MOL0     H21198   4.204   6.437   1.278  0.4369  3.4862 -1.0927
  898MOL0     H21199   4.193   6.406   1.445 -0.5149  0.0998  0.1683
  898MOL0     H21200   4.314   6.666   1.335 -0.7003  0.3651 -0.5882
  898MOL0     H21201   4.278   6.607   1.505 -0.9938  1.3104  1.0090
  898MOL0     H21202   4.045   6.605   1.455 -0.7411 -0.9022 -1.9528
  898MOL0     H21203   4.068   6.650   1.291  1.5265  0.6365 -1.6054
  898MOL0     H21204   3.966   6.817   1.426  0.6002  0.7390  0.9551
  898MOL0     H21205   4.109   6.850   1.522  0.7623  1.0053 -1.1461
  898MOL0     H21206   4.072   6.890   1.231  0.0093 -2.3244  0.1158
  898MOL0     H21207   4.235   6.893   1.305  0.5142 -1.6339  2.0250
  898MOL0     H21208   4.036   7.075   1.431 -1.1787 -1.0384 -0.0579
  898MOL0     H21209   4.202   7.074   1.446 -0.1455 -1.2649 -0.4741
  898MOL0     H21210   4.398   6.103   1.085  0.9774 -0.0977 -0.5233
  898MOL0     H21211   4.488   5.943   0.932  0.1379  1.2103  0.5789
  898MOL0     H21212   4.903   5.664   0.870 -2.9967  2.4029  0.1707
  898MOL0     H21213   4.993   5.512   0.715 -0.3168  1.1188  3.0657
  898MOL0     H21214   4.248   6.018   0.551 -0.4294  0.2605 -0.2279
  898MOL0     H21215   4.058   6.117   0.659 -1.1732 -1.2712 -2.0684
  898MOL0     H21216   3.809   6.261   0.853 -0.4796  1.5910 -0.8653
  898MOL0     H21217   3.621   6.404   0.885 -2.2906 -1.0088 -0.7289
  898MOL0     H21218   3.524   6.569   0.983  0.1980 -0.9986 -1.5130
  898MOL0     H21219   3.392   6.621   1.094  0.2069 -0.6428  0.2388
  898MOL0     H21220   3.232   6.477   0.973  1.2830 -1.4210  3.0106
  898MOL0     H21221   3.362   6.419   0.867  2.2467  1.6562 -0.5719
  898MOL0     H21222   3.278   6.617   0.746 -0.9896  2.3092 -0.4708
  898MOL0     H21223   3.441   6.640   0.809  0.3955 -0.9866 -0.5359
  898MOL0     H21224   3.187   6.732   0.971  1.9883  0.9339  2.1277
  898MOL0     H21225   3.340   6.809   0.959  3.1713 -2.6677 -2.2300
  898MOL0     H21226   3.076   6.957   0.665  0.1525 -1.1504 -1.3673
  898MOL0     H21227   3.550   6.247   1.270  2.7127  0.0026  2.2755
  898MOL0     H21228   3.639   5.996   1.252 -0.8843  2.3018 -0.7746
  898MOL0     H21229   3.824   6.007   1.273 -1.4780 -0.5820  1.0794
  898MOL0     H21230   3.714   6.105   1.369 -1.1588  1.4130 -0.0312
  899MOL0     O21231   5.688  10.511   5.575 -0.4335 -0.3507 -0.0362
  899MOL0     C21232   5.698  10.630   5.537 -0.5422  0.1559  0.5458
  899MOL0     O21233   5.814  10.689   5.496  1.0809  0.1074  0.3773
  899MOL0     C21234   5.932  10.617   5.480  0.3851  0.2625  0.5140
  899MOL0     C21235   5.940  10.477   5.449  0.2325 -0.1344  0.2744
  899MOL0     C21236   6.061  10.426   5.423 -0.3034 -0.8922  1.1609
  899MOL0     C21237   6.171  10.506   5.422 -0.0751  0.1146  0.6738
  899MOL0     O21238   6.302  10.465   5.393 -0.0974 -0.0806  0.8053
  899MOL0     C21239   6.332  10.334   5.348  1.0046  0.1611  0.6620
  899MOL0     C21240   6.476  10.304   5.313 -0.7094 -0.0425  0.1604
  899MOL0     C21241   6.562  10.348   5.439  0.4319  0.5044  1.0029
  899MOL0     C21242   6.702  10.287   5.426  0.1667 -0.0990 -0.0577
  899MOL0     C21243   6.792  10.351   5.319  0.5827 -0.2983  1.1669
  899MOL0     C21244   6.934  10.300   5.298 -0.4204  0.3667 -0.7781
  899MOL0     C21245   7.012  10.373   5.195  0.2762 -0.1563  0.6809
  899MOL0     C21246   7.104  10.282   5.117 -0.2277 -0.3452 -0.1159
  899MOL0     N21247   7.202  10.363   5.049  0.0262 -0.2963 -1.0692
  899MOL0     C21248   7.332  10.343   5.040 -1.1712 -0.3734 -0.2861
  899MOL0     C21249   7.377  10.426   4.943 -1.0308  0.8640  0.5878
  899MOL0     C21250   7.523  10.461   4.915  0.0380 -0.2975 -0.4541
  899MOL0     C21251   7.620  10.448   5.034 -0.0516  0.1571  0.0025
  899MOL0     C21252   7.763  10.497   4.996  0.3710  0.2490 -0.6411
  899MOL0     C21253   7.869  10.446   5.100 -0.4396 -0.9807  0.2875
  899MOL0     O21254   7.984  10.525   5.090 -0.1158 -0.3245 -1.0227
  899MOL0     C21255   8.066  10.528   5.206 -0.3896 -0.4540 -0.2682
  899MOL0     C21256   8.173  10.619   5.211  0.9070 -0.4510 -0.1082
  899MOL0     C21257   8.251  10.631   5.316 -0.4688 -0.2884 -0.2483
  899MOL0     C21258   8.240  10.538   5.420 -0.1050  0.5875 -0.1577
  899MOL0     C21259   8.345  10.544   5.527 -0.4583 -0.2747 -0.4211
  899MOL0     O21260   8.432  10.636   5.515 -0.0856  0.2850 -0.7840
  899MOL0     C21261   8.555  10.635   5.577  0.2141 -0.3453 -0.3622
  899MOL0     C21262   8.627  10.759   5.589  1.2005  0.3706  0.1681
  899MOL0     C21263   8.763  10.760   5.629 -0.4802  1.0625  0.1268
  899MOL0     C21264   8.826  10.645   5.678  0.4595  0.4702  0.4627
  899MOL0     O21265   8.948  10.646   5.731 -0.8818  0.6514 -0.0463
  899MOL0     C21266   9.033  10.598   5.628 -0.2856 -0.1895  0.8928
  899MOL0     C21267   9.170  10.605   5.694  0.0849  0.3269 -0.0113
  899MOL0     C21268   9.284  10.558   5.608  0.4902  0.4462  0.4301
  899MOL0     C21269   9.422  10.541   5.679 -0.5580 -0.2390  1.5168
  899MOL0     C21270   9.488  10.681   5.700 -0.7401 -0.1214 -0.2333
  899MOL0     C21271   9.641  10.666   5.720  0.2731  0.4504 -0.0284
  899MOL0     C21272   9.674  10.572   5.841 -0.3580 -0.3548 -0.0399
  899MOL0     C21273   9.810  10.579   5.900  0.3068 -0.4075 -0.1421
  899MOL0    Cl21274   9.948  10.517   5.804 -0.1616 -0.1144 -0.1683
  899MOL0     C21275   8.747  10.525   5.682 -0.1357  0.1185  0.1769
  899MOL0     C21276   8.616  10.519   5.634  0.7828  0.4183 -0.2435
  899MOL0     O21277   8.336  10.467   5.624 -0.3806  0.9722 -0.1179
  899MOL0     C21278   8.149  10.434   5.411  0.7296  0.1301 -0.1720
  899MOL0     C21279   8.055  10.429   5.309  0.7435 -1.2701  0.9683
  899MOL0     N21280   7.265  10.481   4.873  1.1354  0.2015 -0.5146
  899MOL0     N21281   7.166  10.453   4.951 -0.4246 -0.1680  0.7523
  899MOL0     C21282   6.173  10.640   5.459  0.4108 -0.5015  0.0599
  899MOL0     C21283   6.046  10.695   5.486 -0.0063  0.1334  0.1171
  899MOL0     C21284   5.576  10.710   5.531 -0.0009  0.4757 -0.4491
  899MOL0     C21285   5.564  10.811   5.623  0.3636 -0.8882  0.5174
  899MOL0     C21286   5.456  10.897   5.624 -0.0763 -0.4686  0.7446
  899MOL0     C21287   5.351  10.880   5.530  0.1902 -0.8514 -0.1867
  899MOL0     O21288   5.241  10.958   5.553 -0.5291  0.1164 -0.0532
  899MOL0     C21289   5.104  10.909   5.516 -0.2060  0.3697  0.1288
  899MOL0     C21290   5.056  10.942   5.372 -0.0317 -0.5941  0.1023
  899MOL0     C21291   5.020  11.093   5.346 -0.1665 -0.3321  0.5349
  899MOL0     C21292   5.033  11.139   5.207  0.5385 -0.7327 -0.0793
  899MOL0     C21293   4.981  11.274   5.189  0.1046 -0.1935  0.7018
  899MOL0     C21294   4.927  11.378   5.168  0.4975 -0.2333  0.4693
  899MOL0     C21295   5.362  10.769   5.444  0.5922 -0.4210  1.2278
  899MOL0     C21296   5.476  10.682   5.441  1.2514 -0.0999  0.1770
  899MOL0     C21297   5.489  10.567   5.339  0.0665 -0.2574 -0.2752
  899MOL0     H21298   5.854  10.412   5.434  1.4470 -1.9448  0.8088
  899MOL0     H21299   6.075  10.320   5.403  1.5670 -1.2718  3.8988
  899MOL0     H21300   6.295  10.264   5.423 -0.7856 -0.5036 -0.7698
  899MOL0     H21301   6.273  10.323   5.257 -1.7133  2.1223  2.0283
  899MOL0     H21302   6.504  10.383   5.242  2.1507  2.6134  3.8099
  899MOL0     H21303   6.485  10.198   5.288 -0.6521 -0.6423  2.5169
  899MOL0     H21304   6.515  10.315   5.533 -2.4254  0.4994 -0.3108
  899MOL0     H21305   6.551  10.457   5.444 -3.1967  0.2174  4.3091
  899MOL0     H21306   6.750  10.292   5.525  0.6298  0.1812 -0.2940
  899MOL0     H21307   6.702  10.178   5.415  1.6963 -0.3649  1.9587
  899MOL0     H21308   6.734  10.334   5.228  0.8939  1.7872  0.5298
  899MOL0     H21309   6.790  10.459   5.339 -0.6139 -0.0864  0.0236
  899MOL0     H21310   6.978  10.302   5.398  1.2861 -3.1085 -1.3220
  899MOL0     H21311   6.935  10.194   5.272 -0.2998 -0.5843  2.6887
  899MOL0     H21312   7.076  10.452   5.235  3.8101 -3.3814  1.9936
  899MOL0     H21313   6.938  10.417   5.128  1.7160  0.3118 -0.6618
  899MOL0     H21314   7.147  10.211   5.188  1.5428  1.4117  0.6422
  899MOL0     H21315   7.037  10.236   5.043  0.6086  0.5916 -1.5083
  899MOL0     H21316   7.406  10.289   5.098 -0.6112  0.2015 -0.4417
  899MOL0     H21317   7.563  10.403   4.831 -2.0236 -1.3974 -0.7500
  899MOL0     H21318   7.528  10.566   4.886  2.2574 -1.0773 -3.3034
  899MOL0     H21319   7.581  10.503   5.120  1.4592  0.8508  0.2666
  899MOL0     H21320   7.629  10.342   5.062  2.1777 -0.3100 -2.1470
  899MOL0     H21321   7.772  10.605   5.014  2.1037 -0.3051  2.5991
  899MOL0     H21322   7.782  10.470   4.892  3.1004  1.2170 -0.4854
  899MOL0     H21323   7.894  10.343   5.071  1.2180 -0.9425  1.4730
  899MOL0     H21324   7.833  10.455   5.203  1.8788  0.9111  1.0043
  899MOL0     H21325   8.193  10.687   5.128  3.3097  0.6292  1.2557
  899MOL0     H21326   8.333  10.695   5.284 -0.7880 -0.5874 -1.7198
  899MOL0     H21327   8.585  10.848   5.543 -1.1805  0.2317  1.9078
  899MOL0     H21328   8.822  10.851   5.626  1.8561 -0.3697 -0.0208
  899MOL0     H21329   9.007  10.503   5.580 -1.8912  0.4531  0.4554
  899MOL0     H21330   9.031  10.674   5.549 -0.7158 -0.7764  0.3268
  899MOL0     H21331   9.188  10.709   5.723 -2.1972  0.6319  0.4971
  899MOL0     H21332   9.162  10.545   5.786  1.1595  0.2188  0.0271
  899MOL0     H21333   9.251  10.472   5.549  2.2144  0.2924 -0.3674
  899MOL0     H21334   9.295  10.631   5.527  0.4211 -2.0989 -2.0503
  899MOL0     H21335   9.488  10.476   5.620 -1.0788 -2.1214  2.8888
  899MOL0     H21336   9.419  10.488   5.775  1.4146 -2.2219  0.5779
  899MOL0     H21337   9.451  10.739   5.786 -0.1142  1.4669 -0.9982
  899MOL0     H21338   9.473  10.742   5.610  0.8019 -0.8540 -1.0315
  899MOL0     H21339   9.686  10.613   5.635 -1.7696 -4.6107  1.6461
  899MOL0     H21340   9.673  10.770   5.735  0.3720  0.6536 -1.4241
  899MOL0     H21341   9.646  10.474   5.801 -4.4035  0.5553  0.1646
  899MOL0     H21342   9.604  10.598   5.921 -0.1629  3.4324 -0.9183
  899MOL0     H21343   9.826  10.684   5.925  2.4866 -0.1161 -2.3998
  899MOL0     H21344   9.801  10.518   5.990 -0.3707  1.2619  0.9660
  899MOL0     H21345   8.796  10.447   5.740  0.0951  1.3960  1.7865
  899MOL0     H21346   8.570  10.421   5.632  1.8213 -0.1116 -2.9139
  899MOL0     H21347   8.149  10.346   5.475  0.6516  1.0424  1.1302
  899MOL0     H21348   7.990  10.342   5.310  1.7053 -2.0387 -0.2209
  899MOL0     H21349   6.263  10.701   5.468  0.7210 -1.1859  2.3396
  899MOL0     H21350   6.040  10.797   5.521 -1.7635 -0.1385  0.7239
  899MOL0     H21351   5.648  10.832   5.690  3.6789  0.7359 -3.6933
  899MOL0     H21352   5.445  10.970   5.703 -0.0047  2.8923 -2.1075
  899MOL0     H21353   5.036  10.935   5.597  2.2415  2.5257  1.6331
  899MOL0     H21354   5.116  10.800   5.520  2.0595  0.5361 -0.7938
  899MOL0     H21355   4.984  10.878   5.321 -0.8679  0.1924  0.2674
  899MOL0     H21356   5.146  10.920   5.314  2.0614  2.5090  1.8806
  899MOL0     H21357   5.099  11.146   5.401  0.4564 -1.3079  0.6157
  899MOL0     H21358   4.918  11.105   5.383 -0.8806 -1.3666 -1.0342
  899MOL0     H21359   5.139  11.135   5.179  1.2037 -0.7227  2.1835
  899MOL0     H21360   4.983  11.069   5.140 -3.0576  0.6684  0.9374
  899MOL0     H21361   4.883  11.468   5.130  0.3912 -1.2139 -1.9102
  899MOL0     H21362   5.291  10.751   5.364  1.1938  0.1001  0.5564
  899MOL0     H21363   5.591  10.574   5.302  0.9225  3.8084  2.2507
  899MOL0     H21364   5.467  10.471   5.388  0.0895 -1.1550 -1.9639
  899MOL0     H21365   5.410  10.579   5.264 -0.7337 -1.7134  0.2877
  900MOL0     O21366  10.163   8.926   4.116 -0.4114 -0.2392 -0.4020
  900MOL0     C21367  10.215   8.918   4.008  0.3250 -0.3608  0.2012
  900MOL0     O21368  10.181   8.992   3.900  0.0424 -0.0534  0.0713
  900MOL0     C21369  10.067   9.066   3.907  0.3300 -0.3463 -0.6198
  900MOL0     C21370   9.948   9.010   3.871 -1.1280 -0.3746 -1.0149
  900MOL0     C21371   9.828   9.077   3.895 -0.1889 -0.5137 -0.3992
  900MOL0     C21372   9.834   9.203   3.959 -0.6122  0.1160 -0.3600
  900MOL0     O21373   9.730   9.285   3.999 -0.7915  0.8211  1.0950
  900MOL0     C21374   9.597   9.225   4.004 -0.4207 -0.1916 -0.0837
  900MOL0     C21375   9.537   9.288   4.125 -0.0159 -0.1033  0.7675
  900MOL0     C21376   9.630   9.256   4.245  0.8548  0.9073 -0.2306
  900MOL0     C21377   9.583   9.318   4.380 -0.4548 -0.1454  1.0760
  900MOL0     C21378   9.446   9.273   4.431  0.8127  0.8149  0.0770
  900MOL0     C21379   9.418   9.311   4.576  0.0768  0.6512 -0.0742
  900MOL0     C21380   9.268   9.287   4.613 -0.2723  0.2413 -0.6710
  900MOL0     C21381   9.249   9.268   4.767  0.4545 -0.8274 -0.0362
  900MOL0     N21382   9.336   9.359   4.841 -0.2769  0.3767  0.4238
  900MOL0     C21383   9.328   9.491   4.840  0.0125 -0.5367 -0.5856
  900MOL0     C21384   9.421   9.534   4.919  0.1390  0.3389  1.0375
  900MOL0     C21385   9.444   9.676   4.954  0.3201  0.2462 -0.4461
  900MOL0     C21386   9.556   9.743   4.858  0.5042  0.8236 -0.2675
  900MOL0     C21387   9.694   9.680   4.864  0.1947 -1.1215 -0.1863
  900MOL0     C21388   9.740   9.675   5.012  0.6002 -0.1695  0.1693
  900MOL0     O21389   9.734   9.801   5.077  0.4953 -0.1930  0.0546
  900MOL0     C21390   9.817   9.899   5.040 -0.0862  0.1369 -0.5476
  900MOL0     C21391   9.926   9.889   4.965 -0.1876  0.4613  0.5212
  900MOL0     C21392  10.019   9.995   4.951 -0.5044  0.5074  0.1964
  900MOL0     C21393   9.991  10.119   5.019  0.0002  0.3980  0.1812
  900MOL0     C21394  10.078  10.231   4.990 -0.7008  0.4915 -0.0891
  900MOL0     O21395  10.120  10.241   4.857  0.5601  0.0851 -0.9691
  900MOL0     C21396  10.203  10.347   4.808  0.0784 -0.1505  0.2048
  900MOL0     C21397  10.324  10.373   4.869  0.4053  0.2020 -0.5463
  900MOL0     C21398  10.405  10.473   4.831 -0.9234 -0.6096  0.3509
  900MOL0     C21399  10.366  10.555   4.727  0.2640 -0.9602  0.1555
  900MOL0     O21400  10.435  10.661   4.683 -0.2075  0.0402  0.8461
  900MOL0     C21401  10.544  10.619   4.593 -0.6460 -0.4479  0.3879
  900MOL0     C21402  10.585  10.755   4.539  0.2842  0.0768 -0.4370
  900MOL0     C21403  10.460  10.839   4.485 -0.9073  0.0203  0.5175
  900MOL0     C21404  10.395  10.766   4.360  0.4534  0.3911 -0.7728
  900MOL0     C21405  10.279  10.854   4.315  0.7718  0.1631 -0.6268
  900MOL0     C21406  10.184  10.782   4.212 -0.0845  0.2914 -0.5235
  900MOL0     C21407  10.071  10.696   4.271 -0.2299 -0.1177 -0.0479
  900MOL0     C21408   9.962  10.784   4.338  0.0541  0.4311 -0.0318
  900MOL0    Cl21409   9.867  10.691   4.447 -0.1843  0.0695  0.2572
  900MOL0     C21410  10.245  10.536   4.667  0.4464  0.4301 -0.1177
  900MOL0     C21411  10.167  10.426   4.697 -0.0180  0.4567 -0.1290
  900MOL0     O21412  10.110  10.306   5.085 -0.3619  0.0381  0.5487
  900MOL0     C21413   9.879  10.131   5.107 -0.1233  0.0222 -1.0382
  900MOL0     C21414   9.803  10.010   5.127  0.1947 -1.1637 -0.2817
  900MOL0     N21415   9.498   9.426   4.965  0.1545  0.0578  0.0677
  900MOL0     N21416   9.440   9.320   4.916 -0.1372  0.1996  0.2825
  900MOL0     C21417   9.961   9.265   3.990  0.3655  0.0416 -0.6772
  900MOL0     C21418  10.084   9.199   3.964  0.4769 -0.0260 -0.1793
  900MOL0     C21419  10.346   8.846   4.000 -0.8745 -0.5994 -0.0490
  900MOL0     C21420  10.363   8.732   4.077  0.6567 -0.2752  0.2286
  900MOL0     C21421  10.483   8.660   4.080  0.5598 -0.7191 -0.2575
  900MOL0     C21422  10.587   8.694   3.999 -0.3909  0.0010 -0.4719
  900MOL0     O21423  10.707   8.625   3.990 -0.2116 -0.4459 -0.8089
  900MOL0     C21424  10.714   8.512   4.085 -0.0014  0.1547 -1.1531
  900MOL0     C21425  10.842   8.431   4.071 -0.8834 -0.5249 -0.0942
  900MOL0     C21426  10.897   8.398   3.927  0.8561 -0.0860 -0.4942
  900MOL0     C21427  10.789   8.324   3.849  0.5102 -0.1133  0.4490
  900MOL0     C21428  10.756   8.194   3.892 -0.3580 -0.0589  0.5092
  900MOL0     C21429  10.723   8.083   3.907 -0.6470  0.1509 -0.5492
  900MOL0     C21430  10.577   8.809   3.919 -0.1007  0.8992  0.0769
  900MOL0     C21431  10.459   8.890   3.917 -0.1600 -0.1422 -0.0283
  900MOL0     C21432  10.440   9.007   3.822 -0.6047 -0.1139 -0.2066
  900MOL0     H21433   9.952   8.913   3.821  3.2525 -1.6809  1.2880
  900MOL0     H21434   9.737   9.027   3.863 -1.1176  0.7708  0.1417
  900MOL0     H21435   9.537   9.266   3.922 -1.5983  1.1311  1.3530
  900MOL0     H21436   9.591   9.117   4.020  0.1252 -0.5240 -1.8945
  900MOL0     H21437   9.439   9.245   4.146 -0.7913  0.4569 -1.5105
  900MOL0     H21438   9.523   9.395   4.108 -0.3259 -0.0712  1.2187
  900MOL0     H21439   9.731   9.297   4.242  2.4136 -2.5619  0.7373
  900MOL0     H21440   9.636   9.149   4.263 -3.6029  0.4494 -0.2265
  900MOL0     H21441   9.659   9.320   4.459 -1.7642  0.5143  2.3662
  900MOL0     H21442   9.562   9.425   4.370 -4.3754 -0.8472 -0.0368
  900MOL0     H21443   9.365   9.310   4.369 -0.1660 -0.0225  0.8210
  900MOL0     H21444   9.438   9.165   4.419  1.9784  0.7461 -0.2361
  900MOL0     H21445   9.483   9.251   4.641 -2.4605 -0.9647  1.1470
  900MOL0     H21446   9.434   9.419   4.587 -0.2350  0.6773  0.1278
  900MOL0     H21447   9.240   9.193   4.565 -0.7197 -1.1683  2.1294
  900MOL0     H21448   9.200   9.365   4.579  0.7542  1.7568  0.6429
  900MOL0     H21449   9.146   9.287   4.798  1.0939  0.9895  1.1443
  900MOL0     H21450   9.270   9.163   4.793 -2.7785 -1.6071 -0.1552
  900MOL0     H21451   9.252   9.546   4.787  1.5613  0.6008 -1.7372
  900MOL0     H21452   9.353   9.727   4.922 -0.0340  0.0847  0.2850
  900MOL0     H21453   9.464   9.686   5.061 -1.0678 -0.2813 -0.1176
  900MOL0     H21454   9.532   9.726   4.753  1.2677 -2.9291  0.0180
  900MOL0     H21455   9.556   9.850   4.883  0.6105  2.3278 -5.6109
  900MOL0     H21456   9.748   9.750   4.800  1.8570 -0.7102  1.5688
  900MOL0     H21457   9.701   9.586   4.808 -0.2865 -1.2739  0.0048
  900MOL0     H21458   9.846   9.646   5.014  1.8594  3.7760 -0.7299
  900MOL0     H21459   9.674   9.608   5.069  0.3407  0.2849  0.4038
  900MOL0     H21460   9.953   9.796   4.916 -1.3553 -0.3249  1.3015
  900MOL0     H21461  10.100   9.980   4.880 -1.8912 -1.3548 -1.0999
  900MOL0     H21462  10.356  10.305   4.948 -0.2530 -1.0756 -1.3623
  900MOL0     H21463  10.504  10.477   4.874 -0.5539  0.2999 -0.5440
  900MOL0     H21464  10.630  10.594   4.655 -0.1468  0.9463  0.2999
  900MOL0     H21465  10.519  10.553   4.509  0.7034  1.7057 -1.8500
  900MOL0     H21466  10.638  10.807   4.619  2.9191 -0.9858 -1.3872
  900MOL0     H21467  10.653  10.740   4.454  0.8113 -0.8608  0.1319
  900MOL0     H21468  10.392  10.857   4.568 -1.4691 -0.0944  0.0926
  900MOL0     H21469  10.501  10.936   4.454  1.4620 -0.5231  1.7607
  900MOL0     H21470  10.342  10.674   4.386 -3.4538  3.1714  2.7782
  900MOL0     H21471  10.466  10.748   4.280  2.3263  0.8199  0.7213
  900MOL0     H21472  10.317  10.946   4.270  1.2168  0.6979  0.8078
  900MOL0     H21473  10.215  10.887   4.396 -0.3134  1.5223 -1.9808
  900MOL0     H21474  10.141  10.857   4.145 -0.0692  1.0404  0.2856
  900MOL0     H21475  10.248  10.720   4.149 -3.1052 -1.5602 -2.0032
  900MOL0     H21476  10.120  10.623   4.336 -0.4514 -0.5866 -0.4016
  900MOL0     H21477  10.024  10.638   4.191  1.2509 -0.0680 -1.0157
  900MOL0     H21478   9.995  10.865   4.404  1.3043  2.7369 -3.2309
  900MOL0     H21479   9.898  10.825   4.259  0.6204 -0.3415 -0.9190
  900MOL0     H21480  10.197  10.601   4.595 -3.8654 -2.6474 -0.4033
  900MOL0     H21481  10.079  10.417   4.634  0.6368 -0.5195 -0.9511
  900MOL0     H21482   9.856  10.225   5.157 -0.1069 -1.5329  2.1236
  900MOL0     H21483   9.715  10.035   5.185  1.0560  1.6996 -0.0551
  900MOL0     H21484   9.965   9.367   4.026 -2.2474  1.0105 -2.7775
  900MOL0     H21485  10.181   9.229   4.002  0.3723 -2.0892  1.8892
  900MOL0     H21486  10.278   8.696   4.134 -0.5535 -1.4935 -2.1940
  900MOL0     H21487  10.483   8.570   4.140 -1.6446  1.5055  3.4729
  900MOL0     H21488  10.636   8.442   4.055 -0.4565  1.4624 -3.2704
  900MOL0     H21489  10.716   8.548   4.188  0.1451  1.4703 -1.5935
  900MOL0     H21490  10.802   8.337   4.111 -2.5294 -0.0561 -0.5682
  900MOL0     H21491  10.930   8.472   4.122  0.5312  1.0585 -3.5141
  900MOL0     H21492  10.989   8.338   3.930  1.4288  0.7090 -1.4302
  900MOL0     H21493  10.921   8.489   3.871 -0.5843  0.3698 -0.4044
  900MOL0     H21494  10.698   8.383   3.833  1.1937  0.8115 -0.1076
  900MOL0     H21495  10.833   8.300   3.753 -2.1054 -2.5778 -0.2704
  900MOL0     H21496  10.721   7.976   3.915 -0.4194  0.1031 -1.0907
  900MOL0     H21497  10.655   8.833   3.849 -0.4368 -1.3723 -1.1587
  900MOL0     H21498  10.394   9.097   3.865  2.8992  0.7953  2.0394
  900MOL0     H21499  10.536   9.040   3.783 -0.3935  2.0008  1.8531
  900MOL0     H21500  10.365   8.987   3.745  0.1037 -0.8064 -0.7224
  901MOL0     O21501  11.375   7.549   1.030  0.2130 -0.6003 -0.6127
  901MOL0     C21502  11.449   7.577   1.116  0.1046  0.2166  0.2332
  901MOL0     O21503  11.570   7.523   1.129 -0.6176  0.1644 -0.4667
  901MOL0     C21504  11.627   7.465   1.020 -0.7243  0.6246  0.4907
  901MOL0     C21505  11.612   7.323   1.007 -1.1105  0.3693  0.6267
  901MOL0     C21506  11.656   7.263   0.885 -0.1657  0.6262  0.6550
  901MOL0     C21507  11.726   7.329   0.781 -0.4281 -0.3565  0.2461
  901MOL0     O21508  11.784   7.257   0.674 -0.3807  0.5948 -0.2333
  901MOL0     C21509  11.835   7.338   0.562 -0.6514 -0.5342  0.7521
  901MOL0     C21510  11.845   7.262   0.438 -0.0127 -0.4930 -0.0497
  901MOL0     C21511  11.924   7.135   0.449  0.0083 -0.8253 -0.6251
  901MOL0     C21512  12.002   7.106   0.325 -0.2977  0.7827  0.5184
  901MOL0     C21513  12.080   6.972   0.343 -0.9288  0.1160  0.7823
  901MOL0     C21514  12.128   6.926   0.208 -0.7931 -0.7211  0.2515
  901MOL0     C21515  12.022   6.868   0.108 -0.3997 -0.3654  0.1620
  901MOL0     C21516  12.094   6.821  -0.017 -0.2150  0.1951  0.3957
  901MOL0     N21517  12.178   6.706   0.013 -1.2388  0.2896 -0.1251
  901MOL0     C21518  12.142   6.591   0.067  1.1861 -0.4287 -0.1325
  901MOL0     C21519  12.247   6.511   0.058  0.1214 -0.1826  0.7236
  901MOL0     C21520  12.262   6.370   0.114 -0.6307 -0.5549  0.5867
  901MOL0     C21521  12.142   6.315   0.177  0.4190 -0.6916  0.6628
  901MOL0     C21522  12.145   6.155   0.203 -0.6195 -0.6280 -0.4012
  901MOL0     C21523  12.003   6.117   0.240 -0.2290  1.2421 -0.4197
  901MOL0     O21524  11.940   6.195   0.349 -0.2320  0.0954  0.3409
  901MOL0     C21525  11.957   6.182   0.484  0.6417 -0.9076  1.0847
  901MOL0     C21526  12.041   6.086   0.550  0.2651  0.3290 -0.3543
  901MOL0     C21527  12.051   6.082   0.685  0.3267 -0.9865 -0.4911
  901MOL0     C21528  11.959   6.155   0.767  0.2106 -0.4645 -0.8996
  901MOL0     C21529  11.962   6.141   0.917 -0.0429  0.1742  0.5236
  901MOL0     O21530  11.993   6.016   0.966  0.3494  0.5021 -0.0840
  901MOL0     C21531  11.985   5.992   1.100 -0.6058  0.1249  0.5519
  901MOL0     C21532  11.864   5.945   1.161 -0.0092 -0.2950 -0.3403
  901MOL0     C21533  11.868   5.905   1.297  2.0383  0.0154 -0.2601
  901MOL0     C21534  11.979   5.926   1.367 -0.1752 -0.2806 -0.0785
  901MOL0     O21535  11.974   5.900   1.500  0.1250  0.2265 -0.6055
  901MOL0     C21536  12.001   6.021   1.586 -0.6796 -0.9815 -0.6317
  901MOL0     C21537  12.031   5.968   1.730  0.3364  0.4070 -0.1439
  901MOL0     C21538  12.070   6.084   1.822 -0.0452  0.4820  0.3261
  901MOL0     C21539  12.103   6.030   1.958 -0.5870  0.0362 -0.2755
  901MOL0     C21540  12.145   6.139   2.055  0.0004 -0.2497 -0.0782
  901MOL0     C21541  12.254   6.105   2.162  0.0063  0.8708 -0.5131
  901MOL0     C21542  12.226   5.976   2.246 -0.2130 -0.7737  0.7206
  901MOL0     C21543  12.297   5.952   2.374 -0.2645  0.4830  0.0439
  901MOL0    Cl21544  12.479   5.943   2.344 -0.2019  0.0313 -0.1957
  901MOL0     C21545  12.101   5.967   1.311 -0.9241 -0.0480 -0.1787
  901MOL0     C21546  12.108   5.993   1.172 -0.8661  0.2400  0.2075
  901MOL0     O21547  11.896   6.225   0.982 -0.2668  0.0872 -0.3812
  901MOL0     C21548  11.882   6.255   0.705  0.6858  0.6214  1.2232
  901MOL0     C21549  11.875   6.265   0.569  0.2111  0.0345 -0.2167
  901MOL0     N21550  12.352   6.584   0.019 -0.0069 -1.0719  0.4173
  901MOL0     N21551  12.313   6.707  -0.023  0.0866 -0.6568  0.8054
  901MOL0     C21552  11.747   7.467   0.803 -0.0975  0.2394  0.1015
  901MOL0     C21553  11.704   7.533   0.917  0.3082 -0.6677  0.0466
  901MOL0     C21554  11.408   7.659   1.230 -0.6586 -0.5024 -0.3267
  901MOL0     C21555  11.489   7.658   1.344 -1.1137  0.1138 -0.6842
  901MOL0     C21556  11.442   7.696   1.469 -0.1554 -0.6154 -0.1487
  901MOL0     C21557  11.312   7.746   1.490 -0.2019 -0.0848  0.6270
  901MOL0     O21558  11.255   7.786   1.609  0.1529 -1.1296 -0.9933
  901MOL0     C21559  11.329   7.789   1.729 -0.4472 -1.1465 -0.9849
  901MOL0     C21560  11.350   7.928   1.789  0.4262  0.7637 -0.0122
  901MOL0     C21561  11.447   8.018   1.709  0.1240 -0.2837 -0.4406
  901MOL0     C21562  11.445   8.164   1.771  0.4124 -1.0821  1.0177
  901MOL0     C21563  11.531   8.159   1.892  0.1666  0.5003  0.3409
  901MOL0     C21564  11.610   8.151   1.986 -0.0992 -0.1838  0.3739
  901MOL0     C21565  11.235   7.764   1.376  0.1644 -0.7149 -0.0330
  901MOL0     C21566  11.283   7.720   1.243  0.2924  0.5568 -0.0600
  901MOL0     C21567  11.178   7.741   1.136 -0.8529 -0.2230 -0.0312
  901MOL0     H21568  11.564   7.274   1.091  0.8862 -4.1839 -0.5976
  901MOL0     H21569  11.641   7.155   0.877 -1.9473  0.9340 -1.1097
  901MOL0     H21570  11.770   7.426   0.551 -2.2648 -1.8699 -0.9744
  901MOL0     H21571  11.936   7.367   0.591 -0.7175  4.1550 -2.5642
  901MOL0     H21572  11.892   7.328   0.365 -2.8598 -0.9341 -2.4243
  901MOL0     H21573  11.740   7.244   0.414 -1.2515 -1.1136  4.7963
  901MOL0     H21574  11.849   7.059   0.469  0.0727 -1.0552 -1.2260
  901MOL0     H21575  11.989   7.135   0.537 -0.8543 -0.4951  0.0159
  901MOL0     H21576  11.938   7.105   0.237  0.9423 -2.3853 -0.4864
  901MOL0     H21577  12.082   7.181   0.321  1.9938 -1.3964  2.3091
  901MOL0     H21578  12.165   6.982   0.411  0.6394 -0.8614 -0.9320
  901MOL0     H21579  12.018   6.898   0.394 -0.3454 -1.1109 -0.2398
  901MOL0     H21580  12.183   7.012   0.169  1.1232 -1.9868  0.0196
  901MOL0     H21581  12.219   6.867   0.215  1.1408  1.7735 -1.8119
  901MOL0     H21582  11.965   6.956   0.077  1.2025  0.3090 -0.9686
  901MOL0     H21583  11.959   6.794   0.159  0.2179 -0.9683  0.0630
  901MOL0     H21584  12.024   6.798  -0.098  1.4719 -2.1635 -0.5219
  901MOL0     H21585  12.163   6.897  -0.053  0.5524 -0.3888  0.6032
  901MOL0     H21586  12.049   6.571   0.119  1.6204  0.4648  1.0394
  901MOL0     H21587  12.291   6.302   0.035 -2.3969  1.6155 -2.1242
  901MOL0     H21588  12.350   6.361   0.177  0.5628 -1.0950 -1.1117
  901MOL0     H21589  12.144   6.368   0.273 -0.0809  0.0568  0.2771
  901MOL0     H21590  12.054   6.347   0.121 -0.7097  2.7412  3.9010
  901MOL0     H21591  12.221   6.119   0.273  0.6337 -0.0567 -1.4206
  901MOL0     H21592  12.182   6.117   0.107  2.5234  0.5024  0.2279
  901MOL0     H21593  12.004   6.009   0.260  2.8190  1.1593 -0.5828
  901MOL0     H21594  11.945   6.130   0.148 -1.1812 -2.2371 -0.4730
  901MOL0     H21595  12.107   6.019   0.497 -1.2237 -1.7682  0.3137
  901MOL0     H21596  12.128   6.027   0.738 -1.5177  0.3721  4.1647
  901MOL0     H21597  11.781   5.920   1.095 -1.8661 -0.2611  1.8498
  901MOL0     H21598  11.783   5.861   1.348  3.2427  1.5367  3.4228
  901MOL0     H21599  12.084   6.078   1.543  0.8122 -3.1724 -0.8225
  901MOL0     H21600  11.912   6.084   1.594  1.5778  2.2180  2.5550
  901MOL0     H21601  11.944   5.909   1.760  1.6882 -2.2394 -1.0506
  901MOL0     H21602  12.094   5.880   1.721 -1.9058 -1.1823 -1.5085
  901MOL0     H21603  12.148   6.147   1.779  0.1634  1.1050  1.5726
  901MOL0     H21604  11.981   6.144   1.841  1.4269  2.9586 -0.1325
  901MOL0     H21605  12.192   5.969   1.938  1.5505  2.4336  1.3255
  901MOL0     H21606  12.038   5.952   1.999  1.4423 -1.5542  0.1275
  901MOL0     H21607  12.051   6.170   2.101  1.1832  1.2859  1.4590
  901MOL0     H21608  12.190   6.227   2.007 -2.1549 -0.2509 -2.2746
  901MOL0     H21609  12.350   6.080   2.116  0.1921 -0.7233  0.6459
  901MOL0     H21610  12.267   6.188   2.231 -1.4850  1.0436 -0.4037
  901MOL0     H21611  12.243   5.889   2.183 -0.5493 -1.4199  1.5135
  901MOL0     H21612  12.118   5.990   2.259 -0.3625 -0.4648 -0.6568
  901MOL0     H21613  12.269   6.034   2.441  0.0107 -0.2098  1.0227
  901MOL0     H21614  12.260   5.859   2.418 -0.5268 -0.6973 -2.4659
  901MOL0     H21615  12.189   5.977   1.374 -0.4081 -0.5763 -0.7946
  901MOL0     H21616  12.199   6.020   1.120 -1.0864  2.1000  0.6969
  901MOL0     H21617  11.812   6.316   0.762  0.6673  5.4634 -3.2651
  901MOL0     H21618  11.800   6.331   0.525 -0.4571 -1.0335 -0.7235
  901MOL0     H21619  11.786   7.537   0.729 -2.7611  0.3983 -1.2986
  901MOL0     H21620  11.707   7.641   0.921  2.4136 -0.5723 -2.3448
  901MOL0     H21621  11.579   7.598   1.345 -1.2516 -0.2264  2.5609
  901MOL0     H21622  11.513   7.670   1.547 -0.8098 -1.4967  0.1704
  901MOL0     H21623  11.427   7.743   1.714 -1.1089 -2.0136 -2.9660
  901MOL0     H21624  11.283   7.725   1.805  0.2614  2.4144  2.7992
  901MOL0     H21625  11.389   7.912   1.890 -1.6230 -2.3538  0.4337
  901MOL0     H21626  11.248   7.969   1.791 -0.8976 -2.3004  0.9477
  901MOL0     H21627  11.418   8.027   1.604 -3.5581  1.1642  0.5714
  901MOL0     H21628  11.545   7.972   1.726 -0.7245 -1.0581  3.0540
  901MOL0     H21629  11.491   8.234   1.700 -0.1878  0.2656  1.9233
  901MOL0     H21630  11.349   8.209   1.799  1.2233  0.2345  1.8015
  901MOL0     H21631  11.676   8.149   2.071  1.1030 -1.1203 -0.5465
  901MOL0     H21632  11.137   7.810   1.378  0.4349 -0.1342  2.2688
  901MOL0     H21633  11.227   7.785   1.049 -1.4485  1.6494  0.5326
  901MOL0     H21634  11.125   7.647   1.119 -0.9636 -0.4850  1.5897
  901MOL0     H21635  11.113   7.824   1.166  0.7634  1.1577 -0.2084
  902MOL0     O21636   7.002  11.450  11.132  0.5983 -0.4495 -0.3844
  902MOL0     C21637   7.069  11.415  11.221 -0.4373  0.7572  0.0075
  902MOL0     O21638   7.165  11.311  11.205  0.5583  0.4161 -0.7899
  902MOL0     C21639   7.193  11.257  11.082 -0.0632 -0.9345  0.5420
  902MOL0     C21640   7.159  11.125  11.062 -0.0763  1.1444  0.0515
  902MOL0     C21641   7.189  11.071  10.937 -0.0765  0.3979  0.0743
  902MOL0     C21642   7.262  11.143  10.833  0.7703 -0.1248 -0.1216
  902MOL0     O21643   7.309  11.102  10.715  0.1651  0.2248  0.8554
  902MOL0     C21644   7.262  10.974  10.675  0.4721  0.1620  0.1111
  902MOL0     C21645   7.293  10.960  10.535 -0.5210  1.1222 -0.1330
  902MOL0     C21646   7.438  10.915  10.510 -0.7182 -0.3930  0.2263
  902MOL0     C21647   7.470  10.885  10.365 -0.5401 -0.1757 -0.3375
  902MOL0     C21648   7.604  10.813  10.347  0.7081  1.0832  0.4733
  902MOL0     C21649   7.737  10.873  10.391  0.5136  0.0708 -0.2581
  902MOL0     C21650   7.766  11.005  10.319  0.3502  0.3006  0.7223
  902MOL0     C21651   7.799  10.976  10.166 -0.6273 -0.1370 -0.4982
  902MOL0     N21652   7.871  11.082  10.094  0.5854  0.2773 -0.2255
  902MOL0     C21653   7.826  11.207  10.069  0.9570  1.2660  0.5813
  902MOL0     C21654   7.910  11.259   9.980 -1.7040 -0.4606 -0.4809
  902MOL0     C21655   7.894  11.396   9.910  0.1074 -0.2320  0.0484
  902MOL0     C21656   7.773  11.383   9.805  0.2871 -0.8072  0.0020
  902MOL0     C21657   7.711  11.519   9.783  0.0094 -0.7695 -0.2665
  902MOL0     C21658   7.789  11.605   9.685  0.0301  1.1381  0.2426
  902MOL0     O21659   7.747  11.742   9.674  0.3794 -0.0664 -0.2360
  902MOL0     C21660   7.626  11.762   9.610 -0.0609  0.4506  0.6051
  902MOL0     C21661   7.525  11.832   9.668 -0.9999 -0.9158 -0.2218
  902MOL0     C21662   7.415  11.882   9.606 -0.3882 -0.5172 -0.1468
  902MOL0     C21663   7.404  11.859   9.464  1.0296 -0.8699 -0.4554
  902MOL0     C21664   7.289  11.920   9.390 -0.2537 -0.0110 -0.1934
  902MOL0     O21665   7.294  11.910   9.253 -0.2493 -0.2493 -0.7232
  902MOL0     C21666   7.186  11.954   9.179 -0.0595 -0.2790 -0.3316
  902MOL0     C21667   7.055  11.916   9.211 -0.0292 -0.7369  0.6288
  902MOL0     C21668   6.952  11.968   9.133  0.5401  0.4927  0.2308
  902MOL0     C21669   6.980  12.046   9.027 -0.7524 -1.1415  0.5992
  902MOL0     O21670   6.880  12.077   8.939 -0.0041 -0.6377  0.4592
  902MOL0     C21671   6.896  12.044   8.803  0.0589  1.1081  0.1591
  902MOL0     C21672   6.763  12.020   8.730  0.9099 -0.6158  0.1483
  902MOL0     C21673   6.674  12.146   8.714  0.3719 -0.7152 -0.6541
  902MOL0     C21674   6.538  12.126   8.645  0.1172 -0.5010 -1.2252
  902MOL0     C21675   6.472  12.259   8.607 -0.4949 -0.1363 -0.0017
  902MOL0     C21676   6.322  12.270   8.578  0.1467  0.0764 -0.0295
  902MOL0     C21677   6.278  12.196   8.460 -0.1712  0.3752 -0.1544
  902MOL0     C21678   6.313  12.276   8.331  0.0701 -0.1309  0.3411
  902MOL0    Cl21679   6.221  12.434   8.325  0.2524 -0.1969 -0.3190
  902MOL0     C21680   7.107  12.081   9.001 -0.2802  0.1650  0.0657
  902MOL0     C21681   7.214  12.038   9.081  0.8868  0.2082 -0.0123
  902MOL0     O21682   7.203  11.980   9.457  0.2318  0.2843 -0.4514
  902MOL0     C21683   7.492  11.769   9.402 -0.1653  0.0447 -0.2947
  902MOL0     C21684   7.605  11.726   9.474  1.0788 -1.4933  1.1113
  902MOL0     N21685   8.005  11.165   9.960 -0.2920 -0.4381  0.1967
  902MOL0     N21686   7.984  11.052  10.029  0.1024 -0.4932 -0.3651
  902MOL0     C21687   7.306  11.276  10.874  0.3175  0.8051 -0.3344
  902MOL0     C21688   7.259  11.331  10.991 -1.2721  0.2679 -0.5485
  902MOL0     C21689   7.086  11.494  11.342  0.1762 -0.7893 -0.4647
  902MOL0     C21690   7.219  11.484  11.409 -0.1051  0.2192 -0.1301
  902MOL0     C21691   7.254  11.570  11.508  0.6105 -0.0125  0.0138
  902MOL0     C21692   7.166  11.675  11.550 -0.7497  0.5060  0.3663
  902MOL0     O21693   7.228  11.775  11.621 -0.8289  0.5787 -0.2119
  902MOL0     C21694   7.164  11.905  11.628  0.3286 -0.4827  0.8912
  902MOL0     C21695   7.108  11.923  11.764  0.4113  0.3066  0.2806
  902MOL0     C21696   7.018  12.055  11.777 -0.7522 -0.8171 -0.2745
  902MOL0     C21697   6.956  12.051  11.916  0.1443 -0.0108 -0.7240
  902MOL0     C21698   6.887  12.186  11.927  0.0180 -0.0268  0.4433
  902MOL0     C21699   6.838  12.292  11.959 -0.0944  0.3065 -0.7249
  902MOL0     C21700   7.025  11.669  11.507 -0.3751  1.3987 -0.7326
  902MOL0     C21701   6.994  11.576  11.401  0.5733 -0.2318 -1.1793
  902MOL0     C21702   6.845  11.559  11.368  1.0192 -0.2681 -0.0520
  902MOL0     H21703   7.109  11.076  11.145  2.2013  0.1576  0.9280
  902MOL0     H21704   7.161  10.969  10.916  1.5550  0.2605 -1.7260
  902MOL0     H21705   7.319  10.894  10.724  1.1009  0.4681 -0.1225
  902MOL0     H21706   7.153  10.966  10.680 -0.3820  4.9403 -3.5585
  902MOL0     H21707   7.281  11.051  10.475 -0.5498 -1.1520 -3.9016
  902MOL0     H21708   7.223  10.891  10.487  2.4548 -1.5874 -0.9133
  902MOL0     H21709   7.467  10.826  10.566  0.2058 -0.2660 -0.0399
  902MOL0     H21710   7.496  10.999  10.549 -1.3904  1.5607 -2.7014
  902MOL0     H21711   7.390  10.819  10.330 -0.7821  0.9370 -2.0138
  902MOL0     H21712   7.465  10.976  10.303  1.8948  0.0480 -0.2975
  902MOL0     H21713   7.590  10.710  10.380 -1.2178  0.7657 -1.1586
  902MOL0     H21714   7.619  10.797  10.240 -1.5244 -0.5904  0.3356
  902MOL0     H21715   7.728  10.898  10.497 -1.6488  0.6526 -0.5230
  902MOL0     H21716   7.816  10.802  10.364  1.2850  1.1359 -0.8704
  902MOL0     H21717   7.862  11.040  10.358 -0.2226  2.2679  0.4730
  902MOL0     H21718   7.683  11.075  10.332 -1.4044 -1.7326  0.9934
  902MOL0     H21719   7.866  10.890  10.167  2.1338  1.8643 -1.0595
  902MOL0     H21720   7.709  10.951  10.109 -0.1604 -0.9497 -0.9041
  902MOL0     H21721   7.747  11.262  10.120  0.7029  1.6299 -0.1881
  902MOL0     H21722   7.857  11.475   9.976 -0.5359  0.3785 -1.0079
  902MOL0     H21723   7.988  11.425   9.862  1.4235  0.3654  2.8209
  902MOL0     H21724   7.805  11.344   9.708 -2.5613 -0.7070 -1.0795
  902MOL0     H21725   7.692  11.319   9.841 -2.0834  1.5333 -0.8037
  902MOL0     H21726   7.683  11.578   9.872 -1.2437 -0.4460 -0.8524
  902MOL0     H21727   7.615  11.500   9.735  0.1652 -1.2081 -0.4073
  902MOL0     H21728   7.788  11.566   9.583 -3.0827  1.7702 -0.0518
  902MOL0     H21729   7.894  11.594   9.714  0.4922 -0.9471 -1.9033
  902MOL0     H21730   7.537  11.866   9.771 -2.0954  1.0833 -0.7141
  902MOL0     H21731   7.348  11.944   9.665  1.5165  0.6129  0.9234
  902MOL0     H21732   7.042  11.855   9.299 -3.2802 -2.7202 -1.0153
  902MOL0     H21733   6.851  11.941   9.161 -0.3813  2.1892 -1.2287
  902MOL0     H21734   6.916  12.132   8.741 -4.5410  1.9105 -0.5072
  902MOL0     H21735   6.971  11.967   8.783 -1.2442 -0.4219  0.9188
  902MOL0     H21736   6.791  11.969   8.638  1.8002 -0.4704  0.3386
  902MOL0     H21737   6.706  11.952   8.795 -0.8609 -0.8363 -1.5316
  902MOL0     H21738   6.673  12.206   8.806  2.3383 -1.1376 -0.3153
  902MOL0     H21739   6.723  12.215   8.645  3.9513  0.9149  3.0627
  902MOL0     H21740   6.466  12.063   8.699  3.0607 -1.4764  2.0086
  902MOL0     H21741   6.572  12.069   8.558  3.1501 -2.5005  1.0068
  902MOL0     H21742   6.520  12.279   8.511 -2.0117 -1.4044 -1.0744
  902MOL0     H21743   6.497  12.334   8.683 -1.6684  0.9200 -0.6161
  902MOL0     H21744   6.274  12.213   8.659  1.9010 -0.4857  0.6562
  902MOL0     H21745   6.279  12.371   8.580  0.9518  0.4279  2.0633
  902MOL0     H21746   6.169  12.183   8.466 -0.3055  2.1312  2.1241
  902MOL0     H21747   6.328  12.100   8.446 -0.2965  0.2482  0.2718
  902MOL0     H21748   6.420  12.293   8.315 -0.0884  1.7525  1.0028
  902MOL0     H21749   6.272  12.211   8.253 -0.9476 -0.2644  0.9796
  902MOL0     H21750   7.130  12.139   8.912 -0.5528  0.9332  0.4867
  902MOL0     H21751   7.319  12.055   9.063  1.7088 -5.4183 -2.9306
  902MOL0     H21752   7.471  11.746   9.298  1.8486  0.4679 -0.8491
  902MOL0     H21753   7.686  11.674   9.424  0.7597 -0.7418 -0.2437
  902MOL0     H21754   7.375  11.325  10.806  1.1970  0.4878  0.3065
  902MOL0     H21755   7.302  11.425  11.024  0.4754 -1.0151  1.0426
  902MOL0     H21756   7.301  11.419  11.382  1.0198  0.6681  1.9415
  902MOL0     H21757   7.351  11.567  11.555  0.6054 -1.2957 -0.0196
  902MOL0     H21758   7.080  11.910  11.557  1.2405 -3.1097 -0.4663
  902MOL0     H21759   7.241  11.979  11.604  2.4137 -3.4753 -2.7524
  902MOL0     H21760   7.174  11.900  11.848  2.6198 -1.0295 -1.6676
  902MOL0     H21761   7.035  11.843  11.778  2.0397 -0.9945  1.7620
  902MOL0     H21762   6.933  12.036  11.710  0.5043 -0.1568 -2.1509
  902MOL0     H21763   7.080  12.141  11.752 -3.3402  0.7837 -1.6220
  902MOL0     H21764   6.883  11.972  11.935 -0.2246  0.8478  1.9240
  902MOL0     H21765   7.034  12.039  11.992  0.5983  0.9583 -1.0218
  902MOL0     H21766   6.779  12.382  11.972  0.4375  0.5525  0.1167
  902MOL0     H21767   6.950  11.736  11.547 -2.3834 -0.4954 -1.1164
  902MOL0     H21768   6.843  11.601  11.267 -3.1858  2.6975  0.9628
  902MOL0     H21769   6.798  11.461  11.378  0.9413 -0.1687  0.6664
  902MOL0     H21770   6.781  11.628  11.425 -2.2638 -2.2778 -1.0878
  903MOL0     O21771   6.541   1.240   5.426  0.0883  0.7731 -0.2660
  903MOL0     C21772   6.606   1.132   5.402  0.0384 -0.4354  0.6152
  903MOL0     O21773   6.707   1.077   5.474  0.3064 -0.4867 -0.7616
  903MOL0     C21774   6.768   1.132   5.594  0.5054  0.1858 -0.0008
  903MOL0     C21775   6.870   1.065   5.668  0.1896 -0.2942 -0.0756
  903MOL0     C21776   6.944   1.121   5.782  0.4475 -0.0278  0.8932
  903MOL0     C21777   6.873   1.225   5.847 -0.1524 -0.6987  0.2629
  903MOL0     O21778   6.910   1.276   5.967 -0.0453  0.4133 -0.5789
  903MOL0     C21779   6.925   1.169   6.060 -0.8138  0.2619 -0.5905
  903MOL0     C21780   6.858   1.212   6.188  0.3827  0.6931 -0.7739
  903MOL0     C21781   6.882   1.102   6.298 -0.6480  0.1819 -0.4161
  903MOL0     C21782   7.031   1.122   6.358  0.1518 -0.8727 -0.1643
  903MOL0     C21783   7.064   1.013   6.456 -0.1813  0.0348 -0.0610
  903MOL0     C21784   7.053   1.059   6.603  0.1558 -0.1838 -0.9973
  903MOL0     C21785   7.160   1.165   6.656 -1.0007 -0.1112  0.2186
  903MOL0     C21786   7.116   1.210   6.797 -0.1853  0.1308  0.3812
  903MOL0     N21787   7.132   1.103   6.897  0.3274 -1.0065  0.6587
  903MOL0     C21788   7.254   1.034   6.903 -0.3578  0.7496 -1.1058
  903MOL0     C21789   7.238   0.936   6.994 -0.5974 -0.0223 -0.0974
  903MOL0     C21790   7.325   0.823   7.050 -0.3103 -0.3152  0.2288
  903MOL0     C21791   7.451   0.859   7.134  0.3797  0.1414  0.1366
  903MOL0     C21792   7.534   0.742   7.168  1.1323  0.1564  0.7568
  903MOL0     C21793   7.672   0.782   7.225  0.4701 -0.2300 -0.6054
  903MOL0     O21794   7.752   0.660   7.220  0.2051  0.1349  0.1671
  903MOL0     C21795   7.877   0.658   7.277  0.2393  0.9873  0.5025
  903MOL0     C21796   7.955   0.548   7.243  0.9361  0.3975 -0.1793
  903MOL0     C21797   8.084   0.525   7.298  1.2387  0.7430  0.4971
  903MOL0     C21798   8.141   0.618   7.382 -0.3256  0.7842  0.0957
  903MOL0     C21799   8.275   0.589   7.441  0.8574 -0.6325  0.2947
  903MOL0     O21800   8.361   0.493   7.385  0.1913 -0.0299 -0.0786
  903MOL0     C21801   8.481   0.472   7.446 -0.2064 -0.6939 -0.6848
  903MOL0     C21802   8.514   0.473   7.587 -0.4462  0.7640  0.2913
  903MOL0     C21803   8.643   0.456   7.628 -0.7473  0.4053  0.3488
  903MOL0     C21804   8.753   0.432   7.541 -0.4532  0.1056  0.1119
  903MOL0     O21805   8.885   0.423   7.588  0.6150 -0.5033  0.0017
  903MOL0     C21806   8.927   0.515   7.690  0.1071 -1.0328 -0.5616
  903MOL0     C21807   9.075   0.501   7.706  0.7788 -0.4887 -0.0409
  903MOL0     C21808   9.116   0.614   7.804  0.2207  0.1589  0.6861
  903MOL0     C21809   9.275   0.607   7.826 -0.5711  0.1104 -0.9837
  903MOL0     C21810   9.312   0.656   7.972  0.3525  0.2590  0.2457
  903MOL0     C21811   9.456   0.706   7.978 -1.1698  0.0311  0.0585
  903MOL0     C21812   9.487   0.772   8.112  0.6195  0.1390 -0.2915
  903MOL0     C21813   9.635   0.798   8.142  0.0341 -0.9331 -0.8263
  903MOL0    Cl21814   9.709   0.634   8.146  0.4634  0.3443 -0.3611
  903MOL0     C21815   8.721   0.423   7.400 -0.6044  0.0302  0.8660
  903MOL0     C21816   8.584   0.462   7.362  0.3249  0.3462 -0.5806
  903MOL0     O21817   8.302   0.661   7.534 -0.0742  0.0069  0.2509
  903MOL0     C21818   8.062   0.726   7.426 -0.3064  0.0736 -1.0612
  903MOL0     C21819   7.936   0.745   7.373  0.2265 -0.7914  0.3649
  903MOL0     N21820   7.104   0.943   7.040  0.8928  0.5004  0.6044
  903MOL0     N21821   7.043   1.052   6.988 -1.0765  0.3029  0.0687
  903MOL0     C21822   6.766   1.285   5.784 -0.1577  0.2942  0.1925
  903MOL0     C21823   6.719   1.245   5.661  0.2808  0.5646  0.3962
  903MOL0     C21824   6.568   1.052   5.279 -0.5880 -0.5989  0.3973
  903MOL0     C21825   6.662   0.961   5.226  0.1964 -0.1923 -0.5580
  903MOL0     C21826   6.628   0.886   5.116 -0.9970  0.3496 -0.3550
  903MOL0     C21827   6.496   0.887   5.065 -0.2259  0.2103  0.3505
  903MOL0     O21828   6.462   0.814   4.954 -0.2352  0.0304  0.8673
  903MOL0     C21829   6.553   0.730   4.891 -0.6717  0.1953  0.7166
  903MOL0     C21830   6.480   0.653   4.770  0.4495  0.6070  0.8660
  903MOL0     C21831   6.573   0.565   4.676 -0.0352 -0.5821  0.7916
  903MOL0     C21832   6.507   0.480   4.564 -0.3817 -0.1691  0.2434
  903MOL0     C21833   6.607   0.385   4.519  0.1613  0.0042  0.6114
  903MOL0     C21834   6.698   0.304   4.523  0.9531  0.6650  1.2845
  903MOL0     C21835   6.397   0.970   5.131 -1.0146  0.3534  0.4182
  903MOL0     C21836   6.436   1.054   5.231 -1.0012 -0.2502  0.9394
  903MOL0     C21837   6.318   1.127   5.298 -0.9101 -0.4696 -0.2625
  903MOL0     H21838   6.909   0.977   5.618  2.0456 -0.2541  1.2090
  903MOL0     H21839   7.036   1.072   5.813  0.4023  0.5974  2.0940
  903MOL0     H21840   6.903   1.067   6.027  3.7136 -1.6099  1.4073
  903MOL0     H21841   7.031   1.145   6.071 -0.6304 -3.1466 -5.8649
  903MOL0     H21842   6.750   1.215   6.174  0.2222 -0.9498 -0.1773
  903MOL0     H21843   6.901   1.307   6.220  0.5827  0.6131 -0.8021
  903MOL0     H21844   6.873   1.002   6.256 -0.7201  0.3803 -0.8794
  903MOL0     H21845   6.813   1.132   6.378 -0.8829  2.6983 -1.4533
  903MOL0     H21846   7.104   1.113   6.278 -0.0994 -1.6676 -0.3141
  903MOL0     H21847   7.048   1.223   6.396 -0.9096 -0.2335 -1.3135
  903MOL0     H21848   6.999   0.928   6.436 -0.0313  0.1592 -1.1714
  903MOL0     H21849   7.166   0.977   6.443  1.0104  1.9132  2.9472
  903MOL0     H21850   6.951   1.097   6.612 -0.3332 -1.5207 -0.6819
  903MOL0     H21851   7.062   0.974   6.672 -1.5997  0.6269  0.3158
  903MOL0     H21852   7.170   1.248   6.586 -1.5046 -0.7825 -0.6745
  903MOL0     H21853   7.254   1.109   6.656 -2.2266 -2.2792  0.9632
  903MOL0     H21854   7.178   1.295   6.827 -0.3484  0.6037 -0.5925
  903MOL0     H21855   7.011   1.243   6.794  0.6910  3.1279 -0.5791
  903MOL0     H21856   7.339   1.045   6.835  2.0573 -2.9853  0.9763
  903MOL0     H21857   7.261   0.758   7.110 -1.3185 -0.7583 -1.2639
  903MOL0     H21858   7.350   0.765   6.960 -1.0671 -0.8312  0.3441
  903MOL0     H21859   7.511   0.936   7.084 -0.0057  0.2246 -0.2117
  903MOL0     H21860   7.401   0.885   7.228  1.3104 -1.7704  1.2221
  903MOL0     H21861   7.546   0.684   7.076  1.8462  4.5449 -2.2449
  903MOL0     H21862   7.469   0.686   7.236 -3.0208  2.4923 -0.9215
  903MOL0     H21863   7.667   0.805   7.332 -2.8400  2.4570 -1.1660
  903MOL0     H21864   7.712   0.866   7.168  0.9850  0.6198  0.9552
  903MOL0     H21865   7.912   0.481   7.169  1.5906 -1.9225  1.4168
  903MOL0     H21866   8.131   0.433   7.267  0.1398 -1.3048  4.2619
  903MOL0     H21867   8.429   0.484   7.654 -0.2159 -3.3906  1.5682
  903MOL0     H21868   8.653   0.478   7.734  0.2584  3.9928 -0.3416
  903MOL0     H21869   8.906   0.617   7.657  0.9456 -0.8410 -0.5266
  903MOL0     H21870   8.877   0.500   7.786 -1.2217  0.1856 -1.0322
  903MOL0     H21871   9.109   0.402   7.737 -1.9920 -0.9168  1.9842
  903MOL0     H21872   9.119   0.531   7.610  0.3533  1.7482  0.3994
  903MOL0     H21873   9.099   0.708   7.751 -1.9071  0.3633  1.6508
  903MOL0     H21874   9.069   0.604   7.902  0.6894 -0.0089  0.8987
  903MOL0     H21875   9.327   0.671   7.755 -2.5109  1.7846 -1.0017
  903MOL0     H21876   9.313   0.505   7.824 -3.4475 -1.1949  1.4993
  903MOL0     H21877   9.303   0.577   8.047 -0.9556  1.3876  1.3264
  903MOL0     H21878   9.251   0.741   8.001 -0.2474 -0.0244 -0.1539
  903MOL0     H21879   9.522   0.619   7.966 -2.1953 -0.8658  0.6425
  903MOL0     H21880   9.471   0.769   7.890 -0.4571 -1.7211 -1.1282
  903MOL0     H21881   9.439   0.720   8.196  1.8966  0.6637  0.8046
  903MOL0     H21882   9.433   0.867   8.107 -1.1156 -0.8769 -1.5140
  903MOL0     H21883   9.680   0.857   8.061  1.2667  1.3907  1.3992
  903MOL0     H21884   9.650   0.845   8.239  1.7405 -1.8316 -0.6135
  903MOL0     H21885   8.785   0.407   7.313 -1.8917  3.2963 -0.8440
  903MOL0     H21886   8.562   0.468   7.256  2.1571 -0.3632 -1.0424
  903MOL0     H21887   8.091   0.795   7.504 -0.4568 -1.1305  0.1050
  903MOL0     H21888   7.886   0.834   7.410 -0.8347 -1.0371 -0.4113
  903MOL0     H21889   6.718   1.365   5.838  1.7458 -0.3619  3.0896
  903MOL0     H21890   6.636   1.307   5.630  1.5660  1.2637 -1.8709
  903MOL0     H21891   6.751   0.954   5.288 -1.4559 -1.4766  1.8550
  903MOL0     H21892   6.711   0.824   5.081 -1.0330 -1.0493  1.8434
  903MOL0     H21893   6.609   0.656   4.950 -1.5598 -0.9095  0.2192
  903MOL0     H21894   6.629   0.789   4.840 -1.4541 -0.5236 -1.3795
  903MOL0     H21895   6.421   0.722   4.710 -3.7519 -1.7221  1.9330
  903MOL0     H21896   6.404   0.590   4.818  1.0536 -1.0112 -0.1933
  903MOL0     H21897   6.626   0.500   4.747  0.7520 -1.4277 -0.5077
  903MOL0     H21898   6.652   0.625   4.628  2.5391 -2.2393  2.6533
  903MOL0     H21899   6.411   0.447   4.605 -0.0372 -0.2318  1.0197
  903MOL0     H21900   6.490   0.538   4.473 -5.0529 -3.6543 -1.4568
  903MOL0     H21901   6.782   0.238   4.524  0.0139 -0.5906  2.3179
  903MOL0     H21902   6.294   0.980   5.100 -0.7020  1.7599 -0.2324
  903MOL0     H21903   6.312   1.085   5.399  1.0677 -1.1252 -0.3714
  903MOL0     H21904   6.325   1.236   5.300 -0.7838 -0.4754 -0.3729
  903MOL0     H21905   6.219   1.102   5.259 -0.4661 -2.6660 -0.1195
  904MOL0     O21906   1.376  10.674  11.422 -0.3323  0.9826  0.0675
  904MOL0     C21907   1.399  10.741  11.525 -0.9162  0.2774 -0.2449
  904MOL0     O21908   1.295  10.817  11.588 -0.2686  0.5432 -0.3220
  904MOL0     C21909   1.158  10.827  11.552 -0.7211  0.8727  0.2026
  904MOL0     C21910   1.077  10.840  11.665 -0.0862 -0.6094 -0.1210
  904MOL0     C21911   0.935  10.850  11.660  0.3311 -0.2069 -0.7060
  904MOL0     C21912   0.878  10.831  11.526 -0.1718  0.1174 -0.5625
  904MOL0     O21913   0.740  10.837  11.524  0.2563  0.1880 -0.2973
  904MOL0     C21914   0.674  10.840  11.394  0.5568 -0.9044  0.4119
  904MOL0     C21915   0.532  10.895  11.409  0.2423 -0.4453  0.0476
  904MOL0     C21916   0.537  11.038  11.465 -0.2734  0.1783 -0.3280
  904MOL0     C21917   0.444  11.047  11.590  0.3267  0.5706 -0.7971
  904MOL0     C21918   0.481  11.164  11.675 -0.7886 -0.6831  0.6654
  904MOL0     C21919   0.411  11.172  11.811  0.2581 -0.3796  0.0584
  904MOL0     C21920   0.488  11.273  11.905 -0.5512  0.4800  0.1536
  904MOL0     C21921   0.442  11.237  12.051 -0.0949  0.1725 -1.6378
  904MOL0     N21922   0.488  11.330  12.153 -0.3570  0.4996 -0.5398
  904MOL0     C21923   0.428  11.353  12.273  1.0777 -0.7578  0.4580
  904MOL0     C21924   0.515  11.424  12.339 -0.8129 -0.4795  0.4481
  904MOL0     C21925   0.527  11.474  12.480 -0.9622  0.1239  0.2781
  904MOL0     C21926   0.617  11.592  12.481 -0.3061  0.0553 -0.2458
  904MOL0     C21927   0.657  11.640  12.611  0.0507 -0.3381  0.3370
  904MOL0     C21928   0.765  11.743  12.625 -0.0060  0.0068  0.0623
  904MOL0     O21929   0.735  11.861  12.554  0.6699 -0.0497  0.2569
  904MOL0     C21930   0.795  11.887  12.431  0.1543  0.6363 -0.4467
  904MOL0     C21931   0.781  12.026  12.397 -0.6732  0.2148 -0.0080
  904MOL0     C21932   0.835  12.082  12.286 -0.5997  0.1799  0.2016
  904MOL0     C21933   0.916  12.001  12.200 -0.3577  0.4513 -0.2728
  904MOL0     C21934   0.990  12.051  12.085  0.3836 -0.4200  0.1102
  904MOL0     O21935   1.104  11.992  12.049 -0.3292 -0.3437 -0.3485
  904MOL0     C21936   1.190  12.030  11.945  0.4024 -0.2397  0.3117
  904MOL0     C21937   1.317  12.082  11.993  0.0550 -0.2987  0.5240
  904MOL0     C21938   1.410  12.130  11.902  0.4959 -1.8638 -0.3201
  904MOL0     C21939   1.380  12.135  11.768  1.1638 -0.0606 -0.6603
  904MOL0     O21940   1.488  12.178  11.690 -0.1084  0.3764  0.2636
  904MOL0     C21941   1.463  12.203  11.556  0.2539  0.1962  0.3701
  904MOL0     C21942   1.592  12.273  11.493  0.2814  0.9651 -0.7569
  904MOL0     C21943   1.716  12.176  11.526  0.2779  0.0106 -0.0511
  904MOL0     C21944   1.846  12.244  11.478 -0.1679 -0.4201 -0.0301
  904MOL0     C21945   1.961  12.137  11.471  0.1988 -0.9490  0.6568
  904MOL0     C21946   2.013  12.082  11.605  0.3098 -0.8485 -0.4519
  904MOL0     C21947   2.157  12.040  11.609 -0.3147  0.6932  0.2280
  904MOL0     C21948   2.180  11.952  11.738 -0.7711  1.1747 -0.7874
  904MOL0    Cl21949   2.340  11.877  11.726 -0.2456  0.3371 -0.1896
  904MOL0     C21950   1.257  12.086  11.719  0.6025  0.0486  0.1267
  904MOL0     C21951   1.165  12.025  11.804 -0.5651  0.3276  0.2942
  904MOL0     O21952   0.945  12.153  12.026  0.8312  0.5679  0.1344
  904MOL0     C21953   0.929  11.867  12.237 -0.2004 -0.1324  0.1956
  904MOL0     C21954   0.874  11.808  12.347  1.5764  0.2392 -0.1120
  904MOL0     N21955   0.634  11.425  12.263  0.4962 -0.1670  0.3552
  904MOL0     N21956   0.621  11.368  12.157 -0.0065  0.2940 -0.0948
  904MOL0     C21957   0.962  10.792  11.423 -0.2177  0.6218  0.1435
  904MOL0     C21958   1.104  10.802  11.430  0.5629  0.2069  0.0528
  904MOL0     C21959   1.538  10.742  11.580  0.3075  1.0215 -0.4448
  904MOL0     C21960   1.561  10.835  11.685 -0.2047 -0.4248  0.2328
  904MOL0     C21961   1.689  10.836  11.742 -0.3055 -0.7422 -0.2723
  904MOL0     C21962   1.790  10.761  11.700 -0.8831  0.6601 -0.1233
  904MOL0     O21963   1.917  10.758  11.754 -0.1251 -0.1707  0.5786
  904MOL0     C21964   1.926  10.822  11.880  0.5897  0.0428  0.1949
  904MOL0     C21965   2.062  10.788  11.947 -0.0691 -0.8635  0.0175
  904MOL0     C21966   2.169  10.804  11.840  0.5807 -0.6458  1.0105
  904MOL0     C21967   2.316  10.777  11.881  0.2908 -0.3314  0.6795
  904MOL0     C21968   2.348  10.852  12.001 -0.2538  0.9274 -0.9317
  904MOL0     C21969   2.358  10.928  12.097  0.4375 -0.6797  0.5983
  904MOL0     C21970   1.766  10.672  11.593 -0.0649  0.1329 -0.1303
  904MOL0     C21971   1.637  10.652  11.541  0.5602  0.4894 -0.3080
  904MOL0     C21972   1.621  10.536  11.442  0.2601 -0.0195  0.6214
  904MOL0     H21973   1.134  10.864  11.754  0.8045  1.8920 -1.2664
  904MOL0     H21974   0.873  10.865  11.748  1.3133  0.8061 -0.1650
  904MOL0     H21975   0.740  10.900  11.331 -1.4331  0.8939 -0.0507
  904MOL0     H21976   0.658  10.737  11.358 -3.2895 -0.4043  0.2840
  904MOL0     H21977   0.476  10.834  11.480 -1.7382 -0.1131 -1.1523
  904MOL0     H21978   0.481  10.880  11.313  0.0389 -4.0470  0.6080
  904MOL0     H21979   0.512  11.105  11.383  1.6400 -0.0547 -1.1617
  904MOL0     H21980   0.640  11.057  11.498 -1.1095  0.7308  2.2034
  904MOL0     H21981   0.336  11.053  11.575 -0.4391 -1.8971  2.4599
  904MOL0     H21982   0.460  10.959  11.653 -1.4155 -0.6746 -2.0342
  904MOL0     H21983   0.590  11.172  11.686 -0.5585  2.2240 -2.2573
  904MOL0     H21984   0.451  11.257  11.624 -0.4953  0.0209  1.7310
  904MOL0     H21985   0.313  11.218  11.801  0.6360  0.2414 -0.9202
  904MOL0     H21986   0.408  11.068  11.845 -0.3017 -1.0747 -1.9827
  904MOL0     H21987   0.473  11.380  11.884 -2.9568  0.5683  1.8953
  904MOL0     H21988   0.592  11.247  11.880 -1.6038 -4.0568 -0.2943
  904MOL0     H21989   0.335  11.254  12.066 -0.5907 -1.9086 -2.4444
  904MOL0     H21990   0.454  11.134  12.085  0.9730  0.4550 -1.1032
  904MOL0     H21991   0.330  11.328  12.312 -1.1591  1.7546 -2.9874
  904MOL0     H21992   0.431  11.495  12.528 -0.7763 -1.2183  1.2918
  904MOL0     H21993   0.568  11.393  12.540  2.2045  1.7351  0.4786
  904MOL0     H21994   0.715  11.558  12.448  0.2973 -2.2844  3.4257
  904MOL0     H21995   0.570  11.668  12.417  0.9317  1.1342  0.0765
  904MOL0     H21996   0.688  11.551  12.666  1.9878 -0.2209 -0.4839
  904MOL0     H21997   0.566  11.685  12.652 -3.4210 -4.7868 -1.6742
  904MOL0     H21998   0.867  11.710  12.602  0.7532 -0.0020  3.0167
  904MOL0     H21999   0.774  11.767  12.731 -1.0775  0.1165  0.1450
  904MOL0     H22000   0.728  12.100  12.456 -2.6730  1.0962 -2.7114
  904MOL0     H22001   0.810  12.185  12.262 -3.9989  0.7001  4.7213
  904MOL0     H22002   1.349  12.074  12.096 -0.3591  2.6020  0.9672
  904MOL0     H22003   1.497  12.183  11.939  0.1941 -0.5053 -1.4568
  904MOL0     H22004   1.440  12.111  11.501 -1.3758 -0.5746  2.2331
  904MOL0     H22005   1.382  12.276  11.548  1.7003  1.7901 -0.4723
  904MOL0     H22006   1.572  12.286  11.386  0.2969 -2.7006 -1.3403
  904MOL0     H22007   1.607  12.368  11.543 -0.7885 -0.2953  2.1869
  904MOL0     H22008   1.721  12.166  11.634 -0.0639  0.2515 -0.0095
  904MOL0     H22009   1.707  12.073  11.489  0.0296 -0.1188  0.3579
  904MOL0     H22010   1.870  12.330  11.541  2.9410  0.9649 -2.7745
  904MOL0     H22011   1.839  12.285  11.377 -2.3676  0.4704  0.4361
  904MOL0     H22012   2.035  12.201  11.423 -1.1587  1.7902  1.9958
  904MOL0     H22013   1.933  12.055  11.405 -1.6328 -0.6435  0.9795
  904MOL0     H22014   2.002  12.156  11.685  0.3328 -1.3166 -0.0071
  904MOL0     H22015   1.939  12.007  11.637 -2.9214  2.2398 -0.0591
  904MOL0     H22016   2.215  12.132  11.602  0.4257  0.1219 -1.8404
  904MOL0     H22017   2.185  11.976  11.525  0.6987 -2.1494  2.5517
  904MOL0     H22018   2.155  12.019  11.820 -0.9948  0.2574 -0.0935
  904MOL0     H22019   2.113  11.866  11.744  2.4468 -1.3910  3.3514
  904MOL0     H22020   1.230  12.100  11.615 -2.7405  0.1395  0.9051
  904MOL0     H22021   1.066  11.986  11.779 -0.1702 -0.4741 -0.0639
  904MOL0     H22022   0.997  11.800  12.184  0.1632  0.6031 -0.2912
  904MOL0     H22023   0.895  11.702  12.364  2.6781  0.4237 -0.3085
  904MOL0     H22024   0.918  10.766  11.327 -1.7306 -0.0718  0.9691
  904MOL0     H22025   1.165  10.789  11.341 -0.5408  3.1599 -1.2536
  904MOL0     H22026   1.476  10.880  11.735 -0.2956 -1.5599  1.1380
  904MOL0     H22027   1.698  10.890  11.835  0.4307 -0.5415 -0.4499
  904MOL0     H22028   1.851  10.796  11.956 -0.1668 -1.4787 -1.0214
  904MOL0     H22029   1.919  10.928  11.851 -0.7715 -0.1608 -0.2766
  904MOL0     H22030   2.058  10.686  11.987 -1.8593 -0.8675 -0.1100
  904MOL0     H22031   2.071  10.860  12.028  0.0971 -2.2476  1.2795
  904MOL0     H22032   2.162  10.907  11.803 -1.0600 -1.3200 -0.7188
  904MOL0     H22033   2.152  10.743  11.751  0.3219 -1.0438  1.3270
  904MOL0     H22034   2.319  10.667  11.880 -2.3359 -0.4560 -0.2405
  904MOL0     H22035   2.367  10.817  11.793 -3.9667  2.0829 -0.9720
  904MOL0     H22036   2.375  10.985  12.187  1.4794 -0.6346  0.3870
  904MOL0     H22037   1.854  10.618  11.558  0.1213 -0.9201  1.8021
  904MOL0     H22038   1.530  10.475  11.436  0.9691 -1.0305 -0.4940
  904MOL0     H22039   1.652  10.565  11.341  1.4709 -0.1632  0.9351
  904MOL0     H22040   1.700  10.462  11.459  0.5854  0.3550  0.7280
  905MOL0     O22041   6.298   8.128   3.948 -0.5597  0.3938 -0.5220
  905MOL0     C22042   6.291   8.182   3.838 -0.8412  0.1297  0.0373
  905MOL0     O22043   6.201   8.267   3.798 -0.0741  0.4792 -0.3297
  905MOL0     C22044   6.100   8.308   3.883  0.3035 -0.2594  0.0998
  905MOL0     C22045   6.062   8.435   3.891  1.0294  0.4787 -0.2314
  905MOL0     C22046   5.967   8.485   3.983 -0.0314 -0.4096  0.1061
  905MOL0     C22047   5.900   8.399   4.068  0.2419 -0.6207  0.5468
  905MOL0     O22048   5.804   8.456   4.154 -0.4242  0.0001  0.3387
  905MOL0     C22049   5.753   8.383   4.261  0.2270  0.4636 -0.1206
  905MOL0     C22050   5.623   8.438   4.321 -0.2029 -0.2738  0.2089
  905MOL0     C22051   5.585   8.358   4.441 -0.7123 -0.0171 -0.0143
  905MOL0     C22052   5.511   8.447   4.546 -0.9229  0.1259  0.3391
  905MOL0     C22053   5.615   8.518   4.638 -0.3773  0.5084  0.4391
  905MOL0     C22054   5.554   8.639   4.709  0.9763  0.3013 -0.0877
  905MOL0     C22055   5.462   8.602   4.823 -0.1116 -0.1170  0.6480
  905MOL0     C22056   5.400   8.712   4.901 -0.3918 -0.0082  0.2248
  905MOL0     N22057   5.499   8.813   4.944  0.0085  0.6243  0.4454
  905MOL0     C22058   5.629   8.792   5.001 -0.1198 -0.1329  0.5266
  905MOL0     C22059   5.680   8.916   4.993 -0.8687 -0.2647 -0.0016
  905MOL0     C22060   5.815   8.962   5.051  0.0111 -0.3608  0.1806
  905MOL0     C22061   5.903   9.033   4.965  0.6866  0.1722  0.1749
  905MOL0     C22062   5.964   8.946   4.850  0.4029  0.4779  1.2139
  905MOL0     C22063   6.068   9.032   4.773 -0.9312  0.0862 -0.7787
  905MOL0     O22064   5.988   9.131   4.708 -0.3854 -0.0653  0.2516
  905MOL0     C22065   6.030   9.181   4.583  0.0911 -1.0549 -0.2767
  905MOL0     C22066   5.940   9.251   4.504 -0.1704 -0.6435 -0.0668
  905MOL0     C22067   5.987   9.316   4.392 -0.0288  0.4446  0.2053
  905MOL0     C22068   6.111   9.287   4.339  0.2359  0.0595 -0.0597
  905MOL0     C22069   6.148   9.332   4.199 -0.2220 -0.2258 -1.1157
  905MOL0     O22070   6.068   9.425   4.141  0.2527  0.1501 -0.4704
  905MOL0     C22071   6.089   9.474   4.013  0.3850  0.5090 -0.6291
  905MOL0     C22072   6.186   9.451   3.912  0.7600 -0.3511 -0.4511
  905MOL0     C22073   6.184   9.502   3.783 -0.1082  0.0591  0.2641
  905MOL0     C22074   6.086   9.604   3.750 -0.7492 -0.5775  0.4274
  905MOL0     O22075   6.064   9.661   3.629 -0.2135  0.8962  0.7759
  905MOL0     C22076   6.142   9.619   3.520 -0.2457 -0.2285 -1.2104
  905MOL0     C22077   6.128   9.708   3.389 -0.7808  0.2419  0.2530
  905MOL0     C22078   6.148   9.641   3.253 -0.3404  0.2534 -0.8118
  905MOL0     C22079   6.021   9.595   3.185 -0.4244  0.9456  0.0636
  905MOL0     C22080   5.970   9.466   3.252 -0.0653  0.0206  1.4859
  905MOL0     C22081   5.864   9.503   3.350 -0.1088  0.3245 -0.1730
  905MOL0     C22082   5.793   9.386   3.414 -0.0681  0.7383 -0.3442
  905MOL0     C22083   5.880   9.327   3.518 -0.3539  0.5312 -0.2949
  905MOL0    Cl22084   5.780   9.186   3.569  0.3676  0.2127  0.5835
  905MOL0     C22085   5.996   9.631   3.846 -0.6217  0.2269 -0.0004
  905MOL0     C22086   5.985   9.559   3.968 -0.2494 -0.1137  0.3102
  905MOL0     O22087   6.248   9.284   4.150 -0.3482 -0.5925  0.2644
  905MOL0     C22088   6.199   9.205   4.409  0.1245 -0.1570  0.2962
  905MOL0     C22089   6.161   9.165   4.536 -0.5933 -0.3695  0.1298
  905MOL0     N22090   5.606   9.002   4.924 -0.0316  0.0078 -0.9790
  905MOL0     N22091   5.491   8.944   4.910  0.2486  0.0922  1.0459
  905MOL0     C22092   5.919   8.258   4.043 -0.0389 -0.7303  0.2171
  905MOL0     C22093   6.020   8.213   3.959 -0.4924 -0.5989  0.6466
  905MOL0     C22094   6.405   8.176   3.742  0.8623  0.1919  0.3087
  905MOL0     C22095   6.467   8.052   3.715  0.9083 -0.2142  0.2683
  905MOL0     C22096   6.564   8.035   3.616  0.2431  0.2532 -0.5845
  905MOL0     C22097   6.614   8.152   3.550  0.4063 -1.2307  0.5812
  905MOL0     O22098   6.699   8.148   3.450  0.0831  0.2444 -0.5574
  905MOL0     C22099   6.787   8.045   3.435  0.0048  0.7130  0.2006
  905MOL0     C22100   6.867   8.064   3.311 -0.4255  0.2536  0.1975
  905MOL0     C22101   6.925   8.204   3.300  0.8575  0.1539 -0.4136
  905MOL0     C22102   7.016   8.219   3.181  0.6410  0.2843 -0.6003
  905MOL0     C22103   7.038   8.362   3.161  0.1876  0.6808  0.3110
  905MOL0     C22104   7.069   8.476   3.134  0.0370  0.7444  0.1626
  905MOL0     C22105   6.557   8.276   3.587 -0.0390 -0.5558  0.9745
  905MOL0     C22106   6.450   8.285   3.667 -0.5021 -0.2372 -0.1458
  905MOL0     C22107   6.400   8.429   3.674 -0.2969 -0.1975 -0.3011
  905MOL0     H22108   6.114   8.507   3.829  1.3423 -1.6189 -2.6138
  905MOL0     H22109   5.951   8.590   4.005 -0.4676 -0.6081  0.7507
  905MOL0     H22110   5.730   8.279   4.234 -0.4503  0.0420  1.8472
  905MOL0     H22111   5.832   8.382   4.337  0.6052  2.9750 -0.4198
  905MOL0     H22112   5.541   8.425   4.250 -0.2288  3.7661 -0.7344
  905MOL0     H22113   5.646   8.542   4.344 -0.9753 -0.3057  1.1728
  905MOL0     H22114   5.675   8.316   4.486 -1.1550  1.2722  2.2277
  905MOL0     H22115   5.520   8.271   4.428 -2.3645  0.8446  1.9598
  905MOL0     H22116   5.454   8.521   4.490  4.0551  3.5222 -0.8723
  905MOL0     H22117   5.447   8.381   4.605 -3.1998  3.1735  1.5293
  905MOL0     H22118   5.669   8.446   4.700  0.2743  0.1261 -0.5419
  905MOL0     H22119   5.681   8.561   4.561 -2.9791  1.6485 -1.3072
  905MOL0     H22120   5.632   8.707   4.745  1.0338 -0.0619  0.4932
  905MOL0     H22121   5.495   8.704   4.644 -0.5803 -0.1840  0.7738
  905MOL0     H22122   5.525   8.548   4.894 -0.5112 -0.1071  1.0085
  905MOL0     H22123   5.394   8.523   4.789  0.8016 -1.0618  0.9658
  905MOL0     H22124   5.330   8.757   4.830 -1.3961 -2.0809 -0.1890
  905MOL0     H22125   5.336   8.671   4.980 -0.0081 -0.7622  0.1560
  905MOL0     H22126   5.664   8.706   5.058  1.3165  0.9661  1.3769
  905MOL0     H22127   5.798   9.030   5.135 -1.3206  0.9104 -1.0580
  905MOL0     H22128   5.873   8.880   5.095 -1.4013 -1.0271  0.8592
  905MOL0     H22129   5.843   9.116   4.927  0.9443  1.1962  1.8974
  905MOL0     H22130   5.989   9.077   5.017 -0.0370  2.5361 -0.5013
  905MOL0     H22131   5.891   8.908   4.778 -0.7814  0.4392  2.4034
  905MOL0     H22132   6.018   8.868   4.904 -0.6834  0.1424  1.8365
  905MOL0     H22133   6.112   8.962   4.703  1.2604 -0.6387  1.1883
  905MOL0     H22134   6.144   9.072   4.842 -0.4683 -3.5822  1.0598
  905MOL0     H22135   5.845   9.258   4.555  1.7754  2.7157  3.7160
  905MOL0     H22136   5.916   9.379   4.339  0.7458  1.9374  0.8819
  905MOL0     H22137   6.271   9.388   3.935  0.2569 -0.7965  0.2321
  905MOL0     H22138   6.254   9.467   3.707 -1.2663  0.4008 -0.9914
  905MOL0     H22139   6.248   9.616   3.547 -0.7375  0.3652  0.9571
  905MOL0     H22140   6.122   9.513   3.498  1.5753 -1.1140  1.0704
  905MOL0     H22141   6.032   9.762   3.394 -0.8344  0.1860 -0.1633
  905MOL0     H22142   6.213   9.777   3.389  0.6445 -1.3779 -2.1706
  905MOL0     H22143   6.198   9.705   3.180  2.1750 -2.4545 -1.6407
  905MOL0     H22144   6.214   9.557   3.276  2.5610  2.0529 -2.0731
  905MOL0     H22145   6.055   9.582   3.081 -3.0774 -2.1107 -0.5818
  905MOL0     H22146   5.940   9.668   3.187 -4.1626 -2.8369  2.1123
  905MOL0     H22147   6.050   9.405   3.297 -1.0855 -1.7143  1.0537
  905MOL0     H22148   5.927   9.399   3.177  1.8607 -0.4424  0.7064
  905MOL0     H22149   5.906   9.572   3.423  1.2899 -1.4045  0.7394
  905MOL0     H22150   5.792   9.561   3.290 -1.5664 -0.7002  0.5379
  905MOL0     H22151   5.786   9.308   3.337  2.2601  0.0584  0.0480
  905MOL0     H22152   5.697   9.413   3.458  0.8349 -0.1779  2.3292
  905MOL0     H22153   5.979   9.299   3.482 -2.5617 -3.2868 -4.4444
  905MOL0     H22154   5.891   9.396   3.602  2.7193  0.8903 -0.8786
  905MOL0     H22155   5.918   9.700   3.816  0.6181  1.1569 -1.2081
  905MOL0     H22156   5.897   9.569   4.030 -2.6065  0.1496 -2.8178
  905MOL0     H22157   6.295   9.176   4.368 -0.5565  1.7053 -3.0187
  905MOL0     H22158   6.236   9.104   4.586  0.4141  1.2502  0.6979
  905MOL0     H22159   5.874   8.181   4.105 -1.7457  0.5957  0.7094
  905MOL0     H22160   6.039   8.109   3.936 -1.7870 -0.5066 -1.0591
  905MOL0     H22161   6.421   7.959   3.747 -1.1332  0.7937  0.4550
  905MOL0     H22162   6.597   7.937   3.582 -3.0419 -0.9944 -0.5420
  905MOL0     H22163   6.748   7.943   3.440  2.1026 -0.2546 -1.5711
  905MOL0     H22164   6.854   8.056   3.521  0.0063  1.1035  0.1485
  905MOL0     H22165   6.819   8.055   3.213 -1.1647  3.2204  0.1971
  905MOL0     H22166   6.946   7.988   3.316  1.4897  2.1077 -0.1338
  905MOL0     H22167   6.976   8.228   3.394  1.6700 -2.9065  0.0539
  905MOL0     H22168   6.842   8.274   3.298 -1.2434 -2.0290  2.0528
  905MOL0     H22169   7.108   8.165   3.201  1.1452  1.1163 -0.6177
  905MOL0     H22170   6.968   8.182   3.090 -0.4961 -0.6654  0.3496
  905MOL0     H22171   7.085   8.580   3.113 -1.8347  1.5238  2.2492
  905MOL0     H22172   6.608   8.361   3.543  1.5004 -1.6101  0.6376
  905MOL0     H22173   6.470   8.503   3.633 -1.4300  1.5647  0.8053
  905MOL0     H22174   6.308   8.440   3.615 -0.4333 -0.1682 -0.0827
  905MOL0     H22175   6.380   8.462   3.776 -2.8006 -0.7311 -0.5629
  906MOL0     O22176  10.025   9.660   9.493  0.8381  0.6627 -0.6413
  906MOL0     C22177  10.066   9.542   9.501  1.2932 -0.4353 -0.3760
  906MOL0     O22178  10.188   9.502   9.459  0.3563  0.6484  0.0291
  906MOL0     C22179  10.261   9.559   9.358 -0.3693 -0.6088  0.3791
  906MOL0     C22180  10.198   9.615   9.244 -0.3725  0.4343  0.4819
  906MOL0     C22181  10.273   9.648   9.128 -0.2440  0.3915  0.5788
  906MOL0     C22182  10.414   9.654   9.138  0.5179  0.0985 -0.4467
  906MOL0     O22183  10.487   9.678   9.030  0.0087  0.2034  0.0672
  906MOL0     C22184  10.474   9.807   8.963  0.0113  0.5040 -0.6275
  906MOL0     C22185  10.395   9.811   8.829  0.5312  1.1383 -0.3512
  906MOL0     C22186  10.385   9.684   8.747  0.1710 -0.0563  0.3154
  906MOL0     C22187  10.515   9.646   8.666 -0.2804  0.8315  0.0457
  906MOL0     C22188  10.503   9.517   8.579 -1.0440 -0.3229  0.0089
  906MOL0     C22189  10.392   9.498   8.474  0.6007  0.5663  0.1792
  906MOL0     C22190  10.420   9.398   8.362  0.1815  0.4492 -0.5605
  906MOL0     C22191  10.496   9.266   8.392 -0.4188 -0.4843 -0.4644
  906MOL0     N22192  10.467   9.187   8.272 -1.1966  0.7801 -0.6082
  906MOL0     C22193  10.521   9.197   8.150  0.1456  0.3150  0.2752
  906MOL0     C22194  10.467   9.101   8.079 -0.5434 -0.6886 -0.5651
  906MOL0     C22195  10.503   9.062   7.936 -0.0978  0.2849 -0.0827
  906MOL0     C22196  10.443   8.923   7.893  0.1197 -0.1976  0.4231
  906MOL0     C22197  10.417   8.917   7.737  0.1652  0.1945  0.0418
  906MOL0     C22198  10.537   8.930   7.655 -0.0333 -0.0123 -0.7942
  906MOL0     O22199  10.589   9.060   7.647 -0.1600  0.0292  0.3989
  906MOL0     C22200  10.723   9.059   7.649 -0.8249  0.0712 -0.4112
  906MOL0     C22201  10.796   8.971   7.574 -0.7020 -0.5295  0.7940
  906MOL0     C22202  10.934   8.958   7.588  0.1276 -0.1383 -0.6919
  906MOL0     C22203  11.002   9.038   7.681 -0.3535  0.6125  0.0644
  906MOL0     C22204  11.154   9.029   7.685 -0.8870  0.0581 -0.4937
  906MOL0     O22205  11.208   9.106   7.782  0.0956 -0.7036  0.3625
  906MOL0     C22206  11.339   9.097   7.814  0.6862  0.7743  0.9801
  906MOL0     C22207  11.419   9.200   7.755 -0.3936  0.1109  0.0403
  906MOL0     C22208  11.554   9.199   7.783 -0.2068  0.5525  0.1382
  906MOL0     C22209  11.608   9.104   7.869 -0.4007 -0.1836 -0.1677
  906MOL0     O22210  11.741   9.125   7.892 -0.1190 -0.0843 -0.6790
  906MOL0     C22211  11.800   9.060   8.007 -0.1321  0.0709 -0.4924
  906MOL0     C22212  11.922   9.140   8.026  0.0621  0.1021 -0.1229
  906MOL0     C22213  12.013   9.071   8.127 -0.2937 -1.2308 -0.2196
  906MOL0     C22214  12.144   9.167   8.146  0.1437 -0.9915 -0.8564
  906MOL0     C22215  12.226   9.118   8.271  0.6298  0.0258 -0.0061
  906MOL0     C22216  12.362   9.198   8.264 -0.1651 -0.0501  0.6591
  906MOL0     C22217  12.472   9.179   8.381  1.0515 -0.2991 -0.0131
  906MOL0     C22218  12.506   9.034   8.396 -0.3409 -0.1822 -0.5395
  906MOL0    Cl22219  12.591   8.956   8.255  0.0967  0.0296 -0.2246
  906MOL0     C22220  11.531   8.998   7.919  0.6297  0.0178  0.6147
  906MOL0     C22221  11.395   8.993   7.896 -0.1023  0.2675  0.4997
  906MOL0     O22222  11.212   8.948   7.608  0.0652 -0.1534  0.3108
  906MOL0     C22223  10.931   9.137   7.757 -0.2219  1.2196 -0.2894
  906MOL0     C22224  10.787   9.143   7.742  0.3011  0.7089  0.5293
  906MOL0     N22225  10.372   9.038   8.156 -0.1441  0.0418 -0.4410
  906MOL0     N22226  10.370   9.098   8.269 -0.2152 -0.2003  0.0751
  906MOL0     C22227  10.473   9.611   9.256  0.5130  0.5965  0.2694
  906MOL0     C22228  10.402   9.558   9.365 -0.0385 -0.7418  0.2902
  906MOL0     C22229   9.979   9.451   9.585 -0.3483 -0.3198  0.1343
  906MOL0     C22230   9.903   9.512   9.685 -0.7327  0.3423  0.2191
  906MOL0     C22231   9.830   9.432   9.770  0.3342  1.5095 -0.1311
  906MOL0     C22232   9.824   9.296   9.762 -0.6679  0.4252 -0.1396
  906MOL0     O22233   9.761   9.240   9.870  1.3395 -0.6988 -0.4564
  906MOL0     C22234   9.754   9.101   9.898  1.1245  0.6191  0.7289
  906MOL0     C22235   9.892   9.033   9.946 -0.2800 -0.3645  0.4200
  906MOL0     C22236   9.880   8.909  10.027 -0.3390 -0.0693 -0.1257
  906MOL0     C22237   9.821   8.787   9.961  0.2792  0.0445 -0.6849
  906MOL0     C22238   9.772   8.690  10.059 -0.7257  0.4361  0.6392
  906MOL0     C22239   9.730   8.600  10.128 -0.0118  0.5589  0.5747
  906MOL0     C22240   9.888   9.231   9.658 -0.2222  0.2781 -0.4720
  906MOL0     C22241   9.971   9.313   9.565  1.3066  0.8813  0.1977
  906MOL0     C22242  10.038   9.239   9.457  0.5469 -0.4105 -0.3266
  906MOL0     H22243  10.091   9.615   9.226 -0.3266  2.5775 -0.1431
  906MOL0     H22244  10.228   9.678   9.034  1.2819  3.8629  0.7891
  906MOL0     H22245  10.428   9.883   9.026 -0.2636  0.7476 -1.1157
  906MOL0     H22246  10.576   9.847   8.958  0.1183  0.1187 -2.3543
  906MOL0     H22247  10.442   9.888   8.767  0.3039  2.8932  1.5286
  906MOL0     H22248  10.298   9.846   8.866  1.0332 -0.0728  2.3581
  906MOL0     H22249  10.292   9.690   8.689  0.0710  0.5257  0.5206
  906MOL0     H22250  10.356   9.600   8.811  1.1708  1.4625  2.9428
  906MOL0     H22251  10.543   9.728   8.599  2.4109 -0.9385 -1.1738
  906MOL0     H22252  10.598   9.635   8.737 -0.1958 -0.3555 -0.2129
  906MOL0     H22253  10.599   9.521   8.526 -1.2099  3.1755 -0.2406
  906MOL0     H22254  10.511   9.437   8.653 -1.0389 -0.6725 -0.3708
  906MOL0     H22255  10.292   9.481   8.517 -0.3175  2.2901 -1.1522
  906MOL0     H22256  10.377   9.594   8.424 -0.2234  0.3750  0.0522
  906MOL0     H22257  10.473   9.462   8.291 -0.7993  3.1093  0.9806
  906MOL0     H22258  10.321   9.378   8.319  0.2820 -0.5692 -0.3355
  906MOL0     H22259  10.604   9.278   8.399 -0.4552  0.1159 -0.8212
  906MOL0     H22260  10.454   9.224   8.484 -4.2540 -1.3305 -2.3897
  906MOL0     H22261  10.596   9.259   8.102  2.8491 -3.3192 -0.6316
  906MOL0     H22262  10.465   9.144   7.874  0.3615  0.6089  0.0586
  906MOL0     H22263  10.612   9.062   7.939 -0.0435 -2.2498 -0.0186
  906MOL0     H22264  10.499   8.837   7.933  1.6539 -0.4774 -2.1062
  906MOL0     H22265  10.341   8.913   7.931 -1.4808  2.7040 -2.5899
  906MOL0     H22266  10.332   8.985   7.724 -0.6843 -0.8474  0.0288
  906MOL0     H22267  10.376   8.821   7.707 -0.6980  1.3690 -2.8153
  906MOL0     H22268  10.515   8.897   7.553  3.3487 -0.7945 -1.3784
  906MOL0     H22269  10.606   8.851   7.684 -3.0110 -1.5284  3.0887
  906MOL0     H22270  10.745   8.920   7.493  0.3178  1.5093 -1.2228
  906MOL0     H22271  10.992   8.893   7.523 -0.5257 -1.1419 -0.2915
  906MOL0     H22272  11.377   9.276   7.689  1.3831 -0.3782 -1.7671
  906MOL0     H22273  11.629   9.259   7.733 -0.3123  1.5410  1.1248
  906MOL0     H22274  11.730   9.057   8.092 -0.2605  1.1057 -0.5506
  906MOL0     H22275  11.826   8.953   8.002 -1.5750 -0.3942  0.8578
  906MOL0     H22276  11.965   9.149   7.925  3.1640 -2.4936  0.8044
  906MOL0     H22277  11.903   9.240   8.067 -3.1077  0.4775 -2.1941
  906MOL0     H22278  11.967   9.068   8.226 -1.3626  1.9214 -0.5197
  906MOL0     H22279  12.046   8.970   8.102 -0.2969 -1.9769  2.5177
  906MOL0     H22280  12.129   9.271   8.176  2.3995 -0.3772 -1.6634
  906MOL0     H22281  12.199   9.169   8.052  1.4175 -1.5512 -0.1445
  906MOL0     H22282  12.251   9.013   8.257 -2.5303 -0.8105 -0.1936
  906MOL0     H22283  12.168   9.129   8.363 -1.0597  4.0101 -1.3182
  906MOL0     H22284  12.410   9.174   8.168  0.2259 -1.1989  1.1341
  906MOL0     H22285  12.343   9.306   8.254  1.6981  0.1702 -1.3705
  906MOL0     H22286  12.434   9.229   8.470 -1.5225  1.6707 -2.0568
  906MOL0     H22287  12.563   9.229   8.347  1.1492  1.3271  2.3687
  906MOL0     H22288  12.566   9.022   8.487 -0.6157  3.2670  0.2164
  906MOL0     H22289  12.409   8.986   8.413 -0.8443  1.3446  1.3084
  906MOL0     H22290  11.575   8.911   7.967  1.8052  0.2544  0.0066
  906MOL0     H22291  11.342   8.900   7.915  0.7212 -1.6210 -4.7138
  906MOL0     H22292  10.974   9.196   7.838 -4.2976  2.8090  0.9351
  906MOL0     H22293  10.738   9.219   7.803  1.4749  1.3323  0.7311
  906MOL0     H22294  10.581   9.607   9.253  0.5948 -0.1130  2.2774
  906MOL0     H22295  10.452   9.519   9.453  1.9625 -3.0589 -1.7159
  906MOL0     H22296   9.892   9.620   9.681 -1.1089  0.3141 -3.2061
  906MOL0     H22297   9.761   9.467   9.846  0.4487 -1.3914  1.4611
  906MOL0     H22298   9.699   9.050   9.819  2.8031 -1.8871  1.0684
  906MOL0     H22299   9.685   9.075   9.979 -2.3580 -1.7232 -2.6443
  906MOL0     H22300   9.936   9.110  10.010 -0.4273 -0.1718  0.2888
  906MOL0     H22301   9.963   9.012   9.865 -0.0733  1.1246  0.1935
  906MOL0     H22302   9.824   8.935  10.117  0.1735 -0.6404  0.3685
  906MOL0     H22303   9.982   8.878  10.051  0.4003  1.3471 -1.3007
  906MOL0     H22304   9.734   8.819   9.901 -0.0711 -2.3504 -1.5703
  906MOL0     H22305   9.894   8.744   9.892 -1.0467 -1.4595 -1.2230
  906MOL0     H22306   9.698   8.515  10.184  2.8497 -3.5216 -3.2223
  906MOL0     H22307   9.876   9.124   9.653 -0.8504  0.3335 -0.1939
  906MOL0     H22308  10.017   9.132   9.467  0.7664 -0.4716 -0.4935
  906MOL0     H22309  10.005   9.279   9.361 -2.2836 -0.8987  0.3534
  906MOL0     H22310  10.146   9.249   9.468  0.4679  0.6487 -0.4014
  907MOL0     O22311   1.816   5.172   8.791  0.2352  0.0454  0.5584
  907MOL0     C22312   1.693   5.168   8.800 -0.4823 -0.4228  0.5695
  907MOL0     O22313   1.623   5.162   8.922  0.1936 -1.3056  0.5441
  907MOL0     C22314   1.687   5.198   9.038 -0.1671  0.1375 -0.4634
  907MOL0     C22315   1.655   5.116   9.140  0.5208 -0.2984  0.2257
  907MOL0     C22316   1.726   5.113   9.253 -1.0960  0.2336 -0.1873
  907MOL0     C22317   1.822   5.209   9.282 -0.5757  1.2037  0.1951
  907MOL0     O22318   1.889   5.188   9.400  0.6586 -0.4158  0.3984
  907MOL0     C22319   1.955   5.303   9.458 -0.0355 -0.4562 -0.4183
  907MOL0     C22320   2.035   5.254   9.578 -0.2450  0.2383 -0.2830
  907MOL0     C22321   2.131   5.359   9.627  0.5472 -0.1821 -0.1654
  907MOL0     C22322   2.228   5.309   9.745  0.3493 -0.6801 -0.6759
  907MOL0     C22323   2.273   5.426   9.835 -1.0895 -0.3511 -1.6466
  907MOL0     C22324   2.399   5.385   9.901  0.0688 -1.0338  0.1035
  907MOL0     C22325   2.376   5.272  10.000  0.7084  0.6607  0.2443
  907MOL0     C22326   2.501   5.271  10.104 -0.8240 -0.0591  0.3585
  907MOL0     N22327   2.450   5.315  10.240  0.8121  0.1724  0.8267
  907MOL0     C22328   2.466   5.442  10.295  0.2198 -0.3277 -0.3009
  907MOL0     C22329   2.396   5.439  10.412  0.3351  0.5382  0.2867
  907MOL0     C22330   2.373   5.545  10.505  0.2854  0.6639 -0.0203
  907MOL0     C22331   2.494   5.544  10.591  0.6089  0.4366 -0.1773
  907MOL0     C22332   2.501   5.654  10.699  0.3053  0.0977  0.0783
  907MOL0     C22333   2.640   5.646  10.769 -0.5003 -0.5932 -0.0446
  907MOL0     O22334   2.751   5.664  10.677 -0.0782 -0.3176 -0.6437
  907MOL0     C22335   2.872   5.703  10.725 -0.1847  0.0348 -0.8296
  907MOL0     C22336   2.912   5.718  10.863  0.0129 -0.3228  0.8399
  907MOL0     C22337   3.042   5.765  10.883 -0.8086 -0.2672 -0.4410
  907MOL0     C22338   3.135   5.795  10.779 -0.3598 -0.4083  0.0151
  907MOL0     C22339   3.278   5.813  10.805 -0.2406  1.0145  0.3892
  907MOL0     O22340   3.320   5.819  10.931 -0.0928  1.2574  0.6718
  907MOL0     C22341   3.449   5.845  10.970 -0.1524 -0.1576  0.5647
  907MOL0     C22342   3.547   5.902  10.888  0.0136  0.3629  0.3065
  907MOL0     C22343   3.676   5.928  10.931 -0.7784  0.1274 -0.8707
  907MOL0     C22344   3.716   5.877  11.055 -0.2590  0.8169 -0.6754
  907MOL0     O22345   3.849   5.857  11.082  0.0948 -0.4422  0.0414
  907MOL0     C22346   3.954   5.918  11.005  0.3879  0.4889  1.1908
  907MOL0     C22347   4.080   5.916  11.092  0.8319 -0.9098  0.1564
  907MOL0     C22348   4.088   6.023  11.208 -0.1140 -0.7701 -0.0051
  907MOL0     C22349   4.099   6.166  11.140  0.3429 -0.2036  0.1651
  907MOL0     C22350   4.148   6.268  11.240 -0.7456 -0.4613  0.1937
  907MOL0     C22351   4.208   6.392  11.175  0.3105  0.0633  0.2893
  907MOL0     C22352   4.196   6.502  11.280 -0.1094  0.3466 -0.1793
  907MOL0     C22353   4.261   6.476  11.419  0.5287 -0.6388 -1.2183
  907MOL0    Cl22354   4.435   6.440  11.403  0.2653 -0.2671  0.1252
  907MOL0     C22355   3.631   5.807  11.135 -0.0286  1.7859  0.2024
  907MOL0     C22356   3.496   5.794  11.093  0.6299 -0.4638 -0.1831
  907MOL0     O22357   3.357   5.800  10.711  0.5620  0.2842 -0.1688
  907MOL0     C22358   3.088   5.782  10.647 -0.8339  0.1567  1.2270
  907MOL0     C22359   2.955   5.740  10.629 -0.8860  0.3972  0.1103
  907MOL0     N22360   2.344   5.308  10.431 -0.8213  0.3939 -0.1530
  907MOL0     N22361   2.383   5.243  10.330  0.7243  0.1641 -0.5107
  907MOL0     C22362   1.850   5.310   9.192  0.2570 -0.8509  0.2786
  907MOL0     C22363   1.776   5.301   9.066 -0.2468  0.6003 -0.7984
  907MOL0     C22364   1.613   5.178   8.669 -0.8030 -0.3198 -0.0242
  907MOL0     C22365   1.697   5.186   8.557 -0.8660  0.3378  0.0694
  907MOL0     C22366   1.651   5.165   8.422 -0.7557 -0.4545 -0.6246
  907MOL0     C22367   1.512   5.145   8.407 -0.1785  0.6215 -0.7552
  907MOL0     O22368   1.476   5.123   8.275 -0.4871  0.0397 -0.0974
  907MOL0     C22369   1.345   5.078   8.250  0.0111 -0.4682 -0.4968
  907MOL0     C22370   1.317   5.076   8.102  0.0566  1.0651  0.8340
  907MOL0     C22371   1.426   5.009   8.015  0.4347 -0.5676 -0.6439
  907MOL0     C22372   1.366   4.913   7.902 -0.2739  0.6209 -0.4970
  907MOL0     C22373   1.461   4.865   7.794 -0.5053 -0.6861  1.2337
  907MOL0     C22374   1.523   4.827   7.700  0.4167 -0.5965  0.3422
  907MOL0     C22375   1.427   5.146   8.520 -0.2152  0.0787  0.8123
  907MOL0     C22376   1.472   5.168   8.651 -0.6930 -0.1426 -0.5189
  907MOL0     C22377   1.379   5.185   8.769 -0.1400  0.1006  0.4019
  907MOL0     H22378   1.582   5.037   9.123 -0.9936  1.4113 -1.7833
  907MOL0     H22379   1.702   5.033   9.322 -1.1193  0.5574  0.1799
  907MOL0     H22380   2.030   5.345   9.391  0.5621  2.0153  1.6642
  907MOL0     H22381   1.885   5.379   9.494 -0.6817 -0.8169 -0.8782
  907MOL0     H22382   2.086   5.162   9.550 -2.0607 -0.2769 -2.1401
  907MOL0     H22383   1.957   5.222   9.648 -1.0217 -0.1529 -1.3106
  907MOL0     H22384   2.070   5.442   9.663  2.0152 -0.5124  3.5383
  907MOL0     H22385   2.191   5.385   9.540  0.6022 -0.8514 -0.3323
  907MOL0     H22386   2.177   5.240   9.812 -1.8760  2.1051  0.7154
  907MOL0     H22387   2.311   5.261   9.692  0.5297 -1.5702  0.3938
  907MOL0     H22388   2.295   5.519   9.783 -0.9068 -0.1826 -1.2737
  907MOL0     H22389   2.189   5.439   9.903 -0.5330  1.2709 -1.2337
  907MOL0     H22390   2.477   5.350   9.832  1.9692  0.1470  1.5494
  907MOL0     H22391   2.438   5.475   9.949 -0.9644 -1.2740  1.4529
  907MOL0     H22392   2.367   5.172   9.955  0.4555  0.3597  0.9536
  907MOL0     H22393   2.285   5.277  10.060  1.5557 -1.6279  1.8544
  907MOL0     H22394   2.535   5.168  10.120  0.5875  0.5256  1.3804
  907MOL0     H22395   2.582   5.325  10.053  0.5179 -1.5951  0.7854
  907MOL0     H22396   2.524   5.525  10.257 -0.7466 -0.9927 -3.6581
  907MOL0     H22397   2.364   5.641  10.454 -3.0665  0.5478  0.1766
  907MOL0     H22398   2.285   5.535  10.570  0.7873  0.9097  0.7156
  907MOL0     H22399   2.495   5.443  10.631  0.6440  0.5789  0.1920
  907MOL0     H22400   2.581   5.561  10.527  1.9815 -1.2249  1.1570
  907MOL0     H22401   2.416   5.645  10.767 -1.1342 -0.8270 -1.7571
  907MOL0     H22402   2.486   5.746  10.641 -2.4408  0.7887  1.7115
  907MOL0     H22403   2.648   5.546  10.812 -0.5402  0.2680  2.0900
  907MOL0     H22404   2.634   5.719  10.850  0.4503 -1.1163  0.5162
  907MOL0     H22405   2.854   5.711  10.954  1.1970  1.2640  1.7761
  907MOL0     H22406   3.087   5.775  10.982  0.1012 -0.0320 -0.8605
  907MOL0     H22407   3.530   5.947  10.791  1.5654  0.1279 -0.1086
  907MOL0     H22408   3.734   5.972  10.851 -3.8950  3.2540 -1.6476
  907MOL0     H22409   3.975   5.866  10.911  1.0083 -0.2091  1.7018
  907MOL0     H22410   3.931   6.021  10.976  0.9982  0.0688 -0.9583
  907MOL0     H22411   4.089   5.812  11.126 -0.3078 -1.5260 -1.3128
  907MOL0     H22412   4.161   5.948  11.025 -2.6646  4.3415 -2.1895
  907MOL0     H22413   3.998   6.031  11.270 -0.0297 -2.6976  0.4506
  907MOL0     H22414   4.174   6.015  11.275 -2.2067  0.6012  3.0845
  907MOL0     H22415   3.997   6.197  11.118  1.5804  3.2233 -1.5853
  907MOL0     H22416   4.164   6.146  11.055  0.2115  1.2551 -0.3053
  907MOL0     H22417   4.226   6.221  11.302 -0.9942  1.2889  1.9432
  907MOL0     H22418   4.061   6.306  11.296  0.6956  1.7594  1.0618
  907MOL0     H22419   4.303   6.370  11.126  0.1901  3.1737 -1.6242
  907MOL0     H22420   4.142   6.411  11.089  2.1595 -3.4477 -2.1759
  907MOL0     H22421   4.091   6.532  11.290 -0.5439 -0.9626 -0.5613
  907MOL0     H22422   4.243   6.587  11.230 -1.8072  0.6000 -1.4429
  907MOL0     H22423   4.244   6.566  11.479  2.8784  0.2091 -1.6970
  907MOL0     H22424   4.208   6.401  11.478 -1.4606  0.2152 -1.8386
  907MOL0     H22425   3.656   5.740  11.217 -0.7631  0.7346 -0.3989
  907MOL0     H22426   3.431   5.743  11.163  1.2492  0.7829  1.3579
  907MOL0     H22427   3.141   5.789  10.553 -1.8095  1.6541  0.7633
  907MOL0     H22428   2.925   5.730  10.525  0.7317 -0.8102 -0.2777
  907MOL0     H22429   1.914   5.394   9.215 -1.3924  0.6048 -0.2181
  907MOL0     H22430   1.784   5.384   8.996  3.2403  1.1135  0.0211
  907MOL0     H22431   1.805   5.196   8.558 -0.6710 -1.3713  1.2702
  907MOL0     H22432   1.721   5.176   8.340 -1.0168  2.3446 -0.5505
  907MOL0     H22433   1.266   5.136   8.301 -0.8457 -1.0092 -1.1774
  907MOL0     H22434   1.332   4.973   8.280 -0.1779 -0.8468 -1.8300
  907MOL0     H22435   1.321   5.181   8.070  4.2256  0.1565 -2.5352
  907MOL0     H22436   1.217   5.038   8.084  0.3678  0.7577 -0.3270
  907MOL0     H22437   1.492   4.950   8.079  1.2835  0.7826 -0.2349
  907MOL0     H22438   1.492   5.087   7.977 -0.2621 -0.8552 -2.5554
  907MOL0     H22439   1.327   4.822   7.949 -1.9780  0.3585 -2.2985
  907MOL0     H22440   1.285   4.969   7.855  0.0987  1.5241 -0.0916
  907MOL0     H22441   1.564   4.782   7.612 -1.2645  0.9013 -1.3009
  907MOL0     H22442   1.320   5.146   8.508  0.0637  0.1325 -2.8675
  907MOL0     H22443   1.410   5.274   8.825  4.0431 -1.9805  1.7981
  907MOL0     H22444   1.272   5.182   8.745  0.2926 -0.0130 -1.6579
  907MOL0     H22445   1.388   5.106   8.844  0.2510 -1.7106 -1.4793
  908MOL0     O22446   7.500   8.770   4.004  0.8042  0.2903  0.2085
  908MOL0     C22447   7.466   8.876   3.948 -0.3968 -0.2008  0.0428
  908MOL0     O22448   7.361   8.968   3.982 -0.7600  0.7335  0.6159
  908MOL0     C22449   7.278   8.935   4.091 -0.0449  0.1586  0.0688
  908MOL0     C22450   7.270   8.813   4.152  0.0560  0.1108  0.2971
  908MOL0     C22451   7.186   8.801   4.264 -0.3075  0.3743  0.2993
  908MOL0     C22452   7.111   8.910   4.319 -0.0183 -0.4528  0.5171
  908MOL0     O22453   7.010   8.888   4.408  1.0411  0.1210  0.1372
  908MOL0     C22454   7.031   8.921   4.543 -0.5964  0.0604  0.3099
  908MOL0     C22455   6.897   8.888   4.606 -0.4104  0.2175  0.9860
  908MOL0     C22456   6.875   8.945   4.746  0.3300  0.1745  0.2011
  908MOL0     C22457   6.853   8.839   4.850 -0.6543 -0.4347  0.0395
  908MOL0     C22458   6.806   8.909   4.986  0.3295  0.4484 -0.0086
  908MOL0     C22459   6.789   8.810   5.105 -0.0321  0.4235 -0.8916
  908MOL0     C22460   6.764   8.891   5.243  0.3351  0.4103 -1.3804
  908MOL0     C22461   6.759   8.806   5.368 -0.3515 -0.6712 -0.2510
  908MOL0     N22462   6.656   8.847   5.465  0.3698  0.2107 -0.2462
  908MOL0     C22463   6.561   8.766   5.524 -0.2504 -0.4858 -0.1841
  908MOL0     C22464   6.467   8.846   5.574 -0.4433 -0.1098 -0.9168
  908MOL0     C22465   6.330   8.802   5.627 -0.5861 -0.0780 -0.0468
  908MOL0     C22466   6.313   8.800   5.777 -0.0059 -0.3667 -0.2707
  908MOL0     C22467   6.323   8.944   5.839  0.9729  0.7061 -0.0830
  908MOL0     C22468   6.206   9.034   5.785  0.7256 -0.2529  0.0761
  908MOL0     O22469   6.187   9.148   5.882 -0.4695  0.6092  0.1078
  908MOL0     C22470   6.086   9.240   5.868  0.0085  0.3470 -1.1497
  908MOL0     C22471   6.005   9.244   5.752 -0.3324  0.7659  0.6062
  908MOL0     C22472   5.918   9.351   5.725  1.4745 -0.2277 -0.2185
  908MOL0     C22473   5.901   9.459   5.816  0.2828 -1.0279  0.2804
  908MOL0     C22474   5.796   9.570   5.796 -0.8588  0.9780  0.2208
  908MOL0     O22475   5.780   9.659   5.895 -0.2765 -0.0252 -0.6826
  908MOL0     C22476   5.725   9.783   5.878 -0.2981  0.1962 -1.2543
  908MOL0     C22477   5.704   9.846   5.747 -0.7449 -0.3986  0.1198
  908MOL0     C22478   5.641   9.971   5.754  0.5097  0.0193  0.4173
  908MOL0     C22479   5.599  10.035   5.870 -0.1728  0.3031 -0.0173
  908MOL0     O22480   5.560  10.164   5.853 -0.0266 -0.8716  0.0689
  908MOL0     C22481   5.588  10.259   5.959  0.4326  0.5203  0.6184
  908MOL0     C22482   5.557  10.407   5.918 -0.4835 -0.4918 -0.1265
  908MOL0     C22483   5.417  10.410   5.874  0.5944  0.4793  0.0580
  908MOL0     C22484   5.386  10.544   5.808  0.0264  0.4912  0.2979
  908MOL0     C22485   5.245  10.562   5.751  0.4780 -0.5212  0.0583
  908MOL0     C22486   5.118  10.569   5.843 -0.3022 -1.0671 -0.1338
  908MOL0     C22487   5.116  10.670   5.949 -0.2928 -0.4929 -0.2430
  908MOL0     C22488   5.064  10.794   5.905  0.3656  0.1681  0.8310
  908MOL0    Cl22489   5.068  10.897   6.049 -0.0849 -0.1316 -0.2375
  908MOL0     C22490   5.616   9.968   5.989 -0.3942  0.7231  0.5441
  908MOL0     C22491   5.681   9.842   6.000  0.4797  0.1547  0.4072
  908MOL0     O22492   5.737   9.564   5.686 -0.3935  0.0176 -1.0378
  908MOL0     C22493   5.966   9.439   5.940  0.5279 -0.3271 -0.1044
  908MOL0     C22494   6.058   9.334   5.966 -0.5685 -0.1561 -0.2095
  908MOL0     N22495   6.512   8.979   5.554 -0.4999 -0.3543  0.1450
  908MOL0     N22496   6.627   8.974   5.496 -0.3179 -0.5656  0.1201
  908MOL0     C22497   7.114   9.031   4.251 -0.6522  0.2223 -0.1462
  908MOL0     C22498   7.195   9.044   4.138 -0.7357  0.2747  0.4287
  908MOL0     C22499   7.546   8.904   3.834  0.5569 -0.6333  0.5074
  908MOL0     C22500   7.615   9.029   3.827  0.8248  0.8492 -0.1824
  908MOL0     C22501   7.695   9.060   3.720 -0.0329 -0.6069  0.1712
  908MOL0     C22502   7.704   8.969   3.616 -1.2246  0.1887 -0.0782
  908MOL0     O22503   7.781   9.019   3.508  0.2784  0.1320  0.1555
  908MOL0     C22504   7.784   8.932   3.391 -0.4685 -0.9244  0.1372
  908MOL0     C22505   7.898   8.990   3.307  0.2216 -0.6268 -0.4092
  908MOL0     C22506   7.925   8.902   3.185 -0.7993  0.5371  0.6007
  908MOL0     C22507   8.014   8.784   3.205 -0.3657  0.3344 -0.5495
  908MOL0     C22508   8.043   8.725   3.079 -0.1105 -0.5653  0.0394
  908MOL0     C22509   8.069   8.689   2.967 -0.5198 -0.1903  0.2740
  908MOL0     C22510   7.645   8.846   3.620  0.0956  1.1412 -0.0503
  908MOL0     C22511   7.565   8.808   3.730  0.0752  0.1877 -0.5770
  908MOL0     C22512   7.470   8.690   3.714  0.4961  0.6423  0.2490
  908MOL0     H22513   7.314   8.719   4.118 -0.8550 -1.3770  2.9418
  908MOL0     H22514   7.172   8.702   4.307  1.2336  1.0625  2.5811
  908MOL0     H22515   7.122   8.876   4.584 -1.2573  1.0550  3.0864
  908MOL0     H22516   7.035   9.030   4.545 -1.9434  0.1412 -0.3435
  908MOL0     H22517   6.900   8.779   4.618  1.4263  0.3627  2.2903
  908MOL0     H22518   6.800   8.902   4.558 -0.5986 -2.1208  0.5630
  908MOL0     H22519   6.779   8.997   4.742  0.7087  0.8161 -1.1164
  908MOL0     H22520   6.961   9.008   4.774  2.2700 -1.7993 -1.0109
  908MOL0     H22521   6.780   8.765   4.816  1.6720 -0.8999 -4.6911
  908MOL0     H22522   6.949   8.788   4.857 -1.3733 -1.7084  0.9137
  908MOL0     H22523   6.882   8.981   5.017  0.6238 -0.1525  0.7048
  908MOL0     H22524   6.706   8.953   4.981 -0.3315 -0.2181  3.8953
  908MOL0     H22525   6.698   8.754   5.079 -1.1515  2.5644 -1.8188
  908MOL0     H22526   6.873   8.740   5.106  1.4373  2.1245  0.5712
  908MOL0     H22527   6.677   8.956   5.232 -0.6550 -1.0957 -2.7814
  908MOL0     H22528   6.847   8.960   5.261 -0.4193  1.6087 -2.3694
  908MOL0     H22529   6.730   8.703   5.346 -0.9189 -0.5402 -0.1257
  908MOL0     H22530   6.854   8.802   5.422  1.0242  0.5685 -2.4188
  908MOL0     H22531   6.556   8.659   5.514 -3.6061 -0.2880 -2.0626
  908MOL0     H22532   6.251   8.863   5.581 -4.2748 -1.9221  3.3214
  908MOL0     H22533   6.306   8.701   5.591  0.2606 -0.0228 -0.8200
  908MOL0     H22534   6.213   8.759   5.796  0.0374 -0.3263  0.0407
  908MOL0     H22535   6.391   8.743   5.827  0.6241 -1.1727 -2.1101
  908MOL0     H22536   6.425   8.978   5.820  1.1283 -0.3426 -1.2668
  908MOL0     H22537   6.313   8.933   5.948  0.7218  4.4037  0.3788
  908MOL0     H22538   6.114   8.981   5.763  0.6067  0.0072 -0.0560
  908MOL0     H22539   6.237   9.075   5.689 -1.6836  0.1174 -0.6003
  908MOL0     H22540   6.005   9.163   5.680 -4.1495  1.6366 -0.6037
  908MOL0     H22541   5.857   9.349   5.636  1.1829 -2.7746 -0.0323
  908MOL0     H22542   5.737   9.789   5.660  3.9106 -0.2638  1.5488
  908MOL0     H22543   5.645  10.030   5.664  1.4991 -1.5370 -0.5983
  908MOL0     H22544   5.536  10.235   6.052  2.3656  0.3678  1.7131
  908MOL0     H22545   5.694  10.273   5.979  0.2957  2.3751  0.2778
  908MOL0     H22546   5.564  10.476   6.003 -2.4092 -2.3950  1.7151
  908MOL0     H22547   5.613  10.427   5.827 -0.2921  2.7572  0.5902
  908MOL0     H22548   5.403  10.345   5.788  0.7221  2.3978 -1.4894
  908MOL0     H22549   5.340  10.388   5.949 -0.7771  0.2223 -1.3630
  908MOL0     H22550   5.452  10.568   5.724 -1.5161  0.7665 -0.8962
  908MOL0     H22551   5.411  10.638   5.857 -2.6715  3.3775 -3.2477
  908MOL0     H22552   5.233  10.492   5.667 -0.5878 -0.6398  0.2981
  908MOL0     H22553   5.240  10.651   5.687 -3.2083 -2.1302 -2.1967
  908MOL0     H22554   5.031  10.591   5.781  0.4286  3.1848  0.0743
  908MOL0     H22555   5.096  10.465   5.870 -0.1767 -1.0757 -0.0655
  908MOL0     H22556   5.220  10.683   5.980 -0.4565 -2.5878  1.3881
  908MOL0     H22557   5.054  10.631   6.030 -0.2773  0.9467  0.4797
  908MOL0     H22558   5.121  10.839   5.823 -1.4016  0.7012 -0.1654
  908MOL0     H22559   4.960  10.786   5.870  0.5306 -0.8916  0.5376
  908MOL0     H22560   5.600  10.030   6.077  0.9187  0.1528  1.2190
  908MOL0     H22561   5.695   9.783   6.090 -0.4256 -0.2176  0.3218
  908MOL0     H22562   5.961   9.505   6.026  1.5910 -1.0623  0.5582
  908MOL0     H22563   6.124   9.323   6.052 -0.7041 -3.8849 -0.4335
  908MOL0     H22564   7.049   9.114   4.276 -2.3781 -0.9829 -0.4859
  908MOL0     H22565   7.183   9.131   4.074 -2.2625  0.9700  1.5867
  908MOL0     H22566   7.605   9.101   3.908 -0.0619 -2.2318  2.6299
  908MOL0     H22567   7.745   9.154   3.701  1.9285 -1.8587 -1.2676
  908MOL0     H22568   7.693   8.955   3.334  0.4091  1.1538 -0.5007
  908MOL0     H22569   7.796   8.826   3.416  0.2854 -0.9796 -0.4121
  908MOL0     H22570   7.988   8.999   3.368 -1.9046  2.8728  2.6841
  908MOL0     H22571   7.873   9.094   3.283  1.6761 -0.2061 -0.2055
  908MOL0     H22572   7.981   8.967   3.117  1.8232  0.5272  2.5690
  908MOL0     H22573   7.826   8.875   3.147 -0.1053 -2.8115  0.8538
  908MOL0     H22574   8.111   8.810   3.248 -1.0215  1.9379  0.0294
  908MOL0     H22575   7.959   8.720   3.274  1.1125  0.8200  1.1443
  908MOL0     H22576   8.075   8.651   2.867  0.6592  0.7876 -0.0448
  908MOL0     H22577   7.643   8.770   3.542 -1.3455  1.1823 -0.0719
  908MOL0     H22578   7.515   8.606   3.768 -2.8099 -0.4483  1.5381
  908MOL0     H22579   7.370   8.703   3.756  1.1409  0.5401  1.8831
  908MOL0     H22580   7.455   8.667   3.608 -1.5368  1.4952  0.3200
  909MOL0     O22581   6.925   6.473   1.764  0.1552 -0.1105 -0.6306
  909MOL0     C22582   6.933   6.453   1.885 -0.0753 -0.3429  0.9351
  909MOL0     O22583   6.971   6.547   1.977 -0.5567  0.5691  0.3084
  909MOL0     C22584   7.004   6.671   1.938  0.0105 -0.4453  0.5592
  909MOL0     C22585   6.916   6.767   1.959 -1.0054  0.9182 -0.2699
  909MOL0     C22586   6.947   6.900   1.935 -0.4506  0.7008  0.3328
  909MOL0     C22587   7.063   6.927   1.864 -0.0465  0.1311  0.3284
  909MOL0     O22588   7.093   7.054   1.822 -0.0194 -0.2984 -0.0013
  909MOL0     C22589   6.992   7.151   1.802 -0.5605  0.1607 -0.0077
  909MOL0     C22590   7.058   7.272   1.721 -0.0634  0.5487 -0.2582
  909MOL0     C22591   6.956   7.366   1.654  1.0859 -0.2802 -0.9837
  909MOL0     C22592   7.010   7.491   1.602 -1.4734  0.0874  0.8913
  909MOL0     C22593   6.901   7.595   1.543 -0.4779  0.1230  0.4081
  909MOL0     C22594   6.800   7.537   1.441  0.4905 -0.3527  0.1536
  909MOL0     C22595   6.874   7.493   1.306  0.6414  0.5098  0.1925
  909MOL0     C22596   6.805   7.387   1.222  0.5177 -0.4504  0.2741
  909MOL0     N22597   6.798   7.249   1.281 -0.1911  0.2335 -0.6968
  909MOL0     C22598   6.891   7.161   1.315 -0.0735  0.9314 -0.2179
  909MOL0     C22599   6.835   7.073   1.404 -0.2775 -0.0317 -0.6829
  909MOL0     C22600   6.904   6.953   1.469  1.1016 -0.2187  0.3953
  909MOL0     C22601   6.809   6.836   1.468  0.8453 -0.6847 -0.6955
  909MOL0     C22602   6.753   6.815   1.326  0.0745 -0.1678 -0.9432
  909MOL0     C22603   6.686   6.680   1.314 -0.1814 -0.2165 -0.0432
  909MOL0     O22604   6.774   6.567   1.357 -0.5826  0.5830  0.0258
  909MOL0     C22605   6.708   6.451   1.378  0.2842  0.0143  0.9628
  909MOL0     C22606   6.599   6.447   1.457  0.0598 -0.0663  0.4054
  909MOL0     C22607   6.522   6.336   1.478  0.0112  0.2341  0.2428
  909MOL0     C22608   6.581   6.211   1.451  0.0903  0.7286  0.8744
  909MOL0     C22609   6.521   6.070   1.490  0.1447 -0.7698  0.9920
  909MOL0     O22610   6.406   6.085   1.563  0.3886  0.5274  0.2619
  909MOL0     C22611   6.351   5.993   1.652  0.1873  0.7685  0.0238
  909MOL0     C22612   6.430   5.895   1.715 -0.2232 -0.9997  0.5946
  909MOL0     C22613   6.391   5.800   1.793 -0.1010  0.8506 -0.4308
  909MOL0     C22614   6.256   5.797   1.831 -0.0262  0.6435  0.6824
  909MOL0     O22615   6.189   5.700   1.903  0.0829  0.1942  0.3077
  909MOL0     C22616   6.257   5.604   1.977 -1.0542 -0.1268 -0.1553
  909MOL0     C22617   6.152   5.516   2.043  0.0889 -0.4782  0.8057
  909MOL0     C22618   6.213   5.414   2.144 -0.1181 -0.1160  0.1149
  909MOL0     C22619   6.117   5.311   2.204  0.6572  0.4351  0.3713
  909MOL0     C22620   6.187   5.215   2.288 -0.4029  1.0822  0.1379
  909MOL0     C22621   6.093   5.120   2.355  0.5073  0.7817 -0.1208
  909MOL0     C22622   6.177   5.045   2.467  0.7315 -0.3783  0.0010
  909MOL0     C22623   6.077   4.958   2.544  0.3997 -1.0338  0.8315
  909MOL0    Cl22624   6.170   4.845   2.661  0.4559  0.3113 -0.0379
  909MOL0     C22625   6.167   5.891   1.766  0.3995  0.5148  0.4820
  909MOL0     C22626   6.213   5.990   1.682  0.6210  0.5616  0.2655
  909MOL0     O22627   6.575   5.962   1.463 -0.6673  0.3290 -0.5054
  909MOL0     C22628   6.698   6.212   1.381  0.0079  0.4797  0.9666
  909MOL0     C22629   6.764   6.327   1.349  0.2590  0.4745 -0.1025
  909MOL0     N22630   6.706   7.121   1.426  0.0606 -0.1668  0.5306
  909MOL0     N22631   6.682   7.222   1.352 -0.5928 -1.0592 -0.0525
  909MOL0     C22632   7.149   6.823   1.822  0.5468 -0.7557  0.3575
  909MOL0     C22633   7.125   6.698   1.875  0.2898 -0.1163 -0.1008
  909MOL0     C22634   6.899   6.318   1.952  0.0374 -0.4437 -0.1615
  909MOL0     C22635   6.918   6.301   2.089 -0.5782  0.3414 -0.5196
  909MOL0     C22636   6.882   6.184   2.166  0.3357 -0.5798  0.5917
  909MOL0     C22637   6.825   6.081   2.095  0.7051 -0.1126 -0.1787
  909MOL0     O22638   6.812   5.956   2.144  0.4197 -0.0085  0.0393
  909MOL0     C22639   6.801   5.937   2.281 -0.4332 -0.9759  0.5142
  909MOL0     C22640   6.749   5.792   2.293 -0.5573 -0.0282 -0.3660
  909MOL0     C22641   6.845   5.674   2.260 -0.1577  1.2291 -0.2078
  909MOL0     C22642   6.835   5.651   2.117 -0.1923 -0.5763  0.1740
  909MOL0     C22643   6.704   5.588   2.077  0.3687 -0.2950  0.0561
  909MOL0     C22644   6.622   5.497   2.057 -0.5329  0.7211 -0.1968
  909MOL0     C22645   6.807   6.096   1.960  0.5870  0.8423 -0.5498
  909MOL0     C22646   6.833   6.211   1.887  0.8478 -0.3914 -0.5020
  909MOL0     C22647   6.797   6.198   1.744  0.0358 -0.2671 -0.8448
  909MOL0     H22648   6.822   6.731   2.000  0.3495 -2.3639  0.2488
  909MOL0     H22649   6.869   6.974   1.949 -2.4719 -1.3354  0.2929
  909MOL0     H22650   6.915   7.106   1.738  0.0281  2.9208 -2.9675
  909MOL0     H22651   6.959   7.198   1.895  2.2154 -2.5263  2.5340
  909MOL0     H22652   7.109   7.234   1.632 -4.1392 -1.0134 -2.1856
  909MOL0     H22653   7.129   7.312   1.794  0.9068 -2.3877  0.5292
  909MOL0     H22654   6.884   7.383   1.735  0.2918 -0.7778 -1.5700
  909MOL0     H22655   6.915   7.305   1.573 -1.0676  1.0246 -0.9495
  909MOL0     H22656   7.068   7.547   1.676  1.5599  0.7508 -1.7474
  909MOL0     H22657   7.069   7.460   1.515  0.3464 -3.2639  3.1207
  909MOL0     H22658   6.841   7.619   1.631  2.3130  2.2268  1.8793
  909MOL0     H22659   6.944   7.686   1.501 -0.4973  0.0751  0.2817
  909MOL0     H22660   6.745   7.451   1.482  0.4177 -0.9568 -1.1615
  909MOL0     H22661   6.730   7.614   1.410  0.1342 -1.1556 -1.1220
  909MOL0     H22662   6.977   7.464   1.327  1.9618  2.6458 -2.6767
  909MOL0     H22663   6.871   7.580   1.240 -1.7649 -0.2117 -0.7747
  909MOL0     H22664   6.703   7.417   1.195 -0.1832 -1.7302  1.3726
  909MOL0     H22665   6.860   7.373   1.128  0.7567  0.0726  0.3355
  909MOL0     H22666   6.991   7.169   1.273 -0.9742  3.5763 -2.1692
  909MOL0     H22667   6.993   6.922   1.414  0.8451 -1.2035  0.5092
  909MOL0     H22668   6.924   6.989   1.570  0.2859 -0.6681  0.7245
  909MOL0     H22669   6.859   6.746   1.504 -2.8423 -2.0669  1.5300
  909MOL0     H22670   6.730   6.862   1.539  0.8164 -0.7023 -0.7219
  909MOL0     H22671   6.837   6.815   1.255  1.9959  1.3468  1.1871
  909MOL0     H22672   6.683   6.894   1.298 -1.3991 -1.6666 -1.7039
  909MOL0     H22673   6.662   6.661   1.209  0.9979  0.2851 -0.4165
  909MOL0     H22674   6.591   6.679   1.368 -1.2630 -1.0464 -1.8522
  909MOL0     H22675   6.559   6.542   1.490 -2.8891 -0.1170 -2.5530
  909MOL0     H22676   6.425   6.329   1.528 -0.4532  0.0995 -0.6563
  909MOL0     H22677   6.536   5.900   1.691 -0.0996  0.4505  1.2933
  909MOL0     H22678   6.468   5.738   1.839 -2.0242 -1.2907  0.1278
  909MOL0     H22679   6.327   5.544   1.917 -1.0417 -0.4038  0.1324
  909MOL0     H22680   6.319   5.649   2.055  0.2614 -1.0239 -0.6534
  909MOL0     H22681   6.082   5.588   2.085  0.7233  1.8423 -1.8072
  909MOL0     H22682   6.092   5.463   1.968  1.0075 -0.8473  0.3145
  909MOL0     H22683   6.296   5.359   2.098 -2.2277 -0.9304 -3.0153
  909MOL0     H22684   6.253   5.468   2.231  2.9064  3.1266 -2.9508
  909MOL0     H22685   6.072   5.254   2.122  4.3742 -2.0987 -0.1366
  909MOL0     H22686   6.033   5.362   2.253 -0.9714 -0.5351 -1.2553
  909MOL0     H22687   6.240   5.274   2.363  0.0530  0.9973 -0.1111
  909MOL0     H22688   6.264   5.160   2.232  1.0322 -1.1586  3.9523
  909MOL0     H22689   6.016   5.181   2.402 -1.4371  0.6046 -2.8181
  909MOL0     H22690   6.046   5.052   2.283  0.7285 -0.8664  1.2446
  909MOL0     H22691   6.217   5.125   2.530  0.8270 -2.0302  2.1723
  909MOL0     H22692   6.266   4.989   2.437  1.9641  0.8566  1.2008
  909MOL0     H22693   6.007   5.020   2.599 -0.2613  0.0572 -1.1204
  909MOL0     H22694   6.012   4.898   2.479 -2.5340  2.6469 -0.0077
  909MOL0     H22695   6.067   5.860   1.794  0.4908  0.5372  0.8290
  909MOL0     H22696   6.139   6.052   1.631  1.7727  0.4501 -1.6682
  909MOL0     H22697   6.731   6.119   1.338  0.4382  1.3469 -0.6724
  909MOL0     H22698   6.865   6.324   1.310  0.2473  4.0837 -0.7431
  909MOL0     H22699   7.240   6.836   1.764 -1.1569  0.8427 -2.1670
  909MOL0     H22700   7.194   6.615   1.863  2.6449  1.9632 -1.9864
  909MOL0     H22701   6.974   6.375   2.146  2.7330 -0.7543 -2.0806
  909MOL0     H22702   6.912   6.175   2.269 -0.5101  1.1187  1.0295
  909MOL0     H22703   6.744   6.023   2.315 -0.4916 -0.6696 -0.3330
  909MOL0     H22704   6.896   5.943   2.335 -0.1310 -0.4901 -0.0606
  909MOL0     H22705   6.655   5.785   2.238 -2.0945 -0.6972  2.1727
  909MOL0     H22706   6.734   5.787   2.402  0.9150  0.5028 -0.1169
  909MOL0     H22707   6.815   5.583   2.314  3.5642  0.7194  1.2907
  909MOL0     H22708   6.943   5.683   2.307 -0.1165 -2.7262  0.8175
  909MOL0     H22709   6.853   5.741   2.058  1.2167  1.0042  2.8532
  909MOL0     H22710   6.911   5.576   2.093 -0.6870 -0.1440 -3.4191
  909MOL0     H22711   6.554   5.414   2.062  0.8505 -0.3803  3.6934
  909MOL0     H22712   6.787   6.005   1.905 -1.4221 -0.2559  1.7714
  909MOL0     H22713   6.765   6.294   1.703  2.4653  0.9009 -0.2513
  909MOL0     H22714   6.885   6.176   1.682  2.3673  0.1401  2.0977
  909MOL0     H22715   6.716   6.126   1.732  0.5944 -1.4682  1.7808
  910MOL0     O22716  10.273   7.240   3.961 -0.6707 -0.2476 -1.1871
  910MOL0     C22717  10.169   7.178   3.934 -1.1358 -0.8416  1.1562
  910MOL0     O22718  10.059   7.173   4.015 -0.2267 -0.6656 -0.3723
  910MOL0     C22719  10.050   7.250   4.126  0.0935  0.1043 -0.4974
  910MOL0     C22720   9.992   7.182   4.229  0.4306  0.0568 -0.2157
  910MOL0     C22721   9.987   7.247   4.347  0.0278 -0.2639 -0.5128
  910MOL0     C22722  10.031   7.380   4.371  0.0964 -0.2711 -0.6098
  910MOL0     O22723  10.033   7.442   4.495 -0.3233 -0.5763 -0.0657
  910MOL0     C22724  10.029   7.587   4.504 -0.0172  0.5260  0.2521
  910MOL0     C22725  10.001   7.628   4.645 -0.7131  0.6778 -0.0597
  910MOL0     C22726   9.981   7.787   4.663 -0.7471 -0.6758 -0.2323
  910MOL0     C22727   9.957   7.828   4.809 -0.2755 -0.1722  0.2992
  910MOL0     C22728   9.950   7.976   4.821 -0.7699 -0.1084 -0.4194
  910MOL0     C22729   9.908   8.008   4.966 -0.4748  1.1027 -0.1156
  910MOL0     C22730   9.864   8.157   4.986 -1.3993  0.2999 -0.0582
  910MOL0     C22731   9.986   8.256   4.976  0.5208 -0.6566  0.7225
  910MOL0     N22732  10.083   8.238   5.086  0.3697 -0.4741  0.6553
  910MOL0     C22733  10.091   8.302   5.207 -0.5760 -0.7870  0.6944
  910MOL0     C22734  10.209   8.279   5.264 -1.4314 -0.5301  0.4175
  910MOL0     C22735  10.255   8.313   5.408 -0.5506  0.7690  0.4222
  910MOL0     C22736  10.140   8.298   5.506 -0.4447 -0.7464  0.7194
  910MOL0     C22737  10.041   8.408   5.516  1.1805 -0.4545 -1.3126
  910MOL0     C22738   9.906   8.344   5.573  0.2847 -0.2478 -0.6760
  910MOL0     O22739   9.856   8.239   5.492 -0.3029  0.0403  0.8356
  910MOL0     C22740   9.732   8.183   5.511 -0.5462 -0.6097  0.1286
  910MOL0     C22741   9.694   8.076   5.424  0.0030 -1.2883 -0.3087
  910MOL0     C22742   9.576   8.011   5.448 -0.3511  0.5766  0.4197
  910MOL0     C22743   9.506   8.029   5.566  0.3895  0.9023  0.5001
  910MOL0     C22744   9.393   7.941   5.606 -0.0209  0.0602 -0.5570
  910MOL0     O22745   9.317   7.965   5.717  0.4080  0.2688 -0.5582
  910MOL0     C22746   9.239   7.860   5.766 -0.4803 -0.3864 -0.6970
  910MOL0     C22747   9.098   7.861   5.749 -0.1590  0.0615 -0.2983
  910MOL0     C22748   9.018   7.772   5.829 -1.1967  0.3462  0.2304
  910MOL0     C22749   9.075   7.673   5.910 -0.8815  0.1041  0.3654
  910MOL0     O22750   9.001   7.577   5.985 -0.3499 -0.3221  0.0970
  910MOL0     C22751   8.903   7.505   5.913 -0.0518  1.3231 -0.0257
  910MOL0     C22752   8.959   7.424   5.799 -0.2251 -0.2165 -0.2653
  910MOL0     C22753   9.066   7.320   5.850  0.3428 -0.1871  0.9772
  910MOL0     C22754   9.013   7.196   5.908  0.6677 -0.1583 -0.6255
  910MOL0     C22755   9.123   7.095   5.926  0.3283  0.2606 -0.1241
  910MOL0     C22756   9.108   6.983   6.033  1.2986  0.2437 -0.4069
  910MOL0     C22757   8.974   6.910   6.038  0.0058  0.5785  0.3011
  910MOL0     C22758   8.936   6.848   5.904 -0.4226 -0.3716  0.1027
  910MOL0    Cl22759   9.041   6.709   5.867 -0.5785  0.5506 -0.0350
  910MOL0     C22760   9.213   7.671   5.916 -1.1534  0.3369  1.0075
  910MOL0     C22761   9.295   7.765   5.843  0.1461 -0.1564 -0.2094
  910MOL0     O22762   9.379   7.845   5.528 -0.0288 -0.0824  0.8177
  910MOL0     C22763   9.537   8.134   5.662  0.9710  0.3771 -0.2561
  910MOL0     C22764   9.652   8.216   5.626 -0.0484 -0.3565 -0.8530
  910MOL0     N22765  10.283   8.192   5.172  0.4308 -0.0870 -1.1126
  910MOL0     N22766  10.203   8.173   5.069  0.1597 -0.1539  0.6487
  910MOL0     C22767  10.102   7.440   4.266 -0.7178 -0.7912 -0.9295
  910MOL0     C22768  10.106   7.375   4.147 -0.4175  0.0103 -0.3402
  910MOL0     C22769  10.161   7.125   3.788 -0.0182  0.3308 -0.0666
  910MOL0     C22770  10.277   7.129   3.718  0.0297 -0.8608  0.3410
  910MOL0     C22771  10.304   7.052   3.606  0.6301 -0.2565 -0.4369
  910MOL0     C22772  10.202   6.969   3.552 -0.6317  0.6146 -0.3405
  910MOL0     O22773  10.228   6.884   3.445  0.2576 -0.0571 -1.3294
  910MOL0     C22774  10.356   6.816   3.430 -1.4717 -0.2092 -0.5754
  910MOL0     C22775  10.335   6.698   3.330  0.2204  0.0725  1.1117
  910MOL0     C22776  10.296   6.760   3.199 -0.4858 -0.3897  0.1707
  910MOL0     C22777  10.374   6.716   3.076 -0.2699  0.6621  0.3206
  910MOL0     C22778  10.495   6.798   3.071  0.4287  0.9306  0.4700
  910MOL0     C22779  10.596   6.855   3.087 -0.7434 -0.2248 -0.1036
  910MOL0     C22780  10.079   6.960   3.623  0.1348 -0.2008  0.5757
  910MOL0     C22781  10.056   7.034   3.740  0.4601 -0.0661  0.0563
  910MOL0     C22782   9.927   7.013   3.814  0.6608 -0.0859 -0.2126
  910MOL0     H22783   9.945   7.086   4.210 -0.8878  1.0786 -2.4667
  910MOL0     H22784   9.951   7.208   4.442  0.7813  1.4503  0.5441
  910MOL0     H22785  10.129   7.625   4.477 -0.7988  1.4605 -1.5618
  910MOL0     H22786   9.967   7.636   4.428 -2.4723  0.0448  1.8438
  910MOL0     H22787  10.083   7.596   4.710 -1.3284 -4.2660 -1.3287
  910MOL0     H22788   9.907   7.577   4.670 -0.4152 -0.3214 -0.9085
  910MOL0     H22789   9.900   7.825   4.600 -1.7513  0.6871  1.7674
  910MOL0     H22790  10.071   7.835   4.626 -0.1252 -1.2900  0.4619
  910MOL0     H22791   9.859   7.786   4.832 -0.1351 -1.2330 -0.9351
  910MOL0     H22792  10.017   7.780   4.888 -1.5212  0.1014  1.4535
  910MOL0     H22793  10.051   8.012   4.797 -0.7564  3.8635  4.1102
  910MOL0     H22794   9.880   8.017   4.747 -1.0862  1.0685  0.5071
  910MOL0     H22795   9.818   7.952   4.990 -0.4598  1.7865  1.7717
  910MOL0     H22796   9.983   7.972   5.038 -1.3877 -0.5612  0.0433
  910MOL0     H22797   9.817   8.160   5.085  0.6754  0.5139  0.9829
  910MOL0     H22798   9.784   8.184   4.916 -0.5160  0.7441 -0.9273
  910MOL0     H22799  10.034   8.236   4.880 -3.5579 -0.3686 -1.6101
  910MOL0     H22800   9.957   8.362   4.982 -0.1194 -0.8742  1.7013
  910MOL0     H22801  10.012   8.369   5.239 -0.2262  0.0404 -0.1275
  910MOL0     H22802  10.333   8.237   5.423 -1.6933 -0.6733 -0.7128
  910MOL0     H22803  10.307   8.410   5.417  1.4038 -0.0151 -1.4890
  910MOL0     H22804  10.086   8.208   5.478 -3.8220  0.2643  3.2784
  910MOL0     H22805  10.189   8.281   5.602  0.2943  2.3106  1.0141
  910MOL0     H22806  10.015   8.464   5.426 -2.0055  0.8620  0.2898
  910MOL0     H22807  10.080   8.487   5.580 -0.4746 -0.5927 -0.0660
  910MOL0     H22808   9.832   8.425   5.575  1.4343  0.8615  1.8727
  910MOL0     H22809   9.918   8.315   5.678 -0.8574  0.9726 -0.1781
  910MOL0     H22810   9.752   8.055   5.335 -1.7563  0.5601 -1.9780
  910MOL0     H22811   9.550   7.934   5.377 -3.4143  2.2186 -0.4010
  910MOL0     H22812   9.060   7.932   5.677  0.3885 -0.8398 -1.5133
  910MOL0     H22813   8.910   7.771   5.824 -1.2552  3.1354 -2.1224
  910MOL0     H22814   8.849   7.434   5.977  1.1592 -1.7256 -2.1286
  910MOL0     H22815   8.824   7.572   5.877 -1.1504 -0.4072 -1.0356
  910MOL0     H22816   8.881   7.385   5.733 -0.7952 -0.3226  0.4501
  910MOL0     H22817   9.026   7.478   5.732  1.4416 -1.5481  0.2641
  910MOL0     H22818   9.133   7.299   5.767  0.4037 -0.5311  1.1097
  910MOL0     H22819   9.133   7.370   5.921  0.1297 -1.6114  2.2172
  910MOL0     H22820   8.940   7.141   5.848 -0.2598 -0.5493  0.8245
  910MOL0     H22821   8.957   7.230   5.996  1.5270 -2.1195  0.7189
  910MOL0     H22822   9.216   7.148   5.947  1.4991 -0.9998 -1.8824
  910MOL0     H22823   9.146   7.047   5.830  0.4697 -0.6029  0.3338
  910MOL0     H22824   9.183   6.908   6.007  0.0308 -0.9382 -0.7766
  910MOL0     H22825   9.126   7.030   6.130 -1.5855  1.9134 -0.5659
  910MOL0     H22826   8.893   6.978   6.068  0.3964 -0.6493  4.9579
  910MOL0     H22827   8.997   6.830   6.109  1.3994 -0.6838 -1.4527
  910MOL0     H22828   8.830   6.819   5.906 -1.1924  2.2469  0.4638
  910MOL0     H22829   8.937   6.924   5.825 -0.4752 -1.2824 -0.8026
  910MOL0     H22830   9.267   7.596   5.972  2.7058  5.3853  5.0658
  910MOL0     H22831   9.401   7.755   5.863 -0.2237 -1.3408  1.3807
  910MOL0     H22832   9.466   8.150   5.743  2.2922  1.3974  0.7449
  910MOL0     H22833   9.679   8.288   5.703 -0.8622 -1.9526  1.0289
  910MOL0     H22834  10.168   7.526   4.270  0.6132 -1.8225  0.8415
  910MOL0     H22835  10.150   7.415   4.056  1.9371 -0.5613  0.4707
  910MOL0     H22836  10.367   7.178   3.754  0.9762 -2.4309  0.2081
  910MOL0     H22837  10.400   7.055   3.557  0.7152  1.2088 -0.2242
  910MOL0     H22838  10.393   6.775   3.524 -1.2934 -1.9152 -1.3408
  910MOL0     H22839  10.430   6.885   3.390 -1.1111 -0.2134  0.0866
  910MOL0     H22840  10.253   6.635   3.365 -0.3866 -1.0805 -2.0672
  910MOL0     H22841  10.428   6.644   3.312  2.1756  3.5580 -0.3434
  910MOL0     H22842  10.294   6.868   3.211 -0.2830 -0.7139  5.1066
  910MOL0     H22843  10.192   6.731   3.182 -0.4459 -1.6735  1.8268
  910MOL0     H22844  10.409   6.612   3.079 -2.9094 -0.3615 -1.0176
  910MOL0     H22845  10.295   6.720   3.000 -0.5698 -0.5435  0.5497
  910MOL0     H22846  10.694   6.898   3.081 -1.4532  1.3868 -0.7149
  910MOL0     H22847  10.002   6.911   3.566  2.5545 -1.0779 -2.2209
  910MOL0     H22848   9.945   6.971   3.913 -3.6643 -0.5601  0.5451
  910MOL0     H22849   9.869   7.103   3.831  0.2810 -0.3739  0.0239
  910MOL0     H22850   9.862   6.939   3.767  0.8017 -0.7094  0.5462
  911MOL0     O22851   4.864   2.334   1.381 -1.0255 -0.2409 -0.8855
  911MOL0     C22852   4.856   2.216   1.341 -0.0777 -0.1876 -0.3161
  911MOL0     O22853   4.949   2.118   1.381 -0.4629  0.6737 -0.7951
  911MOL0     C22854   5.015   2.147   1.499  0.2525  0.1631 -0.3725
  911MOL0     C22855   5.138   2.202   1.483 -1.0051  0.4075 -0.3692
  911MOL0     C22856   5.224   2.221   1.587 -0.3720 -1.1182  0.1426
  911MOL0     C22857   5.183   2.199   1.719 -0.1820  0.4279 -0.4483
  911MOL0     O22858   5.261   2.209   1.836  0.2491  0.3805 -0.0972
  911MOL0     C22859   5.395   2.173   1.819  0.5601  0.0581 -1.1994
  911MOL0     C22860   5.477   2.247   1.926  0.2871  0.3409  0.4645
  911MOL0     C22861   5.433   2.227   2.066  0.5319  0.4366 -0.4139
  911MOL0     C22862   5.349   2.348   2.127  0.2810 -0.1618  0.5230
  911MOL0     C22863   5.256   2.290   2.239 -0.3227 -0.3832 -0.7067
  911MOL0     C22864   5.106   2.336   2.243 -0.1081 -0.0228  0.3438
  911MOL0     C22865   5.027   2.288   2.112  0.7206  0.0625 -0.0043
  911MOL0     C22866   4.877   2.329   2.132 -0.1289  0.3148 -0.1850
  911MOL0     N22867   4.774   2.324   2.024 -0.0135 -0.4692 -0.1354
  911MOL0     C22868   4.787   2.398   1.903 -0.5371  0.2555 -0.2653
  911MOL0     C22869   4.657   2.413   1.867 -1.0083  0.1731 -1.0363
  911MOL0     C22870   4.610   2.483   1.744 -0.0123 -0.0656 -0.1703
  911MOL0     C22871   4.614   2.396   1.616 -0.0991 -0.0734  0.5860
  911MOL0     C22872   4.522   2.272   1.617  0.3460 -0.2144  0.5944
  911MOL0     C22873   4.375   2.289   1.669  0.6688 -0.0219 -0.2122
  911MOL0     O22874   4.314   2.373   1.573  0.3104 -0.1510 -0.0403
  911MOL0     C22875   4.187   2.421   1.591 -0.1448 -0.4758  0.6544
  911MOL0     C22876   4.134   2.496   1.489  0.4090 -0.9733  0.4722
  911MOL0     C22877   4.009   2.556   1.501 -0.0194 -1.9510 -0.4052
  911MOL0     C22878   3.925   2.517   1.615 -0.1170 -0.3670  1.0798
  911MOL0     C22879   3.793   2.582   1.624  0.6242 -0.3969  0.4502
  911MOL0     O22880   3.707   2.547   1.725  0.1747  0.3553  0.6288
  911MOL0     C22881   3.582   2.594   1.740  0.1347 -0.0579  0.1304
  911MOL0     C22882   3.487   2.514   1.790 -0.7437 -0.3265  0.1093
  911MOL0     C22883   3.352   2.554   1.803  0.4445 -1.0056 -1.3336
  911MOL0     C22884   3.307   2.673   1.760 -0.5146  0.1408  0.0762
  911MOL0     O22885   3.172   2.714   1.769 -0.6089 -0.5038  0.7199
  911MOL0     C22886   3.074   2.627   1.805  0.2012  0.9369 -0.4162
  911MOL0     C22887   2.928   2.677   1.793 -0.9192  0.1690 -1.1352
  911MOL0     C22888   2.910   2.727   1.654  0.3631 -0.2994  0.6921
  911MOL0     C22889   2.937   2.873   1.632 -0.1488  0.2588  0.2128
  911MOL0     C22890   2.875   2.919   1.496  0.7844 -0.0875  0.1945
  911MOL0     C22891   2.844   3.067   1.514 -0.4982  0.2047 -0.0295
  911MOL0     C22892   2.767   3.113   1.386 -0.0744  0.1019 -0.0003
  911MOL0     C22893   2.621   3.128   1.417 -0.5653 -0.1121 -0.2942
  911MOL0    Cl22894   2.516   2.982   1.441 -0.0102 -0.0941  0.1825
  911MOL0     C22895   3.411   2.762   1.703  0.5070 -0.0434 -0.3729
  911MOL0     C22896   3.543   2.718   1.695  0.1981 -0.1254 -0.3074
  911MOL0     O22897   3.764   2.653   1.528 -0.4352  0.2446  0.2014
  911MOL0     C22898   3.967   2.428   1.701 -0.2004  0.8997 -0.3722
  911MOL0     C22899   4.098   2.370   1.689 -0.2262  0.0359  0.3018
  911MOL0     N22900   4.587   2.319   1.941  0.2085  0.5176  0.0664
  911MOL0     N22901   4.658   2.269   2.036 -0.4366  0.6225 -0.3430
  911MOL0     C22902   5.052   2.151   1.736 -0.0784  0.7904  0.2032
  911MOL0     C22903   4.968   2.129   1.625 -0.2631 -0.3669  0.2813
  911MOL0     C22904   4.736   2.167   1.260  0.5680 -0.5335  0.0627
  911MOL0     C22905   4.703   2.030   1.273 -0.4280 -0.2944 -0.0517
  911MOL0     C22906   4.606   1.967   1.193  0.2546 -0.1509  1.0349
  911MOL0     C22907   4.533   2.034   1.097 -0.5148  0.1948  0.2184
  911MOL0     O22908   4.445   1.959   1.011  0.5805  0.2427  1.3359
  911MOL0     C22909   4.315   2.024   0.990  0.2017  0.8981  0.3678
  911MOL0     C22910   4.216   1.933   0.910  0.3359 -0.1275 -0.2914
  911MOL0     C22911   4.278   1.891   0.773 -0.4894 -0.2287  0.5366
  911MOL0     C22912   4.155   1.845   0.693  0.8825 -0.0393 -0.0842
  911MOL0     C22913   4.206   1.779   0.576  0.0296 -0.4600  0.6968
  911MOL0     C22914   4.237   1.734   0.462 -0.1215 -0.1003  0.0259
  911MOL0     C22915   4.565   2.171   1.088 -0.0492 -0.4877  1.0118
  911MOL0     C22916   4.656   2.242   1.171  0.8711  0.4204 -0.3745
  911MOL0     C22917   4.661   2.397   1.162  0.0541 -0.4068 -0.3562
  911MOL0     H22918   5.178   2.219   1.383  1.5587 -3.5020 -0.2178
  911MOL0     H22919   5.321   2.258   1.556 -2.6418  2.4912 -3.6786
  911MOL0     H22920   5.399   2.064   1.826 -2.3523 -0.0863 -0.5064
  911MOL0     H22921   5.437   2.192   1.720  0.6616 -0.6775 -1.3042
  911MOL0     H22922   5.470   2.355   1.911  2.2389  1.0967  4.0436
  911MOL0     H22923   5.582   2.217   1.915  1.5090  3.4727  2.3297
  911MOL0     H22924   5.525   2.216   2.124  1.7344  0.0610 -2.3081
  911MOL0     H22925   5.383   2.130   2.063  2.0771 -0.3534 -2.7000
  911MOL0     H22926   5.414   2.430   2.157  3.2174 -2.1247 -0.0000
  911MOL0     H22927   5.293   2.391   2.044  2.3992  0.3008 -0.7176
  911MOL0     H22928   5.257   2.181   2.234  2.3991 -0.4643 -0.0838
  911MOL0     H22929   5.304   2.309   2.336  2.0012 -3.0930 -1.2225
  911MOL0     H22930   5.059   2.291   2.330  0.0364 -2.3982 -0.7255
  911MOL0     H22931   5.106   2.445   2.241  0.7626 -0.0104 -1.1837
  911MOL0     H22932   5.028   2.178   2.111 -1.7975 -0.0131 -0.5167
  911MOL0     H22933   5.073   2.324   2.020  0.6932  2.4313  0.8375
  911MOL0     H22934   4.832   2.278   2.217  0.2981  1.8061  0.9686
  911MOL0     H22935   4.872   2.433   2.164 -0.7327  1.2237 -2.9506
  911MOL0     H22936   4.876   2.432   1.851 -1.0154  2.7379  0.4192
  911MOL0     H22937   4.510   2.516   1.772  0.3313  0.4421  0.4582
  911MOL0     H22938   4.654   2.580   1.722  0.7765 -0.5247 -0.6862
  911MOL0     H22939   4.585   2.456   1.529 -1.4638 -1.2213  0.2053
  911MOL0     H22940   4.717   2.367   1.597  0.5979  2.4530  0.1038
  911MOL0     H22941   4.566   2.186   1.669  0.5161 -0.6301 -0.2249
  911MOL0     H22942   4.513   2.236   1.514  0.0399  2.0652 -0.2264
  911MOL0     H22943   4.368   2.340   1.766  0.7918 -3.5254  1.8290
  911MOL0     H22944   4.326   2.193   1.689  2.1343 -0.8766 -0.5581
  911MOL0     H22945   4.199   2.518   1.405  3.6234  0.1371  3.0152
  911MOL0     H22946   3.973   2.625   1.425  3.4952  0.5433 -0.0719
  911MOL0     H22947   3.501   2.406   1.796 -0.1636 -0.2616 -0.0207
  911MOL0     H22948   3.290   2.483   1.857 -0.4924 -0.0265 -1.1027
  911MOL0     H22949   3.078   2.536   1.744  0.1266  0.1562  0.7073
  911MOL0     H22950   3.089   2.592   1.908  2.0789 -1.8732 -1.5204
  911MOL0     H22951   2.854   2.603   1.824 -0.9082  0.3695 -0.6203
  911MOL0     H22952   2.915   2.755   1.869  1.7382  1.0520 -1.4883
  911MOL0     H22953   2.976   2.665   1.593  0.6531  1.1656 -0.5613
  911MOL0     H22954   2.805   2.708   1.633 -0.8654 -0.0431  5.3923
  911MOL0     H22955   3.043   2.897   1.639 -0.4834  1.7829  0.3310
  911MOL0     H22956   2.883   2.923   1.712 -1.1124  0.5765 -0.6123
  911MOL0     H22957   2.780   2.875   1.465  1.9624 -2.0318 -0.8463
  911MOL0     H22958   2.945   2.921   1.412  1.8664 -0.0803  1.0736
  911MOL0     H22959   2.782   3.077   1.603  0.4582  1.7457  0.4951
  911MOL0     H22960   2.937   3.122   1.529 -1.0850  1.3895 -0.6169
  911MOL0     H22961   2.769   3.043   1.301 -1.5609 -3.3127  2.5245
  911MOL0     H22962   2.810   3.204   1.344 -1.1781  0.7818  0.2876
  911MOL0     H22963   2.610   3.187   1.509  0.9430  0.5440 -0.5163
  911MOL0     H22964   2.574   3.186   1.336  0.1827 -0.7538 -1.2056
  911MOL0     H22965   3.394   2.864   1.670  0.6540  0.5572  1.2871
  911MOL0     H22966   3.619   2.791   1.668  0.7508 -0.1367  1.1492
  911MOL0     H22967   3.895   2.403   1.778  2.2637 -1.4384  1.3910
  911MOL0     H22968   4.123   2.285   1.751  1.0360  0.4178  0.3382
  911MOL0     H22969   5.018   2.145   1.839 -0.2151  1.7062  0.2127
  911MOL0     H22970   4.865   2.095   1.627 -0.4504  0.1248 -0.5445
  911MOL0     H22971   4.759   1.970   1.344  2.5447  0.9647 -1.1510
  911MOL0     H22972   4.576   1.865   1.214 -0.5679 -0.8572 -2.8246
  911MOL0     H22973   4.335   2.108   0.923 -1.3468 -0.5960 -2.1583
  911MOL0     H22974   4.270   2.052   1.085  1.3182  1.1585  0.8359
  911MOL0     H22975   4.121   1.986   0.897  0.3841  0.2163  0.6703
  911MOL0     H22976   4.181   1.847   0.967 -1.4255  2.7700  3.4002
  911MOL0     H22977   4.360   1.822   0.796 -0.0618  0.2492  0.4431
  911MOL0     H22978   4.312   1.986   0.731  0.7559 -0.8036  0.2060
  911MOL0     H22979   4.087   1.776   0.745  0.1229  2.0406  1.8069
  911MOL0     H22980   4.093   1.933   0.675 -0.0473  0.0648  3.1273
  911MOL0     H22981   4.264   1.701   0.363 -0.6793 -2.2089  0.5233
  911MOL0     H22982   4.518   2.239   1.018  1.9644 -0.6718 -0.5951
  911MOL0     H22983   4.597   2.434   1.081  1.7123  0.3672 -1.3512
  911MOL0     H22984   4.631   2.458   1.248 -0.1276  1.4022 -1.6507
  911MOL0     H22985   4.762   2.432   1.139  0.8698 -1.2470  1.6430
  912MOL0     O22986   9.679   7.233   1.954 -0.4843 -0.5850  0.1991
  912MOL0     C22987   9.737   7.332   1.919 -0.1388  0.3977 -0.1206
  912MOL0     O22988   9.868   7.338   1.885 -0.1005 -0.4082  0.6946
  912MOL0     C22989   9.942   7.222   1.877 -0.1650  0.1613  0.0500
  912MOL0     C22990   9.913   7.127   1.779 -0.4528 -0.0181  0.2176
  912MOL0     C22991   9.978   7.004   1.781 -0.2091 -0.7084  0.2417
  912MOL0     C22992  10.086   6.969   1.865  0.7114  0.3134 -0.7258
  912MOL0     O22993  10.167   6.862   1.864  0.4424 -0.2939 -0.2816
  912MOL0     C22994  10.212   6.809   1.734  0.0749  0.8718  0.1345
  912MOL0     C22995  10.169   6.663   1.709  0.4882 -0.2046  0.8830
  912MOL0     C22996  10.196   6.619   1.558 -0.3237 -0.5266 -0.2595
  912MOL0     C22997  10.332   6.560   1.556 -0.2167  0.4914  1.6823
  912MOL0     C22998  10.352   6.508   1.413  0.2571 -0.1644  0.0440
  912MOL0     C22999  10.500   6.488   1.379 -0.3926  0.5307  0.5273
  912MOL0     C23000  10.519   6.459   1.224 -0.5539  0.1267 -0.6403
  912MOL0     C23001  10.663   6.437   1.187 -0.0698 -1.4655  0.2725
  912MOL0     N23002  10.683   6.442   1.040  0.1748  0.5998  0.1111
  912MOL0     C23003  10.608   6.363   0.948 -0.3889  0.0597  0.0540
  912MOL0     C23004  10.685   6.373   0.836  0.2738 -0.3460  0.8226
  912MOL0     C23005  10.678   6.288   0.710  0.2725  0.1113  0.3570
  912MOL0     C23006  10.565   6.328   0.623 -0.0690  0.1597 -0.0585
  912MOL0     C23007  10.565   6.273   0.483  0.2189  0.6145  0.9512
  912MOL0     C23008  10.459   6.324   0.390  0.4545  0.5408  0.6443
  912MOL0     O23009  10.472   6.466   0.351 -0.4476 -0.0235  0.1465
  912MOL0     C23010  10.353   6.535   0.369 -0.5247 -0.8662  0.2580
  912MOL0     C23011  10.293   6.541   0.491 -0.5611 -0.6809 -0.1150
  912MOL0     C23012  10.164   6.600   0.511 -0.7775 -0.1307  0.6324
  912MOL0     C23013  10.096   6.671   0.404 -0.1720  0.3158 -0.1643
  912MOL0     C23014   9.956   6.722   0.420  1.2487  0.7579  0.6598
  912MOL0     O23015   9.919   6.735   0.554  0.1749 -1.0727 -0.3829
  912MOL0     C23016   9.792   6.793   0.591  0.6690  0.4507 -0.7697
  912MOL0     C23017   9.715   6.726   0.686 -0.3250  0.3055  0.8817
  912MOL0     C23018   9.588   6.780   0.721 -1.2671 -0.4457  0.5140
  912MOL0     C23019   9.535   6.891   0.655  0.0664 -0.3095 -0.8392
  912MOL0     O23020   9.403   6.917   0.682  0.0056 -0.1784 -0.5015
  912MOL0     C23021   9.324   6.998   0.595  0.0183 -0.6428  0.0857
  912MOL0     C23022   9.187   6.967   0.644 -0.2612 -0.4045 -0.9204
  912MOL0     C23023   9.146   6.818   0.638 -0.3284 -0.3319  0.0418
  912MOL0     C23024   9.001   6.818   0.671  0.3445 -0.0204  0.3955
  912MOL0     C23025   8.947   6.670   0.679  0.4752 -0.2353 -0.1851
  912MOL0     C23026   8.796   6.670   0.721  0.2847 -0.0356 -0.8767
  912MOL0     C23027   8.737   6.518   0.697 -0.3183 -0.1379 -0.0325
  912MOL0     C23028   8.603   6.484   0.773  0.4324 -0.0012  0.0255
  912MOL0    Cl23029   8.547   6.321   0.703 -0.3067  0.3025  0.3451
  912MOL0     C23030   9.612   6.960   0.569  1.2796 -0.0492  0.8930
  912MOL0     C23031   9.738   6.914   0.540 -0.9414  0.9302  0.2404
  912MOL0     O23032   9.885   6.746   0.324 -0.4144  0.7228 -0.0989
  912MOL0     C23033  10.160   6.655   0.282  0.0300  0.2777  0.1853
  912MOL0     C23034  10.280   6.593   0.266 -1.0331  1.0792  0.5808
  912MOL0     N23035  10.787   6.471   0.865 -0.6799  0.4072  0.0899
  912MOL0     N23036  10.785   6.509   0.984  0.2178 -0.1294 -0.6501
  912MOL0     C23037  10.122   7.070   1.960  0.8660  0.2183 -0.0712
  912MOL0     C23038  10.049   7.192   1.968  0.8583  0.5080  0.0514
  912MOL0     C23039   9.644   7.443   1.893  0.2480  0.2542 -0.2051
  912MOL0     C23040   9.544   7.482   1.987 -0.7520  0.2907  0.3138
  912MOL0     C23041   9.448   7.581   1.952  0.3022  0.0863  1.0914
  912MOL0     C23042   9.466   7.659   1.847 -0.7778 -0.5028 -0.0884
  912MOL0     O23043   9.389   7.774   1.845  0.0172 -0.1574 -0.1909
  912MOL0     C23044   9.343   7.819   1.720  0.1046 -0.0386  0.5381
  912MOL0     C23045   9.240   7.934   1.727 -1.1081 -0.7951 -0.7406
  912MOL0     C23046   9.201   7.988   1.592 -0.0342  0.1139 -0.0822
  912MOL0     C23047   9.081   8.081   1.618 -0.8539  0.1381  0.3921
  912MOL0     C23048   9.015   8.092   1.489  1.1362  0.3000 -0.6098
  912MOL0     C23049   8.954   8.105   1.385  0.3659 -0.4691  0.4707
  912MOL0     C23050   9.570   7.623   1.755  0.6038  0.2445  1.4563
  912MOL0     C23051   9.659   7.523   1.773  0.2115  0.1380 -0.9292
  912MOL0     C23052   9.764   7.498   1.666 -0.5094  0.5035 -0.3821
  912MOL0     H23053   9.838   7.147   1.702 -0.7336  1.4425  0.8483
  912MOL0     H23054   9.951   6.925   1.711  2.8319 -1.1863 -0.5255
  912MOL0     H23055  10.165   6.873   1.659 -0.7331 -1.3152 -1.3145
  912MOL0     H23056  10.320   6.818   1.718  0.2010 -1.9689 -1.2421
  912MOL0     H23057  10.063   6.656   1.733  0.7851 -4.3297  1.6740
  912MOL0     H23058  10.214   6.591   1.777 -2.2105 -2.7247  0.2068
  912MOL0     H23059  10.179   6.694   1.480  0.2948 -0.9835 -0.8483
  912MOL0     H23060  10.126   6.539   1.531 -1.1138  0.0837 -0.0361
  912MOL0     H23061  10.392   6.646   1.587 -1.2500  2.1091 -0.4997
  912MOL0     H23062  10.334   6.477   1.627 -0.2040 -0.2446  0.8323
  912MOL0     H23063  10.295   6.421   1.380 -0.4174  1.2377 -2.7945
  912MOL0     H23064  10.313   6.576   1.337 -2.7492 -1.0330  0.6727
  912MOL0     H23065  10.563   6.577   1.394  3.5459 -1.7941 -0.7617
  912MOL0     H23066  10.546   6.410   1.440 -1.1292  0.2197  0.6849
  912MOL0     H23067  10.487   6.553   1.177  0.5213  1.0484  0.4081
  912MOL0     H23068  10.459   6.373   1.194 -0.7802  0.1655 -0.3116
  912MOL0     H23069  10.732   6.514   1.224  0.0851 -1.9387  0.9857
  912MOL0     H23070  10.706   6.342   1.221 -0.2501 -1.7123 -0.1940
  912MOL0     H23071  10.528   6.293   0.968  0.2823 -1.0258 -0.9728
  912MOL0     H23072  10.775   6.305   0.663 -0.7765 -0.2352 -2.0747
  912MOL0     H23073  10.669   6.185   0.747  0.8332 -0.0650  0.0092
  912MOL0     H23074  10.470   6.308   0.672 -0.6588  1.9340 -0.4245
  912MOL0     H23075  10.570   6.437   0.614 -2.6235  0.2991 -0.3031
  912MOL0     H23076  10.558   6.164   0.490 -0.7358  0.7715  2.9819
  912MOL0     H23077  10.665   6.286   0.440 -0.1850  2.9766  0.6155
  912MOL0     H23078  10.362   6.301   0.434  0.9028  3.0211  3.2172
  912MOL0     H23079  10.463   6.263   0.299  2.9399  1.2859  0.1805
  912MOL0     H23080  10.346   6.488   0.570 -0.3117  0.6824  0.6635
  912MOL0     H23081  10.120   6.583   0.609  0.2568 -1.2598  0.9184
  912MOL0     H23082   9.742   6.634   0.737  0.5993  1.1440  1.9683
  912MOL0     H23083   9.520   6.741   0.796 -3.3890 -1.1791 -1.6561
  912MOL0     H23084   9.349   7.104   0.607  2.4774 -1.0603 -0.7195
  912MOL0     H23085   9.342   6.974   0.489 -0.8570  0.5428 -0.3604
  912MOL0     H23086   9.185   7.003   0.747  1.5126 -1.7620 -0.3622
  912MOL0     H23087   9.116   7.032   0.591  1.4763  0.2895 -2.5235
  912MOL0     H23088   9.173   6.794   0.535 -0.6509 -0.3510 -0.0397
  912MOL0     H23089   9.201   6.758   0.711  1.2088  0.3545 -0.5034
  912MOL0     H23090   8.948   6.866   0.588  4.1063  0.1367 -2.1583
  912MOL0     H23091   8.990   6.862   0.771  2.5802  0.0507  0.6514
  912MOL0     H23092   9.007   6.614   0.751 -1.6265  0.3868  2.1734
  912MOL0     H23093   8.953   6.624   0.580  1.3974 -1.3784  0.3804
  912MOL0     H23094   8.773   6.704   0.823 -0.2657  3.4115 -1.9921
  912MOL0     H23095   8.743   6.723   0.641  1.8557 -0.2601 -2.1232
  912MOL0     H23096   8.806   6.447   0.743  1.7692  1.4318 -0.5784
  912MOL0     H23097   8.724   6.488   0.592 -1.3806 -1.7111  0.5132
  912MOL0     H23098   8.615   6.466   0.881 -2.8045 -1.8467  0.2116
  912MOL0     H23099   8.523   6.557   0.754  0.4845  0.4446  1.3804
  912MOL0     H23100   9.573   7.048   0.519 -0.3747 -0.4716  1.3733
  912MOL0     H23101   9.793   6.955   0.456  1.0778 -1.0063  0.5459
  912MOL0     H23102  10.127   6.694   0.186  1.1900  0.2191 -0.2517
  912MOL0     H23103  10.332   6.605   0.171 -1.6899 -1.6000 -0.1963
  912MOL0     H23104  10.200   7.047   2.033  0.1464  1.8693  1.2863
  912MOL0     H23105  10.066   7.269   2.043 -2.6317 -0.4125  1.9894
  912MOL0     H23106   9.530   7.435   2.084  1.9476 -2.7001 -0.6089
  912MOL0     H23107   9.353   7.593   2.003 -1.3921  3.9181 -2.4164
  912MOL0     H23108   9.301   7.746   1.650 -0.7759  1.5919 -0.7048
  912MOL0     H23109   9.430   7.850   1.660 -0.9153  0.1069 -0.9289
  912MOL0     H23110   9.273   8.020   1.786 -1.4770  0.6582 -2.5292
  912MOL0     H23111   9.145   7.904   1.772 -2.0186 -0.1328 -2.1272
  912MOL0     H23112   9.177   7.904   1.527 -5.1140  0.1087  1.3851
  912MOL0     H23113   9.278   8.057   1.554  0.4421 -0.4564 -0.1635
  912MOL0     H23114   9.010   8.045   1.693 -1.1047  1.6587  0.9095
  912MOL0     H23115   9.113   8.176   1.661 -1.5041  0.4035  0.2922
  912MOL0     H23116   8.914   8.118   1.286  0.7783  4.0035  0.6851
  912MOL0     H23117   9.599   7.684   1.670  0.7256 -0.7280  0.7871
  912MOL0     H23118   9.748   7.549   1.570 -4.6755 -0.4518 -0.3579
  912MOL0     H23119   9.862   7.532   1.701 -1.1016 -2.0891  4.7679
  912MOL0     H23120   9.768   7.392   1.639 -0.4015  0.4738 -0.2495
  913MOL0     O23121  10.939   2.110   3.406 -0.3815  0.1765  0.2131
  913MOL0     C23122  10.854   2.186   3.457  1.6456 -0.3063  0.4235
  913MOL0     O23123  10.853   2.236   3.586  0.4975  0.8375  0.9894
  913MOL0     C23124  10.941   2.192   3.691  0.4790  0.9123 -0.6627
  913MOL0     C23125  10.941   2.278   3.802  0.1239 -0.7870 -0.1147
  913MOL0     C23126  11.034   2.262   3.907  0.3514 -0.0144  0.5783
  913MOL0     C23127  11.121   2.153   3.925  0.1245 -0.2206  0.0485
  913MOL0     O23128  11.181   2.127   4.045 -0.5231 -0.3140  0.0596
  913MOL0     C23129  11.242   1.995   4.080 -0.3784 -0.5922 -0.6427
  913MOL0     C23130  11.275   2.013   4.231 -0.4333  0.8477 -0.0774
  913MOL0     C23131  11.360   1.902   4.289  0.2048 -0.0112  0.6270
  913MOL0     C23132  11.374   1.920   4.445 -0.2890 -0.4036 -0.5614
  913MOL0     C23133  11.398   1.796   4.528 -0.1200  0.2092 -0.2694
  913MOL0     C23134  11.547   1.755   4.513 -0.6397 -0.2229 -0.1737
  913MOL0     C23135  11.581   1.625   4.593 -0.5802  0.0354  0.2358
  913MOL0     C23136  11.725   1.580   4.577  0.1104  0.8505  1.2849
  913MOL0     N23137  11.758   1.465   4.660  0.4187  0.1962 -0.0488
  913MOL0     C23138  11.845   1.479   4.767  0.2160 -0.9628  0.4166
  913MOL0     C23139  11.863   1.353   4.808  0.0682 -0.7374 -0.1147
  913MOL0     C23140  11.962   1.297   4.910  0.3468  0.7271  0.0991
  913MOL0     C23141  11.907   1.215   5.025 -0.1791  0.5013  0.2843
  913MOL0     C23142  11.852   1.313   5.130 -1.7413 -0.3630  0.5811
  913MOL0     C23143  11.805   1.244   5.255  0.2146 -0.0753 -0.8856
  913MOL0     O23144  11.895   1.146   5.288  0.3562  0.7369 -0.6445
  913MOL0     C23145  11.854   1.045   5.372 -0.2889  0.1807 -1.4222
  913MOL0     C23146  11.884   0.911   5.342 -0.0838 -0.4805 -0.1118
  913MOL0     C23147  11.834   0.808   5.430 -0.2039  0.0045 -0.0490
  913MOL0     C23148  11.760   0.829   5.549  1.0390  0.7832 -0.4700
  913MOL0     C23149  11.699   0.717   5.630  0.0505 -0.2540 -0.6908
  913MOL0     O23150  11.768   0.595   5.620 -0.7568 -0.1737 -0.2999
  913MOL0     C23151  11.707   0.487   5.676  0.2473  0.0566 -0.0865
  913MOL0     C23152  11.728   0.466   5.813 -0.5842  0.0071  0.5136
  913MOL0     C23153  11.650   0.376   5.883 -0.2276  0.4295 -0.2049
  913MOL0     C23154  11.560   0.299   5.815  0.8955  0.5000  0.0010
  913MOL0     O23155  11.498   0.191   5.886 -0.0676  0.0383  0.7905
  913MOL0     C23156  11.403   0.098   5.826 -0.8237  0.0429  0.2990
  913MOL0     C23157  11.373  -0.014   5.929  0.3243  0.5231  0.5254
  913MOL0     C23158  11.274   0.042   6.037 -0.2566  0.4098  0.1650
  913MOL0     C23159  11.223  -0.085   6.124 -0.6427 -0.4429 -0.7964
  913MOL0     C23160  11.318  -0.102   6.241  0.2130 -0.2404 -0.6040
  913MOL0     C23161  11.257  -0.185   6.359 -1.1324 -0.4026  0.3355
  913MOL0     C23162  11.206  -0.321   6.299 -0.0457  0.1146 -0.7422
  913MOL0     C23163  11.141  -0.411   6.411  0.8906 -0.0058 -0.6793
  913MOL0    Cl23164  11.273  -0.470   6.521 -0.0966  0.1197 -0.3323
  913MOL0     C23165  11.547   0.309   5.669 -0.5620 -0.4513 -0.2284
  913MOL0     C23166  11.622   0.401   5.601  0.7033 -1.2112  0.4965
  913MOL0     O23167  11.584   0.734   5.681 -0.4661  0.2140  0.2566
  913MOL0     C23168  11.720   0.963   5.572 -0.0560  0.3966  0.9615
  913MOL0     C23169  11.765   1.063   5.481  0.7639  0.3403  0.1374
  913MOL0     N23170  11.777   1.272   4.741  0.3703 -0.7317 -0.1169
  913MOL0     N23171  11.720   1.336   4.647 -0.2470  0.5353 -0.7527
  913MOL0     C23172  11.113   2.064   3.818  0.0856  0.1717  0.5456
  913MOL0     C23173  11.032   2.087   3.706  0.2890  0.2291 -0.0421
  913MOL0     C23174  10.735   2.223   3.365  0.1835 -1.1343 -0.6767
  913MOL0     C23175  10.629   2.301   3.417 -0.0673  0.4050 -0.2330
  913MOL0     C23176  10.525   2.337   3.335  0.2628  0.4561  0.1941
  913MOL0     C23177  10.508   2.285   3.207  0.2312 -0.6734  0.4078
  913MOL0     O23178  10.397   2.306   3.130 -0.0650 -0.0335 -0.0218
  913MOL0     C23179  10.301   2.404   3.170 -0.3080  0.0675  0.4110
  913MOL0     C23180  10.192   2.399   3.059 -0.1732  0.3428 -0.6528
  913MOL0     C23181  10.091   2.298   3.097  0.9978 -0.1284 -0.4924
  913MOL0     C23182   9.966   2.280   3.006 -0.1467 -0.4140 -0.7400
  913MOL0     C23183   9.873   2.386   3.047  0.0356  0.0054  0.9623
  913MOL0     C23184   9.807   2.466   3.097 -0.1484  0.4486 -0.7963
  913MOL0     C23185  10.611   2.215   3.152  0.1055 -0.4593  0.5839
  913MOL0     C23186  10.725   2.179   3.230 -0.4329  0.4513 -0.1735
  913MOL0     C23187  10.828   2.091   3.151  0.0432  0.0764  0.0400
  913MOL0     H23188  10.870   2.358   3.787 -0.9369 -2.0023 -1.9185
  913MOL0     H23189  11.045   2.343   3.978 -1.2777  0.5862  0.1867
  913MOL0     H23190  11.167   1.916   4.078 -1.3829  0.2017  1.6644
  913MOL0     H23191  11.329   1.970   4.018 -0.2176 -0.4745 -0.4676
  913MOL0     H23192  11.180   2.031   4.283  0.7368  2.8004  1.5090
  913MOL0     H23193  11.323   2.111   4.234 -3.5174  2.6068 -1.8502
  913MOL0     H23194  11.453   1.888   4.233 -0.2525 -0.2754 -0.0813
  913MOL0     H23195  11.298   1.813   4.275  0.7366 -0.4126  0.7921
  913MOL0     H23196  11.437   2.005   4.472 -2.7868  1.9388 -1.6755
  913MOL0     H23197  11.277   1.944   4.489  0.3150  0.6788  0.2222
  913MOL0     H23198  11.382   1.813   4.635 -0.9536 -1.4855 -0.0880
  913MOL0     H23199  11.339   1.708   4.504  1.4593 -1.6573  2.1372
  913MOL0     H23200  11.558   1.734   4.406 -0.8335 -2.1732  0.1516
  913MOL0     H23201  11.603   1.838   4.557 -1.5570  0.9788 -1.1877
  913MOL0     H23202  11.518   1.544   4.554  1.4060 -1.1215 -0.7381
  913MOL0     H23203  11.583   1.633   4.702  0.9653 -3.0055  0.5493
  913MOL0     H23204  11.752   1.557   4.473  2.0354 -2.9031  2.4417
  913MOL0     H23205  11.775   1.676   4.592 -1.2636  2.4154 -2.7008
  913MOL0     H23206  11.876   1.578   4.800  1.1565 -1.0742 -0.0902
  913MOL0     H23207  12.031   1.237   4.850 -1.2286 -2.0867  0.8972
  913MOL0     H23208  12.019   1.381   4.951  3.1739  0.3483 -2.6791
  913MOL0     H23209  11.820   1.154   4.999 -1.2365  1.7639  0.7375
  913MOL0     H23210  11.988   1.151   5.061 -0.7842  0.1347  1.0010
  913MOL0     H23211  11.772   1.385   5.109 -4.0037 -1.9546  3.0652
  913MOL0     H23212  11.945   1.364   5.158 -2.0065  1.3321 -1.3848
  913MOL0     H23213  11.706   1.198   5.245 -1.2324  2.6358  0.0172
  913MOL0     H23214  11.807   1.321   5.333  0.4229  0.4608 -1.4163
  913MOL0     H23215  11.936   0.884   5.250 -0.5245  1.2817 -0.9137
  913MOL0     H23216  11.857   0.704   5.407  1.7077  0.8284 -2.3105
  913MOL0     H23217  11.812   0.516   5.862  1.1642 -1.0317 -1.2575
  913MOL0     H23218  11.673   0.363   5.988  0.3247  1.6975 -0.1598
  913MOL0     H23219  11.320   0.165   5.803 -1.0050  0.0587  0.9541
  913MOL0     H23220  11.440   0.057   5.732  1.0047  3.3863 -0.6163
  913MOL0     H23221  11.320  -0.091   5.873  2.2604  0.3872 -1.2592
  913MOL0     H23222  11.470  -0.055   5.958  0.9944  0.1041 -2.0795
  913MOL0     H23223  11.337   0.114   6.091  0.6606 -0.0364 -0.2767
  913MOL0     H23224  11.191   0.103   6.001 -0.5141  0.7311  1.2382
  913MOL0     H23225  11.216  -0.181   6.070 -3.1704 -2.5371  2.8285
  913MOL0     H23226  11.123  -0.058   6.160 -0.7493 -1.7776  0.0083
  913MOL0     H23227  11.358  -0.010   6.285  1.6150  0.4981 -3.1809
  913MOL0     H23228  11.406  -0.161   6.215  0.2655 -1.8323  2.6963
  913MOL0     H23229  11.336  -0.191   6.434  2.9628 -1.5548 -3.6098
  913MOL0     H23230  11.181  -0.122   6.406 -0.3909  1.5427 -0.9313
  913MOL0     H23231  11.286  -0.379   6.254 -1.4466 -0.7192 -2.3080
  913MOL0     H23232  11.130  -0.307   6.221 -0.3033 -1.7585 -0.8770
  913MOL0     H23233  11.069  -0.354   6.469 -0.3754 -1.4344 -0.7844
  913MOL0     H23234  11.090  -0.495   6.362  0.7202  1.5180 -3.2436
  913MOL0     H23235  11.482   0.241   5.615 -0.9940 -1.4701  1.4983
  913MOL0     H23236  11.600   0.421   5.497  0.5019  2.0236  1.0547
  913MOL0     H23237  11.669   0.983   5.666  1.6457 -2.2360  2.5786
  913MOL0     H23238  11.726   1.161   5.507 -0.9302 -0.9637  2.9800
  913MOL0     H23239  11.171   1.972   3.822  0.9389  0.5617 -1.3859
  913MOL0     H23240  11.032   2.010   3.630 -1.1334 -0.4966  0.6559
  913MOL0     H23241  10.636   2.329   3.522 -0.2257 -2.4217  0.5961
  913MOL0     H23242  10.452   2.395   3.390 -0.7654 -0.4910 -0.1319
  913MOL0     H23243  10.353   2.497   3.191  1.9207 -1.1001  0.3563
  913MOL0     H23244  10.251   2.389   3.266 -0.2198  0.8607  0.5870
  913MOL0     H23245  10.241   2.378   2.963  2.0287 -0.1554  0.4983
  913MOL0     H23246  10.160   2.503   3.050 -1.2871 -0.0928 -2.2932
  913MOL0     H23247  10.058   2.325   3.198 -1.0040  3.4170 -1.9088
  913MOL0     H23248  10.134   2.198   3.089 -0.7039 -0.8567 -0.8984
  913MOL0     H23249   9.993   2.295   2.901 -0.2135 -0.2728 -0.7360
  913MOL0     H23250   9.918   2.182   3.014  0.9825 -1.1462 -2.3219
  913MOL0     H23251   9.758   2.527   3.171 -1.8195  0.3233 -1.7427
  913MOL0     H23252  10.602   2.194   3.046 -1.3263  2.7527 -0.0397
  913MOL0     H23253  10.847   2.002   3.212 -2.2092 -0.0182  0.6984
  913MOL0     H23254  10.778   2.066   3.057  0.1681 -0.5043  0.1243
  913MOL0     H23255  10.915   2.148   3.118  0.1393  0.6987  1.3129
  914MOL0     O23256   6.030  10.717   3.106 -1.1371  0.1112 -0.2838
  914MOL0     C23257   5.910  10.707   3.088  0.0696  0.4301  0.2545
  914MOL0     O23258   5.840  10.758   2.981 -0.3048 -0.3484  0.4830
  914MOL0     C23259   5.905  10.749   2.860  0.1937  0.0274  0.2653
  914MOL0     C23260   5.849  10.836   2.757 -0.7570 -0.3147 -0.4124
  914MOL0     C23261   5.889  10.829   2.624 -0.1253  0.1486 -0.2516
  914MOL0     C23262   5.987  10.740   2.580 -0.1114  0.1360  0.1410
  914MOL0     O23263   6.042  10.729   2.453  0.4396  0.4186 -0.1609
  914MOL0     C23264   6.003  10.832   2.370 -0.7791 -0.8743 -0.2880
  914MOL0     C23265   6.050  10.822   2.223  0.1998 -0.1830 -0.7269
  914MOL0     C23266   6.013  10.932   2.122  0.4671  0.2621 -0.2230
  914MOL0     C23267   5.871  10.914   2.055  0.3510  0.0956  0.3199
  914MOL0     C23268   5.858  11.012   1.939  0.2071  0.1457  0.7339
  914MOL0     C23269   5.722  11.002   1.869  0.0690 -0.0058 -0.4284
  914MOL0     C23270   5.722  11.073   1.736 -0.5109  0.1052  0.1111
  914MOL0     C23271   5.583  11.122   1.697 -1.0510  0.2318  0.5075
  914MOL0     N23272   5.474  11.030   1.699  0.2820 -0.2139 -1.1603
  914MOL0     C23273   5.450  10.927   1.611 -0.1742 -0.3339 -0.7102
  914MOL0     C23274   5.385  10.832   1.669  0.0783  0.0654 -0.2895
  914MOL0     C23275   5.321  10.706   1.619 -1.2070 -0.2414  0.8988
  914MOL0     C23276   5.207  10.754   1.533 -0.1135 -0.2428  0.2179
  914MOL0     C23277   5.081  10.819   1.593 -0.4761 -0.5307 -0.7312
  914MOL0     C23278   5.034  10.766   1.740  0.4866 -0.0517  0.7716
  914MOL0     O23279   4.988  10.630   1.719 -0.2356 -0.6223 -0.1050
  914MOL0     C23280   4.938  10.559   1.821  1.0506 -0.0108  0.9208
  914MOL0     C23281   4.916  10.416   1.804 -0.3272  0.1446 -0.4019
  914MOL0     C23282   4.854  10.344   1.908 -0.8891  0.1384 -0.0240
  914MOL0     C23283   4.812  10.410   2.021 -0.4161 -0.2549  0.1968
  914MOL0     C23284   4.743  10.342   2.136 -0.5938  0.5079 -0.3134
  914MOL0     O23285   4.668  10.410   2.225  1.0074 -0.4216 -0.3609
  914MOL0     C23286   4.554  10.353   2.277  0.3331 -0.9993  0.1518
  914MOL0     C23287   4.511  10.396   2.410  0.2788  1.2148 -0.1067
  914MOL0     C23288   4.392  10.343   2.470 -0.7816  0.2796  0.6785
  914MOL0     C23289   4.326  10.233   2.412 -0.6845 -0.0972 -0.7990
  914MOL0     O23290   4.233  10.159   2.478  0.4420 -0.1446  0.3362
  914MOL0     C23291   4.115  10.152   2.402 -1.0174 -0.2337  0.8864
  914MOL0     C23292   4.043  10.288   2.366  0.1434 -0.1632 -0.0081
  914MOL0     C23293   3.905  10.268   2.303  0.8780  0.1290  0.7826
  914MOL0     C23294   3.802  10.198   2.387 -0.2345  0.1553  0.0011
  914MOL0     C23295   3.664  10.220   2.320 -0.2086 -0.0175 -0.2352
  914MOL0     C23296   3.557  10.154   2.407  0.8658 -1.0109  0.4881
  914MOL0     C23297   3.425  10.184   2.343  0.0260  0.4492  0.3050
  914MOL0     C23298   3.293  10.134   2.406  0.2066  0.4258 -1.4270
  914MOL0    Cl23299   3.256   9.963   2.404 -0.2256 -0.0797  0.2249
  914MOL0     C23300   4.378  10.193   2.285  0.6930 -0.3402 -0.1058
  914MOL0     C23301   4.476  10.248   2.214  0.2922  0.8135  0.0036
  914MOL0     O23302   4.752  10.223   2.131 -0.5912  0.3592 -0.0437
  914MOL0     C23303   4.837  10.544   2.039  0.6472 -0.0043 -0.5939
  914MOL0     C23304   4.900  10.613   1.944  0.9119 -0.4219  0.1169
  914MOL0     N23305   5.372  10.870   1.805  1.1725 -0.8568  0.3646
  914MOL0     N23306   5.406  10.996   1.820 -0.3568  0.2155 -0.2414
  914MOL0     C23307   6.046  10.662   2.677 -1.3867 -0.1318  0.5170
  914MOL0     C23308   6.009  10.662   2.811  0.0636  1.0686 -0.0157
  914MOL0     C23309   5.835  10.649   3.199  0.3895 -0.6333  0.6180
  914MOL0     C23310   5.872  10.657   3.331 -0.4655  0.5399 -0.0500
  914MOL0     C23311   5.792  10.605   3.435  0.4116 -0.0593  0.1353
  914MOL0     C23312   5.678  10.540   3.409  0.5482  0.1507 -0.0122
  914MOL0     O23313   5.598  10.484   3.512 -1.2746  1.0169 -0.2360
  914MOL0     C23314   5.613  10.345   3.533  0.6042  0.4537 -0.3421
  914MOL0     C23315   5.637  10.323   3.681  0.4909  0.9019 -0.9955
  914MOL0     C23316   5.502  10.342   3.766 -0.2809 -0.1427 -0.5774
  914MOL0     C23317   5.500  10.308   3.917  0.4722 -0.4166 -0.6648
  914MOL0     C23318   5.502  10.166   3.946  0.5380 -0.4294  0.1374
  914MOL0     C23319   5.520  10.049   3.976 -0.2067  0.1739 -0.2038
  914MOL0     C23320   5.637  10.517   3.281 -0.4785 -0.1704  0.6779
  914MOL0     C23321   5.710  10.576   3.169 -0.2973  0.6357  0.7367
  914MOL0     C23322   5.645  10.557   3.031 -0.1994  0.0934  0.2726
  914MOL0     H23323   5.777  10.901   2.805 -3.4184 -3.6114  0.4725
  914MOL0     H23324   5.839  10.900   2.559 -4.4410 -2.3003  0.0355
  914MOL0     H23325   5.894  10.839   2.369 -0.9313 -2.1172  1.7389
  914MOL0     H23326   6.046  10.921   2.417  2.7871 -3.5583  2.0985
  914MOL0     H23327   6.018  10.725   2.185 -1.5291  0.5322 -1.1555
  914MOL0     H23328   6.159  10.822   2.214  0.3539 -0.6487  0.9291
  914MOL0     H23329   6.089  10.927   2.044  0.0151  2.4390 -0.8703
  914MOL0     H23330   6.018  11.029   2.174  2.4236  1.7926 -3.0123
  914MOL0     H23331   5.857  10.812   2.019  0.6708 -1.2392  3.6202
  914MOL0     H23332   5.795  10.934   2.131  1.7175  3.0478  1.0383
  914MOL0     H23333   5.870  11.115   1.974  0.6824  0.0033  0.9944
  914MOL0     H23334   5.934  10.982   1.867 -0.6509 -1.8740  0.6139
  914MOL0     H23335   5.705  10.896   1.852  0.8632  0.1007 -2.1227
  914MOL0     H23336   5.653  11.044   1.942  1.8528  0.8175  0.8788
  914MOL0     H23337   5.746  11.001   1.658  1.5085 -2.2064  2.6756
  914MOL0     H23338   5.796  11.154   1.729 -1.2570  0.6269 -2.8499
  914MOL0     H23339   5.550  11.209   1.754  1.1609  0.0454  2.1972
  914MOL0     H23340   5.594  11.149   1.591 -0.0452  0.0408  0.5515
  914MOL0     H23341   5.483  10.926   1.508  0.0921  1.8644 -0.6928
  914MOL0     H23342   5.394  10.640   1.571  0.9603  1.5963  1.5109
  914MOL0     H23343   5.293  10.648   1.708  1.3845 -0.7296  1.4771
  914MOL0     H23344   5.253  10.810   1.451  0.1205 -0.2614  0.3355
  914MOL0     H23345   5.172  10.659   1.493  0.6963 -1.6734  2.6757
  914MOL0     H23346   5.000  10.794   1.524  0.2959 -1.8232 -1.1981
  914MOL0     H23347   5.080  10.926   1.616 -4.6059 -0.4990 -0.3909
  914MOL0     H23348   4.950  10.829   1.771 -0.5731 -0.1478 -1.6371
  914MOL0     H23349   5.100  10.769   1.826  1.9026  1.6510 -0.2916
  914MOL0     H23350   4.935  10.367   1.709 -1.9206  1.0223 -1.2260
  914MOL0     H23351   4.835  10.237   1.897  1.3902 -0.4799  1.3561
  914MOL0     H23352   4.570  10.468   2.466 -2.0995  3.6393 -0.4856
  914MOL0     H23353   4.367  10.398   2.559 -0.6710  0.1218  0.8080
  914MOL0     H23354   4.134  10.087   2.316 -0.1965  0.6568  0.3708
  914MOL0     H23355   4.050  10.087   2.461  1.0402 -2.3742  0.9306
  914MOL0     H23356   4.041  10.349   2.457 -0.4966  0.4183 -0.4021
  914MOL0     H23357   4.102  10.343   2.293 -0.6833 -0.2437 -0.7585
  914MOL0     H23358   3.875  10.368   2.268  2.4802  0.1346 -0.7094
  914MOL0     H23359   3.920  10.204   2.216 -1.6940  0.9729 -0.3693
  914MOL0     H23360   3.807  10.228   2.492  0.3388  0.9398 -0.2417
  914MOL0     H23361   3.830  10.092   2.385 -0.1154  0.1487  1.4394
  914MOL0     H23362   3.654  10.186   2.217  0.0454 -1.2115  0.1228
  914MOL0     H23363   3.642  10.327   2.317 -0.7945 -0.1256  0.0993
  914MOL0     H23364   3.569  10.045   2.407  2.1672 -0.8864  0.4246
  914MOL0     H23365   3.542  10.191   2.509 -0.0700  1.5937 -0.5155
  914MOL0     H23366   3.427  10.147   2.240 -1.1472 -0.3123  0.5319
  914MOL0     H23367   3.419  10.293   2.337 -2.0145  0.4571  1.3134
  914MOL0     H23368   3.287  10.171   2.508  1.1644 -2.5287 -0.1838
  914MOL0     H23369   3.209  10.180   2.353 -0.1556 -0.4582 -1.6471
  914MOL0     H23370   4.343  10.112   2.222  2.6793 -1.0466 -0.3845
  914MOL0     H23371   4.505  10.206   2.118  0.2881  0.6927  0.0543
  914MOL0     H23372   4.799  10.591   2.129 -1.1839 -1.0247 -0.7906
  914MOL0     H23373   4.912  10.720   1.963  0.8217 -0.1875 -1.1109
  914MOL0     H23374   6.127  10.597   2.647 -0.9897  1.1015 -1.2226
  914MOL0     H23375   6.056  10.594   2.882 -0.7126  1.8676  1.3073
  914MOL0     H23376   5.967  10.704   3.353 -1.1571  0.8864  2.4992
  914MOL0     H23377   5.823  10.619   3.538 -0.9453 -1.8574  0.8314
  914MOL0     H23378   5.698  10.308   3.475  4.4194  3.2831  2.8954
  914MOL0     H23379   5.516  10.298   3.511  1.8302 -3.3634  1.4844
  914MOL0     H23380   5.711  10.395   3.718  2.3459 -0.4112 -1.9745
  914MOL0     H23381   5.669  10.220   3.697 -2.0740  0.2167  0.3085
  914MOL0     H23382   5.424  10.272   3.735 -1.0424 -0.1880  1.2835
  914MOL0     H23383   5.477  10.447   3.747  0.1697 -0.0416 -0.6234
  914MOL0     H23384   5.580  10.367   3.964 -1.5865  1.7787  0.2681
  914MOL0     H23385   5.414  10.352   3.968 -0.7336 -1.7718 -1.4606
  914MOL0     H23386   5.521   9.945   4.000  3.1942  0.2929  0.5797
  914MOL0     H23387   5.540  10.473   3.263  0.0324 -1.5591  1.1697
  914MOL0     H23388   5.605  10.654   3.000 -1.6171 -0.8968 -1.1492
  914MOL0     H23389   5.726  10.530   2.962  0.9354  1.2758  1.0829
  914MOL0     H23390   5.566  10.482   3.024  1.1587 -1.2963 -0.7262
  915MOL0     O23391   1.996   6.955   4.800  0.3704 -0.3525 -0.4509
  915MOL0     C23392   1.905   7.033   4.762 -0.1563  0.9799  0.6901
  915MOL0     O23393   1.869   7.059   4.630  0.4163  0.0023  0.3610
  915MOL0     C23394   1.924   6.986   4.538 -0.3447  0.4844  1.3033
  915MOL0     C23395   1.853   6.881   4.493  0.0078  0.0487 -0.0761
  915MOL0     C23396   1.906   6.801   4.384 -0.7690  0.0164  0.7835
  915MOL0     C23397   2.051   6.815   4.345  1.1855 -0.9031  0.0467
  915MOL0     O23398   2.097   6.727   4.250  0.1937  0.3286 -0.6752
  915MOL0     C23399   2.235   6.731   4.207 -0.4206 -0.2640 -0.6138
  915MOL0     C23400   2.252   6.635   4.093  0.0660  0.1030  0.5137
  915MOL0     C23401   2.184   6.494   4.128 -0.9132  0.6821 -0.4790
  915MOL0     C23402   2.249   6.375   4.038  0.2794  0.2189  0.1461
  915MOL0     C23403   2.165   6.247   4.056 -0.5078 -0.0710  0.2723
  915MOL0     C23404   2.206   6.176   4.190  0.6387  0.8985  0.2080
  915MOL0     C23405   2.126   6.040   4.180 -1.0049 -0.5636  0.1623
  915MOL0     C23406   2.200   5.954   4.288 -0.2054 -0.1611 -0.3946
  915MOL0     N23407   2.129   5.826   4.318 -0.0300 -0.3555 -0.3905
  915MOL0     C23408   2.101   5.744   4.208  0.2543  0.6572  0.1099
  915MOL0     C23409   2.089   5.624   4.275  0.4248 -0.6088  0.2450
  915MOL0     C23410   2.056   5.499   4.204  0.1152  0.3463  0.6626
  915MOL0     C23411   1.916   5.452   4.237 -0.5748  0.3747 -0.9943
  915MOL0     C23412   1.796   5.535   4.180 -0.3313  0.3994 -0.2671
  915MOL0     C23413   1.788   5.546   4.031  0.6189  0.1012  0.2912
  915MOL0     O23414   1.645   5.557   4.003  0.0709 -0.1648 -0.3510
  915MOL0     C23415   1.600   5.623   3.889 -0.2501 -0.7051 -0.2582
  915MOL0     C23416   1.671   5.651   3.781 -0.4689  0.5760 -0.9238
  915MOL0     C23417   1.623   5.730   3.681 -0.4169 -0.0639 -0.1890
  915MOL0     C23418   1.491   5.781   3.683 -1.3280  1.4124  0.3403
  915MOL0     C23419   1.426   5.840   3.566  0.2307 -0.0320  1.2027
  915MOL0     O23420   1.300   5.806   3.544  0.2729  0.6228 -0.0743
  915MOL0     C23421   1.237   5.864   3.432 -0.3978 -0.6152 -0.6091
  915MOL0     C23422   1.153   5.780   3.362 -0.3573  0.2453 -0.0963
  915MOL0     C23423   1.083   5.811   3.253  0.0853  1.2197  0.5101
  915MOL0     C23424   1.076   5.948   3.216  0.4137  0.5527  0.5948
  915MOL0     O23425   0.982   6.008   3.140  0.3549 -0.1861  1.2850
  915MOL0     C23426   0.897   5.930   3.058  0.1109 -0.2837 -0.5027
  915MOL0     C23427   0.828   6.029   2.963  0.7187  0.7169  0.0344
  915MOL0     C23428   0.770   5.958   2.834  1.1259  0.4569 -0.4995
  915MOL0     C23429   0.639   5.880   2.861 -0.1607 -0.7551 -1.1693
  915MOL0     C23430   0.569   5.828   2.736 -0.3270 -0.4949  0.0512
  915MOL0     C23431   0.419   5.832   2.732 -0.2882  0.0666  0.4682
  915MOL0     C23432   0.364   5.759   2.858 -0.1830 -0.5105  0.5341
  915MOL0     C23433   0.214   5.793   2.866  0.3488 -0.0183 -1.3860
  915MOL0    Cl23434   0.151   5.718   3.007  0.1570  0.0190  0.2238
  915MOL0     C23435   1.161   6.039   3.281  0.3839 -0.5298  0.3727
  915MOL0     C23436   1.238   5.993   3.391  1.1940  0.2462 -0.2751
  915MOL0     O23437   1.503   5.887   3.485  0.3649  0.0062  0.0267
  915MOL0     C23438   1.431   5.767   3.809  0.2039 -0.5871  0.2203
  915MOL0     C23439   1.476   5.684   3.906 -0.0696  0.5121 -0.3251
  915MOL0     N23440   2.099   5.639   4.410  0.1141  0.3346  0.1238
  915MOL0     N23441   2.118   5.762   4.436  0.6973  0.9383  0.5074
  915MOL0     C23442   2.118   6.920   4.409  0.3254 -0.0971 -0.4362
  915MOL0     C23443   2.058   7.013   4.500  0.4750 -0.4830  0.0437
  915MOL0     C23444   1.815   7.107   4.857  0.1810 -0.0347  0.1935
  915MOL0     C23445   1.725   7.200   4.804  0.0521  0.2035  0.3891
  915MOL0     C23446   1.648   7.278   4.889  0.5912 -1.8204 -0.5151
  915MOL0     C23447   1.652   7.264   5.029  0.2539  0.1373  0.1841
  915MOL0     O23448   1.585   7.341   5.120 -0.3774  0.2334 -0.1145
  915MOL0     C23449   1.509   7.458   5.073  0.5007  0.0889 -0.8536
  915MOL0     C23450   1.388   7.487   5.160 -0.3945  0.0690  0.4359
  915MOL0     C23451   1.262   7.407   5.111 -0.0533 -0.0197 -0.6721
  915MOL0     C23452   1.138   7.434   5.194 -0.7267  0.1439 -0.5667
  915MOL0     C23453   1.090   7.560   5.140 -0.4789 -1.2075 -0.6574
  915MOL0     C23454   1.044   7.665   5.097 -0.4279  0.0267  0.2273
  915MOL0     C23455   1.719   7.154   5.074  0.2470  0.1135 -0.0364
  915MOL0     C23456   1.805   7.067   5.001  0.1671 -0.7233  1.4181
  915MOL0     C23457   1.875   6.952   5.061 -0.8808 -0.6531  0.1479
  915MOL0     H23458   1.751   6.858   4.524  0.9915 -3.5635  0.9173
  915MOL0     H23459   1.847   6.720   4.342  0.2741 -0.3584  0.0077
  915MOL0     H23460   2.248   6.833   4.171 -0.9039  1.2251  2.9564
  915MOL0     H23461   2.305   6.719   4.291  1.3894  0.9026 -1.8759
  915MOL0     H23462   2.360   6.621   4.082 -0.1815 -1.9941  0.3512
  915MOL0     H23463   2.222   6.688   4.003  1.4515 -0.7832 -0.5250
  915MOL0     H23464   2.080   6.496   4.093 -0.8767 -0.1306 -0.6737
  915MOL0     H23465   2.180   6.466   4.234 -1.6872 -0.5033 -0.7853
  915MOL0     H23466   2.252   6.408   3.934  0.9048  0.6724  0.3042
  915MOL0     H23467   2.354   6.361   4.067  0.2657  1.1695  0.6710
  915MOL0     H23468   2.059   6.274   4.047 -0.6013  0.4231  2.3039
  915MOL0     H23469   2.180   6.180   3.971  0.5414 -0.1692  0.5234
  915MOL0     H23470   2.315   6.168   4.193  0.4848 -1.8703  1.2878
  915MOL0     H23471   2.175   6.228   4.281 -2.2395 -0.7843  0.3062
  915MOL0     H23472   2.139   6.001   4.078  0.0460  1.0393 -0.3569
  915MOL0     H23473   2.017   6.044   4.189 -0.9390 -0.7849  1.1613
  915MOL0     H23474   2.300   5.931   4.251  0.1790  0.8993 -0.0742
  915MOL0     H23475   2.220   6.008   4.381 -0.1679  2.3433 -1.7517
  915MOL0     H23476   2.082   5.763   4.103 -0.0515  0.8701  0.2035
  915MOL0     H23477   2.063   5.518   4.096  0.2688  0.6739  0.7313
  915MOL0     H23478   2.121   5.417   4.238 -0.1461 -0.0234  0.2920
  915MOL0     H23479   1.914   5.353   4.189  0.5143 -0.3826  0.4291
  915MOL0     H23480   1.901   5.444   4.345  2.1125 -1.1568 -0.6332
  915MOL0     H23481   1.809   5.637   4.215  2.7371  2.2562 -5.5546
  915MOL0     H23482   1.704   5.485   4.211  0.5200 -0.7414  0.4885
  915MOL0     H23483   1.840   5.464   3.981 -0.8674  0.2093 -1.5586
  915MOL0     H23484   1.840   5.638   4.001  0.4760  1.1099  2.9229
  915MOL0     H23485   1.765   5.598   3.773 -0.1340  0.6280  1.7410
  915MOL0     H23486   1.683   5.738   3.592 -0.7068  0.8505 -0.3055
  915MOL0     H23487   1.149   5.679   3.401  1.4892 -0.0032 -0.4471
  915MOL0     H23488   1.027   5.735   3.199  3.8855 -0.9481 -0.7920
  915MOL0     H23489   0.960   5.855   3.008 -0.1927 -1.7564  1.2234
  915MOL0     H23490   0.821   5.876   3.115 -2.0632 -0.1079 -3.0027
  915MOL0     H23491   0.751   6.081   3.020  1.6111  2.6368 -0.4415
  915MOL0     H23492   0.908   6.096   2.931  0.1468  0.3581 -2.3315
  915MOL0     H23493   0.749   6.032   2.756  2.1041 -0.2530 -1.4743
  915MOL0     H23494   0.837   5.880   2.797 -2.5609 -2.8677 -0.8960
  915MOL0     H23495   0.577   5.949   2.919  1.1977 -1.8112  1.7246
  915MOL0     H23496   0.665   5.799   2.929 -2.5059  0.1530  1.0016
  915MOL0     H23497   0.600   5.723   2.730  1.0257 -0.1731  1.0123
  915MOL0     H23498   0.609   5.884   2.650 -1.6367  1.8425  0.8603
  915MOL0     H23499   0.394   5.939   2.731  1.1285  0.4115  0.5247
  915MOL0     H23500   0.390   5.778   2.642  3.2362 -0.5288 -0.4376
  915MOL0     H23501   0.426   5.777   2.946  1.5448 -0.9019 -0.5388
  915MOL0     H23502   0.383   5.654   2.833 -0.9637 -0.2305 -1.4790
  915MOL0     H23503   0.210   5.902   2.869  0.5634 -0.0371  0.8304
  915MOL0     H23504   0.174   5.759   2.770  4.6191  1.2733 -3.8891
  915MOL0     H23505   1.135   6.141   3.259  0.3162 -0.7496 -0.6081
  915MOL0     H23506   1.302   6.063   3.444 -1.3277  1.7007  1.0891
  915MOL0     H23507   1.334   5.811   3.832 -0.1957 -0.9490 -0.7286
  915MOL0     H23508   1.429   5.676   4.004 -0.5140  0.7377 -0.5177
  915MOL0     H23509   2.221   6.925   4.377  0.5039 -1.7370 -0.2295
  915MOL0     H23510   2.114   7.102   4.526  0.2815 -0.3757  0.0969
  915MOL0     H23511   1.705   7.228   4.701  2.1035 -3.5719 -1.2279
  915MOL0     H23512   1.588   7.356   4.843  0.3187 -2.3202 -1.0162
  915MOL0     H23513   1.474   7.444   4.971 -0.3042 -1.2291 -0.4199
  915MOL0     H23514   1.578   7.542   5.082 -1.3225  1.4026  3.2288
  915MOL0     H23515   1.369   7.595   5.155 -1.7058 -0.2214 -1.3759
  915MOL0     H23516   1.410   7.465   5.265 -1.9078  1.8829  1.1959
  915MOL0     H23517   1.283   7.300   5.111 -1.2361 -0.2788  0.7881
  915MOL0     H23518   1.252   7.430   5.005  0.8015  1.3547 -0.4877
  915MOL0     H23519   1.059   7.360   5.182 -2.3756  1.1686  2.7443
  915MOL0     H23520   1.170   7.428   5.299  2.0781 -4.5905 -1.4060
  915MOL0     H23521   0.996   7.758   5.071 -0.0166 -0.4223 -2.3927
  915MOL0     H23522   1.712   7.125   5.178 -1.5797  0.3703 -0.0511
  915MOL0     H23523   1.975   6.977   5.097  0.7571 -3.1800 -2.2893
  915MOL0     H23524   1.818   6.907   5.143 -1.0979 -2.1596 -0.8055
  915MOL0     H23525   1.892   6.876   4.985  2.8601  0.1186  0.0021
  916MOL0     O23526   9.700   6.047   4.053  0.0704 -0.0180 -1.0843
  916MOL0     C23527   9.581   6.064   4.078 -0.1489 -0.4189  0.5446
  916MOL0     O23528   9.504   5.973   4.147 -0.8450  0.2897 -1.5228
  916MOL0     C23529   9.559   5.855   4.203 -0.6422 -0.3932  0.1001
  916MOL0     C23530   9.659   5.850   4.307 -0.3417 -0.0962 -0.2787
  916MOL0     C23531   9.687   5.730   4.377 -0.1862 -0.6913  0.6093
  916MOL0     C23532   9.634   5.614   4.331  0.5624  0.6308 -0.3521
  916MOL0     O23533   9.685   5.490   4.366  1.6490 -0.3369 -0.0166
  916MOL0     C23534   9.639   5.428   4.489 -0.6194  0.3158  0.6161
  916MOL0     C23535   9.689   5.496   4.617  0.4238  0.4834 -0.2369
  916MOL0     C23536   9.770   5.401   4.703 -0.2029 -0.8361 -0.5658
  916MOL0     C23537   9.917   5.384   4.655  0.5079  0.8411  0.4643
  916MOL0     C23538   9.980   5.265   4.738 -0.1409 -0.8883 -0.6704
  916MOL0     C23539  10.140   5.267   4.754 -0.8930  0.3617 -0.1801
  916MOL0     C23540  10.171   5.154   4.855 -0.3899 -0.5355 -0.0445
  916MOL0     C23541  10.321   5.153   4.884 -0.4224  0.2046 -0.8959
  916MOL0     N23542  10.330   5.080   5.007 -0.6676  0.9289 -0.2643
  916MOL0     C23543  10.284   4.947   5.021 -0.0620 -0.7497  0.5292
  916MOL0     C23544  10.356   4.897   5.128  0.6803 -0.1033 -0.0878
  916MOL0     C23545  10.338   4.767   5.195 -0.2048  0.2506  0.6317
  916MOL0     C23546  10.308   4.652   5.107 -0.2644  0.9123  0.5186
  916MOL0     C23547  10.425   4.605   5.038 -0.0087 -0.0817 -0.4416
  916MOL0     C23548  10.397   4.492   4.933 -0.8575  0.5533 -0.3497
  916MOL0     O23549  10.388   4.366   5.011 -0.3441  0.0032  0.5168
  916MOL0     C23550  10.504   4.311   5.066 -0.1827 -0.5784  0.3500
  916MOL0     C23551  10.634   4.375   5.059 -0.6262  0.4972 -0.0627
  916MOL0     C23552  10.743   4.303   5.113  0.2789 -0.1816  0.0731
  916MOL0     C23553  10.730   4.176   5.179 -0.5760  0.5838 -0.5925
  916MOL0     C23554  10.835   4.087   5.228  0.1255 -0.6917 -0.0236
  916MOL0     O23555  10.800   3.979   5.308  1.2055 -0.4308  0.5239
  916MOL0     C23556  10.896   3.918   5.376  0.3997  0.0987  0.5726
  916MOL0     C23557  10.903   3.782   5.368 -0.1380  0.5234  0.2379
  916MOL0     C23558  11.015   3.716   5.422  0.4023  0.0862 -0.1147
  916MOL0     C23559  11.111   3.786   5.496 -0.2401 -0.5311 -0.4373
  916MOL0     O23560  11.216   3.728   5.563  0.6127 -0.2696  0.2677
  916MOL0     C23561  11.343   3.788   5.570  0.2586  1.0027  1.0042
  916MOL0     C23562  11.443   3.671   5.615  0.0047  0.5927  0.3231
  916MOL0     C23563  11.582   3.716   5.601 -0.0145 -0.4338 -0.8509
  916MOL0     C23564  11.622   3.729   5.453  0.1177  0.8065 -0.0773
  916MOL0     C23565  11.778   3.714   5.447 -0.7121 -0.2017  0.9620
  916MOL0     C23566  11.837   3.745   5.302 -0.2521  0.1534  0.2308
  916MOL0     C23567  11.794   3.873   5.242  0.1521  0.1966  0.2904
  916MOL0     C23568  11.816   4.002   5.326  0.4346 -0.6629 -0.1027
  916MOL0    Cl23569  11.740   4.144   5.236 -0.1674 -0.3780  0.4936
  916MOL0     C23570  11.084   3.926   5.522 -0.0850  0.0583 -0.7579
  916MOL0     C23571  10.976   3.986   5.461 -0.1790  0.1270 -0.8134
  916MOL0     O23572  10.952   4.124   5.197  0.6074  0.6073  0.4984
  916MOL0     C23573  10.598   4.118   5.171 -0.2521  0.0756 -0.0885
  916MOL0     C23574  10.485   4.184   5.125 -0.2873 -0.7177  0.0447
  916MOL0     N23575  10.433   4.999   5.181 -0.0462  0.2465  0.8408
  916MOL0     N23576  10.423   5.102   5.102 -0.1182 -0.0246 -0.1659
  916MOL0     C23577   9.531   5.615   4.239 -0.9345  0.8012  0.1987
  916MOL0     C23578   9.484   5.736   4.190 -0.7799  0.3506 -0.8119
  916MOL0     C23579   9.499   6.160   3.996  0.1856  0.5604  0.6613
  916MOL0     C23580   9.360   6.140   3.985 -0.3337 -0.4057 -0.1108
  916MOL0     C23581   9.267   6.233   3.940 -0.0459 -0.3837 -0.0346
  916MOL0     C23582   9.323   6.352   3.896  1.1185  0.3504 -0.5903
  916MOL0     O23583   9.256   6.452   3.838  0.1097 -1.2578 -0.0774
  916MOL0     C23584   9.122   6.468   3.880 -1.0653 -0.0581  0.4439
  916MOL0     C23585   9.061   6.593   3.810 -0.0571  0.1096 -0.2953
  916MOL0     C23586   8.987   6.675   3.920 -0.7181 -0.1144 -0.1628
  916MOL0     C23587   9.070   6.752   4.029 -0.3085 -0.0314 -0.4267
  916MOL0     C23588   9.165   6.846   3.962  0.8987 -0.1989 -0.5136
  916MOL0     C23589   9.249   6.922   3.917  0.0838 -0.1036 -0.5359
  916MOL0     C23590   9.460   6.371   3.898  0.0351 -0.7727  0.2941
  916MOL0     C23591   9.548   6.276   3.940  0.1629  1.5713 -0.4342
  916MOL0     C23592   9.691   6.307   3.931 -1.3139  0.3727  0.2420
  916MOL0     H23593   9.721   5.936   4.331  1.0859 -1.1356 -0.0827
  916MOL0     H23594   9.757   5.742   4.459  0.9525  4.4345 -0.7180
  916MOL0     H23595   9.531   5.414   4.494 -0.5680  0.0961  1.2151
  916MOL0     H23596   9.681   5.327   4.491  0.2651  0.6803  1.7134
  916MOL0     H23597   9.604   5.541   4.670 -1.0456 -1.4368 -0.8602
  916MOL0     H23598   9.750   5.581   4.585  1.7660 -1.0249 -1.8132
  916MOL0     H23599   9.725   5.301   4.697  0.5968 -1.1398 -2.2412
  916MOL0     H23600   9.774   5.440   4.805  3.0439 -2.6077  0.1284
  916MOL0     H23601   9.911   5.358   4.550  1.4479 -2.1508  1.0684
  916MOL0     H23602   9.981   5.473   4.662 -0.0829  1.2156  1.4885
  916MOL0     H23603   9.945   5.278   4.841  3.6692 -1.0556  0.7887
  916MOL0     H23604   9.952   5.169   4.693  0.7927 -0.6346 -1.8505
  916MOL0     H23605  10.178   5.228   4.659  0.0930  2.6151 -0.7814
  916MOL0     H23606  10.183   5.364   4.782 -0.5372  0.5358 -1.3086
  916MOL0     H23607  10.148   5.056   4.813 -2.7507 -0.9132  1.8893
  916MOL0     H23608  10.123   5.173   4.952 -1.4547  0.9275 -0.8147
  916MOL0     H23609  10.381   5.113   4.802  0.3483  2.9295 -1.7602
  916MOL0     H23610  10.349   5.257   4.904  1.7555 -0.4915 -0.1314
  916MOL0     H23611  10.205   4.898   4.965  1.1687 -3.3770  0.9347
  916MOL0     H23612  10.423   4.746   5.261 -0.9260 -0.1905  1.4376
  916MOL0     H23613  10.249   4.781   5.257 -0.2490  0.1599  0.5878
  916MOL0     H23614  10.266   4.567   5.161 -0.0180  1.1430  1.0873
  916MOL0     H23615  10.238   4.679   5.027  2.1261 -0.2239 -2.1066
  916MOL0     H23616  10.492   4.566   5.116  0.3388 -1.9299 -1.6083
  916MOL0     H23617  10.473   4.693   4.994  1.1760  1.2866  3.1482
  916MOL0     H23618  10.476   4.500   4.857  1.4033  2.4846  1.9991
  916MOL0     H23619  10.302   4.509   4.882 -2.1626 -3.7846  0.2099
  916MOL0     H23620  10.662   4.461   4.999  0.6606 -0.5301 -0.9973
  916MOL0     H23621  10.841   4.348   5.100  1.7226 -2.4743  2.1701
  916MOL0     H23622  10.826   3.722   5.321  1.0794  0.4173 -1.7364
  916MOL0     H23623  11.017   3.608   5.421  1.6830  0.0627 -2.5808
  916MOL0     H23624  11.366   3.822   5.469  1.8313 -1.0676  0.5961
  916MOL0     H23625  11.348   3.870   5.642 -0.0092  0.7669  1.2970
  916MOL0     H23626  11.433   3.626   5.715  0.7080 -3.0363 -1.0972
  916MOL0     H23627  11.425   3.591   5.543 -3.1423  2.5625 -1.2986
  916MOL0     H23628  11.598   3.809   5.657  0.9915 -1.8090  1.2658
  916MOL0     H23629  11.631   3.634   5.653 -0.8405 -1.9780 -2.3753
  916MOL0     H23630  11.590   3.823   5.408 -1.9642 -0.3938 -1.2450
  916MOL0     H23631  11.585   3.642   5.398  1.2242 -0.4868  1.1418
  916MOL0     H23632  11.811   3.613   5.474  1.8440  0.9890  2.6696
  916MOL0     H23633  11.821   3.789   5.514  0.0139  4.3766 -3.9116
  916MOL0     H23634  11.946   3.747   5.298 -0.2596  0.6986  0.1743
  916MOL0     H23635  11.810   3.662   5.236  3.6982 -0.4376 -0.8627
  916MOL0     H23636  11.688   3.854   5.221  0.5289 -1.8564  0.0712
  916MOL0     H23637  11.840   3.887   5.144  0.9225  0.1728  0.6476
  916MOL0     H23638  11.769   3.990   5.424 -2.5506 -2.1773 -1.5802
  916MOL0     H23639  11.923   4.020   5.338  0.1519  3.7712 -2.2340
  916MOL0     H23640  11.133   3.987   5.597 -1.0850 -0.5725  0.4285
  916MOL0     H23641  10.951   4.088   5.490  0.7248 -0.7103  3.7752
  916MOL0     H23642  10.578   4.015   5.199 -0.6914 -0.6932 -2.9304
  916MOL0     H23643  10.386   4.142   5.136 -1.4019  1.6871 -0.2099
  916MOL0     H23644   9.497   5.528   4.184  1.4439 -0.0635 -0.0120
  916MOL0     H23645   9.402   5.739   4.120 -2.2075  3.3504  0.8089
  916MOL0     H23646   9.313   6.050   4.024 -1.9721  0.5691  0.2494
  916MOL0     H23647   9.159   6.223   3.945 -0.1144 -0.0502 -0.6727
  916MOL0     H23648   9.120   6.488   3.988  3.5945 -0.9318  0.9009
  916MOL0     H23649   9.059   6.381   3.860  0.9854 -1.4008 -0.5017
  916MOL0     H23650   8.998   6.575   3.723 -0.0549  0.5512 -0.3932
  916MOL0     H23651   9.146   6.650   3.772  0.6233 -0.2301  0.6529
  916MOL0     H23652   8.903   6.612   3.948 -0.7337 -2.1734 -4.1820
  916MOL0     H23653   8.938   6.752   3.860 -0.7594 -1.0283 -1.3084
  916MOL0     H23654   8.998   6.806   4.091  0.5263 -1.3595  1.8099
  916MOL0     H23655   9.123   6.680   4.094  0.5816 -0.2902 -1.4086
  916MOL0     H23656   9.332   6.984   3.888  1.1851 -0.5583  1.4030
  916MOL0     H23657   9.499   6.465   3.859 -1.6248 -0.9709 -2.0737
  916MOL0     H23658   9.730   6.296   4.033  1.8933 -0.0060 -0.9300
  916MOL0     H23659   9.741   6.232   3.870 -4.0713  1.2903 -3.5173
  916MOL0     H23660   9.728   6.400   3.888  1.6103 -1.4951 -1.6550
  917MOL0     O23661   3.573   1.139   9.776 -0.8325  0.3054  0.7105
  917MOL0     C23662   3.511   1.103   9.674 -0.9256  0.5955 -0.5237
  917MOL0     O23663   3.565   1.029   9.564  0.2796 -0.0773 -0.5258
  917MOL0     C23664   3.698   1.035   9.531  0.8197  0.9724 -0.6514
  917MOL0     C23665   3.756   0.927   9.475 -0.2979  0.7865  0.0964
  917MOL0     C23666   3.884   0.929   9.418  0.1195 -0.2109  0.2969
  917MOL0     C23667   3.962   1.045   9.418  0.1966  1.1459  0.3010
  917MOL0     O23668   4.085   1.061   9.349 -0.0923 -0.8094 -0.2531
  917MOL0     C23669   4.196   0.989   9.394  0.1502 -0.2241 -0.4352
  917MOL0     C23670   4.253   1.033   9.537  0.5608 -0.1175  0.0364
  917MOL0     C23671   4.343   1.154   9.561  0.6683 -2.0379 -0.9103
  917MOL0     C23672   4.281   1.292   9.509  0.5762  0.1076  0.1273
  917MOL0     C23673   4.395   1.376   9.441  0.8904 -0.5795  0.2001
  917MOL0     C23674   4.362   1.516   9.418 -0.2983 -0.3572  0.3493
  917MOL0     C23675   4.492   1.595   9.389  1.0282  0.3140 -0.1345
  917MOL0     C23676   4.457   1.741   9.341  0.1392  0.4368  0.0574
  917MOL0     N23677   4.581   1.820   9.350 -0.9648  0.5633 -0.7347
  917MOL0     C23678   4.684   1.813   9.266  0.1470  0.3073 -0.3772
  917MOL0     C23679   4.782   1.888   9.319  0.0491  0.4494 -0.3735
  917MOL0     C23680   4.916   1.905   9.249 -0.2511  0.6683 -1.2325
  917MOL0     C23681   4.987   1.765   9.230 -0.2315 -0.1323  0.1602
  917MOL0     C23682   5.122   1.739   9.286  0.0719 -0.4195  0.2541
  917MOL0     C23683   5.143   1.756   9.441  0.1353 -0.3934 -0.2806
  917MOL0     O23684   5.276   1.720   9.472 -0.1234  0.0073  0.2866
  917MOL0     C23685   5.333   1.759   9.594 -0.5361  0.1060  1.0445
  917MOL0     C23686   5.263   1.754   9.711  0.9798 -0.1273  1.2343
  917MOL0     C23687   5.320   1.795   9.833  1.0510  0.6383  0.7268
  917MOL0     C23688   5.446   1.850   9.838  0.1698  0.5280  0.3305
  917MOL0     C23689   5.504   1.890   9.966 -0.2472 -0.0135  0.2976
  917MOL0     O23690   5.423   1.906  10.069  0.3967 -0.4720  0.8227
  917MOL0     C23691   5.451   1.923  10.199  0.0035  0.4847  0.4071
  917MOL0     C23692   5.572   1.884  10.259 -0.1426  0.0730  0.3787
  917MOL0     C23693   5.611   1.911  10.389  0.5868  0.1721 -0.2714
  917MOL0     C23694   5.519   1.994  10.460 -1.1101 -0.4276 -0.2873
  917MOL0     O23695   5.544   2.029  10.598 -0.0486 -0.2974 -0.0285
  917MOL0     C23696   5.674   2.045  10.649 -0.6195  0.8305  0.5585
  917MOL0     C23697   5.748   2.149  10.573 -0.6021  0.2991 -0.6369
  917MOL0     C23698   5.889   2.174  10.631  0.2436  0.0025 -0.2661
  917MOL0     C23699   5.909   2.328  10.634 -0.0461 -0.5134  0.1778
  917MOL0     C23700   5.831   2.401  10.752 -0.3223 -0.0428 -0.7028
  917MOL0     C23701   5.880   2.362  10.893  0.7062  0.0911  0.0563
  917MOL0     C23702   5.773   2.422  10.991 -0.9410 -0.0598  0.2747
  917MOL0     C23703   5.774   2.355  11.138  1.4289  0.7171  1.0255
  917MOL0    Cl23704   5.912   2.394  11.235 -0.0665 -0.2761 -0.1585
  917MOL0     C23705   5.394   2.021  10.407 -0.1708 -0.0549 -0.0386
  917MOL0     C23706   5.363   1.988  10.278 -0.1488 -0.5982 -0.3155
  917MOL0     O23707   5.621   1.916   9.972 -0.0364  0.0862 -0.0322
  917MOL0     C23708   5.520   1.866   9.718  0.4898  0.0101  0.5824
  917MOL0     C23709   5.465   1.811   9.601 -0.2174 -0.0891 -0.2020
  917MOL0     N23710   4.727   1.946   9.434  0.3980  0.1489 -0.0337
  917MOL0     N23711   4.607   1.903   9.451 -0.7415 -0.1690 -0.4566
  917MOL0     C23712   3.902   1.151   9.499  0.2012  0.0942  0.1858
  917MOL0     C23713   3.774   1.152   9.553  0.5015  0.3053  0.6333
  917MOL0     C23714   3.356   1.104   9.686  0.2139  0.1738 -0.4530
  917MOL0     C23715   3.287   1.082   9.572 -0.1337 -0.3858  0.5779
  917MOL0     C23716   3.141   1.076   9.565 -0.5585  0.4722 -0.2220
  917MOL0     C23717   3.064   1.073   9.681  0.7089  0.1175 -0.8552
  917MOL0     O23718   2.927   1.044   9.688 -0.3783  0.6937  0.1722
  917MOL0     C23719   2.854   1.014   9.571  0.2022 -0.0896  0.4761
  917MOL0     C23720   2.715   0.957   9.608  0.0202  0.6683 -0.0689
  917MOL0     C23721   2.705   0.818   9.653  0.0575  0.0833 -0.8841
  917MOL0     C23722   2.806   0.723   9.606  0.1118  0.4004 -0.6915
  917MOL0     C23723   2.799   0.685   9.461  0.5972  0.8808 -1.0689
  917MOL0     C23724   2.783   0.650   9.346  0.5991 -0.4036  0.3447
  917MOL0     C23725   3.129   1.102   9.800 -0.1169 -0.2294  0.6117
  917MOL0     C23726   3.272   1.112   9.804 -0.0154 -0.1492  0.3405
  917MOL0     C23727   3.327   1.107   9.946  0.9596  0.2759 -0.8680
  917MOL0     H23728   3.691   0.840   9.469 -0.3828  0.6192  2.3859
  917MOL0     H23729   3.924   0.847   9.360 -2.2501 -0.6992 -0.7636
  917MOL0     H23730   4.178   0.881   9.398  1.6457 -0.4985 -0.2902
  917MOL0     H23731   4.283   1.006   9.330 -1.0402  0.2194 -1.9645
  917MOL0     H23732   4.323   0.953   9.560  2.0979  0.9565 -0.7351
  917MOL0     H23733   4.178   1.029   9.616 -1.1827  1.3120 -1.4504
  917MOL0     H23734   4.431   1.130   9.500 -0.2203 -1.8830 -2.3117
  917MOL0     H23735   4.366   1.153   9.668 -1.2132 -0.4529 -0.4356
  917MOL0     H23736   4.201   1.266   9.440 -0.9217 -0.0165  1.8518
  917MOL0     H23737   4.240   1.351   9.592 -2.9489 -0.0351 -1.3827
  917MOL0     H23738   4.478   1.379   9.513  0.0954 -0.7283  1.1458
  917MOL0     H23739   4.427   1.333   9.346  1.5022  2.2768 -0.9702
  917MOL0     H23740   4.307   1.536   9.325 -0.7739 -2.8848 -0.0010
  917MOL0     H23741   4.300   1.553   9.500 -3.1176 -3.0145 -0.3685
  917MOL0     H23742   4.552   1.545   9.313  1.3671 -2.0284  1.5663
  917MOL0     H23743   4.556   1.595   9.478  0.9889 -3.5527  0.0361
  917MOL0     H23744   4.405   1.747   9.245 -2.6706 -0.8979  1.3641
  917MOL0     H23745   4.390   1.786   9.416 -0.5434 -0.0384 -0.2554
  917MOL0     H23746   4.691   1.753   9.176 -1.9989  2.1148 -1.8780
  917MOL0     H23747   4.885   1.943   9.151 -2.1256 -0.8527 -1.2751
  917MOL0     H23748   4.987   1.966   9.306 -0.6875  1.0032 -1.0401
  917MOL0     H23749   4.922   1.679   9.248 -3.3415  1.8180 -0.9593
  917MOL0     H23750   4.989   1.773   9.121  0.6857  1.5395  0.2523
  917MOL0     H23751   5.196   1.797   9.232 -0.7686  0.7186  0.2751
  917MOL0     H23752   5.157   1.638   9.264  4.8112  1.2027 -0.8181
  917MOL0     H23753   5.078   1.689   9.499  1.0311  2.3049  4.3374
  917MOL0     H23754   5.119   1.860   9.464 -0.7171 -1.0042  1.9463
  917MOL0     H23755   5.159   1.724   9.711  0.7661  0.3679 -1.5537
  917MOL0     H23756   5.252   1.787   9.917  1.3501  1.4272  1.0568
  917MOL0     H23757   5.647   1.837  10.196 -0.4816  1.9696 -1.5472
  917MOL0     H23758   5.708   1.884  10.431  0.3634 -3.0441 -1.4982
  917MOL0     H23759   5.677   2.063  10.757  2.3947 -1.2799  0.9520
  917MOL0     H23760   5.719   1.946  10.637 -2.6069 -0.0930  0.2572
  917MOL0     H23761   5.740   2.130  10.465  0.7439 -1.8990 -0.3964
  917MOL0     H23762   5.684   2.238  10.573 -1.0502 -0.0152 -0.0110
  917MOL0     H23763   5.907   2.126  10.728  2.0838 -1.8057 -1.4226
  917MOL0     H23764   5.960   2.128  10.562  1.4151 -0.2907  1.0840
  917MOL0     H23765   5.877   2.372  10.539  1.0848 -1.0100 -0.4464
  917MOL0     H23766   6.014   2.352  10.655  0.1551  0.2436 -1.5367
  917MOL0     H23767   5.725   2.377  10.739 -1.0443  2.9212 -0.9925
  917MOL0     H23768   5.838   2.510  10.745 -0.4980  0.0177  0.0821
  917MOL0     H23769   5.887   2.254  10.911  2.4547 -0.2218 -2.1346
  917MOL0     H23770   5.983   2.398  10.904  0.1842  1.6928  0.0305
  917MOL0     H23771   5.668   2.415  10.960 -0.0540 -1.4631 -2.7651
  917MOL0     H23772   5.794   2.528  11.007  1.3463 -0.7231  2.1226
  917MOL0     H23773   5.684   2.387  11.191  1.0008  1.8153 -0.3113
  917MOL0     H23774   5.770   2.246  11.127 -0.4756  0.9852 -2.5357
  917MOL0     H23775   5.318   2.065  10.470  0.5405  2.3903 -0.7664
  917MOL0     H23776   5.274   2.023  10.226 -0.7056  1.5427  1.9048
  917MOL0     H23777   5.624   1.891   9.700  0.9737 -3.8426 -3.6236
  917MOL0     H23778   5.516   1.817   9.505  1.2624 -0.3435  0.5484
  917MOL0     H23779   3.962   1.241   9.501 -0.1255  0.3934  4.1174
  917MOL0     H23780   3.735   1.243   9.597 -2.4707  1.3360 -3.5298
  917MOL0     H23781   3.338   1.079   9.476  1.1192  1.1544  1.1513
  917MOL0     H23782   3.097   1.059   9.468  2.0241  0.6588 -1.5227
  917MOL0     H23783   2.905   0.944   9.504 -1.3988 -1.8030  0.9642
  917MOL0     H23784   2.844   1.105   9.511 -0.6773 -0.5551 -0.1092
  917MOL0     H23785   2.650   0.974   9.522 -0.1912 -1.5574 -0.4038
  917MOL0     H23786   2.680   1.026   9.685 -0.6463 -1.1721  1.3729
  917MOL0     H23787   2.601   0.785   9.657 -0.4204  1.6570  1.5340
  917MOL0     H23788   2.727   0.816   9.760 -2.5461  0.5887 -0.2709
  917MOL0     H23789   2.905   0.754   9.641 -0.2302 -0.8442  1.5883
  917MOL0     H23790   2.787   0.629   9.659  4.1615  0.1055  0.5810
  917MOL0     H23791   2.780   0.625   9.242  0.1221 -1.1444  0.5269
  917MOL0     H23792   3.076   1.109   9.895  2.9253 -0.2016  2.4350
  917MOL0     H23793   3.422   1.157   9.964  0.8157 -0.6284  3.9643
  917MOL0     H23794   3.256   1.163  10.007  1.4914 -0.9320  0.9438
  917MOL0     H23795   3.320   1.005   9.986  0.1817  0.2715 -1.0035
  918MOL0     O23796  11.221   0.160   6.581  0.0848 -0.7368 -0.1266
  918MOL0     C23797  11.108   0.115   6.570 -0.1582  0.1121 -0.3619
  918MOL0     O23798  11.047   0.049   6.674 -0.1975 -0.2818  0.0702
  918MOL0     C23799  11.127   0.000   6.772  0.0428  0.1071 -0.2825
  918MOL0     C23800  11.100   0.045   6.901  0.5420 -0.7424 -0.2843
  918MOL0     C23801  11.166  -0.010   7.009  0.0940  0.0194 -0.1971
  918MOL0     C23802  11.263  -0.099   6.985  0.3020 -0.4006 -1.3924
  918MOL0     O23803  11.338  -0.131   7.095 -0.5823  0.5839  0.5006
  918MOL0     C23804  11.471  -0.170   7.068 -0.0072 -0.1727  0.0394
  918MOL0     C23805  11.555  -0.157   7.191 -0.7643 -0.2665 -0.0612
  918MOL0     C23806  11.690  -0.231   7.185  0.1408  0.4579 -0.3264
  918MOL0     C23807  11.783  -0.154   7.100 -0.4440  0.3922 -0.3038
  918MOL0     C23808  11.935  -0.153   7.132 -0.1174 -0.0069  0.1647
  918MOL0     C23809  12.022  -0.103   7.024 -0.2856 -0.1104  0.1270
  918MOL0     C23810  11.993   0.039   6.984 -0.5463 -0.4147  0.2042
  918MOL0     C23811  12.079   0.079   6.862  0.4301  0.4192  0.7719
  918MOL0     N23812  12.068   0.223   6.831  0.8573  0.2379  0.3254
  918MOL0     C23813  11.953   0.292   6.800  0.3880 -0.0335 -0.3275
  918MOL0     C23814  11.982   0.419   6.796  0.9207 -0.4029 -0.2356
  918MOL0     C23815  11.885   0.535   6.755 -0.3317  0.6512 -1.1949
  918MOL0     C23816  11.802   0.564   6.884 -0.6011 -0.4239 -0.5557
  918MOL0     C23817  11.670   0.484   6.892  0.5220 -0.0815 -0.7304
  918MOL0     C23818  11.580   0.550   7.002 -0.6661  0.0692  1.3534
  918MOL0     O23819  11.462   0.478   7.012  0.5923 -0.8169  0.0516
  918MOL0     C23820  11.369   0.481   6.912  0.3217  0.2938  0.2424
  918MOL0     C23821  11.367   0.568   6.793  0.4802  0.2800 -1.0506
  918MOL0     C23822  11.262   0.562   6.707 -0.3053  0.5754  0.2030
  918MOL0     C23823  11.154   0.469   6.715 -0.1523 -1.2617 -0.1959
  918MOL0     C23824  11.059   0.469   6.603 -1.1787  0.1386  0.0532
  918MOL0     O23825  10.947   0.391   6.631  0.0917  0.8032 -0.4905
  918MOL0     C23826  10.826   0.388   6.565 -0.2549 -0.3327  0.0034
  918MOL0     C23827  10.824   0.396   6.427  0.4722 -0.3220 -0.6925
  918MOL0     C23828  10.702   0.384   6.357  0.2007 -0.3254  0.4922
  918MOL0     C23829  10.592   0.325   6.413 -0.3832  0.1568 -1.2597
  918MOL0     O23830  10.474   0.304   6.343  0.1370 -0.6892 -0.1436
  918MOL0     C23831  10.363   0.393   6.378 -0.1889 -0.4570 -0.3516
  918MOL0     C23832  10.269   0.394   6.263  0.8017 -0.2630  1.1011
  918MOL0     C23833  10.230   0.241   6.219 -0.0154 -0.0884 -0.1563
  918MOL0     C23834  10.118   0.275   6.119  0.0070  0.3301  0.3008
  918MOL0     C23835  10.052   0.153   6.045 -0.4023  1.0555 -0.1854
  918MOL0     C23836  10.001   0.045   6.143  0.8665  0.9324 -0.1107
  918MOL0     C23837   9.900  -0.039   6.067 -0.5496  0.0973  0.0783
  918MOL0     C23838   9.873  -0.175   6.136  0.5859  0.2743 -0.3076
  918MOL0    Cl23839   9.804  -0.154   6.295 -0.4667 -0.7367  0.1495
  918MOL0     C23840  10.604   0.289   6.548 -0.2765 -0.4855  0.0685
  918MOL0     C23841  10.712   0.338   6.621 -0.2335 -0.1375 -0.1231
  918MOL0     O23842  11.082   0.536   6.506  0.1605 -0.3029 -1.0426
  918MOL0     C23843  11.156   0.381   6.820  0.1941 -0.0595 -0.0610
  918MOL0     C23844  11.260   0.391   6.917 -0.2434  0.0265  0.0338
  918MOL0     N23845  12.119   0.431   6.821 -0.0719 -0.8557  0.4788
  918MOL0     N23846  12.169   0.310   6.835 -0.9258 -0.1053  0.7805
  918MOL0     C23847  11.278  -0.154   6.854 -0.6004 -0.2373 -0.1074
  918MOL0     C23848  11.202  -0.112   6.756 -0.2014  1.1029 -0.3119
  918MOL0     C23849  11.038   0.134   6.433 -1.2198  0.6655 -0.1920
  918MOL0     C23850  11.098   0.220   6.339 -0.2860  0.2832 -0.3163
  918MOL0     C23851  11.024   0.247   6.217  0.0059  0.1987 -0.3682
  918MOL0     C23852  10.908   0.178   6.194  0.4773 -0.2844 -0.4106
  918MOL0     O23853  10.834   0.213   6.084  0.4503 -0.1771  0.4747
  918MOL0     C23854  10.699   0.167   6.061  0.4349 -0.9829  0.1396
  918MOL0     C23855  10.654   0.227   5.927  1.3822 -0.0848 -0.1807
  918MOL0     C23856  10.507   0.187   5.909  0.1602  0.4006  0.1902
  918MOL0     C23857  10.438   0.274   5.797  0.5065  0.2339  0.3193
  918MOL0     C23858  10.291   0.270   5.786 -0.3769  0.4481  0.1346
  918MOL0     C23859  10.174   0.243   5.770  0.3125  0.6237  0.2637
  918MOL0     C23860  10.855   0.081   6.281  0.0106 -0.5721 -0.4359
  918MOL0     C23861  10.914   0.062   6.412  0.4534  0.6747 -0.7604
  918MOL0     C23862  10.842  -0.042   6.497  0.6505  0.6259 -0.2030
  918MOL0     H23863  11.023   0.121   6.915  0.9771  0.0177 -1.7759
  918MOL0     H23864  11.150   0.018   7.113 -0.2850 -3.5644  0.8360
  918MOL0     H23865  11.479  -0.268   7.022  0.4511 -0.1742  0.1182
  918MOL0     H23866  11.512  -0.098   6.997  0.0153  1.1222  1.3116
  918MOL0     H23867  11.504  -0.205   7.275  1.3935 -0.1859  1.3729
  918MOL0     H23868  11.555  -0.051   7.219 -0.2377 -0.3630  0.3204
  918MOL0     H23869  11.680  -0.335   7.153  4.5941  0.3715 -2.1554
  918MOL0     H23870  11.728  -0.237   7.287  0.5878 -0.3403 -0.5248
  918MOL0     H23871  11.769  -0.199   7.001 -1.5370 -1.1734  0.5309
  918MOL0     H23872  11.745  -0.052   7.086 -0.6247  0.3899  0.1636
  918MOL0     H23873  11.955  -0.080   7.212 -3.1097  2.7465 -1.3314
  918MOL0     H23874  11.967  -0.255   7.153  2.1375  0.6577  0.2215
  918MOL0     H23875  12.124  -0.094   7.061 -0.3386  2.7824 -0.1612
  918MOL0     H23876  12.020  -0.173   6.940  0.7661 -0.1408  0.1239
  918MOL0     H23877  12.016   0.109   7.065 -1.5754 -1.6221  1.6270
  918MOL0     H23878  11.894   0.056   6.941 -0.2908  0.8837  0.0949
  918MOL0     H23879  12.184   0.053   6.879  0.7734  2.5767  2.3130
  918MOL0     H23880  12.033   0.025   6.778  1.8189  1.0130 -0.4206
  918MOL0     H23881  11.851   0.256   6.787  1.1241 -2.3259 -0.1259
  918MOL0     H23882  11.946   0.622   6.727  2.7166 -1.0700 -0.3982
  918MOL0     H23883  11.818   0.501   6.676 -1.6199 -2.2807  0.9968
  918MOL0     H23884  11.872   0.537   6.963 -1.7434  0.7046  0.9016
  918MOL0     H23885  11.792   0.673   6.881  1.0002  0.0508  3.8977
  918MOL0     H23886  11.694   0.381   6.920  2.0955  0.3516 -0.3923
  918MOL0     H23887  11.614   0.479   6.798 -0.5600 -1.0177 -0.0637
  918MOL0     H23888  11.553   0.652   6.973  0.3285 -0.5046 -2.0361
  918MOL0     H23889  11.637   0.545   7.095  1.5138 -0.2883  0.0664
  918MOL0     H23890  11.457   0.628   6.785  1.4575 -0.5192  2.1693
  918MOL0     H23891  11.268   0.625   6.619 -2.2636 -0.8821 -1.0669
  918MOL0     H23892  10.915   0.420   6.373  0.9788 -1.2318 -0.2598
  918MOL0     H23893  10.694   0.401   6.250 -0.9017 -1.0084  0.4457
  918MOL0     H23894  10.304   0.361   6.465  0.5775  2.2384  1.2570
  918MOL0     H23895  10.405   0.490   6.404  1.2225 -0.4869 -2.3396
  918MOL0     H23896  10.180   0.452   6.290 -0.3769 -1.1792 -0.6638
  918MOL0     H23897  10.314   0.437   6.174 -2.3281 -1.3847 -1.2212
  918MOL0     H23898  10.312   0.189   6.169 -1.4517 -0.0357 -2.7134
  918MOL0     H23899  10.202   0.183   6.307  1.6738 -1.6545 -0.5946
  918MOL0     H23900  10.151   0.342   6.039 -1.1754 -0.4763 -0.9208
  918MOL0     H23901  10.039   0.328   6.172 -0.2207  1.1660 -0.8429
  918MOL0     H23902  10.138   0.099   6.004 -1.0363 -0.4412  0.3885
  918MOL0     H23903   9.982   0.177   5.965  0.1461  1.1623 -0.6412
  918MOL0     H23904  10.072  -0.026   6.186 -0.7133 -1.6747 -1.5380
  918MOL0     H23905   9.949   0.086   6.230 -2.2999 -2.2203 -0.3105
  918MOL0     H23906   9.936  -0.058   5.965  0.3983 -0.1810  0.4480
  918MOL0     H23907   9.812   0.024   6.058  0.6667  1.6300 -2.4315
  918MOL0     H23908   9.798  -0.222   6.073  0.3828  1.6632 -1.1521
  918MOL0     H23909   9.966  -0.233   6.145  2.9601  3.8871  0.5767
  918MOL0     H23910  10.519   0.242   6.595 -1.0761  4.0510  3.8315
  918MOL0     H23911  10.720   0.325   6.728  0.4117 -0.3697 -0.1956
  918MOL0     H23912  11.077   0.309   6.840 -1.3445  1.9935  1.6539
  918MOL0     H23913  11.252   0.333   7.009  3.8466 -1.1566 -0.1806
  918MOL0     H23914  11.330  -0.248   6.839 -0.5045 -0.5399  1.8529
  918MOL0     H23915  11.200  -0.161   6.659  0.7278  1.3500 -0.4696
  918MOL0     H23916  11.193   0.270   6.350  0.3953 -1.2835  1.4619
  918MOL0     H23917  11.051   0.303   6.128  2.9024 -1.9254 -0.9884
  918MOL0     H23918  10.633   0.184   6.146 -2.8989 -2.8474 -1.8628
  918MOL0     H23919  10.706   0.058   6.053  0.3120 -1.1811  2.3351
  918MOL0     H23920  10.723   0.191   5.850  2.3832  1.7366 -0.1863
  918MOL0     H23921  10.667   0.335   5.925 -0.4771  0.1430 -1.1274
  918MOL0     H23922  10.453   0.195   6.004 -2.4568  0.1771 -1.2047
  918MOL0     H23923  10.512   0.085   5.869 -0.3174 -0.0408  1.2301
  918MOL0     H23924  10.472   0.378   5.802  0.5378  0.1878  1.1664
  918MOL0     H23925  10.483   0.248   5.701  0.6298  1.4426  0.0408
  918MOL0     H23926  10.074   0.206   5.762  0.2849  0.8752 -0.6814
  918MOL0     H23927  10.759   0.031   6.273 -1.4120  0.7906  4.3619
  918MOL0     H23928  10.809  -0.013   6.598 -1.3881  0.0606 -0.6447
  918MOL0     H23929  10.745  -0.075   6.458  0.5872 -0.3034  0.6774
  918MOL0     H23930  10.910  -0.128   6.496 -0.5373 -0.3707 -1.8936
  919MOL0     O23931   1.430   7.783   5.945  0.1632 -0.1542  0.4129
  919MOL0     C23932   1.403   7.898   5.915  0.3331  0.2305 -0.1291
  919MOL0     O23933   1.490   7.989   5.874 -0.5601  0.5772 -0.0523
  919MOL0     C23934   1.616   7.934   5.850  0.2565 -1.5206  0.6454
  919MOL0     C23935   1.648   7.856   5.742 -0.0597  0.7235  0.6254
  919MOL0     C23936   1.781   7.806   5.737 -0.9730 -0.0881 -0.4905
  919MOL0     C23937   1.881   7.838   5.839  0.5144  0.4391 -0.4671
  919MOL0     O23938   2.007   7.794   5.820 -0.4704  0.0632 -0.4806
  919MOL0     C23939   2.111   7.845   5.907  0.0573 -1.3959  1.2722
  919MOL0     C23940   2.234   7.765   5.864 -0.3612  0.3346 -0.0098
  919MOL0     C23941   2.353   7.799   5.952 -0.3117 -1.5732 -0.0455
  919MOL0     C23942   2.476   7.699   5.945 -1.1592  1.0884  0.1439
  919MOL0     C23943   2.585   7.732   6.042 -0.3063  0.9254 -0.0636
  919MOL0     C23944   2.712   7.642   6.037  0.5798  0.1939 -1.1570
  919MOL0     C23945   2.839   7.706   6.091 -1.0081 -0.0236 -0.1006
  919MOL0     C23946   2.952   7.603   6.115  1.2698 -0.0864  0.6530
  919MOL0     N23947   3.064   7.666   6.168 -0.0092  0.2120 -0.9609
  919MOL0     C23948   3.172   7.697   6.093 -0.1431 -0.8200 -0.3818
  919MOL0     C23949   3.258   7.774   6.172 -0.4769 -0.2758  0.0784
  919MOL0     C23950   3.386   7.838   6.142  0.0044 -0.4717  0.3599
  919MOL0     C23951   3.381   7.928   6.008  0.4141 -0.0333  0.1230
  919MOL0     C23952   3.268   8.041   6.007  0.7052 -0.3509 -1.1247
  919MOL0     C23953   3.266   8.118   5.877 -0.3345  0.5791  0.1310
  919MOL0     O23954   3.143   8.198   5.861  0.3390  0.5385  0.6292
  919MOL0     C23955   3.117   8.299   5.946  0.2210 -0.5155 -0.8262
  919MOL0     C23956   2.990   8.355   5.938  0.0914 -0.8791 -0.0321
  919MOL0     C23957   2.961   8.473   6.006 -0.1508  0.7513 -0.4577
  919MOL0     C23958   3.047   8.542   6.087 -0.6466  0.1183 -0.0600
  919MOL0     C23959   3.012   8.663   6.151 -0.4375  1.1493 -0.8836
  919MOL0     O23960   2.882   8.710   6.140 -0.3802 -0.1774  0.4777
  919MOL0     C23961   2.838   8.821   6.207 -0.1413 -0.4002 -0.7331
  919MOL0     C23962   2.700   8.847   6.210 -0.0181 -0.3386 -0.5636
  919MOL0     C23963   2.643   8.971   6.258  1.0113 -0.0039  0.0458
  919MOL0     C23964   2.729   9.076   6.282  0.1913 -0.0303  0.6245
  919MOL0     O23965   2.672   9.191   6.314  0.0844 -0.0731 -0.5701
  919MOL0     C23966   2.721   9.310   6.257  0.0148 -0.1639 -0.1038
  919MOL0     C23967   2.645   9.359   6.127  0.0572 -0.1712 -0.0472
  919MOL0     C23968   2.713   9.303   6.005 -0.0682 -0.2754 -0.0299
  919MOL0     C23969   2.613   9.302   5.886 -0.0929  0.2865 -0.0647
  919MOL0     C23970   2.663   9.238   5.756  0.1883 -0.3250  0.3784
  919MOL0     C23971   2.705   9.089   5.772  0.2987 -0.1667  0.0761
  919MOL0     C23972   2.616   8.981   5.847  0.3709  0.4630 -0.2877
  919MOL0     C23973   2.694   8.847   5.828  0.4437 -0.6644  0.0588
  919MOL0    Cl23974   2.636   8.702   5.923 -0.2705  0.2865  0.3338
  919MOL0     C23975   2.871   9.055   6.269  0.6028 -0.4389 -0.8573
  919MOL0     C23976   2.920   8.935   6.228  0.0098  0.2989 -0.5987
  919MOL0     O23977   3.110   8.719   6.213 -0.1501  0.0489 -0.1052
  919MOL0     C23978   3.173   8.484   6.102 -0.3379  0.7729  0.4105
  919MOL0     C23979   3.210   8.372   6.024 -0.5215  0.4178 -0.4926
  919MOL0     N23980   3.198   7.773   6.296 -0.3783 -0.4458  0.3336
  919MOL0     N23981   3.079   7.720   6.295 -0.8061 -0.3651  1.0757
  919MOL0     C23982   1.828   7.907   5.952 -0.3441 -0.2721 -0.2115
  919MOL0     C23983   1.698   7.958   5.956 -0.4265 -0.7547 -0.0202
  919MOL0     C23984   1.259   7.930   5.892  0.3829  0.0354  0.2985
  919MOL0     C23985   1.227   8.002   5.779 -0.3463 -0.5542  0.2440
  919MOL0     C23986   1.094   8.029   5.736 -1.5196 -0.0585  0.1654
  919MOL0     C23987   0.990   7.985   5.815  0.4980  0.9007 -0.3106
  919MOL0     O23988   0.860   7.999   5.786 -0.2965  0.4046  0.7110
  919MOL0     C23989   0.818   8.029   5.648 -0.1924  0.6692 -1.1448
  919MOL0     C23990   0.663   8.024   5.643  0.2060 -0.4434  0.3892
  919MOL0     C23991   0.607   8.076   5.517  0.9013  0.3185 -0.0520
  919MOL0     C23992   0.459   8.122   5.536  0.7020 -0.3693 -0.3543
  919MOL0     C23993   0.394   8.128   5.406 -1.0180  0.4780  0.1868
  919MOL0     C23994   0.336   8.148   5.305  0.5835 -0.1286 -0.4980
  919MOL0     C23995   1.019   7.916   5.935  0.6230 -0.0379  0.4874
  919MOL0     C23996   1.149   7.892   5.981 -0.0166 -0.3600  0.7632
  919MOL0     C23997   1.167   7.811   6.108  0.6310 -0.3289  0.0270
  919MOL0     H23998   1.579   7.849   5.658  2.6240  2.9058 -1.9805
  919MOL0     H23999   1.825   7.744   5.660 -0.0233 -0.5305  0.3812
  919MOL0     H24000   2.142   7.949   5.900  1.2950 -1.8222 -0.3624
  919MOL0     H24001   2.081   7.832   6.011  0.4024  0.4761  1.6380
  919MOL0     H24002   2.255   7.774   5.757 -1.6975 -0.0537 -0.3250
  919MOL0     H24003   2.214   7.658   5.877  0.2471  0.2018 -0.1560
  919MOL0     H24004   2.314   7.796   6.054 -0.1442  0.3348  0.1265
  919MOL0     H24005   2.379   7.903   5.925 -2.9774 -0.4252  1.4821
  919MOL0     H24006   2.447   7.594   5.957 -2.1569  1.1515 -1.4879
  919MOL0     H24007   2.522   7.706   5.846  2.3164  0.9261  1.5926
  919MOL0     H24008   2.613   7.836   6.022  2.6937  0.0519 -0.8312
  919MOL0     H24009   2.545   7.729   6.144 -1.4165  1.8140 -0.4476
  919MOL0     H24010   2.684   7.546   6.080  2.7088 -0.2051 -0.5217
  919MOL0     H24011   2.737   7.636   5.930  2.8016  1.0480 -0.7591
  919MOL0     H24012   2.810   7.755   6.184 -1.1220 -1.9859  0.9303
  919MOL0     H24013   2.870   7.773   6.010 -5.6353 -0.6750 -2.7495
  919MOL0     H24014   2.911   7.529   6.185 -2.1049  1.7520  0.8310
  919MOL0     H24015   2.993   7.562   6.023  1.8173  0.2369  0.7474
  919MOL0     H24016   3.188   7.655   5.995  1.8493  1.5384 -1.1796
  919MOL0     H24017   3.416   7.912   6.217 -1.2693  0.0250  0.4030
  919MOL0     H24018   3.460   7.757   6.139  1.4507  0.7101 -4.3637
  919MOL0     H24019   3.475   7.985   6.007  0.2097  0.3094  0.2332
  919MOL0     H24020   3.388   7.868   5.917 -0.2503 -1.2949  0.8784
  919MOL0     H24021   3.293   8.110   6.088  0.9130 -1.1049 -0.5338
  919MOL0     H24022   3.166   8.005   6.026 -0.1561  2.5213  0.2980
  919MOL0     H24023   3.286   8.053   5.791 -1.2460  1.8256 -1.0713
  919MOL0     H24024   3.355   8.181   5.871  2.5493 -3.2141 -0.8702
  919MOL0     H24025   2.917   8.324   5.864  0.1138 -1.1064  0.0407
  919MOL0     H24026   2.864   8.516   5.979 -0.6704 -0.4327 -0.5338
  919MOL0     H24027   2.638   8.759   6.199  4.1647 -4.0851  2.2602
  919MOL0     H24028   2.538   8.992   6.272  1.6285  2.6106  1.3730
  919MOL0     H24029   2.703   9.394   6.325  3.0576  0.3242  0.2429
  919MOL0     H24030   2.829   9.312   6.237  0.6732  1.1757  2.9625
  919MOL0     H24031   2.539   9.335   6.139  0.3490 -1.4107  0.2181
  919MOL0     H24032   2.653   9.468   6.126 -0.7087 -0.0836  1.4714
  919MOL0     H24033   2.798   9.367   5.980  1.8224 -2.7842 -0.3692
  919MOL0     H24034   2.756   9.205   6.029  3.2152  0.5931 -1.7569
  919MOL0     H24035   2.590   9.409   5.883  0.9356  0.5566  0.8399
  919MOL0     H24036   2.533   9.235   5.916  0.1685 -0.1612 -0.3535
  919MOL0     H24037   2.735   9.304   5.707 -0.1841  0.5304  0.9556
  919MOL0     H24038   2.577   9.254   5.691 -0.9239  0.6593  1.9977
  919MOL0     H24039   2.741   9.053   5.675  0.1689  0.2889 -0.1410
  919MOL0     H24040   2.787   9.078   5.844 -1.5529  0.4813  2.4187
  919MOL0     H24041   2.510   8.969   5.823 -0.2042 -1.3738  2.7170
  919MOL0     H24042   2.599   9.001   5.953 -4.7735 -2.5014 -0.2158
  919MOL0     H24043   2.691   8.808   5.726  0.6978  1.9879 -1.0191
  919MOL0     H24044   2.801   8.858   5.847  1.2457  2.1933 -4.5422
  919MOL0     H24045   2.934   9.140   6.292 -0.5763 -0.0669  1.2744
  919MOL0     H24046   3.027   8.931   6.213 -0.2756  0.1240 -3.0853
  919MOL0     H24047   3.250   8.528   6.164  0.5640  1.2859 -1.0341
  919MOL0     H24048   3.313   8.341   6.030 -0.9346 -0.8219  3.8463
  919MOL0     H24049   1.892   7.918   6.039 -0.6728 -0.8635  0.1068
  919MOL0     H24050   1.671   8.023   6.039 -0.4352 -0.4410 -0.2652
  919MOL0     H24051   1.307   8.044   5.720 -2.9101  1.8813 -1.8086
  919MOL0     H24052   1.088   8.071   5.636  0.7797  1.6293  0.6448
  919MOL0     H24053   0.857   7.958   5.574 -0.3712 -0.1361 -0.4792
  919MOL0     H24054   0.850   8.126   5.610 -1.5774  1.0384 -1.4476
  919MOL0     H24055   0.627   8.083   5.729  3.0076  0.3498  1.1457
  919MOL0     H24056   0.634   7.919   5.647 -0.3673 -0.2498  2.4813
  919MOL0     H24057   0.602   7.992   5.447 -3.6719  1.6998 -1.7409
  919MOL0     H24058   0.667   8.151   5.464  0.1436 -2.1055 -4.8644
  919MOL0     H24059   0.404   8.045   5.591  3.9786 -2.7152 -0.0305
  919MOL0     H24060   0.457   8.219   5.587  2.7003 -0.2949 -0.3367
  919MOL0     H24061   0.281   8.197   5.227  0.4090 -1.0507 -0.9736
  919MOL0     H24062   0.935   7.874   5.989  0.1511  0.9758  0.5805
  919MOL0     H24063   1.173   7.703   6.089 -1.1863 -0.7509  1.5359
  919MOL0     H24064   1.251   7.852   6.165 -0.3882  1.2485  0.4651
  919MOL0     H24065   1.083   7.812   6.179  0.5856 -1.6067  0.0152
  920MOL0     O24066   4.445   8.813  11.029  0.0321 -0.1807  0.2190
  920MOL0     C24067   4.367   8.740  10.963  0.0456  0.5539 -0.7006
  920MOL0     O24068   4.372   8.713  10.836  0.2697  0.5451 -0.3754
  920MOL0     C24069   4.445   8.788  10.751 -0.3654 -1.0657  0.2699
  920MOL0     C24070   4.576   8.737  10.709  1.4137  0.3470 -0.2098
  920MOL0     C24071   4.644   8.809  10.604 -0.1686  0.6514  1.0517
  920MOL0     C24072   4.591   8.920  10.528 -0.6939  0.7130  0.3983
  920MOL0     O24073   4.672   8.974  10.432  0.9483  0.3722  0.2165
  920MOL0     C24074   4.630   9.083  10.345  0.3926  0.5136 -0.1910
  920MOL0     C24075   4.716   9.058  10.226 -0.0778  1.0230  0.0824
  920MOL0     C24076   4.691   9.161  10.125 -0.1900 -0.3198  0.0221
  920MOL0     C24077   4.750   9.114   9.991  0.6109  0.3407  0.2229
  920MOL0     C24078   4.724   9.230   9.900  0.2953 -0.3393 -0.1935
  920MOL0     C24079   4.791   9.214   9.758 -0.2390 -0.7215 -0.2415
  920MOL0     C24080   4.765   9.339   9.665  0.3272 -0.7327 -0.3481
  920MOL0     C24081   4.781   9.304   9.518 -0.0957 -0.8203  0.5390
  920MOL0     N24082   4.779   9.412   9.429 -0.3973 -0.1019  0.0430
  920MOL0     C24083   4.887   9.494   9.427 -0.2946 -0.3126 -0.2114
  920MOL0     C24084   4.836   9.599   9.353  0.4456  0.6678  0.6198
  920MOL0     C24085   4.903   9.721   9.306 -0.4434  0.2758  0.0165
  920MOL0     C24086   5.049   9.688   9.282  0.7084  0.1326  0.8166
  920MOL0     C24087   5.144   9.766   9.368  0.0872 -0.0027 -0.3825
  920MOL0     C24088   5.124   9.730   9.518  0.3065 -0.6150 -0.0763
  920MOL0     O24089   5.172   9.596   9.538  0.2934 -0.8603  0.2905
  920MOL0     C24090   5.143   9.531   9.653 -0.5765  0.6605  0.3064
  920MOL0     C24091   5.091   9.585   9.770 -0.4914  0.3451  0.5667
  920MOL0     C24092   5.067   9.502   9.885 -1.9962 -1.2394  0.4458
  920MOL0     C24093   5.112   9.370   9.890  0.3432 -0.4849 -0.3254
  920MOL0     C24094   5.110   9.281  10.012 -0.4925  0.3684 -0.6905
  920MOL0     O24095   5.118   9.344  10.134  0.3557  0.3949  0.5678
  920MOL0     C24096   5.131   9.276  10.256 -0.0089  0.4017  0.3806
  920MOL0     C24097   5.178   9.353  10.367  0.4585  0.6611  0.5799
  920MOL0     C24098   5.218   9.282  10.480  0.2211  0.0844  1.0138
  920MOL0     C24099   5.189   9.148  10.495  0.1497  0.1648 -0.9160
  920MOL0     O24100   5.239   9.082  10.607  0.0345 -0.1875  0.3177
  920MOL0     C24101   5.158   9.074  10.729 -0.3578 -0.3444 -0.5744
  920MOL0     C24102   5.022   9.023  10.708 -0.1172 -0.3319  0.1095
  920MOL0     C24103   5.024   8.883  10.656  0.2325  0.3356  0.3902
  920MOL0     C24104   5.038   8.779  10.767  0.2510 -0.1629  0.9686
  920MOL0     C24105   5.037   8.632  10.716  0.4918 -0.4665 -0.1414
  920MOL0     C24106   5.034   8.530  10.831 -1.1501 -0.6683 -0.0028
  920MOL0     C24107   5.088   8.390  10.793 -0.4976 -0.6010  0.1871
  920MOL0     C24108   5.064   8.284  10.899 -0.1486 -0.2782  0.2363
  920MOL0    Cl24109   4.894   8.255  10.879  0.0753  0.5081  0.0808
  920MOL0     C24110   5.120   9.073  10.398  0.8133 -0.5130  0.2651
  920MOL0     C24111   5.091   9.143  10.281  1.1876 -0.9467  0.3716
  920MOL0     O24112   5.113   9.157   9.994  0.1834  1.0630 -1.3057
  920MOL0     C24113   5.170   9.319   9.774 -0.1076  0.0866  0.0918
  920MOL0     C24114   5.172   9.390   9.658  0.2598  0.0431  0.2632
  920MOL0     N24115   4.708   9.579   9.324  0.1655  0.1679  0.2411
  920MOL0     N24116   4.679   9.462   9.350 -0.2926 -0.6407 -0.6388
  920MOL0     C24117   4.465   8.964  10.580 -0.3528  0.1379 -0.3783
  920MOL0     C24118   4.398   8.905  10.692  0.1559 -0.1474 -0.2541
  920MOL0     C24119   4.265   8.663  11.047  0.7103  0.3923 -0.8224
  920MOL0     C24120   4.172   8.737  11.117 -0.4319  0.3440 -0.2488
  920MOL0     C24121   4.057   8.670  11.164 -0.2992 -0.7083  0.2851
  920MOL0     C24122   4.052   8.528  11.170  0.0854 -0.3451  0.3166
  920MOL0     O24123   3.946   8.487  11.242  0.3513  0.4340  0.0518
  920MOL0     C24124   3.978   8.393  11.350 -0.3608  0.2737  0.1171
  920MOL0     C24125   3.864   8.381  11.455 -0.9656 -0.3705  0.0442
  920MOL0     C24126   3.789   8.241  11.463  0.6138 -0.8301 -0.2581
  920MOL0     C24127   3.749   8.188  11.327  0.0515  0.9188  0.3616
  920MOL0     C24128   3.668   8.069  11.339  0.3351 -0.8635  0.3398
  920MOL0     C24129   3.597   7.972  11.355 -0.6951  0.4887 -0.2772
  920MOL0     C24130   4.149   8.459  11.108 -0.2842 -0.9428  0.1942
  920MOL0     C24131   4.252   8.521  11.035 -0.4446 -0.7408  0.8710
  920MOL0     C24132   4.354   8.433  10.961  0.8306 -0.3670  0.6146
  920MOL0     H24133   4.616   8.643  10.746  1.8470 -0.0606 -1.6403
  920MOL0     H24134   4.738   8.763  10.574 -1.6167 -1.4496 -0.5616
  920MOL0     H24135   4.529   9.065  10.307  0.1638  1.9470 -0.3101
  920MOL0     H24136   4.652   9.182  10.384  0.6442 -0.2111  1.5881
  920MOL0     H24137   4.692   8.964  10.177 -1.2158  1.4287 -0.1664
  920MOL0     H24138   4.821   9.051  10.254  0.2525 -1.5986 -1.5279
  920MOL0     H24139   4.749   9.246  10.162  1.8826 -0.6733 -2.1683
  920MOL0     H24140   4.588   9.195  10.127 -0.9578 -2.4140 -0.9603
  920MOL0     H24141   4.856   9.090  10.002  0.4204  0.5733  3.2658
  920MOL0     H24142   4.697   9.024   9.960  0.2741  0.2428  1.0699
  920MOL0     H24143   4.617   9.247   9.890  0.5349  0.8340 -0.9634
  920MOL0     H24144   4.771   9.321   9.939 -2.0896  1.4881 -1.3791
  920MOL0     H24145   4.900   9.206   9.766 -0.1014  0.7046 -0.5283
  920MOL0     H24146   4.757   9.126   9.701 -1.4727  0.0126 -0.6932
  920MOL0     H24147   4.841   9.409   9.700 -0.9857  0.5651  0.0403
  920MOL0     H24148   4.664   9.380   9.675  1.4557  2.8872 -2.2893
  920MOL0     H24149   4.865   9.238   9.493 -1.5167 -1.3486 -3.7338
  920MOL0     H24150   4.689   9.247   9.504 -0.7805  0.0666  1.3230
  920MOL0     H24151   4.986   9.478   9.470 -0.7291  0.3817  1.1193
  920MOL0     H24152   4.841   9.756   9.223 -1.1292 -0.4270  0.2187
  920MOL0     H24153   4.891   9.793   9.387 -0.8066  4.0255 -3.0767
  920MOL0     H24154   5.068   9.580   9.280 -0.6308 -0.1208  0.2670
  920MOL0     H24155   5.071   9.707   9.176  1.6108  2.3765  1.3625
  920MOL0     H24156   5.122   9.869   9.338  0.0033  0.3437  0.8245
  920MOL0     H24157   5.248   9.748   9.341  0.1835  2.2109 -1.7407
  920MOL0     H24158   5.019   9.737   9.549  0.6732  2.2047  0.8069
  920MOL0     H24159   5.178   9.799   9.582  1.8096  0.6053 -2.4992
  920MOL0     H24160   5.073   9.692   9.775 -0.0513  0.4486  0.0540
  920MOL0     H24161   5.036   9.532   9.984 -0.1026 -3.5469  1.8543
  920MOL0     H24162   5.218   9.453  10.353  1.7185 -0.1575 -2.7257
  920MOL0     H24163   5.285   9.327  10.553  3.5313 -2.1072 -0.4261
  920MOL0     H24164   5.209   9.010  10.802  2.5033 -1.2066 -3.1354
  920MOL0     H24165   5.143   9.173  10.774  1.2444 -0.9264  1.4125
  920MOL0     H24166   4.974   9.036  10.805  1.9592 -2.1940  1.4960
  920MOL0     H24167   4.972   9.087  10.635  1.8770 -2.1757 -3.0894
  920MOL0     H24168   4.928   8.874  10.605 -0.5155 -1.5173  2.0072
  920MOL0     H24169   5.094   8.859  10.576 -0.0007  0.5940  0.1037
  920MOL0     H24170   4.949   8.796  10.827  1.0993  1.2524  1.8835
  920MOL0     H24171   5.124   8.787  10.834  0.8399 -3.8652  0.8603
  920MOL0     H24172   5.135   8.618  10.671  0.4354  3.4825 -1.8860
  920MOL0     H24173   4.945   8.612  10.660 -1.1321  0.2350  2.0814
  920MOL0     H24174   5.105   8.577  10.901  2.1369 -2.0786 -2.1169
  920MOL0     H24175   4.937   8.531  10.881 -0.7945  2.9476  0.9320
  920MOL0     H24176   5.197   8.397  10.784 -0.5312  2.1140  0.8720
  920MOL0     H24177   5.042   8.347  10.703 -0.3749  0.3102 -0.3313
  920MOL0     H24178   5.126   8.196  10.880  1.4849  0.3841  2.1621
  920MOL0     H24179   5.097   8.303  11.001  0.2350  0.6361 -0.0472
  920MOL0     H24180   5.079   8.972  10.405 -2.8461  0.2842 -4.3168
  920MOL0     H24181   5.034   9.091  10.204 -1.4049  3.1457 -0.7972
  920MOL0     H24182   5.209   9.219   9.789 -2.3290 -0.9736 -0.7230
  920MOL0     H24183   5.203   9.351   9.562  0.3582  1.4627 -0.3077
  920MOL0     H24184   4.425   9.050  10.527  0.3352  0.1887 -0.8408
  920MOL0     H24185   4.308   8.949  10.733  0.4376  2.1511 -1.9317
  920MOL0     H24186   4.182   8.844  11.127  2.6983  0.0416  1.2155
  920MOL0     H24187   3.985   8.729  11.219 -0.4458 -0.9296  0.3325
  920MOL0     H24188   4.065   8.439  11.397  2.2825 -2.9841 -1.1770
  920MOL0     H24189   4.019   8.300  11.308  3.0192  1.8915 -0.4956
  920MOL0     H24190   3.798   8.467  11.442  0.3417  0.6620 -0.0255
  920MOL0     H24191   3.916   8.385  11.551  1.1889  0.9279 -1.0881
  920MOL0     H24192   3.691   8.257  11.508  1.3337  0.8295  0.8090
  920MOL0     H24193   3.844   8.165  11.520  2.1834  1.3834  1.3588
  920MOL0     H24194   3.696   8.271  11.278 -1.3034  1.1032  2.0258
  920MOL0     H24195   3.838   8.162  11.270 -0.7376  0.8384 -0.8774
  920MOL0     H24196   3.540   7.882  11.369 -0.7245  0.6723  0.8685
  920MOL0     H24197   4.133   8.353  11.090  0.2978 -0.8444 -0.9928
  920MOL0     H24198   4.362   8.334  11.008 -2.5850 -1.7775 -1.3831
  920MOL0     H24199   4.314   8.408  10.862  0.4252  2.8272 -0.1389
  920MOL0     H24200   4.452   8.478  10.944  0.9566 -1.3073 -1.5079
  921MOL0     O24201  10.348   0.644   4.518 -0.0811  1.2755 -0.4134
  921MOL0     C24202  10.368   0.585   4.625 -0.3017 -0.0775  0.4881
  921MOL0     O24203  10.265   0.562   4.712  0.1288  0.2173  0.0574
  921MOL0     C24204  10.138   0.604   4.666  0.6359  0.5336 -0.0729
  921MOL0     C24205  10.097   0.736   4.656  0.9659  0.1781  0.2711
  921MOL0     C24206   9.965   0.764   4.603 -0.4816 -0.3430 -0.2013
  921MOL0     C24207   9.882   0.660   4.561  0.6607  0.3323  0.1835
  921MOL0     O24208   9.752   0.667   4.518  0.5693 -0.0090 -0.0293
  921MOL0     C24209   9.683   0.797   4.527 -0.2578 -0.2863 -0.1280
  921MOL0     C24210   9.564   0.787   4.441  0.0972 -0.4680 -0.5376
  921MOL0     C24211   9.450   0.879   4.490 -0.1377  0.1072 -0.6812
  921MOL0     C24212   9.325   0.809   4.416 -0.1448  1.0053 -0.2929
  921MOL0     C24213   9.188   0.869   4.463 -0.4776  0.1452  0.0559
  921MOL0     C24214   9.167   0.998   4.382 -0.2408 -0.8391  0.8157
  921MOL0     C24215   9.176   1.008   4.230  0.3995  0.5268  0.7297
  921MOL0     C24216   9.127   1.139   4.162 -0.4087 -0.4353  0.7204
  921MOL0     N24217   9.185   1.262   4.230  1.4233 -0.7888 -0.0870
  921MOL0     C24218   9.315   1.297   4.211  0.3920  0.0618 -0.0006
  921MOL0     C24219   9.326   1.428   4.256  0.2359 -0.2126 -0.1564
  921MOL0     C24220   9.445   1.523   4.246  0.7551 -0.2967 -0.1052
  921MOL0     C24221   9.424   1.675   4.235  0.2785  0.1003  0.6410
  921MOL0     C24222   9.383   1.725   4.371 -0.3625 -0.6523 -1.4855
  921MOL0     C24223   9.350   1.884   4.379 -0.3709 -0.8242  1.0368
  921MOL0     O24224   9.453   1.966   4.319 -0.3320 -0.7258 -0.0698
  921MOL0     C24225   9.569   2.008   4.384  1.0642  0.7970 -0.2117
  921MOL0     C24226   9.670   2.084   4.320  0.0410  0.5314  0.2089
  921MOL0     C24227   9.788   2.119   4.382  0.4237 -0.1400 -0.0577
  921MOL0     C24228   9.804   2.098   4.513  0.0989 -0.7943 -0.6324
  921MOL0     C24229   9.924   2.149   4.578 -0.0395 -0.0516 -0.2748
  921MOL0     O24230  10.012   2.224   4.501 -0.2060  0.0322  0.5250
  921MOL0     C24231  10.135   2.261   4.544  0.0996 -0.3715 -0.1217
  921MOL0     C24232  10.214   2.331   4.451  0.1764 -0.3301  0.5766
  921MOL0     C24233  10.347   2.361   4.479  0.6020  0.9163  1.1200
  921MOL0     C24234  10.410   2.328   4.602 -0.3375 -0.1990  0.3093
  921MOL0     O24235  10.542   2.361   4.626  0.7078 -0.1324  0.3119
  921MOL0     C24236  10.580   2.501   4.635  0.4099 -1.1024  0.2815
  921MOL0     C24237  10.564   2.557   4.776 -0.0788 -0.0173 -0.5956
  921MOL0     C24238  10.632   2.480   4.894  0.5195 -0.1780 -0.0675
  921MOL0     C24239  10.586   2.533   5.036 -0.7194  0.3269  0.0389
  921MOL0     C24240  10.654   2.473   5.160 -0.1098 -0.2262 -0.1205
  921MOL0     C24241  10.632   2.530   5.301  0.3791 -0.7006 -0.0180
  921MOL0     C24242  10.719   2.473   5.414  0.1038  0.1617 -0.2073
  921MOL0     C24243  10.722   2.320   5.412  0.5540 -0.1528 -0.8057
  921MOL0    Cl24244  10.842   2.257   5.526 -0.5270  0.1853  0.0957
  921MOL0     C24245  10.332   2.252   4.694 -1.1663 -0.4542  0.4517
  921MOL0     C24246  10.201   2.218   4.663  0.0960 -0.7862 -0.4873
  921MOL0     O24247   9.942   2.128   4.697 -0.1665  0.1487 -0.4176
  921MOL0     C24248   9.707   2.027   4.589 -0.2759 -0.2415 -0.0760
  921MOL0     C24249   9.588   1.978   4.513 -0.2651 -0.8447  0.0241
  921MOL0     N24250   9.194   1.471   4.288  0.0942  0.6079 -0.3471
  921MOL0     N24251   9.112   1.369   4.274  0.3937  0.2743 -0.9272
  921MOL0     C24252   9.933   0.533   4.565  0.8174 -0.2358  0.6585
  921MOL0     C24253  10.055   0.500   4.620  0.4388 -0.0197  0.2288
  921MOL0     C24254  10.507   0.558   4.663 -0.7008  0.8214 -0.3804
  921MOL0     C24255  10.545   0.556   4.800 -0.4426  0.3575 -1.3859
  921MOL0     C24256  10.671   0.529   4.847 -0.3929  0.0938  0.3262
  921MOL0     C24257  10.768   0.490   4.748  0.5893 -0.2585  0.0950
  921MOL0     O24258  10.891   0.457   4.801 -0.1823  0.2110  0.1423
  921MOL0     C24259  11.008   0.445   4.715  0.3156  0.1471 -0.3969
  921MOL0     C24260  11.129   0.438   4.810  0.5725 -0.8828  0.0019
  921MOL0     C24261  11.158   0.555   4.900  0.6624  1.2053 -0.4310
  921MOL0     C24262  11.262   0.510   5.011  1.2877  0.7201  0.9585
  921MOL0     C24263  11.384   0.462   4.951 -0.1355 -0.1612 -0.2502
  921MOL0     C24264  11.484   0.407   4.911  0.1253 -0.2480  0.5643
  921MOL0     C24265  10.730   0.493   4.615 -0.7578 -0.2886  0.6619
  921MOL0     C24266  10.606   0.528   4.565  0.6236  0.2632 -0.6463
  921MOL0     C24267  10.568   0.508   4.422  0.2778  1.1377 -0.4002
  921MOL0     H24268  10.159   0.823   4.675  1.2197  0.0782 -0.0791
  921MOL0     H24269   9.934   0.867   4.589  3.0030  0.7579 -0.7239
  921MOL0     H24270   9.667   0.824   4.632  1.4697 -1.1731  0.3931
  921MOL0     H24271   9.737   0.879   4.479 -3.3309  1.6484 -0.5765
  921MOL0     H24272   9.534   0.683   4.459  0.5506 -0.0598  3.2052
  921MOL0     H24273   9.592   0.805   4.336  0.3105 -0.0540 -0.4127
  921MOL0     H24274   9.464   0.982   4.457 -1.4924  0.2474 -0.8847
  921MOL0     H24275   9.451   0.858   4.598  0.1195 -1.3694 -0.9456
  921MOL0     H24276   9.330   0.797   4.307 -1.2476 -1.3458 -0.1454
  921MOL0     H24277   9.320   0.709   4.458  0.2581  1.0303 -0.1738
  921MOL0     H24278   9.113   0.792   4.444 -0.6602  0.6280 -1.2749
  921MOL0     H24279   9.188   0.896   4.569  0.7612  0.3017  0.0372
  921MOL0     H24280   9.071   1.043   4.409 -1.3020 -1.8860 -0.9724
  921MOL0     H24281   9.244   1.067   4.417  0.9438 -0.8262 -1.6366
  921MOL0     H24282   9.114   0.924   4.199 -0.1971  1.1318  0.2389
  921MOL0     H24283   9.284   1.000   4.209  0.6325  0.8034  1.7573
  921MOL0     H24284   9.145   1.138   4.054  2.9095  0.2051  1.1558
  921MOL0     H24285   9.021   1.163   4.173 -0.6488 -1.7675  1.6226
  921MOL0     H24286   9.396   1.238   4.170 -1.3062 -1.9292 -0.6510
  921MOL0     H24287   9.500   1.504   4.339  0.1280  2.0306  0.7906
  921MOL0     H24288   9.504   1.490   4.159 -1.5857 -3.0489 -0.7998
  921MOL0     H24289   9.518   1.716   4.196  0.9615 -0.4151  1.6967
  921MOL0     H24290   9.346   1.699   4.162 -0.3783 -3.4353  0.0060
  921MOL0     H24291   9.460   1.704   4.446 -3.1325  0.7882  2.0999
  921MOL0     H24292   9.294   1.679   4.414 -0.9815  3.2300  2.1709
  921MOL0     H24293   9.333   1.911   4.484 -0.7367  2.4830  0.2333
  921MOL0     H24294   9.255   1.898   4.327  0.4242 -0.3754 -0.3318
  921MOL0     H24295   9.653   2.103   4.215  0.4018  0.1645  0.0801
  921MOL0     H24296   9.860   2.169   4.319 -0.3470  1.6585  0.4097
  921MOL0     H24297  10.176   2.353   4.352  1.3964  3.3483  0.7982
  921MOL0     H24298  10.404   2.400   4.395 -0.7564 -4.0085 -2.5577
  921MOL0     H24299  10.684   2.513   4.603  0.7767 -1.7836  1.1714
  921MOL0     H24300  10.514   2.554   4.565 -0.5878 -2.6744 -0.0209
  921MOL0     H24301  10.614   2.654   4.773  1.5234 -0.8115 -0.4176
  921MOL0     H24302  10.457   2.568   4.795  0.4952  3.5623  1.4993
  921MOL0     H24303  10.616   2.373   4.881 -0.2541  0.2229 -3.1354
  921MOL0     H24304  10.739   2.492   4.878  0.2472 -1.1643 -3.4139
  921MOL0     H24305  10.477   2.524   5.049 -0.6123 -1.4249  0.0188
  921MOL0     H24306  10.609   2.639   5.037 -0.6217  0.3053 -0.0012
  921MOL0     H24307  10.761   2.468   5.137 -0.4438 -3.1234 -1.5321
  921MOL0     H24308  10.620   2.369   5.158 -0.3990 -0.1335 -0.0206
  921MOL0     H24309  10.658   2.636   5.295 -0.8233 -0.2542  1.8680
  921MOL0     H24310  10.524   2.523   5.319  0.3095  0.6501  0.2394
  921MOL0     H24311  10.697   2.509   5.515  1.0097  0.7662 -0.2195
  921MOL0     H24312  10.819   2.503   5.382  0.8401  0.1884  1.9719
  921MOL0     H24313  10.625   2.278   5.440  1.3777 -1.9365 -0.4555
  921MOL0     H24314  10.743   2.284   5.311 -2.0131 -0.5803 -1.2597
  921MOL0     H24315  10.377   2.214   4.785 -2.6424  0.3256  1.5339
  921MOL0     H24316  10.163   2.165   4.750  1.6547  0.9207  1.3345
  921MOL0     H24317   9.713   2.009   4.696  0.1098 -0.2397 -0.0960
  921MOL0     H24318   9.529   1.917   4.580  1.6881 -2.8762  0.0125
  921MOL0     H24319   9.873   0.446   4.538  2.8001 -1.0965 -1.2126
  921MOL0     H24320  10.075   0.395   4.602 -1.9427 -0.6684  1.0049
  921MOL0     H24321  10.468   0.575   4.873  0.7374 -0.6047  0.1566
  921MOL0     H24322  10.690   0.527   4.954  2.5420  0.9789 -0.0897
  921MOL0     H24323  11.011   0.515   4.631  1.3745 -2.5772 -2.8039
  921MOL0     H24324  11.012   0.352   4.658 -0.0368  1.4733 -2.6748
  921MOL0     H24325  11.217   0.418   4.748  0.3666 -1.8289 -0.0092
  921MOL0     H24326  11.118   0.353   4.879  3.7499 -1.0685  0.4328
  921MOL0     H24327  11.069   0.571   4.962  1.0530  2.5767 -0.1878
  921MOL0     H24328  11.180   0.646   4.844 -0.3552  0.9495 -1.2787
  921MOL0     H24329  11.286   0.601   5.067 -0.2095  1.6815  0.0841
  921MOL0     H24330  11.216   0.433   5.074 -2.1187  0.9506 -1.0051
  921MOL0     H24331  11.575   0.353   4.893  0.3388 -0.8325  3.0503
  921MOL0     H24332  10.799   0.455   4.539 -2.4792  0.3306 -1.3120
  921MOL0     H24333  10.588   0.603   4.370 -1.2688  0.7518 -1.7984
  921MOL0     H24334  10.647   0.443   4.382  1.3664 -0.1125  3.4001
  921MOL0     H24335  10.465   0.475   4.411  0.2181  0.9595  0.6294
  922MOL0     O24336   6.858  10.628   7.951 -0.2024 -0.5487  0.7534
  922MOL0     C24337   6.849  10.550   7.850  0.6048  0.0305  0.3242
  922MOL0     O24338   6.751  10.455   7.833  0.0302  0.2698  0.2972
  922MOL0     C24339   6.657  10.435   7.925  1.1154  0.0755 -0.3704
  922MOL0     C24340   6.562  10.536   7.941  0.1415  0.7395 -1.7287
  922MOL0     C24341   6.442  10.510   8.016  0.0276 -0.3476 -0.3871
  922MOL0     C24342   6.430  10.394   8.089 -0.2090 -0.2452 -0.1715
  922MOL0     O24343   6.330  10.358   8.171 -0.3858 -0.6722  0.6420
  922MOL0     C24344   6.253  10.471   8.221  0.3723 -1.3985  0.3063
  922MOL0     C24345   6.181  10.411   8.345 -0.5680 -0.1813  1.0061
  922MOL0     C24346   6.065  10.327   8.305  0.2641  0.2648 -0.4792
  922MOL0     C24347   5.976  10.283   8.431  0.2919  0.3009  0.2222
  922MOL0     C24348   6.037  10.170   8.508 -0.3033  0.6442  0.1194
  922MOL0     C24349   6.003  10.033   8.436  0.5016 -0.3809 -0.7186
  922MOL0     C24350   6.050   9.914   8.521 -0.6256 -0.3821  0.5326
  922MOL0     C24351   6.201   9.885   8.487  0.0561  1.4965 -1.2184
  922MOL0     N24352   6.303   9.961   8.563  0.1151 -0.0393  0.5837
  922MOL0     C24353   6.285  10.021   8.681  0.0876 -0.5609  0.4480
  922MOL0     C24354   6.416  10.083   8.700  0.4577  0.0462 -1.0562
  922MOL0     C24355   6.440  10.166   8.820  0.4651 -0.2840  0.1678
  922MOL0     C24356   6.468  10.072   8.936  0.4370  0.1657 -0.7266
  922MOL0     C24357   6.484  10.139   9.068  0.3237  0.1087  0.2773
  922MOL0     C24358   6.349  10.154   9.151 -0.6706 -0.2990  0.3805
  922MOL0     O24359   6.307  10.028   9.211  0.4404  0.3237 -0.5057
  922MOL0     C24360   6.205   9.964   9.159  0.3609  0.1553 -0.6763
  922MOL0     C24361   6.222   9.835   9.107  0.0498  0.1015 -0.8770
  922MOL0     C24362   6.108   9.778   9.053  0.1431 -0.3376 -0.3447
  922MOL0     C24363   5.985   9.850   9.031  0.5707 -0.8673 -0.1642
  922MOL0     C24364   5.877   9.782   8.947 -0.2509 -0.5751  0.8908
  922MOL0     O24365   5.917   9.657   8.900 -1.2407 -0.3482  0.1030
  922MOL0     C24366   5.834   9.567   8.844 -0.3537 -0.5858  0.8706
  922MOL0     C24367   5.790   9.591   8.710 -0.3384  0.4306  0.2075
  922MOL0     C24368   5.703   9.499   8.654  0.3593  0.1080 -0.0063
  922MOL0     C24369   5.662   9.376   8.726 -0.5261  0.0912 -0.6070
  922MOL0     O24370   5.591   9.285   8.649 -0.6127 -1.6814 -0.1204
  922MOL0     C24371   5.553   9.162   8.711 -0.3949  0.0629 -0.7107
  922MOL0     C24372   5.451   9.095   8.624 -0.3982  0.0959  0.1750
  922MOL0     C24373   5.350   9.005   8.696  0.2632 -0.2402 -1.0357
  922MOL0     C24374   5.416   8.869   8.744 -0.1921 -0.0413  0.4891
  922MOL0     C24375   5.461   8.775   8.633 -0.2888 -0.2881  0.4988
  922MOL0     C24376   5.471   8.631   8.667  0.3416  0.6965 -0.1072
  922MOL0     C24377   5.475   8.538   8.550 -0.1463  0.9522 -0.1056
  922MOL0     C24378   5.589   8.557   8.447 -1.1288  0.4958  0.0581
  922MOL0    Cl24379   5.552   8.669   8.322  0.4998  0.4565 -0.0949
  922MOL0     C24380   5.705   9.358   8.860 -0.6831 -0.6779  0.7925
  922MOL0     C24381   5.791   9.452   8.909 -0.1570 -0.4263 -1.3251
  922MOL0     O24382   5.768   9.836   8.929  0.0536 -0.1317 -0.0589
  922MOL0     C24383   5.970   9.986   9.076  0.4617  0.0014 -0.2198
  922MOL0     C24384   6.078  10.030   9.154 -0.4306 -0.0012  0.0664
  922MOL0     N24385   6.505  10.046   8.599  0.0005  0.0819 -0.1862
  922MOL0     N24386   6.431   9.978   8.515 -0.4745  0.7038  0.3541
  922MOL0     C24387   6.534  10.305   8.087 -0.6534 -0.2057  0.2294
  922MOL0     C24388   6.647  10.319   8.001 -0.0520 -0.0378  0.3167
  922MOL0     C24389   6.942  10.564   7.729  0.3802  0.3667  0.0056
  922MOL0     C24390   6.892  10.509   7.612 -0.2178 -0.7268 -0.1303
  922MOL0     C24391   6.958  10.538   7.491  0.2343  0.5598  1.1053
  922MOL0     C24392   7.080  10.593   7.495  1.0442 -0.1583 -0.0941
  922MOL0     O24393   7.145  10.609   7.385 -0.4240 -0.3167  0.8119
  922MOL0     C24394   7.289  10.592   7.389  0.4916 -0.6885 -0.1451
  922MOL0     C24395   7.356  10.632   7.258  0.5787  0.1291 -0.0020
  922MOL0     C24396   7.472  10.727   7.272 -0.8049  0.4133 -0.4542
  922MOL0     C24397   7.535  10.743   7.142 -0.5140  0.1153  0.4482
  922MOL0     C24398   7.659  10.816   7.158  0.3321  0.2319  0.0447
  922MOL0     C24399   7.771  10.868   7.146 -0.3559 -0.0616 -0.9510
  922MOL0     C24400   7.142  10.621   7.618  0.6004  0.2597 -0.4002
  922MOL0     C24401   7.064  10.618   7.736  0.5052 -0.2638  0.2350
  922MOL0     C24402   7.137  10.677   7.854  0.0006 -0.8705  0.1586
  922MOL0     H24403   6.566  10.635   7.896 -1.5180  1.3605 -0.5910
  922MOL0     H24404   6.375  10.595   8.023  1.6272  0.8698  1.0330
  922MOL0     H24405   6.311  10.556   8.257  0.4126 -1.8631  1.3815
  922MOL0     H24406   6.182  10.506   8.146  1.5556  1.0153  0.2239
  922MOL0     H24407   6.147  10.497   8.404 -2.6369 -0.2166 -0.0304
  922MOL0     H24408   6.250  10.349   8.403  1.0952 -0.1749 -0.8703
  922MOL0     H24409   6.097  10.244   8.242 -0.7684 -0.2850 -0.2993
  922MOL0     H24410   6.001  10.392   8.244  1.1403 -0.2945 -2.0369
  922MOL0     H24411   5.961  10.370   8.496  3.2472  2.3207 -1.5420
  922MOL0     H24412   5.874  10.259   8.401 -0.4803 -1.1620  3.6067
  922MOL0     H24413   6.146  10.185   8.511 -0.2428  1.2609 -2.4420
  922MOL0     H24414   5.985  10.165   8.604  3.1796 -0.4038  2.1242
  922MOL0     H24415   5.895  10.018   8.426  0.1866 -0.9368  2.4606
  922MOL0     H24416   6.048  10.037   8.337 -0.7636  1.8434 -1.2771
  922MOL0     H24417   5.992   9.823   8.502  2.8393 -3.2337  2.4319
  922MOL0     H24418   6.035   9.936   8.627  2.9130  0.8684  0.9184
  922MOL0     H24419   6.230   9.787   8.525 -2.1175  0.4949 -1.9669
  922MOL0     H24420   6.216   9.886   8.379 -2.0414 -0.3097 -1.5842
  922MOL0     H24421   6.203  10.027   8.752  0.7285  0.2539  1.1314
  922MOL0     H24422   6.521  10.236   8.796 -2.2537  2.4961 -1.5364
  922MOL0     H24423   6.350  10.226   8.838 -0.3707 -1.0232 -1.3861
  922MOL0     H24424   6.402   9.985   8.945  0.2010  0.5966  3.0483
  922MOL0     H24425   6.571  10.038   8.921  0.6147  0.5509 -0.3897
  922MOL0     H24426   6.531  10.238   9.065 -1.3262  0.9278  0.6255
  922MOL0     H24427   6.552  10.073   9.123  0.1862  0.5315  0.9802
  922MOL0     H24428   6.273  10.192   9.083  0.6670  0.5260 -0.7129
  922MOL0     H24429   6.356  10.224   9.234 -0.2357 -0.2077  0.2690
  922MOL0     H24430   6.321   9.798   9.129 -0.1167  0.2022  0.1288
  922MOL0     H24431   6.128   9.674   9.026 -1.3529  0.3376 -4.8251
  922MOL0     H24432   5.825   9.677   8.653 -1.3155  0.7146  0.0114
  922MOL0     H24433   5.670   9.519   8.553  2.1074  2.8588 -0.1276
  922MOL0     H24434   5.642   9.100   8.722 -0.5312 -0.0967 -0.4927
  922MOL0     H24435   5.520   9.188   8.812  2.5071  3.9129 -0.5159
  922MOL0     H24436   5.402   9.176   8.569  2.9945 -0.6977 -4.6433
  922MOL0     H24437   5.502   9.028   8.554 -1.0748 -1.6806  1.2960
  922MOL0     H24438   5.312   9.052   8.788  2.5220 -0.1044 -0.1228
  922MOL0     H24439   5.264   8.975   8.636  0.0992 -2.6760  0.2615
  922MOL0     H24440   5.343   8.815   8.804  1.6982 -0.1616  2.8468
  922MOL0     H24441   5.504   8.885   8.807  1.6684  0.2889 -2.0077
  922MOL0     H24442   5.555   8.818   8.598 -2.1729  2.0486 -2.1053
  922MOL0     H24443   5.395   8.792   8.547 -0.2238 -0.6567  0.3719
  922MOL0     H24444   5.555   8.602   8.731 -0.4437 -2.5392 -0.3604
  922MOL0     H24445   5.387   8.598   8.729  1.3215 -0.6966  0.5093
  922MOL0     H24446   5.375   8.529   8.507  0.9122 -1.8429 -2.2662
  922MOL0     H24447   5.487   8.435   8.585  2.5561  1.7337  1.5840
  922MOL0     H24448   5.684   8.582   8.496 -1.4497  1.8614  0.0278
  922MOL0     H24449   5.615   8.458   8.409  0.8314 -0.5082  3.5650
  922MOL0     H24450   5.680   9.270   8.919  1.1992 -1.8420 -0.0669
  922MOL0     H24451   5.822   9.421   9.008  0.5885 -2.2317 -2.0923
  922MOL0     H24452   5.884  10.052   9.066  1.9093  1.7315 -2.3878
  922MOL0     H24453   6.072  10.128   9.201 -0.8218  0.4868 -0.9594
  922MOL0     H24454   6.527  10.214   8.145 -1.8920  0.2408  0.8169
  922MOL0     H24455   6.716  10.235   7.991 -2.1414 -1.8393  0.1923
  922MOL0     H24456   6.802  10.451   7.596 -0.2261  0.1600 -4.8739
  922MOL0     H24457   6.925  10.493   7.397  3.6088  2.1626 -1.0530
  922MOL0     H24458   7.312  10.486   7.406  0.1166 -0.6939  0.3525
  922MOL0     H24459   7.336  10.654   7.466 -1.6002  1.3963 -0.4312
  922MOL0     H24460   7.277  10.676   7.195 -1.8341 -0.8398  2.1543
  922MOL0     H24461   7.392  10.535   7.222 -0.2336 -2.0090  4.2753
  922MOL0     H24462   7.552  10.678   7.327 -0.1737  0.0415 -1.6678
  922MOL0     H24463   7.447  10.823   7.319  1.3669 -0.2407  2.2727
  922MOL0     H24464   7.552  10.642   7.104 -2.6624 -0.7920  1.7133
  922MOL0     H24465   7.472  10.786   7.063 -1.4400 -1.4807  0.2687
  922MOL0     H24466   7.856  10.929   7.126 -3.2027  3.5531 -3.2999
  922MOL0     H24467   7.241  10.664   7.628  0.8089 -0.1583 -0.6449
  922MOL0     H24468   7.120  10.606   7.935  1.1699 -4.6827 -2.6821
  922MOL0     H24469   7.246  10.690   7.848  0.1483 -1.4181  1.3922
  922MOL0     H24470   7.103  10.778   7.880  2.7745  0.3474 -0.5539
  923MOL0     O24471   3.592  10.699   2.032 -0.5297  0.2006 -0.6487
  923MOL0     C24472   3.665  10.601   2.071  0.0284 -0.5861 -0.5283
  923MOL0     O24473   3.618  10.479   2.105  0.5128  0.4038  1.0387
  923MOL0     C24474   3.486  10.456   2.077  0.0674 -1.5244 -0.8219
  923MOL0     C24475   3.379  10.534   2.125  0.0954 -1.5263 -0.3373
  923MOL0     C24476   3.242  10.498   2.119 -0.3950  0.8031  0.2346
  923MOL0     C24477   3.215  10.370   2.067 -1.0953 -0.8864 -0.5552
  923MOL0     O24478   3.082  10.327   2.073 -0.7139  0.0170  0.7629
  923MOL0     C24479   3.065  10.221   1.978  0.3792  0.9135 -0.2785
  923MOL0     C24480   2.922  10.214   1.939 -0.1024  0.1901 -1.1752
  923MOL0     C24481   2.889  10.106   1.835 -0.0772  0.3216 -0.5675
  923MOL0     C24482   2.743  10.059   1.838 -0.7043  0.8126  1.0324
  923MOL0     C24483   2.640  10.178   1.793 -0.7434  0.4114  0.5583
  923MOL0     C24484   2.504  10.152   1.838  0.4011 -0.0027 -0.3108
  923MOL0     C24485   2.402  10.239   1.756  0.2000 -0.5422 -0.1929
  923MOL0     C24486   2.344  10.152   1.653  0.0543 -0.1270 -0.6482
  923MOL0     N24487   2.221  10.086   1.697 -0.2023 -0.3502  0.2740
  923MOL0     C24488   2.108  10.159   1.694  0.4691 -0.4863 -1.5064
  923MOL0     C24489   2.020  10.055   1.728 -0.0267  0.1738 -0.0282
  923MOL0     C24490   1.864  10.038   1.738 -0.5638 -0.1449 -0.4971
  923MOL0     C24491   1.821  10.028   1.585 -0.1540  0.4673 -0.3644
  923MOL0     C24492   1.686   9.971   1.559 -0.8510 -0.1031 -0.2591
  923MOL0     C24493   1.667   9.948   1.404 -0.3840 -0.6554  1.0908
  923MOL0     O24494   1.541   9.876   1.385 -1.3604 -0.2357 -0.4092
  923MOL0     C24495   1.425   9.929   1.413  0.0992  0.2207 -0.7032
  923MOL0     C24496   1.323   9.834   1.433  0.3301 -0.1982 -0.2644
  923MOL0     C24497   1.189   9.874   1.456  0.6221  0.6820 -0.6967
  923MOL0     C24498   1.148  10.005   1.459 -0.1241  0.0578  0.6075
  923MOL0     C24499   1.010  10.047   1.488 -0.3890  0.7898  0.0081
  923MOL0     O24500   0.916   9.945   1.493  0.1507 -0.6630  0.6896
  923MOL0     C24501   0.790   9.981   1.534  0.5665  0.0608 -0.7208
  923MOL0     C24502   0.681   9.942   1.450 -0.4748 -0.3547 -0.1019
  923MOL0     C24503   0.548   9.975   1.484  0.2421  0.6819 -0.1664
  923MOL0     C24504   0.517  10.037   1.602 -0.3228  0.5912  0.6440
  923MOL0     O24505   0.383  10.060   1.621 -0.0722 -0.1941 -0.2270
  923MOL0     C24506   0.325  10.025   1.751 -0.6135  0.1465  0.8936
  923MOL0     C24507   0.189  10.081   1.777  0.2353 -0.7334  0.1542
  923MOL0     C24508   0.077  10.007   1.723  0.0895 -0.0487  0.0632
  923MOL0     C24509  -0.056  10.062   1.781 -0.2050 -0.1410  0.0530
  923MOL0     C24510  -0.091  10.204   1.743  0.5226 -0.4038  0.1919
  923MOL0     C24511  -0.222  10.241   1.810  0.4021  0.5167  0.1093
  923MOL0     C24512  -0.283  10.375   1.782  0.8444  0.2345  1.0956
  923MOL0     C24513  -0.423  10.367   1.700  0.4640  0.3456 -0.0028
  923MOL0    Cl24514  -0.521  10.523   1.699 -0.0401  0.3260 -0.4066
  923MOL0     C24515   0.624  10.065   1.686 -0.8053  0.3110 -0.4780
  923MOL0     C24516   0.761  10.042   1.656 -0.8855  0.7398 -0.2669
  923MOL0     O24517   0.983  10.170   1.505  0.4797 -0.2381 -0.7974
  923MOL0     C24518   1.245  10.100   1.437 -0.0923  0.2758 -0.5252
  923MOL0     C24519   1.381  10.063   1.423 -0.7136  0.1751 -0.1656
  923MOL0     N24520   2.089   9.934   1.731  0.1876  0.3617 -0.2155
  923MOL0     N24521   2.208   9.957   1.712  0.2153  0.8399 -0.0302
  923MOL0     C24522   3.318  10.291   2.011 -0.0466 -0.6354  0.2317
  923MOL0     C24523   3.447  10.338   2.010  0.1487 -0.5087  0.6231
  923MOL0     C24524   3.818  10.620   2.062 -0.3491  0.6289 -0.0465
  923MOL0     C24525   3.885  10.503   2.024  0.1830  0.0882  0.2175
  923MOL0     C24526   4.022  10.505   2.023  0.1488  0.7764 -0.6727
  923MOL0     C24527   4.093  10.626   2.054 -0.7920  0.7514  0.0888
  923MOL0     O24528   4.233  10.647   2.051  0.6745 -0.4905  0.4424
  923MOL0     C24529   4.320  10.537   2.010  0.0393 -0.3720 -0.5662
  923MOL0     C24530   4.456  10.594   1.984 -0.3459 -0.0163 -0.0913
  923MOL0     C24531   4.460  10.684   1.859 -0.4752  0.6872 -0.6629
  923MOL0     C24532   4.598  10.745   1.836 -0.2461  0.7504 -0.1305
  923MOL0     C24533   4.602  10.866   1.752  0.3065  0.7029  0.2436
  923MOL0     C24534   4.628  10.945   1.664 -0.6801  0.2538  0.4782
  923MOL0     C24535   4.023  10.743   2.092  0.0033 -0.2292 -1.0363
  923MOL0     C24536   3.882  10.745   2.093 -0.1744 -0.5914  0.4742
  923MOL0     C24537   3.803  10.869   2.135 -0.8551  0.3825  0.3006
  923MOL0     H24538   3.403  10.631   2.166  3.6758 -3.4592  2.7545
  923MOL0     H24539   3.161  10.562   2.152 -0.8624  0.0174  0.6634
  923MOL0     H24540   3.111  10.225   1.879  1.2634 -0.7543  0.0221
  923MOL0     H24541   3.100  10.134   2.035 -2.0421  0.7126  1.0439
  923MOL0     H24542   2.891  10.309   1.894 -4.3821 -0.3499  0.0993
  923MOL0     H24543   2.875  10.201   2.037 -0.1360  0.8363 -1.0996
  923MOL0     H24544   2.957  10.022   1.850 -0.8291 -0.4255 -1.2429
  923MOL0     H24545   2.919  10.147   1.738 -0.6604 -1.4381 -1.5395
  923MOL0     H24546   2.736   9.966   1.782  5.0888  0.2635  0.6059
  923MOL0     H24547   2.724  10.038   1.944 -0.0325  0.4752  1.0918
  923MOL0     H24548   2.669  10.279   1.826 -0.6442  0.8652 -0.8453
  923MOL0     H24549   2.640  10.179   1.684 -0.1187  1.4598  0.5459
  923MOL0     H24550   2.465  10.050   1.831 -2.8573  1.0819  0.5984
  923MOL0     H24551   2.485  10.170   1.944  1.9100 -1.2259  0.2212
  923MOL0     H24552   2.471  10.319   1.727  1.0972 -1.5546 -0.9583
  923MOL0     H24553   2.324  10.287   1.816  1.2736  1.2714 -0.1664
  923MOL0     H24554   2.317  10.224   1.576 -0.0347 -0.6835 -1.1510
  923MOL0     H24555   2.423  10.079   1.629  0.5397  0.6879 -1.6044
  923MOL0     H24556   2.086  10.263   1.676  0.0179 -0.0747  1.0421
  923MOL0     H24557   1.836   9.951   1.798  1.6786  0.3939  1.4761
  923MOL0     H24558   1.818  10.124   1.787  1.5864  1.4664 -1.1408
  923MOL0     H24559   1.834  10.128   1.542  0.8834  1.3573  1.8357
  923MOL0     H24560   1.894   9.958   1.543  1.8501  1.1298  1.7251
  923MOL0     H24561   1.616  10.044   1.600 -0.3916  0.6856 -0.8389
  923MOL0     H24562   1.686   9.876   1.614  2.7988 -1.4572 -2.2335
  923MOL0     H24563   1.745   9.887   1.357 -0.8589 -0.2423 -0.2736
  923MOL0     H24564   1.673  10.041   1.347  2.0303 -2.5522 -2.1003
  923MOL0     H24565   1.339   9.727   1.428  3.8379 -0.0507  3.0499
  923MOL0     H24566   1.125   9.791   1.483  0.4737  1.3133  0.9938
  923MOL0     H24567   0.705   9.884   1.361 -0.7304 -0.3917 -0.1473
  923MOL0     H24568   0.469   9.931   1.423  0.1200  1.5009 -0.6209
  923MOL0     H24569   0.340   9.920   1.777  0.5103  0.5801  2.1383
  923MOL0     H24570   0.389  10.065   1.831  1.4623 -1.8408  0.3308
  923MOL0     H24571   0.170  10.108   1.882  0.3996 -0.8399  0.2120
  923MOL0     H24572   0.195  10.180   1.730  2.6423 -1.8536 -2.1176
  923MOL0     H24573   0.095  10.002   1.616  2.0894 -1.7402  0.4126
  923MOL0     H24574   0.095   9.904   1.755  2.9734 -0.2992 -2.0331
  923MOL0     H24575  -0.053  10.054   1.890 -1.6571  0.3816  0.1475
  923MOL0     H24576  -0.140   9.995   1.757 -0.3354 -0.7240  1.9810
  923MOL0     H24577  -0.111  10.215   1.636  0.7992 -1.7361 -0.0061
  923MOL0     H24578  -0.022  10.279   1.784  1.3061 -0.0470 -1.6747
  923MOL0     H24579  -0.285  10.154   1.787  0.6348 -0.0031  1.3499
  923MOL0     H24580  -0.210  10.228   1.918  0.9288 -0.4711 -0.0563
  923MOL0     H24581  -0.209  10.432   1.725 -0.7892  1.2087 -0.1395
  923MOL0     H24582  -0.309  10.411   1.882 -2.7688  0.2466  0.2916
  923MOL0     H24583  -0.410  10.324   1.601  0.3120 -2.5245  1.1164
  923MOL0     H24584  -0.493  10.290   1.735 -3.1564  2.8209 -1.1483
  923MOL0     H24585   0.598  10.115   1.779 -1.6276 -0.8974 -0.0378
  923MOL0     H24586   0.837  10.078   1.725  1.0430  1.1866 -2.5289
  923MOL0     H24587   1.215  10.203   1.421  2.0051  0.8913 -0.7610
  923MOL0     H24588   1.453  10.142   1.401  0.1032 -0.2187  0.9862
  923MOL0     H24589   3.301  10.193   1.967 -1.2790 -0.3671  0.0932
  923MOL0     H24590   3.519  10.268   1.967 -0.4091 -0.6789 -0.0505
  923MOL0     H24591   3.845  10.404   2.005 -0.1837 -1.2495  5.9714
  923MOL0     H24592   4.081  10.418   1.997 -0.4541  0.3433 -0.5937
  923MOL0     H24593   4.274  10.474   1.933  1.4474 -0.4325 -1.4107
  923MOL0     H24594   4.333  10.477   2.101  1.3150 -2.5391 -2.0768
  923MOL0     H24595   4.518  10.505   1.971  2.8490  1.9471  0.6336
  923MOL0     H24596   4.491  10.657   2.067  3.8895 -1.0956 -0.8042
  923MOL0     H24597   4.395  10.767   1.888  0.5286  1.5622 -0.8614
  923MOL0     H24598   4.426  10.633   1.769  0.7387  0.9703 -1.3035
  923MOL0     H24599   4.658  10.772   1.924  0.3346  3.1465 -1.1693
  923MOL0     H24600   4.657  10.670   1.782 -1.7585  0.2529 -1.1379
  923MOL0     H24601   4.638  11.005   1.575 -1.8295  0.6467  0.6000
  923MOL0     H24602   4.088  10.824   2.124  0.0419 -0.4426 -0.5737
  923MOL0     H24603   3.746  10.839   2.223 -0.4552 -0.6090  0.2327
  923MOL0     H24604   3.883  10.941   2.153  0.8814 -0.7598 -2.2050
  923MOL0     H24605   3.737  10.886   2.049  0.1794 -0.3216 -0.6636
  924MOL0     O24606  10.192   8.043  10.059 -0.0040  0.3945 -0.3904
  924MOL0     C24607  10.229   7.953  10.140  0.7105  0.3873 -0.1445
  924MOL0     O24608  10.248   7.977  10.265  0.3739 -0.7144  0.6111
  924MOL0     C24609  10.191   8.077  10.338  1.3933  0.2678  0.0233
  924MOL0     C24610  10.069   8.151  10.305 -0.2259  0.0060  0.9051
  924MOL0     C24611  10.022   8.240  10.400 -0.1387 -0.6845  0.0172
  924MOL0     C24612  10.082   8.269  10.523 -0.2855  0.3866  0.6089
  924MOL0     O24613  10.025   8.368  10.599 -0.3540  0.3991  0.0479
  924MOL0     C24614  10.100   8.429  10.708  0.0369  0.7405 -0.5569
  924MOL0     C24615  10.066   8.586  10.704  0.2410  0.3195 -0.4709
  924MOL0     C24616  10.094   8.654  10.565  0.7494 -0.2510  0.3768
  924MOL0     C24617  10.105   8.807  10.590 -0.1575 -0.0792  0.6470
  924MOL0     C24618  10.167   8.892  10.481 -0.6241  0.1218 -0.2639
  924MOL0     C24619  10.066   8.915  10.363 -0.0123  0.4807 -0.3938
  924MOL0     C24620   9.955   9.020  10.399 -0.7483  0.7436  0.3602
  924MOL0     C24621  10.018   9.151  10.450  0.1542 -0.4070  0.2035
  924MOL0     N24622   9.987   9.188  10.588  0.1076 -0.1270 -0.0058
  924MOL0     C24623   9.951   9.314  10.638 -0.2219  0.4362 -0.8922
  924MOL0     C24624   9.959   9.304  10.770  0.2346  0.1590  0.0678
  924MOL0     C24625   9.925   9.413  10.862 -0.4614 -0.1279  0.4640
  924MOL0     C24626  10.033   9.425  10.974 -0.2730 -0.0654 -0.4191
  924MOL0     C24627  10.181   9.444  10.942 -0.1536  0.4317 -0.6044
  924MOL0     C24628  10.273   9.472  11.066  0.2685 -0.0049  0.1456
  924MOL0     O24629  10.266   9.369  11.165 -0.4253  0.3614 -0.2354
  924MOL0     C24630  10.352   9.265  11.166 -0.2280  0.6945 -0.3213
  924MOL0     C24631  10.348   9.184  11.277 -1.7317 -0.9315 -0.5840
  924MOL0     C24632  10.429   9.071  11.296  0.0806 -0.1716 -0.5082
  924MOL0     C24633  10.521   9.035  11.192 -0.0295 -0.1542  0.8435
  924MOL0     C24634  10.623   8.926  11.224  0.5179 -0.6420  1.0393
  924MOL0     O24635  10.701   8.872  11.119  0.3234 -0.2965 -0.1096
  924MOL0     C24636  10.767   8.756  11.139  0.6731  0.3088 -0.3407
  924MOL0     C24637  10.907   8.750  11.111 -0.1840  0.3070  0.3467
  924MOL0     C24638  10.983   8.631  11.134 -0.5415 -0.7770  0.5176
  924MOL0     C24639  10.928   8.510  11.185  0.3209 -0.0781 -0.3578
  924MOL0     O24640  11.017   8.409  11.206 -0.2621  0.2031  0.2352
  924MOL0     C24641  10.963   8.279  11.243 -0.2299  0.2488 -0.5597
  924MOL0     C24642  11.068   8.187  11.303 -0.9199 -0.3199 -0.2436
  924MOL0     C24643  11.009   8.083  11.397  0.3117 -0.2749  0.5052
  924MOL0     C24644  10.965   8.141  11.525 -0.2042 -0.2147 -0.4149
  924MOL0     C24645  10.964   8.041  11.644 -0.1124 -0.1036  0.3886
  924MOL0     C24646  10.863   7.934  11.614 -0.1852 -0.1058 -0.4752
  924MOL0     C24647  10.814   7.852  11.733 -0.4961 -0.4266 -0.0482
  924MOL0     C24648  10.727   7.929  11.838  0.3185  1.4199  0.3500
  924MOL0    Cl24649  10.645   7.802  11.947 -0.0581 -0.0849  0.3795
  924MOL0     C24650  10.789   8.519  11.207  0.4287 -0.8606  0.9087
  924MOL0     C24651  10.708   8.634  11.193 -0.3809 -0.5053  0.9267
  924MOL0     O24652  10.635   8.900  11.344  0.1811 -0.7421 -0.2000
  924MOL0     C24653  10.521   9.112  11.069  0.2369  0.4710  1.1308
  924MOL0     C24654  10.439   9.230  11.056 -0.8436 -0.5278 -0.3047
  924MOL0     N24655   9.980   9.172  10.806 -0.0921 -0.3511 -0.3110
  924MOL0     N24656  10.002   9.107  10.701 -0.0106  0.4582  0.4747
  924MOL0     C24657  10.201   8.199  10.554 -0.0105  0.1800  0.4815
  924MOL0     C24658  10.247   8.101  10.469  0.4018  0.4724 -0.4067
  924MOL0     C24659  10.269   7.822  10.099  0.6686  0.0628  0.9353
  924MOL0     C24660  10.266   7.722  10.204  0.7566 -0.5016  0.6323
  924MOL0     C24661  10.299   7.592  10.187 -0.1446  0.6273  1.2528
  924MOL0     C24662  10.355   7.548  10.067 -0.5991 -0.1186 -0.0641
  924MOL0     O24663  10.385   7.412  10.068 -0.9931 -0.0694 -0.2845
  924MOL0     C24664  10.413   7.341   9.948  1.3474 -0.4419  0.2062
  924MOL0     C24665  10.278   7.314   9.879  0.4437 -0.8224  1.3637
  924MOL0     C24666  10.309   7.206   9.770 -0.2439  0.1581 -0.8484
  924MOL0     C24667  10.172   7.159   9.707 -0.6047  0.4598 -0.1306
  924MOL0     C24668  10.202   7.092   9.579  0.1350  0.2564  0.6211
  924MOL0     C24669  10.228   7.044   9.468 -0.2605  0.4025  0.4504
  924MOL0     C24670  10.367   7.642   9.960 -0.1284 -0.0867 -0.3022
  924MOL0     C24671  10.331   7.780   9.979  1.1069  0.5131  1.0402
  924MOL0     C24672  10.356   7.863   9.851 -0.2086 -0.2423  0.4707
  924MOL0     H24673  10.012   8.129  10.215  0.7880 -0.1679  0.2856
  924MOL0     H24674   9.938   8.305  10.377  0.8397  0.0956 -1.5401
  924MOL0     H24675  10.077   8.380  10.803  1.8776  0.8038 -0.0422
  924MOL0     H24676  10.209   8.427  10.696  0.3365 -0.9199  1.7175
  924MOL0     H24677  10.129   8.626  10.784 -1.3809 -1.4826  1.8673
  924MOL0     H24678   9.963   8.602  10.739  0.2411 -0.9032  0.1156
  924MOL0     H24679  10.009   8.620  10.505 -0.9090 -0.7263  2.8548
  924MOL0     H24680  10.188   8.621  10.519  1.5873 -1.4209  2.7866
  924MOL0     H24681  10.013   8.852  10.627  0.5190  0.9692  1.1102
  924MOL0     H24682  10.173   8.799  10.676  0.8399 -2.7701 -0.2673
  924MOL0     H24683  10.195   8.987  10.528  0.9690 -0.3123 -0.2905
  924MOL0     H24684  10.254   8.851  10.430 -0.5548  1.6338 -1.4523
  924MOL0     H24685  10.106   8.957  10.270  1.1483  0.0101 -0.1335
  924MOL0     H24686  10.023   8.816  10.344  0.7463 -0.2524  1.4642
  924MOL0     H24687   9.893   8.980  10.479 -0.6271 -2.1923 -0.8741
  924MOL0     H24688   9.895   9.029  10.308 -5.2501 -2.3304  2.6613
  924MOL0     H24689  10.127   9.150  10.437  0.3986 -1.1835  1.9545
  924MOL0     H24690   9.972   9.227  10.386 -1.3035 -1.5322 -0.1455
  924MOL0     H24691   9.908   9.400  10.587  2.4031  2.1702 -0.3372
  924MOL0     H24692   9.922   9.508  10.806 -0.7737  1.2057  2.6219
  924MOL0     H24693   9.822   9.393  10.893 -0.4451  1.3125  1.5363
  924MOL0     H24694   9.999   9.514  11.029 -1.3799 -0.8376  0.1834
  924MOL0     H24695  10.019   9.344  11.046 -2.6779  0.6612  0.0160
  924MOL0     H24696  10.184   9.526  10.869 -1.1467  1.0022 -0.0302
  924MOL0     H24697  10.212   9.349  10.899 -1.2928 -0.2469  0.0469
  924MOL0     H24698  10.243   9.562  11.122  3.3748  1.0429  0.3369
  924MOL0     H24699  10.374   9.492  11.029  0.2240 -0.2967 -0.1291
  924MOL0     H24700  10.282   9.185  11.364 -1.7245 -2.6561 -0.5235
  924MOL0     H24701  10.415   9.007  11.383  0.7935  0.3211 -0.0217
  924MOL0     H24702  10.940   8.849  11.082  2.4510 -0.3638  0.7758
  924MOL0     H24703  11.090   8.622  11.117 -0.7153 -1.4652 -0.2950
  924MOL0     H24704  10.885   8.300  11.316 -0.8590  2.5421 -1.8152
  924MOL0     H24705  10.921   8.232  11.154 -3.7378 -0.5400  1.3321
  924MOL0     H24706  11.120   8.132  11.224  0.3789 -0.2839  0.5613
  924MOL0     H24707  11.144   8.247  11.354 -0.5342 -0.9083 -0.1214
  924MOL0     H24708  10.934   8.016  11.354  0.1366 -0.9622  1.8400
  924MOL0     H24709  11.092   8.018  11.424  0.3037  0.5945  2.8342
  924MOL0     H24710  10.862   8.171  11.503 -0.5954 -0.8816  0.4222
  924MOL0     H24711  11.023   8.230  11.549 -2.9108  1.7080 -0.5876
  924MOL0     H24712  10.942   8.088  11.740 -0.5045  0.7663 -0.1073
  924MOL0     H24713  11.065   8.003  11.658  0.4491  1.1901  0.0747
  924MOL0     H24714  10.766   7.973  11.584 -2.4859 -2.6426  2.8206
  924MOL0     H24715  10.908   7.866  11.541  0.3112 -0.9885  0.6090
  924MOL0     H24716  10.899   7.818  11.794  0.7770  3.2953  0.5438
  924MOL0     H24717  10.762   7.763  11.697  2.4535 -3.2206  2.0178
  924MOL0     H24718  10.785   7.999  11.899  1.2309  1.4794 -0.5646
  924MOL0     H24719  10.643   7.985  11.795 -0.4631 -0.1328 -0.2251
  924MOL0     H24720  10.740   8.434  11.253  1.5490 -1.5009  0.9513
  924MOL0     H24721  10.603   8.649  11.217 -0.8666  2.6355 -2.2384
  924MOL0     H24722  10.597   9.099  10.993 -0.0796 -3.2319  1.2553
  924MOL0     H24723  10.450   9.293  10.968  1.8264  0.5227  0.6666
  924MOL0     H24724  10.251   8.224  10.647  1.9494 -3.8286  0.7181
  924MOL0     H24725  10.331   8.038  10.494 -0.9461 -1.9500 -1.6310
  924MOL0     H24726  10.214   7.735  10.298 -2.5681  0.0377 -1.1066
  924MOL0     H24727  10.272   7.528  10.270 -0.1275 -0.8740  0.1420
  924MOL0     H24728  10.437   7.240   9.982  0.1725 -0.4709  1.0260
  924MOL0     H24729  10.493   7.392   9.894  0.0793 -0.8213 -2.1794
  924MOL0     H24730  10.246   7.408   9.833  0.4454 -0.9897  1.0170
  924MOL0     H24731  10.197   7.282   9.945 -0.4198 -1.5712 -0.0176
  924MOL0     H24732  10.361   7.119   9.810  0.5396  1.4331  1.0919
  924MOL0     H24733  10.372   7.245   9.689  2.6565 -1.0020  0.7049
  924MOL0     H24734  10.107   7.111   9.781 -0.7571  3.4474  1.8427
  924MOL0     H24735  10.122   7.253   9.681  3.3085  3.3384  1.7961
  924MOL0     H24736  10.243   6.988   9.378 -1.2989 -1.0709  1.1463
  924MOL0     H24737  10.409   7.618   9.864 -1.2240 -0.3608 -0.7324
  924MOL0     H24738  10.361   7.801   9.761  0.0055  1.1145 -0.4747
  924MOL0     H24739  10.283   7.943   9.835  0.9150  0.4435 -1.4451
  924MOL0     H24740  10.454   7.911   9.859 -1.0285  1.2239  2.6110
  925MOL0     O24741   4.331   9.850   5.442 -0.0466 -0.2397  0.3721
  925MOL0     C24742   4.254   9.768   5.494 -0.1529  0.5743 -0.0462
  925MOL0     O24743   4.122   9.795   5.526 -0.0425 -0.4317 -0.4952
  925MOL0     C24744   4.070   9.919   5.485 -0.6077 -0.7242  0.8825
  925MOL0     C24745   4.052  10.013   5.583  0.3159  0.8783 -0.4100
  925MOL0     C24746   3.999  10.142   5.552 -0.3129  0.4367  0.6921
  925MOL0     C24747   3.971  10.163   5.413  0.5242 -0.0693  0.1476
  925MOL0     O24748   3.924  10.285   5.384  0.7664  0.2900  0.4110
  925MOL0     C24749   3.976  10.348   5.272 -0.3548  0.2143  0.7884
  925MOL0     C24750   3.857  10.380   5.179  0.7687  0.1685 -0.2146
  925MOL0     C24751   3.879  10.467   5.050  0.8503  0.1149  0.4869
  925MOL0     C24752   3.761  10.473   4.943  0.4809 -0.5504  0.6739
  925MOL0     C24753   3.709  10.339   4.914  0.8996 -0.1624 -0.5960
  925MOL0     C24754   3.597  10.363   4.807  0.1116 -0.0539 -0.1255
  925MOL0     C24755   3.550  10.228   4.739  0.0711 -0.0429  0.4339
  925MOL0     C24756   3.407  10.181   4.791  0.4219  0.6995  0.1973
  925MOL0     N24757   3.377  10.039   4.763  0.5538 -0.6863  0.5226
  925MOL0     C24758   3.409   9.939   4.846 -0.2589 -0.4568 -0.0867
  925MOL0     C24759   3.380   9.824   4.783  0.3723 -0.2117  0.7778
  925MOL0     C24760   3.419   9.688   4.838  0.5701 -0.4235 -0.5819
  925MOL0     C24761   3.296   9.606   4.868 -0.4297 -0.6274 -0.8304
  925MOL0     C24762   3.185   9.688   4.947 -1.0555  0.3115 -0.2092
  925MOL0     C24763   3.229   9.711   5.087 -0.1263 -0.8829 -1.0841
  925MOL0     O24764   3.152   9.814   5.146 -0.0347  0.9238 -0.1407
  925MOL0     C24765   3.027   9.772   5.190 -0.0857  0.2892  0.3036
  925MOL0     C24766   2.934   9.867   5.233 -0.0095 -0.2004 -0.8021
  925MOL0     C24767   2.807   9.834   5.284 -0.0142  0.2939 -0.3483
  925MOL0     C24768   2.775   9.702   5.307  0.5409 -1.2902 -0.4905
  925MOL0     C24769   2.641   9.677   5.363 -0.1567 -0.0049 -0.0142
  925MOL0     O24770   2.598   9.548   5.383 -0.4108 -1.0051 -0.8207
  925MOL0     C24771   2.470   9.507   5.418 -1.3192  0.4872  0.0536
  925MOL0     C24772   2.457   9.366   5.418  0.2015 -1.1133  0.2592
  925MOL0     C24773   2.329   9.303   5.449 -0.4057  0.0242 -0.2585
  925MOL0     C24774   2.216   9.376   5.496 -0.5532 -0.4273  1.3270
  925MOL0     O24775   2.099   9.308   5.522 -0.0835  0.0094 -0.1113
  925MOL0     C24776   1.990   9.383   5.566  0.7168  0.1244  0.9707
  925MOL0     C24777   1.895   9.277   5.623 -0.3983  0.8005 -0.5800
  925MOL0     C24778   1.744   9.314   5.661 -0.1310 -1.0498  0.3671
  925MOL0     C24779   1.680   9.205   5.728 -0.5864 -0.7941 -0.8380
  925MOL0     C24780   1.566   9.253   5.820 -0.3464  0.4691  0.0831
  925MOL0     C24781   1.485   9.146   5.894 -0.4727 -0.2051  0.1671
  925MOL0     C24782   1.403   9.212   6.001  0.6412 -0.5523  0.0415
  925MOL0     C24783   1.351   9.122   6.105  0.7270  0.7969 -0.0153
  925MOL0    Cl24784   1.476   9.030   6.189  0.1898  0.2384 -0.5789
  925MOL0     C24785   2.238   9.516   5.485  0.4301  0.3104 -0.5666
  925MOL0     C24786   2.357   9.581   5.452  0.0093  0.3926  0.3314
  925MOL0     O24787   2.568   9.779   5.371 -0.1102  0.3370 -0.0089
  925MOL0     C24788   2.866   9.599   5.269 -0.2507 -0.5133  0.2694
  925MOL0     C24789   2.993   9.632   5.216  0.1065  0.0020  0.1551
  925MOL0     N24790   3.314   9.850   4.664 -0.0608  0.2790 -0.0995
  925MOL0     N24791   3.322   9.983   4.648 -0.1215  0.3231 -0.4167
  925MOL0     C24792   3.992  10.066   5.314 -0.5238  0.3916 -0.4892
  925MOL0     C24793   4.048   9.942   5.347 -0.1323 -0.4310  0.2232
  925MOL0     C24794   4.304   9.636   5.504  0.8206  0.0380 -0.4306
  925MOL0     C24795   4.235   9.548   5.588  1.5279  0.4418  0.7311
  925MOL0     C24796   4.274   9.415   5.598  0.2858 -0.2476 -0.2842
  925MOL0     C24797   4.369   9.360   5.527 -0.7970  0.1802 -0.1113
  925MOL0     O24798   4.422   9.232   5.539 -0.9893 -0.2157  0.2088
  925MOL0     C24799   4.338   9.138   5.611 -0.9088 -0.7405 -0.2085
  925MOL0     C24800   4.394   8.996   5.616  0.6839  0.4557  0.9433
  925MOL0     C24801   4.397   8.950   5.465  0.1928  0.6064  1.1817
  925MOL0     C24802   4.541   8.934   5.400 -0.2771 -1.3169 -0.0260
  925MOL0     C24803   4.628   8.840   5.470 -0.1777 -0.0239  0.1423
  925MOL0     C24804   4.702   8.754   5.514  0.9001 -0.2475 -0.2078
  925MOL0     C24805   4.432   9.447   5.447 -1.3477 -0.5187 -0.0327
  925MOL0     C24806   4.407   9.582   5.425 -0.0986  0.2612  0.2740
  925MOL0     C24807   4.475   9.648   5.301  0.2890  0.7680 -0.0384
  925MOL0     H24808   4.050   9.987   5.688  1.9026  1.5704 -0.1778
  925MOL0     H24809   3.977  10.217   5.627 -0.3435  0.7852  0.3410
  925MOL0     H24810   4.026  10.441   5.300 -0.2154 -0.1383  1.7335
  925MOL0     H24811   4.051  10.289   5.218  1.5903  0.4943  3.0181
  925MOL0     H24812   3.790  10.437   5.244 -0.7944 -2.3126  0.4872
  925MOL0     H24813   3.804  10.288   5.153  0.2285  0.4843 -0.2630
  925MOL0     H24814   3.969  10.433   4.997  0.5725 -0.4349  0.3586
  925MOL0     H24815   3.893  10.570   5.083 -1.0524  0.8074 -0.7522
  925MOL0     H24816   3.689  10.532   5.000  1.2069  0.7949  0.2499
  925MOL0     H24817   3.791  10.530   4.855 -1.1834 -0.5848  0.0529
  925MOL0     H24818   3.787  10.278   4.868  0.2718  1.3443 -3.9203
  925MOL0     H24819   3.666  10.298   5.007 -0.1120  0.0723 -0.9463
  925MOL0     H24820   3.507  10.412   4.846 -1.9579 -2.8869 -0.9865
  925MOL0     H24821   3.643  10.420   4.725 -1.2616  1.3141  0.0031
  925MOL0     H24822   3.620  10.149   4.771  3.0073  3.0481  2.3839
  925MOL0     H24823   3.548  10.223   4.630 -1.6231  0.8615  0.3931
  925MOL0     H24824   3.394  10.191   4.899  1.2824 -0.5485  0.4393
  925MOL0     H24825   3.326  10.237   4.744  0.0202 -1.2423 -1.5729
  925MOL0     H24826   3.443   9.949   4.949 -0.2461 -1.6956  0.0350
  925MOL0     H24827   3.483   9.637   4.766  1.9726  0.2704  0.1253
  925MOL0     H24828   3.481   9.707   4.926  3.5763  3.4118 -3.1840
  925MOL0     H24829   3.243   9.584   4.776 -1.3116  1.0800 -0.7652
  925MOL0     H24830   3.327   9.518   4.924  0.2208 -0.7969 -1.4357
  925MOL0     H24831   3.095   9.626   4.946  0.7128 -2.4641  1.5857
  925MOL0     H24832   3.163   9.782   4.894 -0.5698  0.6287  0.1451
  925MOL0     H24833   3.330   9.752   5.080 -0.1345 -0.8801 -1.1939
  925MOL0     H24834   3.233   9.618   5.146 -4.6838 -1.2176 -0.9027
  925MOL0     H24835   2.965   9.971   5.236  0.1727 -0.2741  0.4479
  925MOL0     H24836   2.750   9.925   5.299 -1.1664 -0.4087 -0.3238
  925MOL0     H24837   2.546   9.308   5.397  0.1987 -0.9601 -0.1973
  925MOL0     H24838   2.314   9.196   5.439  2.2389 -0.7567  2.6308
  925MOL0     H24839   1.997   9.461   5.642 -2.0416  0.2632  1.1929
  925MOL0     H24840   1.950   9.434   5.478  0.6102 -0.5007  0.6446
  925MOL0     H24841   1.900   9.201   5.544  0.7294 -1.0650  1.1977
  925MOL0     H24842   1.952   9.232   5.704  0.5403 -0.6278 -1.9720
  925MOL0     H24843   1.742   9.400   5.729  1.4883 -0.4950 -0.2168
  925MOL0     H24844   1.681   9.339   5.575 -0.2618 -1.5031  0.3337
  925MOL0     H24845   1.754   9.151   5.789 -1.7098  0.1202  1.4205
  925MOL0     H24846   1.642   9.141   5.647 -3.3748 -0.6276  0.2243
  925MOL0     H24847   1.487   9.306   5.766 -0.6018 -1.1873 -1.2512
  925MOL0     H24848   1.626   9.314   5.888  1.9254 -0.9014 -0.5676
  925MOL0     H24849   1.438   9.084   5.818  0.9889 -0.8684 -0.2320
  925MOL0     H24850   1.552   9.079   5.949 -1.5396 -0.6868  0.9041
  925MOL0     H24851   1.315   9.251   5.949  0.5947 -0.1200  0.4330
  925MOL0     H24852   1.456   9.293   6.052 -1.2341  1.9242 -1.6981
  925MOL0     H24853   1.285   9.179   6.171 -1.0873 -2.4953  1.2499
  925MOL0     H24854   1.282   9.055   6.054  2.2531 -0.3520 -0.6355
  925MOL0     H24855   2.159   9.584   5.514 -0.7064 -1.9042  1.9305
  925MOL0     H24856   2.352   9.688   5.438  0.4887  0.6795  2.1039
  925MOL0     H24857   2.838   9.495   5.280  2.0879 -1.2075  0.1586
  925MOL0     H24858   3.040   9.542   5.178 -0.4863 -0.6240  0.8694
  925MOL0     H24859   3.945  10.071   5.217  1.0640  0.4208 -1.2915
  925MOL0     H24860   4.065   9.860   5.278  1.1476  1.4956 -1.8613
  925MOL0     H24861   4.156   9.591   5.649 -1.8312 -1.4768 -1.8692
  925MOL0     H24862   4.222   9.356   5.673 -0.9525  0.3236 -0.6703
  925MOL0     H24863   4.243   9.127   5.557 -0.4157  1.2119 -1.5649
  925MOL0     H24864   4.318   9.178   5.711  2.8905 -1.2589  0.9072
  925MOL0     H24865   4.337   8.932   5.683 -0.7410  1.7121  0.9936
  925MOL0     H24866   4.498   8.991   5.649  1.3300  1.9173 -0.7200
  925MOL0     H24867   4.332   9.010   5.401  0.6154 -0.0618  0.0968
  925MOL0     H24868   4.352   8.850   5.462 -2.2986  1.6485  1.0420
  925MOL0     H24869   4.536   8.896   5.298  0.6247 -1.4139 -0.0426
  925MOL0     H24870   4.596   9.028   5.394 -2.1040 -0.0913  1.2763
  925MOL0     H24871   4.758   8.668   5.545  0.1602 -0.2444  1.2115
  925MOL0     H24872   4.498   9.397   5.377 -3.2298 -0.9147 -1.5955
  925MOL0     H24873   4.416   9.669   5.212  2.3527 -1.4960 -2.0784
  925MOL0     H24874   4.521   9.744   5.325  0.0577  1.4025 -1.9533
  925MOL0     H24875   4.561   9.586   5.276  0.6538  0.3346  2.1124
  926MOL0     O24876   6.088   1.922   0.535  0.2682  0.2688 -0.8096
  926MOL0     C24877   6.034   1.845   0.611  0.8872  0.4090 -0.4154
  926MOL0     O24878   6.076   1.814   0.735 -0.0191  0.6364  0.7187
  926MOL0     C24879   6.213   1.820   0.746  0.6214  0.5589  0.0964
  926MOL0     C24880   6.268   1.941   0.768  0.6661 -0.6864  0.4835
  926MOL0     C24881   6.408   1.961   0.774 -0.2970  0.6720  0.3221
  926MOL0     C24882   6.494   1.854   0.758 -0.5250  1.0584 -1.3405
  926MOL0     O24883   6.632   1.870   0.771  1.4006  0.0008 -0.5719
  926MOL0     C24884   6.700   1.777   0.856 -0.7262 -0.5066  0.0342
  926MOL0     C24885   6.850   1.818   0.852 -0.5532  0.6907 -0.5278
  926MOL0     C24886   6.941   1.714   0.928 -0.4133  0.0118  0.2950
  926MOL0     C24887   7.085   1.720   0.883 -0.2034 -0.6865 -0.7423
  926MOL0     C24888   7.169   1.600   0.938  0.7240  1.3341 -0.5292
  926MOL0     C24889   7.182   1.584   1.085 -0.2896 -0.8604  0.1969
  926MOL0     C24890   7.236   1.455   1.138 -0.7388 -0.3848 -0.5266
  926MOL0     C24891   7.358   1.468   1.237  0.3516  0.8044  0.1386
  926MOL0     N24892   7.400   1.326   1.268 -0.1541  0.2138 -0.3262
  926MOL0     C24893   7.512   1.263   1.225 -0.4250  0.5769  0.1582
  926MOL0     C24894   7.508   1.143   1.288  0.6326  0.2989  0.0445
  926MOL0     C24895   7.622   1.040   1.266 -0.5728 -0.3673  0.4997
  926MOL0     C24896   7.736   1.058   1.360 -0.0873  0.0011  0.5107
  926MOL0     C24897   7.821   0.931   1.351  0.6231  0.3625  0.7696
  926MOL0     C24898   7.936   0.943   1.449  0.1249  0.2916  0.2182
  926MOL0     O24899   8.015   1.050   1.408 -0.1720 -0.4082  0.1215
  926MOL0     C24900   8.093   1.104   1.500  0.3768  0.5612  0.5731
  926MOL0     C24901   8.026   1.167   1.599  0.2465  0.6787  0.3918
  926MOL0     C24902   8.092   1.218   1.707  0.7372 -0.0772  0.3383
  926MOL0     C24903   8.235   1.215   1.711  0.2341 -0.1461 -0.8301
  926MOL0     C24904   8.308   1.264   1.834 -0.1366 -0.3720  0.6698
  926MOL0     O24905   8.442   1.257   1.819  0.5708  0.6523  0.3841
  926MOL0     C24906   8.523   1.230   1.929 -0.4408 -0.4624 -0.0096
  926MOL0     C24907   8.501   1.229   2.066  0.0240 -0.0731 -0.3025
  926MOL0     C24908   8.604   1.213   2.162 -0.7439 -0.2692  1.2414
  926MOL0     C24909   8.739   1.187   2.115  0.0093  1.0692  0.5127
  926MOL0     O24910   8.836   1.162   2.208  0.4696 -0.1565  0.5742
  926MOL0     C24911   8.972   1.193   2.174  0.4812  0.1770 -0.6620
  926MOL0     C24912   9.060   1.072   2.162 -0.1595 -0.6368 -0.2461
  926MOL0     C24913   9.203   1.107   2.145 -0.3182 -1.5006  0.4885
  926MOL0     C24914   9.283   0.993   2.100  0.3576  1.2491 -0.0087
  926MOL0     C24915   9.432   1.021   2.127 -0.4384 -0.6488 -0.4000
  926MOL0     C24916   9.528   0.907   2.105 -0.3485  0.3467 -0.1483
  926MOL0     C24917   9.670   0.952   2.140 -0.5769  0.2133  0.2876
  926MOL0     C24918   9.764   0.831   2.182 -0.2074 -0.6498  0.2647
  926MOL0    Cl24919   9.928   0.898   2.219 -0.0457 -0.1245 -0.0040
  926MOL0     C24920   8.762   1.177   1.974  0.4185 -0.3803  0.0885
  926MOL0     C24921   8.655   1.207   1.881 -0.7653  0.3041 -0.1975
  926MOL0     O24922   8.242   1.311   1.926 -0.0241  0.8266  0.3407
  926MOL0     C24923   8.299   1.160   1.599 -0.7670 -0.7903  0.5406
  926MOL0     C24924   8.234   1.094   1.499  0.6921  0.5051 -0.0207
  926MOL0     N24925   7.395   1.134   1.370  0.4073  0.1834  0.8114
  926MOL0     N24926   7.334   1.248   1.363 -0.0925 -0.4343  0.6425
  926MOL0     C24927   6.433   1.727   0.743  0.1364 -0.1402  1.2280
  926MOL0     C24928   6.296   1.712   0.734 -0.1856 -0.3858 -0.3422
  926MOL0     C24929   5.901   1.790   0.586  0.2381 -0.9612 -0.4242
  926MOL0     C24930   5.788   1.866   0.629 -0.1943 -0.2055  0.0651
  926MOL0     C24931   5.662   1.808   0.606 -0.6080 -0.6894  0.6149
  926MOL0     C24932   5.635   1.690   0.545 -0.0533 -0.5761  1.2981
  926MOL0     O24933   5.513   1.626   0.517 -0.3995 -0.2446  0.2302
  926MOL0     C24934   5.399   1.719   0.521 -0.1514  0.3279  0.4695
  926MOL0     C24935   5.395   1.841   0.424 -0.3006 -0.7787  0.6290
  926MOL0     C24936   5.407   1.817   0.271 -0.2948  0.3163 -0.0709
  926MOL0     C24937   5.319   1.700   0.222  0.4098 -0.0230 -0.5225
  926MOL0     C24938   5.317   1.693   0.082  0.5326  1.2096  0.8993
  926MOL0     C24939   5.303   1.684  -0.043  0.0551 -0.5710  0.1568
  926MOL0     C24940   5.747   1.623   0.497 -0.0024  0.2648 -0.2840
  926MOL0     C24941   5.880   1.668   0.525  0.0436 -0.4478  0.4147
  926MOL0     C24942   5.988   1.574   0.470 -0.4403 -0.1548 -0.9257
  926MOL0     H24943   6.205   2.030   0.769  1.4605 -0.0561  3.3556
  926MOL0     H24944   6.458   2.057   0.784  1.7250 -0.4072  1.1583
  926MOL0     H24945   6.653   1.789   0.954  2.9013  0.3197  1.8265
  926MOL0     H24946   6.693   1.674   0.819  1.7937 -1.2334  1.3802
  926MOL0     H24947   6.861   1.918   0.894 -1.1363 -0.1260  1.7341
  926MOL0     H24948   6.888   1.810   0.750  2.1316  2.1754  0.2558
  926MOL0     H24949   6.904   1.613   0.909 -1.9205  0.7375 -0.7880
  926MOL0     H24950   6.935   1.734   1.035 -1.5214 -1.6962  0.5823
  926MOL0     H24951   7.090   1.716   0.774  2.3624 -0.3315 -0.6783
  926MOL0     H24952   7.133   1.810   0.922 -1.9450  0.1628 -0.4281
  926MOL0     H24953   7.125   1.507   0.902 -2.9992  2.7852 -0.1695
  926MOL0     H24954   7.269   1.599   0.893  0.6363 -1.0861 -0.8126
  926MOL0     H24955   7.252   1.654   1.133 -0.6336 -1.3979  1.5413
  926MOL0     H24956   7.084   1.606   1.128  1.1689  4.2801  1.7167
  926MOL0     H24957   7.270   1.400   1.050  1.2071 -1.0007  0.5516
  926MOL0     H24958   7.152   1.409   1.190  0.0426  0.3030  1.4339
  926MOL0     H24959   7.436   1.517   1.178 -0.1342 -0.7087 -1.8784
  926MOL0     H24960   7.329   1.530   1.322 -1.3634 -1.0870  1.0341
  926MOL0     H24961   7.584   1.295   1.151  0.0580 -0.2710  0.2426
  926MOL0     H24962   7.573   0.942   1.261 -0.2635 -0.5426  0.7899
  926MOL0     H24963   7.669   1.059   1.169  3.1733 -0.0526  2.1988
  926MOL0     H24964   7.783   1.151   1.325  0.0119  0.1879  1.1394
  926MOL0     H24965   7.693   1.081   1.458  0.3256  2.0189  0.2645
  926MOL0     H24966   7.846   0.917   1.246 -4.4900  3.0024 -1.1492
  926MOL0     H24967   7.769   0.844   1.393 -1.7752  1.5552  0.3956
  926MOL0     H24968   7.997   0.853   1.437 -2.6678 -1.3502 -4.9775
  926MOL0     H24969   7.894   0.941   1.550  0.6659 -1.3482  0.4530
  926MOL0     H24970   7.918   1.175   1.607  0.2526 -0.6938  2.7597
  926MOL0     H24971   8.034   1.264   1.787 -0.2118  1.4504 -1.1434
  926MOL0     H24972   8.396   1.243   2.090 -0.1866  0.0488 -1.2463
  926MOL0     H24973   8.584   1.221   2.268 -2.6047  2.5427  0.7875
  926MOL0     H24974   8.996   1.259   2.090  3.2851  2.2905  1.5853
  926MOL0     H24975   9.017   1.248   2.257 -1.2984 -0.3320  0.6730
  926MOL0     H24976   9.061   1.012   2.254  2.9384  1.9897  1.6972
  926MOL0     H24977   9.019   1.015   2.078  0.6571  1.8313 -2.4572
  926MOL0     H24978   9.214   1.182   2.066  0.5265 -1.7953  0.3184
  926MOL0     H24979   9.238   1.150   2.240 -1.2207  0.9440 -0.2031
  926MOL0     H24980   9.275   0.978   1.992  4.3722  0.8990 -0.4107
  926MOL0     H24981   9.248   0.903   2.150  1.4275  0.3779 -0.7754
  926MOL0     H24982   9.439   1.051   2.232  0.0621 -1.7987 -0.0845
  926MOL0     H24983   9.453   1.113   2.071  0.5134 -0.7701 -0.2687
  926MOL0     H24984   9.494   0.825   2.170  1.0612 -2.4548 -2.6672
  926MOL0     H24985   9.527   0.875   2.001  2.0382  1.5588 -0.6152
  926MOL0     H24986   9.664   1.025   2.221  0.2048 -1.3256  1.7843
  926MOL0     H24987   9.721   0.998   2.055  1.1458 -3.8497 -1.1541
  926MOL0     H24988   9.732   0.774   2.269  2.1125 -2.9644 -0.2612
  926MOL0     H24989   9.766   0.772   2.090 -0.2158 -2.3847  1.3475
  926MOL0     H24990   8.862   1.144   1.948  1.6439  1.6640  1.9116
  926MOL0     H24991   8.677   1.203   1.775 -0.8868  0.5356 -0.2320
  926MOL0     H24992   8.407   1.152   1.598 -0.6728 -1.1565  3.7505
  926MOL0     H24993   8.281   1.044   1.415  0.5963  0.4713 -0.0543
  926MOL0     H24994   6.502   1.650   0.709 -1.0078 -0.0514 -1.5034
  926MOL0     H24995   6.257   1.613   0.714 -1.1338 -0.3515  1.2080
  926MOL0     H24996   5.800   1.943   0.704  3.3998  0.9606 -1.4533
  926MOL0     H24997   5.591   1.871   0.659  0.7149 -0.1006  1.7387
  926MOL0     H24998   5.367   1.739   0.624 -1.3638 -2.0355  0.6329
  926MOL0     H24999   5.326   1.649   0.480  0.5861  2.5967 -5.6948
  926MOL0     H25000   5.483   1.898   0.456 -0.6760 -0.4262  1.0452
  926MOL0     H25001   5.308   1.902   0.452  0.2775 -0.6973  2.3637
  926MOL0     H25002   5.511   1.790   0.252  0.0646  0.8816  0.9823
  926MOL0     H25003   5.385   1.911   0.219  1.5382  1.5410  1.2422
  926MOL0     H25004   5.353   1.604   0.262 -0.4605 -1.3317 -2.7746
  926MOL0     H25005   5.218   1.716   0.262  1.2639  0.1101  1.6837
  926MOL0     H25006   5.288   1.685  -0.149  2.1177 -2.5459 -0.2390
  926MOL0     H25007   5.729   1.530   0.444 -4.8033  2.3433 -2.9807
  926MOL0     H25008   6.058   1.552   0.550 -0.8594 -1.3003 -0.8499
  926MOL0     H25009   5.947   1.475   0.446  1.0447 -1.4813  1.6202
  926MOL0     H25010   6.042   1.598   0.378  3.6900 -1.6942  0.8520
  927MOL0     O25011   7.176   5.635  11.352 -0.1906 -0.0968  0.4607
  927MOL0     C25012   7.097   5.614  11.270  1.4222 -0.7125 -0.5089
  927MOL0     O25013   7.107   5.518  11.176 -0.0505  0.0928 -0.0681
  927MOL0     C25014   7.223   5.457  11.177 -0.4878 -0.1743  0.4728
  927MOL0     C25015   7.328   5.527  11.123 -0.6225  0.0202 -0.0175
  927MOL0     C25016   7.455   5.460  11.120  0.7538 -0.9154  0.4983
  927MOL0     C25017   7.482   5.344  11.191  0.0101  0.8125  0.1322
  927MOL0     O25018   7.601   5.283  11.194  0.1514  0.0006  0.0559
  927MOL0     C25019   7.705   5.307  11.098 -0.0010 -0.8993 -0.1920
  927MOL0     C25020   7.842   5.255  11.147  0.1240  0.7680 -0.8253
  927MOL0     C25021   7.963   5.275  11.051 -0.4953 -0.7734  0.1417
  927MOL0     C25022   8.099   5.224  11.102 -0.0218  0.5265  0.2657
  927MOL0     C25023   8.229   5.257  11.026 -0.6356 -1.5039  0.3050
  927MOL0     C25024   8.347   5.173  11.066 -0.0811  0.9871 -0.2685
  927MOL0     C25025   8.473   5.253  11.025 -0.2184  0.4244 -0.8894
  927MOL0     C25026   8.599   5.228  11.116  0.5384  0.0093 -1.0292
  927MOL0     N25027   8.637   5.081  11.134 -0.3684  0.7374  0.2112
  927MOL0     C25028   8.616   4.981  11.035 -0.2917  0.0664 -0.1214
  927MOL0     C25029   8.682   4.877  11.082  0.2192 -0.0588 -0.7211
  927MOL0     C25030   8.683   4.738  11.020 -0.1915  0.8152  0.1504
  927MOL0     C25031   8.539   4.678  11.037 -0.5135 -0.3008  0.1535
  927MOL0     C25032   8.554   4.522  11.010  0.6037 -1.0656 -1.2719
  927MOL0     C25033   8.427   4.434  11.031 -0.6401  0.8341 -0.4116
  927MOL0     O25034   8.311   4.490  10.967  0.4536 -0.3808 -0.1292
  927MOL0     C25035   8.211   4.426  11.035  0.7932 -0.2519  0.3014
  927MOL0     C25036   8.131   4.332  10.978  0.9568  0.5259 -1.1589
  927MOL0     C25037   8.026   4.275  11.037  0.7124 -0.7375 -0.2833
  927MOL0     C25038   7.980   4.321  11.166  0.1698  0.2745  0.1184
  927MOL0     C25039   7.856   4.253  11.226  0.0037 -0.0506 -0.6886
  927MOL0     O25040   7.803   4.318  11.336 -0.4417  0.7359  0.3326
  927MOL0     C25041   7.671   4.301  11.369 -0.1509  0.4637 -0.8099
  927MOL0     C25042   7.642   4.385  11.479 -0.1210  0.9264  1.1658
  927MOL0     C25043   7.515   4.380  11.539  0.4598  0.2217 -0.9256
  927MOL0     C25044   7.418   4.295  11.495 -0.4576 -0.7570  0.2895
  927MOL0     O25045   7.289   4.317  11.536 -0.4888  0.3424  0.1464
  927MOL0     C25046   7.263   4.312  11.675  0.2910  0.2644 -0.0296
  927MOL0     C25047   7.231   4.171  11.726  0.9157 -1.0084  1.3164
  927MOL0     C25048   7.079   4.152  11.683  0.1905  0.0038  0.4413
  927MOL0     C25049   6.993   4.049  11.759  0.9545 -0.2295 -0.1490
  927MOL0     C25050   7.067   3.924  11.767  0.4117  1.1767  0.3703
  927MOL0     C25051   6.996   3.814  11.854 -0.3026 -0.3107  0.1656
  927MOL0     C25052   7.053   3.677  11.819  0.5910 -1.0940  0.1450
  927MOL0     C25053   7.095   3.606  11.949  0.8423  0.4889  0.7103
  927MOL0    Cl25054   7.246   3.670  12.010  0.2527  0.5419  0.2618
  927MOL0     C25055   7.444   4.224  11.381 -0.3607  0.3166  0.2801
  927MOL0     C25056   7.566   4.239  11.308  0.9398  0.2934  0.2446
  927MOL0     O25057   7.816   4.142  11.187 -0.4512 -0.4375  0.2846
  927MOL0     C25058   8.053   4.417  11.234  0.5041 -0.4583  0.3344
  927MOL0     C25059   8.166   4.476  11.168  0.6677  0.2762  0.0055
  927MOL0     N25060   8.730   4.904  11.211 -0.4127 -0.3271 -0.1555
  927MOL0     N25061   8.704   5.030  11.240 -0.6119  0.8854 -0.0779
  927MOL0     C25062   7.372   5.279  11.264 -0.3072  0.0218  0.7517
  927MOL0     C25063   7.249   5.335  11.245 -0.5112 -0.6146  0.3931
  927MOL0     C25064   6.954   5.659  11.306 -0.1605 -0.9502 -0.3193
  927MOL0     C25065   6.846   5.573  11.268 -0.5832 -0.5988 -0.3436
  927MOL0     C25066   6.718   5.610  11.283 -0.2297  0.0647  0.2048
  927MOL0     C25067   6.683   5.739  11.323  0.1748 -0.1857  0.5424
  927MOL0     O25068   6.556   5.779  11.357 -0.9363  0.4404  0.3012
  927MOL0     C25069   6.441   5.721  11.294 -0.1400 -0.8609  0.1232
  927MOL0     C25070   6.451   5.745  11.142  0.6148 -0.4140  0.4587
  927MOL0     C25071   6.448   5.896  11.102  0.5514 -0.8132 -0.0967
  927MOL0     C25072   6.493   5.919  10.952 -0.4919  0.8135  0.0587
  927MOL0     C25073   6.464   6.048  10.902  0.9990 -0.8010  0.2797
  927MOL0     C25074   6.412   6.152  10.869 -0.8999 -0.0858 -0.0163
  927MOL0     C25075   6.786   5.829  11.346  0.2875 -0.5445  0.7488
  927MOL0     C25076   6.924   5.797  11.336  0.6341  1.2240 -1.0731
  927MOL0     C25077   7.034   5.898  11.362  1.2885  0.2935  0.7647
  927MOL0     H25078   7.309   5.624  11.078 -0.6247  2.5459  4.7424
  927MOL0     H25079   7.528   5.517  11.063 -0.1300  0.6680  0.9070
  927MOL0     H25080   7.691   5.276  10.993  0.1946 -0.5018 -0.3359
  927MOL0     H25081   7.721   5.415  11.094 -2.1412 -0.4917  0.9890
  927MOL0     H25082   7.831   5.153  11.183  0.2088  1.5707  1.6716
  927MOL0     H25083   7.854   5.320  11.234 -3.4926 -0.5110  0.8231
  927MOL0     H25084   7.970   5.383  11.034  1.0531 -0.3627  2.7875
  927MOL0     H25085   7.942   5.224  10.957  0.7032 -1.7561  0.3755
  927MOL0     H25086   8.112   5.266  11.202  1.2459  2.5828 -0.6985
  927MOL0     H25087   8.090   5.115  11.104 -1.9240  0.6210 -0.7756
  927MOL0     H25088   8.215   5.239  10.919 -0.1743 -1.5139  0.2457
  927MOL0     H25089   8.238   5.365  11.042 -3.8195 -0.8544 -1.4358
  927MOL0     H25090   8.343   5.149  11.173  0.8331  2.9319  0.2403
  927MOL0     H25091   8.338   5.079  11.010  2.1286  0.6037 -0.0559
  927MOL0     H25092   8.452   5.359  11.006  1.8001  0.7210 -1.7530
  927MOL0     H25093   8.509   5.216  10.928  2.8895 -0.3769  0.4328
  927MOL0     H25094   8.685   5.287  11.082  1.2679  1.9512  3.5180
  927MOL0     H25095   8.571   5.267  11.214  5.5891  1.0469  0.2896
  927MOL0     H25096   8.565   4.994  10.940  1.3900  1.3478 -0.9243
  927MOL0     H25097   8.706   4.734  10.913 -0.2050 -0.8891  0.1913
  927MOL0     H25098   8.767   4.692  11.073  1.4472  1.9342 -1.3466
  927MOL0     H25099   8.494   4.698  11.135  2.3768  0.7821  1.3761
  927MOL0     H25100   8.475   4.721  10.959  2.2925  1.0334 -1.5807
  927MOL0     H25101   8.631   4.478  11.074 -1.3664 -0.5811  1.6104
  927MOL0     H25102   8.584   4.527  10.905  0.7566  1.1857 -1.1731
  927MOL0     H25103   8.407   4.403  11.134 -0.5585  0.0568 -0.6185
  927MOL0     H25104   8.452   4.339  10.981  0.9037 -0.4070  2.4890
  927MOL0     H25105   8.156   4.295  10.879  0.5663 -3.6718  0.1130
  927MOL0     H25106   7.964   4.197  10.995  0.1511 -0.3891 -0.1187
  927MOL0     H25107   7.718   4.445  11.530 -0.1667  1.3109  0.7885
  927MOL0     H25108   7.492   4.449  11.619  1.4119  1.0610 -1.3571
  927MOL0     H25109   7.357   4.339  11.723  1.2767 -0.8502 -1.2702
  927MOL0     H25110   7.192   4.382  11.720 -0.6761  0.4378 -1.7648
  927MOL0     H25111   7.297   4.095  11.683 -1.0590 -2.5426  0.8166
  927MOL0     H25112   7.240   4.156  11.834  2.4918 -3.1048  0.9541
  927MOL0     H25113   7.017   4.243  11.685  0.1594 -0.0294  1.1418
  927MOL0     H25114   7.080   4.112  11.581  1.3417 -1.6279  1.0608
  927MOL0     H25115   6.899   4.045  11.702  1.4726 -1.0066 -0.9653
  927MOL0     H25116   6.975   4.075  11.864  2.3319 -1.0750  0.3131
  927MOL0     H25117   7.166   3.932  11.811  0.9857  1.0774 -0.8462
  927MOL0     H25118   7.082   3.890  11.664  1.0973  2.2890  0.0975
  927MOL0     H25119   6.988   3.840  11.960  0.1013  0.4710  0.0111
  927MOL0     H25120   6.896   3.805  11.812 -0.0760 -2.7709  0.0220
  927MOL0     H25121   7.142   3.698  11.758  2.2370 -0.6775  2.5375
  927MOL0     H25122   6.980   3.619  11.763 -0.0183  0.7861 -1.1325
  927MOL0     H25123   7.021   3.606  12.029 -0.9069 -0.4681 -0.8118
  927MOL0     H25124   7.104   3.498  11.931 -2.8787  0.3904 -1.7422
  927MOL0     H25125   7.365   4.169  11.330  0.2647 -0.1180 -0.2537
  927MOL0     H25126   7.573   4.183  11.216 -1.9794  1.1276 -0.5950
  927MOL0     H25127   8.003   4.454  11.323  1.6000 -1.4429  1.3924
  927MOL0     H25128   8.215   4.563  11.211  0.5833  0.0515  0.5531
  927MOL0     H25129   7.394   5.199  11.334  0.1355  0.6583  1.3599
  927MOL0     H25130   7.180   5.281  11.309 -3.1515  0.2805 -1.5485
  927MOL0     H25131   6.884   5.479  11.230 -0.9628 -0.7648 -0.3211
  927MOL0     H25132   6.638   5.540  11.260 -0.8320  1.5625 -2.7094
  927MOL0     H25133   6.345   5.762  11.327  0.7417  0.1588  1.5358
  927MOL0     H25134   6.441   5.614  11.320  0.3818 -1.7666 -3.1533
  927MOL0     H25135   6.359   5.697  11.110 -0.8105  0.3759  3.0184
  927MOL0     H25136   6.539   5.697  11.099  1.6735  1.8122  0.0020
  927MOL0     H25137   6.519   5.960  11.156 -0.7284  1.8734 -1.4157
  927MOL0     H25138   6.351   5.945  11.115  1.4274  1.6807 -2.0971
  927MOL0     H25139   6.602   5.905  10.956 -0.6138 -0.0178  1.3660
  927MOL0     H25140   6.458   5.837  10.889  1.3763 -0.1121  0.1450
  927MOL0     H25141   6.376   6.243  10.825 -2.2815  0.6741  2.5171
  927MOL0     H25142   6.747   5.927  11.372  2.3767  0.3544  0.7119
  927MOL0     H25143   6.986   5.987  11.403  0.1112 -0.6225  1.4366
  927MOL0     H25144   7.098   5.859  11.442 -0.4644 -1.0578  1.5650
  927MOL0     H25145   7.094   5.919  11.273 -0.9349  2.4979 -0.3388
  928MOL0     O25146   8.530   1.205   8.751  0.5803  0.1556 -0.4603
  928MOL0     C25147   8.455   1.179   8.844  0.3195 -0.0205  0.4622
  928MOL0     O25148   8.494   1.160   8.976 -0.7193  0.1240  0.1511
  928MOL0     C25149   8.620   1.138   9.015  0.0654 -0.9899  0.2734
  928MOL0     C25150   8.700   1.053   8.951 -1.0842  0.5335 -0.1851
  928MOL0     C25151   8.834   1.032   8.993 -0.4361  0.1055  0.6357
  928MOL0     C25152   8.886   1.098   9.103  0.2516  0.0230 -0.0287
  928MOL0     O25153   9.014   1.086   9.144 -0.7601 -0.1446 -0.2388
  928MOL0     C25154   9.079   0.955   9.150 -0.0846 -0.5646  0.3697
  928MOL0     C25155   9.212   0.965   9.233 -0.3046 -0.8568 -0.0869
  928MOL0     C25156   9.165   0.973   9.377 -0.2596  0.6508 -0.4327
  928MOL0     C25157   9.284   0.963   9.475  0.0537  0.5169  0.9136
  928MOL0     C25158   9.229   0.977   9.621 -0.3267 -0.3754 -0.0722
  928MOL0     C25159   9.337   0.996   9.722  0.0146 -0.3845  0.1160
  928MOL0     C25160   9.288   0.969   9.863  0.0554 -0.4065  0.1895
  928MOL0     C25161   9.211   1.094   9.905 -0.4734  1.2929  0.0272
  928MOL0     N25162   9.180   1.095  10.052 -0.0860 -0.3782  0.3045
  928MOL0     C25163   9.098   1.006  10.106  0.3903  0.4473  0.0939
  928MOL0     C25164   9.106   1.029  10.239  0.1298  0.2584 -0.4772
  928MOL0     C25165   9.029   0.961  10.348  0.5097 -0.0887  1.1928
  928MOL0     C25166   8.990   1.063  10.463  0.4917 -0.0253 -0.2268
  928MOL0     C25167   8.940   0.999  10.592  0.6079  0.4216 -1.1474
  928MOL0     C25168   8.886   1.091  10.699  0.7590 -0.4982  0.4096
  928MOL0     O25169   8.862   1.011  10.817 -0.4177  0.4443 -0.3661
  928MOL0     C25170   8.815   1.067  10.936 -0.4584 -0.1900 -0.9202
  928MOL0     C25171   8.756   0.978  11.037 -0.1615  0.6409  0.4857
  928MOL0     C25172   8.700   1.040  11.146  0.0672 -0.2864 -0.5275
  928MOL0     C25173   8.718   1.178  11.167 -0.5532 -0.2469 -0.2024
  928MOL0     C25174   8.679   1.233  11.299  0.1037 -0.5236  0.4293
  928MOL0     O25175   8.646   1.365  11.288 -0.7206 -0.7423  0.4810
  928MOL0     C25176   8.615   1.449  11.391  0.3131  0.2262  0.4293
  928MOL0     C25177   8.630   1.422  11.525 -0.4986  1.1559 -0.1075
  928MOL0     C25178   8.591   1.505  11.630  0.0860 -0.5144 -0.0309
  928MOL0     C25179   8.509   1.617  11.594  0.4475 -0.5908 -0.2147
  928MOL0     O25180   8.435   1.690  11.681 -0.1119  0.5572  0.3443
  928MOL0     C25181   8.457   1.680  11.821 -0.0054 -0.2147  0.2973
  928MOL0     C25182   8.397   1.802  11.886 -0.0156 -0.4557 -0.0049
  928MOL0     C25183   8.438   1.793  12.034  0.4860  0.8068  0.5325
  928MOL0     C25184   8.361   1.899  12.118  0.4395 -0.8218  0.4870
  928MOL0     C25185   8.413   1.903  12.267  0.4342  0.2674 -0.1043
  928MOL0     C25186   8.296   1.868  12.368 -0.4681  0.0293 -0.1026
  928MOL0     C25187   8.244   1.989  12.444  0.3504 -0.7047 -0.7024
  928MOL0     C25188   8.149   2.069  12.367  0.4016 -0.1245  0.3357
  928MOL0    Cl25189   8.121   2.225  12.458 -0.1409 -0.2185  0.4209
  928MOL0     C25190   8.498   1.655  11.462 -0.4313 -0.6008  0.8680
  928MOL0     C25191   8.558   1.576  11.360 -0.4127 -0.0639  0.1665
  928MOL0     O25192   8.649   1.155  11.385  0.6947  0.6279  0.4904
  928MOL0     C25193   8.779   1.256  11.069 -0.0372 -0.1673 -0.3226
  928MOL0     C25194   8.826   1.201  10.958  0.2736 -0.5709  0.6487
  928MOL0     N25195   9.189   1.141  10.250 -0.0054  0.1515 -0.3890
  928MOL0     N25196   9.234   1.177  10.143 -0.1446 -0.6194 -0.0617
  928MOL0     C25197   8.799   1.185   9.172 -0.3904 -0.6998 -0.2276
  928MOL0     C25198   8.665   1.214   9.127 -0.0867  0.8067  0.5217
  928MOL0     C25199   8.308   1.155   8.803 -0.2601 -0.7546 -0.6635
  928MOL0     C25200   8.286   1.084   8.678  0.5195 -0.2335 -0.9101
  928MOL0     C25201   8.153   1.091   8.638  0.3382 -0.7056  0.9111
  928MOL0     C25202   8.051   1.157   8.704  0.1558 -0.0598 -0.4128
  928MOL0     O25203   7.930   1.173   8.657 -0.8043  0.8701  0.0917
  928MOL0     C25204   7.893   1.099   8.540  0.1703  0.4582 -0.1293
  928MOL0     C25205   7.747   1.127   8.541  0.2750 -0.5917  0.4822
  928MOL0     C25206   7.721   1.265   8.465  0.2175  0.3472 -0.0314
  928MOL0     C25207   7.568   1.308   8.484 -0.6982 -0.8368 -0.4654
  928MOL0     C25208   7.473   1.224   8.405 -0.3064 -0.2240  0.4624
  928MOL0     C25209   7.395   1.152   8.344  0.2134 -0.0234 -0.5720
  928MOL0     C25210   8.078   1.220   8.825  1.1296 -0.7144  0.7823
  928MOL0     C25211   8.206   1.213   8.877  0.2444  0.0573 -0.1500
  928MOL0     C25212   8.228   1.289   9.010 -0.4626  0.4131 -0.6324
  928MOL0     H25213   8.660   1.004   8.863 -3.4743  0.8521  0.6453
  928MOL0     H25214   8.904   0.968   8.940  0.5944  1.6415  0.0724
  928MOL0     H25215   9.011   0.880   9.190  0.3463  0.4974  3.3394
  928MOL0     H25216   9.115   0.934   9.049  0.5735 -2.7924  1.0041
  928MOL0     H25217   9.276   1.052   9.216  0.9338 -1.6035  0.6085
  928MOL0     H25218   9.262   0.872   9.203  1.8994  1.2994 -3.7853
  928MOL0     H25219   9.102   0.886   9.396  2.7355 -1.4696  0.5098
  928MOL0     H25220   9.102   1.061   9.395 -2.0762 -0.8953  1.1629
  928MOL0     H25221   9.331   0.866   9.456 -0.2713  0.4457  0.4559
  928MOL0     H25222   9.362   1.033   9.445  1.9634 -3.1569 -4.0127
  928MOL0     H25223   9.173   1.069   9.639  0.3376  0.2278 -1.0587
  928MOL0     H25224   9.165   0.892   9.647 -0.9628 -0.5539 -2.0611
  928MOL0     H25225   9.407   0.914   9.705  1.6628  1.1193 -0.6673
  928MOL0     H25226   9.389   1.090   9.702 -0.8118  0.3565  1.3239
  928MOL0     H25227   9.365   0.961   9.940  3.8301  0.2691 -3.1876
  928MOL0     H25228   9.229   0.878   9.875  0.9404 -0.9316  0.6298
  928MOL0     H25229   9.270   1.181   9.874 -1.5925  2.0614  0.0080
  928MOL0     H25230   9.115   1.100   9.854  0.0142 -1.0247 -1.2930
  928MOL0     H25231   9.042   0.934  10.048  3.3977 -0.0381 -2.5131
  928MOL0     H25232   8.931   0.938  10.304  1.0301 -2.1476  1.0237
  928MOL0     H25233   9.070   0.873  10.399  0.0181  1.5160  4.6737
  928MOL0     H25234   9.078   1.124  10.484  2.5838 -1.8369 -3.0920
  928MOL0     H25235   8.914   1.131  10.422 -2.2103 -1.8526  1.4054
  928MOL0     H25236   9.020   0.940  10.638 -1.5598 -0.7356  1.3740
  928MOL0     H25237   8.859   0.929  10.569 -1.4241  2.1035  0.5109
  928MOL0     H25238   8.797   1.141  10.661  1.4723 -0.6799 -1.6102
  928MOL0     H25239   8.964   1.167  10.714 -0.5126  0.8386  0.4658
  928MOL0     H25240   8.739   0.873  11.018 -0.2457  0.4646  1.4835
  928MOL0     H25241   8.648   0.969  11.209  0.6982 -0.3307 -0.0583
  928MOL0     H25242   8.693   1.337  11.549 -0.8336  1.1914  0.9332
  928MOL0     H25243   8.611   1.479  11.734  1.7546  1.3440  0.1704
  928MOL0     H25244   8.418   1.590  11.869  1.1672  0.3132  2.3395
  928MOL0     H25245   8.565   1.681  11.836  0.2799  0.7068 -1.4756
  928MOL0     H25246   8.440   1.889  11.835 -2.0774  0.8135  0.2948
  928MOL0     H25247   8.288   1.794  11.879 -0.4530 -2.2724  5.0307
  928MOL0     H25248   8.395   1.699  12.070 -0.0901  1.1573  0.7828
  928MOL0     H25249   8.546   1.794  12.050  0.5965 -1.6757  0.2314
  928MOL0     H25250   8.252   1.894  12.114  0.2827  1.5759  0.3274
  928MOL0     H25251   8.381   1.993  12.065 -1.5989 -1.9800 -2.6346
  928MOL0     H25252   8.465   1.997  12.285 -0.1038  0.4846  0.3150
  928MOL0     H25253   8.497   1.833  12.281  1.9657  2.6586  5.1578
  928MOL0     H25254   8.214   1.818  12.315 -4.0562  0.9989  3.9306
  928MOL0     H25255   8.342   1.802  12.442  3.8867 -0.7919 -3.1487
  928MOL0     H25256   8.329   2.054  12.466 -0.1087  0.0296 -1.0645
  928MOL0     H25257   8.196   1.952  12.535  0.8246 -0.7423 -0.4672
  928MOL0     H25258   8.193   2.087  12.269 -1.4840 -0.0615 -0.5427
  928MOL0     H25259   8.056   2.012  12.357 -0.1165  0.5079  1.3556
  928MOL0     H25260   8.447   1.749  11.439 -0.8263 -1.4277 -1.9759
  928MOL0     H25261   8.546   1.598  11.254 -0.8629 -4.9412 -1.0321
  928MOL0     H25262   8.818   1.353  11.099 -0.0067 -1.1887  3.5179
  928MOL0     H25263   8.877   1.264  10.886 -2.7414  3.2671  1.5329
  928MOL0     H25264   8.841   1.238   9.256  2.2429 -1.8092 -0.7389
  928MOL0     H25265   8.592   1.282   9.167 -0.0766  0.2546  1.4990
  928MOL0     H25266   8.366   1.042   8.616  3.3872  3.3266  0.0367
  928MOL0     H25267   8.125   1.033   8.550  1.8174 -1.7069  1.0681
  928MOL0     H25268   7.911   0.991   8.549 -1.1550  0.0341 -1.9224
  928MOL0     H25269   7.944   1.141   8.453 -2.2723  0.3625 -1.6944
  928MOL0     H25270   7.708   1.126   8.643 -1.3571 -0.5447 -0.1139
  928MOL0     H25271   7.683   1.063   8.480 -1.2627  1.7186 -0.4139
  928MOL0     H25272   7.739   1.259   8.357 -1.2976  2.9215 -0.5230
  928MOL0     H25273   7.790   1.339   8.507  0.1751 -0.7831  2.1755
  928MOL0     H25274   7.559   1.302   8.592 -0.0929 -0.6920 -0.3996
  928MOL0     H25275   7.554   1.415   8.466 -3.0060 -0.5661  2.3421
  928MOL0     H25276   7.330   1.082   8.295  0.5477 -0.2688 -0.6653
  928MOL0     H25277   8.002   1.265   8.889 -1.7976 -2.8090 -0.9286
  928MOL0     H25278   8.268   1.229   9.092 -0.8390  1.2733  0.2047
  928MOL0     H25279   8.295   1.373   8.989 -0.7442  1.3877  1.8772
  928MOL0     H25280   8.139   1.344   9.044 -0.2203  0.2235  0.3430
  929MOL0     O25281   4.857   7.523   2.131  0.0437  0.5780 -0.6828
  929MOL0     C25282   4.925   7.434   2.181 -0.6702  1.1371  0.0177
  929MOL0     O25283   5.045   7.393   2.137 -0.1200  0.1381  0.2555
  929MOL0     C25284   5.102   7.458   2.029 -0.7077 -0.0756  0.0400
  929MOL0     C25285   5.177   7.386   1.940  0.2890  0.5787  0.2111
  929MOL0     C25286   5.239   7.445   1.824 -0.0835  0.1886  1.3343
  929MOL0     C25287   5.254   7.586   1.816  0.3459  0.0028  0.3527
  929MOL0     O25288   5.316   7.659   1.710 -0.0235 -0.2502  0.0689
  929MOL0     C25289   5.294   7.617   1.580  0.1312  0.5813  0.6233
  929MOL0     C25290   5.403   7.523   1.535  0.5197  0.7346  1.7545
  929MOL0     C25291   5.441   7.556   1.383 -0.3394  0.3992 -0.1786
  929MOL0     C25292   5.329   7.519   1.286  0.6303  0.2170 -0.2051
  929MOL0     C25293   5.379   7.518   1.145 -0.6360  0.4657  0.5435
  929MOL0     C25294   5.407   7.658   1.088 -0.3532 -0.7302 -0.8848
  929MOL0     C25295   5.475   7.663   0.950 -0.8307  0.1320 -1.2560
  929MOL0     C25296   5.370   7.630   0.844  0.7423 -0.3120  0.5538
  929MOL0     N25297   5.436   7.596   0.727 -0.7326 -0.5117 -0.1556
  929MOL0     C25298   5.486   7.473   0.683 -0.0810  0.8674 -0.7843
  929MOL0     C25299   5.563   7.508   0.577  0.2515  0.0604 -0.1289
  929MOL0     C25300   5.622   7.423   0.475  1.0802  0.2819  0.4841
  929MOL0     C25301   5.640   7.272   0.506 -0.2296 -0.2741  0.1180
  929MOL0     C25302   5.721   7.189   0.405 -0.6624 -0.7091  0.2086
  929MOL0     C25303   5.752   7.047   0.456  0.3503  0.2817 -0.9446
  929MOL0     O25304   5.632   6.968   0.458 -0.5708 -0.2777 -0.2846
  929MOL0     C25305   5.586   6.900   0.351 -0.5446  1.5202  0.2213
  929MOL0     C25306   5.473   6.820   0.359  0.3344 -0.0424  0.3253
  929MOL0     C25307   5.426   6.748   0.258  1.2795 -0.7682  0.3073
  929MOL0     C25308   5.475   6.742   0.129 -0.6674 -0.7762 -1.0736
  929MOL0     C25309   5.408   6.671   0.022 -0.4535 -0.4518 -1.5467
  929MOL0     O25310   5.454   6.703  -0.108 -0.7079  0.3309 -0.1331
  929MOL0     C25311   5.377   6.660  -0.216  0.6515  0.2724 -0.3687
  929MOL0     C25312   5.317   6.752  -0.310  0.8131  0.2584  0.0992
  929MOL0     C25313   5.246   6.719  -0.421 -0.2791  0.0912  0.2774
  929MOL0     C25314   5.215   6.579  -0.434  0.0138  0.6192 -1.1161
  929MOL0     O25315   5.140   6.518  -0.530  1.4042  0.3676  0.6809
  929MOL0     C25316   5.018   6.588  -0.561 -0.5880 -0.0739 -0.1830
  929MOL0     C25317   4.911   6.473  -0.585 -0.6767 -0.4763 -1.2049
  929MOL0     C25318   4.861   6.398  -0.463 -0.9824 -0.2068  0.1171
  929MOL0     C25319   4.743   6.321  -0.518  0.0927  0.0382 -0.3082
  929MOL0     C25320   4.683   6.229  -0.409 -0.0426 -0.0465  0.6619
  929MOL0     C25321   4.552   6.167  -0.445  0.4540 -0.2938  0.4236
  929MOL0     C25322   4.471   6.088  -0.342 -0.0302  0.1238 -0.3777
  929MOL0     C25323   4.531   5.951  -0.308  0.3136 -0.2065  0.9524
  929MOL0    Cl25324   4.679   5.985  -0.208 -0.1265 -0.6507  0.0264
  929MOL0     C25325   5.263   6.487  -0.338  0.0705 -0.3210 -0.0997
  929MOL0     C25326   5.351   6.521  -0.227  0.2703 -0.5867  0.7186
  929MOL0     O25327   5.302   6.605   0.055 -0.5027  0.6720  0.2117
  929MOL0     C25328   5.586   6.830   0.111 -0.0293  0.3576  0.0988
  929MOL0     C25329   5.650   6.894   0.221 -0.2329 -0.8509 -0.8689
  929MOL0     N25330   5.563   7.647   0.564 -0.0666  0.5984  0.0516
  929MOL0     N25331   5.492   7.693   0.659  0.4923 -0.4302 -0.3316
  929MOL0     C25332   5.190   7.664   1.912 -0.5964  0.0958 -0.1220
  929MOL0     C25333   5.118   7.598   2.015 -0.5222 -0.5562 -0.2709
  929MOL0     C25334   4.883   7.358   2.292 -0.4304 -0.2787  0.6447
  929MOL0     C25335   4.811   7.426   2.395  0.4298 -0.2903  0.7506
  929MOL0     C25336   4.773   7.370   2.522  0.8637 -0.5683 -0.0847
  929MOL0     C25337   4.804   7.237   2.548 -0.7564  0.9813 -0.3658
  929MOL0     O25338   4.765   7.166   2.661 -0.4641 -0.6817 -0.4520
  929MOL0     C25339   4.697   7.228   2.767  0.3985 -0.2730  0.0662
  929MOL0     C25340   4.621   7.120   2.848 -0.4962  0.5105  0.1193
  929MOL0     C25341   4.715   7.057   2.952  0.0188  0.2594 -0.2203
  929MOL0     C25342   4.817   6.945   2.907 -0.2547  0.2268 -0.0406
  929MOL0     C25343   4.910   6.920   3.015  0.0425 -0.5909  0.4214
  929MOL0     C25344   4.973   6.917   3.121 -0.2270 -0.2483  0.4778
  929MOL0     C25345   4.874   7.165   2.451 -0.0124 -0.2293 -0.0766
  929MOL0     C25346   4.914   7.219   2.318 -0.3999 -0.2390 -0.3043
  929MOL0     C25347   4.987   7.126   2.222 -0.1707 -0.0646  0.1375
  929MOL0     H25348   5.190   7.282   1.969  1.3322 -0.6557 -3.9293
  929MOL0     H25349   5.297   7.380   1.759 -0.5662  2.8816 -2.0364
  929MOL0     H25350   5.199   7.563   1.579 -0.0314  0.8666  0.6545
  929MOL0     H25351   5.281   7.705   1.517  2.2257 -1.2589 -2.7355
  929MOL0     H25352   5.362   7.422   1.527 -1.4176  1.5691  0.1651
  929MOL0     H25353   5.477   7.518   1.616 -0.6323  0.7470  2.8298
  929MOL0     H25354   5.529   7.494   1.362 -1.5644 -1.2485 -0.7344
  929MOL0     H25355   5.458   7.664   1.376 -0.5481  0.5411  1.2515
  929MOL0     H25356   5.291   7.420   1.312  0.5493  0.5114  0.8598
  929MOL0     H25357   5.243   7.587   1.286 -0.8731 -1.5547  1.6702
  929MOL0     H25358   5.466   7.454   1.129  0.4498  2.6420 -3.5857
  929MOL0     H25359   5.301   7.482   1.077  1.4244 -0.7052 -1.3075
  929MOL0     H25360   5.318   7.721   1.099 -0.5541 -1.4035  2.3130
  929MOL0     H25361   5.476   7.710   1.155 -1.0483 -0.9579  0.0297
  929MOL0     H25362   5.552   7.586   0.954  2.4038  3.0164 -2.7118
  929MOL0     H25363   5.531   7.753   0.923  2.9715 -1.8663 -0.7361
  929MOL0     H25364   5.293   7.556   0.870 -1.3155  0.9821 -1.4159
  929MOL0     H25365   5.314   7.722   0.823 -1.8519 -2.1197 -1.0627
  929MOL0     H25366   5.473   7.370   0.716  1.7372  0.4028 -1.4179
  929MOL0     H25367   5.547   7.430   0.396 -1.6944  1.4530  3.0123
  929MOL0     H25368   5.714   7.471   0.441 -1.1134  5.1397  0.6691
  929MOL0     H25369   5.692   7.266   0.602 -1.2437 -1.5018  0.6203
  929MOL0     H25370   5.540   7.229   0.522 -0.0277 -0.8475 -0.1269
  929MOL0     H25371   5.810   7.245   0.375 -0.8771 -1.5482 -2.1831
  929MOL0     H25372   5.668   7.191   0.310  4.2935  2.7746 -2.9503
  929MOL0     H25373   5.787   7.047   0.560 -0.9002 -1.5557 -0.4636
  929MOL0     H25374   5.834   7.000   0.402  0.6281  1.3663 -1.4845
  929MOL0     H25375   5.422   6.820   0.455 -2.2064  1.5750 -0.9053
  929MOL0     H25376   5.333   6.699   0.288  0.8161  1.3234  2.6283
  929MOL0     H25377   5.335   6.857  -0.289 -3.8004  1.8325 -2.4047
  929MOL0     H25378   5.213   6.793  -0.494  0.5897  0.7604  0.5463
  929MOL0     H25379   4.989   6.650  -0.475  2.3173 -0.6286  1.3147
  929MOL0     H25380   5.026   6.658  -0.645  3.5735 -1.2527 -0.9845
  929MOL0     H25381   4.837   6.511  -0.656  0.8177  3.4000 -0.9108
  929MOL0     H25382   4.968   6.397  -0.640 -0.1217 -0.9231 -0.0372
  929MOL0     H25383   4.940   6.327  -0.440 -0.0781 -0.4742 -3.2969
  929MOL0     H25384   4.834   6.455  -0.374 -2.1227  0.3453 -0.5550
  929MOL0     H25385   4.771   6.259  -0.604 -0.1041  0.4601 -0.6875
  929MOL0     H25386   4.662   6.384  -0.557 -2.3363 -0.1426  3.8971
  929MOL0     H25387   4.662   6.292  -0.322 -3.6380 -0.2399  0.1001
  929MOL0     H25388   4.766   6.164  -0.383 -1.0025 -0.7989  1.9238
  929MOL0     H25389   4.484   6.247  -0.478  0.2602 -0.8301 -0.5151
  929MOL0     H25390   4.565   6.110  -0.538 -1.8891  0.6939 -0.6125
  929MOL0     H25391   4.372   6.067  -0.382 -0.7518 -0.2042  1.4975
  929MOL0     H25392   4.468   6.151  -0.253  1.7568 -0.8563  0.4263
  929MOL0     H25393   4.451   5.906  -0.248 -0.6311  0.4034  0.1740
  929MOL0     H25394   4.567   5.891  -0.391 -1.1438 -0.9474  0.8211
  929MOL0     H25395   5.232   6.383  -0.346  0.2986 -0.2802 -2.5319
  929MOL0     H25396   5.380   6.444  -0.156 -0.2152 -0.4233  1.1032
  929MOL0     H25397   5.635   6.826   0.014 -3.2114 -3.0334 -1.6057
  929MOL0     H25398   5.738   6.953   0.198 -0.1187  0.6262  2.6871
  929MOL0     H25399   5.200   7.772   1.919  2.8487 -0.0629 -0.6224
  929MOL0     H25400   5.076   7.661   2.093  0.5095  0.6868 -0.6876
  929MOL0     H25401   4.782   7.530   2.383 -2.9484 -1.0627  1.2991
  929MOL0     H25402   4.723   7.442   2.587  1.1974  0.9718 -1.4662
  929MOL0     H25403   4.625   7.306   2.741  1.4645  0.4796 -0.7554
  929MOL0     H25404   4.776   7.276   2.825  1.1826 -0.0382 -1.1537
  929MOL0     H25405   4.582   7.039   2.785 -1.9207  1.1528  0.1474
  929MOL0     H25406   4.543   7.179   2.897  1.2287  2.5126  0.6093
  929MOL0     H25407   4.658   7.032   3.042  0.0179  0.9542 -0.0236
  929MOL0     H25408   4.769   7.146   2.986 -0.9280  0.0745  1.9802
  929MOL0     H25409   4.762   6.860   2.864 -1.9751  0.4839  1.5154
  929MOL0     H25410   4.870   6.993   2.825  1.9064 -1.4604  0.2910
  929MOL0     H25411   5.030   6.916   3.211  0.9255  5.5519  0.1973
  929MOL0     H25412   4.894   7.063   2.481 -0.0022 -0.2224 -0.0603
  929MOL0     H25413   5.087   7.094   2.254 -0.8048 -0.1394  2.1310
  929MOL0     H25414   4.935   7.031   2.213  1.4610 -0.9249 -0.8307
  929MOL0     H25415   5.001   7.168   2.122  0.2801  0.2612  0.3344
  930MOL0     O25416   3.503   9.313   7.855  0.2092 -0.0096 -1.0774
  930MOL0     C25417   3.551   9.224   7.928  1.6551  0.5019 -0.6087
  930MOL0     O25418   3.676   9.226   7.988 -0.2756 -0.0906 -0.2624
  930MOL0     C25419   3.744   9.341   7.999  0.0559 -0.2639  0.4607
  930MOL0     C25420   3.881   9.347   7.971 -0.0199  0.0973 -0.5702
  930MOL0     C25421   3.949   9.466   7.973 -0.6399  0.1886  0.4523
  930MOL0     C25422   3.876   9.588   8.011  0.8926 -0.2193  0.1481
  930MOL0     O25423   3.916   9.716   8.012  0.2328 -0.5640 -0.0225
  930MOL0     C25424   4.058   9.754   7.992 -0.1885  0.1662  0.4831
  930MOL0     C25425   4.106   9.745   7.850 -0.2890  0.1477 -0.1998
  930MOL0     C25426   4.221   9.841   7.815 -0.4363 -0.5662 -0.8828
  930MOL0     C25427   4.347   9.815   7.894 -0.9134  0.1233 -0.0558
  930MOL0     C25428   4.388   9.940   7.980 -0.8743  1.2313  0.6822
  930MOL0     C25429   4.507   9.897   8.079  0.0986 -0.5558 -0.2892
  930MOL0     C25430   4.635   9.849   8.003  0.2260  0.1843 -0.5007
  930MOL0     C25431   4.726   9.765   8.095  0.0255  0.8514 -0.9505
  930MOL0     N25432   4.665   9.645   8.153  0.0895 -0.0026 -0.4565
  930MOL0     C25433   4.633   9.529   8.089 -0.4442  0.0246  0.6060
  930MOL0     C25434   4.610   9.442   8.185  0.1309 -0.2364 -0.3811
  930MOL0     C25435   4.583   9.293   8.159 -0.5029 -0.1647  0.5383
  930MOL0     C25436   4.442   9.266   8.105 -0.0778  0.2923  0.0686
  930MOL0     C25437   4.397   9.121   8.091  1.0130  0.3612 -0.0638
  930MOL0     C25438   4.243   9.118   8.067 -0.8007  0.2003 -0.0805
  930MOL0     O25439   4.201   9.183   7.943  0.9876  0.1616  0.4744
  930MOL0     C25440   4.211   9.126   7.821 -0.4171 -0.3560  0.1426
  930MOL0     C25441   4.216   9.200   7.706  0.4937 -0.7796  0.1763
  930MOL0     C25442   4.246   9.143   7.583  0.5713 -0.2969 -0.5145
  930MOL0     C25443   4.266   9.008   7.563  0.6799 -0.4009  0.4633
  930MOL0     C25444   4.321   8.959   7.434 -0.8152  0.0576  0.7168
  930MOL0     O25445   4.331   9.038   7.319 -0.1996 -0.6464 -0.3771
  930MOL0     C25446   4.393   8.999   7.204 -0.3281  0.8406 -0.3315
  930MOL0     C25447   4.317   8.984   7.090  0.3725 -0.9181  0.3067
  930MOL0     C25448   4.382   8.940   6.971  0.6764  0.4733  0.2470
  930MOL0     C25449   4.519   8.910   6.972 -0.1720  0.7808  0.2762
  930MOL0     O25450   4.551   8.863   6.850 -0.0240  0.0518  0.1734
  930MOL0     C25451   4.688   8.831   6.810 -0.4147 -0.5908  1.4207
  930MOL0     C25452   4.694   8.718   6.694 -0.0692 -0.4561 -0.3820
  930MOL0     C25453   4.601   8.602   6.732 -0.0109  0.2315 -0.6978
  930MOL0     C25454   4.518   8.539   6.612 -0.1604 -0.6376  0.1530
  930MOL0     C25455   4.449   8.644   6.526  0.0334  0.9143  0.3181
  930MOL0     C25456   4.364   8.741   6.605 -0.1710  0.7685 -0.6661
  930MOL0     C25457   4.236   8.776   6.532 -0.2014 -0.0192 -0.5850
  930MOL0     C25458   4.152   8.874   6.607 -0.5006  0.6081 -0.0618
  930MOL0    Cl25459   4.069   8.981   6.499  0.1211 -0.4211 -0.2370
  930MOL0     C25460   4.592   8.928   7.084 -0.2169 -0.2881  0.6066
  930MOL0     C25461   4.538   8.975   7.199 -0.3167  0.6920 -0.9405
  930MOL0     O25462   4.340   8.839   7.423 -0.3988 -0.3336 -0.2901
  930MOL0     C25463   4.253   8.935   7.685 -0.0783  0.2780 -0.8345
  930MOL0     C25464   4.233   8.993   7.809  0.1521  0.0331 -0.4754
  930MOL0     N25465   4.621   9.507   8.306  0.5889 -0.2271  0.2252
  930MOL0     N25466   4.655   9.627   8.286  1.2137 -0.6620  0.7159
  930MOL0     C25467   3.741   9.581   8.049  0.1378  0.2593 -0.5159
  930MOL0     C25468   3.677   9.454   8.040  0.1876 -0.1591 -0.4832
  930MOL0     C25469   3.468   9.097   7.956  0.4711 -0.6234  0.2966
  930MOL0     C25470   3.335   9.118   7.987  0.4061  1.3348  0.2428
  930MOL0     C25471   3.261   9.001   8.027 -0.4247 -0.4300  0.1513
  930MOL0     C25472   3.296   8.869   8.019  0.0799  0.2915 -0.2486
  930MOL0     O25473   3.195   8.772   8.051  0.3319 -0.5096  0.2403
  930MOL0     C25474   3.235   8.631   8.046 -0.6810 -1.1046 -0.2167
  930MOL0     C25475   3.120   8.546   8.053 -0.0090  0.2171 -0.0606
  930MOL0     C25476   3.014   8.575   7.937 -0.5895 -0.1098 -0.3299
  930MOL0     C25477   2.898   8.471   7.947 -0.5844  0.5478  0.0183
  930MOL0     C25478   2.929   8.345   7.865 -0.1486  0.0305  0.0046
  930MOL0     C25479   2.967   8.244   7.808  0.2080 -0.2322  0.4750
  930MOL0     C25480   3.433   8.848   8.002 -0.1674 -0.6486  0.8244
  930MOL0     C25481   3.519   8.960   7.975  0.2485 -0.9630 -0.9573
  930MOL0     C25482   3.667   8.942   7.943 -0.4869  0.4025  0.3713
  930MOL0     H25483   3.939   9.259   7.945  1.2681  1.2380 -1.7129
  930MOL0     H25484   4.054   9.458   7.949 -0.5220  1.3737  0.4953
  930MOL0     H25485   4.069   9.861   8.013  1.8536 -0.1340  1.1463
  930MOL0     H25486   4.137   9.706   8.051  1.1886  0.8806 -0.7225
  930MOL0     H25487   4.016   9.760   7.791  0.6121  2.1123 -1.1856
  930MOL0     H25488   4.142   9.643   7.833  1.5267  0.8101 -0.6025
  930MOL0     H25489   4.187   9.945   7.819  0.5405 -0.2524 -0.4742
  930MOL0     H25490   4.251   9.819   7.712  3.1910 -4.1948  0.6367
  930MOL0     H25491   4.335   9.724   7.953  0.5162  0.0044  0.0872
  930MOL0     H25492   4.426   9.791   7.822 -1.3319 -2.6811  0.3171
  930MOL0     H25493   4.413  10.020   7.910 -0.2678  0.7051  0.2861
  930MOL0     H25494   4.304   9.969   8.044 -0.7433  2.2113  0.4208
  930MOL0     H25495   4.531   9.991   8.129  0.8855 -1.0364  0.2595
  930MOL0     H25496   4.482   9.826   8.157  2.4000 -2.0126 -0.7715
  930MOL0     H25497   4.683   9.941   7.968 -0.2853  0.5413 -0.2917
  930MOL0     H25498   4.606   9.793   7.914  0.8739  2.2129 -2.0783
  930MOL0     H25499   4.820   9.725   8.056  1.8893 -1.1004  4.5195
  930MOL0     H25500   4.770   9.830   8.172  2.4192 -0.2377 -1.2886
  930MOL0     H25501   4.642   9.519   7.981  3.7990  1.3289  0.6562
  930MOL0     H25502   4.657   9.261   8.085 -1.9301  0.5612 -1.2856
  930MOL0     H25503   4.601   9.242   8.254  2.8670 -0.3480 -0.0823
  930MOL0     H25504   4.372   9.320   8.170  0.2198 -0.8402  1.3906
  930MOL0     H25505   4.443   9.300   8.002  0.8989 -0.5561 -0.2224
  930MOL0     H25506   4.420   9.069   8.184 -0.2005 -0.5046 -0.2334
  930MOL0     H25507   4.453   9.074   8.010  0.8364  1.8880 -1.1272
  930MOL0     H25508   4.190   9.177   8.142  0.7614 -0.8908  1.9860
  930MOL0     H25509   4.221   9.011   8.073  2.2788 -0.4912  1.0297
  930MOL0     H25510   4.213   9.309   7.713  1.5694 -0.4126 -3.1518
  930MOL0     H25511   4.252   9.209   7.496  0.0208 -1.4644 -1.4559
  930MOL0     H25512   4.210   8.999   7.096  0.4533 -0.5433  0.8375
  930MOL0     H25513   4.327   8.912   6.882  0.4264 -0.4898  0.6941
  930MOL0     H25514   4.730   8.924   6.770  0.5452 -0.9590  1.5670
  930MOL0     H25515   4.759   8.790   6.882  3.3664 -2.8425 -3.1180
  930MOL0     H25516   4.675   8.761   6.596  3.3181  0.1772 -0.9006
  930MOL0     H25517   4.800   8.692   6.680  1.5084  3.4500  2.5507
  930MOL0     H25518   4.666   8.523   6.771  0.3445  1.2442  0.8395
  930MOL0     H25519   4.529   8.624   6.811  1.0311  1.1915  0.0220
  930MOL0     H25520   4.434   8.482   6.653 -0.5086  0.8449  1.5996
  930MOL0     H25521   4.587   8.480   6.551  0.5751  0.0309  0.3170
  930MOL0     H25522   4.385   8.585   6.460 -1.4626  2.0798  0.6657
  930MOL0     H25523   4.519   8.704   6.468 -0.9454  0.5933 -1.2438
  930MOL0     H25524   4.338   8.708   6.705 -2.0034  2.0597 -0.6732
  930MOL0     H25525   4.416   8.837   6.600  0.8451  0.2212 -1.0813
  930MOL0     H25526   4.175   8.686   6.520  2.9292 -2.4940  0.6721
  930MOL0     H25527   4.272   8.817   6.437  0.6671  2.8284  0.8561
  930MOL0     H25528   4.080   8.830   6.676 -1.2386  0.1682 -1.0752
  930MOL0     H25529   4.220   8.938   6.663  0.0212  1.3878 -1.5360
  930MOL0     H25530   4.699   8.910   7.080  0.1116  1.6102 -1.0585
  930MOL0     H25531   4.605   8.986   7.284  3.0042 -1.5565 -3.0396
  930MOL0     H25532   4.257   8.828   7.673 -1.1078  0.0032  0.8931
  930MOL0     H25533   4.205   8.925   7.889 -0.8583  1.8026  0.7261
  930MOL0     H25534   3.680   9.668   8.069 -1.9582 -0.7887 -1.9199
  930MOL0     H25535   3.570   9.452   8.058 -0.2519 -2.8546 -2.6062
  930MOL0     H25536   3.285   9.214   7.988 -1.1032  0.7785 -3.3718
  930MOL0     H25537   3.162   9.029   8.063 -0.2473 -0.0083  0.3156
  930MOL0     H25538   3.300   8.607   8.131 -0.7464  0.5793  0.3505
  930MOL0     H25539   3.298   8.613   7.959  2.2141 -1.4080  1.7938
  930MOL0     H25540   3.082   8.553   8.155  0.4691 -1.0586  0.2211
  930MOL0     H25541   3.154   8.442   8.059 -1.0097 -0.1924 -1.0449
  930MOL0     H25542   3.074   8.558   7.847  1.7969  2.0350  0.7245
  930MOL0     H25543   2.977   8.678   7.930 -2.9510 -0.8566  0.2758
  930MOL0     H25544   2.874   8.438   8.049 -0.9940  1.3747  0.1944
  930MOL0     H25545   2.813   8.517   7.897 -0.2205 -1.1339 -2.2942
  930MOL0     H25546   2.998   8.157   7.753 -0.5601  0.2331 -0.7242
  930MOL0     H25547   3.485   8.753   8.000 -0.5755 -0.9256 -2.9628
  930MOL0     H25548   3.707   8.851   7.989 -1.5397  0.8201  2.2136
  930MOL0     H25549   3.663   8.925   7.834 -1.7601 -2.2846  0.7456
  930MOL0     H25550   3.732   9.019   7.984 -1.1377  1.0929  0.1125
  931MOL0     O25551   2.446  10.505  10.689  0.3842  0.0396  0.0200
  931MOL0     C25552   2.353  10.513  10.612  0.1286  0.3184 -0.5047
  931MOL0     O25553   2.369  10.579  10.493 -0.0807  0.8321  0.2433
  931MOL0     C25554   2.475  10.659  10.476 -0.1191 -0.3346  0.1555
  931MOL0     C25555   2.474  10.794  10.495  0.0005 -0.7486 -0.2267
  931MOL0     C25556   2.582  10.882  10.459 -0.5630 -0.0293 -0.8565
  931MOL0     C25557   2.701  10.825  10.408  0.7734  0.0485 -0.5485
  931MOL0     O25558   2.821  10.885  10.397  0.0838 -0.6635  0.6456
  931MOL0     C25559   2.817  11.004  10.316 -0.1944 -0.0495  1.4045
  931MOL0     C25560   2.947  11.089  10.337 -0.4724 -0.0768 -0.1287
  931MOL0     C25561   2.926  11.196  10.439 -0.5867 -0.2355  0.6111
  931MOL0     C25562   3.058  11.263  10.462  0.7224 -0.5661 -0.1028
  931MOL0     C25563   3.062  11.363  10.585 -0.7534  0.6903  1.0306
  931MOL0     C25564   3.066  11.283  10.716  0.3760  0.3575 -0.3745
  931MOL0     C25565   3.088  11.376  10.835 -0.7980  0.2352 -0.3220
  931MOL0     C25566   3.167  11.293  10.935  0.8668 -0.2823  0.2985
  931MOL0     N25567   3.161  11.367  11.065  0.1766  0.8782 -1.1761
  931MOL0     C25568   3.156  11.502  11.094  0.4285 -0.7147  0.2474
  931MOL0     C25569   3.163  11.527  11.227 -0.1176  0.6287 -0.9202
  931MOL0     C25570   3.159  11.655  11.311 -0.1119 -0.8450 -0.1049
  931MOL0     C25571   3.252  11.766  11.239  0.8131  0.5439 -0.0835
  931MOL0     C25572   3.397  11.720  11.241  0.1458  1.0630  0.4829
  931MOL0     C25573   3.494  11.825  11.198 -0.6999 -0.2839  0.4881
  931MOL0     O25574   3.489  11.937  11.290  0.5191 -0.0054  0.2544
  931MOL0     C25575   3.546  11.919  11.418  0.6040 -0.6825 -0.3061
  931MOL0     C25576   3.521  12.021  11.512 -0.7419 -0.3539 -0.5652
  931MOL0     C25577   3.595  12.030  11.632  0.2839 -0.3165  0.8746
  931MOL0     C25578   3.685  11.931  11.669 -0.1795  0.2723  0.2114
  931MOL0     C25579   3.751  11.930  11.804 -0.1715 -0.4256  0.4947
  931MOL0     O25580   3.819  11.812  11.831  0.0700 -0.2135 -0.0579
  931MOL0     C25581   3.839  11.797  11.963 -0.5811  0.4488 -0.1976
  931MOL0     C25582   3.961  11.840  12.020  0.3476 -0.0190  0.4920
  931MOL0     C25583   3.979  11.807  12.162  0.2791  0.9370 -0.1097
  931MOL0     C25584   3.889  11.729  12.233  0.7249 -0.0020  0.4064
  931MOL0     O25585   3.899  11.688  12.373  0.7640 -0.4531 -0.0022
  931MOL0     C25586   4.027  11.698  12.434 -0.1445  0.1146  0.2770
  931MOL0     C25587   4.037  11.635  12.568  0.3368  0.9534  0.4708
  931MOL0     C25588   3.981  11.490  12.562 -0.0314  0.1144  0.9136
  931MOL0     C25589   3.862  11.473  12.655 -0.7084  0.8059 -0.5511
  931MOL0     C25590   3.819  11.325  12.672 -0.6439 -1.2679  0.6751
  931MOL0     C25591   3.758  11.261  12.550  0.1569 -0.5302 -0.1513
  931MOL0     C25592   3.627  11.190  12.592 -0.2820  0.2477  0.5702
  931MOL0     C25593   3.556  11.127  12.465 -0.9936 -0.0024 -0.5297
  931MOL0    Cl25594   3.478  11.247  12.350 -0.2582  0.1777 -0.1628
  931MOL0     C25595   3.776  11.687  12.166  0.3053  0.0922  0.1707
  931MOL0     C25596   3.756  11.716  12.033 -1.0935 -0.9277  0.3441
  931MOL0     O25597   3.747  12.027  11.877 -0.1729  0.1032  0.1372
  931MOL0     C25598   3.697  11.820  11.580  0.6588 -0.6970 -0.3450
  931MOL0     C25599   3.634  11.820  11.461  0.5049  0.5180 -0.1492
  931MOL0     N25600   3.192  11.397  11.273 -0.1502 -0.3562 -0.3209
  931MOL0     N25601   3.197  11.306  11.180 -1.1063  0.0555  0.2722
  931MOL0     C25602   2.699  10.689  10.391 -0.9203  0.2103 -0.4413
  931MOL0     C25603   2.595  10.611  10.427 -0.5889  0.9294  0.3908
  931MOL0     C25604   2.220  10.442  10.642 -0.1435 -0.9311 -0.0985
  931MOL0     C25605   2.211  10.336  10.736 -0.3603  0.4556  0.5491
  931MOL0     C25606   2.095  10.260  10.764  0.4370  0.4342  0.3778
  931MOL0     C25607   1.972  10.313  10.713 -0.4882 -0.5824  0.3462
  931MOL0     O25608   1.859  10.251  10.753 -0.2353  0.4934 -1.1159
  931MOL0     C25609   1.736  10.266  10.694 -0.1256 -0.3019  0.0772
  931MOL0     C25610   1.664  10.392  10.724  0.1371  0.0142  0.8220
  931MOL0     C25611   1.572  10.386  10.845  0.0172  0.4180 -0.1213
  931MOL0     C25612   1.492  10.515  10.859 -0.8311 -0.6156  0.4199
  931MOL0     C25613   1.404  10.501  10.973  0.6159  0.2709 -0.6520
  931MOL0     C25614   1.317  10.508  11.054 -0.7679  0.1032 -0.8505
  931MOL0     C25615   1.971  10.428  10.624 -0.3385  1.0270 -1.6126
  931MOL0     C25616   2.093  10.497  10.591 -0.0040  0.8303  0.9077
  931MOL0     C25617   2.072  10.617  10.501 -0.2432  0.1281 -0.3368
  931MOL0     H25618   2.379  10.832  10.531  0.2557  0.8310 -1.1605
  931MOL0     H25619   2.581  10.990  10.469  2.5737  0.2231 -2.0310
  931MOL0     H25620   2.817  10.972  10.211  4.5508  3.7993 -0.1123
  931MOL0     H25621   2.726  11.064  10.332 -1.3741 -1.2646 -0.3719
  931MOL0     H25622   2.984  11.136  10.245  0.3544  0.8835  0.6725
  931MOL0     H25623   3.018  11.016  10.378 -1.0794 -1.5942 -1.6461
  931MOL0     H25624   2.906  11.142  10.532  0.7345  0.6122  1.4294
  931MOL0     H25625   2.844  11.262  10.408  1.0303  1.5462 -0.0643
  931MOL0     H25626   3.132  11.184  10.469  0.2924 -1.1613 -1.7303
  931MOL0     H25627   3.089  11.322  10.375  2.1091 -1.1660 -0.0285
  931MOL0     H25628   3.156  11.416  10.569 -2.2610  3.9207  1.9021
  931MOL0     H25629   2.977  11.433  10.577 -1.4783 -0.3751 -2.3616
  931MOL0     H25630   2.977  11.222  10.736  1.3327 -0.4043  1.9623
  931MOL0     H25631   3.150  11.214  10.716 -1.1787 -1.6232 -1.1501
  931MOL0     H25632   2.995  11.413  10.878  0.0036  1.4942  0.3848
  931MOL0     H25633   3.154  11.456  10.799 -1.6439 -0.5473 -4.1143
  931MOL0     H25634   3.119  11.197  10.957  0.9020 -0.4483 -0.3281
  931MOL0     H25635   3.274  11.282  10.916  0.7179 -0.7012 -0.3300
  931MOL0     H25636   3.143  11.580  11.019  1.3321  0.0195  0.8314
  931MOL0     H25637   3.056  11.688  11.332  0.2042 -1.5376  3.0084
  931MOL0     H25638   3.197  11.639  11.412  3.0846  1.5891 -0.7353
  931MOL0     H25639   3.216  11.789  11.138 -2.3107 -0.9795  0.5427
  931MOL0     H25640   3.238  11.853  11.303 -2.7824 -0.2698  0.4574
  931MOL0     H25641   3.414  11.626  11.187 -2.7925 -0.2959  1.7500
  931MOL0     H25642   3.417  11.697  11.346 -0.0916 -1.1565  0.0739
  931MOL0     H25643   3.451  11.872  11.109 -1.0011 -1.0939  0.2023
  931MOL0     H25644   3.596  11.788  11.188 -0.1066  0.9882  1.5523
  931MOL0     H25645   3.448  12.094  11.480 -0.4357 -1.3926 -3.9856
  931MOL0     H25646   3.583  12.115  11.698  0.9732 -0.6259  1.4254
  931MOL0     H25647   4.049  11.867  11.963  1.0471 -2.3563  0.3579
  931MOL0     H25648   4.065  11.844  12.217  0.7326  1.7936 -1.3374
  931MOL0     H25649   4.096  11.656  12.360 -1.7002 -0.3490 -0.9782
  931MOL0     H25650   4.044  11.805  12.446 -1.1642  0.1348  1.7861
  931MOL0     H25651   4.137  11.621  12.609 -0.0848  0.6276  1.4313
  931MOL0     H25652   3.979  11.698  12.635 -2.3472 -1.1119  0.2799
  931MOL0     H25653   3.939  11.472  12.463  1.4025  0.1961  0.2637
  931MOL0     H25654   4.052  11.415  12.597  0.7024  0.8058  0.9254
  931MOL0     H25655   3.789  11.547  12.620 -0.7283  1.6613  1.2169
  931MOL0     H25656   3.876  11.517  12.754 -3.1699  2.2389 -0.7375
  931MOL0     H25657   3.741  11.322  12.749 -0.2613 -2.0077  1.0433
  931MOL0     H25658   3.912  11.275  12.701  0.0808 -1.8852 -2.3757
  931MOL0     H25659   3.722  11.335  12.478 -0.3865 -0.4924  0.1537
  931MOL0     H25660   3.831  11.205  12.492  3.3679  3.4830 -0.4286
  931MOL0     H25661   3.552  11.263  12.624 -0.1805  0.6473 -0.0774
  931MOL0     H25662   3.647  11.126  12.678  0.1521  0.1040  0.3638
  931MOL0     H25663   3.622  11.066  12.403 -1.4140 -0.7903 -0.2132
  931MOL0     H25664   3.479  11.055  12.495  0.8017 -1.7541  0.1040
  931MOL0     H25665   3.709  11.619  12.217  3.3434 -2.3383  1.2531
  931MOL0     H25666   3.677  11.668  11.978 -0.4148 -0.1078 -1.4180
  931MOL0     H25667   3.756  11.733  11.604 -2.3681 -2.4410  1.2881
  931MOL0     H25668   3.647  11.732  11.399 -0.0760  1.7736 -2.1448
  931MOL0     H25669   2.785  10.634  10.354 -1.0344 -2.0639  2.3914
  931MOL0     H25670   2.605  10.503  10.423 -1.6695  0.7383  2.0452
  931MOL0     H25671   2.297  10.307  10.795 -2.1154  1.1601  3.7034
  931MOL0     H25672   2.089  10.168  10.821  0.1223 -0.2361 -0.6946
  931MOL0     H25673   1.665  10.184  10.711 -0.7368  0.3557  0.7568
  931MOL0     H25674   1.759  10.254  10.588 -0.0695 -3.2426  0.3240
  931MOL0     H25675   1.604  10.412  10.635  0.3984  0.6179  0.7747
  931MOL0     H25676   1.739  10.472  10.725  1.1556 -0.8165 -2.0509
  931MOL0     H25677   1.628  10.379  10.938 -0.2382 -2.6235 -0.0838
  931MOL0     H25678   1.515  10.292  10.846  3.6018 -1.9444  1.8547
  931MOL0     H25679   1.552  10.604  10.877 -6.4230  4.8971 -3.8382
  931MOL0     H25680   1.438  10.543  10.769  2.4034  2.1116 -0.8689
  931MOL0     H25681   1.244  10.495  11.131  1.0996 -1.2110  0.8019
  931MOL0     H25682   1.878  10.467  10.584 -2.0488  1.0585  1.9705
  931MOL0     H25683   1.970  10.648  10.474  0.6465  0.6647 -3.5331
  931MOL0     H25684   2.108  10.711  10.544 -1.2581  1.8376 -2.9165
  931MOL0     H25685   2.108  10.592  10.401 -2.7547 -0.6215 -1.1390
  932MOL0     O25686   5.071   1.349   7.368  0.1004  0.1451  0.5470
  932MOL0     C25687   5.051   1.377   7.485  0.3421 -0.3318  0.3163
  932MOL0     O25688   5.153   1.388   7.586  0.8100 -0.0972 -0.6319
  932MOL0     C25689   5.284   1.391   7.552  0.4373 -0.0492 -0.4251
  932MOL0     C25690   5.344   1.483   7.469  0.6717  0.4983  0.0088
  932MOL0     C25691   5.484   1.486   7.445 -0.8648 -0.7971 -0.2381
  932MOL0     C25692   5.575   1.399   7.509 -0.6663 -0.2171 -0.2988
  932MOL0     O25693   5.706   1.431   7.513 -0.2581  0.5921 -0.3862
  932MOL0     C25694   5.767   1.452   7.383 -0.1092 -0.5789  0.2592
  932MOL0     C25695   5.918   1.443   7.375  0.3246  0.5237  0.1496
  932MOL0     C25696   5.978   1.468   7.233  0.1963 -0.2134 -1.1371
  932MOL0     C25697   6.010   1.608   7.204 -0.3822 -0.8009  0.0046
  932MOL0     C25698   6.082   1.617   7.062  0.1229 -0.1510 -0.5964
  932MOL0     C25699   6.211   1.687   7.078  0.2538 -0.1288  0.2373
  932MOL0     C25700   6.284   1.704   6.949 -0.3813  0.1762  0.9460
  932MOL0     C25701   6.324   1.572   6.884 -0.1040  0.4701  0.6207
  932MOL0     N25702   6.404   1.478   6.969 -1.1078  0.8695  0.2205
  932MOL0     C25703   6.506   1.515   7.050 -0.7184  0.5703 -0.1565
  932MOL0     C25704   6.565   1.403   7.096  0.1699 -0.3020 -0.1191
  932MOL0     C25705   6.693   1.409   7.175  0.1172  0.2588 -0.9906
  932MOL0     C25706   6.658   1.412   7.327 -0.3380 -0.4575 -0.3316
  932MOL0     C25707   6.666   1.265   7.381 -0.2189  0.2125  0.5098
  932MOL0     C25708   6.620   1.268   7.529  0.6140 -0.1825  0.1614
  932MOL0     O25709   6.699   1.352   7.606  0.3471  0.0115 -0.1724
  932MOL0     C25710   6.810   1.307   7.673  0.1289 -0.1067 -0.3512
  932MOL0     C25711   6.932   1.366   7.632  0.0376  0.4025 -1.2034
  932MOL0     C25712   7.045   1.327   7.700 -0.2568 -0.7628  0.1675
  932MOL0     C25713   7.052   1.229   7.800  0.5345 -1.0009 -0.6133
  932MOL0     C25714   7.171   1.209   7.880  0.8125 -0.7211 -0.1051
  932MOL0     O25715   7.286   1.244   7.826 -0.2107  1.0576  0.5948
  932MOL0     C25716   7.401   1.233   7.895 -1.1698 -0.6058  0.9009
  932MOL0     C25717   7.422   1.164   8.007 -0.8422  0.6678 -0.2771
  932MOL0     C25718   7.545   1.148   8.060 -0.2504 -0.2391 -0.7715
  932MOL0     C25719   7.653   1.220   8.003 -0.4247  0.2976 -0.2176
  932MOL0     O25720   7.773   1.213   8.068 -0.4089 -0.2859  0.6170
  932MOL0     C25721   7.873   1.310   8.027  0.2997 -0.5841  0.0298
  932MOL0     C25722   7.991   1.326   8.123 -0.1796 -0.0303  0.0688
  932MOL0     C25723   7.975   1.453   8.193 -0.2778  0.0231 -1.0225
  932MOL0     C25724   8.090   1.464   8.293 -0.3485 -0.2970  0.1468
  932MOL0     C25725   8.056   1.540   8.422 -0.2870 -0.7128  0.2680
  932MOL0     C25726   8.165   1.614   8.497 -1.0690  0.0393 -0.3446
  932MOL0     C25727   8.114   1.732   8.578 -0.4639  0.2635  0.5620
  932MOL0     C25728   8.079   1.851   8.482 -1.6681  0.4401  0.3989
  932MOL0    Cl25729   8.049   2.009   8.571  0.6031  0.0347  0.5299
  932MOL0     C25730   7.628   1.294   7.886 -0.1271 -0.3626 -0.7917
  932MOL0     C25731   7.506   1.298   7.831 -0.5683  0.1038  0.0551
  932MOL0     O25732   7.147   1.188   7.998  0.5351  1.1028  0.1380
  932MOL0     C25733   6.938   1.162   7.831  0.6939  0.7398 -0.2401
  932MOL0     C25734   6.815   1.211   7.767  1.3512  0.7674 -0.0966
  932MOL0     N25735   6.488   1.292   7.064 -0.4616 -0.2794 -0.0075
  932MOL0     N25736   6.398   1.341   6.984 -0.1494 -0.0726  0.4165
  932MOL0     C25737   5.514   1.290   7.576  0.2543 -0.2095 -0.0092
  932MOL0     C25738   5.370   1.292   7.603 -0.5765  0.0223  0.7628
  932MOL0     C25739   4.916   1.424   7.510  0.6850  0.1723 -1.0262
  932MOL0     C25740   4.894   1.480   7.634 -0.2936 -0.1341 -0.7345
  932MOL0     C25741   4.769   1.518   7.679 -0.2577 -1.0923 -0.1191
  932MOL0     C25742   4.664   1.521   7.593 -0.5734 -0.0732 -0.3273
  932MOL0     O25743   4.544   1.573   7.618  0.4659 -0.2586  0.2568
  932MOL0     C25744   4.492   1.616   7.743 -0.0308  0.2064 -0.5810
  932MOL0     C25745   4.344   1.653   7.723 -0.5609  0.8792 -0.4352
  932MOL0     C25746   4.280   1.705   7.860  0.0301 -0.2866  0.6868
  932MOL0     C25747   4.244   1.588   7.958 -0.5958  0.0975  0.1005
  932MOL0     C25748   4.116   1.526   7.929  0.1956  0.8100  0.6684
  932MOL0     C25749   4.004   1.490   7.891  1.0890  0.0939  0.0867
  932MOL0     C25750   4.686   1.473   7.469 -0.0724  0.4946 -0.7881
  932MOL0     C25751   4.806   1.417   7.422  0.9107 -0.6710 -0.0941
  932MOL0     C25752   4.802   1.370   7.277 -0.3348  0.0546 -0.4989
  932MOL0     H25753   5.276   1.557   7.428 -0.2177  0.3709  1.1982
  932MOL0     H25754   5.521   1.568   7.384 -2.5628 -1.6840 -2.5912
  932MOL0     H25755   5.724   1.379   7.314  0.9527 -0.8309 -0.1565
  932MOL0     H25756   5.731   1.553   7.360 -0.4769 -0.9950 -1.0858
  932MOL0     H25757   5.957   1.345   7.405  1.8710  0.4911 -1.7588
  932MOL0     H25758   5.942   1.515   7.454 -0.7082 -0.6342  1.5639
  932MOL0     H25759   5.927   1.417   7.150 -2.3465  1.1822 -0.5462
  932MOL0     H25760   6.071   1.412   7.240  0.1298 -0.2609 -0.6199
  932MOL0     H25761   5.923   1.674   7.214 -0.1249 -0.5418  0.6129
  932MOL0     H25762   6.063   1.620   7.299  0.6819 -1.7466 -0.4501
  932MOL0     H25763   6.098   1.514   7.029 -0.2770 -0.5088  0.2957
  932MOL0     H25764   6.010   1.665   6.995  0.5347 -0.9994 -1.6917
  932MOL0     H25765   6.181   1.783   7.119 -1.8288 -0.9695  0.8139
  932MOL0     H25766   6.273   1.629   7.146  1.6545  0.9445 -0.0847
  932MOL0     H25767   6.373   1.767   6.955 -0.8759  0.9654  0.2308
  932MOL0     H25768   6.218   1.761   6.883  1.2743  2.2312  0.9588
  932MOL0     H25769   6.238   1.519   6.843  0.1333  1.5292 -1.3609
  932MOL0     H25770   6.386   1.584   6.795 -1.0982  0.1627 -0.1285
  932MOL0     H25771   6.541   1.613   7.082  0.0514  0.8237 -1.6805
  932MOL0     H25772   6.763   1.328   7.153  4.0324  3.0859 -0.0727
  932MOL0     H25773   6.756   1.494   7.147 -0.7092  0.5861 -1.9124
  932MOL0     H25774   6.727   1.477   7.380  0.1692 -3.2642  2.7335
  932MOL0     H25775   6.556   1.446   7.345 -1.0338 -2.2203 -0.6774
  932MOL0     H25776   6.774   1.247   7.387 -0.5094 -1.3919  1.5420
  932MOL0     H25777   6.614   1.205   7.306  0.4880  0.3043 -0.0768
  932MOL0     H25778   6.630   1.163   7.558 -4.4601 -0.8601  0.4356
  932MOL0     H25779   6.513   1.288   7.542  0.9918  0.9794  1.9155
  932MOL0     H25780   6.918   1.438   7.552 -1.1125 -2.5409 -3.8739
  932MOL0     H25781   7.132   1.388   7.675  0.9061 -0.4193  4.2824
  932MOL0     H25782   7.347   1.112   8.066 -0.3029  0.1574 -0.0293
  932MOL0     H25783   7.565   1.098   8.154 -0.7815 -1.4784 -1.2796
  932MOL0     H25784   7.916   1.283   7.930  3.1710  2.0643  0.3783
  932MOL0     H25785   7.828   1.409   8.017  1.5471  0.0169  0.0916
  932MOL0     H25786   7.994   1.237   8.187  1.5098 -0.9340 -1.1798
  932MOL0     H25787   8.076   1.336   8.054 -2.3025  0.4240 -2.6512
  932MOL0     H25788   7.975   1.534   8.120  2.4392 -1.9526 -3.4616
  932MOL0     H25789   7.881   1.463   8.248  0.9300  0.5391  1.0474
  932MOL0     H25790   8.164   1.522   8.237  1.3836 -1.9779  0.5782
  932MOL0     H25791   8.130   1.369   8.328 -0.6643  1.0874  5.1802
  932MOL0     H25792   8.009   1.476   8.497  0.6968 -0.8754  0.7692
  932MOL0     H25793   7.984   1.614   8.387  0.8529 -0.0810 -0.8133
  932MOL0     H25794   8.231   1.552   8.558  0.2778  1.3321 -0.4293
  932MOL0     H25795   8.235   1.643   8.418  0.4151 -0.6245  0.6860
  932MOL0     H25796   8.183   1.759   8.658  0.7503  0.8413 -0.6519
  932MOL0     H25797   8.023   1.695   8.626 -1.3783  0.6471 -0.8438
  932MOL0     H25798   8.159   1.871   8.410 -2.1983 -2.8933 -1.3391
  932MOL0     H25799   7.990   1.831   8.422 -1.0967 -0.4892 -0.1788
  932MOL0     H25800   7.698   1.364   7.842 -0.0411  0.4276  0.5386
  932MOL0     H25801   7.489   1.368   7.750  0.3890  1.0585  0.6547
  932MOL0     H25802   6.924   1.079   7.898 -2.5180  2.3001  1.2464
  932MOL0     H25803   6.720   1.162   7.788  1.3968 -0.5277 -2.4830
  932MOL0     H25804   5.586   1.218   7.612  0.8584  0.6988  0.6594
  932MOL0     H25805   5.320   1.220   7.668 -0.0798 -1.6755 -0.6624
  932MOL0     H25806   4.968   1.487   7.713 -1.1028  1.0707 -0.0478
  932MOL0     H25807   4.748   1.549   7.781 -0.1277  1.6299 -0.8254
  932MOL0     H25808   4.554   1.695   7.789  0.0823 -2.7462  5.2387
  932MOL0     H25809   4.494   1.532   7.813 -3.5269  0.0463 -0.5294
  932MOL0     H25810   4.291   1.564   7.690 -1.7618  0.9262  1.2200
  932MOL0     H25811   4.333   1.733   7.649 -0.5727  0.6526 -0.6797
  932MOL0     H25812   4.187   1.761   7.843 -1.5820 -3.0338 -0.2899
  932MOL0     H25813   4.346   1.783   7.896 -1.5565  2.3061 -1.6351
  932MOL0     H25814   4.317   1.507   7.962  1.4702  1.8963  1.1947
  932MOL0     H25815   4.252   1.621   8.062  1.4701 -1.8621  0.6534
  932MOL0     H25816   3.902   1.471   7.863  0.3309  1.6071  1.6245
  932MOL0     H25817   4.600   1.474   7.404 -0.9852  0.1529  0.3900
  932MOL0     H25818   4.837   1.267   7.276  1.1113  0.4069  2.4511
  932MOL0     H25819   4.713   1.383   7.214  0.4778 -0.3882 -1.7665
  932MOL0     H25820   4.877   1.438   7.235  0.1806 -1.1900 -1.6508
  933MOL0     O25821   6.451   1.553   3.518 -0.1493 -0.5514 -0.0216
  933MOL0     C25822   6.508   1.621   3.592  0.3117  0.2203  0.3321
  933MOL0     O25823   6.491   1.760   3.614  0.2053 -0.2926  0.2288
  933MOL0     C25824   6.407   1.827   3.529  0.9824 -0.1139 -0.4305
  933MOL0     C25825   6.387   1.806   3.390 -0.3306  0.7951  0.0949
  933MOL0     C25826   6.306   1.882   3.309  0.1546  0.1940  0.6998
  933MOL0     C25827   6.221   1.976   3.362 -0.7719 -0.7422 -0.0808
  933MOL0     O25828   6.139   2.051   3.282  0.3703 -0.2944 -0.0893
  933MOL0     C25829   6.048   2.158   3.326 -0.6785  0.5625  0.2781
  933MOL0     C25830   5.984   2.206   3.193  0.7616  0.5646 -0.0507
  933MOL0     C25831   5.893   2.317   3.223 -0.1065 -0.6708  0.5225
  933MOL0     C25832   5.794   2.345   3.101 -0.7090 -0.1963 -0.3349
  933MOL0     C25833   5.760   2.497   3.102  1.0375  0.2023  0.0477
  933MOL0     C25834   5.635   2.529   3.017  0.1714  0.2593  0.5714
  933MOL0     C25835   5.597   2.671   2.980 -1.0049  0.2140 -0.7321
  933MOL0     C25836   5.615   2.757   3.097  0.1530 -0.9519 -0.6511
  933MOL0     N25837   5.538   2.885   3.087 -0.0008  0.3272  0.1316
  933MOL0     C25838   5.602   2.999   3.036 -0.0446  0.7746 -0.4280
  933MOL0     C25839   5.507   3.098   3.061  0.0037 -0.6910  0.8507
  933MOL0     C25840   5.506   3.245   3.008 -0.0162  0.9821 -1.1013
  933MOL0     C25841   5.404   3.271   2.889  0.6957 -0.5284 -0.5480
  933MOL0     C25842   5.417   3.166   2.773 -0.6675 -1.0473 -0.0200
  933MOL0     C25843   5.347   3.232   2.649 -0.9763  0.8770  0.2885
  933MOL0     O25844   5.342   3.136   2.539  0.5941 -0.8964  0.0769
  933MOL0     C25845   5.275   3.163   2.421  1.0862 -0.4761  0.2317
  933MOL0     C25846   5.288   3.074   2.315 -0.1215  0.2323  0.5896
  933MOL0     C25847   5.224   3.088   2.195 -0.0395  1.3153 -0.4365
  933MOL0     C25848   5.148   3.205   2.167  0.2964  0.1004  0.0943
  933MOL0     C25849   5.083   3.219   2.041  0.0722 -0.1033 -0.0178
  933MOL0     O25850   5.040   3.346   2.006  0.2044 -0.0377  0.9012
  933MOL0     C25851   4.970   3.364   1.883 -0.6671  0.0151  0.5231
  933MOL0     C25852   5.013   3.312   1.757 -0.2525  0.4015  0.6199
  933MOL0     C25853   4.938   3.325   1.642  0.7386  0.1073  0.6946
  933MOL0     C25854   4.821   3.402   1.639 -0.6182  0.2424  0.7417
  933MOL0     O25855   4.755   3.411   1.520 -0.6301 -0.0653  0.2739
  933MOL0     C25856   4.617   3.415   1.527 -0.3089 -0.0174  0.1677
  933MOL0     C25857   4.561   3.365   1.393 -0.2946 -1.1105  0.5735
  933MOL0     C25858   4.570   3.217   1.377 -0.3823 -0.9984  0.3453
  933MOL0     C25859   4.536   3.170   1.231  0.2402  0.5121 -0.0850
  933MOL0     C25860   4.647   3.176   1.133 -0.8670  0.5072  0.3338
  933MOL0     C25861   4.620   3.139   0.987  0.1524  0.2417  0.4917
  933MOL0     C25862   4.756   3.110   0.904 -0.1385 -0.1718 -0.0201
  933MOL0     C25863   4.859   3.218   0.905  0.3048 -0.4919  0.5845
  933MOL0    Cl25864   4.970   3.211   0.768  0.1384 -0.3824 -0.1850
  933MOL0     C25865   4.780   3.457   1.758 -0.1166 -0.8467 -1.0317
  933MOL0     C25866   4.848   3.442   1.876  0.5936 -0.4126 -0.0470
  933MOL0     O25867   5.087   3.120   1.963  0.2948 -0.1579  0.7237
  933MOL0     C25868   5.143   3.310   2.264 -0.2815  0.8164 -0.8279
  933MOL0     C25869   5.199   3.284   2.392  0.7871 -0.4012 -0.5831
  933MOL0     N25870   5.402   3.040   3.139  0.5224 -0.1184 -0.1018
  933MOL0     N25871   5.419   2.914   3.140  0.0280 -1.6551  0.5053
  933MOL0     C25872   6.234   1.996   3.501 -0.4840 -0.9718  0.0028
  933MOL0     C25873   6.333   1.928   3.580  0.6205  0.1504  0.0240
  933MOL0     C25874   6.601   1.542   3.685 -0.9770  0.1417 -0.2377
  933MOL0     C25875   6.688   1.618   3.766 -0.3284 -0.0776 -0.5326
  933MOL0     C25876   6.771   1.553   3.843 -0.9222  0.2482  0.7941
  933MOL0     C25877   6.781   1.416   3.862  0.0149  0.6715 -0.1741
  933MOL0     O25878   6.874   1.362   3.953  0.0402 -0.2367  0.8685
  933MOL0     C25879   6.885   1.219   3.960  0.2928  0.1348 -0.2591
  933MOL0     C25880   7.008   1.188   4.054 -0.2972  0.4939  1.4607
  933MOL0     C25881   6.987   1.043   4.098  0.2700 -0.5251  0.2558
  933MOL0     C25882   7.100   1.010   4.198  0.0926  1.1024 -0.4481
  933MOL0     C25883   7.188   0.909   4.142 -0.1231 -1.2053 -0.8465
  933MOL0     C25884   7.257   0.817   4.104  1.1174 -0.2457 -0.8311
  933MOL0     C25885   6.688   1.341   3.791 -0.2053 -0.4453 -1.0085
  933MOL0     C25886   6.599   1.403   3.705  0.3404  1.2343 -0.0426
  933MOL0     C25887   6.513   1.299   3.633  0.7577 -0.2806  0.7264
  933MOL0     H25888   6.432   1.721   3.340  0.2523  1.3266 -0.3028
  933MOL0     H25889   6.295   1.865   3.202 -0.3438 -0.0985  0.7921
  933MOL0     H25890   5.969   2.116   3.389 -0.0827 -3.5493 -1.4257
  933MOL0     H25891   6.102   2.239   3.376 -2.2095  2.6839 -1.2636
  933MOL0     H25892   5.921   2.127   3.151  0.4497  1.4583 -1.3101
  933MOL0     H25893   6.056   2.226   3.113  0.9994  0.8894  0.2401
  933MOL0     H25894   5.952   2.405   3.249  0.1794 -1.4134  2.6350
  933MOL0     H25895   5.832   2.301   3.312 -0.3945 -0.7550  0.3096
  933MOL0     H25896   5.822   2.308   3.002 -3.1392 -3.1636 -0.0625
  933MOL0     H25897   5.704   2.290   3.130  1.1468 -2.5400  1.4411
  933MOL0     H25898   5.743   2.513   3.209 -0.1705 -0.7214  0.0163
  933MOL0     H25899   5.838   2.564   3.066 -0.6606  1.9906 -0.4335
  933MOL0     H25900   5.646   2.480   2.920 -0.9865 -0.3783  0.7420
  933MOL0     H25901   5.552   2.472   3.062  1.6544 -4.1566 -1.6496
  933MOL0     H25902   5.494   2.667   2.942 -0.4172 -1.6116 -2.3284
  933MOL0     H25903   5.672   2.707   2.909 -1.2482  0.7081 -0.7449
  933MOL0     H25904   5.568   2.706   3.181 -3.9142  0.0142 -2.1182
  933MOL0     H25905   5.722   2.778   3.107 -0.1355  0.2142  0.2942
  933MOL0     H25906   5.702   3.005   2.994  0.8314 -1.2520  1.1898
  933MOL0     H25907   5.487   3.303   3.099  1.2183 -1.7397  1.0489
  933MOL0     H25908   5.601   3.275   2.964  0.5116  0.2423 -0.5034
  933MOL0     H25909   5.300   3.285   2.921  0.9424 -0.1962  0.1137
  933MOL0     H25910   5.439   3.367   2.850 -3.1947  2.3490  2.2231
  933MOL0     H25911   5.361   3.076   2.797 -0.8592 -0.5468  1.5491
  933MOL0     H25912   5.523   3.148   2.753  0.1227  0.6297  2.2315
  933MOL0     H25913   5.396   3.324   2.616 -2.7803  1.6493 -0.3707
  933MOL0     H25914   5.246   3.261   2.677 -2.0437  0.8365 -3.0634
  933MOL0     H25915   5.357   2.991   2.329  0.0258 -0.4921 -3.3099
  933MOL0     H25916   5.234   3.010   2.121  2.6568  0.3680  0.7906
  933MOL0     H25917   5.097   3.244   1.744 -1.7736 -1.3192 -0.8145
  933MOL0     H25918   4.986   3.284   1.554  2.7244 -0.0008  1.7567
  933MOL0     H25919   4.592   3.342   1.605  0.6640 -0.0522  0.4504
  933MOL0     H25920   4.582   3.517   1.545 -0.0964  0.4863 -2.0560
  933MOL0     H25921   4.455   3.391   1.395 -0.0554  0.0862 -0.6122
  933MOL0     H25922   4.610   3.426   1.316 -1.9880  1.3719  1.3619
  933MOL0     H25923   4.674   3.185   1.388 -1.0223 -3.4648 -0.0007
  933MOL0     H25924   4.510   3.184   1.463  0.9961  0.6280  2.0101
  933MOL0     H25925   4.448   3.231   1.207 -0.4165  0.0930  1.2011
  933MOL0     H25926   4.513   3.063   1.231  0.9557  0.2669  3.2099
  933MOL0     H25927   4.719   3.101   1.167  0.3862  1.6451  0.2645
  933MOL0     H25928   4.702   3.270   1.136  4.0557 -2.0547  0.0813
  933MOL0     H25929   4.548   3.057   0.992 -1.3994  1.6021  1.7789
  933MOL0     H25930   4.574   3.224   0.936 -2.3840 -2.1029 -1.4164
  933MOL0     H25931   4.734   3.087   0.800 -0.8443  0.3186  0.0159
  933MOL0     H25932   4.785   3.016   0.952 -1.1919  0.3866  1.8257
  933MOL0     H25933   4.812   3.317   0.904  2.5266  0.7302  3.2561
  933MOL0     H25934   4.916   3.220   0.999  0.1827  3.1207  0.7327
  933MOL0     H25935   4.684   3.507   1.761  0.3516  0.0448 -0.1992
  933MOL0     H25936   4.804   3.484   1.966  1.7192  1.9701 -0.5337
  933MOL0     H25937   5.098   3.407   2.246  3.3188  2.4141 -2.3603
  933MOL0     H25938   5.173   3.350   2.474  0.0256 -1.3140 -0.0729
  933MOL0     H25939   6.178   2.074   3.551 -2.2585 -2.1038 -0.1393
  933MOL0     H25940   6.325   1.938   3.687  0.5184 -5.2724  0.7970
  933MOL0     H25941   6.680   1.726   3.777 -1.8201 -0.1677 -0.4620
  933MOL0     H25942   6.837   1.617   3.901 -1.6137  0.5870  1.2353
  933MOL0     H25943   6.910   1.183   3.859 -1.1991  0.2767 -0.7020
  933MOL0     H25944   6.792   1.181   4.001 -0.4099  1.6025 -0.4286
  933MOL0     H25945   7.015   1.262   4.135  2.7274  2.8273 -0.7361
  933MOL0     H25946   7.100   1.195   3.996 -0.4379 -0.4443  1.1076
  933MOL0     H25947   6.992   0.975   4.013 -0.0214 -1.5622  1.0468
  933MOL0     H25948   6.889   1.015   4.138  1.2586 -2.7193  1.2887
  933MOL0     H25949   7.164   1.097   4.218  1.9660  1.0197 -4.8927
  933MOL0     H25950   7.058   0.970   4.291 -0.3568  2.3756 -0.0843
  933MOL0     H25951   7.337   0.758   4.065 -0.3764 -2.6182 -0.5481
  933MOL0     H25952   6.681   1.235   3.817 -0.1961 -0.1849  0.0960
  933MOL0     H25953   6.493   1.204   3.683 -1.9351  0.1104  0.5150
  933MOL0     H25954   6.413   1.343   3.628  0.6920 -0.4330  0.7092
  933MOL0     H25955   6.551   1.285   3.531  3.5869  1.8555  1.3520
  934MOL0     O25956   2.877   9.329   4.545  0.9122  0.8296  0.2824
  934MOL0     C25957   2.782   9.389   4.598 -0.2670  0.2245  0.0142
  934MOL0     O25958   2.662   9.335   4.635 -0.5378  0.4896 -0.7689
  934MOL0     C25959   2.642   9.202   4.672  0.5549 -0.1116  0.9140
  934MOL0     C25960   2.508   9.166   4.706  0.1108 -0.0944 -0.1145
  934MOL0     C25961   2.483   9.034   4.758 -1.1462 -0.5954 -0.8060
  934MOL0     C25962   2.588   8.950   4.784  0.1571 -0.7207  0.9234
  934MOL0     O25963   2.573   8.838   4.853 -0.5977  0.2321  0.0511
  934MOL0     C25964   2.452   8.768   4.830  0.4471 -0.5991  0.5382
  934MOL0     C25965   2.479   8.625   4.859  0.1105 -0.1302  0.1756
  934MOL0     C25966   2.360   8.544   4.797 -0.2961  0.5609  0.3592
  934MOL0     C25967   2.365   8.402   4.866  0.2937 -0.5685 -0.6531
  934MOL0     C25968   2.255   8.317   4.798 -0.1726  0.3512 -0.1625
  934MOL0     C25969   2.272   8.185   4.876 -0.4275 -0.2876 -0.4865
  934MOL0     C25970   2.151   8.094   4.851 -0.2034 -0.6237 -0.3188
  934MOL0     C25971   2.172   8.013   4.720 -0.0756 -1.5605  0.1034
  934MOL0     N25972   2.288   7.925   4.726  0.8169  0.0638  0.1410
  934MOL0     C25973   2.369   7.896   4.615  0.0249 -0.2867 -0.0186
  934MOL0     C25974   2.454   7.795   4.650 -0.1658  0.0832 -1.1172
  934MOL0     C25975   2.571   7.735   4.581 -0.8616  0.3227  0.2139
  934MOL0     C25976   2.525   7.622   4.488  0.5621 -0.1811 -0.3407
  934MOL0     C25977   2.404   7.658   4.395 -0.9240  0.6647 -0.1855
  934MOL0     C25978   2.365   7.526   4.326 -0.1829 -0.5698  0.0972
  934MOL0     O25979   2.488   7.464   4.272 -0.2620  0.3515 -0.2475
  934MOL0     C25980   2.466   7.384   4.165  0.0723 -0.5750  1.1881
  934MOL0     C25981   2.565   7.379   4.068  0.2351  0.8208 -0.9502
  934MOL0     C25982   2.547   7.307   3.953 -0.1177 -0.1815 -0.2456
  934MOL0     C25983   2.430   7.242   3.922 -0.0795 -0.0698  0.0572
  934MOL0     C25984   2.412   7.154   3.803  0.0401  1.0553  0.5978
  934MOL0     O25985   2.295   7.076   3.799  0.2127  0.8063  0.3080
  934MOL0     C25986   2.253   7.021   3.675 -0.7427 -0.3753  0.1467
  934MOL0     C25987   2.192   6.895   3.669  0.9261  0.5702 -1.0965
  934MOL0     C25988   2.145   6.849   3.553  0.0724  0.6674 -0.0409
  934MOL0     C25989   2.164   6.919   3.428  0.5079  0.6379  0.3360
  934MOL0     O25990   2.111   6.884   3.297 -0.0856  0.0252 -0.0668
  934MOL0     C25991   2.097   6.749   3.264  0.0545  0.8743 -0.5977
  934MOL0     C25992   2.103   6.739   3.111 -0.4740  0.7932 -0.5713
  934MOL0     C25993   2.246   6.737   3.041  0.7670 -0.1952  0.4465
  934MOL0     C25994   2.247   6.712   2.887 -0.1277 -0.6908 -0.1539
  934MOL0     C25995   2.390   6.747   2.824 -0.4086 -1.2137 -0.4637
  934MOL0     C25996   2.376   6.761   2.670 -0.6296 -0.8268  0.5928
  934MOL0     C25997   2.516   6.802   2.615 -0.5387 -0.5569 -0.5950
  934MOL0     C25998   2.508   6.824   2.465  0.5330  0.7371  0.0735
  934MOL0    Cl25999   2.396   6.952   2.434  0.3926 -0.1955 -0.1416
  934MOL0     C26000   2.230   7.040   3.433  0.7630  0.1307 -0.2062
  934MOL0     C26001   2.273   7.091   3.552  0.0448 -0.1187  0.1376
  934MOL0     O26002   2.511   7.144   3.730 -0.3964 -0.1891  0.7154
  934MOL0     C26003   2.332   7.255   4.018  0.1984 -0.6396 -1.0680
  934MOL0     C26004   2.348   7.325   4.136  1.1359  0.4733 -0.0726
  934MOL0     N26005   2.407   7.755   4.777  0.0588 -0.3854  0.0231
  934MOL0     N26006   2.308   7.827   4.821 -0.6864 -1.0110  0.1127
  934MOL0     C26007   2.715   8.985   4.744 -0.4001 -0.1527 -0.6631
  934MOL0     C26008   2.745   9.109   4.687 -0.7280  0.7573 -0.5423
  934MOL0     C26009   2.799   9.542   4.618  0.7966  1.0575 -0.1596
  934MOL0     C26010   2.934   9.586   4.618  1.4258 -0.9355 -0.5318
  934MOL0     C26011   2.966   9.726   4.615  1.1944  0.8700 -0.2782
  934MOL0     C26012   2.860   9.808   4.600  0.4292 -1.0662 -0.2228
  934MOL0     O26013   2.882   9.948   4.592  0.2231  0.0667 -0.2930
  934MOL0     C26014   2.852   9.996   4.463 -0.4519 -0.4662 -1.4157
  934MOL0     C26015   2.939  10.117   4.435  0.0685  0.4174 -0.5114
  934MOL0     C26016   2.869  10.243   4.500  1.0990 -0.2181  0.3622
  934MOL0     C26017   2.955  10.362   4.533  0.0819 -0.1450 -0.3302
  934MOL0     C26018   2.881  10.467   4.605 -0.3496 -0.1997  0.5240
  934MOL0     C26019   2.812  10.535   4.679 -1.1180  0.4716  0.1424
  934MOL0     C26020   2.723   9.767   4.621  0.3170  0.1197  0.8708
  934MOL0     C26021   2.696   9.624   4.637  1.0040  0.1433  0.3734
  934MOL0     C26022   2.542   9.600   4.640  0.4855  0.0388 -0.0397
  934MOL0     H26023   2.434   9.245   4.691  0.6454  0.6147  0.8691
  934MOL0     H26024   2.377   9.014   4.768 -1.1669 -0.7060 -1.2151
  934MOL0     H26025   2.372   8.800   4.897 -0.4535 -0.4851 -0.5564
  934MOL0     H26026   2.419   8.778   4.726  1.1398 -2.1959  0.1352
  934MOL0     H26027   2.498   8.606   4.965  0.0821  0.5764  0.3138
  934MOL0     H26028   2.572   8.590   4.812  2.5364  1.3886  3.4303
  934MOL0     H26029   2.388   8.529   4.692 -1.0150 -2.4044  0.4937
  934MOL0     H26030   2.269   8.601   4.815 -1.5410 -1.3921  0.5317
  934MOL0     H26031   2.465   8.360   4.857  1.0121  1.0732 -0.8101
  934MOL0     H26032   2.344   8.416   4.972  1.7755 -2.5856 -0.0340
  934MOL0     H26033   2.155   8.354   4.821  0.2416  1.1853  0.3544
  934MOL0     H26034   2.250   8.313   4.689  0.0004 -2.8104 -0.1300
  934MOL0     H26035   2.357   8.126   4.843 -2.1853 -3.1160 -0.2819
  934MOL0     H26036   2.285   8.206   4.983  2.2536 -0.7056 -0.6571
  934MOL0     H26037   2.057   8.147   4.868  0.3575 -0.1373  1.4746
  934MOL0     H26038   2.152   8.017   4.928 -1.4902 -0.2914  0.0398
  934MOL0     H26039   2.085   7.946   4.723  0.2995 -2.0502  0.1537
  934MOL0     H26040   2.176   8.083   4.636 -1.6171 -0.5889  0.7919
  934MOL0     H26041   2.360   7.938   4.515  0.3885 -1.3971 -0.5286
  934MOL0     H26042   2.628   7.809   4.524  0.6429  0.4628  1.8234
  934MOL0     H26043   2.649   7.698   4.648 -0.1794 -1.9428 -1.6579
  934MOL0     H26044   2.613   7.588   4.434  0.8263 -1.1286  0.6476
  934MOL0     H26045   2.505   7.533   4.549  1.6081  0.9636  1.7784
  934MOL0     H26046   2.442   7.728   4.320  5.3401 -0.7491  1.1645
  934MOL0     H26047   2.314   7.685   4.451 -1.5591 -2.5781  0.5250
  934MOL0     H26048   2.290   7.535   4.246 -0.5356 -1.6219  0.3016
  934MOL0     H26049   2.330   7.460   4.405 -0.3547  1.1908  1.5633
  934MOL0     H26050   2.663   7.418   4.096  1.8498 -3.7348  0.6946
  934MOL0     H26051   2.630   7.298   3.883 -0.1547 -2.1570 -0.1062
  934MOL0     H26052   2.170   6.852   3.767  0.3202  3.5530  0.1823
  934MOL0     H26053   2.088   6.756   3.552  0.8617  0.1735 -1.1227
  934MOL0     H26054   2.177   6.689   3.306 -0.3271 -1.2691 -2.7432
  934MOL0     H26055   2.002   6.706   3.296  1.8568 -2.1826  1.1323
  934MOL0     H26056   2.059   6.641   3.088  0.1612  0.8193 -2.0301
  934MOL0     H26057   2.030   6.807   3.064 -1.5980 -0.3666 -0.5789
  934MOL0     H26058   2.290   6.834   3.065 -2.1281  1.3008  0.1482
  934MOL0     H26059   2.303   6.655   3.083  1.2737 -0.6948 -1.1381
  934MOL0     H26060   2.165   6.776   2.857 -0.6705 -0.7657  1.1157
  934MOL0     H26061   2.219   6.609   2.863 -1.9427 -0.4176  0.6175
  934MOL0     H26062   2.463   6.667   2.844  2.4580  1.0295 -1.1770
  934MOL0     H26063   2.432   6.842   2.858 -3.3784  0.0333 -0.0302
  934MOL0     H26064   2.331   6.674   2.621  0.7881  0.6436 -3.8072
  934MOL0     H26065   2.315   6.850   2.652  0.1168 -0.5022 -0.4355
  934MOL0     H26066   2.583   6.718   2.636 -2.9848 -2.3045  0.8452
  934MOL0     H26067   2.550   6.895   2.662  0.2296 -0.1041 -1.9828
  934MOL0     H26068   2.608   6.854   2.434  1.9738 -1.3357  2.3370
  934MOL0     H26069   2.477   6.735   2.409 -1.8114  1.7086 -0.2919
  934MOL0     H26070   2.258   7.107   3.352 -0.1248  0.0312 -0.6179
  934MOL0     H26071   2.326   7.185   3.547  1.5951 -0.8595  1.4778
  934MOL0     H26072   2.229   7.237   3.991 -1.0337  4.7420 -0.9654
  934MOL0     H26073   2.254   7.321   4.191  0.4083  0.1820 -1.3050
  934MOL0     H26074   2.789   8.913   4.779 -1.3911  0.5694  3.3784
  934MOL0     H26075   2.851   9.121   4.670 -0.1721 -0.1973  1.8895
  934MOL0     H26076   3.008   9.509   4.599 -0.2329 -3.1952  1.5284
  934MOL0     H26077   3.070   9.757   4.612  0.4583  3.8996  1.2317
  934MOL0     H26078   2.745  10.015   4.456 -0.2083  0.8743 -1.8406
  934MOL0     H26079   2.866   9.920   4.385 -0.7056  0.0833 -2.0089
  934MOL0     H26080   2.969  10.140   4.332  0.2673  3.3279  0.1074
  934MOL0     H26081   3.033  10.097   4.487  0.3967  0.8067 -0.9396
  934MOL0     H26082   2.815  10.213   4.591  0.7765 -1.3245 -0.1705
  934MOL0     H26083   2.799  10.283   4.427 -0.9377 -2.2209  1.1089
  934MOL0     H26084   3.032  10.328   4.603  2.0695  3.3270 -0.6217
  934MOL0     H26085   3.009  10.404   4.448 -0.4317  0.3545 -0.4121
  934MOL0     H26086   2.743  10.584   4.745 -0.6129 -0.5100  1.4548
  934MOL0     H26087   2.644   9.841   4.619  2.3005  2.4059 -1.3962
  934MOL0     H26088   2.525   9.566   4.742  1.4554 -1.4368 -0.3393
  934MOL0     H26089   2.482   9.686   4.607 -0.7697 -1.4202 -1.7885
  934MOL0     H26090   2.508   9.527   4.566  2.0086 -1.5157  0.7141
  935MOL0     O26091   2.296   1.697  11.056 -0.2450 -0.4000  0.0335
  935MOL0     C26092   2.318   1.815  11.039 -0.8318 -0.6793 -0.1520
  935MOL0     O26093   2.283   1.886  10.930 -0.4912  0.4013 -0.1411
  935MOL0     C26094   2.216   1.814  10.836 -0.3326  0.3443  0.6565
  935MOL0     C26095   2.078   1.787  10.863 -0.0471  0.6125  0.1720
  935MOL0     C26096   2.000   1.725  10.767  0.3640  0.0953 -0.1429
  935MOL0     C26097   2.056   1.687  10.639 -0.8383  0.0321 -0.2185
  935MOL0     O26098   1.996   1.632  10.529 -0.1588 -0.2568 -1.0794
  935MOL0     C26099   1.858   1.585  10.542 -1.0692 -0.9061  0.3955
  935MOL0     C26100   1.789   1.545  10.405  0.7874 -0.0541  0.2063
  935MOL0     C26101   1.811   1.391  10.375 -0.8016  0.0069 -0.4596
  935MOL0     C26102   1.950   1.364  10.298  0.0027  0.4744  0.6180
  935MOL0     C26103   1.979   1.221  10.254 -0.0198  0.2902 -0.6010
  935MOL0     C26104   2.073   1.217  10.137  0.3063 -0.2475 -0.0677
  935MOL0     C26105   2.152   1.084  10.109  1.0927  0.3169 -0.2311
  935MOL0     C26106   2.256   1.051  10.223  0.6371  0.4023 -1.2010
  935MOL0     N26107   2.360   0.960  10.171 -0.1285 -0.0051  0.0708
  935MOL0     C26108   2.367   0.823  10.182 -1.2341 -1.2613 -0.2684
  935MOL0     C26109   2.477   0.793  10.094  0.3945 -0.4066 -0.7813
  935MOL0     C26110   2.519   0.658  10.057 -0.9703  0.1431 -0.7957
  935MOL0     C26111   2.411   0.563  10.021 -0.7169  0.2523 -0.1620
  935MOL0     C26112   2.348   0.591   9.886  1.0528  1.1340 -0.6576
  935MOL0     C26113   2.230   0.690   9.903 -0.0179  0.2469  0.1886
  935MOL0     O26114   2.135   0.643  10.006 -1.1310 -0.1118  0.6692
  935MOL0     C26115   1.997   0.616   9.976 -0.4061  0.5504 -0.6058
  935MOL0     C26116   1.912   0.581  10.081 -0.7858 -0.5317 -0.2362
  935MOL0     C26117   1.790   0.525  10.063 -0.5408 -1.0303  0.3342
  935MOL0     C26118   1.724   0.511   9.947  0.5149  0.1250  0.8534
  935MOL0     C26119   1.584   0.465   9.929  0.1016  0.5838  0.9031
  935MOL0     O26120   1.514   0.490   9.814  0.2425 -0.6694  0.7045
  935MOL0     C26121   1.385   0.455   9.792 -0.3716  0.8369 -0.3496
  935MOL0     C26122   1.351   0.445   9.656 -0.0189 -0.3353 -1.0593
  935MOL0     C26123   1.230   0.397   9.620  0.0954  0.7138  0.0679
  935MOL0     C26124   1.124   0.390   9.712 -0.6036  0.4973 -0.7057
  935MOL0     O26125   1.003   0.339   9.681  0.6788 -0.3520  0.2447
  935MOL0     C26126   0.970   0.310   9.541 -0.4358  0.4377 -0.0637
  935MOL0     C26127   0.814   0.289   9.529  0.1767  0.1083 -0.5456
  935MOL0     C26128   0.762   0.281   9.379 -0.0782 -0.6600 -0.0468
  935MOL0     C26129   0.604   0.267   9.375  0.1249 -0.1059  0.1393
  935MOL0     C26130   0.526   0.285   9.242 -0.8493 -0.6455 -0.1729
  935MOL0     C26131   0.381   0.261   9.264 -0.0235  0.4616  0.1774
  935MOL0     C26132   0.315   0.223   9.130  0.0845  0.5058  0.1799
  935MOL0     C26133   0.164   0.240   9.133 -0.5400 -0.0952 -0.3606
  935MOL0    Cl26134   0.096   0.128   9.266  0.1357 -0.0154  0.1074
  935MOL0     C26135   1.153   0.409   9.848 -0.0904  0.0350  0.0055
  935MOL0     C26136   1.285   0.436   9.891  0.0260 -0.0208  0.0313
  935MOL0     O26137   1.538   0.397  10.019 -0.1491  0.0015 -0.1012
  935MOL0     C26138   1.792   0.572   9.838  0.2726  0.6959 -0.0762
  935MOL0     C26139   1.926   0.617   9.849 -0.1736 -0.4987  0.7087
  935MOL0     N26140   2.541   0.908  10.056 -0.6085  0.1498  0.5267
  935MOL0     N26141   2.466   1.005  10.096  0.3689  0.4727  0.1931
  935MOL0     C26142   2.193   1.718  10.615  0.1171 -0.4081  0.8340
  935MOL0     C26143   2.277   1.772  10.715 -0.2793  0.7449  0.1513
  935MOL0     C26144   2.368   1.894  11.154  0.9617 -1.1342 -0.0503
  935MOL0     C26145   2.343   2.036  11.148 -0.1266 -0.2937  0.5548
  935MOL0     C26146   2.391   2.126  11.246  0.5609  0.2678 -0.3938
  935MOL0     C26147   2.468   2.080  11.358 -0.0456 -0.1188 -0.2693
  935MOL0     O26148   2.526   2.154  11.454 -0.3154 -0.5645  0.2313
  935MOL0     C26149   2.567   2.289  11.411  0.3567  0.3366 -0.1871
  935MOL0     C26150   2.699   2.303  11.342  0.0328  0.0565 -0.4575
  935MOL0     C26151   2.752   2.455  11.325 -0.4448  0.0511 -0.1249
  935MOL0     C26152   2.756   2.521  11.460  0.7932 -0.9335 -0.4171
  935MOL0     C26153   2.871   2.605  11.487 -0.1830  0.0957 -0.4040
  935MOL0     C26154   2.986   2.654  11.507 -0.1426  1.2825 -0.0651
  935MOL0     C26155   2.491   1.937  11.359 -0.8145 -0.3211  0.7885
  935MOL0     C26156   2.454   1.846  11.261  0.0005 -0.5825 -0.0816
  935MOL0     C26157   2.479   1.697  11.275 -0.4169  0.4943 -0.4778
  935MOL0     H26158   2.036   1.828  10.953  1.7940  0.3806  1.1950
  935MOL0     H26159   1.897   1.703  10.790  0.9463 -1.2824  1.3183
  935MOL0     H26160   1.858   1.494  10.602 -0.6229 -1.8740 -1.0044
  935MOL0     H26161   1.797   1.662  10.590 -1.5672 -1.9624  1.4972
  935MOL0     H26162   1.828   1.613  10.329  3.2563 -0.8692  0.6534
  935MOL0     H26163   1.680   1.556  10.401  0.3498 -3.0531  0.7829
  935MOL0     H26164   1.726   1.356  10.316 -0.4364 -2.3170  0.2827
  935MOL0     H26165   1.813   1.331  10.466  2.3322  3.2280  1.8607
  935MOL0     H26166   1.967   1.417  10.205 -1.2889 -0.2726 -0.0721
  935MOL0     H26167   2.034   1.384  10.366  2.1764 -2.3052 -1.0060
  935MOL0     H26168   2.013   1.170  10.344  1.1440  0.6978 -0.8022
  935MOL0     H26169   1.880   1.185  10.223  1.8994 -2.3007 -4.5322
  935MOL0     H26170   2.013   1.232  10.047 -0.8644 -2.3365  0.2903
  935MOL0     H26171   2.153   1.290  10.151 -0.7383  1.2899 -1.8284
  935MOL0     H26172   2.199   1.085  10.010 -1.8066 -2.1865 -1.8357
  935MOL0     H26173   2.080   1.002  10.100 -0.1866  1.0701  2.1804
  935MOL0     H26174   2.296   1.146  10.260 -1.5183  0.7967  0.2995
  935MOL0     H26175   2.209   0.987  10.298  1.7423  0.9799  0.0341
  935MOL0     H26176   2.299   0.761  10.240 -1.4757 -1.0835 -0.3618
  935MOL0     H26177   2.608   0.661   9.993 -0.4032 -0.9970 -0.1006
  935MOL0     H26178   2.552   0.603  10.146 -0.0249 -1.1279 -1.8852
  935MOL0     H26179   2.464   0.467  10.015 -0.1710  0.3916  1.7964
  935MOL0     H26180   2.337   0.559  10.102 -2.5790  0.9639 -1.7560
  935MOL0     H26181   2.313   0.499   9.839  2.4795 -0.3470  1.0505
  935MOL0     H26182   2.425   0.637   9.824  2.4357  1.5279  1.2590
  935MOL0     H26183   2.185   0.702   9.804  0.2621 -3.4709 -0.5365
  935MOL0     H26184   2.259   0.794   9.919  0.2926 -0.2132  3.0216
  935MOL0     H26185   1.946   0.594  10.183 -1.2237  3.9239 -0.4630
  935MOL0     H26186   1.733   0.492  10.149 -0.8102 -1.1734  0.0981
  935MOL0     H26187   1.423   0.480   9.583 -0.7930  2.7698 -0.4445
  935MOL0     H26188   1.222   0.370   9.515 -3.5653 -1.3517  0.7004
  935MOL0     H26189   1.008   0.397   9.487 -1.7979  0.1530 -1.5840
  935MOL0     H26190   1.030   0.227   9.502 -3.0184 -1.4050 -0.4674
  935MOL0     H26191   0.789   0.193   9.576  4.6817 -1.2545 -0.4169
  935MOL0     H26192   0.772   0.377   9.578  0.8540  0.7684 -1.1277
  935MOL0     H26193   0.782   0.376   9.330 -3.1992  2.4097  3.9216
  935MOL0     H26194   0.810   0.192   9.337 -0.1615 -1.5009  1.5615
  935MOL0     H26195   0.560   0.331   9.451 -0.2310  1.2595 -1.1678
  935MOL0     H26196   0.580   0.163   9.401 -1.9872  0.6924  1.6814
  935MOL0     H26197   0.559   0.220   9.161 -0.7718  0.5425 -1.1293
  935MOL0     H26198   0.548   0.387   9.207 -1.1988  0.1848  1.8522
  935MOL0     H26199   0.363   0.185   9.341 -0.7780 -0.5221 -0.9401
  935MOL0     H26200   0.340   0.353   9.305 -0.8066 -0.4524  1.5270
  935MOL0     H26201   0.333   0.116   9.112 -0.2468  0.3416  0.7988
  935MOL0     H26202   0.365   0.288   9.058 -1.3291  3.6522  1.8411
  935MOL0     H26203   0.150   0.342   9.170 -1.4146 -0.7346  1.1635
  935MOL0     H26204   0.117   0.226   9.035  0.2685  1.2112 -0.9748
  935MOL0     H26205   1.075   0.403   9.924  0.0096  1.8236  0.2741
  935MOL0     H26206   1.311   0.461   9.993 -0.9035  3.1990 -0.4299
  935MOL0     H26207   1.753   0.577   9.737 -0.5168  2.5497  0.2873
  935MOL0     H26208   1.970   0.657   9.758  0.1856  1.6391  1.7727
  935MOL0     H26209   2.229   1.696  10.515 -4.0369 -3.9897 -0.1837
  935MOL0     H26210   2.381   1.800  10.705 -0.2599  0.7458  0.3501
  935MOL0     H26211   2.279   2.068  11.067  0.4766 -1.4519 -0.4127
  935MOL0     H26212   2.363   2.231  11.243 -1.4142 -0.2087  0.3077
  935MOL0     H26213   2.571   2.337  11.509  2.7028 -2.5519  1.2723
  935MOL0     H26214   2.489   2.346  11.358 -1.5824 -0.9134  1.2132
  935MOL0     H26215   2.694   2.252  11.245  0.8113  0.6768 -0.8296
  935MOL0     H26216   2.768   2.242  11.400 -2.1842 -2.8542 -0.6352
  935MOL0     H26217   2.684   2.511  11.260 -0.1488  0.5879  0.0171
  935MOL0     H26218   2.854   2.464  11.288  0.0615  0.3834  1.2807
  935MOL0     H26219   2.670   2.588  11.475 -1.3739 -3.1919 -2.0371
  935MOL0     H26220   2.768   2.455  11.546  2.6610  1.1221  1.0219
  935MOL0     H26221   3.070   2.709  11.542 -0.3016  0.7202  1.2779
  935MOL0     H26222   2.533   1.889  11.447 -1.0202 -1.9580  0.0296
  935MOL0     H26223   2.521   1.659  11.181  0.8635  1.3136 -0.2549
  935MOL0     H26224   2.559   1.668  11.344 -0.5548 -0.1014 -0.5629
  935MOL0     H26225   2.383   1.650  11.297 -0.8818  1.6487  0.0247
  936MOL0     O26226   4.494   8.815   8.383 -0.2246 -0.1113  0.2239
  936MOL0     C26227   4.423   8.848   8.483  0.6902 -0.0933 -0.0456
  936MOL0     O26228   4.378   8.760   8.579 -0.3501 -0.0477  0.0271
  936MOL0     C26229   4.439   8.633   8.583 -0.2533 -0.4376 -0.2385
  936MOL0     C26230   4.577   8.620   8.591 -0.2914 -0.6241  0.9644
  936MOL0     C26231   4.642   8.495   8.592  1.3052  0.1740  0.1338
  936MOL0     C26232   4.564   8.379   8.591 -0.2045  0.1940  0.1615
  936MOL0     O26233   4.625   8.264   8.569  0.3382 -0.1360  0.8315
  936MOL0     C26234   4.551   8.145   8.610  0.1326 -0.7548  0.5574
  936MOL0     C26235   4.646   8.032   8.623 -0.3043  0.1495 -0.6092
  936MOL0     C26236   4.750   8.049   8.731 -1.5217 -0.9653  0.0540
  936MOL0     C26237   4.862   7.952   8.694  0.0280 -0.3733 -0.4527
  936MOL0     C26238   4.973   7.957   8.791 -0.0906  0.2035 -0.5924
  936MOL0     C26239   5.114   7.914   8.735 -0.7369 -0.4320  0.6175
  936MOL0     C26240   5.142   7.980   8.598 -0.2353 -0.2846 -0.7016
  936MOL0     C26241   5.283   7.997   8.564  1.0239 -0.0148  0.9783
  936MOL0     N26242   5.294   8.080   8.445  0.2732  0.2354 -0.0720
  936MOL0     C26243   5.330   8.214   8.435 -0.1954 -0.3459 -0.8036
  936MOL0     C26244   5.333   8.241   8.299 -0.4337  0.1597  1.4746
  936MOL0     C26245   5.350   8.373   8.234  0.3334 -0.1255 -0.2740
  936MOL0     C26246   5.274   8.383   8.102 -0.0486  0.3536  0.2188
  936MOL0     C26247   5.315   8.287   7.988  0.3201 -1.1652  0.3649
  936MOL0     C26248   5.311   8.353   7.849 -0.7155 -0.8892 -0.4317
  936MOL0     O26249   5.384   8.477   7.828 -0.2562 -0.2663 -0.0376
  936MOL0     C26250   5.512   8.471   7.882  0.6389 -0.8996  0.5379
  936MOL0     C26251   5.601   8.362   7.884  0.4178  1.0128 -0.6719
  936MOL0     C26252   5.730   8.372   7.939 -0.4391  0.1112  0.0971
  936MOL0     C26253   5.777   8.484   8.015  1.0994 -0.4380 -0.7313
  936MOL0     C26254   5.909   8.496   8.082 -0.2974 -0.4866  0.4865
  936MOL0     O26255   5.937   8.621   8.118  0.7893 -0.0898 -0.0719
  936MOL0     C26256   6.055   8.663   8.177 -0.2303  1.0381 -0.1285
  936MOL0     C26257   6.178   8.617   8.146 -0.4206  0.0201  1.9033
  936MOL0     C26258   6.293   8.655   8.215 -0.3779  0.8721 -0.2662
  936MOL0     C26259   6.284   8.732   8.327 -0.0394 -0.3916 -0.5894
  936MOL0     O26260   6.397   8.750   8.410 -0.3521 -0.0828  0.5026
  936MOL0     C26261   6.400   8.855   8.504  0.5605 -0.3059 -0.9239
  936MOL0     C26262   6.539   8.868   8.570 -0.1312  0.0498 -0.0210
  936MOL0     C26263   6.649   8.855   8.469  0.1468 -0.5274 -0.1100
  936MOL0     C26264   6.757   8.955   8.517 -0.5771  0.9482  0.2253
  936MOL0     C26265   6.890   8.949   8.441 -0.0992  0.6515 -0.5157
  936MOL0     C26266   6.882   9.017   8.304  0.2328  0.7598 -0.3419
  936MOL0     C26267   7.013   9.031   8.242  0.4488 -1.0057  0.3347
  936MOL0     C26268   7.013   9.114   8.111 -0.1606  0.3880 -0.8640
  936MOL0    Cl26269   6.945   9.275   8.149 -0.1612  0.1243 -0.3453
  936MOL0     C26270   6.161   8.790   8.363  0.3202 -0.2220 -0.3516
  936MOL0     C26271   6.047   8.747   8.284 -0.2478  0.0269 -0.4176
  936MOL0     O26272   5.976   8.394   8.101 -0.2533  0.1113  0.2928
  936MOL0     C26273   5.680   8.588   8.027  0.4094 -0.3399  0.4488
  936MOL0     C26274   5.551   8.588   7.950 -0.2300 -0.5479 -0.7981
  936MOL0     N26275   5.304   8.121   8.242 -0.5067  0.3561  0.4187
  936MOL0     N26276   5.265   8.035   8.325 -0.4350  0.2958  0.7017
  936MOL0     C26277   4.421   8.393   8.579 -0.3957  0.0098  0.1347
  936MOL0     C26278   4.360   8.519   8.585  0.6974  0.2105 -0.1903
  936MOL0     C26279   4.369   8.977   8.487  0.2448  0.0395  0.5728
  936MOL0     C26280   4.236   9.000   8.480  0.6851  0.4372 -0.2067
  936MOL0     C26281   4.183   9.131   8.469  0.1667  1.0202  0.0618
  936MOL0     C26282   4.260   9.244   8.486  0.7933  0.7247 -1.1217
  936MOL0     O26283   4.208   9.369   8.482 -0.2821  0.2890 -0.6142
  936MOL0     C26284   4.297   9.484   8.467 -0.1218  0.3584 -0.5384
  936MOL0     C26285   4.208   9.604   8.434 -0.3871 -1.1117  0.0805
  936MOL0     C26286   4.264   9.739   8.387  0.1794  1.0356  0.3924
  936MOL0     C26287   4.149   9.848   8.369 -0.4050 -0.4997  0.5422
  936MOL0     C26288   4.200   9.979   8.323 -0.3746 -0.4248  0.2574
  936MOL0     C26289   4.253  10.085   8.287  0.5075 -0.6285 -1.0302
  936MOL0     C26290   4.395   9.217   8.494  0.4728  0.1455  0.1006
  936MOL0     C26291   4.451   9.091   8.489 -0.4958  0.3533 -0.4978
  936MOL0     C26292   4.599   9.081   8.519 -0.1881  0.7413 -0.2208
  936MOL0     H26293   4.636   8.710   8.579 -0.2894 -0.5023  1.7843
  936MOL0     H26294   4.749   8.496   8.605  1.1558 -1.8265  2.0220
  936MOL0     H26295   4.496   8.162   8.703  0.4923 -1.6396  0.9532
  936MOL0     H26296   4.481   8.120   8.530 -1.8658  2.3178  1.1641
  936MOL0     H26297   4.698   8.016   8.529  1.8037 -1.6716  0.7540
  936MOL0     H26298   4.591   7.942   8.653  1.2935 -0.7397 -0.2203
  936MOL0     H26299   4.719   8.040   8.836  0.2140 -1.3752  0.5763
  936MOL0     H26300   4.785   8.152   8.726 -4.2589 -0.0009 -0.9698
  936MOL0     H26301   4.826   7.849   8.684  1.5393 -0.8327 -1.5177
  936MOL0     H26302   4.906   7.973   8.597 -1.7589 -0.3714 -1.2983
  936MOL0     H26303   4.991   8.059   8.827  2.1303 -0.7107  1.1918
  936MOL0     H26304   4.956   7.896   8.881  0.8348 -2.7489 -2.2847
  936MOL0     H26305   5.191   7.931   8.811  0.3422  0.6679 -0.6713
  936MOL0     H26306   5.129   7.808   8.712  0.4982  0.2777 -2.3460
  936MOL0     H26307   5.099   8.080   8.590  1.8956  0.9061  1.5232
  936MOL0     H26308   5.101   7.918   8.517 -0.1549 -3.9602  1.8348
  936MOL0     H26309   5.344   8.030   8.649  0.5611  0.8516  0.9815
  936MOL0     H26310   5.315   7.896   8.535 -2.5208 -0.5666 -1.6639
  936MOL0     H26311   5.337   8.290   8.511 -2.0676 -0.3877 -0.5386
  936MOL0     H26312   5.316   8.448   8.306  0.7362 -1.0772  0.9571
  936MOL0     H26313   5.459   8.379   8.228  0.6264 -0.8214  2.5650
  936MOL0     H26314   5.170   8.353   8.122 -0.9072  0.2394 -3.5649
  936MOL0     H26315   5.270   8.487   8.069  1.2641 -0.0658 -1.3793
  936MOL0     H26316   5.255   8.197   7.994  2.5414 -2.7676 -0.1929
  936MOL0     H26317   5.416   8.252   8.013  0.5006 -0.3902  0.7779
  936MOL0     H26318   5.206   8.378   7.832 -0.8873 -1.2574  0.0676
  936MOL0     H26319   5.332   8.279   7.771  1.4595 -2.4663  1.4993
  936MOL0     H26320   5.564   8.270   7.840 -2.2317  0.3506  2.5231
  936MOL0     H26321   5.805   8.294   7.934 -1.0336 -0.4770  0.1761
  936MOL0     H26322   6.179   8.548   8.061  2.7283  2.8516 -0.6520
  936MOL0     H26323   6.386   8.616   8.175 -0.7402 -0.1581 -0.1418
  936MOL0     H26324   6.382   8.942   8.440 -0.0568 -1.3500 -2.2389
  936MOL0     H26325   6.332   8.836   8.587 -0.9705  0.6246 -1.9168
  936MOL0     H26326   6.555   8.959   8.629  1.9965 -2.7873  4.3204
  936MOL0     H26327   6.551   8.789   8.645 -1.8911  0.4106  0.6719
  936MOL0     H26328   6.704   8.761   8.484  0.9022 -0.2366 -0.9651
  936MOL0     H26329   6.624   8.863   8.363 -1.0800  1.1158  0.2587
  936MOL0     H26330   6.786   8.931   8.620 -0.9404 -3.7798 -0.5361
  936MOL0     H26331   6.715   9.054   8.500 -2.3358  0.4444  1.2485
  936MOL0     H26332   6.932   8.848   8.429  3.0218  1.8383 -0.6977
  936MOL0     H26333   6.958   9.011   8.500 -1.2502  2.5160 -1.0842
  936MOL0     H26334   6.818   8.949   8.247 -0.9470  0.2563  1.4933
  936MOL0     H26335   6.840   9.117   8.314  0.1327  0.9276 -2.0922
  936MOL0     H26336   7.061   8.934   8.224 -1.9909 -2.1314 -0.5476
  936MOL0     H26337   7.071   9.081   8.320  0.3355 -0.6666  0.2020
  936MOL0     H26338   7.116   9.133   8.081  0.0263  1.7127  0.4748
  936MOL0     H26339   6.967   9.061   8.028  3.2684 -1.3916 -1.8258
  936MOL0     H26340   6.156   8.848   8.455 -1.3752 -0.8933  0.0218
  936MOL0     H26341   5.951   8.764   8.332 -0.8586  3.7427 -2.5684
  936MOL0     H26342   5.704   8.677   8.083 -2.6472  1.0114 -0.1752
  936MOL0     H26343   5.483   8.668   7.977  2.2728  1.3928  0.1911
  936MOL0     H26344   4.364   8.303   8.559  0.6293 -0.0697 -2.8432
  936MOL0     H26345   4.253   8.539   8.593  1.1590  2.7161  0.7233
  936MOL0     H26346   4.175   8.911   8.462  2.5139 -0.8520 -0.3218
  936MOL0     H26347   4.075   9.146   8.468 -0.0026 -0.0674  0.6180
  936MOL0     H26348   4.365   9.471   8.383 -0.1820  1.9492 -0.8622
  936MOL0     H26349   4.352   9.503   8.560 -3.2645 -0.0508  1.5952
  936MOL0     H26350   4.160   9.625   8.530 -1.7119 -0.2671 -0.7350
  936MOL0     H26351   4.135   9.575   8.357  2.4326 -1.9117 -2.4839
  936MOL0     H26352   4.309   9.719   8.289  1.2839 -1.7580  1.3673
  936MOL0     H26353   4.342   9.764   8.459  1.2667  1.0443 -0.7386
  936MOL0     H26354   4.061   9.830   8.306 -1.0708 -0.5848  1.4733
  936MOL0     H26355   4.115   9.871   8.470  2.0437  2.4213  0.8444
  936MOL0     H26356   4.310  10.170   8.258 -0.1726  0.4039  0.5241
  936MOL0     H26357   4.470   9.292   8.517  1.7003 -1.0005  0.0020
  936MOL0     H26358   4.643   9.006   8.453 -1.0279  0.1144 -0.0810
  936MOL0     H26359   4.655   9.174   8.502  2.0421 -0.7380 -1.6041
  936MOL0     H26360   4.606   9.059   8.626 -3.5011 -0.4922 -0.1521
  937MOL0     O26361   2.935   6.742   7.872  0.1751 -0.1187  0.0941
  937MOL0     C26362   2.867   6.838   7.858  0.5830  0.1880  0.5791
  937MOL0     O26363   2.762   6.869   7.947 -0.0523 -0.5360  1.1708
  937MOL0     C26364   2.727   7.001   7.947 -0.7406  0.0260  1.1649
  937MOL0     C26365   2.818   7.115   7.972  0.1359 -0.8696 -0.3489
  937MOL0     C26366   2.774   7.249   7.949 -0.3867  0.4820  0.7894
  937MOL0     C26367   2.643   7.279   7.913  0.2957 -0.4733  0.2634
  937MOL0     O26368   2.604   7.402   7.890  0.5968 -0.0168  0.3119
  937MOL0     C26369   2.581   7.482   8.010  0.1609 -0.2386  0.6394
  937MOL0     C26370   2.540   7.630   7.981 -0.7712 -0.6258  0.1373
  937MOL0     C26371   2.665   7.711   7.931 -0.6648 -0.4303 -0.3704
  937MOL0     C26372   2.784   7.710   8.029  0.3443  0.1009 -0.3446
  937MOL0     C26373   2.898   7.800   7.986 -0.3987  0.2001 -0.5918
  937MOL0     C26374   2.876   7.949   8.007  1.1035  0.3519  0.4742
  937MOL0     C26375   2.840   8.003   8.148 -0.8400 -0.1326 -0.1372
  937MOL0     C26376   2.871   8.152   8.162 -0.6426  0.2413 -0.4663
  937MOL0     N26377   2.854   8.197   8.303  0.0914  0.6605  0.1385
  937MOL0     C26378   2.960   8.240   8.369  0.5792  0.4357 -0.3301
  937MOL0     C26379   2.921   8.236   8.501 -0.4225  0.5735  0.2662
  937MOL0     C26380   3.009   8.278   8.621 -0.3962  1.4813 -1.0708
  937MOL0     C26381   3.123   8.184   8.657 -0.9557 -0.2005  0.3419
  937MOL0     C26382   3.071   8.046   8.660 -0.0267  1.0238 -0.4232
  937MOL0     C26383   3.165   7.941   8.685 -0.2678 -0.7537 -0.1146
  937MOL0     O26384   3.127   7.820   8.618 -0.1694 -0.4092  1.1125
  937MOL0     C26385   3.214   7.714   8.621 -0.1969 -0.5725  0.0190
  937MOL0     C26386   3.333   7.691   8.699  0.0576 -0.4036 -0.1661
  937MOL0     C26387   3.401   7.570   8.695  0.7495  0.0036  0.6895
  937MOL0     C26388   3.368   7.470   8.605  0.0489 -0.3251  0.4099
  937MOL0     C26389   3.451   7.358   8.585 -0.5140  0.2649 -0.3836
  937MOL0     O26390   3.580   7.374   8.616 -0.0850  0.2801 -0.0389
  937MOL0     C26391   3.669   7.269   8.600 -0.9185 -0.0428 -0.5718
  937MOL0     C26392   3.653   7.125   8.617 -0.1752 -0.1694 -0.4009
  937MOL0     C26393   3.761   7.032   8.615 -0.1280 -0.5824 -0.2575
  937MOL0     C26394   3.894   7.080   8.607 -0.1386  0.5790  0.4597
  937MOL0     O26395   3.998   7.001   8.603 -1.1177 -0.0202 -0.3972
  937MOL0     C26396   3.994   6.895   8.706  1.2469 -1.3889  0.1324
  937MOL0     C26397   3.992   6.937   8.851  0.5644  1.0364  0.3050
  937MOL0     C26398   4.106   7.046   8.876 -0.6235 -0.0262  0.6196
  937MOL0     C26399   4.081   7.114   9.013  0.1267 -0.2377  0.1353
  937MOL0     C26400   4.158   7.252   9.011  0.0494  0.3015 -0.6330
  937MOL0     C26401   4.079   7.363   8.920 -0.6297 -0.3125 -0.0158
  937MOL0     C26402   4.150   7.496   8.934 -0.2294  0.7509  0.1305
  937MOL0     C26403   4.072   7.597   8.857 -0.3273  0.6951 -0.0693
  937MOL0    Cl26404   4.140   7.758   8.886  0.0900  0.1209 -0.2177
  937MOL0     C26405   3.912   7.214   8.598 -0.3004 -0.8246 -0.2844
  937MOL0     C26406   3.802   7.307   8.590 -0.6973  0.0589  0.6220
  937MOL0     O26407   3.404   7.266   8.525  0.2546  0.1919  0.0729
  937MOL0     C26408   3.263   7.497   8.519  1.5981  0.5515 -1.1484
  937MOL0     C26409   3.188   7.615   8.534 -0.4704  0.3124  0.0454
  937MOL0     N26410   2.790   8.192   8.500  0.1239  1.0425  0.2876
  937MOL0     N26411   2.747   8.169   8.383 -0.6616  0.6294 -0.4551
  937MOL0     C26412   2.553   7.171   7.905 -0.1618  0.1423 -0.6621
  937MOL0     C26413   2.600   7.035   7.923 -1.1313 -0.3451 -0.6385
  937MOL0     C26414   2.887   6.913   7.734  0.2266  0.1861 -0.4466
  937MOL0     C26415   2.777   6.934   7.644 -0.6504 -0.7225  0.0771
  937MOL0     C26416   2.802   7.005   7.532 -0.3139 -1.6218  0.5723
  937MOL0     C26417   2.929   7.047   7.493 -0.3981  0.5419  0.2602
  937MOL0     O26418   2.973   7.105   7.371  0.8150 -0.1184  0.2346
  937MOL0     C26419   2.884   7.100   7.264  0.6892 -0.0988  0.1293
  937MOL0     C26420   2.971   7.109   7.137 -0.7608  0.1848  0.0237
  937MOL0     C26421   3.017   7.250   7.123 -1.1600  0.2544  0.0282
  937MOL0     C26422   3.110   7.289   7.011 -0.4437  0.2112 -0.3620
  937MOL0     C26423   3.060   7.254   6.883  0.1462  0.9289 -0.0433
  937MOL0     C26424   3.017   7.222   6.773 -0.1024 -0.7039  0.1530
  937MOL0     C26425   3.035   7.028   7.584  0.4817  0.1276  1.1625
  937MOL0     C26426   3.018   6.961   7.706 -1.3031  0.2007 -0.5252
  937MOL0     C26427   3.139   6.934   7.796 -0.1548 -0.0578 -0.1643
  937MOL0     H26428   2.919   7.116   8.011 -0.8795  1.4392  2.6274
  937MOL0     H26429   2.841   7.331   7.975  0.1074 -0.8072  4.0576
  937MOL0     H26430   2.489   7.440   8.050 -0.3635  0.7606  0.5299
  937MOL0     H26431   2.670   7.476   8.074 -0.7911 -2.1103  1.8654
  937MOL0     H26432   2.500   7.665   8.076 -1.2246  0.3765 -0.4033
  937MOL0     H26433   2.458   7.633   7.908 -2.2355  0.9825  1.7622
  937MOL0     H26434   2.646   7.818   7.918 -1.4545 -0.5201 -0.0241
  937MOL0     H26435   2.691   7.672   7.832  0.8788  0.7759 -0.4642
  937MOL0     H26436   2.750   7.725   8.132  1.6856 -1.9536  0.4660
  937MOL0     H26437   2.821   7.607   8.027 -1.2610 -0.5366  0.6001
  937MOL0     H26438   2.989   7.776   8.040 -0.1837 -2.2153 -1.8953
  937MOL0     H26439   2.918   7.790   7.879 -2.1358 -0.2028 -0.9151
  937MOL0     H26440   2.973   7.990   7.979  0.6964  0.0227 -1.6007
  937MOL0     H26441   2.794   7.979   7.941  0.0689 -0.2803  1.4350
  937MOL0     H26442   2.890   7.943   8.225 -3.6090 -1.8814  0.4494
  937MOL0     H26443   2.731   7.992   8.150 -0.6354 -2.8276  0.1057
  937MOL0     H26444   2.971   8.182   8.129 -1.8422  1.8484 -2.9455
  937MOL0     H26445   2.804   8.208   8.096 -2.3125  0.1809  1.1028
  937MOL0     H26446   3.055   8.272   8.327  1.2472  0.3203  1.0148
  937MOL0     H26447   3.045   8.380   8.604  1.7452  1.0708  0.6719
  937MOL0     H26448   2.936   8.287   8.702  0.2775 -0.7402 -0.1591
  937MOL0     H26449   3.207   8.207   8.590 -1.3905  2.0094  0.4869
  937MOL0     H26450   3.163   8.208   8.756  2.1845  2.1472 -1.3165
  937MOL0     H26451   3.020   8.021   8.566 -0.6975  2.1999 -0.3866
  937MOL0     H26452   2.995   8.033   8.738  0.9728  0.5320  0.5026
  937MOL0     H26453   3.189   7.930   8.791 -0.9412  1.1962  0.2721
  937MOL0     H26454   3.253   7.982   8.634 -2.8560  2.1177 -2.6657
  937MOL0     H26455   3.357   7.758   8.781 -1.5396 -2.0815  1.7870
  937MOL0     H26456   3.479   7.537   8.763 -2.2543 -0.0682  4.3747
  937MOL0     H26457   3.559   7.075   8.634  1.1402 -2.9531 -0.7830
  937MOL0     H26458   3.754   6.924   8.622 -2.0795 -0.5900 -1.4820
  937MOL0     H26459   3.915   6.823   8.684  0.1422  0.0278 -0.7237
  937MOL0     H26460   4.083   6.834   8.688  1.8754 -0.3041 -0.5071
  937MOL0     H26461   3.891   6.972   8.874  0.1903 -1.6082  3.4102
  937MOL0     H26462   4.010   6.849   8.913  2.3433 -0.7928 -2.5693
  937MOL0     H26463   4.208   7.006   8.880 -0.1820  0.6967 -1.7640
  937MOL0     H26464   4.114   7.118   8.794  3.4553 -3.6953 -2.7599
  937MOL0     H26465   4.103   7.046   9.097 -0.7616  1.1711  1.5746
  937MOL0     H26466   3.974   7.137   9.023  0.7867  4.2375 -1.1704
  937MOL0     H26467   4.261   7.236   8.978 -0.1915 -1.8924 -0.4800
  937MOL0     H26468   4.163   7.287   9.114 -0.4911  1.1823 -0.8950
  937MOL0     H26469   4.088   7.336   8.814 -3.0735  2.2285 -1.0071
  937MOL0     H26470   3.970   7.365   8.931 -0.8307 -1.4029 -1.4332
  937MOL0     H26471   4.246   7.493   8.882 -0.5573 -2.2018 -0.4989
  937MOL0     H26472   4.166   7.519   9.040 -0.2478  2.2188 -0.1673
  937MOL0     H26473   4.061   7.573   8.751 -3.4147 -0.6485  0.4439
  937MOL0     H26474   3.972   7.584   8.900  0.4412 -0.5562  1.4404
  937MOL0     H26475   4.015   7.247   8.583 -0.5197 -0.1128 -0.2830
  937MOL0     H26476   3.823   7.413   8.591  0.4137 -0.1547  1.3292
  937MOL0     H26477   3.231   7.435   8.436  2.4035 -0.5457 -0.6617
  937MOL0     H26478   3.098   7.624   8.474  0.4932  0.9449 -1.3796
  937MOL0     H26479   2.448   7.190   7.885 -0.5193 -0.6971  0.2972
  937MOL0     H26480   2.527   6.956   7.908 -0.7429 -0.8900  0.2605
  937MOL0     H26481   2.680   6.898   7.678 -1.5542 -0.0168 -1.6183
  937MOL0     H26482   2.714   7.031   7.474 -0.6510 -3.1213  0.3654
  937MOL0     H26483   2.804   7.175   7.259  0.0431 -0.7253  0.6739
  937MOL0     H26484   2.828   7.006   7.265 -2.1882  1.4487 -1.1012
  937MOL0     H26485   2.925   7.075   7.044 -1.6617 -0.9917  0.8668
  937MOL0     H26486   3.057   7.046   7.162  2.1777  3.6954 -0.4237
  937MOL0     H26487   3.070   7.288   7.211 -0.4779  1.9028 -1.0455
  937MOL0     H26488   2.930   7.317   7.124 -1.3363  0.0247  0.3901
  937MOL0     H26489   3.122   7.397   7.000  2.3890 -0.2167 -3.1874
  937MOL0     H26490   3.213   7.255   7.023 -0.7000 -0.2383  0.6449
  937MOL0     H26491   2.994   7.193   6.672  2.3259 -0.1052 -0.6348
  937MOL0     H26492   3.131   7.073   7.559  0.2924 -0.4381 -0.7677
  937MOL0     H26493   3.113   6.964   7.898 -2.3753 -2.2173  0.0284
  937MOL0     H26494   3.175   6.831   7.786  1.0737  0.3962 -0.5035
  937MOL0     H26495   3.223   6.988   7.754  0.2974 -0.5690  0.0663
  938MOL0     O26496   7.067   9.897   7.070  0.1861  0.6509 -0.0948
  938MOL0     C26497   7.058  10.007   7.121 -0.0630  0.6202  0.1231
  938MOL0     O26498   7.164  10.082   7.164 -0.5012 -1.1505  0.0745
  938MOL0     C26499   7.284  10.076   7.095  0.8455  0.4252  0.3335
  938MOL0     C26500   7.387  10.139   7.161 -0.3378  0.1053 -0.3833
  938MOL0     C26501   7.514  10.159   7.102 -0.0489 -0.1593  0.1535
  938MOL0     C26502   7.540  10.119   6.969 -0.5902  0.4591  0.4545
  938MOL0     O26503   7.667  10.126   6.912 -0.1113  0.4012  0.3737
  938MOL0     C26504   7.719  10.244   6.856 -0.9008 -0.0744 -0.4772
  938MOL0     C26505   7.660  10.290   6.719 -0.1481  0.1238 -1.0177
  938MOL0     C26506   7.760  10.344   6.623  0.6557 -0.1151 -0.1236
  938MOL0     C26507   7.690  10.392   6.491  0.8323 -0.2742 -0.1008
  938MOL0     C26508   7.792  10.396   6.372  0.2848  0.6201  0.4903
  938MOL0     C26509   7.718  10.462   6.249 -0.4862 -0.1779  0.1954
  938MOL0     C26510   7.817  10.504   6.137 -0.0236 -0.9784 -0.1181
  938MOL0     C26511   7.878  10.648   6.157  0.0529 -0.1415 -0.3953
  938MOL0     N26512   7.949  10.702   6.040  0.2427 -0.0041 -0.1474
  938MOL0     C26513   8.085  10.703   6.027 -0.3369 -0.8395  0.5795
  938MOL0     C26514   8.103  10.750   5.899  0.3538 -0.1144 -1.2386
  938MOL0     C26515   8.241  10.749   5.833  0.6057  0.5429 -0.0906
  938MOL0     C26516   8.330  10.841   5.918 -0.5576 -0.4505 -0.5031
  938MOL0     C26517   8.295  10.993   5.923  0.3389 -0.8608  0.6748
  938MOL0     C26518   8.344  11.078   6.039 -0.5870 -0.6804  0.2089
  938MOL0     O26519   8.477  11.053   6.071  0.2678 -0.1120  0.0552
  938MOL0     C26520   8.580  11.079   5.980  0.3370  0.0130 -0.2509
  938MOL0     C26521   8.571  11.155   5.865  1.3776  0.3970 -0.1895
  938MOL0     C26522   8.667  11.171   5.770 -0.1448 -0.6713 -0.0345
  938MOL0     C26523   8.790  11.109   5.789 -0.8450  0.2469  0.4742
  938MOL0     C26524   8.890  11.112   5.680  0.4717 -0.2726 -0.1215
  938MOL0     O26525   9.012  11.067   5.715  0.6719  0.2087  0.0905
  938MOL0     C26526   9.112  11.032   5.631  0.2289  0.7555 -0.3405
  938MOL0     C26527   9.240  11.046   5.686  0.0738 -0.5593 -0.4700
  938MOL0     C26528   9.355  11.006   5.611  0.1923 -0.4141 -0.5112
  938MOL0     C26529   9.344  10.953   5.482 -0.2592 -0.2358  0.1604
  938MOL0     O26530   9.453  10.914   5.416 -0.3989 -0.1780  0.2691
  938MOL0     C26531   9.454  10.852   5.290 -0.0097 -0.5375 -0.4070
  938MOL0     C26532   9.595  10.801   5.267  0.8368 -0.0446  0.4332
  938MOL0     C26533   9.703  10.907   5.265 -0.1020  0.3531  0.3571
  938MOL0     C26534   9.674  11.027   5.178  0.0722  1.2986  0.1878
  938MOL0     C26535   9.641  10.994   5.038  0.1105 -0.2346 -0.9252
  938MOL0     C26536   9.623  11.121   4.949  0.0921  0.0892 -0.4239
  938MOL0     C26537   9.557  11.101   4.818 -0.1537 -0.4776  0.6092
  938MOL0     C26538   9.655  11.032   4.720  0.7789 -0.9390  1.0002
  938MOL0    Cl26539   9.583  11.010   4.557  0.5030  0.7158 -0.2793
  938MOL0     C26540   9.216  10.944   5.423 -0.2311 -0.6345  0.3092
  938MOL0     C26541   9.100  10.983   5.503  0.0850  0.0366  0.0332
  938MOL0     O26542   8.854  11.137   5.567 -0.1025  0.8832 -0.5883
  938MOL0     C26543   8.815  11.041   5.908 -0.2902  0.8468 -0.2918
  938MOL0     C26544   8.709  11.028   6.003 -1.0844  0.3520  0.8729
  938MOL0     N26545   7.985  10.779   5.846  0.7681 -0.3516 -0.2730
  938MOL0     N26546   7.892  10.742   5.928 -0.2471 -0.2170  0.3013
  938MOL0     C26547   7.427  10.060   6.905 -0.3075 -0.3208  1.0455
  938MOL0     C26548   7.306  10.039   6.967  0.0847  0.1686  0.9197
  938MOL0     C26549   6.926  10.043   7.177 -0.6417 -0.2649 -0.4381
  938MOL0     C26550   6.914  10.171   7.228 -0.6985 -0.6291 -0.0298
  938MOL0     C26551   6.788  10.232   7.272  0.4526  0.7623 -0.1009
  938MOL0     C26552   6.685  10.144   7.286  0.0212 -0.0495  0.4789
  938MOL0     O26553   6.561  10.179   7.339 -0.0360 -0.0606  1.0415
  938MOL0     C26554   6.547  10.306   7.402 -0.5187  0.0777 -0.9017
  938MOL0     C26555   6.430  10.290   7.487  0.1662  0.9177 -0.3203
  938MOL0     C26556   6.401  10.425   7.569 -0.1239  0.1612 -0.0221
  938MOL0     C26557   6.282  10.415   7.661 -0.4578 -0.5392  1.2632
  938MOL0     C26558   6.189  10.533   7.641 -0.7830  0.3588 -1.2271
  938MOL0     C26559   6.113  10.622   7.607  0.0547  0.7500 -0.2696
  938MOL0     C26560   6.693  10.011   7.245  0.3611 -0.6080 -0.0348
  938MOL0     C26561   6.810   9.959   7.191 -0.1278  0.3838 -0.9941
  938MOL0     C26562   6.806   9.817   7.124 -0.5668 -0.6091 -0.5473
  938MOL0     H26563   7.385  10.177   7.262  1.9621  0.0002 -0.2483
  938MOL0     H26564   7.600  10.196   7.157 -0.8523  0.9267  0.7294
  938MOL0     H26565   7.724  10.325   6.929  4.6896  0.9011 -1.4955
  938MOL0     H26566   7.819  10.208   6.831  0.0065  0.4999  2.0365
  938MOL0     H26567   7.571  10.348   6.740 -1.9902 -3.3412  1.7587
  938MOL0     H26568   7.627  10.201   6.664  1.7674 -2.4862  1.6972
  938MOL0     H26569   7.827  10.263   6.589 -1.4074 -1.3844 -1.4053
  938MOL0     H26570   7.821  10.424   6.665  3.2813 -1.5157 -1.0527
  938MOL0     H26571   7.608  10.324   6.466  0.3441  0.2861 -0.0542
  938MOL0     H26572   7.640  10.486   6.518 -1.8521 -2.0063  1.3876
  938MOL0     H26573   7.879  10.450   6.408 -0.5670  1.7127  0.9626
  938MOL0     H26574   7.825  10.296   6.341 -2.4778 -0.3818  0.5055
  938MOL0     H26575   7.656  10.387   6.200  0.7719  0.4549 -2.5509
  938MOL0     H26576   7.657  10.544   6.289 -4.1554 -1.4571 -2.2606
  938MOL0     H26577   7.760  10.519   6.045  1.7909 -1.3594 -1.3436
  938MOL0     H26578   7.896  10.433   6.111  0.9549  1.1164 -3.4425
  938MOL0     H26579   7.802  10.721   6.185  1.4629  1.3604 -0.3395
  938MOL0     H26580   7.954  10.644   6.236  1.5943  1.0664 -1.7719
  938MOL0     H26581   8.158  10.651   6.088  1.5038 -0.4760 -1.2008
  938MOL0     H26582   8.291  10.653   5.850  0.6807  0.5751 -0.1373
  938MOL0     H26583   8.226  10.764   5.726  0.4346 -1.2818 -0.3567
  938MOL0     H26584   8.322  10.807   6.022 -0.9276 -2.6428 -1.1851
  938MOL0     H26585   8.433  10.829   5.885  0.4241  0.9016  1.8540
  938MOL0     H26586   8.185  10.999   5.923  0.3227  0.7358 -2.4750
  938MOL0     H26587   8.328  11.033   5.827  0.4535  0.9308  1.4175
  938MOL0     H26588   8.273  11.070   6.122  0.8474 -2.3830  1.3405
  938MOL0     H26589   8.344  11.183   6.007  2.1342 -0.7683 -0.3112
  938MOL0     H26590   8.472  11.196   5.846  0.0123 -2.3335  0.4591
  938MOL0     H26591   8.646  11.230   5.681  0.2700 -2.7801 -1.5838
  938MOL0     H26592   9.236  11.084   5.788 -1.2897  0.2261 -0.7963
  938MOL0     H26593   9.457  11.003   5.649 -0.0377 -0.2279  0.1223
  938MOL0     H26594   9.396  10.760   5.294  0.7418 -1.1279 -1.8979
  938MOL0     H26595   9.410  10.930   5.227 -1.4663  1.7739  3.1889
  938MOL0     H26596   9.620  10.733   5.349 -1.0840 -1.6226 -0.2253
  938MOL0     H26597   9.599  10.740   5.176  0.2342 -0.1173  0.4524
  938MOL0     H26598   9.720  10.955   5.362  0.4788  0.3875  0.2423
  938MOL0     H26599   9.800  10.861   5.246 -0.5282  0.4012 -2.2194
  938MOL0     H26600   9.767  11.086   5.175 -0.3625  1.9664 -1.0577
  938MOL0     H26601   9.586  11.081   5.213 -1.2273 -1.2697  1.1113
  938MOL0     H26602   9.557  10.925   5.024 -1.0307  0.9412 -0.1226
  938MOL0     H26603   9.734  10.950   5.001  0.9194  2.5194 -2.4486
  938MOL0     H26604   9.555  11.190   5.000 -2.9273 -2.5370 -0.5537
  938MOL0     H26605   9.720  11.172   4.943  0.3116 -0.1311  0.9007
  938MOL0     H26606   9.519  11.193   4.772  0.7044 -1.2655 -1.8266
  938MOL0     H26607   9.469  11.043   4.847  0.6699 -0.9180  2.3959
  938MOL0     H26608   9.750  11.085   4.713  1.9361 -2.5362  3.3470
  938MOL0     H26609   9.684  10.931   4.750 -1.2910 -1.2969  2.0048
  938MOL0     H26610   9.212  10.912   5.319 -1.9111 -0.0995  0.1822
  938MOL0     H26611   9.008  10.957   5.452  0.9013 -3.3620  0.0771
  938MOL0     H26612   8.914  11.007   5.940 -0.0821  0.6003 -1.1788
  938MOL0     H26613   8.736  10.967   6.088  2.3929 -1.2608 -1.1740
  938MOL0     H26614   7.446  10.032   6.802  1.8518 -0.8896  1.5272
  938MOL0     H26615   7.233   9.983   6.911  0.7905 -1.3259  1.4320
  938MOL0     H26616   6.988  10.249   7.213  0.9002 -1.8207  1.2856
  938MOL0     H26617   6.782  10.336   7.302  3.5025  0.5487  1.6714
  938MOL0     H26618   6.539  10.385   7.326 -0.9793  2.3550  1.3929
  938MOL0     H26619   6.632  10.338   7.463 -1.0679 -2.6443  1.4514
  938MOL0     H26620   6.439  10.203   7.552  1.6501  1.0773 -0.2747
  938MOL0     H26621   6.357  10.264   7.410  0.3505  1.1647 -0.5830
  938MOL0     H26622   6.396  10.513   7.503  0.3101 -0.6126 -1.1262
  938MOL0     H26623   6.495  10.451   7.619  0.9854  0.3583 -2.0490
  938MOL0     H26624   6.222  10.332   7.622 -0.4999  1.5451 -4.0107
  938MOL0     H26625   6.304  10.404   7.768  3.7322 -0.7171  0.5639
  938MOL0     H26626   6.032  10.691   7.599 -1.6135 -0.9219  1.1778
  938MOL0     H26627   6.600   9.955   7.250 -0.5152  0.8527  0.6780
  938MOL0     H26628   6.892   9.761   7.161 -0.2097  0.1679 -0.1808
  938MOL0     H26629   6.715   9.761   7.146  0.1068 -1.1674  0.9512
  938MOL0     H26630   6.817   9.841   7.018  1.5717  3.6989  0.3967
  939MOL0     O26631  10.461   8.051   6.836 -0.2173 -0.3582  0.6677
  939MOL0     C26632  10.382   8.105   6.915 -0.2547  0.2372  0.3024
  939MOL0     O26633  10.405   8.219   6.983 -0.9235 -0.6315 -0.0758
  939MOL0     C26634  10.532   8.269   6.989 -0.0967 -0.2624 -0.1466
  939MOL0     C26635  10.580   8.341   6.881  0.6779 -0.0021 -1.3082
  939MOL0     C26636  10.712   8.391   6.882  0.1079  0.1722  0.6601
  939MOL0     C26637  10.806   8.366   6.982 -0.2290  0.2882 -0.3042
  939MOL0     O26638  10.937   8.399   6.985 -0.2070  0.3377 -0.3826
  939MOL0     C26639  10.990   8.439   6.857  0.2506  0.0787  0.3178
  939MOL0     C26640  11.133   8.459   6.877 -0.7540 -0.2764 -0.8636
  939MOL0     C26641  11.221   8.334   6.856 -0.0752 -0.1612 -0.4877
  939MOL0     C26642  11.358   8.353   6.932  0.7742 -0.0744  1.1508
  939MOL0     C26643  11.444   8.227   6.920  0.8785 -0.1440  0.8160
  939MOL0     C26644  11.550   8.230   7.030  0.1699 -0.0826  0.2222
  939MOL0     C26645  11.650   8.109   7.019  0.4760  0.4621 -0.2552
  939MOL0     C26646  11.720   8.109   6.880 -0.7706 -0.7826  0.5078
  939MOL0     N26647  11.803   8.226   6.870 -0.3807 -0.0600  0.1480
  939MOL0     C26648  11.941   8.233   6.908  0.1565 -0.7518 -0.5805
  939MOL0     C26649  11.988   8.338   6.843  0.5181  0.4419 -0.6402
  939MOL0     C26650  12.131   8.387   6.862 -0.3190 -1.0684 -0.5659
  939MOL0     C26651  12.234   8.285   6.895  0.2870 -0.0054  0.3485
  939MOL0     C26652  12.373   8.337   6.880 -0.0332 -0.2173 -0.1312
  939MOL0     C26653  12.412   8.449   6.978 -1.1446  0.1829  0.7101
  939MOL0     O26654  12.371   8.574   6.925 -0.2764 -0.4536 -0.1207
  939MOL0     C26655  12.391   8.675   7.004  0.4284 -0.8192 -0.7152
  939MOL0     C26656  12.282   8.760   7.007  0.6514 -1.3724 -0.7506
  939MOL0     C26657  12.289   8.876   7.077 -0.0048  0.2705  0.2707
  939MOL0     C26658  12.398   8.907   7.159 -0.4319  0.3229 -0.9280
  939MOL0     C26659  12.382   9.021   7.262 -0.4112  0.7469  0.6670
  939MOL0     O26660  12.253   9.047   7.294 -0.2245  0.5923 -0.2509
  939MOL0     C26661  12.213   9.134   7.392  0.5652 -1.7665  0.7301
  939MOL0     C26662  12.282   9.230   7.463  0.1553 -0.2582 -0.0246
  939MOL0     C26663  12.214   9.318   7.547  0.1157  0.6546 -0.5117
  939MOL0     C26664  12.069   9.325   7.560 -0.4260  0.0802 -0.2007
  939MOL0     O26665  12.007   9.412   7.640 -0.5258 -0.9467  0.5578
  939MOL0     C26666  12.062   9.464   7.766 -0.2204 -0.0552 -0.3568
  939MOL0     C26667  11.941   9.475   7.860  0.7832 -0.6093 -0.3343
  939MOL0     C26668  11.845   9.589   7.846  0.1711  0.0690 -0.2449
  939MOL0     C26669  11.902   9.715   7.902  0.0759 -0.0991 -0.3678
  939MOL0     C26670  11.804   9.825   7.902 -0.3436 -0.2221 -0.2276
  939MOL0     C26671  11.830   9.941   7.990  0.9530 -0.7124 -0.0496
  939MOL0     C26672  11.732  10.062   7.952 -0.3920 -0.2823  0.4802
  939MOL0     C26673  11.772  10.186   8.037  0.4017 -0.2404 -0.1005
  939MOL0    Cl26674  11.772  10.159   8.204  0.2020 -0.3328 -0.1572
  939MOL0     C26675  11.995   9.233   7.484 -0.2760  0.0410 -0.4562
  939MOL0     C26676  12.075   9.142   7.404  0.2206 -0.0132  1.0019
  939MOL0     O26677  12.488   9.066   7.309  0.2004 -0.1165  0.3004
  939MOL0     C26678  12.510   8.818   7.154 -0.0715 -0.1642  0.0472
  939MOL0     C26679  12.510   8.704   7.072  0.4107  0.3511  0.1096
  939MOL0     N26680  11.885   8.384   6.755 -0.2350 -0.6733  0.3544
  939MOL0     N26681  11.774   8.321   6.779  0.1113 -0.4270 -0.4962
  939MOL0     C26682  10.760   8.277   7.079 -0.1860  0.8957  0.7162
  939MOL0     C26683  10.628   8.228   7.086 -0.4331 -0.2635  0.0144
  939MOL0     C26684  10.242   8.042   6.926  0.8552 -0.1504 -0.4207
  939MOL0     C26685  10.188   7.969   6.818  0.6159 -0.2646 -0.9576
  939MOL0     C26686  10.054   7.919   6.824 -0.7175 -1.1456  0.2963
  939MOL0     C26687   9.977   7.935   6.932  0.0767  0.2139 -1.1332
  939MOL0     O26688   9.845   7.902   6.919  0.0326  0.2206  0.4715
  939MOL0     C26689   9.761   8.012   6.948  0.4006 -0.8522  0.2773
  939MOL0     C26690   9.628   8.008   6.880  0.5756 -0.2916  0.2576
  939MOL0     C26691   9.526   7.900   6.936 -0.3644 -0.4761 -0.3527
  939MOL0     C26692   9.398   7.904   6.853  0.3920 -0.2318 -0.5156
  939MOL0     C26693   9.282   7.825   6.897  0.2301 -0.8008 -1.0820
  939MOL0     C26694   9.192   7.757   6.920  1.3251  0.4009 -0.5247
  939MOL0     C26695  10.030   8.002   7.043 -0.6979 -0.6543 -0.5824
  939MOL0     C26696  10.158   8.058   7.035  0.2969 -1.3604 -0.3980
  939MOL0     C26697  10.207   8.128   7.160 -1.1777  0.4627  0.1767
  939MOL0     H26698  10.515   8.361   6.798  1.1721 -1.3535 -2.0594
  939MOL0     H26699  10.733   8.457   6.798 -0.8709 -2.2401 -1.5965
  939MOL0     H26700  10.978   8.356   6.787 -0.2209 -0.7013  1.2978
  939MOL0     H26701  10.958   8.540   6.830  2.3504  1.1468  1.5205
  939MOL0     H26702  11.154   8.512   6.970 -1.2584  0.7088 -1.2986
  939MOL0     H26703  11.172   8.540   6.815  0.7557 -0.0951  0.2699
  939MOL0     H26704  11.235   8.318   6.748  0.2767 -0.7941 -0.3578
  939MOL0     H26705  11.154   8.252   6.885 -0.8420 -1.6557 -5.4465
  939MOL0     H26706  11.401   8.446   6.891 -2.9467  1.1444 -0.4217
  939MOL0     H26707  11.326   8.378   7.033 -3.2864  0.3396 -0.0464
  939MOL0     H26708  11.374   8.142   6.924 -1.5684  1.6454 -1.2651
  939MOL0     H26709  11.481   8.217   6.818  0.0770 -0.3444  0.5368
  939MOL0     H26710  11.603   8.324   7.013  2.9739 -1.7846 -1.3414
  939MOL0     H26711  11.509   8.229   7.131  0.8576  1.5853  0.5580
  939MOL0     H26712  11.589   8.019   7.030 -2.6934  2.6538  1.6160
  939MOL0     H26713  11.729   8.107   7.095  1.8128  0.9136 -1.5910
  939MOL0     H26714  11.789   8.025   6.866  0.0206  0.1805 -1.7114
  939MOL0     H26715  11.660   8.108   6.789  2.2368 -3.3650 -1.6669
  939MOL0     H26716  11.993   8.178   6.986  1.0394 -0.8759 -1.2446
  939MOL0     H26717  12.158   8.441   6.771  0.7289  0.9128  0.8494
  939MOL0     H26718  12.135   8.461   6.942  3.2033 -1.1520 -0.5245
  939MOL0     H26719  12.213   8.232   6.989 -0.7130 -0.2638 -0.0049
  939MOL0     H26720  12.212   8.212   6.817  1.7989 -1.3166  1.1094
  939MOL0     H26721  12.378   8.369   6.775  0.3512 -0.3069 -0.1417
  939MOL0     H26722  12.445   8.260   6.908  2.5707  2.7086  2.0318
  939MOL0     H26723  12.521   8.445   6.992 -1.2879 -4.5564  1.9875
  939MOL0     H26724  12.369   8.439   7.078 -0.5766  0.2929  0.9703
  939MOL0     H26725  12.192   8.739   6.952 -1.7101  2.3764  1.2466
  939MOL0     H26726  12.199   8.937   7.070  0.6166  1.0693 -1.1441
  939MOL0     H26727  12.388   9.247   7.446  0.5714 -1.0086  1.6136
  939MOL0     H26728  12.274   9.387   7.605  1.4075  1.4035 -2.6426
  939MOL0     H26729  12.140   9.397   7.802 -1.0023  0.5689  2.8387
  939MOL0     H26730  12.105   9.563   7.748 -2.2191  0.9845  0.2774
  939MOL0     H26731  11.892   9.378   7.853 -1.4703  0.4433 -0.1020
  939MOL0     H26732  11.982   9.468   7.962  0.4170 -3.0626 -0.2950
  939MOL0     H26733  11.794   9.599   7.750 -1.0999 -0.0850  0.3822
  939MOL0     H26734  11.762   9.560   7.912 -0.5631 -1.7678 -1.8666
  939MOL0     H26735  11.990   9.753   7.850  1.5596 -0.6255  1.6360
  939MOL0     H26736  11.939   9.693   8.003  0.4806 -0.7737 -0.6567
  939MOL0     H26737  11.702   9.798   7.929  0.5383 -0.8262  2.9907
  939MOL0     H26738  11.804   9.860   7.799  1.3798  0.9332  0.1184
  939MOL0     H26739  11.817   9.908   8.093 -0.0623  1.0955  0.4406
  939MOL0     H26740  11.933   9.976   7.976  0.8949 -0.5306 -0.0219
  939MOL0     H26741  11.632  10.031   7.984 -0.3613 -0.1108  0.7529
  939MOL0     H26742  11.730  10.078   7.844 -1.1694 -2.5339  0.1163
  939MOL0     H26743  11.871  10.226   8.011  1.2706  0.2500  3.4339
  939MOL0     H26744  11.705  10.268   8.008 -0.3236 -0.4103  1.0362
  939MOL0     H26745  11.887   9.228   7.487 -0.3315  0.6988 -1.1765
  939MOL0     H26746  12.020   9.069   7.346  0.3372  1.2455 -0.7571
  939MOL0     H26747  12.591   8.837   7.223  0.5904 -1.3954 -0.3676
  939MOL0     H26748  12.602   8.648   7.062  1.7706  2.5235 -0.3182
  939MOL0     H26749  10.833   8.239   7.150 -0.5820  0.3507  0.8367
  939MOL0     H26750  10.581   8.167   7.163 -1.1403  0.7530  0.4047
  939MOL0     H26751  10.233   7.965   6.719 -1.8677  2.5873 -2.3757
  939MOL0     H26752  10.017   7.874   6.733 -0.3791  2.3030 -1.7349
  939MOL0     H26753   9.808   8.109   6.929 -0.9669  0.5289  3.2390
  939MOL0     H26754   9.743   8.014   7.056  0.0019  0.4439  0.2088
  939MOL0     H26755   9.637   8.005   6.771  2.5467  0.9891  0.3376
  939MOL0     H26756   9.580   8.104   6.902  2.7568  0.2018  3.5874
  939MOL0     H26757   9.501   7.920   7.041  1.7289  1.0179 -0.0918
  939MOL0     H26758   9.568   7.800   6.920  1.8222  0.5656 -1.4441
  939MOL0     H26759   9.354   8.004   6.848 -1.4189 -0.9911 -0.3638
  939MOL0     H26760   9.419   7.865   6.753  1.0484 -3.2296  0.7042
  939MOL0     H26761   9.102   7.701   6.936  0.8948  0.6759 -1.8462
  939MOL0     H26762   9.970   8.020   7.131  0.9954  1.3292  0.2470
  939MOL0     H26763  10.299   8.068   7.170 -2.4049 -1.7431 -0.9730
  939MOL0     H26764  10.225   8.235   7.155 -1.7551  0.7022  2.2663
  939MOL0     H26765  10.148   8.104   7.249  3.3251  1.2822  3.7591
  940MOL0     O26766   1.865   6.676   8.021  0.1161  0.0729  0.3323
  940MOL0     C26767   1.773   6.677   7.940  0.5123  0.6248  0.3000
  940MOL0     O26768   1.681   6.780   7.918 -0.6407 -0.8217 -0.2214
  940MOL0     C26769   1.659   6.900   7.990  0.9461 -0.3166 -0.5991
  940MOL0     C26770   1.563   6.988   7.928  0.5507 -0.2641 -0.0805
  940MOL0     C26771   1.546   7.120   7.977  0.4083  0.2223 -0.1909
  940MOL0     C26772   1.620   7.164   8.088  0.7889  0.4668  0.5307
  940MOL0     O26773   1.585   7.289   8.131  0.2113  0.2878  0.1946
  940MOL0     C26774   1.677   7.354   8.222 -0.3933 -0.4682 -0.2760
  940MOL0     C26775   1.610   7.481   8.268 -0.3807 -0.2625  0.0587
  940MOL0     C26776   1.698   7.549   8.372 -0.0868 -0.7141 -0.9056
  940MOL0     C26777   1.700   7.467   8.501  0.0801 -0.2194 -1.2980
  940MOL0     C26778   1.719   7.547   8.627  0.2589  0.0789 -0.5803
  940MOL0     C26779   1.598   7.538   8.724  0.5148 -0.3286  0.0041
  940MOL0     C26780   1.457   7.587   8.665  0.0131 -0.5704 -0.8425
  940MOL0     C26781   1.347   7.599   8.769 -0.7257 -0.3573  0.0526
  940MOL0     N26782   1.211   7.633   8.721 -0.2879 -0.4706  0.4782
  940MOL0     C26783   1.178   7.750   8.655  0.8128 -0.2516  1.1305
  940MOL0     C26784   1.042   7.742   8.623 -0.7571  0.1095 -0.0948
  940MOL0     C26785   0.967   7.849   8.565  0.4712  0.1461  0.7212
  940MOL0     C26786   0.849   7.864   8.650  0.0438  0.6213  0.4151
  940MOL0     C26787   0.738   7.762   8.612 -0.5774 -0.1162  0.1673
  940MOL0     C26788   0.595   7.804   8.658  0.3565  0.4904  0.1552
  940MOL0     O26789   0.597   7.823   8.801  0.1508  0.0375  0.0820
  940MOL0     C26790   0.470   7.834   8.855 -0.1926  0.2268 -0.0842
  940MOL0     C26791   0.350   7.828   8.789 -0.2540  0.7734 -0.2183
  940MOL0     C26792   0.226   7.854   8.853 -0.6395  0.6907  0.5052
  940MOL0     C26793   0.233   7.894   8.987 -0.5101  0.2326  0.0216
  940MOL0     C26794   0.109   7.939   9.061 -0.1250  1.2242  0.0116
  940MOL0     O26795   0.129   7.940   9.197 -0.0362  0.2795 -0.3098
  940MOL0     C26796   0.023   7.979   9.278 -0.9467 -0.4505  0.1731
  940MOL0     C26797  -0.103   7.931   9.265 -0.0084  0.5274  0.2750
  940MOL0     C26798  -0.206   7.987   9.345  0.6565 -0.8343  0.2433
  940MOL0     C26799  -0.190   8.090   9.436  0.7394  0.0348 -0.0026
  940MOL0     O26800  -0.286   8.155   9.515 -0.2872  0.0851 -0.4368
  940MOL0     C26801  -0.404   8.084   9.543  0.1721 -0.0349 -0.7041
  940MOL0     C26802  -0.454   8.131   9.682  0.9092 -0.1992 -0.6371
  940MOL0     C26803  -0.347   8.181   9.777  0.4600 -0.8049  0.5676
  940MOL0     C26804  -0.385   8.172   9.921 -0.3160 -0.3892 -0.2977
  940MOL0     C26805  -0.513   8.246   9.953 -0.0414 -1.4440 -0.2278
  940MOL0     C26806  -0.482   8.399   9.987 -0.3936  0.0662 -1.0153
  940MOL0     C26807  -0.613   8.470  10.035 -0.0468 -0.1162  0.3056
  940MOL0     C26808  -0.592   8.619  10.032  0.2151  0.1872  0.0837
  940MOL0    Cl26809  -0.461   8.668  10.143 -0.0395 -0.0710 -0.0899
  940MOL0     C26810  -0.059   8.146   9.437 -0.3340  0.7292 -0.4946
  940MOL0     C26811   0.045   8.090   9.362 -0.1193 -0.3737 -0.7569
  940MOL0     O26812   0.001   7.960   9.001 -0.0579 -0.5182  0.1254
  940MOL0     C26813   0.357   7.902   9.054 -1.2649 -0.1139 -0.0225
  940MOL0     C26814   0.468   7.877   8.990  0.3836 -0.4802  0.4292
  940MOL0     N26815   1.003   7.614   8.668  0.0680 -0.1789 -0.8467
  940MOL0     N26816   1.099   7.552   8.727  0.0560  0.3646  0.1934
  940MOL0     C26817   1.714   7.074   8.148  0.8880  0.6865  0.4312
  940MOL0     C26818   1.732   6.945   8.100  0.0285 -0.4632  0.2037
  940MOL0     C26819   1.775   6.556   7.845 -0.9363  0.0425 -0.1933
  940MOL0     C26820   1.821   6.434   7.904 -0.8370  0.1540 -0.1149
  940MOL0     C26821   1.842   6.325   7.823  0.9671 -0.5629  0.3158
  940MOL0     C26822   1.802   6.328   7.688  0.0722  1.1100 -0.1294
  940MOL0     O26823   1.834   6.215   7.614 -0.7833  0.2388  0.2334
  940MOL0     C26824   1.886   6.218   7.484  0.3231 -0.0246 -0.0889
  940MOL0     C26825   1.775   6.177   7.380 -0.3289  0.1593 -0.1980
  940MOL0     C26826   1.673   6.067   7.416  0.9802  0.7581 -0.1966
  940MOL0     C26827   1.534   6.099   7.353 -0.4762  0.2442  0.0585
  940MOL0     C26828   1.445   5.977   7.386 -0.5075  0.0809  1.1129
  940MOL0     C26829   1.365   5.887   7.406  0.9365  0.0999 -1.2695
  940MOL0     C26830   1.752   6.446   7.632 -0.3017  0.1469 -0.7366
  940MOL0     C26831   1.742   6.564   7.707  0.2723  0.5216  0.0127
  940MOL0     C26832   1.709   6.692   7.637 -0.2484 -0.2234 -0.1592
  940MOL0     H26833   1.486   6.957   7.857  0.1405  1.6927 -0.5458
  940MOL0     H26834   1.468   7.191   7.949  1.5614  0.8580 -2.0165
  940MOL0     H26835   1.714   7.292   8.304  0.2694 -0.8049 -0.8222
  940MOL0     H26836   1.768   7.378   8.166 -2.3260  2.4790 -2.4356
  940MOL0     H26837   1.515   7.461   8.318  1.3694 -1.2288  3.2413
  940MOL0     H26838   1.590   7.551   8.186 -0.3184  0.1053  0.3527
  940MOL0     H26839   1.655   7.648   8.390 -2.7411 -2.1992  1.8301
  940MOL0     H26840   1.799   7.567   8.334 -0.2442  3.6028  0.2492
  940MOL0     H26841   1.605   7.421   8.526 -0.3791  1.9816  1.5934
  940MOL0     H26842   1.772   7.385   8.507  1.6575  1.0624 -1.6328
  940MOL0     H26843   1.809   7.517   8.682 -0.1017  0.2492  0.1153
  940MOL0     H26844   1.740   7.650   8.596  0.5607  0.6380  1.3109
  940MOL0     H26845   1.575   7.433   8.745 -4.8004  0.4123 -0.7153
  940MOL0     H26846   1.619   7.598   8.813 -2.1904  2.4926 -1.0804
  940MOL0     H26847   1.426   7.524   8.581 -1.9099  1.3087 -1.6237
  940MOL0     H26848   1.472   7.680   8.611 -2.7858  0.2512 -0.3654
  940MOL0     H26849   1.346   7.501   8.818  1.3522  0.4013  1.7342
  940MOL0     H26850   1.381   7.678   8.836  1.8738 -1.9054  0.6867
  940MOL0     H26851   1.241   7.837   8.637 -3.0206  2.9295  1.5760
  940MOL0     H26852   1.020   7.944   8.570 -0.2750  0.5500  1.1958
  940MOL0     H26853   0.942   7.819   8.463  3.1874  0.0244  0.0089
  940MOL0     H26854   0.875   7.856   8.756  0.1123  0.4453  0.3855
  940MOL0     H26855   0.813   7.965   8.629 -0.7477  0.5053  1.1864
  940MOL0     H26856   0.766   7.662   8.646  0.7348  0.8688  2.1731
  940MOL0     H26857   0.724   7.764   8.504  0.6709  0.6687 -0.0009
  940MOL0     H26858   0.526   7.722   8.635  1.1916 -0.7585  1.9323
  940MOL0     H26859   0.559   7.897   8.612 -0.0469  1.6463  2.6127
  940MOL0     H26860   0.349   7.803   8.683  1.1326  0.0444 -0.0816
  940MOL0     H26861   0.135   7.841   8.796 -0.3821 -4.0811  0.7692
  940MOL0     H26862  -0.135   7.854   9.195 -1.1859  2.7398 -1.7590
  940MOL0     H26863  -0.309   7.966   9.316 -1.4415  0.2984  5.5529
  940MOL0     H26864  -0.466   8.112   9.458  0.4696  0.5311 -0.7373
  940MOL0     H26865  -0.384   7.976   9.543 -0.1667 -0.1011 -1.2612
  940MOL0     H26866  -0.506   8.226   9.665 -0.9003 -0.7582  1.3501
  940MOL0     H26867  -0.509   8.056   9.739 -1.1274  1.0204 -0.9017
  940MOL0     H26868  -0.255   8.126   9.757  0.5512 -0.8383  1.0581
  940MOL0     H26869  -0.325   8.285   9.750  2.5575 -1.2877  0.2546
  940MOL0     H26870  -0.303   8.206   9.985 -1.2825 -0.4209  1.0260
  940MOL0     H26871  -0.410   8.070   9.949  1.1414 -0.8742 -0.7222
  940MOL0     H26872  -0.564   8.208  10.042 -1.7523  1.0280 -0.0584
  940MOL0     H26873  -0.581   8.235   9.868  0.1997 -0.6287 -0.5300
  940MOL0     H26874  -0.407   8.399  10.067 -0.2686  0.1070 -1.1329
  940MOL0     H26875  -0.447   8.437   9.891 -1.4395 -0.4023 -1.5976
  940MOL0     H26876  -0.644   8.433  10.133  4.4108 -2.6366  1.0320
  940MOL0     H26877  -0.695   8.455   9.964 -0.6888  1.8416  0.5808
  940MOL0     H26878  -0.584   8.659   9.931  0.8253  1.9762  0.7999
  940MOL0     H26879  -0.687   8.651  10.077 -0.2477 -1.2472  0.1672
  940MOL0     H26880  -0.039   8.234   9.497  1.7455  0.9567 -1.4367
  940MOL0     H26881   0.140   8.142   9.372 -0.0240 -0.9174  1.6827
  940MOL0     H26882   0.371   7.929   9.158  1.1088 -2.9478  0.5186
  940MOL0     H26883   0.562   7.886   9.044  1.4837 -2.8126 -0.9479
  940MOL0     H26884   1.766   7.097   8.240 -1.1203 -1.0148  2.0711
  940MOL0     H26885   1.815   6.887   8.139  0.5910 -0.0720 -0.3834
  940MOL0     H26886   1.837   6.429   8.011 -0.7045 -0.3077 -0.1549
  940MOL0     H26887   1.892   6.235   7.857 -0.3828 -0.8997  1.5292
  940MOL0     H26888   1.974   6.155   7.479 -1.5476 -2.7604 -0.9408
  940MOL0     H26889   1.919   6.319   7.459 -1.0065  0.8247  1.3647
  940MOL0     H26890   1.834   6.144   7.294  3.2467  0.5440  1.9059
  940MOL0     H26891   1.733   6.269   7.338  0.9774  0.7829 -0.2142
  940MOL0     H26892   1.656   6.057   7.523  3.1725 -1.7583  0.0346
  940MOL0     H26893   1.706   5.973   7.370 -0.9669 -0.2841  0.4577
  940MOL0     H26894   1.479   6.181   7.401 -0.7046  0.2221 -0.1621
  940MOL0     H26895   1.536   6.113   7.244 -3.0978 -0.8044 -0.2064
  940MOL0     H26896   1.283   5.819   7.421  1.2013  0.0749  0.1599
  940MOL0     H26897   1.748   6.463   7.524 -1.8162  1.0231 -0.5726
  940MOL0     H26898   1.755   6.700   7.538  0.0625  1.7884  0.0928
  940MOL0     H26899   1.603   6.718   7.629 -0.2537 -0.3268 -0.4582
  940MOL0     H26900   1.751   6.777   7.692 -2.2817 -1.5149  3.8182
  941MOL0     O26901   1.077   8.981   4.663  0.2765  0.1327  0.3935
  941MOL0     C26902   1.081   9.103   4.637 -0.8110 -0.6243  0.7210
  941MOL0     O26903   1.091   9.200   4.736 -0.0781 -0.4652 -0.9559
  941MOL0     C26904   1.159   9.158   4.853  0.8032  0.9239  1.0976
  941MOL0     C26905   1.087   9.077   4.939 -0.1429  0.3388  0.1357
  941MOL0     C26906   1.145   9.017   5.043  0.0992  0.1314 -0.5431
  941MOL0     C26907   1.284   9.045   5.067  0.2308 -1.0352  0.7541
  941MOL0     O26908   1.328   9.010   5.189 -0.1128 -0.1836  0.5995
  941MOL0     C26909   1.319   8.869   5.232 -0.2936  0.1930 -0.4310
  941MOL0     C26910   1.368   8.767   5.122 -0.5654 -0.7734 -0.5851
  941MOL0     C26911   1.394   8.622   5.172 -0.2258  0.1533 -0.9271
  941MOL0     C26912   1.474   8.551   5.068  0.1900  0.5121  0.2206
  941MOL0     C26913   1.501   8.411   5.115  1.4389 -0.3069 -0.1006
  941MOL0     C26914   1.556   8.322   4.993 -0.6200 -0.1899  0.1814
  941MOL0     C26915   1.585   8.182   5.039 -0.5698  0.3940 -0.2361
  941MOL0     C26916   1.707   8.158   5.133  0.0274 -0.6776  0.2966
  941MOL0     N26917   1.767   8.027   5.105 -0.0758 -0.4686 -0.0842
  941MOL0     C26918   1.784   7.924   5.202 -0.0150  0.2882  0.6174
  941MOL0     C26919   1.895   7.858   5.159 -0.6379  0.3828  0.1640
  941MOL0     C26920   1.968   7.746   5.222  0.4711  0.9631  0.5746
  941MOL0     C26921   1.911   7.611   5.179 -1.1722 -0.0324  0.6043
  941MOL0     C26922   1.961   7.511   5.287 -0.1887  0.7766 -1.3130
  941MOL0     C26923   1.895   7.374   5.268  0.5325  0.1366  0.1934
  941MOL0     O26924   1.950   7.263   5.339 -0.3476 -0.1075 -0.6876
  941MOL0     C26925   2.067   7.211   5.280  0.7646 -0.1773 -0.6326
  941MOL0     C26926   2.114   7.107   5.361  0.3706  0.2046  0.3239
  941MOL0     C26927   2.232   7.038   5.329  0.4687  0.4767  1.0085
  941MOL0     C26928   2.295   7.071   5.206  1.4904  0.0249 -1.2695
  941MOL0     C26929   2.416   6.992   5.164 -0.6659  0.3039  0.6664
  941MOL0     O26930   2.471   7.033   5.037  0.5162  0.7519 -0.0324
  941MOL0     C26931   2.569   6.965   4.978 -0.6068  0.1641 -0.0777
  941MOL0     C26932   2.587   6.826   4.976 -0.3048 -1.0457  0.0893
  941MOL0     C26933   2.686   6.751   4.904  0.0744  0.5417 -0.0285
  941MOL0     C26934   2.787   6.823   4.839  0.5177 -0.6598  0.0853
  941MOL0     O26935   2.896   6.773   4.785 -0.2207 -0.0946  0.1996
  941MOL0     C26936   2.944   6.644   4.818 -0.1281 -0.6302 -0.3509
  941MOL0     C26937   3.065   6.612   4.740  0.4199  0.5656  0.6137
  941MOL0     C26938   3.083   6.461   4.740  0.5695  0.2565 -0.4997
  941MOL0     C26939   3.202   6.422   4.660  0.1986  0.1622  0.1389
  941MOL0     C26940   3.280   6.284   4.672 -0.0427 -0.6450  0.8547
  941MOL0     C26941   3.178   6.178   4.616 -0.1076 -0.2159 -0.4999
  941MOL0     C26942   3.257   6.057   4.559  0.3374  0.5277  0.7651
  941MOL0     C26943   3.304   5.971   4.669 -0.3133 -0.1985 -0.6157
  941MOL0    Cl26944   3.179   5.875   4.751 -0.4651 -0.4379 -0.7508
  941MOL0     C26945   2.774   6.963   4.835 -0.1439 -0.1684  0.2089
  941MOL0     C26946   2.669   7.031   4.897  0.5361  0.4722 -0.2592
  941MOL0     O26947   2.447   6.892   5.222 -0.2913 -0.2931  0.3126
  941MOL0     C26948   2.252   7.179   5.121 -0.0135 -0.7504  0.1893
  941MOL0     C26949   2.137   7.245   5.163 -0.4785  0.3417 -0.4411
  941MOL0     N26950   1.941   7.911   5.042  0.9965 -0.0603  0.5883
  941MOL0     N26951   1.871   8.016   5.009  0.9968 -0.3940 -0.3271
  941MOL0     C26952   1.366   9.109   4.972 -0.0019 -0.7591 -0.1250
  941MOL0     C26953   1.297   9.170   4.867 -0.6989 -0.7938  0.5116
  941MOL0     C26954   1.048   9.150   4.501 -0.8325  0.5220  0.1328
  941MOL0     C26955   0.989   9.279   4.494 -0.8636 -0.5705  0.6162
  941MOL0     C26956   0.970   9.342   4.368  0.2622 -0.4012 -0.0606
  941MOL0     C26957   0.996   9.267   4.255 -0.1237 -0.4140 -0.7886
  941MOL0     O26958   0.961   9.335   4.136  0.5194 -0.0074  0.2521
  941MOL0     C26959   1.017   9.296   4.004 -1.0067  0.4933 -0.2965
  941MOL0     C26960   1.124   9.400   3.968  0.0202 -1.0437  0.3346
  941MOL0     C26961   1.211   9.456   4.085  0.5794  0.0980 -0.8035
  941MOL0     C26962   1.334   9.533   4.027 -0.3112  0.2037 -0.4355
  941MOL0     C26963   1.442   9.558   4.131 -0.1268  0.1494 -1.1929
  941MOL0     C26964   1.518   9.577   4.226 -0.0994 -0.3356  0.6403
  941MOL0     C26965   1.031   9.134   4.257  0.2277 -0.0991  0.2125
  941MOL0     C26966   1.063   9.077   4.384  0.2596 -0.1005 -0.6018
  941MOL0     C26967   1.115   8.932   4.381 -0.0398 -0.1171  0.3462
  941MOL0     H26968   0.983   9.052   4.918  0.8015 -1.7391 -2.7820
  941MOL0     H26969   1.086   8.960   5.115 -1.9452  0.4745 -1.8559
  941MOL0     H26970   1.388   8.870   5.316  1.9918 -1.9339 -2.1337
  941MOL0     H26971   1.219   8.849   5.271  0.7994  1.4904  3.4614
  941MOL0     H26972   1.470   8.801   5.104 -0.3369 -0.9287  0.3299
  941MOL0     H26973   1.314   8.773   5.027  0.5019 -2.5365 -1.3534
  941MOL0     H26974   1.299   8.576   5.200 -1.0568  2.9827  1.4589
  941MOL0     H26975   1.447   8.624   5.268 -0.8849 -0.8214 -0.5319
  941MOL0     H26976   1.414   8.553   4.976  0.0006  1.1075  0.3504
  941MOL0     H26977   1.560   8.615   5.046 -1.9900  4.2641  1.6947
  941MOL0     H26978   1.582   8.412   5.189  1.6852  2.3655 -0.3081
  941MOL0     H26979   1.410   8.368   5.157  1.0131 -0.0043 -0.7106
  941MOL0     H26980   1.482   8.323   4.912  1.7283  3.4291 -2.1968
  941MOL0     H26981   1.641   8.369   4.942 -1.9671  1.0389 -1.0155
  941MOL0     H26982   1.610   8.113   4.958  3.2069 -1.2888  2.0841
  941MOL0     H26983   1.501   8.140   5.094 -1.4525 -2.6676 -3.5654
  941MOL0     H26984   1.783   8.233   5.110 -0.8664  0.5405  1.1919
  941MOL0     H26985   1.682   8.168   5.239  0.9668 -1.0268  0.5597
  941MOL0     H26986   1.730   7.895   5.291  0.8247  0.0956  1.0806
  941MOL0     H26987   2.069   7.746   5.180  0.3572 -2.3136  0.0720
  941MOL0     H26988   1.977   7.756   5.330  0.7783  0.6782  0.5771
  941MOL0     H26989   1.802   7.625   5.181 -0.9526  2.4313  3.8731
  941MOL0     H26990   1.951   7.597   5.079 -0.7345 -0.3063  0.8142
  941MOL0     H26991   1.931   7.540   5.388  2.0025  0.2253 -0.4410
  941MOL0     H26992   2.069   7.492   5.288  0.2192  2.2984  2.9628
  941MOL0     H26993   1.896   7.344   5.163 -0.5757  2.1529 -0.4418
  941MOL0     H26994   1.789   7.386   5.292 -0.5054 -1.6037 -2.8614
  941MOL0     H26995   2.085   7.088   5.464 -0.2424 -1.5838 -0.1448
  941MOL0     H26996   2.258   6.961   5.401  0.5102 -1.5671 -1.0748
  941MOL0     H26997   2.505   6.767   5.014  1.8876 -4.1848  0.3125
  941MOL0     H26998   2.681   6.644   4.924 -1.5738  0.8013  1.1468
  941MOL0     H26999   2.964   6.642   4.925  3.7119 -3.1024 -0.9488
  941MOL0     H27000   2.865   6.575   4.789 -3.9908  3.4665 -0.7759
  941MOL0     H27001   3.052   6.646   4.637 -1.1900  1.9991  1.2528
  941MOL0     H27002   3.150   6.665   4.783  0.8851  0.5725 -0.2838
  941MOL0     H27003   3.092   6.421   4.841  0.6022  3.2040  0.7596
  941MOL0     H27004   2.992   6.416   4.699 -1.0789  1.0684  2.0155
  941MOL0     H27005   3.275   6.501   4.681  0.7664 -0.4405  0.4809
  941MOL0     H27006   3.163   6.439   4.559 -1.7440  0.8979  0.9738
  941MOL0     H27007   3.302   6.271   4.778  0.6788 -0.2053  0.7654
  941MOL0     H27008   3.367   6.287   4.606  0.2130  0.5685  1.2209
  941MOL0     H27009   3.111   6.155   4.699  0.0588  1.2273  0.0689
  941MOL0     H27010   3.119   6.222   4.536 -1.5631  0.9109  1.1213
  941MOL0     H27011   3.331   6.090   4.486  1.3436  1.4846  2.1878
  941MOL0     H27012   3.193   5.994   4.496  1.4676 -1.7020  1.7420
  941MOL0     H27013   3.369   5.895   4.624 -0.7291  0.8116 -3.0574
  941MOL0     H27014   3.368   6.027   4.739 -1.8902  0.2731  0.5061
  941MOL0     H27015   2.853   7.016   4.783 -0.2511  0.3414  0.5523
  941MOL0     H27016   2.669   7.139   4.900 -0.4144  0.5072 -0.9657
  941MOL0     H27017   2.300   7.199   5.025 -0.6998 -0.5440 -0.1198
  941MOL0     H27018   2.097   7.326   5.104  0.8210  1.0391 -0.4047
  941MOL0     H27019   1.473   9.101   4.981  0.0030 -0.2141  0.4347
  941MOL0     H27020   1.350   9.221   4.787  1.7686 -0.2684  2.3481
  941MOL0     H27021   0.982   9.337   4.585 -0.6431  2.8972 -1.3737
  941MOL0     H27022   0.942   9.447   4.365  3.4241  0.5079 -0.9252
  941MOL0     H27023   0.945   9.282   3.923 -1.6655 -1.2534  0.5444
  941MOL0     H27024   1.063   9.198   4.017  2.2177  1.9878  0.6568
  941MOL0     H27025   1.065   9.486   3.934 -0.8203 -2.3684 -1.7773
  941MOL0     H27026   1.179   9.367   3.879 -0.2989  0.3814 -0.4264
  941MOL0     H27027   1.235   9.377   4.156 -0.8793  1.7800  1.7025
  941MOL0     H27028   1.146   9.519   4.147  0.9204 -2.1006  1.9800
  941MOL0     H27029   1.372   9.468   3.948  2.2952 -1.2256  1.8127
  941MOL0     H27030   1.297   9.627   3.987 -0.0715  0.2365 -0.5842
  941MOL0     H27031   1.587   9.599   4.304  1.3845  2.0424 -1.1790
  941MOL0     H27032   1.034   9.082   4.162  1.1982  2.5192 -1.3212
  941MOL0     H27033   1.032   8.870   4.417 -0.7428  0.0071 -1.0171
  941MOL0     H27034   1.141   8.899   4.280 -2.4752  0.2501 -0.4587
  941MOL0     H27035   1.209   8.920   4.437  1.2943 -0.9586 -1.9133
  942MOL0     O27036   8.173   7.929   9.991  0.2672 -1.3408  0.3275
  942MOL0     C27037   8.117   7.875   9.902  0.0286  0.8152 -0.1555
  942MOL0     O27038   8.041   7.931   9.813  1.0092 -0.4856 -0.1423
  942MOL0     C27039   8.003   8.060   9.831 -0.5017  0.1058  0.4825
  942MOL0     C27040   8.010   8.147   9.721  0.2346 -0.1689  0.1288
  942MOL0     C27041   7.973   8.280   9.721 -0.2721  0.0318 -0.9202
  942MOL0     C27042   7.918   8.339   9.829  0.1709  0.0015  0.3983
  942MOL0     O27043   7.895   8.468   9.840 -0.6267  0.4329  0.4041
  942MOL0     C27044   7.837   8.526   9.719  0.8887  0.1152 -0.1125
  942MOL0     C27045   7.730   8.623   9.748  0.9440 -0.2508 -0.4543
  942MOL0     C27046   7.598   8.551   9.786 -0.3552  0.1857 -0.2750
  942MOL0     C27047   7.505   8.639   9.872 -0.4983  0.4879 -0.0915
  942MOL0     C27048   7.531   8.619  10.023 -0.1821  0.2060  0.8727
  942MOL0     C27049   7.478   8.725  10.113  0.6723 -0.0221 -0.3198
  942MOL0     C27050   7.370   8.676  10.211  0.6713  0.0196 -0.6353
  942MOL0     C27051   7.237   8.642  10.136 -0.4506 -0.0687 -0.1807
  942MOL0     N27052   7.134   8.603  10.231 -0.4385 -0.2541 -0.5445
  942MOL0     C27053   7.090   8.473  10.254 -0.2412 -0.1851 -1.0392
  942MOL0     C27054   6.971   8.490  10.312  0.1922  0.3678 -0.5674
  942MOL0     C27055   6.908   8.380  10.391 -0.4952 -0.0377  0.1739
  942MOL0     C27056   6.759   8.357  10.363 -1.1965 -1.0418 -0.6867
  942MOL0     C27057   6.718   8.207  10.384 -0.3807 -0.0939 -0.1684
  942MOL0     C27058   6.560   8.200  10.375 -0.1130 -0.1264 -0.5431
  942MOL0     O27059   6.524   8.068  10.410 -0.0876  0.6113  0.5453
  942MOL0     C27060   6.508   7.993  10.298 -0.1129  0.6039  1.1084
  942MOL0     C27061   6.382   7.998  10.235 -0.0690 -0.0084 -0.7308
  942MOL0     C27062   6.365   7.929  10.121 -0.0254 -0.4408 -0.2931
  942MOL0     C27063   6.461   7.850  10.062 -0.1379  0.5006 -0.1048
  942MOL0     C27064   6.443   7.794   9.932 -0.3927 -0.0334  0.5120
  942MOL0     O27065   6.522   7.693   9.892 -0.1364 -0.2924 -0.1018
  942MOL0     C27066   6.542   7.653   9.764 -0.4563 -0.2586  0.7669
  942MOL0     C27067   6.675   7.636   9.729 -0.0227 -0.2643 -0.7948
  942MOL0     C27068   6.698   7.600   9.596 -0.2957 -0.2669  0.5934
  942MOL0     C27069   6.602   7.568   9.511 -0.1924  0.1822  0.7418
  942MOL0     O27070   6.618   7.526   9.377  0.1487 -0.0352 -0.0661
  942MOL0     C27071   6.742   7.470   9.334  0.1746 -1.2041 -0.6866
  942MOL0     C27072   6.723   7.422   9.190  1.0717  0.2598  0.8313
  942MOL0     C27073   6.714   7.553   9.094  0.6628 -0.0049 -0.6907
  942MOL0     C27074   6.716   7.518   8.947  1.1862 -0.4040  0.2927
  942MOL0     C27075   6.598   7.435   8.897 -0.4269 -0.4464  0.7698
  942MOL0     C27076   6.564   7.434   8.737 -0.5706 -0.8927  0.0506
  942MOL0     C27077   6.673   7.381   8.652  0.6904  1.8079  0.3733
  942MOL0     C27078   6.634   7.398   8.502  1.0288 -0.3254 -0.9410
  942MOL0    Cl27079   6.751   7.328   8.396  0.2131  0.1621 -0.0918
  942MOL0     C27080   6.468   7.573   9.545  0.3209 -0.2579  0.1650
  942MOL0     C27081   6.434   7.615   9.673 -0.0206  0.4754  0.3890
  942MOL0     O27082   6.376   7.873   9.863 -0.3242 -0.4423 -0.8392
  942MOL0     C27083   6.584   7.841  10.127  0.4281 -0.5074  0.6423
  942MOL0     C27084   6.608   7.918  10.237 -0.2950  0.9120 -0.3206
  942MOL0     N27085   6.935   8.624  10.313  0.7595 -0.1639  0.8032
  942MOL0     N27086   7.031   8.687  10.244  0.1082 -0.4662 -0.3794
  942MOL0     C27087   7.888   8.251   9.936 -0.4763  0.4171  0.6704
  942MOL0     C27088   7.937   8.118   9.940 -0.0032 -0.3447  0.5384
  942MOL0     C27089   8.139   7.728   9.884  0.3197 -0.6335  1.4642
  942MOL0     C27090   8.147   7.680   9.749  0.1847 -0.2211 -0.0688
  942MOL0     C27091   8.158   7.545   9.714  0.2546 -0.1597 -0.5710
  942MOL0     C27092   8.189   7.463   9.820 -0.4131 -0.0094  0.8234
  942MOL0     O27093   8.205   7.329   9.789  0.1333  0.0762  0.8026
  942MOL0     C27094   8.339   7.282   9.821  0.6516  0.4910 -0.3684
  942MOL0     C27095   8.443   7.294   9.702 -0.6634  0.3853 -0.7662
  942MOL0     C27096   8.414   7.204   9.578 -0.1130  0.3225  0.1075
  942MOL0     C27097   8.542   7.177   9.494 -0.7072  0.8032 -0.6612
  942MOL0     C27098   8.629   7.299   9.487 -0.0700  0.6915  0.3408
  942MOL0     C27099   8.709   7.383   9.460 -1.2815  0.3140 -0.1327
  942MOL0     C27100   8.200   7.508   9.951  0.0384  0.8758 -0.4977
  942MOL0     C27101   8.172   7.640   9.986 -0.3791 -0.4810 -0.2613
  942MOL0     C27102   8.153   7.674  10.132 -0.2292  0.0743  0.1653
  942MOL0     H27103   8.045   8.111   9.625 -3.1503 -1.1265 -0.9102
  942MOL0     H27104   8.004   8.341   9.638  1.8588  3.5071  2.1336
  942MOL0     H27105   7.915   8.583   9.668  1.3678 -0.5852 -0.1788
  942MOL0     H27106   7.785   8.457   9.651 -3.1675  1.2097  1.6211
  942MOL0     H27107   7.705   8.683   9.659 -0.9994  1.4493  1.1160
  942MOL0     H27108   7.758   8.689   9.830 -2.0963 -1.5144  1.7836
  942MOL0     H27109   7.624   8.457   9.835 -0.4194 -0.8303 -2.0710
  942MOL0     H27110   7.544   8.535   9.692 -1.9083 -0.2695  0.6676
  942MOL0     H27111   7.517   8.742   9.839 -1.5022 -0.0116 -2.1955
  942MOL0     H27112   7.402   8.613   9.844  0.1737 -0.4244 -1.8975
  942MOL0     H27113   7.500   8.519  10.055  2.6461 -2.2478 -3.0990
  942MOL0     H27114   7.639   8.599  10.029 -0.4188 -1.1763  0.8483
  942MOL0     H27115   7.560   8.761  10.176  1.0509 -0.8754 -0.3110
  942MOL0     H27116   7.429   8.803  10.054  1.8349  1.6243  0.7769
  942MOL0     H27117   7.348   8.760  10.278 -1.9897  0.4006 -1.8235
  942MOL0     H27118   7.409   8.585  10.256 -1.9100  0.2681  2.4908
  942MOL0     H27119   7.192   8.721  10.076  0.2541  1.1045  0.7870
  942MOL0     H27120   7.262   8.553  10.076  0.1238  0.3856 -0.6300
  942MOL0     H27121   7.145   8.381  10.232  1.9063  1.1854 -1.6900
  942MOL0     H27122   6.950   8.281  10.374 -3.9641 -1.7961  0.9510
  942MOL0     H27123   6.908   8.403  10.498 -1.0704  1.7440 -0.1742
  942MOL0     H27124   6.715   8.428  10.435  1.8920  1.6758 -1.2485
  942MOL0     H27125   6.732   8.403  10.268 -3.2131  1.4521  0.9240
  942MOL0     H27126   6.761   8.167  10.477  0.2479  0.0887 -0.3716
  942MOL0     H27127   6.744   8.142  10.300 -3.2906 -2.5211  0.6518
  942MOL0     H27128   6.534   8.222  10.271  0.5477 -0.7311 -0.8452
  942MOL0     H27129   6.507   8.271  10.440  2.5812  0.4153  1.2218
  942MOL0     H27130   6.303   8.058  10.278  0.8642 -1.8100  4.1739
  942MOL0     H27131   6.271   7.945  10.068  0.5384 -0.5536 -1.3519
  942MOL0     H27132   6.757   7.663   9.796 -0.7859  1.9764 -0.6795
  942MOL0     H27133   6.803   7.590   9.570 -0.7774  0.2780 -1.7296
  942MOL0     H27134   6.824   7.541   9.349  0.0641 -1.1371 -0.3865
  942MOL0     H27135   6.762   7.386   9.400 -2.6324  0.5595  2.7738
  942MOL0     H27136   6.802   7.355   9.156  1.3367  2.1336 -2.7286
  942MOL0     H27137   6.628   7.373   9.165  0.8376  0.8386  0.5577
  942MOL0     H27138   6.624   7.608   9.122 -2.0556 -3.1200 -2.5155
  942MOL0     H27139   6.796   7.623   9.115  0.4215 -0.0173  0.3959
  942MOL0     H27140   6.808   7.464   8.921  1.5037 -0.6073  1.7776
  942MOL0     H27141   6.718   7.609   8.885  0.5537 -2.0637 -2.3467
  942MOL0     H27142   6.506   7.466   8.949 -2.4170 -2.1393 -1.5544
  942MOL0     H27143   6.633   7.336   8.927 -1.8271  0.0254  4.6884
  942MOL0     H27144   6.478   7.368   8.728 -0.3392 -1.4082  1.3437
  942MOL0     H27145   6.543   7.535   8.702 -2.3134 -1.4040 -0.4655
  942MOL0     H27146   6.689   7.275   8.677 -0.6631  1.6948  0.8238
  942MOL0     H27147   6.765   7.440   8.659  0.4286  2.6272 -1.9862
  942MOL0     H27148   6.537   7.348   8.489  1.0344 -0.3694 -0.8175
  942MOL0     H27149   6.623   7.502   8.473  0.2591  0.3076  1.3552
  942MOL0     H27150   6.389   7.533   9.482 -0.3814  0.3492  0.6376
  942MOL0     H27151   6.329   7.618   9.700 -0.5183 -4.5491 -0.1751
  942MOL0     H27152   6.666   7.794  10.074 -0.3126 -2.7969  1.4424
  942MOL0     H27153   6.708   7.917  10.278  0.3606  2.8502 -1.7127
  942MOL0     H27154   7.841   8.300  10.020 -0.7942  1.5893 -0.1590
  942MOL0     H27155   7.924   8.053  10.026 -4.4219  0.5263  0.7607
  942MOL0     H27156   8.136   7.744   9.663 -1.2721 -3.9829 -2.9810
  942MOL0     H27157   8.153   7.497   9.617  1.7325 -0.3376 -0.5870
  942MOL0     H27158   8.318   7.180   9.857 -0.9718  0.3919 -1.5029
  942MOL0     H27159   8.383   7.332   9.908 -2.4480  0.7706  1.1836
  942MOL0     H27160   8.532   7.246   9.744 -2.8930 -2.5449  1.0515
  942MOL0     H27161   8.472   7.395   9.672  1.0037 -1.0831 -4.9357
  942MOL0     H27162   8.340   7.254   9.515  0.3700  0.7551 -0.1174
  942MOL0     H27163   8.380   7.105   9.613  3.5943 -0.5867  1.5584
  942MOL0     H27164   8.605   7.107   9.550 -3.1955  1.1982  3.0685
  942MOL0     H27165   8.529   7.122   9.400 -3.6307 -0.6619  0.4633
  942MOL0     H27166   8.759   7.471   9.426  1.7394 -1.5757 -0.9467
  942MOL0     H27167   8.201   7.428  10.025 -3.2523 -0.2342 -1.4382
  942MOL0     H27168   8.245   7.709  10.179 -0.6770 -0.1535  1.2328
  942MOL0     H27169   8.079   7.753  10.143  1.5352  1.7801  0.3844
  942MOL0     H27170   8.112   7.592  10.191 -1.0080  0.2089 -0.1721
  943MOL0     O27171   0.860   1.161   3.094 -0.4928 -0.4931 -1.2640
  943MOL0     C27172   0.835   1.077   3.006  0.2606  0.4173 -0.7009
  943MOL0     O27173   0.811   0.941   3.026 -0.1113 -0.1481  0.3096
  943MOL0     C27174   0.785   0.906   3.157  0.2862 -0.0133 -0.8776
  943MOL0     C27175   0.663   0.839   3.178 -0.6467  0.8651 -0.3208
  943MOL0     C27176   0.624   0.806   3.317  0.5560 -0.2097  0.9032
  943MOL0     C27177   0.724   0.797   3.414  0.9468  0.4531 -0.8095
  943MOL0     O27178   0.701   0.719   3.520 -0.1042  0.4528  0.5244
  943MOL0     C27179   0.746   0.586   3.497  0.8045  0.1809  0.4193
  943MOL0     C27180   0.759   0.518   3.640  0.5066 -0.3511  0.6978
  943MOL0     C27181   0.808   0.372   3.637  0.5989 -0.7074  0.5411
  943MOL0     C27182   0.823   0.317   3.788 -0.5195 -0.2811 -0.3590
  943MOL0     C27183   0.900   0.182   3.795 -0.0053 -0.5587  0.8797
  943MOL0     C27184   0.810   0.060   3.766  0.3017  0.9097  0.0927
  943MOL0     C27185   0.883  -0.083   3.756  1.0979  0.2603  0.9489
  943MOL0     C27186   0.960  -0.120   3.893 -0.4931 -0.1736  0.1517
  943MOL0     N27187   1.091  -0.054   3.909  0.7847  0.6488  0.1098
  943MOL0     C27188   1.120   0.050   3.998 -0.8824  0.7729  0.2676
  943MOL0     C27189   1.252   0.086   3.957  0.9525 -0.7387  0.4850
  943MOL0     C27190   1.355   0.175   4.021 -0.5318  0.6785 -0.6826
  943MOL0     C27191   1.326   0.320   4.041  0.4342 -0.9621  0.6281
  943MOL0     C27192   1.288   0.380   3.898  0.3676  0.9902 -0.5355
  943MOL0     C27193   1.246   0.525   3.913 -1.0890  0.2670  0.3811
  943MOL0     O27194   1.179   0.556   3.785  0.0292  0.2999  0.0162
  943MOL0     C27195   1.193   0.687   3.741  0.9304 -0.4068  0.8998
  943MOL0     C27196   1.202   0.798   3.830 -0.6779  0.5724  0.5298
  943MOL0     C27197   1.198   0.933   3.783 -1.0897  0.5439 -0.2896
  943MOL0     C27198   1.181   0.954   3.648  0.0897 -0.3852  0.6270
  943MOL0     C27199   1.196   1.096   3.603  0.3123 -0.3479 -1.3237
  943MOL0     O27200   1.151   1.136   3.480 -0.4662  0.2319 -0.3493
  943MOL0     C27201   1.185   1.259   3.434  0.4446  0.5954  0.1815
  943MOL0     C27202   1.085   1.352   3.396  0.0725  0.0225 -0.2229
  943MOL0     C27203   1.113   1.479   3.340 -0.3616 -0.6111 -0.3562
  943MOL0     C27204   1.248   1.520   3.332 -0.3579 -0.3122 -0.7465
  943MOL0     O27205   1.264   1.647   3.281  0.2236 -0.4500  0.5779
  943MOL0     C27206   1.372   1.718   3.339 -0.2981 -0.2008  1.4366
  943MOL0     C27207   1.367   1.855   3.261 -0.8203  0.6082 -0.2783
  943MOL0     C27208   1.399   1.840   3.113  1.0429 -1.1673  0.1127
  943MOL0     C27209   1.422   1.982   3.052  1.2575 -0.0893  0.1101
  943MOL0     C27210   1.297   2.066   3.011 -0.2629 -0.3249 -0.6419
  943MOL0     C27211   1.341   2.210   2.980 -1.2520  0.3247 -0.4700
  943MOL0     C27212   1.234   2.304   3.047  0.1868  0.2651  0.6816
  943MOL0     C27213   1.250   2.311   3.200  0.5630 -0.8139  0.6878
  943MOL0    Cl27214   1.416   2.373   3.244  0.0831  0.5910  0.3655
  943MOL0     C27215   1.352   1.435   3.377  0.7446 -0.5420  0.1610
  943MOL0     C27216   1.315   1.308   3.420 -0.5215 -0.3731  0.5443
  943MOL0     O27217   1.277   1.163   3.670 -0.0373 -0.2542 -0.6113
  943MOL0     C27218   1.163   0.846   3.564 -0.1066 -0.1770 -0.4394
  943MOL0     C27219   1.169   0.715   3.608  0.1789 -0.8401 -0.4155
  943MOL0     N27220   1.291  -0.009   3.864  0.3622  0.0934  0.0242
  943MOL0     N27221   1.195  -0.085   3.827  0.1212 -0.2539 -0.1866
  943MOL0     C27222   0.851   0.852   3.386  0.5121 -0.0729  0.2220
  943MOL0     C27223   0.869   0.922   3.263 -0.7270  0.4176 -0.2491
  943MOL0     C27224   0.818   1.124   2.865 -0.6999  0.4259 -0.0119
  943MOL0     C27225   0.723   1.043   2.788 -0.6291  0.0120  0.5150
  943MOL0     C27226   0.674   1.091   2.659  0.5273  0.1485 -0.1049
  943MOL0     C27227   0.742   1.206   2.609  0.0507  0.1598 -0.1021
  943MOL0     O27228   0.713   1.250   2.480  0.3831 -0.1513 -0.0698
  943MOL0     C27229   0.599   1.339   2.468  0.0312 -0.8664  0.1493
  943MOL0     C27230   0.627   1.426   2.346  0.1015  0.2141 -1.1687
  943MOL0     C27231   0.729   1.536   2.378 -0.4340  0.4130 -0.8545
  943MOL0     C27232   0.744   1.634   2.272  0.2236 -0.3713  0.3264
  943MOL0     C27233   0.817   1.582   2.154 -0.2992  0.3474  0.8496
  943MOL0     C27234   0.875   1.556   2.050 -0.3893 -0.4853 -0.2498
  943MOL0     C27235   0.842   1.274   2.682 -0.4637  0.9711 -0.3102
  943MOL0     C27236   0.872   1.234   2.809  0.4904  0.5018 -0.2443
  943MOL0     C27237   0.958   1.332   2.887  0.0783 -0.1448 -0.0016
  943MOL0     H27238   0.594   0.827   3.095 -1.1890  1.2987  0.0617
  943MOL0     H27239   0.527   0.760   3.334  0.9082 -0.5635  1.9991
  943MOL0     H27240   0.662   0.540   3.444  1.0281  1.3869 -1.0114
  943MOL0     H27241   0.838   0.585   3.439  1.0064  2.2900  0.6329
  943MOL0     H27242   0.668   0.534   3.699  1.2776 -1.4848  2.2623
  943MOL0     H27243   0.838   0.568   3.696 -0.2912  2.8892 -0.8093
  943MOL0     H27244   0.906   0.356   3.593  0.9080  0.6101  0.7082
  943MOL0     H27245   0.737   0.309   3.583 -3.8118  0.9232  3.7573
  943MOL0     H27246   0.874   0.393   3.848 -0.3223 -3.2088  3.6204
  943MOL0     H27247   0.726   0.315   3.838  0.0357  4.9877  1.5804
  943MOL0     H27248   0.985   0.190   3.726 -0.0091 -0.9371  0.8297
  943MOL0     H27249   0.941   0.181   3.897 -1.4538  0.3675  1.4998
  943MOL0     H27250   0.750   0.042   3.855 -1.2788 -0.6587 -1.1990
  943MOL0     H27251   0.741   0.070   3.682 -0.2280 -2.5570 -0.0223
  943MOL0     H27252   0.944  -0.093   3.666 -0.4587 -2.6408  0.0888
  943MOL0     H27253   0.801  -0.152   3.736 -0.4371  2.7748 -2.3737
  943MOL0     H27254   0.896  -0.098   3.979 -0.7311 -0.8054  0.1487
  943MOL0     H27255   0.963  -0.230   3.893  1.2880 -0.1586  1.0154
  943MOL0     H27256   1.068   0.079   4.088 -0.0369 -0.1042  1.0658
  943MOL0     H27257   1.377   0.133   4.119  0.1449  0.9441 -0.7132
  943MOL0     H27258   1.446   0.163   3.961 -0.6979 -1.8629 -0.5417
  943MOL0     H27259   1.245   0.327   4.115  0.0286  0.1658  0.1028
  943MOL0     H27260   1.413   0.369   4.086 -0.6017 -1.0828  2.9427
  943MOL0     H27261   1.206   0.326   3.850 -0.9983  1.6160  1.0027
  943MOL0     H27262   1.381   0.371   3.842  2.0768 -2.2195  2.4237
  943MOL0     H27263   1.338   0.578   3.939 -2.2073  1.5029  2.1048
  943MOL0     H27264   1.173   0.548   3.991  0.7215  0.0473  2.2416
  943MOL0     H27265   1.199   0.780   3.937 -1.2298 -2.7099  0.0510
  943MOL0     H27266   1.219   1.014   3.853  3.7401 -1.1493  0.6558
  943MOL0     H27267   0.979   1.329   3.391 -0.2535  0.1708  3.2592
  943MOL0     H27268   1.022   1.528   3.305 -1.7552 -0.3789  3.2313
  943MOL0     H27269   1.367   1.734   3.447  2.6923  1.7278  1.4025
  943MOL0     H27270   1.470   1.675   3.317 -1.3465 -0.8492 -3.0307
  943MOL0     H27271   1.262   1.884   3.260 -2.4571 -4.5078 -0.1071
  943MOL0     H27272   1.423   1.928   3.321  0.8190 -1.2478  0.5527
  943MOL0     H27273   1.486   1.777   3.095  1.0114 -1.2654  0.2976
  943MOL0     H27274   1.305   1.803   3.071 -0.5195  2.0202  0.5026
  943MOL0     H27275   1.480   1.973   2.959 -1.3962  0.3079 -1.6784
  943MOL0     H27276   1.475   2.045   3.124 -2.1368  0.2883  2.5068
  943MOL0     H27277   1.236   2.072   3.102  0.8500 -1.5484  0.2279
  943MOL0     H27278   1.233   2.017   2.937  2.0931  0.0670 -3.0584
  943MOL0     H27279   1.444   2.220   3.015 -1.3973  0.2777 -0.0219
  943MOL0     H27280   1.331   2.222   2.872 -2.5848  0.3137 -0.3577
  943MOL0     H27281   1.133   2.268   3.022  1.2828 -2.6200 -0.1055
  943MOL0     H27282   1.248   2.405   3.007  0.7526 -0.7212 -1.8260
  943MOL0     H27283   1.174   2.377   3.243  0.2340 -1.4553  1.1093
  943MOL0     H27284   1.218   2.220   3.252 -0.7428  0.6783  2.6492
  943MOL0     H27285   1.451   1.479   3.375  0.5449  0.0365  1.7085
  943MOL0     H27286   1.393   1.247   3.465  0.8015  0.5187 -0.4741
  943MOL0     H27287   1.172   0.861   3.456  0.6366 -0.5698 -0.4371
  943MOL0     H27288   1.176   0.635   3.535  2.4636 -1.3939  0.3453
  943MOL0     H27289   0.938   0.846   3.450  0.2072 -3.0457  0.5113
  943MOL0     H27290   0.961   0.973   3.237 -0.9860  1.1669  0.2816
  943MOL0     H27291   0.672   0.965   2.843  1.5624 -1.1117  1.0685
  943MOL0     H27292   0.584   1.051   2.614 -0.7293  2.1341  0.5155
  943MOL0     H27293   0.609   1.402   2.556 -0.3484  0.5470 -0.7890
  943MOL0     H27294   0.503   1.285   2.471 -0.8511  0.6547  0.2686
  943MOL0     H27295   0.539   1.483   2.315  0.5953  2.9294  1.9459
  943MOL0     H27296   0.655   1.361   2.262  0.9511  0.1696 -0.8616
  943MOL0     H27297   0.827   1.499   2.407 -1.5296 -0.1425  2.5631
  943MOL0     H27298   0.686   1.596   2.459  0.3574  0.1141 -0.1996
  943MOL0     H27299   0.649   1.663   2.226  0.8007  0.8148 -0.1519
  943MOL0     H27300   0.798   1.724   2.303 -0.0624  0.6983 -2.0451
  943MOL0     H27301   0.913   1.550   1.949  0.2126  3.0313 -0.3750
  943MOL0     H27302   0.880   1.368   2.644  0.3559  1.2636  1.1338
  943MOL0     H27303   0.899   1.380   2.966 -1.6544 -1.0003 -0.7237
  943MOL0     H27304   1.043   1.289   2.940 -1.4680 -1.4772  1.5156
  943MOL0     H27305   0.989   1.407   2.813  0.9330 -2.5790 -2.2630
  944MOL0     O27306   4.192  10.546   5.102 -0.2953 -0.1659 -0.0645
  944MOL0     C27307   4.262  10.643   5.115 -0.0518 -0.9678  0.5776
  944MOL0     O27308   4.223  10.776   5.104 -0.5538 -0.6392 -0.0055
  944MOL0     C27309   4.088  10.820   5.092 -0.1094  0.3270 -1.0539
  944MOL0     C27310   4.044  10.913   5.190  0.9268  0.1077 -0.1789
  944MOL0     C27311   3.909  10.956   5.196  0.1813  0.3677 -0.0849
  944MOL0     C27312   3.828  10.910   5.089  0.1085 -1.1848 -0.3390
  944MOL0     O27313   3.695  10.944   5.090  0.2226  0.4731 -0.0225
  944MOL0     C27314   3.646  11.073   5.116 -0.7748  0.0732 -0.4168
  944MOL0     C27315   3.498  11.063   5.138  0.6680  0.2107 -0.1467
  944MOL0     C27316   3.411  11.001   5.034 -0.0042 -0.3544  0.4021
  944MOL0     C27317   3.429  11.088   4.903 -0.0614  0.1038  0.0023
  944MOL0     C27318   3.340  11.036   4.797  0.7834  0.4407  0.2725
  944MOL0     C27319   3.333  11.117   4.671  0.2544 -0.2585  0.2302
  944MOL0     C27320   3.271  11.032   4.561  0.2611  0.2489 -0.1880
  944MOL0     C27321   3.261  11.116   4.438 -1.2217 -0.3672 -0.1122
  944MOL0     N27322   3.203  11.032   4.332  0.2492  0.0021  0.1112
  944MOL0     C27323   3.070  11.022   4.293 -0.6590 -0.4136  1.2539
  944MOL0     C27324   3.073  10.924   4.200  0.6054  1.2610 -0.8753
  944MOL0     C27325   2.947  10.862   4.123  0.0148 -0.3303  0.1052
  944MOL0     C27326   2.958  10.715   4.108  0.7012  0.2919 -0.2172
  944MOL0     C27327   2.827  10.651   4.068 -0.4632  0.8303 -0.8641
  944MOL0     C27328   2.841  10.498   4.065  0.0925 -0.4897 -0.4958
  944MOL0     O27329   2.720  10.437   3.994 -0.4618  0.3646 -0.8813
  944MOL0     C27330   2.726  10.299   3.982 -0.6899 -0.6675 -0.3958
  944MOL0     C27331   2.819  10.209   4.032  0.3201 -0.0159  1.0184
  944MOL0     C27332   2.801  10.067   4.014  1.5285  0.4138  0.6943
  944MOL0     C27333   2.689  10.021   3.946  0.1418  0.3767 -0.6272
  944MOL0     C27334   2.678   9.878   3.924  0.1794  0.0097  0.1366
  944MOL0     O27335   2.588   9.836   3.823 -0.1795  0.3164  0.0297
  944MOL0     C27336   2.523   9.720   3.829  0.2700  1.0152  0.2112
  944MOL0     C27337   2.415   9.707   3.744  0.1305  0.0946 -0.2835
  944MOL0     C27338   2.335   9.599   3.743 -0.7466 -0.1745  0.8114
  944MOL0     C27339   2.349   9.495   3.825 -0.1531  0.2290 -0.2590
  944MOL0     O27340   2.250   9.405   3.825  0.8535  0.0757  0.0334
  944MOL0     C27341   2.230   9.336   3.951 -1.0125 -0.3326  0.1581
  944MOL0     C27342   2.090   9.273   3.949 -0.2415 -0.3417 -0.4608
  944MOL0     C27343   2.075   9.183   4.075  0.8833 -0.6084  0.5480
  944MOL0     C27344   1.934   9.115   4.050  0.2899 -0.1136  0.3329
  944MOL0     C27345   1.805   9.172   4.096  0.2881 -0.0212 -1.1561
  944MOL0     C27346   1.685   9.098   4.023 -0.0576  0.6165 -0.8992
  944MOL0     C27347   1.554   9.151   4.073 -0.7409 -0.1160  0.3878
  944MOL0     C27348   1.425   9.100   4.004  1.1878 -0.6995  0.4805
  944MOL0    Cl27349   1.419   8.927   4.032 -0.1398 -0.1496  0.0723
  944MOL0     C27350   2.458   9.492   3.910  1.2248 -0.3004 -0.4511
  944MOL0     C27351   2.541   9.603   3.911 -0.4798  0.4485  0.5140
  944MOL0     O27352   2.743   9.807   4.003  0.4001  0.5545  0.3950
  944MOL0     C27353   2.593  10.114   3.890 -0.5920  0.0041 -0.3037
  944MOL0     C27354   2.614  10.250   3.915  0.6040  0.5477 -0.5736
  944MOL0     N27355   3.207  10.896   4.177  0.1120  0.0877  0.3276
  944MOL0     N27356   3.282  10.957   4.249 -0.3824 -0.6241  0.0346
  944MOL0     C27357   3.878  10.829   4.990 -0.0665 -0.1296  0.6983
  944MOL0     C27358   4.008  10.788   4.988 -0.2917 -1.1074 -0.1587
  944MOL0     C27359   4.400  10.597   5.112  0.2178 -0.5525 -0.6250
  944MOL0     C27360   4.490  10.681   5.039  0.1125 -0.0270  0.2823
  944MOL0     C27361   4.624  10.648   5.017  0.1683  1.0614 -0.1722
  944MOL0     C27362   4.676  10.530   5.077 -1.2023 -0.2531 -0.0725
  944MOL0     O27363   4.804  10.471   5.074  0.1584 -0.1176  0.6824
  944MOL0     C27364   4.885  10.527   4.969  0.1384 -0.4258 -0.8666
  944MOL0     C27365   5.006  10.441   4.953 -0.9518  0.7348  0.2129
  944MOL0     C27366   4.975  10.309   4.884 -0.0319 -1.0939 -0.1084
  944MOL0     C27367   5.092  10.286   4.789 -0.0756  0.3958  0.8019
  944MOL0     C27368   5.036  10.184   4.699  0.1430  0.1102 -0.4003
  944MOL0     C27369   4.969  10.103   4.641 -0.6488  0.5766  0.0867
  944MOL0     C27370   4.587  10.443   5.141  0.3735  0.5474  1.2030
  944MOL0     C27371   4.451  10.474   5.160  0.3441  0.5352  0.7916
  944MOL0     C27372   4.373  10.362   5.233  0.0325 -0.6123 -0.7369
  944MOL0     H27373   4.116  10.940   5.267  2.0445  1.4973 -1.6711
  944MOL0     H27374   3.896  11.010   5.289  0.4480 -0.3534  0.3810
  944MOL0     H27375   3.697  11.134   5.191  2.4929  0.2681 -2.5988
  944MOL0     H27376   3.675  11.132   5.030  3.5121 -0.7607  0.2133
  944MOL0     H27377   3.468  11.167   5.155  3.2937  0.8228  1.2299
  944MOL0     H27378   3.465  10.999   5.220  0.3190 -2.1517 -2.0408
  944MOL0     H27379   3.304  10.993   5.058  0.0484 -3.6612  0.0007
  944MOL0     H27380   3.444  10.898   5.023 -1.5768 -1.0283  1.6660
  944MOL0     H27381   3.400  11.189   4.931 -2.0870 -1.1438  3.0435
  944MOL0     H27382   3.530  11.089   4.862  0.1457 -0.1287  0.4953
  944MOL0     H27383   3.365  10.932   4.772  1.2460  0.6390 -0.1285
  944MOL0     H27384   3.242  11.034   4.844  2.6688  1.4978  4.7312
  944MOL0     H27385   3.275  11.209   4.683 -0.5644 -0.7201 -0.1255
  944MOL0     H27386   3.434  11.146   4.639  1.5310 -3.9288  0.4715
  944MOL0     H27387   3.175  11.005   4.605 -0.3097  0.9909 -0.9437
  944MOL0     H27388   3.341  10.948   4.558  1.0034  0.6046  3.3220
  944MOL0     H27389   3.200  11.207   4.440 -0.7560 -0.0652  0.2506
  944MOL0     H27390   3.362  11.147   4.410 -2.1351  1.1706 -1.9962
  944MOL0     H27391   2.988  11.077   4.339  2.6073  2.9708  3.5903
  944MOL0     H27392   2.863  10.889   4.188 -2.5600  0.6573 -3.3002
  944MOL0     H27393   2.915  10.903   4.027  3.4187  0.7013 -0.7316
  944MOL0     H27394   3.034  10.683   4.037 -1.7032  0.8541 -3.2745
  944MOL0     H27395   2.990  10.679   4.206  1.5066  1.6271  0.0404
  944MOL0     H27396   2.796  10.677   3.966  1.2497 -0.1226 -1.6746
  944MOL0     H27397   2.752  10.680   4.142  1.6250  4.0093  0.2281
  944MOL0     H27398   2.860  10.455   4.164 -0.7289 -1.2876 -0.6666
  944MOL0     H27399   2.941  10.481   4.024  0.1339  1.5313 -1.3278
  944MOL0     H27400   2.895  10.243   4.100  1.3852 -1.3135  0.5239
  944MOL0     H27401   2.871  10.008   4.073 -0.0164 -0.9325  1.2625
  944MOL0     H27402   2.388   9.784   3.673  0.4451 -0.9092 -1.5322
  944MOL0     H27403   2.256   9.604   3.668 -1.2394  0.1608  1.3503
  944MOL0     H27404   2.307   9.260   3.974  2.7613  4.0972  4.7510
  944MOL0     H27405   2.232   9.415   4.026 -1.3961  1.7306 -1.9266
  944MOL0     H27406   2.017   9.355   3.956 -1.4018 -1.2625  6.7902
  944MOL0     H27407   2.084   9.223   3.852  3.3099  2.1051 -2.1644
  944MOL0     H27408   2.148   9.102   4.082 -2.0481 -3.5326 -0.2170
  944MOL0     H27409   2.066   9.244   4.165 -1.5900  2.5732 -1.6195
  944MOL0     H27410   1.947   9.017   4.096  1.2695 -0.0227  0.2766
  944MOL0     H27411   1.921   9.093   3.944  0.3885 -0.6331  0.4277
  944MOL0     H27412   1.803   9.279   4.075  1.0956  0.6567  1.8140
  944MOL0     H27413   1.814   9.156   4.204  1.3432  0.9209 -1.0924
  944MOL0     H27414   1.694   9.102   3.914  0.9615 -2.9787 -1.0444
  944MOL0     H27415   1.697   8.993   4.048  1.6919  0.5369 -1.9159
  944MOL0     H27416   1.546   9.259   4.057 -0.8703 -0.2341 -0.3811
  944MOL0     H27417   1.550   9.130   4.180 -3.4127  2.2356  0.8718
  944MOL0     H27418   1.338   9.146   4.052  0.0216 -2.9974  0.7077
  944MOL0     H27419   1.437   9.120   3.897  2.1048 -1.9068  0.3329
  944MOL0     H27420   2.473   9.410   3.981  2.2192 -2.4744 -3.0068
  944MOL0     H27421   2.619   9.606   3.987  0.1262 -0.8522 -0.0385
  944MOL0     H27422   2.514  10.081   3.824 -1.1772 -1.0273  0.8594
  944MOL0     H27423   2.554  10.328   3.868 -0.6613  0.0527  0.1795
  944MOL0     H27424   3.814  10.809   4.905 -2.5654  0.9056  2.2125
  944MOL0     H27425   4.042  10.718   4.913 -0.5760 -0.7210 -0.6545
  944MOL0     H27426   4.460  10.768   4.982  1.6130 -0.9853 -2.0842
  944MOL0     H27427   4.673  10.720   4.953  2.2560 -0.8958 -0.8905
  944MOL0     H27428   4.922  10.627   4.995  1.5336 -0.8812 -1.0068
  944MOL0     H27429   4.832  10.527   4.874  2.4169 -0.9279 -2.2254
  944MOL0     H27430   5.043  10.429   5.056  1.7811  0.8773 -0.6725
  944MOL0     H27431   5.090  10.502   4.918 -2.0908  1.7665 -0.7943
  944MOL0     H27432   4.886  10.322   4.822  2.2191  1.3440 -3.2246
  944MOL0     H27433   4.959  10.227   4.954 -0.4409 -0.1791  0.8867
  944MOL0     H27434   5.132  10.366   4.726  0.9465 -1.8054 -1.5094
  944MOL0     H27435   5.182  10.252   4.840  0.6396  3.9698  2.2475
  944MOL0     H27436   4.906  10.027   4.600 -0.3007 -0.0444  0.6698
  944MOL0     H27437   4.619  10.343   5.170  2.8279  0.2202 -2.0844
  944MOL0     H27438   4.363  10.378   5.341 -5.0825 -1.2805 -0.8774
  944MOL0     H27439   4.268  10.367   5.206  0.2281 -0.6661 -1.5142
  944MOL0     H27440   4.409  10.263   5.206 -2.5052 -1.5287 -0.9495
  945MOL0     O27441   5.998   4.848   2.136  0.4005 -0.5420  0.2422
  945MOL0     C27442   5.949   4.865   2.020  0.3838  0.4923  0.3703
  945MOL0     O27443   5.851   4.948   1.988 -1.4934  0.1435  0.0246
  945MOL0     C27444   5.775   5.023   2.071  0.4088  0.1422  0.9375
  945MOL0     C27445   5.769   5.160   2.050 -0.1295 -0.1574 -0.0759
  945MOL0     C27446   5.697   5.247   2.136  0.0315 -0.1789 -0.0302
  945MOL0     C27447   5.630   5.193   2.242  1.0388 -0.4152  0.4402
  945MOL0     O27448   5.564   5.266   2.339 -0.3210 -0.0630  0.2427
  945MOL0     C27449   5.661   5.312   2.436 -0.0054 -0.6255 -0.1272
  945MOL0     C27450   5.592   5.429   2.503 -0.1299 -0.1599 -0.4152
  945MOL0     C27451   5.496   5.380   2.606 -1.1290  0.3346  0.6056
  945MOL0     C27452   5.415   5.505   2.662 -1.1380  0.6352 -0.2009
  945MOL0     C27453   5.263   5.491   2.695 -0.4521  0.4880 -0.9211
  945MOL0     C27454   5.235   5.397   2.817 -0.2472 -0.3373  1.1941
  945MOL0     C27455   5.083   5.387   2.839 -0.2177  0.4036 -0.1262
  945MOL0     C27456   5.047   5.342   2.978 -0.1633 -0.1331  0.3575
  945MOL0     N27457   5.071   5.451   3.076  0.6452  0.0606 -0.1297
  945MOL0     C27458   5.179   5.457   3.153  0.1588  0.4016 -0.6472
  945MOL0     C27459   5.154   5.559   3.239  0.0971  0.1562 -0.2648
  945MOL0     C27460   5.245   5.586   3.361  0.6776  1.1926 -0.6989
  945MOL0     C27461   5.267   5.731   3.400  0.3755 -0.1690 -0.2946
  945MOL0     C27462   5.417   5.750   3.459 -0.1191  0.2072 -0.5593
  945MOL0     C27463   5.431   5.873   3.562  0.3765 -0.1603  0.5180
  945MOL0     O27464   5.389   5.859   3.699  0.2849 -0.5840  0.0321
  945MOL0     C27465   5.258   5.902   3.727 -0.5868  0.0584  1.0943
  945MOL0     C27466   5.213   5.875   3.847  0.0631  0.0145 -0.1531
  945MOL0     C27467   5.076   5.894   3.880 -0.1150  0.5075 -0.4425
  945MOL0     C27468   4.992   5.960   3.793 -0.6076  0.3249 -1.4502
  945MOL0     C27469   4.851   5.988   3.845  0.3600 -0.1158  0.4322
  945MOL0     O27470   4.754   5.958   3.752 -0.0675 -0.9067  0.2185
  945MOL0     C27471   4.625   5.980   3.774 -0.0649 -0.1247 -0.5920
  945MOL0     C27472   4.529   5.882   3.769  0.3983  0.7565  0.4597
  945MOL0     C27473   4.392   5.917   3.797 -0.8782  0.5145  0.6484
  945MOL0     C27474   4.353   6.048   3.825 -0.2158 -0.5106  0.1876
  945MOL0     O27475   4.223   6.081   3.859  0.4454 -0.0125 -0.5823
  945MOL0     C27476   4.179   6.011   3.978  0.4701  0.8933  0.1605
  945MOL0     C27477   4.066   6.091   4.033  0.1642 -0.1694 -0.0486
  945MOL0     C27478   4.035   6.035   4.171 -0.4978  0.0456 -1.0725
  945MOL0     C27479   4.009   6.140   4.282  0.3575 -0.1697 -0.2109
  945MOL0     C27480   3.999   6.085   4.424  0.1418  0.9529 -0.6839
  945MOL0     C27481   3.871   6.021   4.466  0.6809  1.0661 -0.1644
  945MOL0     C27482   3.773   6.131   4.501  0.8796  0.0481 -0.2221
  945MOL0     C27483   3.646   6.057   4.555 -0.8173 -0.7827 -0.3653
  945MOL0    Cl27484   3.575   5.936   4.442 -0.1673  0.2545  0.3125
  945MOL0     C27485   4.449   6.150   3.813  0.0288  0.0793  0.1018
  945MOL0     C27486   4.582   6.109   3.795 -0.0929  0.4081  0.0881
  945MOL0     O27487   4.838   6.017   3.961  0.3792 -0.4305 -0.1882
  945MOL0     C27488   5.035   5.995   3.666 -0.2176  0.0650 -0.2485
  945MOL0     C27489   5.165   5.956   3.625 -0.9944  0.6325 -0.9959
  945MOL0     N27490   5.031   5.613   3.201  0.1344 -0.5662 -0.0111
  945MOL0     N27491   4.984   5.546   3.107  0.0603  0.1217 -0.1544
  945MOL0     C27492   5.626   5.055   2.258  0.6379 -1.0444 -0.3831
  945MOL0     C27493   5.695   4.968   2.175  0.1352  0.1327 -0.3629
  945MOL0     C27494   5.999   4.779   1.906 -0.6525  0.3837 -0.4838
  945MOL0     C27495   5.911   4.740   1.805 -0.1563 -0.0641 -1.1101
  945MOL0     C27496   5.949   4.652   1.703  0.1406 -0.0647  0.0079
  945MOL0     C27497   6.082   4.622   1.693 -0.2415 -0.9118  0.8065
  945MOL0     O27498   6.129   4.546   1.587  0.7556 -0.0260 -0.2954
  945MOL0     C27499   6.034   4.445   1.546  1.1798 -0.3791 -0.0223
  945MOL0     C27500   6.101   4.320   1.482  0.2456  0.0914  0.3863
  945MOL0     C27501   6.213   4.362   1.382 -1.3565 -0.8592  0.2345
  945MOL0     C27502   6.271   4.232   1.316  0.5753 -1.1399  0.6766
  945MOL0     C27503   6.338   4.256   1.185  0.4123 -0.7294  0.6151
  945MOL0     C27504   6.401   4.280   1.080 -0.0397 -0.3318  0.0169
  945MOL0     C27505   6.172   4.671   1.791 -0.1205 -0.0077  0.3385
  945MOL0     C27506   6.132   4.744   1.897 -0.3766 -0.0418  0.6499
  945MOL0     C27507   6.239   4.785   1.993 -0.3982  0.7669  0.5560
  945MOL0     H27508   5.822   5.202   1.965 -2.4329 -0.1195 -1.5790
  945MOL0     H27509   5.702   5.347   2.094 -0.5818 -1.2033 -2.7321
  945MOL0     H27510   5.674   5.232   2.510 -1.6446 -2.5206 -1.7719
  945MOL0     H27511   5.758   5.332   2.389  0.9485 -3.5871  0.3565
  945MOL0     H27512   5.538   5.483   2.425  2.9287 -0.0902 -2.6731
  945MOL0     H27513   5.659   5.496   2.558  0.0597 -1.5847  1.1545
  945MOL0     H27514   5.550   5.331   2.688  1.3387  2.5102  0.4071
  945MOL0     H27515   5.427   5.305   2.566 -1.0977 -0.1773  1.4838
  945MOL0     H27516   5.476   5.548   2.743  2.3579  0.8681 -2.7345
  945MOL0     H27517   5.411   5.590   2.593 -1.0545  0.1982 -0.7520
  945MOL0     H27518   5.232   5.587   2.738 -2.7288 -1.0982  1.2553
  945MOL0     H27519   5.211   5.465   2.603  0.2656  0.6917 -1.3915
  945MOL0     H27520   5.274   5.301   2.783 -2.4067 -0.7438 -0.3714
  945MOL0     H27521   5.276   5.438   2.910  0.0924  2.9420 -0.2625
  945MOL0     H27522   5.048   5.315   2.764 -1.9969  0.4214  0.6355
  945MOL0     H27523   5.029   5.479   2.816 -0.8348  0.0736 -0.0295
  945MOL0     H27524   4.943   5.309   2.986  0.2813 -1.8724 -0.5993
  945MOL0     H27525   5.102   5.251   3.004 -0.8116 -1.2119 -1.8273
  945MOL0     H27526   5.274   5.404   3.164 -0.5961 -0.9347 -0.2897
  945MOL0     H27527   5.214   5.524   3.446  1.9346  0.5033 -0.7258
  945MOL0     H27528   5.343   5.552   3.327  0.0380 -1.0299 -0.4483
  945MOL0     H27529   5.247   5.799   3.317  0.2918 -0.8842 -0.8726
  945MOL0     H27530   5.192   5.761   3.474 -0.5109 -1.7489 -0.4957
  945MOL0     H27531   5.495   5.773   3.386  0.5213  1.0541  0.3690
  945MOL0     H27532   5.451   5.660   3.511 -1.6852  0.2712  0.6416
  945MOL0     H27533   5.383   5.954   3.507 -0.6965  0.5034  2.3610
  945MOL0     H27534   5.538   5.895   3.573  0.3749  0.3525 -0.3832
  945MOL0     H27535   5.294   5.847   3.914  1.0808 -0.3735 -1.5193
  945MOL0     H27536   5.048   5.882   3.984  0.9378 -3.6235 -0.4631
  945MOL0     H27537   4.556   5.782   3.734 -0.5143  1.6176 -3.1347
  945MOL0     H27538   4.314   5.842   3.786  0.7120 -1.0334 -0.6469
  945MOL0     H27539   4.153   5.907   3.955  2.4098 -0.2576  2.6797
  945MOL0     H27540   4.252   6.015   4.059 -0.7321  2.7046  1.2139
  945MOL0     H27541   4.111   6.190   4.048  1.3550 -1.0730  3.5325
  945MOL0     H27542   3.978   6.094   3.969 -0.2317 -1.4605  0.3993
  945MOL0     H27543   3.937   5.989   4.157 -0.7756  0.2158  0.2316
  945MOL0     H27544   4.102   5.961   4.216 -2.2472  0.0839  1.8458
  945MOL0     H27545   3.914   6.191   4.263 -0.5186 -0.7614  2.1530
  945MOL0     H27546   4.091   6.212   4.288 -1.0910  1.7521 -1.8837
  945MOL0     H27547   4.024   6.169   4.490  0.0256  2.2484 -2.2397
  945MOL0     H27548   4.081   6.016   4.446 -0.1456  0.5006 -1.0050
  945MOL0     H27549   3.825   5.955   4.392 -1.6415  2.6849 -0.2807
  945MOL0     H27550   3.899   5.963   4.555 -1.0192  1.1233  0.4462
  945MOL0     H27551   3.749   6.191   4.413  2.5477 -1.1676 -1.5795
  945MOL0     H27552   3.812   6.207   4.569  0.2996  0.5144 -0.3965
  945MOL0     H27553   3.674   6.003   4.646 -0.4620 -1.8947 -1.1131
  945MOL0     H27554   3.570   6.132   4.580  2.6873  2.6206  1.0600
  945MOL0     H27555   4.424   6.253   3.834  0.2832  0.0697  0.4677
  945MOL0     H27556   4.652   6.192   3.800 -0.1291  0.4081  0.6340
  945MOL0     H27557   4.980   6.058   3.597  0.6966  1.1297 -0.0423
  945MOL0     H27558   5.190   5.978   3.522  0.1146 -4.2897 -2.0268
  945MOL0     H27559   5.562   5.017   2.337  1.3249  1.7412  1.6838
  945MOL0     H27560   5.678   4.862   2.189 -1.2727  0.4765  0.7237
  945MOL0     H27561   5.809   4.774   1.817 -0.0265  1.4913 -3.7038
  945MOL0     H27562   5.861   4.623   1.646 -1.6879 -0.4429  2.8249
  945MOL0     H27563   5.953   4.478   1.481  0.6100 -0.0419  0.8359
  945MOL0     H27564   5.977   4.409   1.632 -3.1199  1.1434 -1.9554
  945MOL0     H27565   6.018   4.270   1.431 -0.1084  0.2236  0.8224
  945MOL0     H27566   6.151   4.269   1.565 -0.9378 -0.4566  0.7847
  945MOL0     H27567   6.299   4.421   1.416 -1.1226 -0.4535 -1.0088
  945MOL0     H27568   6.170   4.429   1.308  0.2421  1.7962  1.5608
  945MOL0     H27569   6.342   4.190   1.389  1.4057 -0.4553  0.2866
  945MOL0     H27570   6.184   4.172   1.290 -2.0862  2.5071  0.3734
  945MOL0     H27571   6.460   4.309   0.995  0.9996  1.2190  1.2084
  945MOL0     H27572   6.272   4.628   1.786 -0.6748 -1.6740  2.1257
  945MOL0     H27573   6.328   4.760   1.935 -3.2808 -1.5104 -3.3689
  945MOL0     H27574   6.242   4.893   2.009  5.4331  0.8294  1.1882
  945MOL0     H27575   6.240   4.728   2.087  0.9908 -0.7558 -0.3476
  946MOL0     O27576  11.464   2.030   3.243 -0.1068 -0.4476 -0.5431
  946MOL0     C27577  11.484   2.153   3.263  0.3377 -0.3796 -0.5137
  946MOL0     O27578  11.520   2.203   3.389 -0.0532 -0.6002  0.4567
  946MOL0     C27579  11.533   2.117   3.496 -0.5062  0.2693  0.7417
  946MOL0     C27580  11.460   2.143   3.609  0.6397 -0.8232 -0.8042
  946MOL0     C27581  11.461   2.056   3.718 -0.4904 -0.5282 -0.4508
  946MOL0     C27582  11.544   1.939   3.715 -0.0834  0.8210  0.4911
  946MOL0     O27583  11.519   1.872   3.836 -0.8793  0.5726  0.5157
  946MOL0     C27584  11.610   1.765   3.862  0.9138 -0.2659 -0.6661
  946MOL0     C27585  11.544   1.697   3.977 -0.0412 -0.1453  0.5141
  946MOL0     C27586  11.614   1.576   4.020  0.1935 -0.2765  0.9487
  946MOL0     C27587  11.555   1.517   4.150  0.0770 -0.0192 -0.0484
  946MOL0     C27588  11.628   1.384   4.196  0.1565 -0.6807  0.4434
  946MOL0     C27589  11.560   1.301   4.304  0.9634  0.1601 -0.3435
  946MOL0     C27590  11.611   1.162   4.310  1.5938  0.5625 -0.0357
  946MOL0     C27591  11.504   1.052   4.311  0.0438  0.7232 -0.2195
  946MOL0     N27592  11.441   1.036   4.442 -0.0418 -0.2346  0.8210
  946MOL0     C27593  11.335   1.114   4.483  0.0804 -0.0123 -0.2988
  946MOL0     C27594  11.308   1.069   4.610  1.1795 -0.8628 -0.3337
  946MOL0     C27595  11.197   1.127   4.689 -0.4797 -0.3002 -0.0028
  946MOL0     C27596  11.238   1.152   4.837  0.3232  0.5224 -0.1780
  946MOL0     C27597  11.352   1.254   4.861  0.0054 -0.9779  0.2087
  946MOL0     C27598  11.327   1.407   4.828 -0.0387  0.3191  0.2214
  946MOL0     O27599  11.200   1.454   4.875  0.1719 -0.9246 -0.0913
  946MOL0     C27600  11.128   1.534   4.789 -0.2650  0.2035  0.5658
  946MOL0     C27601  11.018   1.490   4.716  0.1698  0.7043 -0.4433
  946MOL0     C27602  10.945   1.566   4.629  0.2971 -0.5193 -0.1270
  946MOL0     C27603  11.003   1.690   4.600 -0.0643 -0.4464  0.7512
  946MOL0     C27604  10.956   1.769   4.478  0.4520 -0.0330 -0.3758
  946MOL0     O27605  10.845   1.723   4.414 -0.9710  0.5152 -0.0192
  946MOL0     C27606  10.810   1.765   4.289 -1.5630 -0.8879 -0.8702
  946MOL0     C27607  10.838   1.883   4.220 -0.2445  0.8787 -0.2131
  946MOL0     C27608  10.804   1.910   4.090  0.2247 -0.0425  0.3806
  946MOL0     C27609  10.725   1.813   4.026  0.1265  0.4042 -0.7364
  946MOL0     O27610  10.688   1.822   3.898  0.2980  0.1237  0.4382
  946MOL0     C27611  10.756   1.896   3.798 -0.8659  0.4425 -0.2704
  946MOL0     C27612  10.691   1.923   3.666 -0.4355  0.4984 -0.3950
  946MOL0     C27613  10.662   1.798   3.581 -0.7185 -0.1464 -0.1303
  946MOL0     C27614  10.567   1.830   3.475  1.0158 -0.2816 -0.0863
  946MOL0     C27615  10.535   1.714   3.374 -0.1000 -0.1666  0.0099
  946MOL0     C27616  10.661   1.672   3.306  0.9575 -0.3046  0.2583
  946MOL0     C27617  10.642   1.562   3.202  0.2485  0.0290 -0.1936
  946MOL0     C27618  10.566   1.594   3.065 -0.3072  0.5997  0.4704
  946MOL0    Cl27619  10.540   1.440   2.972  0.1974  0.0708 -0.2196
  946MOL0     C27620  10.671   1.708   4.095  0.7129  0.7380 -0.7780
  946MOL0     C27621  10.718   1.686   4.224  0.8311  0.3576 -0.5742
  946MOL0     O27622  11.032   1.853   4.433  0.3230  0.4568 -1.0137
  946MOL0     C27623  11.103   1.747   4.684 -0.8535  1.1071  0.1477
  946MOL0     C27624  11.167   1.663   4.778 -0.3566  0.4726  0.3957
  946MOL0     N27625  11.386   0.969   4.643  0.0606  0.7877 -0.0864
  946MOL0     N27626  11.468   0.955   4.542 -0.7070  0.2397 -1.2286
  946MOL0     C27627  11.630   1.916   3.606 -0.1367 -0.7600  0.2690
  946MOL0     C27628  11.624   2.008   3.498  0.8207  1.1667  0.0458
  946MOL0     C27629  11.465   2.251   3.156  0.2953 -1.0939  0.2079
  946MOL0     C27630  11.560   2.358   3.156 -0.4666 -0.3148 -0.1560
  946MOL0     C27631  11.562   2.466   3.067 -0.0085 -0.6913  0.0851
  946MOL0     C27632  11.460   2.473   2.975 -0.5147  0.1427 -0.0731
  946MOL0     O27633  11.464   2.575   2.892  0.0998  0.4854 -0.1262
  946MOL0     C27634  11.383   2.580   2.776  0.1719  0.2999  0.1254
  946MOL0     C27635  11.337   2.725   2.739 -0.8704 -0.6782 -0.5632
  946MOL0     C27636  11.248   2.748   2.612 -0.1067  0.1454 -0.2304
  946MOL0     C27637  11.192   2.884   2.604 -0.4457 -0.6301  0.0776
  946MOL0     C27638  11.292   2.986   2.565  0.6077 -0.9688  0.1984
  946MOL0     C27639  11.348   3.086   2.521  0.7871 -0.6531  0.0556
  946MOL0     C27640  11.369   2.359   2.970  0.9360  0.3296 -0.9291
  946MOL0     C27641  11.370   2.247   3.053 -0.4001 -0.4333  0.0272
  946MOL0     C27642  11.274   2.133   3.036  0.0915 -0.0730 -0.2994
  946MOL0     H27643  11.393   2.228   3.609 -1.7871 -2.6387 -0.0945
  946MOL0     H27644  11.400   2.079   3.805  1.2631 -2.9371  1.5588
  946MOL0     H27645  11.613   1.688   3.783  0.4885 -2.9368  1.7519
  946MOL0     H27646  11.711   1.793   3.892  1.6692 -3.4107  0.0757
  946MOL0     H27647  11.440   1.680   3.949 -0.3736  0.1284  1.5464
  946MOL0     H27648  11.533   1.763   4.064 -2.0414 -1.7763  1.5811
  946MOL0     H27649  11.723   1.588   4.024  0.1138  0.8926  0.2787
  946MOL0     H27650  11.598   1.502   3.941  0.0705  0.9287 -0.2105
  946MOL0     H27651  11.561   1.589   4.232  0.1849 -1.5772  1.3460
  946MOL0     H27652  11.451   1.501   4.122  0.6023 -0.3569 -2.0236
  946MOL0     H27653  11.633   1.323   4.105  1.2208 -1.0449  0.7317
  946MOL0     H27654  11.730   1.404   4.228  0.9388 -0.9143 -1.7310
  946MOL0     H27655  11.575   1.339   4.406 -1.3703 -2.0297  0.9534
  946MOL0     H27656  11.453   1.310   4.283  0.9528  1.5261  0.1587
  946MOL0     H27657  11.672   1.157   4.400 -0.9460  2.5247  1.9346
  946MOL0     H27658  11.678   1.133   4.228  2.9275  0.0246  1.1990
  946MOL0     H27659  11.422   1.074   4.243 -0.5145 -2.4812 -0.7353
  946MOL0     H27660  11.545   0.954   4.285 -0.7304  1.2785 -3.9923
  946MOL0     H27661  11.278   1.195   4.438 -0.1601 -0.1643 -0.2717
  946MOL0     H27662  11.165   1.224   4.650  2.2642  0.9357  0.5225
  946MOL0     H27663  11.113   1.058   4.694 -0.5725 -0.2862 -1.1096
  946MOL0     H27664  11.154   1.179   4.902 -0.0619 -2.1333  0.5534
  946MOL0     H27665  11.261   1.054   4.881 -4.7979  0.0979  2.3540
  946MOL0     H27666  11.435   1.219   4.799  0.5614 -1.9616  1.4716
  946MOL0     H27667  11.369   1.244   4.968  1.6179 -4.3398 -0.2206
  946MOL0     H27668  11.326   1.404   4.719 -0.7164 -1.7442  0.2345
  946MOL0     H27669  11.413   1.468   4.855  0.3662 -1.0464  2.3105
  946MOL0     H27670  10.981   1.389   4.731 -1.6473  1.2015 -1.3642
  946MOL0     H27671  10.877   1.520   4.559  0.4706 -1.5140  0.3439
  946MOL0     H27672  10.894   1.957   4.277  2.4888 -1.2951  0.1352
  946MOL0     H27673  10.840   2.005   4.051  0.9463  0.0435  1.2261
  946MOL0     H27674  10.781   1.994   3.839  2.3834 -0.1719 -0.5448
  946MOL0     H27675  10.855   1.851   3.795 -0.7691  0.5227  1.1178
  946MOL0     H27676  10.594   1.972   3.673 -2.9221 -3.1294 -4.6312
  946MOL0     H27677  10.758   1.989   3.609 -0.1960  0.7405  0.1553
  946MOL0     H27678  10.760   1.778   3.538 -0.6121 -0.5851  0.3097
  946MOL0     H27679  10.639   1.711   3.643 -0.1122  0.5387  1.0889
  946MOL0     H27680  10.616   1.910   3.419  2.1205  1.2975  2.9085
  946MOL0     H27681  10.468   1.855   3.514  0.7537 -0.7289 -0.4483
  946MOL0     H27682  10.450   1.733   3.307 -0.0361 -0.0480 -0.0367
  946MOL0     H27683  10.503   1.630   3.436  2.8543 -1.8993 -0.6410
  946MOL0     H27684  10.711   1.760   3.264  1.2761  0.6391  2.4728
  946MOL0     H27685  10.728   1.629   3.381  0.4109  3.2345  3.0108
  946MOL0     H27686  10.605   1.471   3.249  2.5049 -0.2967  1.0754
  946MOL0     H27687  10.746   1.537   3.183  0.1025  1.4550 -3.7347
  946MOL0     H27688  10.472   1.646   3.082 -0.5389  1.1524 -2.1494
  946MOL0     H27689  10.630   1.655   3.000 -1.0889 -1.5610 -2.5291
  946MOL0     H27690  10.599   1.634   4.061  0.5659 -2.0583  4.4866
  946MOL0     H27691  10.679   1.600   4.277  3.0348 -1.3811 -1.5968
  946MOL0     H27692  11.135   1.850   4.679 -0.5919  0.9905 -0.7944
  946MOL0     H27693  11.241   1.699   4.849 -0.2033  2.3063 -0.6365
  946MOL0     H27694  11.682   1.821   3.597 -1.4045 -1.6236  1.5414
  946MOL0     H27695  11.677   1.979   3.408  1.6979 -1.6987  1.3597
  946MOL0     H27696  11.633   2.351   3.236 -2.0299  0.6242  1.4413
  946MOL0     H27697  11.641   2.541   3.059  1.3337 -1.9961  0.8065
  946MOL0     H27698  11.288   2.526   2.784  1.4742 -2.1605 -0.1132
  946MOL0     H27699  11.436   2.539   2.690  1.8067  2.6649 -0.0842
  946MOL0     H27700  11.426   2.788   2.736 -0.1276 -1.5899  0.9174
  946MOL0     H27701  11.289   2.761   2.831  2.5002  1.3831  0.5647
  946MOL0     H27702  11.166   2.676   2.613  0.6186 -0.8032 -2.7663
  946MOL0     H27703  11.302   2.734   2.518 -1.5840  3.7573 -1.7572
  946MOL0     H27704  11.111   2.878   2.531 -0.9806 -3.0156  0.7537
  946MOL0     H27705  11.144   2.916   2.697 -0.3438  1.7190 -0.6326
  946MOL0     H27706  11.386   3.178   2.482  0.5791 -1.2083 -1.5039
  946MOL0     H27707  11.297   2.348   2.890  0.2002 -0.4363 -0.1967
  946MOL0     H27708  11.321   2.036   3.021 -1.9554 -1.3176  0.9212
  946MOL0     H27709  11.217   2.109   3.126  0.1475 -1.1527 -0.5411
  946MOL0     H27710  11.210   2.154   2.949  1.4157  0.7193 -1.1342
  947MOL0     O27711   2.634   8.193   3.723 -0.1542 -0.2744  0.5315
  947MOL0     C27712   2.630   8.264   3.828  0.6053 -0.2433 -0.1031
  947MOL0     O27713   2.525   8.258   3.911 -0.3384 -0.1225  0.3478
  947MOL0     C27714   2.432   8.157   3.910  0.6556 -0.3166  0.3736
  947MOL0     C27715   2.435   8.079   4.023 -0.3394  0.6482  0.5556
  947MOL0     C27716   2.360   7.968   4.037  0.4762 -0.0440  0.2758
  947MOL0     C27717   2.262   7.948   3.953  0.0220 -1.2009  0.0967
  947MOL0     O27718   2.168   7.850   3.971  0.5771  0.3056 -0.1368
  947MOL0     C27719   2.187   7.735   4.064  0.0202  0.2688 -0.2602
  947MOL0     C27720   2.102   7.742   4.185 -0.1042 -0.2416  0.6360
  947MOL0     C27721   2.126   7.869   4.267  0.1532 -0.2465 -0.7929
  947MOL0     C27722   2.043   7.857   4.398  0.3264 -0.2507 -0.0791
  947MOL0     C27723   1.887   7.893   4.385 -0.4519  0.3500  0.4141
  947MOL0     C27724   1.855   8.025   4.318  0.0584  0.5661  0.2687
  947MOL0     C27725   1.904   8.156   4.392 -0.8014 -0.0973  0.6513
  947MOL0     C27726   1.843   8.179   4.524  0.0272 -0.0332 -0.1207
  947MOL0     N27727   1.910   8.292   4.600 -0.8696 -0.1075 -0.1261
  947MOL0     C27728   1.859   8.337   4.713 -0.2377  0.0565  0.1292
  947MOL0     C27729   1.931   8.449   4.737  1.0797 -0.4821  0.6719
  947MOL0     C27730   1.901   8.554   4.848  0.8435 -0.7041  0.5147
  947MOL0     C27731   1.846   8.685   4.791 -0.2173  0.8806 -0.7589
  947MOL0     C27732   1.826   8.792   4.910  0.2544 -0.2267  0.6705
  947MOL0     C27733   1.934   8.801   5.016 -0.0870  0.1432 -0.0223
  947MOL0     O27734   1.931   8.917   5.094  0.3903 -0.2742  1.2119
  947MOL0     C27735   2.023   9.014   5.071 -0.8766 -0.0588 -0.0190
  947MOL0     C27736   2.067   9.047   4.940 -0.5008 -0.0128 -0.0524
  947MOL0     C27737   2.173   9.133   4.930 -0.8875 -0.5827 -0.2468
  947MOL0     C27738   2.231   9.198   5.036 -1.1184 -0.6790 -0.0597
  947MOL0     C27739   2.330   9.312   5.009 -0.4440 -0.1842  0.4762
  947MOL0     O27740   2.380   9.380   5.117 -0.4719 -0.5765  0.0510
  947MOL0     C27741   2.450   9.497   5.094 -0.0425  0.6044  0.8054
  947MOL0     C27742   2.385   9.615   5.125  0.9346 -0.3187 -0.2671
  947MOL0     C27743   2.437   9.744   5.088 -0.3272 -0.3382  0.5172
  947MOL0     C27744   2.556   9.748   5.012 -0.0663  0.0228  0.4378
  947MOL0     O27745   2.623   9.865   4.976 -0.1234 -0.3134 -0.3263
  947MOL0     C27746   2.536   9.961   4.908 -0.1023  0.1847 -0.3611
  947MOL0     C27747   2.615  10.089   4.866  1.1523 -0.4194 -0.1477
  947MOL0     C27748   2.727  10.131   4.956  0.3833 -0.2486  0.9480
  947MOL0     C27749   2.779  10.269   4.920 -0.1383 -0.6524  0.1636
  947MOL0     C27750   2.889  10.306   5.021 -0.0921  0.4999  0.6553
  947MOL0     C27751   2.973  10.430   4.980  0.3755  0.5820  0.3101
  947MOL0     C27752   3.104  10.444   5.053 -0.1909 -0.2638 -0.8769
  947MOL0     C27753   3.160  10.590   5.040 -0.1440  0.6450  0.4068
  947MOL0    Cl27754   3.176  10.626   4.865  0.3075 -0.1164  0.3848
  947MOL0     C27755   2.625   9.632   4.975 -0.1260 -0.1273 -0.6224
  947MOL0     C27756   2.571   9.505   5.022  0.1652  0.1365  0.1657
  947MOL0     O27757   2.347   9.346   4.890 -0.1215  0.6972  0.3267
  947MOL0     C27758   2.184   9.167   5.162  0.4188 -0.5128 -0.1050
  947MOL0     C27759   2.083   9.076   5.181 -0.2168  0.0936 -0.4288
  947MOL0     N27760   2.022   8.466   4.641 -0.5189 -0.1369 -0.6737
  947MOL0     N27761   2.004   8.382   4.549  0.1095 -1.1023  0.1246
  947MOL0     C27762   2.248   8.025   3.837  0.0461  0.4551  0.3230
  947MOL0     C27763   2.325   8.137   3.812 -1.0328 -0.6714 -1.0149
  947MOL0     C27764   2.725   8.383   3.841  0.0326  0.5796  0.5061
  947MOL0     C27765   2.810   8.420   3.736 -0.0344  0.7503  0.2210
  947MOL0     C27766   2.885   8.533   3.747 -0.5433  0.1400  0.4905
  947MOL0     C27767   2.905   8.600   3.865 -0.7890 -0.4467  0.1115
  947MOL0     O27768   3.003   8.690   3.853 -0.3937  0.3111 -0.0115
  947MOL0     C27769   3.043   8.765   3.969  0.9874 -0.8061  0.4208
  947MOL0     C27770   3.147   8.872   3.928 -0.5429 -0.7302 -0.9282
  947MOL0     C27771   3.109   8.980   3.819  0.4158  0.1840  0.2831
  947MOL0     C27772   3.231   9.048   3.762  0.5581  0.4929 -0.1274
  947MOL0     C27773   3.336   8.955   3.712 -0.3928 -0.2364 -0.0466
  947MOL0     C27774   3.425   8.893   3.672 -0.0960  1.2452 -0.6022
  947MOL0     C27775   2.823   8.580   3.971  0.2554 -0.2509 -0.2674
  947MOL0     C27776   2.734   8.470   3.959 -0.6824  0.1958  0.1398
  947MOL0     C27777   2.663   8.425   4.094 -0.0005 -0.1933 -0.6948
  947MOL0     H27778   2.510   8.107   4.096  0.8777 -2.0471  0.4383
  947MOL0     H27779   2.375   7.904   4.123 -3.6296 -0.8876  0.5413
  947MOL0     H27780   2.155   7.646   4.010 -1.5984  0.1771  0.7629
  947MOL0     H27781   2.291   7.724   4.095 -0.1096 -0.2527  0.0032
  947MOL0     H27782   2.120   7.652   4.245 -0.5034 -2.0069 -1.7286
  947MOL0     H27783   1.998   7.725   4.156  0.3431 -2.0992 -0.0543
  947MOL0     H27784   2.095   7.960   4.216 -1.7818 -0.4161 -0.0155
  947MOL0     H27785   2.234   7.873   4.283  0.2535  0.3222 -1.5339
  947MOL0     H27786   2.061   7.758   4.441  0.6165 -0.3307 -0.3847
  947MOL0     H27787   2.078   7.929   4.472 -0.3597 -0.3587  0.3548
  947MOL0     H27788   1.834   7.818   4.325  0.4303  0.5348 -0.6381
  947MOL0     H27789   1.840   7.880   4.483 -0.2115  0.6766  0.5713
  947MOL0     H27790   1.891   8.023   4.215 -3.5458  4.7893 -1.4428
  947MOL0     H27791   1.746   8.030   4.309  0.0083 -0.0569  0.4765
  947MOL0     H27792   1.881   8.246   4.334 -0.0611  0.4813  1.2307
  947MOL0     H27793   2.013   8.150   4.403 -0.9969 -1.7317  2.0669
  947MOL0     H27794   1.738   8.208   4.516  1.3289  5.5902 -1.4284
  947MOL0     H27795   1.859   8.089   4.585  3.3231  0.1373 -0.5556
  947MOL0     H27796   1.770   8.309   4.768 -0.5195  1.1284  0.2309
  947MOL0     H27797   1.822   8.506   4.907 -0.4670 -0.4713 -0.9910
  947MOL0     H27798   1.990   8.564   4.912 -0.5079  0.3272  2.3301
  947MOL0     H27799   1.909   8.726   4.712 -1.2964  2.6181 -0.7506
  947MOL0     H27800   1.749   8.661   4.746 -3.2453  0.4910  4.9838
  947MOL0     H27801   1.735   8.772   4.967 -0.5401 -1.5042 -0.9498
  947MOL0     H27802   1.834   8.889   4.860  2.9650 -1.3856 -1.4308
  947MOL0     H27803   2.033   8.771   4.983 -0.4765 -0.8357 -0.3470
  947MOL0     H27804   1.922   8.715   5.083 -0.5515  1.3588  1.5401
  947MOL0     H27805   2.026   9.000   4.851  0.4045 -2.1053  0.5674
  947MOL0     H27806   2.201   9.151   4.826  0.3988 -0.7229  0.0534
  947MOL0     H27807   2.287   9.614   5.172  1.7115 -0.3325  1.4112
  947MOL0     H27808   2.402   9.842   5.119 -0.8470  0.5595 -2.5499
  947MOL0     H27809   2.484   9.916   4.823 -2.5245  1.1519  0.5305
  947MOL0     H27810   2.453   9.991   4.972 -0.2504 -2.6703  0.9196
  947MOL0     H27811   2.646  10.081   4.761  3.3009  1.4293  0.2678
  947MOL0     H27812   2.547  10.174   4.872  0.5040 -0.8686 -0.9746
  947MOL0     H27813   2.682  10.134   5.055 -3.2432 -0.5470 -0.5317
  947MOL0     H27814   2.810  10.060   4.956  2.0056  1.5462  2.6478
  947MOL0     H27815   2.711  10.354   4.919  3.1833  2.2855 -2.6572
  947MOL0     H27816   2.829  10.279   4.823  1.4386  0.8619  1.0832
  947MOL0     H27817   2.943  10.213   5.042 -1.2497 -0.0286  1.4403
  947MOL0     H27818   2.832  10.339   5.109 -3.5775  3.5243 -2.4064
  947MOL0     H27819   2.996  10.413   4.875  0.2053 -0.4556  0.4345
  947MOL0     H27820   2.901  10.510   5.000 -2.4194 -1.0074 -2.4498
  947MOL0     H27821   3.182  10.370   5.030 -0.6434 -1.4055  1.0403
  947MOL0     H27822   3.089  10.431   5.161  0.2542 -0.1039 -0.7956
  947MOL0     H27823   3.090  10.664   5.080  2.3944  3.9831 -0.8046
  947MOL0     H27824   3.261  10.598   5.082 -0.0396  2.7770 -0.1158
  947MOL0     H27825   2.722   9.650   4.929  0.6743 -1.0797  0.6223
  947MOL0     H27826   2.612   9.409   4.991  0.8277  0.4968 -0.0817
  947MOL0     H27827   2.217   9.216   5.253 -4.4277  0.3243  1.5303
  947MOL0     H27828   2.051   9.046   5.281  2.2448 -4.2968 -0.6921
  947MOL0     H27829   2.161   7.997   3.779  0.4227  1.1636 -0.6091
  947MOL0     H27830   2.320   8.195   3.720  1.1701 -0.9615 -1.3678
  947MOL0     H27831   2.807   8.361   3.644  1.4657  0.3994  0.3568
  947MOL0     H27832   2.956   8.545   3.666  0.2107 -0.3417  1.0707
  947MOL0     H27833   3.088   8.703   4.047  2.1498  3.4519  3.4965
  947MOL0     H27834   2.962   8.820   4.018  2.2695 -0.8916  2.7756
  947MOL0     H27835   3.231   8.808   3.899  0.6482  0.4648 -0.2033
  947MOL0     H27836   3.174   8.939   4.010  0.0000 -1.3619 -0.5784
  947MOL0     H27837   3.044   9.059   3.860  0.5204  0.2299  0.3602
  947MOL0     H27838   3.048   8.932   3.742  0.4752  0.9201 -0.2380
  947MOL0     H27839   3.199   9.116   3.683 -2.5786 -2.6209 -1.8451
  947MOL0     H27840   3.271   9.100   3.850 -2.4272 -2.3002  3.2310
  947MOL0     H27841   3.497   8.824   3.633 -0.3172 -0.1670  1.3480
  947MOL0     H27842   2.844   8.624   4.068  3.3542  0.3738 -1.1098
  947MOL0     H27843   2.683   8.491   4.178  0.6502 -1.1098 -0.1059
  947MOL0     H27844   2.556   8.414   4.077 -0.2179 -2.9394  1.6565
  947MOL0     H27845   2.691   8.332   4.144 -2.2051  0.2952  1.5950
  948MOL0     O27846   1.265   6.196   2.732  0.1123  0.3428  0.2383
  948MOL0     C27847   1.211   6.091   2.707  1.0615  0.7842  0.4466
  948MOL0     O27848   1.140   6.064   2.591  0.2162  0.5150  0.5963
  948MOL0     C27849   1.087   6.171   2.525  0.2637 -0.3002 -0.9996
  948MOL0     C27850   0.965   6.238   2.559  0.1921 -0.0404 -0.3323
  948MOL0     C27851   0.928   6.352   2.496 -0.0987  0.5375 -0.1011
  948MOL0     C27852   0.995   6.390   2.381 -0.9838 -0.4300  0.2921
  948MOL0     O27853   0.941   6.498   2.309 -0.0340 -0.1502 -0.3277
  948MOL0     C27854   1.006   6.545   2.184  0.0836  0.6031  0.0290
  948MOL0     C27855   0.920   6.656   2.127 -0.6992 -0.4230  0.5101
  948MOL0     C27856   0.931   6.802   2.195 -0.1956  0.2327  0.0470
  948MOL0     C27857   0.852   6.921   2.131  0.0015  0.0247  0.4257
  948MOL0     C27858   0.694   6.923   2.153  0.1893  0.0672  0.4528
  948MOL0     C27859   0.622   6.997   2.041 -0.6201  0.5040  0.3449
  948MOL0     C27860   0.484   7.024   2.086  0.2466  0.8584 -0.0740
  948MOL0     C27861   0.388   6.898   2.076  0.3160  0.4089 -0.5776
  948MOL0     N27862   0.268   6.913   2.149  0.0272 -0.1335 -0.3694
  948MOL0     C27863   0.145   6.940   2.092 -0.8428 -0.8435 -0.0303
  948MOL0     C27864   0.051   6.930   2.188  1.0471  0.3121 -0.0729
  948MOL0     C27865  -0.091   6.980   2.174 -0.1030  0.2452  0.6058
  948MOL0     C27866  -0.159   7.000   2.306  0.5979 -1.1683 -0.1816
  948MOL0     C27867  -0.293   7.070   2.297  0.1556 -0.0158 -0.2202
  948MOL0     C27868  -0.333   7.154   2.415  0.9476 -0.0190  0.5616
  948MOL0     O27869  -0.454   7.227   2.397  0.4880 -0.5578  0.2097
  948MOL0     C27870  -0.478   7.311   2.512 -0.1086  0.2966 -0.4984
  948MOL0     C27871  -0.607   7.303   2.559 -0.5032 -0.0057  0.5519
  948MOL0     C27872  -0.640   7.367   2.683 -0.3961 -0.0788 -0.0593
  948MOL0     C27873  -0.548   7.450   2.748 -0.3000  0.7962 -0.7680
  948MOL0     C27874  -0.589   7.526   2.870 -1.1341  0.1311 -0.8556
  948MOL0     O27875  -0.722   7.512   2.902  0.2783 -0.8564  0.3959
  948MOL0     C27876  -0.784   7.558   3.013 -0.6818  0.6855  0.1176
  948MOL0     C27877  -0.921   7.548   3.014 -0.2616 -0.5364  0.2839
  948MOL0     C27878  -0.997   7.607   3.123 -0.1264  0.4015  0.0886
  948MOL0     C27879  -0.933   7.670   3.229  0.3387 -1.6997 -0.3288
  948MOL0     O27880  -1.006   7.744   3.324 -0.2268 -0.1298  0.3633
  948MOL0     C27881  -1.012   7.680   3.453 -0.0843  0.4514  0.1841
  948MOL0     C27882  -1.064   7.768   3.571  0.3742  0.0881 -1.7956
  948MOL0     C27883  -0.981   7.887   3.574  0.4820  0.2908  0.3409
  948MOL0     C27884  -1.033   7.988   3.687  0.3614  0.4988  0.5294
  948MOL0     C27885  -1.046   8.134   3.636 -0.2018  0.2659  0.4670
  948MOL0     C27886  -1.076   8.224   3.762 -0.4813 -0.8542  0.1427
  948MOL0     C27887  -1.139   8.361   3.723 -0.7998  0.4095 -0.0284
  948MOL0     C27888  -1.136   8.462   3.842 -0.1918  0.8638 -0.3267
  948MOL0    Cl27889  -1.251   8.408   3.982 -0.0695 -0.3907 -0.0062
  948MOL0     C27890  -0.795   7.657   3.243 -0.2246  1.0165 -0.2019
  948MOL0     C27891  -0.723   7.614   3.126  0.1838 -0.3365  0.4647
  948MOL0     O27892  -0.499   7.570   2.935 -0.9001 -0.3409 -0.2215
  948MOL0     C27893  -0.416   7.457   2.700 -0.0545  0.1087 -0.1305
  948MOL0     C27894  -0.385   7.389   2.577 -0.0998 -0.1038 -0.5509
  948MOL0     N27895   0.113   6.891   2.305  0.4309  0.7215 -0.1952
  948MOL0     N27896   0.241   6.883   2.283  0.0779 -0.3597  0.0878
  948MOL0     C27897   1.109   6.318   2.343  0.2767 -0.6239  0.8074
  948MOL0     C27898   1.155   6.212   2.414 -0.4992 -0.4611  0.8479
  948MOL0     C27899   1.238   5.977   2.789  0.3061  0.8348 -0.0954
  948MOL0     C27900   1.300   6.007   2.912  0.3659  0.5830 -0.4259
  948MOL0     C27901   1.340   5.898   2.993  0.5020  0.5608  0.2421
  948MOL0     C27902   1.302   5.757   2.964  0.2677 -1.3244  0.7696
  948MOL0     O27903   1.332   5.662   3.060  0.5489  0.0395  0.5612
  948MOL0     C27904   1.313   5.523   3.021  0.1484 -0.1077 -0.1289
  948MOL0     C27905   1.309   5.450   3.159  0.1704  0.2388  0.2134
  948MOL0     C27906   1.174   5.423   3.213  0.1610 -0.6199 -0.3716
  948MOL0     C27907   1.188   5.329   3.327  0.4695 -0.3143  0.2668
  948MOL0     C27908   1.259   5.391   3.442 -0.0480  0.0711  0.8493
  948MOL0     C27909   1.336   5.433   3.526 -0.2999 -1.1702  0.3476
  948MOL0     C27910   1.230   5.738   2.848 -0.8874 -0.2418  0.1086
  948MOL0     C27911   1.201   5.840   2.764 -0.6588 -0.0595 -0.8861
  948MOL0     C27912   1.132   5.788   2.640 -0.4748 -0.7364 -0.6949
  948MOL0     H27913   0.907   6.206   2.645 -0.4595  4.1643  1.0570
  948MOL0     H27914   0.848   6.408   2.541 -0.3841  0.7915 -0.9068
  948MOL0     H27915   1.105   6.576   2.220  1.2596  0.2388 -2.6897
  948MOL0     H27916   1.010   6.466   2.109 -2.0425 -1.1925  1.6775
  948MOL0     H27917   0.817   6.624   2.142 -1.0435  0.6580  0.5656
  948MOL0     H27918   0.934   6.670   2.019 -1.9177  0.7411  0.4821
  948MOL0     H27919   1.031   6.839   2.218  0.0247  0.0760 -0.6462
  948MOL0     H27920   0.884   6.787   2.293  0.7135 -3.6543  0.0570
  948MOL0     H27921   0.898   7.015   2.162 -0.9081  0.7538 -0.3682
  948MOL0     H27922   0.879   6.924   2.025 -3.2474  1.4197 -0.4831
  948MOL0     H27923   0.641   6.827   2.155  0.5713 -0.4448 -4.0252
  948MOL0     H27924   0.677   6.982   2.243 -1.9689  2.2461 -1.2479
  948MOL0     H27925   0.680   7.089   2.028  0.8502 -0.6738 -2.0928
  948MOL0     H27926   0.616   6.945   1.945 -1.7282  0.7242  0.2823
  948MOL0     H27927   0.446   7.105   2.023  0.3754  0.7178 -0.3308
  948MOL0     H27928   0.481   7.064   2.188 -2.0358  1.3343 -0.2760
  948MOL0     H27929   0.369   6.882   1.970  1.5838  1.4338 -0.9917
  948MOL0     H27930   0.434   6.812   2.126 -1.9801  0.1395  1.2023
  948MOL0     H27931   0.137   6.975   1.989 -2.7563  2.6786  1.1295
  948MOL0     H27932  -0.109   7.056   2.098 -1.2852  0.7502  1.3499
  948MOL0     H27933  -0.143   6.889   2.141  0.5773 -1.2800  3.4207
  948MOL0     H27934  -0.170   6.906   2.361 -1.0849 -0.6328  0.4558
  948MOL0     H27935  -0.093   7.069   2.360  1.2994 -1.7411 -0.2909
  948MOL0     H27936  -0.360   6.990   2.265  2.9328 -2.3206 -0.6667
  948MOL0     H27937  -0.278   7.134   2.210  1.1999  0.0316 -0.0138
  948MOL0     H27938  -0.250   7.222   2.436 -2.7126  4.8372  1.0505
  948MOL0     H27939  -0.353   7.087   2.499 -0.4589  0.6095  0.7493
  948MOL0     H27940  -0.679   7.243   2.505  0.5614  1.8903 -3.3761
  948MOL0     H27941  -0.745   7.361   2.708 -0.6509  0.1481 -1.0021
  948MOL0     H27942  -0.957   7.490   2.930 -0.6112  0.4197 -0.2426
  948MOL0     H27943  -1.105   7.614   3.128 -0.0308  2.8283  0.0318
  948MOL0     H27944  -1.067   7.585   3.451  1.6659 -0.6118  0.0477
  948MOL0     H27945  -0.907   7.664   3.477 -0.3611 -2.0230  0.0667
  948MOL0     H27946  -1.169   7.791   3.547  0.2785  0.7678 -0.7577
  948MOL0     H27947  -1.068   7.719   3.668 -1.6218 -1.2524 -2.4833
  948MOL0     H27948  -0.876   7.869   3.599  1.8798  3.5332 -2.4654
  948MOL0     H27949  -0.980   7.939   3.478  1.8910  0.9733  0.7049
  948MOL0     H27950  -0.969   7.989   3.775 -0.2923  1.3710  1.0020
  948MOL0     H27951  -1.132   7.949   3.712  1.2780 -0.4095  2.9496
  948MOL0     H27952  -1.137   8.142   3.576  1.1233  1.3200 -1.5247
  948MOL0     H27953  -0.960   8.164   3.575 -1.4143  0.4647 -1.2278
  948MOL0     H27954  -1.154   8.179   3.824  0.1056 -0.0486  1.4887
  948MOL0     H27955  -0.983   8.230   3.818 -0.0191 -1.8841 -0.4797
  948MOL0     H27956  -1.238   8.337   3.683  0.4203 -0.5323 -2.6964
  948MOL0     H27957  -1.073   8.402   3.647  1.7716 -0.9023  1.3767
  948MOL0     H27958  -1.032   8.459   3.874  0.4905  4.0943 -1.8149
  948MOL0     H27959  -1.157   8.567   3.816  3.2123  1.2206 -2.2879
  948MOL0     H27960  -0.733   7.685   3.327 -2.2861 -2.4354  2.7583
  948MOL0     H27961  -0.614   7.611   3.131  0.4936  2.3247 -1.8864
  948MOL0     H27962  -0.341   7.522   2.745 -0.9478  1.8414 -1.0456
  948MOL0     H27963  -0.285   7.408   2.540 -0.0345 -1.5674 -1.1904
  948MOL0     H27964   1.171   6.350   2.260 -0.9957 -0.9120 -0.2668
  948MOL0     H27965   1.237   6.153   2.375 -1.8934 -0.4484 -2.4649
  948MOL0     H27966   1.330   6.110   2.926  1.4742  0.9194 -4.1158
  948MOL0     H27967   1.395   5.933   3.079  1.9976 -0.6306 -0.1880
  948MOL0     H27968   1.396   5.494   2.957  1.0050  3.7326 -1.0124
  948MOL0     H27969   1.216   5.504   2.974  0.8597  0.3640 -1.8258
  948MOL0     H27970   1.368   5.512   3.227 -0.0900  2.8735 -1.7970
  948MOL0     H27971   1.370   5.361   3.141 -1.1934 -0.4631 -1.1094
  948MOL0     H27972   1.131   5.371   3.126  2.0017 -1.1061 -1.0358
  948MOL0     H27973   1.116   5.513   3.234 -0.0195 -1.2005  1.8003
  948MOL0     H27974   1.092   5.282   3.349 -0.3948 -0.2124 -2.8754
  948MOL0     H27975   1.245   5.244   3.286  2.4564  1.2075 -0.2912
  948MOL0     H27976   1.411   5.470   3.593  1.3565 -1.3134 -1.3400
  948MOL0     H27977   1.216   5.637   2.811  0.3143  0.1057 -1.4261
  948MOL0     H27978   1.042   5.843   2.613 -0.1506 -0.1719 -0.6533
  948MOL0     H27979   1.197   5.806   2.553  0.3381  1.4555  0.3014
  948MOL0     H27980   1.117   5.680   2.629  0.8015 -1.5230  3.6477
  949MOL0     O27981   2.064   7.531   8.993  0.8805 -0.2647 -0.7880
  949MOL0     C27982   2.053   7.593   9.101 -0.7470  0.7736  0.6236
  949MOL0     O27983   2.162   7.631   9.179 -0.2432 -0.9550  0.0569
  949MOL0     C27984   2.295   7.599   9.136  0.4464 -0.2907  0.1674
  949MOL0     C27985   2.337   7.489   9.070 -0.5001  0.1221  0.5581
  949MOL0     C27986   2.475   7.463   9.060  0.2862  0.0070 -0.0383
  949MOL0     C27987   2.571   7.565   9.060  0.0762 -0.3772  0.0614
  949MOL0     O27988   2.695   7.555   9.007  0.1565 -0.1250  0.0747
  949MOL0     C27989   2.738   7.434   8.950 -0.1617 -0.0974 -0.0730
  949MOL0     C27990   2.865   7.439   8.873  0.2982  1.0927 -0.4776
  949MOL0     C27991   2.976   7.430   8.971  0.0446 -0.5075  0.2304
  949MOL0     C27992   3.113   7.468   8.905  0.0189  0.1164 -0.2182
  949MOL0     C27993   3.227   7.458   9.011 -0.3408  0.6750  0.4191
  949MOL0     C27994   3.247   7.581   9.095  0.1155  0.0005  0.4741
  949MOL0     C27995   3.382   7.566   9.159  0.4490  0.4164 -0.0450
  949MOL0     C27996   3.399   7.687   9.252  0.2643 -0.9724 -0.6367
  949MOL0     N27997   3.420   7.812   9.179  0.7818  0.7900 -0.0772
  949MOL0     C27998   3.537   7.841   9.113 -0.4499 -0.3998  0.4909
  949MOL0     C27999   3.503   7.931   9.008 -0.2800 -0.5339 -0.9389
  949MOL0     C28000   3.603   7.999   8.922  0.5289  0.6977  0.6912
  949MOL0     C28001   3.685   8.113   8.972 -0.2305 -0.3167 -0.3165
  949MOL0     C28002   3.603   8.230   9.019 -0.2373  0.0141 -0.2432
  949MOL0     C28003   3.689   8.344   9.081 -0.5823  0.6953  0.1258
  949MOL0     O28004   3.781   8.283   9.172 -0.5811  0.8688  0.5579
  949MOL0     C28005   3.752   8.245   9.301  0.3651  0.1547  0.3969
  949MOL0     C28006   3.635   8.278   9.357  0.7600 -0.5702 -0.9571
  949MOL0     C28007   3.616   8.263   9.495  0.2125 -0.0247  0.1345
  949MOL0     C28008   3.728   8.203   9.569  0.7340 -0.5979 -0.0781
  949MOL0     C28009   3.719   8.174   9.714 -0.4073  0.5908  0.2157
  949MOL0     O28010   3.830   8.140   9.787  0.7512  0.3065  0.2996
  949MOL0     C28011   3.810   8.086   9.916 -0.3852 -0.2694  0.3723
  949MOL0     C28012   3.750   7.970   9.929  1.0714  0.6658 -0.2500
  949MOL0     C28013   3.728   7.915  10.057 -0.0310  0.0042  0.2970
  949MOL0     C28014   3.783   7.971  10.175 -0.3301  0.4146  0.6904
  949MOL0     O28015   3.767   7.917  10.299  0.0788 -0.7869 -0.0215
  949MOL0     C28016   3.677   7.813  10.311  0.1928  0.5644  0.4672
  949MOL0     C28017   3.696   7.755  10.450  0.1843 -0.6228 -0.8258
  949MOL0     C28018   3.630   7.843  10.568  0.1778  0.9090  0.3184
  949MOL0     C28019   3.650   7.787  10.714  0.6044 -0.0186 -0.7426
  949MOL0     C28020   3.790   7.801  10.758  0.3802  0.6341  0.0124
  949MOL0     C28021   3.786   7.833  10.906  0.8059  0.1997  0.3559
  949MOL0     C28022   3.922   7.802  10.969 -0.2622 -0.5198  0.4273
  949MOL0     C28023   3.954   7.878  11.092  0.2453 -0.3535  0.0448
  949MOL0    Cl28024   3.978   8.048  11.034  0.3844  0.5048  0.5026
  949MOL0     C28025   3.859   8.085  10.158  0.4449  0.0410  0.7295
  949MOL0     C28026   3.865   8.143  10.033  0.7020  0.1737  0.5041
  949MOL0     O28027   3.602   8.181   9.761 -0.2346  0.8007  0.1496
  949MOL0     C28028   3.837   8.157   9.505  0.1040  0.9623  0.6740
  949MOL0     C28029   3.849   8.166   9.365 -0.1346  0.2597  0.1605
  949MOL0     N28030   3.369   7.950   9.019 -0.7298 -0.8388  0.7119
  949MOL0     N28031   3.322   7.884   9.118  0.5846  0.1770 -0.1143
  949MOL0     C28032   2.530   7.681   9.123  0.5071 -0.4367 -0.9721
  949MOL0     C28033   2.391   7.699   9.162 -0.0163 -0.6146  1.0607
  949MOL0     C28034   1.915   7.630   9.155 -0.4682 -0.6580 -0.7801
  949MOL0     C28035   1.917   7.723   9.254 -0.2003  0.4292 -0.1801
  949MOL0     C28036   1.799   7.767   9.311  0.3531 -0.7634 -0.4074
  949MOL0     C28037   1.670   7.724   9.259 -0.1660 -1.0027  0.4822
  949MOL0     O28038   1.557   7.783   9.317 -0.8632  0.0256 -0.6418
  949MOL0     C28039   1.429   7.752   9.273  0.0685 -0.1735 -0.5277
  949MOL0     C28040   1.329   7.856   9.325 -0.3955  0.0994 -0.5122
  949MOL0     C28041   1.364   7.988   9.284 -0.0758 -1.0771  0.4542
  949MOL0     C28042   1.259   8.095   9.321 -0.0917  0.9511 -0.3967
  949MOL0     C28043   1.260   8.212   9.239 -0.3831 -0.7900 -0.1380
  949MOL0     C28044   1.245   8.311   9.169  0.0244  0.3013  1.0320
  949MOL0     C28045   1.666   7.624   9.160  0.0679  0.4683 -0.1749
  949MOL0     C28046   1.788   7.576   9.109 -1.0644 -0.5788  0.2881
  949MOL0     C28047   1.775   7.459   9.019  0.3569 -0.1358  0.1450
  949MOL0     H28048   2.270   7.412   9.034 -2.5471  1.6283  0.9516
  949MOL0     H28049   2.499   7.366   9.018  2.3804  0.6826 -0.5276
  949MOL0     H28050   2.730   7.356   9.027  2.5516 -0.5895 -0.2094
  949MOL0     H28051   2.656   7.416   8.879 -0.4343  1.8541 -0.3115
  949MOL0     H28052   2.869   7.532   8.815  0.3217  1.1128 -0.4445
  949MOL0     H28053   2.864   7.356   8.801 -3.2556 -1.8220  2.5493
  949MOL0     H28054   2.979   7.327   9.007  0.7155 -0.5945 -0.0513
  949MOL0     H28055   2.951   7.499   9.052  0.6722  0.8247 -0.6608
  949MOL0     H28056   3.118   7.390   8.829  0.3915  1.1841 -1.3264
  949MOL0     H28057   3.119   7.569   8.864  1.1792 -0.0118 -0.4090
  949MOL0     H28058   3.199   7.374   9.075 -3.5061 -0.7978 -2.5514
  949MOL0     H28059   3.312   7.437   8.946 -1.8793  3.0003 -2.5829
  949MOL0     H28060   3.236   7.664   9.024 -1.0772 -0.8661 -0.3981
  949MOL0     H28061   3.172   7.585   9.175  0.4231 -1.1672  0.8411
  949MOL0     H28062   3.463   7.560   9.086  1.3826  1.2593  0.8758
  949MOL0     H28063   3.384   7.475   9.220 -2.2017 -0.3965 -1.0132
  949MOL0     H28064   3.323   7.690   9.330  2.2420 -0.6863  1.3544
  949MOL0     H28065   3.492   7.674   9.308  0.2298  2.4580  0.4822
  949MOL0     H28066   3.639   7.805   9.125 -0.6682 -0.2241  4.0654
  949MOL0     H28067   3.676   7.926   8.886 -1.5029 -0.4599 -1.3404
  949MOL0     H28068   3.543   8.018   8.833  0.8800 -0.3677  0.2132
  949MOL0     H28069   3.762   8.080   9.043 -0.6082  0.0559  0.2665
  949MOL0     H28070   3.746   8.148   8.888  0.4774 -1.0852 -0.1414
  949MOL0     H28071   3.527   8.200   9.092  0.4519 -0.4110  0.3190
  949MOL0     H28072   3.548   8.267   8.933 -0.8170 -1.7436 -0.6681
  949MOL0     H28073   3.622   8.418   9.127 -0.7349  0.6323  0.0047
  949MOL0     H28074   3.736   8.395   8.997 -0.6636 -0.6212 -0.7497
  949MOL0     H28075   3.550   8.329   9.313  0.1200  0.0885  0.9207
  949MOL0     H28076   3.525   8.291   9.546  0.6609  1.4743  0.1400
  949MOL0     H28077   3.722   7.911   9.842  3.2468  0.0260 -0.5864
  949MOL0     H28078   3.689   7.813  10.054  1.3132 -0.5756 -3.6276
  949MOL0     H28079   3.575   7.851  10.302 -0.2779 -0.5732  0.7723
  949MOL0     H28080   3.696   7.731  10.241  2.7643  1.2344  0.2976
  949MOL0     H28081   3.645   7.658  10.454 -2.8323  0.8864  1.3228
  949MOL0     H28082   3.801   7.735  10.474 -0.7821 -4.1209  1.1530
  949MOL0     H28083   3.669   7.945  10.558 -0.3859  1.1192  0.2267
  949MOL0     H28084   3.524   7.861  10.551  0.7191  2.5477 -1.7528
  949MOL0     H28085   3.623   7.682  10.731  3.1075 -0.9694 -2.0531
  949MOL0     H28086   3.594   7.857  10.776  3.8429 -0.1085  2.6853
  949MOL0     H28087   3.856   7.874  10.711  0.9635  0.6806  0.8769
  949MOL0     H28088   3.836   7.703  10.740  0.9275  1.1934 -1.8383
  949MOL0     H28089   3.768   7.941  10.915  0.9318  0.1350  1.5638
  949MOL0     H28090   3.713   7.791  10.976  2.0437  1.6917  2.7181
  949MOL0     H28091   4.001   7.822  10.897 -1.5102  0.3695 -0.7518
  949MOL0     H28092   3.929   7.699  11.007 -1.3868  0.1319  2.5643
  949MOL0     H28093   3.869   7.874  11.160 -0.4120  1.0835 -0.6495
  949MOL0     H28094   4.039   7.838  11.148 -0.0179  0.8595  1.3379
  949MOL0     H28095   3.904   8.130  10.247 -1.8150  1.7741  1.0934
  949MOL0     H28096   3.925   8.232  10.022 -2.5035  2.4582  0.0060
  949MOL0     H28097   3.915   8.120   9.570 -1.4477 -1.4199  1.3368
  949MOL0     H28098   3.935   8.123   9.315 -1.2740  0.2391 -1.9122
  949MOL0     H28099   2.596   7.767   9.110  0.7297 -0.7031 -1.6927
  949MOL0     H28100   2.369   7.800   9.194  1.5226  0.2875 -0.5312
  949MOL0     H28101   2.000   7.781   9.292  0.2527  0.7815 -1.6310
  949MOL0     H28102   1.809   7.849   9.381 -0.3316  0.5460 -1.7956
  949MOL0     H28103   1.400   7.665   9.333  1.4511 -0.1701  0.1889
  949MOL0     H28104   1.415   7.744   9.165 -3.3563  0.3274 -0.2542
  949MOL0     H28105   1.330   7.857   9.435  0.6222 -0.4013 -0.5013
  949MOL0     H28106   1.231   7.825   9.289 -1.2060 -0.2208  1.7719
  949MOL0     H28107   1.378   7.993   9.176  0.1615  0.3729  0.5274
  949MOL0     H28108   1.455   8.024   9.333  0.4799 -0.7081 -0.8179
  949MOL0     H28109   1.164   8.041   9.322  1.1535 -1.4035 -1.4315
  949MOL0     H28110   1.269   8.122   9.427 -2.2653  0.5418 -0.0493
  949MOL0     H28111   1.245   8.383   9.089 -0.0261 -2.1798 -1.3295
  949MOL0     H28112   1.576   7.576   9.123 -0.5027  0.5069  1.0897
  949MOL0     H28113   1.806   7.487   8.918  1.6982 -1.1028  0.2473
  949MOL0     H28114   1.846   7.379   9.042  1.7934  0.7025 -1.1565
  949MOL0     H28115   1.676   7.414   9.015  0.9790 -1.5936  0.3121
  950MOL0     O28116   3.773   0.932   0.912 -0.4799  0.6248 -0.7923
  950MOL0     C28117   3.704   1.014   0.973 -0.9639 -0.5298  0.0861
  950MOL0     O28118   3.594   1.076   0.917 -0.3645  0.4323  0.0910
  950MOL0     C28119   3.591   1.109   0.784 -0.2772  0.0696  0.5143
  950MOL0     C28120   3.478   1.156   0.721 -1.2557  0.2748 -0.4603
  950MOL0     C28121   3.481   1.193   0.581  1.0613 -0.4232 -0.1515
  950MOL0     C28122   3.600   1.206   0.508 -0.1016  0.2878  0.8402
  950MOL0     O28123   3.607   1.251   0.377 -0.2688  0.3141 -0.2236
  950MOL0     C28124   3.495   1.305   0.308 -0.1858 -0.1283 -0.4316
  950MOL0     C28125   3.540   1.371   0.171  0.5205 -1.3669 -0.2191
  950MOL0     C28126   3.411   1.463   0.119  0.8436 -0.0271  0.0978
  950MOL0     C28127   3.437   1.516  -0.017 -1.1568  0.4958 -0.4912
  950MOL0     C28128   3.508   1.653  -0.020 -0.3553 -0.2909 -0.0504
  950MOL0     C28129   3.541   1.685  -0.166  1.1583  0.1963 -0.3806
  950MOL0     C28130   3.603   1.818  -0.185  0.3284 -1.3522  0.1026
  950MOL0     C28131   3.734   1.824  -0.256 -0.3703  0.2215  0.2355
  950MOL0     N28132   3.777   1.957  -0.296  0.1300 -0.2130  0.1108
  950MOL0     C28133   3.808   1.999  -0.421 -0.1738 -0.9137  0.3030
  950MOL0     C28134   3.811   2.141  -0.423 -0.3819  0.4564  0.1447
  950MOL0     C28135   3.830   2.230  -0.553  0.9014 -0.8856 -0.4072
  950MOL0     C28136   3.969   2.293  -0.548  0.4361  0.3418 -0.2886
  950MOL0     C28137   3.965   2.427  -0.622 -0.6789  0.3389 -1.2619
  950MOL0     C28138   4.106   2.488  -0.599  0.3010 -0.3575 -0.4273
  950MOL0     O28139   4.218   2.437  -0.683  0.3719 -0.8011 -0.3763
  950MOL0     C28140   4.340   2.457  -0.638  0.3384  0.5899  1.1173
  950MOL0     C28141   4.378   2.524  -0.525 -0.5466 -0.1936 -0.2388
  950MOL0     C28142   4.510   2.534  -0.481  0.8537 -0.4547 -0.1437
  950MOL0     C28143   4.620   2.489  -0.561  0.3790  0.8674  0.7469
  950MOL0     C28144   4.758   2.476  -0.522 -0.1419 -1.3043  0.2405
  950MOL0     O28145   4.857   2.424  -0.594  0.3748 -0.3278  0.6617
  950MOL0     C28146   4.976   2.392  -0.516  0.6622 -0.5566  1.0313
  950MOL0     C28147   5.081   2.477  -0.528  0.7315 -0.3005  0.2319
  950MOL0     C28148   5.200   2.452  -0.458  0.2123 -0.2478 -0.1854
  950MOL0     C28149   5.204   2.357  -0.354  0.0522 -0.7643  0.0140
  950MOL0     O28150   5.300   2.360  -0.259 -0.3874 -0.6471  0.0825
  950MOL0     C28151   5.404   2.260  -0.297  0.8985 -0.2946  0.1228
  950MOL0     C28152   5.455   2.185  -0.175 -0.2848 -0.2715 -0.5837
  950MOL0     C28153   5.539   2.053  -0.205 -0.6160 -0.3981  0.8582
  950MOL0     C28154   5.586   1.991  -0.074 -0.4103  0.5930  1.0379
  950MOL0     C28155   5.676   1.874  -0.110  0.0733 -0.4984 -0.0264
  950MOL0     C28156   5.812   1.929  -0.168 -0.4283 -1.0276 -0.2530
  950MOL0     C28157   5.870   2.033  -0.070 -0.0235 -0.4768 -0.1795
  950MOL0     C28158   6.030   2.038  -0.071 -0.1841 -0.8882  0.1175
  950MOL0    Cl28159   6.106   2.195  -0.033 -0.0497 -0.1545  0.4688
  950MOL0     C28160   5.091   2.280  -0.336 -0.3320  0.7877  0.6496
  950MOL0     C28161   4.982   2.292  -0.424  0.0857  0.3661 -0.3835
  950MOL0     O28162   4.776   2.518  -0.405 -0.4590  0.1013  0.2513
  950MOL0     C28163   4.580   2.430  -0.688 -0.2911 -0.0084 -0.9270
  950MOL0     C28164   4.443   2.420  -0.724 -0.0529 -0.3099 -0.0253
  950MOL0     N28165   3.795   2.176  -0.288 -0.3690 -0.2115 -0.1616
  950MOL0     N28166   3.772   2.070  -0.214  1.4522 -0.4857  0.2200
  950MOL0     C28167   3.711   1.153   0.565 -0.1042 -0.3281 -0.9390
  950MOL0     C28168   3.705   1.102   0.699 -0.2556 -0.1095  0.2257
  950MOL0     C28169   3.738   1.039   1.112  0.1221  0.0171 -0.0539
  950MOL0     C28170   3.637   1.063   1.202 -0.0448  0.3548 -0.0502
  950MOL0     C28171   3.665   1.075   1.336  0.9741 -0.3764  0.2172
  950MOL0     C28172   3.793   1.064   1.385  0.0427 -0.3839 -0.0414
  950MOL0     O28173   3.795   1.058   1.523 -0.3371 -0.2193  0.2037
  950MOL0     C28174   3.917   1.066   1.587 -0.0741  0.3059 -0.4620
  950MOL0     C28175   3.967   1.211   1.603 -0.2759 -0.8023  0.1683
  950MOL0     C28176   4.113   1.210   1.654 -0.4513  0.2090 -0.5587
  950MOL0     C28177   4.118   1.147   1.793 -0.4249  0.3516 -0.1492
  950MOL0     C28178   4.258   1.148   1.839 -1.0724  0.3888 -0.6869
  950MOL0     C28179   4.369   1.166   1.888  0.0368 -0.5335  0.1202
  950MOL0     C28180   3.900   1.068   1.299 -1.0297  0.2453 -1.5377
  950MOL0     C28181   3.870   1.043   1.159  0.2476 -0.5907 -0.0345
  950MOL0     C28182   3.990   1.042   1.062  0.5319  1.0887 -0.3546
  950MOL0     H28183   3.396   1.154   0.791 -0.6842  0.2629  0.2239
  950MOL0     H28184   3.395   1.240   0.533  1.7840  1.9376  0.7048
  950MOL0     H28185   3.420   1.228   0.287  1.2594 -1.0713 -2.4327
  950MOL0     H28186   3.454   1.380   0.377  1.1466  1.5890 -1.4439
  950MOL0     H28187   3.556   1.284   0.107  1.6701 -0.9330 -0.5397
  950MOL0     H28188   3.632   1.427   0.188 -0.8374  0.6996  0.6755
  950MOL0     H28189   3.390   1.545   0.190 -1.1306 -0.7703  0.4323
  950MOL0     H28190   3.319   1.405   0.117 -1.1224  2.7805  1.3977
  950MOL0     H28191   3.489   1.438  -0.074 -1.0329  0.6437 -0.5810
  950MOL0     H28192   3.337   1.518  -0.060 -0.3391  0.7393 -2.4968
  950MOL0     H28193   3.443   1.727   0.027  1.7306  1.0475  0.8691
  950MOL0     H28194   3.602   1.650   0.036 -0.2024 -0.4191 -0.3115
  950MOL0     H28195   3.603   1.604  -0.206 -2.1771 -2.5687 -0.4232
  950MOL0     H28196   3.448   1.685  -0.224 -1.1284  0.6568  3.0108
  950MOL0     H28197   3.610   1.860  -0.085 -1.2020 -2.9141  0.9111
  950MOL0     H28198   3.528   1.880  -0.235 -0.1877 -2.3098 -0.3393
  950MOL0     H28199   3.808   1.782  -0.187 -1.3158 -1.2948  0.3825
  950MOL0     H28200   3.738   1.751  -0.339 -4.2595 -1.5704  1.4188
  950MOL0     H28201   3.822   1.931  -0.504  1.9151  1.0744 -1.1120
  950MOL0     H28202   3.811   2.178  -0.647 -1.0790 -2.0088  0.5545
  950MOL0     H28203   3.757   2.312  -0.557 -0.7864 -2.2857 -5.6751
  950MOL0     H28204   4.000   2.303  -0.444  3.2270  1.9445 -1.1725
  950MOL0     H28205   4.043   2.223  -0.588  0.2453 -1.1764  1.8394
  950MOL0     H28206   3.886   2.495  -0.589  0.2710  0.7491  0.3039
  950MOL0     H28207   3.955   2.399  -0.727  0.7815 -1.9471 -0.8679
  950MOL0     H28208   4.116   2.486  -0.490 -0.1659  3.6817 -0.1849
  950MOL0     H28209   4.104   2.594  -0.623  2.8346 -0.6115 -2.1166
  950MOL0     H28210   4.302   2.569  -0.461 -2.0005 -1.6594 -0.8816
  950MOL0     H28211   4.537   2.583  -0.388  2.3253 -0.3010 -0.6268
  950MOL0     H28212   5.075   2.561  -0.596 -0.2512  0.1643  0.8638
  950MOL0     H28213   5.283   2.522  -0.468 -1.2983  1.5225 -1.0149
  950MOL0     H28214   5.370   2.179  -0.362  0.7299 -0.4503  0.4030
  950MOL0     H28215   5.485   2.311  -0.350 -0.1724  0.5858 -0.7291
  950MOL0     H28216   5.507   2.252  -0.106 -2.0415  1.7594 -1.1364
  950MOL0     H28217   5.365   2.154  -0.120  1.6133 -2.6820  1.3880
  950MOL0     H28218   5.488   1.987  -0.275  3.5717 -2.1082 -0.8570
  950MOL0     H28219   5.626   2.094  -0.257 -2.7565  1.4735 -1.5176
  950MOL0     H28220   5.499   1.950  -0.020 -3.2492 -0.1888 -3.6066
  950MOL0     H28221   5.630   2.070  -0.013  2.4663 -0.5797  0.6462
  950MOL0     H28222   5.632   1.807  -0.184 -1.1164 -1.0604  1.1521
  950MOL0     H28223   5.701   1.808  -0.026 -1.1591 -1.4292 -0.3740
  950MOL0     H28224   5.875   1.844  -0.194  1.0152  0.9037 -3.8561
  950MOL0     H28225   5.792   1.970  -0.268 -2.6898  1.4978  1.0968
  950MOL0     H28226   5.842   2.011   0.034  0.8877  0.1183  0.2015
  950MOL0     H28227   5.838   2.129  -0.110  1.9370 -0.0765 -0.8634
  950MOL0     H28228   6.065   1.968   0.006  1.7255 -1.3171 -1.0808
  950MOL0     H28229   6.074   2.003  -0.164 -0.2135  1.1562 -0.7138
  950MOL0     H28230   5.080   2.207  -0.257 -1.9082  1.1106  0.7650
  950MOL0     H28231   4.914   2.208  -0.427 -0.1039  0.1347  3.9254
  950MOL0     H28232   4.652   2.386  -0.757  1.4236  2.3057 -0.7796
  950MOL0     H28233   4.411   2.378  -0.819 -1.0897  1.4601 -0.4993
  950MOL0     H28234   3.813   1.162   0.531  1.2384 -2.5742  1.9894
  950MOL0     H28235   3.799   1.067   0.740  0.1477  1.0658  0.3325
  950MOL0     H28236   3.533   1.061   1.168  0.1826 -2.2935 -0.7749
  950MOL0     H28237   3.584   1.081   1.408  0.9588  0.0853  0.1674
  950MOL0     H28238   3.981   1.000   1.527  0.2827 -1.3942  1.6394
  950MOL0     H28239   3.920   1.020   1.687 -0.5332  0.9219 -0.1578
  950MOL0     H28240   3.901   1.252   1.680  0.2653 -0.1877  0.3047
  950MOL0     H28241   3.946   1.260   1.507 -0.7901  0.4961  0.9211
  950MOL0     H28242   4.147   1.313   1.671 -2.2620  0.7132  0.1500
  950MOL0     H28243   4.175   1.152   1.584  1.2270  1.6824 -0.3642
  950MOL0     H28244   4.055   1.193   1.869  0.0621  1.4498 -0.3844
  950MOL0     H28245   4.107   1.038   1.792  1.8635  0.0585 -0.0050
  950MOL0     H28246   4.463   1.183   1.938  0.9881 -3.1659 -0.5914
  950MOL0     H28247   3.998   1.092   1.337 -1.1316  1.1606 -1.8458
  950MOL0     H28248   4.013   0.942   1.024  2.2811  0.9599  0.9249
  950MOL0     H28249   3.970   1.108   0.977  0.3164  2.8022  0.9724
  950MOL0     H28250   4.074   1.080   1.120 -0.6892  0.9696  1.5507
  951MOL0     O28251   1.530   0.489   3.408 -1.0225 -0.7589  0.2772
  951MOL0     C28252   1.601   0.408   3.354 -0.0074  0.6344 -0.8097
  951MOL0     O28253   1.685   0.427   3.249  0.6233  0.9701 -0.3422
  951MOL0     C28254   1.725   0.549   3.210  0.9915 -0.6289  1.2489
  951MOL0     C28255   1.699   0.670   3.269 -0.0299 -0.3463 -0.4162
  951MOL0     C28256   1.767   0.787   3.214 -0.6770  0.2097 -0.2517
  951MOL0     C28257   1.836   0.780   3.090 -0.1772  1.0998  0.4828
  951MOL0     O28258   1.886   0.893   3.039  0.4482 -0.2948 -0.2223
  951MOL0     C28259   1.990   0.901   2.939 -0.7367  0.5765  0.2335
  951MOL0     C28260   2.030   1.041   2.894 -0.6048 -0.0290  0.1848
  951MOL0     C28261   1.912   1.121   2.854 -0.4825  0.2324 -0.7594
  951MOL0     C28262   1.961   1.273   2.841  0.5693  0.2914 -0.4334
  951MOL0     C28263   2.031   1.288   2.712 -0.1085 -0.9076  0.3110
  951MOL0     C28264   2.055   1.442   2.659 -0.1590 -0.2923  0.0430
  951MOL0     C28265   2.094   1.448   2.507  0.0088  0.5121 -0.0263
  951MOL0     C28266   1.982   1.396   2.417 -0.1632  0.0050  0.4332
  951MOL0     N28267   2.045   1.367   2.282  0.3622  0.6603 -0.3206
  951MOL0     C28268   1.989   1.402   2.159  0.9233 -0.7918 -0.9893
  951MOL0     C28269   2.064   1.348   2.063  0.8381 -1.1848 -0.0275
  951MOL0     C28270   2.054   1.366   1.905 -0.4499  0.3034 -0.1374
  951MOL0     C28271   1.958   1.239   1.858  0.4824 -0.2473  1.2549
  951MOL0     C28272   1.848   1.311   1.763  0.3269 -0.1301  0.9406
  951MOL0     C28273   1.753   1.212   1.699  0.2117 -0.1030 -0.2089
  951MOL0     O28274   1.833   1.110   1.636  0.0236  0.3662  0.4603
  951MOL0     C28275   1.838   0.985   1.689 -1.0102  0.1055 -0.1503
  951MOL0     C28276   1.792   0.943   1.824 -0.4503 -0.7717 -0.1031
  951MOL0     C28277   1.834   0.819   1.870  0.5532  1.3032  0.0470
  951MOL0     C28278   1.893   0.725   1.786 -0.5455 -0.0741  0.4180
  951MOL0     C28279   1.908   0.588   1.836 -1.2597 -0.2034 -0.3696
  951MOL0     O28280   1.967   0.500   1.748 -0.2358  0.1652 -0.1811
  951MOL0     C28281   1.969   0.365   1.794 -0.9510 -0.5493  0.1258
  951MOL0     C28282   1.883   0.266   1.746 -0.2982 -0.5832 -0.1924
  951MOL0     C28283   1.889   0.142   1.800 -0.2293  1.0295 -0.3781
  951MOL0     C28284   1.987   0.108   1.892  0.0409 -0.1262  0.3435
  951MOL0     O28285   1.988  -0.011   1.957  0.6112 -0.4044  0.0734
  951MOL0     C28286   1.956  -0.141   1.892  0.3475 -0.2679  0.4806
  951MOL0     C28287   2.076  -0.225   1.867 -0.0302  0.4173  0.2667
  951MOL0     C28288   2.055  -0.348   1.776  0.2838  0.2538  0.8566
  951MOL0     C28289   2.173  -0.360   1.676  0.0916  0.7366  1.4866
  951MOL0     C28290   2.171  -0.500   1.592 -0.4422 -0.3105 -0.3859
  951MOL0     C28291   2.272  -0.496   1.477 -0.5874  1.0105  0.1184
  951MOL0     C28292   2.421  -0.472   1.521 -0.0094  0.2345  0.6434
  951MOL0     C28293   2.516  -0.578   1.456 -0.1768 -0.6228 -0.4671
  951MOL0    Cl28294   2.679  -0.504   1.432  0.6451 -0.0120  0.0279
  951MOL0     C28295   2.070   0.205   1.935 -0.0500  0.2071  0.1219
  951MOL0     C28296   2.063   0.337   1.899  0.5142  0.2494  0.3168
  951MOL0     O28297   1.855   0.568   1.943 -0.5635  0.0110 -0.0875
  951MOL0     C28298   1.926   0.764   1.651  0.0786  0.1462 -0.0896
  951MOL0     C28299   1.903   0.891   1.609 -0.1780 -0.3409  0.7405
  951MOL0     N28300   2.164   1.270   2.122 -0.0617  0.2782 -0.0290
  951MOL0     N28301   2.139   1.266   2.247  0.2401  0.2095 -0.2941
  951MOL0     C28302   1.855   0.651   3.027  0.5484 -1.1709  0.7476
  951MOL0     C28303   1.802   0.537   3.092 -0.5845 -0.6556 -0.0675
  951MOL0     C28304   1.579   0.263   3.391  0.0056  0.3180  0.9793
  951MOL0     C28305   1.610   0.164   3.293  0.7890 -0.1245 -1.0656
  951MOL0     C28306   1.597   0.026   3.311  0.5904  0.0540 -0.1970
  951MOL0     C28307   1.551  -0.018   3.433 -0.3476  0.4283  0.3901
  951MOL0     O28308   1.577  -0.146   3.456 -0.0144 -0.4897 -0.5127
  951MOL0     C28309   1.488  -0.221   3.541  0.3579 -0.2031  0.5981
  951MOL0     C28310   1.524  -0.368   3.551 -0.4500  0.0329 -0.3086
  951MOL0     C28311   1.463  -0.441   3.678  0.3472 -0.2367 -0.3599
  951MOL0     C28312   1.504  -0.596   3.689 -0.0385 -0.1092 -0.2651
  951MOL0     C28313   1.452  -0.669   3.575 -0.3729 -0.2407 -1.1949
  951MOL0     C28314   1.427  -0.724   3.470  1.6179  0.7024 -0.4582
  951MOL0     C28315   1.517   0.073   3.532  0.7731  0.0640 -0.6142
  951MOL0     C28316   1.530   0.217   3.512  0.3575  1.1159 -0.2795
  951MOL0     C28317   1.490   0.304   3.630 -0.0325  0.2991 -0.3920
  951MOL0     H28318   1.643   0.685   3.361  0.2671 -1.1861 -0.0930
  951MOL0     H28319   1.765   0.884   3.263 -0.2254 -0.7764  1.8239
  951MOL0     H28320   2.077   0.843   2.969  0.6085  0.2614 -3.6767
  951MOL0     H28321   1.959   0.855   2.845 -1.2027  0.8212  0.2622
  951MOL0     H28322   2.108   1.037   2.819 -1.5416 -2.1018 -0.7325
  951MOL0     H28323   2.069   1.094   2.982  0.0295 -2.4919  1.4845
  951MOL0     H28324   1.831   1.103   2.925  0.3511  0.7191  0.3439
  951MOL0     H28325   1.874   1.086   2.758  0.8570 -3.2139 -0.1661
  951MOL0     H28326   1.867   1.327   2.859  0.1222 -0.7735  0.5864
  951MOL0     H28327   2.021   1.308   2.925 -0.6656 -0.5118  0.8294
  951MOL0     H28328   2.125   1.232   2.716 -0.9683 -2.5624 -1.3905
  951MOL0     H28329   1.964   1.242   2.638  1.9054 -0.2604 -2.0405
  951MOL0     H28330   1.966   1.506   2.664  0.2610  0.5558 -2.4595
  951MOL0     H28331   2.115   1.499   2.730 -1.1538  0.3923  0.3636
  951MOL0     H28332   2.180   1.381   2.495 -3.0282 -3.8946  0.3012
  951MOL0     H28333   2.122   1.552   2.488  0.6742  0.8770  2.6505
  951MOL0     H28334   1.936   1.304   2.456 -1.4348  0.1845 -0.5752
  951MOL0     H28335   1.892   1.456   2.400  1.5589  1.9833 -2.5323
  951MOL0     H28336   1.916   1.480   2.143 -0.6480 -1.9656  0.1212
  951MOL0     H28337   2.015   1.467   1.888 -0.5777  0.2439 -0.2011
  951MOL0     H28338   2.156   1.357   1.866 -0.2803  0.6895  0.2063
  951MOL0     H28339   2.018   1.168   1.801 -0.6569 -0.3980  0.1959
  951MOL0     H28340   1.906   1.187   1.939 -0.3815  0.1011  0.9418
  951MOL0     H28341   1.901   1.365   1.684  0.4798 -1.6693 -0.0471
  951MOL0     H28342   1.793   1.387   1.819 -1.1403  0.2195 -0.8849
  951MOL0     H28343   1.694   1.266   1.624  0.1278  2.6486  1.6901
  951MOL0     H28344   1.674   1.175   1.765 -4.6802  0.6305 -4.9097
  951MOL0     H28345   1.745   1.000   1.904  0.0398 -1.8598  0.9837
  951MOL0     H28346   1.793   0.796   1.968  0.6918 -0.4108 -0.2575
  951MOL0     H28347   1.808   0.289   1.671 -3.0370  0.1704  2.5652
  951MOL0     H28348   1.816   0.065   1.778 -1.3103  1.9755 -0.2079
  951MOL0     H28349   1.888  -0.199   1.954 -1.3895  0.6187 -0.4996
  951MOL0     H28350   1.896  -0.126   1.801  0.5102  1.4014  0.6140
  951MOL0     H28351   2.163  -0.163   1.841  1.6215 -0.9059  2.2896
  951MOL0     H28352   2.105  -0.266   1.964 -1.4400  1.1645  1.0340
  951MOL0     H28353   2.055  -0.431   1.847  1.6257 -2.0215 -1.6294
  951MOL0     H28354   1.962  -0.340   1.720  1.6042  1.3938 -1.3129
  951MOL0     H28355   2.269  -0.349   1.726  1.5691  1.3922 -1.2972
  951MOL0     H28356   2.166  -0.282   1.599  2.8430  0.7552  1.1817
  951MOL0     H28357   2.074  -0.528   1.550 -0.9815  0.3591  0.3594
  951MOL0     H28358   2.197  -0.578   1.665  0.4417 -0.6341 -1.0374
  951MOL0     H28359   2.268  -0.592   1.425 -0.8760  0.3789  1.2703
  951MOL0     H28360   2.238  -0.420   1.407 -2.0475 -0.6813 -1.1245
  951MOL0     H28361   2.437  -0.467   1.629  0.8186 -0.4069  0.5490
  951MOL0     H28362   2.448  -0.369   1.493  0.5027  0.4073  1.7370
  951MOL0     H28363   2.517  -0.654   1.535  0.8379  0.6744  0.8107
  951MOL0     H28364   2.474  -0.632   1.371 -2.3661  1.1139 -0.5737
  951MOL0     H28365   2.133   0.185   2.020 -2.6210  1.1000  2.3902
  951MOL0     H28366   2.114   0.413   1.958  0.0627  0.9019 -0.1247
  951MOL0     H28367   1.977   0.703   1.577 -1.6816 -1.6064  0.0842
  951MOL0     H28368   1.924   0.909   1.504 -1.7284  0.9650  0.6202
  951MOL0     H28369   1.899   0.623   2.932  1.6306  0.5867  0.6769
  951MOL0     H28370   1.828   0.441   3.050 -2.2002 -1.7205  1.2619
  951MOL0     H28371   1.648   0.192   3.195  0.4712 -3.3389 -2.2091
  951MOL0     H28372   1.615  -0.033   3.222  1.8382  3.2626 -2.2316
  951MOL0     H28373   1.389  -0.227   3.496  0.9788  1.6250 -1.1352
  951MOL0     H28374   1.493  -0.163   3.634  2.6383  4.8372 -2.2950
  951MOL0     H28375   1.633  -0.365   3.543 -0.4782 -0.2838 -0.8943
  951MOL0     H28376   1.490  -0.418   3.459 -1.6210 -0.1643  0.2182
  951MOL0     H28377   1.355  -0.431   3.672  0.2713  2.5111  2.6110
  951MOL0     H28378   1.481  -0.386   3.771  0.5668  0.0109 -0.5465
  951MOL0     H28379   1.610  -0.620   3.706  0.0766  0.2350 -0.4955
  951MOL0     H28380   1.458  -0.632   3.782  1.5594 -1.3272  0.1151
  951MOL0     H28381   1.421  -0.787   3.384  2.9777 -0.5472  0.3221
  951MOL0     H28382   1.475   0.044   3.627 -0.7610  0.6990 -1.0596
  951MOL0     H28383   1.475   0.236   3.714  0.1382  2.3380  1.3695
  951MOL0     H28384   1.573   0.372   3.653  2.6710 -2.3915 -1.4296
  951MOL0     H28385   1.399   0.362   3.616 -0.2967 -0.3429 -1.4886
  952MOL0     O28386  10.958   4.391   9.842  0.3694  0.4499 -0.0756
  952MOL0     C28387  10.847   4.332   9.823 -0.8855  0.0123  0.1247
  952MOL0     O28388  10.834   4.195   9.856 -0.0964  0.3711 -0.3374
  952MOL0     C28389  10.950   4.126   9.856 -0.2206 -0.0261  0.0572
  952MOL0     C28390  11.002   4.072   9.980 -0.1760 -0.1229 -0.5139
  952MOL0     C28391  11.104   3.977   9.984  0.6139 -0.6319 -0.1948
  952MOL0     C28392  11.172   3.946   9.872  0.4239  0.3872 -0.4351
  952MOL0     O28393  11.265   3.842   9.856  0.3170  0.8517  0.5228
  952MOL0     C28394  11.391   3.858   9.929 -0.2095  0.3772 -0.0319
  952MOL0     C28395  11.490   3.887   9.817 -0.9517 -1.2406  0.2534
  952MOL0     C28396  11.563   3.752   9.792 -0.8134 -0.2128  0.5296
  952MOL0     C28397  11.690   3.736   9.893  0.2224 -0.8430  0.0926
  952MOL0     C28398  11.756   3.603   9.869 -0.0207  0.2219  0.5152
  952MOL0     C28399  11.868   3.590   9.981 -0.0959 -0.5060 -0.3978
  952MOL0     C28400  11.963   3.485   9.929  0.2194  0.6299 -0.1045
  952MOL0     C28401  11.898   3.349   9.961  0.5994 -0.1641 -0.3581
  952MOL0     N28402  11.912   3.306  10.102  0.2860  0.1180 -0.6422
  952MOL0     C28403  12.023   3.263  10.159  0.5344 -0.1331  0.9563
  952MOL0     C28404  11.991   3.212  10.282 -1.2339  0.6265  0.2845
  952MOL0     C28405  12.090   3.146  10.376 -0.5475  1.2942 -0.0460
  952MOL0     C28406  12.145   3.235  10.487  0.0988  0.8615  0.1087
  952MOL0     C28407  12.206   3.157  10.605  0.6448  0.2595 -0.6569
  952MOL0     C28408  12.300   3.245  10.673  0.5209  0.2270 -0.2786
  952MOL0     O28409  12.323   3.186  10.801  0.2270 -0.0499  0.3964
  952MOL0     C28410  12.417   3.249  10.880  0.1026 -0.7551  0.6283
  952MOL0     C28411  12.518   3.336  10.836  0.4007 -0.5853  0.2253
  952MOL0     C28412  12.590   3.416  10.923  0.1409  0.1750 -0.2406
  952MOL0     C28413  12.571   3.407  11.063  0.7813 -0.7393  0.1609
  952MOL0     C28414  12.653   3.495  11.154  1.0086  0.3073 -0.5226
  952MOL0     O28415  12.653   3.456  11.288 -0.2116 -0.2085 -0.2436
  952MOL0     C28416  12.750   3.494  11.372  0.0355 -0.2036 -0.7987
  952MOL0     C28417  12.718   3.456  11.503  0.0968 -0.2854 -0.2009
  952MOL0     C28418  12.796   3.489  11.615  0.0392 -0.7015 -0.7234
  952MOL0     C28419  12.904   3.577  11.594 -0.2026  0.0577  0.5081
  952MOL0     O28420  12.953   3.642  11.704 -0.2092  1.0324 -0.1597
  952MOL0     C28421  13.026   3.764  11.679 -0.0241 -0.2152 -0.1883
  952MOL0     C28422  13.068   3.832  11.807 -0.8572 -0.2294 -0.6127
  952MOL0     C28423  13.150   3.963  11.782  0.9447  0.1546  0.4153
  952MOL0     C28424  13.123   4.066  11.881  0.4744  0.4154  0.5378
  952MOL0     C28425  13.231   4.168  11.868  0.0606  0.4564  0.3252
  952MOL0     C28426  13.211   4.280  11.964  0.0083  1.0924  0.1971
  952MOL0     C28427  13.314   4.394  11.936 -0.1482  0.2753 -0.8057
  952MOL0     C28428  13.332   4.448  11.788  0.9309  0.0073 -0.2376
  952MOL0    Cl28429  13.182   4.513  11.711  0.6997  0.0490 -0.2967
  952MOL0     C28430  12.943   3.608  11.458 -0.2470  0.4333 -0.9134
  952MOL0     C28431  12.870   3.561  11.354  1.3055 -0.1589  0.1232
  952MOL0     O28432  12.714   3.589  11.107  0.4012 -0.4981 -0.3432
  952MOL0     C28433  12.464   3.327  11.105 -0.1151  0.4886 -0.4999
  952MOL0     C28434  12.399   3.242  11.018  0.4641 -0.3053 -0.8602
  952MOL0     N28435  11.854   3.240  10.306 -0.6065  0.7791  0.9803
  952MOL0     N28436  11.815   3.310  10.198  0.4910  1.2128 -0.1583
  952MOL0     C28437  11.137   4.008   9.749 -0.4676 -0.3702  2.2834
  952MOL0     C28438  11.025   4.096   9.739 -0.3681  0.5588 -0.1467
  952MOL0     C28439  10.719   4.397   9.787  0.4110  0.2116 -0.0964
  952MOL0     C28440  10.596   4.347   9.837  0.0595 -0.1124  0.2366
  952MOL0     C28441  10.469   4.411   9.810  0.1848 -0.7615 -0.1154
  952MOL0     C28442  10.452   4.529   9.733  0.1005  1.2704  0.9118
  952MOL0     O28443  10.340   4.592   9.683 -0.7715  0.3387 -0.3202
  952MOL0     C28444  10.215   4.518   9.677 -0.2900 -0.4395  0.2777
  952MOL0     C28445  10.207   4.438   9.547  0.0008 -0.9300  0.3345
  952MOL0     C28446  10.090   4.342   9.555  0.7413 -0.3869 -0.1366
  952MOL0     C28447   9.986   4.383   9.451  0.2207  1.0944  0.0061
  952MOL0     C28448   9.882   4.286   9.460  0.0833  0.3069  0.3444
  952MOL0     C28449   9.800   4.191   9.472 -0.5294 -0.2681  0.2368
  952MOL0     C28450  10.573   4.577   9.686 -0.4691  0.0359  0.2130
  952MOL0     C28451  10.706   4.519   9.713  0.7180 -0.6155  0.5371
  952MOL0     C28452  10.823   4.576   9.637 -0.3876 -0.7374 -0.5552
  952MOL0     H28453  10.946   4.101  10.068 -1.6147 -2.5682 -0.5260
  952MOL0     H28454  11.135   3.939  10.081  0.8344  2.6663  1.1634
  952MOL0     H28455  11.381   3.937  10.003 -1.1015 -0.2841  0.5680
  952MOL0     H28456  11.421   3.768   9.983 -3.0552 -1.8390 -1.8678
  952MOL0     H28457  11.567   3.961   9.843 -0.3929 -2.0990  1.0741
  952MOL0     H28458  11.441   3.936   9.732 -0.2340 -3.0758 -1.2901
  952MOL0     H28459  11.602   3.742   9.690  2.8249 -1.5983  1.9069
  952MOL0     H28460  11.496   3.666   9.800 -0.5637 -0.4231  0.3853
  952MOL0     H28461  11.760   3.819   9.880  1.9177 -2.5321 -2.1616
  952MOL0     H28462  11.647   3.735   9.994 -2.3090  3.0082 -0.7069
  952MOL0     H28463  11.688   3.518   9.879  0.8021 -0.8406 -2.0433
  952MOL0     H28464  11.785   3.595   9.764 -0.8414  0.3294  0.2766
  952MOL0     H28465  11.922   3.684   9.985  0.4944 -0.8582  0.0780
  952MOL0     H28466  11.815   3.565  10.073 -0.4345  1.4896 -0.0202
  952MOL0     H28467  12.058   3.493   9.983  0.1042 -2.9931  0.8982
  952MOL0     H28468  11.987   3.500   9.823  1.1238  2.2838  0.2961
  952MOL0     H28469  11.795   3.343   9.924 -0.3483 -4.1470  2.2304
  952MOL0     H28470  11.949   3.272   9.902 -1.2934 -1.6440 -0.2035
  952MOL0     H28471  12.122   3.280  10.116 -0.9393  1.9543 -1.9294
  952MOL0     H28472  12.047   3.059  10.428  3.3876 -1.0579 -0.2709
  952MOL0     H28473  12.171   3.094  10.323 -2.7192  0.7690 -3.1395
  952MOL0     H28474  12.218   3.301  10.439 -1.6965  0.7609 -2.9829
  952MOL0     H28475  12.071   3.306  10.526  1.5962  1.3246  2.2750
  952MOL0     H28476  12.275   3.076  10.576  0.2091  0.1518 -1.4237
  952MOL0     H28477  12.117   3.117  10.655 -1.7659  1.7714 -3.4376
  952MOL0     H28478  12.256   3.344  10.685  1.3081  0.4535  1.0023
  952MOL0     H28479  12.386   3.266  10.608  0.6087 -1.6364 -0.8134
  952MOL0     H28480  12.555   3.339  10.734  3.1918  0.2598  1.1716
  952MOL0     H28481  12.662   3.486  10.881  0.3146 -1.0454 -2.0493
  952MOL0     H28482  12.617   3.417  11.507  0.3729 -0.9556  2.3463
  952MOL0     H28483  12.763   3.477  11.718  3.3090 -0.5431  0.4633
  952MOL0     H28484  13.114   3.749  11.616 -0.6148 -1.4901 -0.7326
  952MOL0     H28485  12.958   3.828  11.622  0.4182 -0.9214 -1.5539
  952MOL0     H28486  12.976   3.862  11.859  0.0132  0.6679  0.4475
  952MOL0     H28487  13.127   3.764  11.870  1.3557  1.0014 -1.2696
  952MOL0     H28488  13.258   3.946  11.776  1.0623  1.1169 -0.3049
  952MOL0     H28489  13.120   4.006  11.686 -1.1967 -0.9818  0.5169
  952MOL0     H28490  13.105   4.023  11.980 -1.8635  0.7693  0.3307
  952MOL0     H28491  13.030   4.114  11.850  1.1381  0.9516 -0.7030
  952MOL0     H28492  13.212   4.211  11.770  0.0518  1.6781  0.8491
  952MOL0     H28493  13.334   4.130  11.863 -0.9933 -3.6169  3.5337
  952MOL0     H28494  13.108   4.315  11.955 -0.9068 -1.5676 -0.6049
  952MOL0     H28495  13.224   4.236  12.063  3.0016 -1.2577 -1.0587
  952MOL0     H28496  13.417   4.360  11.954 -1.1874 -2.0559  1.3537
  952MOL0     H28497  13.294   4.472  12.009 -0.4016 -2.2716  2.0521
  952MOL0     H28498  13.407   4.527  11.777  1.6302 -0.8300 -1.6233
  952MOL0     H28499  13.365   4.367  11.723 -0.1724 -0.1749 -0.5954
  952MOL0     H28500  13.031   3.668  11.435  1.8497 -1.0577  2.5238
  952MOL0     H28501  12.898   3.589  11.253  0.6950  1.2704  0.3242
  952MOL0     H28502  12.450   3.326  11.213  1.8004 -0.4167 -0.2114
  952MOL0     H28503  12.323   3.179  11.063 -0.2146  1.2990  0.3292
  952MOL0     H28504  11.188   3.981   9.657  0.8490  1.5603  2.3959
  952MOL0     H28505  10.981   4.128   9.646 -1.0174 -1.3734 -0.5515
  952MOL0     H28506  10.597   4.258   9.899  0.6935 -1.4003 -1.5467
  952MOL0     H28507  10.385   4.357   9.854  0.5818  1.1088  3.2071
  952MOL0     H28508  10.135   4.591   9.693  2.3484  2.2256  2.6414
  952MOL0     H28509  10.196   4.445   9.755 -1.9127 -2.2248 -1.6620
  952MOL0     H28510  10.302   4.384   9.537  1.0135  0.7322  0.4969
  952MOL0     H28511  10.203   4.524   9.479  0.7237  0.6217  2.1223
  952MOL0     H28512  10.041   4.360   9.651 -1.8912  1.9461 -1.7467
  952MOL0     H28513  10.101   4.234   9.547 -3.2078 -1.1167  1.9117
  952MOL0     H28514   9.945   4.482   9.470 -1.7439  0.1828  0.7445
  952MOL0     H28515  10.030   4.372   9.351 -0.2758  1.0845 -0.2129
  952MOL0     H28516   9.749   4.098   9.485  1.0752 -1.2988 -0.4757
  952MOL0     H28517  10.566   4.666   9.625 -0.1790  1.7778  2.5655
  952MOL0     H28518  10.900   4.624   9.700 -0.1917  0.6457 -1.7794
  952MOL0     H28519  10.883   4.502   9.583 -0.3095 -0.5716 -0.6966
  952MOL0     H28520  10.789   4.649   9.563 -1.2530 -1.1996 -0.6125
  953MOL0     O28521   3.406   5.600   7.173 -0.6498 -0.0853 -0.1037
  953MOL0     C28522   3.416   5.698   7.109  0.4885 -0.6499  0.4955
  953MOL0     O28523   3.399   5.827   7.165 -0.2711  0.2194  0.3567
  953MOL0     C28524   3.446   5.844   7.296  1.0231  0.1481 -0.1231
  953MOL0     C28525   3.363   5.920   7.380  0.4689  0.2242 -0.8318
  953MOL0     C28526   3.392   5.947   7.513  0.7831 -0.5717 -0.3458
  953MOL0     C28527   3.511   5.889   7.562  0.3238 -0.0610 -0.8208
  953MOL0     O28528   3.550   5.923   7.682  0.4828 -0.3348 -0.3471
  953MOL0     C28529   3.472   5.857   7.782  0.5305  0.0769 -0.2221
  953MOL0     C28530   3.493   5.924   7.920  0.4692 -0.5079 -0.0424
  953MOL0     C28531   3.429   5.850   8.046 -1.0321 -0.4046  0.0615
  953MOL0     C28532   3.506   5.719   8.069 -0.2519  0.0827  0.3923
  953MOL0     C28533   3.421   5.610   8.127  0.4576  0.1210  0.0486
  953MOL0     C28534   3.485   5.478   8.155  0.5283 -0.2816 -0.0469
  953MOL0     C28535   3.518   5.405   8.030 -0.8408  0.7307  0.6300
  953MOL0     C28536   3.590   5.275   8.068 -0.6224  0.1018 -0.2077
  953MOL0     N28537   3.606   5.177   7.956  0.2726 -0.0050 -1.4302
  953MOL0     C28538   3.497   5.145   7.882 -0.7887  0.6180  1.0691
  953MOL0     C28539   3.543   5.097   7.767  0.3201 -0.2461  0.1585
  953MOL0     C28540   3.474   5.037   7.649 -0.4255 -0.9388  0.7971
  953MOL0     C28541   3.488   4.882   7.639  0.8340  0.7153 -0.3330
  953MOL0     C28542   3.442   4.835   7.494 -0.3533 -0.7805  0.4072
  953MOL0     C28543   3.534   4.720   7.433  0.5506 -0.3349  0.0652
  953MOL0     O28544   3.572   4.612   7.520  0.0556  0.4460 -0.1778
  953MOL0     C28545   3.636   4.511   7.443 -0.3338 -0.4811 -0.4763
  953MOL0     C28546   3.573   4.421   7.364 -0.0283 -0.4731 -0.4274
  953MOL0     C28547   3.647   4.319   7.302 -0.5397 -0.8834  0.4883
  953MOL0     C28548   3.782   4.296   7.334 -0.0507 -1.1782 -1.0455
  953MOL0     C28549   3.865   4.180   7.277  0.0876 -0.5161 -0.3503
  953MOL0     O28550   3.789   4.068   7.226 -0.8828  0.5382 -0.5046
  953MOL0     C28551   3.871   3.961   7.183 -1.0794 -0.1430  0.5704
  953MOL0     C28552   3.897   3.850   7.252  0.7938  0.1962 -0.8492
  953MOL0     C28553   3.968   3.739   7.196 -0.1744  0.8197  0.3923
  953MOL0     C28554   4.016   3.746   7.062  0.3091 -0.0281 -0.4173
  953MOL0     O28555   4.076   3.649   6.993 -0.1263  0.0005 -0.1470
  953MOL0     C28556   4.188   3.575   7.049 -1.0618 -0.2562 -0.4272
  953MOL0     C28557   4.300   3.671   7.105  0.2402  0.2489 -0.1159
  953MOL0     C28558   4.429   3.605   7.156 -0.7005 -0.4851  1.2128
  953MOL0     C28559   4.539   3.709   7.184  0.1950 -0.5766 -0.3956
  953MOL0     C28560   4.676   3.636   7.217  0.2136 -0.0106  0.2604
  953MOL0     C28561   4.797   3.719   7.181 -0.8169 -0.4363 -0.0433
  953MOL0     C28562   4.934   3.644   7.206  0.7781 -0.2143  0.1113
  953MOL0     C28563   5.049   3.727   7.154 -0.0010  0.4914 -0.3495
  953MOL0    Cl28564   5.049   3.770   6.985 -0.0094  0.0761  0.4042
  953MOL0     C28565   3.995   3.862   6.986 -0.0957 -0.2366  0.5766
  953MOL0     C28566   3.924   3.964   7.050 -0.0362 -0.3930  0.0304
  953MOL0     O28567   3.986   4.186   7.284  0.5703 -0.6112 -0.5130
  953MOL0     C28568   3.841   4.381   7.424  0.5566 -1.2638  0.2876
  953MOL0     C28569   3.771   4.492   7.479  0.4341 -0.0507 -0.4943
  953MOL0     N28570   3.689   5.099   7.775  0.1403  0.7553  0.1986
  953MOL0     N28571   3.717   5.160   7.890  0.7795 -0.1253  0.6697
  953MOL0     C28572   3.591   5.809   7.482 -0.2564  0.1049  0.8581
  953MOL0     C28573   3.556   5.778   7.348  0.0444  0.2943  0.5752
  953MOL0     C28574   3.469   5.683   6.975 -0.2923  0.4802  0.1291
  953MOL0     C28575   3.449   5.787   6.880 -0.2763 -0.4066  0.0732
  953MOL0     C28576   3.489   5.764   6.743  1.0359 -0.5772  0.7492
  953MOL0     C28577   3.542   5.650   6.698 -1.2126  0.3381  0.6327
  953MOL0     O28578   3.556   5.631   6.566  0.4791  0.2245 -1.1785
  953MOL0     C28579   3.573   5.500   6.508 -0.6272 -0.2070  0.6569
  953MOL0     C28580   3.597   5.509   6.361 -0.1530  0.4153 -0.6216
  953MOL0     C28581   3.746   5.538   6.315 -0.3349 -0.0887  1.2295
  953MOL0     C28582   3.858   5.438   6.337  0.1509 -0.1410 -0.0583
  953MOL0     C28583   3.846   5.332   6.238 -0.0486 -0.3554  1.1396
  953MOL0     C28584   3.833   5.243   6.154 -0.3135  0.1327 -0.5332
  953MOL0     C28585   3.567   5.551   6.794  0.4532 -0.5025 -0.2286
  953MOL0     C28586   3.535   5.567   6.934  0.0714 -0.2391  0.1136
  953MOL0     C28587   3.582   5.457   7.024 -0.8243  0.6507  0.0412
  953MOL0     H28588   3.283   5.972   7.327 -0.6517 -1.5564 -0.9633
  953MOL0     H28589   3.335   6.025   7.563 -1.9159 -1.8220 -1.3199
  953MOL0     H28590   3.366   5.869   7.761  0.9931  2.1962 -1.6694
  953MOL0     H28591   3.502   5.752   7.790  1.4064  0.3496  0.3092
  953MOL0     H28592   3.459   6.028   7.909 -1.1279 -0.9395  0.5133
  953MOL0     H28593   3.598   5.942   7.944  0.0570 -0.9179  2.2706
  953MOL0     H28594   3.323   5.839   8.020 -0.6651  1.8764 -2.8527
  953MOL0     H28595   3.443   5.904   8.140  1.5377  0.4285 -0.7256
  953MOL0     H28596   3.546   5.685   7.973 -0.9252 -1.5831  0.6644
  953MOL0     H28597   3.594   5.720   8.134  0.3134 -2.0927 -0.2562
  953MOL0     H28598   3.381   5.640   8.225  3.1244 -0.7563  1.5202
  953MOL0     H28599   3.341   5.594   8.054  1.0987 -0.3592 -0.5611
  953MOL0     H28600   3.578   5.504   8.206 -0.0978 -0.5478  1.2579
  953MOL0     H28601   3.416   5.420   8.216 -1.1854  1.3361 -0.3610
  953MOL0     H28602   3.591   5.464   7.973 -0.9060  0.0043 -0.2415
  953MOL0     H28603   3.429   5.391   7.967  0.6956  0.2852 -1.5674
  953MOL0     H28604   3.689   5.299   8.107  0.9063 -1.0896 -3.0612
  953MOL0     H28605   3.532   5.217   8.141 -2.2694  1.4880 -0.3635
  953MOL0     H28606   3.395   5.158   7.916 -0.8510  1.8244  0.4375
  953MOL0     H28607   3.367   5.059   7.652 -0.4540  0.0159 -2.7435
  953MOL0     H28608   3.512   5.082   7.557 -1.6357  1.8571  1.5642
  953MOL0     H28609   3.590   4.849   7.660 -0.1633 -1.7807  1.0576
  953MOL0     H28610   3.416   4.833   7.705 -2.2699  0.2176 -3.8025
  953MOL0     H28611   3.434   4.909   7.414 -0.8838 -1.2968 -0.0341
  953MOL0     H28612   3.341   4.791   7.492 -0.5296 -0.3428 -1.4568
  953MOL0     H28613   3.627   4.771   7.407  0.1145 -0.8030 -2.6908
  953MOL0     H28614   3.497   4.685   7.336  3.1281 -1.7402 -0.4965
  953MOL0     H28615   3.465   4.427   7.354 -0.3101 -3.8986 -0.6352
  953MOL0     H28616   3.604   4.259   7.223  1.2614 -0.0795 -1.1856
  953MOL0     H28617   3.854   3.838   7.350 -0.7318 -0.6963 -1.5874
  953MOL0     H28618   3.991   3.663   7.270 -0.6009  1.1838  0.9034
  953MOL0     H28619   4.152   3.520   7.137 -1.8019 -1.0393 -1.1973
  953MOL0     H28620   4.234   3.506   6.978 -0.0879  2.0558 -2.1748
  953MOL0     H28621   4.331   3.734   7.021  0.2199  0.1974 -0.1626
  953MOL0     H28622   4.257   3.729   7.187  0.0588  0.3393 -0.2735
  953MOL0     H28623   4.407   3.534   7.236 -1.6440 -1.6729 -0.0634
  953MOL0     H28624   4.468   3.543   7.075 -2.4508 -0.0963  0.0193
  953MOL0     H28625   4.520   3.762   7.278  2.6799 -1.4780  0.7014
  953MOL0     H28626   4.555   3.772   7.096 -2.5089 -1.1897 -1.4213
  953MOL0     H28627   4.682   3.546   7.154  3.5688  0.4028 -0.2137
  953MOL0     H28628   4.670   3.613   7.324 -0.0595 -0.4589  0.1523
  953MOL0     H28629   4.785   3.741   7.075  0.5602 -0.6545 -0.2619
  953MOL0     H28630   4.811   3.806   7.246  2.3915 -0.5343 -0.4197
  953MOL0     H28631   4.932   3.556   7.142  1.0620 -0.0316 -0.1536
  953MOL0     H28632   4.952   3.615   7.310  3.1331 -2.5510 -0.8446
  953MOL0     H28633   5.071   3.820   7.207  2.7810 -0.1835 -0.2120
  953MOL0     H28634   5.139   3.666   7.157 -0.5657 -0.3023  1.3469
  953MOL0     H28635   4.017   3.856   6.880 -2.1732 -2.3547  0.1783
  953MOL0     H28636   3.901   4.056   6.996 -2.6767 -1.7525 -1.3876
  953MOL0     H28637   3.944   4.359   7.450  0.2832 -3.2202 -0.1540
  953MOL0     H28638   3.807   4.572   7.543 -0.4548 -0.8303  1.0281
  953MOL0     H28639   3.680   5.764   7.525  0.1619 -1.2291 -1.2376
  953MOL0     H28640   3.619   5.705   7.298  0.2269  0.9880 -0.2440
  953MOL0     H28641   3.416   5.883   6.918  0.2772 -0.7339  1.4160
  953MOL0     H28642   3.458   5.841   6.674 -2.1003 -2.6475 -0.3736
  953MOL0     H28643   3.477   5.448   6.513  0.2564 -1.8978  0.6902
  953MOL0     H28644   3.653   5.436   6.548  0.9678  0.8971 -0.6470
  953MOL0     H28645   3.527   5.587   6.329  0.9275  1.2098 -1.1495
  953MOL0     H28646   3.560   5.420   6.310 -2.9275  0.8341  0.5122
  953MOL0     H28647   3.774   5.637   6.354 -3.7693  0.5031  2.5990
  953MOL0     H28648   3.745   5.555   6.207  0.8102  0.3870  1.2816
  953MOL0     H28649   3.958   5.480   6.321 -0.0935  1.1319  1.4990
  953MOL0     H28650   3.835   5.394   6.434  1.0298 -1.4798 -0.4266
  953MOL0     H28651   3.851   5.162   6.086  2.7332  0.5129 -0.2947
  953MOL0     H28652   3.602   5.454   6.760  0.5538 -1.4035  2.2846
  953MOL0     H28653   3.649   5.386   6.974  1.3672  1.7397  1.2614
  953MOL0     H28654   3.657   5.510   7.083  2.1977  0.3371 -3.1399
  953MOL0     H28655   3.506   5.405   7.083  1.1260 -1.9533  0.4595
  954MOL0     O28656   4.672   6.848   8.759 -0.2174  0.1955  0.7694
  954MOL0     C28657   4.563   6.831   8.706 -0.0026  0.3581  0.7261
  954MOL0     O28658   4.460   6.752   8.764 -0.6326  0.2798  0.9414
  954MOL0     C28659   4.421   6.782   8.887  0.2570  0.2285 -0.5348
  954MOL0     C28660   4.354   6.691   8.966  0.3575  0.2050  1.0683
  954MOL0     C28661   4.314   6.713   9.096  0.2315  0.1897 -0.8702
  954MOL0     C28662   4.330   6.834   9.159 -0.2440  0.3685 -0.4296
  954MOL0     O28663   4.290   6.839   9.288 -0.9418 -0.0508  0.2692
  954MOL0     C28664   4.309   6.963   9.358  0.4067  0.6165  0.0581
  954MOL0     C28665   4.308   6.926   9.506 -0.6707  0.0399 -1.0212
  954MOL0     C28666   4.294   7.045   9.604  0.2482  0.2853  0.7460
  954MOL0     C28667   4.329   7.018   9.757 -0.9159 -1.4930 -0.4454
  954MOL0     C28668   4.263   7.124   9.851  0.6476  0.9502  0.9932
  954MOL0     C28669   4.319   7.110   9.986  0.6648  0.2629  1.0727
  954MOL0     C28670   4.248   7.204  10.082  0.6409  0.1959 -0.3069
  954MOL0     C28671   4.313   7.183  10.218 -0.3416  0.1771 -0.3359
  954MOL0     N28672   4.242   7.267  10.320  0.4037  0.4352  0.4868
  954MOL0     C28673   4.125   7.230  10.373 -0.5915 -0.4319  0.3418
  954MOL0     C28674   4.076   7.337  10.435 -0.1829 -0.3481 -0.4566
  954MOL0     C28675   3.944   7.359  10.508 -0.6696  0.1685 -0.3816
  954MOL0     C28676   3.952   7.291  10.645  0.0688 -0.1402  0.1503
  954MOL0     C28677   3.818   7.313  10.722  0.3193  0.2449  0.3641
  954MOL0     C28678   3.838   7.270  10.863  0.4483  0.6732 -0.2867
  954MOL0     O28679   3.872   7.130  10.877 -0.1343  0.0332  0.6267
  954MOL0     C28680   3.775   7.037  10.838  0.3430  0.5003 -0.2681
  954MOL0     C28681   3.663   7.016  10.911  0.3387  0.0201 -0.5277
  954MOL0     C28682   3.558   6.925  10.865  0.0836 -0.6085  0.2876
  954MOL0     C28683   3.580   6.842  10.750  0.3480  0.0314  0.1608
  954MOL0     C28684   3.477   6.748  10.705 -0.7875  0.5600  0.2607
  954MOL0     O28685   3.346   6.768  10.757  0.3661 -0.4897  0.2823
  954MOL0     C28686   3.244   6.684  10.711  0.7130 -0.9275 -0.0984
  954MOL0     C28687   3.113   6.725  10.729 -0.3503  0.5371 -1.2246
  954MOL0     C28688   3.007   6.639  10.708  1.0861 -0.6561 -0.5548
  954MOL0     C28689   3.030   6.511  10.670 -1.2363  0.2321 -0.2970
  954MOL0     O28690   2.932   6.430  10.627 -0.7238 -0.1976 -0.1316
  954MOL0     C28691   2.808   6.489  10.589  0.4859 -0.0599 -0.6860
  954MOL0     C28692   2.721   6.409  10.500 -0.0235  0.5411 -0.3423
  954MOL0     C28693   2.591   6.467  10.451 -0.2655 -0.0992 -1.1110
  954MOL0     C28694   2.470   6.487  10.543  0.7620  0.6549 -0.1845
  954MOL0     C28695   2.361   6.561  10.463  0.9634 -0.0467  0.4814
  954MOL0     C28696   2.228   6.602  10.535 -0.5166  0.9601  0.1686
  954MOL0     C28697   2.116   6.510  10.547  0.6027  0.9923  0.0065
  954MOL0     C28698   1.990   6.570  10.623  0.7529 -0.4254  0.3046
  954MOL0    Cl28699   2.051   6.608  10.795  0.2535  0.3457 -0.0039
  954MOL0     C28700   3.158   6.470  10.648 -0.6745  0.0482 -0.1542
  954MOL0     C28701   3.265   6.559  10.669 -0.0521  0.0588  0.9767
  954MOL0     O28702   3.509   6.674  10.606 -0.3154  0.6232  0.1229
  954MOL0     C28703   3.704   6.858  10.682 -0.0632 -0.0100  0.8184
  954MOL0     C28704   3.800   6.958  10.724 -0.2965  0.2794  0.6489
  954MOL0     N28705   4.168   7.442  10.417  1.2310 -0.3769 -0.6722
  954MOL0     N28706   4.267   7.398  10.348 -0.5902  0.0048  0.4757
  954MOL0     C28707   4.390   6.935   9.076  0.0535 -0.1564  0.0819
  954MOL0     C28708   4.432   6.907   8.948  0.3663 -0.4158  0.5075
  954MOL0     C28709   4.550   6.851   8.557 -0.1295  0.2758 -0.7349
  954MOL0     C28710   4.653   6.800   8.479  0.2007  0.1604  0.4419
  954MOL0     C28711   4.646   6.809   8.341 -0.0314 -0.1771 -0.3699
  954MOL0     C28712   4.541   6.866   8.272  0.2434  0.5886  0.7353
  954MOL0     O28713   4.561   6.869   8.135 -0.0657  0.1461  0.0343
  954MOL0     C28714   4.448   6.913   8.062 -0.0182 -0.4238 -0.5551
  954MOL0     C28715   4.462   6.872   7.913  0.4155  0.0443  0.0304
  954MOL0     C28716   4.469   6.711   7.884 -0.2918 -0.2072 -0.0031
  954MOL0     C28717   4.403   6.681   7.749 -0.1032 -0.0662  0.3300
  954MOL0     C28718   4.393   6.534   7.733 -0.4525  0.0059 -0.2615
  954MOL0     C28719   4.381   6.413   7.725 -0.1756 -0.5161  0.1337
  954MOL0     C28720   4.437   6.914   8.352  0.6769 -0.4977 -0.2904
  954MOL0     C28721   4.441   6.919   8.494 -0.0421  1.3315  0.2680
  954MOL0     C28722   4.328   6.972   8.584 -0.0552 -0.2606 -0.0345
  954MOL0     H28723   4.342   6.592   8.922  2.8217  0.7839 -1.1472
  954MOL0     H28724   4.272   6.627   9.147 -2.2869  0.7673 -1.8389
  954MOL0     H28725   4.406   7.004   9.328  0.1433 -0.4067 -2.3394
  954MOL0     H28726   4.226   7.028   9.329 -1.8145 -1.5857  1.1365
  954MOL0     H28727   4.398   6.870   9.529  0.2700  2.0175  0.3844
  954MOL0     H28728   4.219   6.864   9.520 -0.5335  0.4241  2.2517
  954MOL0     H28729   4.187   7.068   9.612 -0.0926 -1.1249  0.5031
  954MOL0     H28730   4.346   7.132   9.563 -3.1665  1.1142 -2.2693
  954MOL0     H28731   4.298   6.916   9.783  0.3126 -1.7383  0.1366
  954MOL0     H28732   4.436   7.009   9.774 -0.3195 -2.9914 -4.1034
  954MOL0     H28733   4.285   7.228   9.823  2.5580 -0.1325 -2.0518
  954MOL0     H28734   4.154   7.117   9.850  0.6491  0.9221  1.0159
  954MOL0     H28735   4.300   7.005  10.010  0.1609 -0.2897 -1.4227
  954MOL0     H28736   4.427   7.126   9.979  0.7141 -0.7033 -2.7597
  954MOL0     H28737   4.144   7.175  10.102 -1.1082  4.5762 -1.7153
  954MOL0     H28738   4.248   7.307  10.044 -0.5195 -0.5211 -2.4582
  954MOL0     H28739   4.304   7.078  10.247 -0.2507 -0.5732 -2.7930
  954MOL0     H28740   4.419   7.207  10.215  1.2030 -5.3790 -0.5273
  954MOL0     H28741   4.077   7.137  10.344 -1.6327  0.1119  0.2832
  954MOL0     H28742   3.924   7.466  10.517 -1.4768  0.1516 -1.6801
  954MOL0     H28743   3.861   7.312  10.454 -2.0266  0.1437  1.6107
  954MOL0     H28744   3.971   7.183  10.638 -2.4758 -0.5844 -0.9131
  954MOL0     H28745   4.038   7.335  10.697 -0.5163  0.9152  0.2557
  954MOL0     H28746   3.739   7.256  10.672  1.4849 -1.0891 -0.0274
  954MOL0     H28747   3.787   7.418  10.719 -3.1769 -0.5921  2.0983
  954MOL0     H28748   3.748   7.279  10.924  1.4518 -3.0342  2.1293
  954MOL0     H28749   3.912   7.331  10.916 -0.1493  0.8804  0.3207
  954MOL0     H28750   3.642   7.073  11.001  3.2656 -1.8589  1.5511
  954MOL0     H28751   3.466   6.925  10.922 -0.3979 -0.3448 -0.4786
  954MOL0     H28752   3.099   6.827  10.764 -1.9659  0.0279 -0.3131
  954MOL0     H28753   2.911   6.679  10.738 -0.0463 -2.3230 -1.8389
  954MOL0     H28754   2.755   6.521  10.680  2.2565  1.2292 -0.0505
  954MOL0     H28755   2.826   6.584  10.537  0.8633 -0.0430 -0.5284
  954MOL0     H28756   2.784   6.388  10.413 -0.3877 -2.5528  0.0476
  954MOL0     H28757   2.705   6.310  10.542 -0.3655  0.1510 -1.3655
  954MOL0     H28758   2.611   6.564  10.404 -0.9803  1.4090  1.4810
  954MOL0     H28759   2.557   6.415  10.360 -3.8345 -1.2976  0.7068
  954MOL0     H28760   2.479   6.544  10.636  2.4951  0.7768 -0.3866
  954MOL0     H28761   2.423   6.393  10.571 -2.6411  1.5255 -2.4397
  954MOL0     H28762   2.342   6.511  10.368  2.0570  1.6047 -0.6765
  954MOL0     H28763   2.406   6.658  10.436 -1.0206  1.3917  2.0549
  954MOL0     H28764   2.259   6.627  10.637  0.5296 -4.1358  1.4321
  954MOL0     H28765   2.192   6.695  10.491 -0.9008  1.4606  1.5102
  954MOL0     H28766   2.140   6.419  10.603  1.4290  2.4838  2.2218
  954MOL0     H28767   2.082   6.498  10.444 -0.7625  2.5219  0.2305
  954MOL0     H28768   1.947   6.653  10.566 -0.0755 -1.3063 -0.3906
  954MOL0     H28769   1.912   6.493  10.623  0.2054  0.1109 -0.7199
  954MOL0     H28770   3.162   6.362  10.638 -3.5015 -0.2594  1.0037
  954MOL0     H28771   3.365   6.519  10.659  1.6197  4.1000 -0.2075
  954MOL0     H28772   3.735   6.805  10.593  1.0332  1.0187  0.5578
  954MOL0     H28773   3.897   6.969  10.678  0.2317  1.9145  2.0444
  954MOL0     H28774   4.413   7.035   9.112  0.8150 -0.2976  0.0162
  954MOL0     H28775   4.490   6.989   8.905  1.4210 -0.6291  1.4752
  954MOL0     H28776   4.742   6.758   8.526  0.9108  1.7112  0.5275
  954MOL0     H28777   4.726   6.781   8.273 -2.8261  0.0270 -4.0275
  954MOL0     H28778   4.448   7.023   8.060 -3.0057 -0.3137  0.7094
  954MOL0     H28779   4.358   6.873   8.110  1.4424  1.3342  4.1015
  954MOL0     H28780   4.544   6.930   7.870  1.2049 -0.7275  0.4528
  954MOL0     H28781   4.368   6.894   7.861 -0.4865 -5.2563 -1.2853
  954MOL0     H28782   4.419   6.654   7.963  1.6755  2.1155  3.0989
  954MOL0     H28783   4.570   6.670   7.883 -0.9381 -1.9265 -0.3193
  954MOL0     H28784   4.296   6.704   7.739 -0.9614 -4.2181 -2.9586
  954MOL0     H28785   4.448   6.737   7.667  0.9102  0.4257  1.2011
  954MOL0     H28786   4.361   6.309   7.737 -1.0260 -0.3658  0.1468
  954MOL0     H28787   4.354   6.975   8.316 -0.6746 -1.2064  1.4586
  954MOL0     H28788   4.281   7.064   8.549 -0.5100 -0.9295 -1.2433
  954MOL0     H28789   4.257   6.889   8.586  1.4626 -1.6001  1.5185
  954MOL0     H28790   4.356   7.002   8.686 -4.6030 -0.6710  1.5593
  955MOL0     O28791   1.927   8.514   3.534  0.1641  0.4012 -0.0534
  955MOL0     C28792   1.917   8.613   3.610  0.0465  0.4521 -0.2214
  955MOL0     O28793   2.021   8.685   3.666  0.5813  0.3128 -0.3547
  955MOL0     C28794   2.151   8.651   3.628  0.1506  0.3510 -1.1208
  955MOL0     C28795   2.216   8.717   3.531 -0.0790 -0.8233 -0.0136
  955MOL0     C28796   2.351   8.690   3.509  0.0813 -0.5618 -0.4926
  955MOL0     C28797   2.411   8.578   3.581  0.2912 -0.0659 -0.6145
  955MOL0     O28798   2.557   8.553   3.596  0.8951 -0.6320 -0.2686
  955MOL0     C28799   2.645   8.592   3.491 -0.0344 -0.5302  0.5028
  955MOL0     C28800   2.624   8.521   3.359 -0.8455 -0.0964  0.7177
  955MOL0     C28801   2.654   8.375   3.362 -0.0981  0.1061 -0.2629
  955MOL0     C28802   2.708   8.320   3.235 -0.2452  0.7508 -0.4964
  955MOL0     C28803   2.772   8.175   3.259 -0.3386  0.6146  0.4542
  955MOL0     C28804   2.667   8.072   3.295 -0.4613 -0.6627 -0.3682
  955MOL0     C28805   2.710   7.925   3.267  0.1345  0.6141  0.9839
  955MOL0     C28806   2.692   7.826   3.381  0.4902  0.2674  0.2280
  955MOL0     N28807   2.761   7.697   3.352 -0.0672  0.1269 -0.2925
  955MOL0     C28808   2.877   7.662   3.410 -1.0382 -0.1115  0.0597
  955MOL0     C28809   2.899   7.534   3.358  1.1872  0.3505  0.8827
  955MOL0     C28810   3.011   7.439   3.394  0.3843  0.1545 -0.0956
  955MOL0     C28811   3.149   7.506   3.377 -0.7601  0.7249 -0.3608
  955MOL0     C28812   3.189   7.529   3.229 -0.6951  1.2287 -0.5677
  955MOL0     C28813   3.302   7.626   3.205  0.4915  0.0969 -0.9666
  955MOL0     O28814   3.253   7.754   3.213 -0.8138  0.7377  0.3175
  955MOL0     C28815   3.340   7.856   3.233 -0.1046 -0.8338  0.9961
  955MOL0     C28816   3.481   7.857   3.219 -0.0425 -0.4071  0.2091
  955MOL0     C28817   3.560   7.973   3.226 -0.2924 -0.8333  0.1666
  955MOL0     C28818   3.506   8.097   3.242  0.3788  0.5309  0.5223
  955MOL0     C28819   3.590   8.209   3.245 -1.0230  0.1477 -0.4617
  955MOL0     O28820   3.542   8.314   3.182 -0.0773  0.0822  0.3483
  955MOL0     C28821   3.626   8.416   3.183 -0.6263  0.0039  0.3249
  955MOL0     C28822   3.668   8.475   3.303  0.6850 -0.7322  1.2888
  955MOL0     C28823   3.751   8.590   3.292  0.1857 -0.0020 -0.3785
  955MOL0     C28824   3.789   8.640   3.166  0.3928  0.0070 -1.4349
  955MOL0     O28825   3.863   8.757   3.170  0.3309  1.0168  0.3323
  955MOL0     C28826   3.883   8.835   3.056 -0.5094  0.0162 -0.3186
  955MOL0     C28827   4.001   8.934   3.066 -0.2239 -0.7112 -0.6264
  955MOL0     C28828   3.976   9.072   2.990  0.2360  0.4927 -0.7159
  955MOL0     C28829   4.011   9.201   3.073 -0.1402  0.6943  0.3464
  955MOL0     C28830   3.924   9.321   3.032  0.1886  0.7390  0.1747
  955MOL0     C28831   3.911   9.417   3.146 -0.2782 -0.1371 -0.3900
  955MOL0     C28832   3.813   9.525   3.109  0.3521  0.5320  0.3929
  955MOL0     C28833   3.804   9.636   3.204 -1.1971 -0.7009 -0.2331
  955MOL0    Cl28834   3.959   9.741   3.222  0.8164 -0.3488  0.3565
  955MOL0     C28835   3.738   8.585   3.053  0.2372  0.2817  0.0726
  955MOL0     C28836   3.659   8.477   3.060 -0.2144 -0.0481  0.3126
  955MOL0     O28837   3.696   8.195   3.303 -0.1112 -0.5265 -0.6432
  955MOL0     C28838   3.370   8.103   3.279  1.2814  0.4623  0.8709
  955MOL0     C28839   3.287   7.984   3.278 -0.4972  0.2050 -0.9245
  955MOL0     N28840   2.796   7.507   3.274 -0.4699 -0.8627 -0.4639
  955MOL0     N28841   2.712   7.605   3.276  0.3466  1.0016  0.6219
  955MOL0     C28842   2.336   8.511   3.679  0.6645  0.1774 -0.4019
  955MOL0     C28843   2.206   8.542   3.700 -0.4561  0.5252 -0.1244
  955MOL0     C28844   1.781   8.652   3.650 -0.3694 -0.1940 -0.0510
  955MOL0     C28845   1.679   8.550   3.627  0.4540  0.1621 -0.3699
  955MOL0     C28846   1.551   8.568   3.662  0.2729  0.2462  0.9122
  955MOL0     C28847   1.508   8.694   3.716  0.3582  0.2684  0.6737
  955MOL0     O28848   1.389   8.723   3.760  0.2574 -0.1781  0.6680
  955MOL0     C28849   1.298   8.620   3.809  0.7757  0.4896 -0.4403
  955MOL0     C28850   1.200   8.682   3.910  0.3940  0.1461 -0.1178
  955MOL0     C28851   1.080   8.593   3.938 -0.8308  0.9933  0.4091
  955MOL0     C28852   0.980   8.658   4.033 -0.9335  1.2038  0.3619
  955MOL0     C28853   0.849   8.590   4.031 -0.7637 -0.6707 -0.3945
  955MOL0     C28854   0.744   8.551   4.038  0.2603 -0.1544  0.0692
  955MOL0     C28855   1.596   8.796   3.718  0.1079  1.0330 -0.8766
  955MOL0     C28856   1.736   8.778   3.692 -0.5896 -0.0747 -0.8668
  955MOL0     C28857   1.832   8.886   3.725 -0.2896 -0.5981  0.0997
  955MOL0     H28858   2.181   8.814   3.497 -1.1073 -1.6922 -1.5475
  955MOL0     H28859   2.415   8.757   3.452  1.4471 -2.0159 -0.7346
  955MOL0     H28860   2.628   8.699   3.477  0.4283 -0.4404  0.6139
  955MOL0     H28861   2.748   8.579   3.524 -0.7907  0.6859  3.7335
  955MOL0     H28862   2.689   8.579   3.292 -0.2335  0.1067  1.4653
  955MOL0     H28863   2.521   8.542   3.328 -0.6591 -0.5138 -0.2440
  955MOL0     H28864   2.554   8.333   3.379 -0.9213  1.1358 -2.2797
  955MOL0     H28865   2.713   8.352   3.451 -0.5901 -0.7988 -0.1597
  955MOL0     H28866   2.625   8.313   3.163 -3.8112  0.9308  3.2263
  955MOL0     H28867   2.786   8.389   3.201 -1.9549  3.8345  1.3428
  955MOL0     H28868   2.819   8.140   3.166 -1.7986  0.1398 -0.1473
  955MOL0     H28869   2.848   8.170   3.337 -0.1505 -2.6184  0.2185
  955MOL0     H28870   2.629   8.083   3.397  1.5067  1.3116  0.2109
  955MOL0     H28871   2.584   8.095   3.227  0.6423  1.0311 -1.1945
  955MOL0     H28872   2.816   7.927   3.240 -0.3831  0.9857 -1.2631
  955MOL0     H28873   2.659   7.876   3.183 -1.4944  3.6565  0.0366
  955MOL0     H28874   2.732   7.881   3.467  2.0290 -1.5829  0.7531
  955MOL0     H28875   2.589   7.798   3.405  0.2811  2.0175  1.6345
  955MOL0     H28876   2.943   7.722   3.472 -0.6047 -0.3749 -0.1395
  955MOL0     H28877   2.990   7.410   3.498  0.6814 -0.0027 -0.0769
  955MOL0     H28878   3.005   7.354   3.326 -0.5048 -0.2788  0.4936
  955MOL0     H28879   3.143   7.593   3.444 -1.9306  0.1092  0.3607
  955MOL0     H28880   3.221   7.431   3.411  0.9187  0.3901 -4.2092
  955MOL0     H28881   3.100   7.579   3.190 -1.0627 -1.0451 -2.9355
  955MOL0     H28882   3.213   7.434   3.179 -1.5616  0.1150  1.0131
  955MOL0     H28883   3.339   7.602   3.105  0.9305 -2.7117 -0.2299
  955MOL0     H28884   3.384   7.613   3.277 -0.4880 -2.3217 -0.1819
  955MOL0     H28885   3.531   7.761   3.211 -0.6857 -1.0546  2.9533
  955MOL0     H28886   3.664   7.962   3.197  0.4927  2.1443  1.3826
  955MOL0     H28887   3.618   8.426   3.386  0.0079 -3.8394 -0.7808
  955MOL0     H28888   3.765   8.660   3.374 -2.3362 -0.6328  0.6777
  955MOL0     H28889   3.896   8.771   2.968 -0.4710 -0.5398  0.0919
  955MOL0     H28890   3.794   8.897   3.044 -0.2493  0.5567  0.5117
  955MOL0     H28891   4.002   8.962   3.172  1.4276 -3.2652  0.1222
  955MOL0     H28892   4.096   8.895   3.029  0.6773  1.6844 -1.0269
  955MOL0     H28893   4.035   9.071   2.898  0.3662 -4.7520 -0.8816
  955MOL0     H28894   3.868   9.068   2.968 -0.1616 -3.8663  1.0300
  955MOL0     H28895   4.117   9.228   3.070  0.5508 -1.5867  1.9536
  955MOL0     H28896   3.994   9.182   3.180  2.1256 -0.4586  0.5553
  955MOL0     H28897   3.826   9.289   2.995  0.4678 -2.2638  1.7094
  955MOL0     H28898   3.971   9.372   2.947  0.2108  0.9003  0.2850
  955MOL0     H28899   3.870   9.358   3.229 -1.7878  0.7285 -0.4776
  955MOL0     H28900   4.003   9.467   3.178 -1.2016  0.7092  1.0595
  955MOL0     H28901   3.711   9.486   3.098  0.6410  0.3782 -2.7453
  955MOL0     H28902   3.847   9.566   3.013 -2.4671  3.8228  0.6143
  955MOL0     H28903   3.717   9.698   3.186 -0.2936  0.6271 -0.1458
  955MOL0     H28904   3.788   9.587   3.301 -0.3498  0.3660  0.4699
  955MOL0     H28905   3.762   8.630   2.957 -1.2554  2.0570  0.4683
  955MOL0     H28906   3.625   8.437   2.965  1.0012  2.1738 -1.1339
  955MOL0     H28907   3.313   8.191   3.308  0.9260  1.1612 -1.6784
  955MOL0     H28908   3.184   7.987   3.312  0.1397 -1.9158  1.5335
  955MOL0     H28909   2.378   8.449   3.758 -2.2771 -1.2797  0.1374
  955MOL0     H28910   2.153   8.473   3.766  0.3512 -0.5041 -0.5388
  955MOL0     H28911   1.714   8.449   3.608  0.3070 -0.3431  1.8478
  955MOL0     H28912   1.491   8.478   3.664 -0.8948  1.0139  1.8028
  955MOL0     H28913   1.358   8.545   3.862 -0.0529  2.1887  3.1962
  955MOL0     H28914   1.244   8.581   3.722 -0.7848  3.1390 -0.7500
  955MOL0     H28915   1.160   8.774   3.868 -1.0914 -1.3901 -2.2905
  955MOL0     H28916   1.262   8.689   4.000 -0.2650 -0.7914  0.4368
  955MOL0     H28917   1.125   8.509   3.991  1.6124  2.1374  0.2947
  955MOL0     H28918   1.036   8.565   3.842 -1.5783  2.0808  0.4102
  955MOL0     H28919   1.018   8.664   4.135 -0.9692  2.4816  0.3169
  955MOL0     H28920   0.962   8.764   4.011  1.0808  1.8776  1.7001
  955MOL0     H28921   0.652   8.497   4.034 -1.2562  2.2701  0.4770
  955MOL0     H28922   1.561   8.895   3.748 -0.9635  1.2055 -2.5576
  955MOL0     H28923   1.908   8.891   3.646  0.4016  4.2892  0.7333
  955MOL0     H28924   1.780   8.983   3.725 -1.6391 -1.3006  0.3458
  955MOL0     H28925   1.879   8.868   3.822  0.1112  0.3727  0.0991
  956MOL0     O28926   0.985   1.092   8.443  0.0049  0.5573 -0.6128
  956MOL0     C28927   0.944   0.979   8.438  0.4316  1.3345 -0.2067
  956MOL0     O28928   1.022   0.871   8.405  0.0959 -0.0224 -0.2340
  956MOL0     C28929   1.161   0.867   8.413  0.6488 -0.5339  1.0390
  956MOL0     C28930   1.240   0.962   8.474  0.4024  0.1399 -1.0390
  956MOL0     C28931   1.378   0.957   8.487 -0.4503 -1.1750  0.6061
  956MOL0     C28932   1.442   0.846   8.427  0.1599  0.1069  0.2242
  956MOL0     O28933   1.577   0.827   8.410  0.2878  0.4145  0.5518
  956MOL0     C28934   1.662   0.874   8.511 -0.2146  0.3464 -0.7079
  956MOL0     C28935   1.782   0.921   8.443 -0.5465 -0.5195 -0.4588
  956MOL0     C28936   1.869   0.992   8.549 -0.6134 -0.3760 -0.5164
  956MOL0     C28937   1.991   1.066   8.487  0.2963 -0.1710 -0.5700
  956MOL0     C28938   2.068   1.156   8.576  0.1758 -0.6980 -0.0283
  956MOL0     C28939   2.139   1.091   8.692 -0.2811 -0.1659  0.2496
  956MOL0     C28940   2.238   1.184   8.755  0.6335  0.1006  0.5876
  956MOL0     C28941   2.323   1.112   8.861  0.4305  0.1048  1.3317
  956MOL0     N28942   2.443   1.191   8.907  0.4102 -0.0113  0.5090
  956MOL0     C28943   2.556   1.191   8.847  0.2887 -0.1341  0.2836
  956MOL0     C28944   2.642   1.259   8.921  0.5151 -0.2009 -0.9326
  956MOL0     C28945   2.790   1.281   8.899 -0.4318  0.1582  0.3471
  956MOL0     C28946   2.868   1.151   8.877 -1.3142  0.2195  0.6139
  956MOL0     C28947   3.018   1.162   8.868 -0.3648 -0.0066  0.2055
  956MOL0     C28948   3.084   1.207   8.731  0.0294 -0.4333 -0.6679
  956MOL0     O28949   3.058   1.119   8.624 -0.3235 -0.5550  0.6891
  956MOL0     C28950   3.119   1.152   8.504 -0.2251 -0.5761  0.3245
  956MOL0     C28951   3.049   1.132   8.389 -0.0112  0.3669 -1.1638
  956MOL0     C28952   3.095   1.162   8.264 -0.6512  0.3795 -0.4375
  956MOL0     C28953   3.224   1.215   8.255 -0.5804 -0.1922  1.6561
  956MOL0     C28954   3.285   1.244   8.124 -0.4878  0.3325  0.3870
  956MOL0     O28955   3.411   1.273   8.115 -0.4694 -0.3069 -0.0403
  956MOL0     C28956   3.459   1.335   8.003  0.4245 -0.3784  0.1099
  956MOL0     C28957   3.531   1.258   7.904 -0.0267 -0.8674 -0.5177
  956MOL0     C28958   3.586   1.312   7.793 -0.1163 -0.2996  0.1190
  956MOL0     C28959   3.558   1.443   7.766 -0.0592  0.1229  0.4769
  956MOL0     O28960   3.629   1.494   7.658  0.6767  0.2121 -0.4332
  956MOL0     C28961   3.686   1.629   7.666  0.3474 -0.3823 -0.1008
  956MOL0     C28962   3.738   1.677   7.529  0.6020 -0.7209 -0.6951
  956MOL0     C28963   3.627   1.666   7.425 -0.3518  0.6766 -0.2576
  956MOL0     C28964   3.629   1.787   7.340  1.0280  0.0881  0.6333
  956MOL0     C28965   3.506   1.811   7.252 -0.0377  0.4810 -0.1145
  956MOL0     C28966   3.493   1.723   7.128 -0.2254  0.1890  0.1599
  956MOL0     C28967   3.593   1.768   7.021  0.2045  0.8772 -0.1797
  956MOL0     C28968   3.659   1.632   6.972  0.4674 -0.8108  0.1665
  956MOL0    Cl28969   3.780   1.584   7.078 -0.5210  0.1760 -0.1618
  956MOL0     C28970   3.503   1.523   7.869 -0.1094 -0.3660  0.3729
  956MOL0     C28971   3.450   1.472   7.987  0.0211 -0.7254 -0.6074
  956MOL0     O28972   3.213   1.246   8.029 -0.2069  0.7946  0.1591
  956MOL0     C28973   3.297   1.233   8.371 -0.2039  0.1443  0.6001
  956MOL0     C28974   3.254   1.204   8.492  0.3973 -0.1017 -0.8131
  956MOL0     N28975   2.574   1.296   9.038 -1.1195  0.2687 -0.4415
  956MOL0     N28976   2.455   1.264   9.026  0.6117  0.5558 -0.0218
  956MOL0     C28977   1.364   0.762   8.350 -0.5012 -0.9298 -0.6631
  956MOL0     C28978   1.227   0.764   8.344  0.1826  0.1731 -0.9481
  956MOL0     C28979   0.801   0.959   8.460  0.1963 -0.8289  0.3707
  956MOL0     C28980   0.747   1.047   8.557 -1.0329  0.2458  0.2829
  956MOL0     C28981   0.610   1.045   8.594 -0.7292  0.0911 -0.3048
  956MOL0     C28982   0.523   0.957   8.520 -1.4734  0.0097  0.4178
  956MOL0     O28983   0.397   0.970   8.560 -0.6959  0.3811  0.8672
  956MOL0     C28984   0.301   0.871   8.515  0.1995  0.2713 -0.0176
  956MOL0     C28985   0.312   0.745   8.599 -0.1793  0.3361  0.0734
  956MOL0     C28986   0.189   0.659   8.576 -0.1333  0.2842  0.4804
  956MOL0     C28987   0.207   0.527   8.654 -0.0026  1.2082 -0.4686
  956MOL0     C28988   0.221   0.540   8.800 -0.1756 -0.2706  0.4379
  956MOL0     C28989   0.220   0.537   8.918  0.0500  0.8638 -0.5700
  956MOL0     C28990   0.582   0.866   8.425  0.0734 -0.2442 -0.0922
  956MOL0     C28991   0.715   0.865   8.390 -0.9754 -0.1827 -1.3483
  956MOL0     C28992   0.770   0.759   8.291 -0.2268 -0.7314 -1.1381
  956MOL0     H28993   1.196   1.047   8.524  0.1257 -0.5119 -0.1361
  956MOL0     H28994   1.433   1.031   8.543  2.0677 -0.2647 -2.7286
  956MOL0     H28995   1.613   0.947   8.577 -1.4291 -0.7373 -0.3693
  956MOL0     H28996   1.690   0.798   8.585 -2.1705  1.9182  1.8568
  956MOL0     H28997   1.758   1.000   8.371  0.0186  1.8605  1.7800
  956MOL0     H28998   1.843   0.842   8.398  1.8957 -0.6981  2.8001
  956MOL0     H28999   1.920   0.925   8.618 -0.9607  1.1061  1.2398
  956MOL0     H29000   1.825   1.070   8.611  2.0284  0.4494  0.4295
  956MOL0     H29001   2.064   0.993   8.452 -0.3511 -1.3057  0.3545
  956MOL0     H29002   1.952   1.127   8.405  3.0028  1.7199 -0.5863
  956MOL0     H29003   2.130   1.219   8.511 -0.8303  0.1800 -0.1669
  956MOL0     H29004   1.993   1.224   8.618 -0.3477  0.5683 -2.7275
  956MOL0     H29005   2.071   1.062   8.773 -0.7160 -1.1752 -0.4538
  956MOL0     H29006   2.192   1.007   8.645 -1.3134  0.9508 -3.2160
  956MOL0     H29007   2.196   1.272   8.805  4.1543  2.8273 -0.8423
  956MOL0     H29008   2.301   1.237   8.684 -2.2993  0.8466 -1.6664
  956MOL0     H29009   2.258   1.087   8.945  0.2354 -2.5530  0.4739
  956MOL0     H29010   2.351   1.016   8.816 -1.0503  0.9244 -1.6111
  956MOL0     H29011   2.570   1.140   8.752  0.5722 -0.9369  0.7504
  956MOL0     H29012   2.800   1.340   8.807 -1.0084 -1.4595 -0.8054
  956MOL0     H29013   2.833   1.323   8.991  1.9714 -1.3890  0.0310
  956MOL0     H29014   2.840   1.087   8.961  0.9896 -0.2197  1.1112
  956MOL0     H29015   2.836   1.107   8.782 -0.0146 -0.4675  0.4709
  956MOL0     H29016   3.061   1.072   8.913  0.2216  0.1121 -0.1094
  956MOL0     H29017   3.048   1.232   8.947 -1.9061  1.2571 -0.2737
  956MOL0     H29018   3.191   1.218   8.750  0.0997 -0.7397 -0.8851
  956MOL0     H29019   3.038   1.303   8.703 -0.2112 -0.1750  0.5446
  956MOL0     H29020   2.954   1.084   8.408  1.4889 -1.0940  4.5327
  956MOL0     H29021   3.032   1.137   8.179 -1.1249 -0.0458  0.0286
  956MOL0     H29022   3.536   1.151   7.917  0.3656 -1.0185 -1.7501
  956MOL0     H29023   3.648   1.260   7.721  0.2227  0.8980 -0.4827
  956MOL0     H29024   3.620   1.699   7.718  1.7421 -1.5704  3.5896
  956MOL0     H29025   3.768   1.626   7.739  0.3012  2.2457  0.1652
  956MOL0     H29026   3.770   1.779   7.552  1.2340 -1.2108  0.6728
  956MOL0     H29027   3.829   1.618   7.515  0.3990 -1.2951  0.3318
  956MOL0     H29028   3.649   1.586   7.355  1.9542  1.0917 -0.0956
  956MOL0     H29029   3.532   1.657   7.479  0.2930  2.3627  1.2729
  956MOL0     H29030   3.713   1.788   7.269 -1.2244  0.0934 -2.2069
  956MOL0     H29031   3.631   1.871   7.410 -3.3974  2.8140 -2.0223
  956MOL0     H29032   3.500   1.920   7.239 -1.6521  0.4459  0.1723
  956MOL0     H29033   3.421   1.794   7.318  0.9224  0.8947  1.2854
  956MOL0     H29034   3.506   1.616   7.147 -1.5101 -0.0783 -0.3608
  956MOL0     H29035   3.394   1.749   7.089 -0.4127  0.2414  0.6681
  956MOL0     H29036   3.676   1.831   7.056  0.9576 -0.7228  1.0595
  956MOL0     H29037   3.541   1.809   6.934  0.7870  0.2312 -0.8418
  956MOL0     H29038   3.580   1.557   6.959 -2.7777  1.5622  3.7976
  956MOL0     H29039   3.715   1.661   6.883 -3.4448  3.0663 -1.3670
  956MOL0     H29040   3.490   1.630   7.862 -1.5392 -0.3664  2.4420
  956MOL0     H29041   3.402   1.540   8.057  1.3934  1.2837 -1.5350
  956MOL0     H29042   3.396   1.275   8.361 -0.3185  1.2590  3.1947
  956MOL0     H29043   3.318   1.208   8.580 -0.9186  0.3711  0.1610
  956MOL0     H29044   1.425   0.675   8.325  0.7928 -0.2572  0.0317
  956MOL0     H29045   1.170   0.686   8.294 -0.9567 -1.1098  2.1536
  956MOL0     H29046   0.817   1.103   8.618  0.2527  1.8522 -2.4745
  956MOL0     H29047   0.570   1.104   8.675  1.1444  0.6288  0.2635
  956MOL0     H29048   0.306   0.843   8.409  0.9158  1.0295 -0.1983
  956MOL0     H29049   0.207   0.924   8.532  0.8938  2.1465 -1.6059
  956MOL0     H29050   0.316   0.769   8.705  3.3014  2.7676 -0.4680
  956MOL0     H29051   0.402   0.695   8.562 -3.2728 -2.1487 -5.3169
  956MOL0     H29052   0.183   0.636   8.470 -0.1772 -1.4650  0.8390
  956MOL0     H29053   0.095   0.700   8.615 -0.6597 -0.6083  0.1839
  956MOL0     H29054   0.119   0.463   8.636 -0.1861  0.9925  1.0748
  956MOL0     H29055   0.300   0.480   8.621 -2.2375 -4.8101  0.5133
  956MOL0     H29056   0.217   0.537   9.025 -1.2029 -1.2417 -0.5496
  956MOL0     H29057   0.528   0.781   8.383  3.2331 -1.6152 -1.7680
  956MOL0     H29058   0.876   0.732   8.298 -0.1997 -0.7579 -1.6397
  956MOL0     H29059   0.710   0.671   8.311 -0.2038 -0.7324 -1.0741
  956MOL0     H29060   0.740   0.791   8.191  1.8994  0.7531 -1.3722
  957MOL0     O29061   3.067  11.063   2.341 -0.0563  0.2855 -0.0079
  957MOL0     C29062   2.989  11.149   2.312 -0.9199 -0.7702  0.4816
  957MOL0     O29063   2.930  11.241   2.388 -0.7507  0.3816  0.0700
  957MOL0     C29064   2.950  11.229   2.523 -0.3673 -0.4717 -1.1203
  957MOL0     C29065   3.063  11.274   2.590 -0.4944  0.3845  0.6773
  957MOL0     C29066   3.090  11.255   2.727 -0.3956 -0.1274  0.7913
  957MOL0     C29067   2.991  11.190   2.804 -0.0295  0.2324 -0.2137
  957MOL0     O29068   2.999  11.156   2.935 -1.0151  0.4272 -0.7304
  957MOL0     C29069   3.133  11.144   2.984  0.3106  1.0294 -0.1331
  957MOL0     C29070   3.120  11.073   3.119 -0.0070 -0.0268 -0.4437
  957MOL0     C29071   3.248  11.070   3.213  0.3110  0.8241 -0.1426
  957MOL0     C29072   3.214  11.087   3.362 -0.6433  1.2006 -0.2626
  957MOL0     C29073   3.342  11.108   3.438  0.1029 -1.1202  0.3852
  957MOL0     C29074   3.338  11.077   3.586  0.1055  0.7961  0.3006
  957MOL0     C29075   3.235  11.152   3.673 -0.0912  0.5943 -0.0788
  957MOL0     C29076   3.243  11.085   3.814  0.1713 -0.9722 -0.0023
  957MOL0     N29077   3.144  11.148   3.907  0.6748  0.2024  0.4907
  957MOL0     C29078   3.009  11.115   3.910 -0.1399 -0.3547 -0.5296
  957MOL0     C29079   2.964  11.190   4.023  0.0693 -0.8212 -0.1280
  957MOL0     C29080   2.822  11.179   4.081 -1.0597  0.4395 -0.6535
  957MOL0     C29081   2.703  11.169   3.983  0.0194 -0.4724 -0.5935
  957MOL0     C29082   2.558  11.176   4.050 -0.0094 -0.1828  1.0040
  957MOL0     C29083   2.452  11.159   3.933 -0.5993  0.1480 -0.3230
  957MOL0     O29084   2.324  11.195   3.980 -0.2621 -0.4954  0.0608
  957MOL0     C29085   2.271  11.117   4.077 -0.3701  0.4104  0.9392
  957MOL0     C29086   2.292  10.976   4.101  0.3946 -0.5198 -0.0545
  957MOL0     C29087   2.219  10.903   4.197 -0.1919  0.2877 -0.1735
  957MOL0     C29088   2.125  10.971   4.272 -0.0606  0.0608  0.7254
  957MOL0     C29089   2.035  10.898   4.361  0.9162 -0.1206 -0.9177
  957MOL0     O29090   2.101  10.789   4.415 -0.0179  0.0884  1.1659
  957MOL0     C29091   2.039  10.692   4.501  0.2706 -0.8035 -0.1283
  957MOL0     C29092   1.914  10.639   4.470  0.1190  0.5107  0.1783
  957MOL0     C29093   1.854  10.542   4.549 -0.5896 -0.4788  0.3501
  957MOL0     C29094   1.917  10.498   4.670  0.1692 -0.4142 -0.2179
  957MOL0     O29095   1.865  10.401   4.748 -0.3312 -0.4973 -0.6475
  957MOL0     C29096   1.844  10.273   4.686 -0.1713  0.4214  0.9475
  957MOL0     C29097   1.793  10.161   4.786  0.5116 -0.7673 -0.1617
  957MOL0     C29098   1.677  10.078   4.731  0.5977  1.1234 -0.0912
  957MOL0     C29099   1.700  10.010   4.590  1.1430 -0.5087  0.0963
  957MOL0     C29100   1.786   9.885   4.599  0.4976 -0.4968  0.0912
  957MOL0     C29101   1.814   9.823   4.460 -0.0402  0.7185  0.3863
  957MOL0     C29102   1.880   9.692   4.448  0.7441 -0.2112 -0.4224
  957MOL0     C29103   1.947   9.661   4.320 -0.1308 -0.1600  0.4840
  957MOL0    Cl29104   1.854   9.520   4.252  0.2838  0.0594 -0.2827
  957MOL0     C29105   2.036  10.560   4.702  0.1440  0.1750 -0.4238
  957MOL0     C29106   2.101  10.655   4.619 -0.4057 -0.9542  0.2700
  957MOL0     O29107   1.916  10.925   4.377  0.9266  0.3431 -0.8554
  957MOL0     C29108   2.108  11.108   4.258  0.4607 -0.8445  0.0854
  957MOL0     C29109   2.176  11.173   4.159  0.1007 -0.3494 -0.5348
  957MOL0     N29110   3.064  11.266   4.075 -0.7473  0.1379  0.6507
  957MOL0     N29111   3.170  11.233   4.004 -0.4727 -0.3467  0.2550
  957MOL0     C29112   2.871  11.154   2.741 -0.1359  0.5411 -0.6173
  957MOL0     C29113   2.852  11.182   2.608  1.1461 -1.2613 -0.4526
  957MOL0     C29114   2.988  11.170   2.163  0.1256 -0.1068  0.4516
  957MOL0     C29115   2.996  11.301   2.118 -0.4316 -0.4536 -0.8887
  957MOL0     C29116   2.974  11.336   1.991 -0.9073 -0.1205  0.4162
  957MOL0     C29117   2.979  11.236   1.891  0.8404  0.3680 -0.7143
  957MOL0     O29118   2.964  11.275   1.760  0.0052 -0.1373 -0.5585
  957MOL0     C29119   2.956  11.168   1.660  1.2200 -1.0519  0.0075
  957MOL0     C29120   2.947  11.219   1.519  1.1834 -0.8927  0.4156
  957MOL0     C29121   3.074  11.294   1.488 -0.6952  0.1026  0.3234
  957MOL0     C29122   3.200  11.208   1.490 -0.3359  0.4308 -0.3739
  957MOL0     C29123   3.313  11.300   1.454 -0.1647  0.3759 -0.0269
  957MOL0     C29124   3.418  11.363   1.419  0.1383 -0.3905  0.6101
  957MOL0     C29125   2.963  11.103   1.935 -0.4685  0.0804  0.0684
  957MOL0     C29126   2.975  11.065   2.075  0.4988 -0.4972 -0.6439
  957MOL0     C29127   2.935  10.929   2.127  0.9016  0.4235  0.2016
  957MOL0     H29128   3.136  11.317   2.522 -1.5978  0.2355 -0.6599
  957MOL0     H29129   3.178  11.292   2.778  0.5616 -3.8021  2.1296
  957MOL0     H29130   3.185  11.070   2.922 -0.5920 -2.2141  2.6602
  957MOL0     H29131   3.184  11.241   2.991  0.1587  1.0225  1.6244
  957MOL0     H29132   3.081  10.973   3.103 -0.9545  0.4026 -0.8988
  957MOL0     H29133   3.036  11.122   3.169  1.4292  0.8504  1.2518
  957MOL0     H29134   3.321  11.142   3.176 -2.0928  3.0091 -0.9123
  957MOL0     H29135   3.300  10.974   3.207 -4.6979 -2.2450 -0.5046
  957MOL0     H29136   3.156  11.179   3.378  2.3806  3.2822 -0.4112
  957MOL0     H29137   3.147  11.011   3.405 -2.9938  2.5130 -1.4068
  957MOL0     H29138   3.420  11.055   3.383  1.7015  0.7074  0.7803
  957MOL0     H29139   3.378  11.210   3.417  0.9042 -1.4023  0.3553
  957MOL0     H29140   3.303  10.973   3.582 -0.4581  1.0270 -2.2249
  957MOL0     H29141   3.436  11.084   3.635  0.5471  1.5646 -0.6567
  957MOL0     H29142   3.131  11.146   3.641 -0.8355 -0.4359  2.3364
  957MOL0     H29143   3.250  11.261   3.672  1.1397  0.4464  0.7303
  957MOL0     H29144   3.234  10.976   3.817 -1.8697 -0.8302  0.5560
  957MOL0     H29145   3.343  11.118   3.845 -0.6175  1.5197  0.0851
  957MOL0     H29146   2.950  11.041   3.857 -0.0774 -2.5184  2.1697
  957MOL0     H29147   2.823  11.084   4.134  1.3168  0.6146 -0.3090
  957MOL0     H29148   2.818  11.265   4.149  4.8032  2.4910 -2.3159
  957MOL0     H29149   2.718  11.237   3.899 -1.2801 -1.5275 -1.7314
  957MOL0     H29150   2.711  11.072   3.934  1.1508 -0.9280  0.4371
  957MOL0     H29151   2.554  11.276   4.094  0.6317  0.9968 -1.4442
  957MOL0     H29152   2.555  11.096   4.124 -5.1936 -0.8119  0.4999
  957MOL0     H29153   2.449  11.057   3.893 -1.2623 -0.4109  1.0772
  957MOL0     H29154   2.475  11.241   3.864 -0.1272  2.7986  2.7275
  957MOL0     H29155   2.364  10.933   4.032  0.7372  1.8188 -1.2673
  957MOL0     H29156   2.229  10.795   4.196  1.2376  0.3583 -3.3161
  957MOL0     H29157   1.866  10.666   4.377 -1.8037  0.5794  1.1367
  957MOL0     H29158   1.758  10.498   4.523 -0.1493 -2.4683  1.7781
  957MOL0     H29159   1.761  10.285   4.617  0.1142 -2.9466 -0.1445
  957MOL0     H29160   1.933  10.234   4.635  1.8753  4.2107  1.2309
  957MOL0     H29161   1.877  10.092   4.796  0.9504 -0.2708 -0.4009
  957MOL0     H29162   1.771  10.207   4.883 -1.0778 -1.5919 -0.1040
  957MOL0     H29163   1.646  10.004   4.805 -0.4604 -1.4343 -2.8786
  957MOL0     H29164   1.592  10.144   4.710 -1.5238 -1.2622  0.5277
  957MOL0     H29165   1.732  10.083   4.515  0.7280 -0.7658 -0.3377
  957MOL0     H29166   1.601   9.988   4.550  0.0006 -0.2016  2.5726
  957MOL0     H29167   1.742   9.813   4.668  0.6833 -2.0548 -1.3651
  957MOL0     H29168   1.879   9.921   4.644  0.2312  2.5699 -1.5445
  957MOL0     H29169   1.724   9.818   4.397  0.4936  2.6831 -0.6319
  957MOL0     H29170   1.875   9.899   4.410 -0.6889  2.0797  1.6125
  957MOL0     H29171   1.807   9.618   4.481 -0.7867  0.9873 -1.0500
  957MOL0     H29172   1.954   9.690   4.530  0.1227  1.3209  0.2139
  957MOL0     H29173   1.942   9.747   4.252 -2.5802  1.6475  2.7496
  957MOL0     H29174   2.049   9.626   4.338 -0.3950 -1.4265 -0.3223
  957MOL0     H29175   2.075  10.515   4.793 -2.8626 -1.8409  0.0157
  957MOL0     H29176   2.203  10.687   4.638  0.3392 -1.6521 -2.2054
  957MOL0     H29177   2.039  11.162   4.322 -1.0209 -1.1717 -1.1800
  957MOL0     H29178   2.140  11.271   4.128  0.0766 -0.0975  0.2665
  957MOL0     H29179   2.793  11.108   2.800  1.0437 -1.1019 -0.2760
  957MOL0     H29180   2.758  11.162   2.557  1.0292 -0.7506 -0.4369
  957MOL0     H29181   2.997  11.384   2.187  0.3779  0.6590 -2.1744
  957MOL0     H29182   2.967  11.434   1.944  1.7123 -1.0738 -2.2824
  957MOL0     H29183   2.869  11.104   1.677  1.6311 -2.3155 -2.1690
  957MOL0     H29184   3.044  11.105   1.674  1.9097 -0.3891 -1.1321
  957MOL0     H29185   2.864  11.290   1.526 -2.0634 -4.4157  0.8372
  957MOL0     H29186   2.926  11.150   1.437 -0.3724  1.8097 -1.6188
  957MOL0     H29187   3.083  11.383   1.552  2.3571 -0.6634  1.1269
  957MOL0     H29188   3.061  11.326   1.385 -2.8512 -0.4695  0.3644
  957MOL0     H29189   3.219  11.150   1.581 -4.0586  2.0415  1.6368
  957MOL0     H29190   3.181  11.132   1.413  3.3582  0.3765 -1.4220
  957MOL0     H29191   3.505  11.424   1.406 -1.1632  1.2161 -1.0307
  957MOL0     H29192   2.951  11.025   1.861 -1.2742  2.1202 -2.0684
  957MOL0     H29193   3.015  10.872   2.176  0.2723 -0.3524  0.3444
  957MOL0     H29194   2.858  10.956   2.200 -1.3905  1.6474 -2.4848
  957MOL0     H29195   2.893  10.865   2.049  2.5678 -1.6992  0.9461
  958MOL0     O29196   4.987   2.813   1.048 -0.0646 -0.1320  0.0133
  958MOL0     C29197   4.983   2.726   1.133 -0.2872 -0.3372 -0.0860
  958MOL0     O29198   5.027   2.599   1.124 -0.5536 -0.1612 -0.1869
  958MOL0     C29199   5.091   2.556   1.015 -0.3084  0.3640  1.1013
  958MOL0     C29200   5.093   2.420   1.008  0.2908  0.7003  0.0924
  958MOL0     C29201   5.178   2.348   0.922  0.2299 -0.1781  0.2861
  958MOL0     C29202   5.228   2.423   0.815 -0.2472  0.4656  0.4316
  958MOL0     O29203   5.281   2.331   0.725  0.3628  0.3121  0.4300
  958MOL0     C29204   5.341   2.358   0.603  0.4391  0.3638  0.0771
  958MOL0     C29205   5.483   2.420   0.618  0.5141  0.2081  0.2278
  958MOL0     C29206   5.560   2.345   0.723 -0.2024  0.2896 -0.5782
  958MOL0     C29207   5.683   2.415   0.773  0.2734  0.5430 -0.2807
  958MOL0     C29208   5.756   2.319   0.867 -0.4605  1.2965  1.4239
  958MOL0     C29209   5.846   2.220   0.806 -0.3923 -0.3938 -0.3783
  958MOL0     C29210   5.922   2.131   0.905 -0.2329 -0.8016 -0.1843
  958MOL0     C29211   6.004   2.194   1.019  0.6514  0.3641  0.0049
  958MOL0     N29212   6.105   2.290   0.975 -0.0317  0.7617  0.6849
  958MOL0     C29213   6.236   2.275   0.942 -0.7641  0.2342  0.3525
  958MOL0     C29214   6.287   2.399   0.954 -0.4090  0.2124 -0.4485
  958MOL0     C29215   6.433   2.440   0.930  0.0186  1.5506  0.0313
  958MOL0     C29216   6.507   2.345   0.827  0.0033 -1.3022 -0.7593
  958MOL0     C29217   6.643   2.412   0.792  0.5334 -0.2608  0.2236
  958MOL0     C29218   6.737   2.454   0.911  1.0957  0.9446 -0.0243
  958MOL0     O29219   6.748   2.333   0.984  0.0755  0.1584  0.5129
  958MOL0     C29220   6.806   2.347   1.110  0.1988 -0.2408  0.1193
  958MOL0     C29221   6.889   2.454   1.148 -0.0367 -0.0464  1.0703
  958MOL0     C29222   6.942   2.464   1.278  0.9131  0.0273 -0.1402
  958MOL0     C29223   6.919   2.358   1.371  1.3624 -0.7600  0.2958
  958MOL0     C29224   6.985   2.355   1.500  0.1376 -0.5496  0.1764
  958MOL0     O29225   7.051   2.466   1.539 -0.3146 -0.5180 -0.1642
  958MOL0     C29226   7.153   2.470   1.635  0.1624  0.3686  0.7494
  958MOL0     C29227   7.170   2.584   1.710  0.2988 -1.0527  0.9206
  958MOL0     C29228   7.274   2.599   1.795  0.9829  0.8772 -0.7035
  958MOL0     C29229   7.366   2.488   1.808  0.9717 -0.3595 -0.4609
  958MOL0     O29230   7.454   2.519   1.909  0.1105  0.1285  0.3797
  958MOL0     C29231   7.564   2.425   1.921  0.4541 -0.1315 -0.3689
  958MOL0     C29232   7.679   2.460   1.826 -0.3100 -0.0741 -0.4826
  958MOL0     C29233   7.733   2.605   1.835  0.3989  0.2480  0.2386
  958MOL0     C29234   7.880   2.622   1.880 -0.1696 -0.5577  0.8517
  958MOL0     C29235   7.928   2.769   1.855 -0.0649 -0.6263  0.1852
  958MOL0     C29236   8.078   2.794   1.898  0.2204 -0.2770 -0.0387
  958MOL0     C29237   8.135   2.740   2.029  1.2613 -0.4451 -0.5489
  958MOL0     C29238   8.077   2.801   2.159 -0.9372  0.8497 -0.2313
  958MOL0    Cl29239   8.065   2.972   2.157  0.1543 -0.4492  0.2000
  958MOL0     C29240   7.357   2.371   1.727  0.1038  0.0000  0.0182
  958MOL0     C29241   7.248   2.358   1.640 -0.1266 -0.0601  0.4288
  958MOL0     O29242   6.984   2.248   1.560  0.2143 -0.8561 -0.1148
  958MOL0     C29243   6.821   2.263   1.336 -0.0329 -0.3246  0.6770
  958MOL0     C29244   6.768   2.260   1.207  0.6370 -0.5307 -1.0184
  958MOL0     N29245   6.193   2.492   0.967 -0.5561 -0.4217 -0.0144
  958MOL0     N29246   6.082   2.425   0.973 -0.4198 -0.5949 -0.3696
  958MOL0     C29247   5.225   2.558   0.811 -1.2489 -1.0115 -0.0904
  958MOL0     C29248   5.155   2.625   0.909 -0.1696 -0.6756 -0.9050
  958MOL0     C29249   4.937   2.759   1.269  0.2780  1.1114  0.3922
  958MOL0     C29250   4.868   2.661   1.348  1.9781  0.4938  0.4598
  958MOL0     C29251   4.816   2.689   1.478  0.8158 -0.4185 -0.1862
  958MOL0     C29252   4.829   2.816   1.537 -0.9537 -0.1760  0.2734
  958MOL0     O29253   4.762   2.843   1.656  0.2589 -0.8634  0.5589
  958MOL0     C29254   4.817   2.948   1.745 -0.1575  0.1359  0.2804
  958MOL0     C29255   4.746   2.968   1.881 -0.6249 -0.6112 -0.7111
  958MOL0     C29256   4.687   2.846   1.952 -0.5871 -0.7639  0.4112
  958MOL0     C29257   4.578   2.874   2.054  0.3578 -0.0436  0.6114
  958MOL0     C29258   4.553   2.757   2.130  0.7924  1.5737 -0.5130
  958MOL0     C29259   4.547   2.652   2.191 -0.3111  0.4617 -0.4904
  958MOL0     C29260   4.904   2.922   1.458 -0.2468  0.3029 -0.2572
  958MOL0     C29261   4.958   2.887   1.331  0.4696  0.5458  0.4015
  958MOL0     C29262   5.038   2.998   1.260  0.3014  0.7709  0.6975
  958MOL0     H29263   5.044   2.360   1.084  1.3483 -1.1010 -0.5842
  958MOL0     H29264   5.190   2.241   0.932 -0.8446 -0.1472  2.2435
  958MOL0     H29265   5.366   2.261   0.560  0.4425 -0.5700  2.0387
  958MOL0     H29266   5.275   2.414   0.537  0.4137  1.9531  1.3634
  958MOL0     H29267   5.487   2.527   0.640 -2.7581  0.5087 -0.0598
  958MOL0     H29268   5.526   2.406   0.519  0.2025  0.0741  0.1108
  958MOL0     H29269   5.594   2.248   0.685 -1.2964 -0.0899 -0.6245
  958MOL0     H29270   5.496   2.314   0.806  0.7421 -1.3168 -0.3950
  958MOL0     H29271   5.743   2.465   0.696 -0.1832 -1.1379 -1.7958
  958MOL0     H29272   5.650   2.498   0.835 -1.9927 -0.2146 -0.3533
  958MOL0     H29273   5.826   2.386   0.918 -2.4409  4.0095  0.7900
  958MOL0     H29274   5.692   2.257   0.929 -0.9053 -0.7440 -0.9383
  958MOL0     H29275   5.792   2.148   0.743 -3.7213 -2.0185  3.8454
  958MOL0     H29276   5.925   2.272   0.749 -1.4569  1.1651 -0.4889
  958MOL0     H29277   5.996   2.069   0.853 -0.7531 -1.4386 -0.1768
  958MOL0     H29278   5.849   2.060   0.944  0.9815 -2.4518 -0.8137
  958MOL0     H29279   5.936   2.240   1.091  1.0654  1.5224 -0.3243
  958MOL0     H29280   6.063   2.115   1.066 -0.0773  0.0101  0.3380
  958MOL0     H29281   6.300   2.189   0.924 -0.2023  1.3273 -3.7344
  958MOL0     H29282   6.440   2.543   0.894 -2.3489  1.9450  0.5054
  958MOL0     H29283   6.484   2.428   1.026 -0.8527 -0.5579  0.2788
  958MOL0     H29284   6.526   2.248   0.873  1.5289 -0.6046  0.1491
  958MOL0     H29285   6.453   2.345   0.731 -3.6920  0.0750  1.1006
  958MOL0     H29286   6.624   2.491   0.718 -2.1237  1.0764  2.1303
  958MOL0     H29287   6.695   2.339   0.729 -1.0635  1.4251 -3.3545
  958MOL0     H29288   6.703   2.529   0.982  0.2723  0.4685  0.0934
  958MOL0     H29289   6.825   2.491   0.858  0.3076  0.3841 -1.8108
  958MOL0     H29290   6.912   2.524   1.068  0.7439 -0.1878  1.1611
  958MOL0     H29291   7.000   2.549   1.313 -2.0470  1.4428  1.6527
  958MOL0     H29292   7.100   2.667   1.707 -0.1168 -1.2004  3.7356
  958MOL0     H29293   7.283   2.684   1.861 -1.2889  1.5874 -1.2211
  958MOL0     H29294   7.600   2.434   2.024  0.5418  0.2340 -0.4292
  958MOL0     H29295   7.537   2.320   1.915 -1.6833  0.3830 -0.4826
  958MOL0     H29296   7.764   2.394   1.848  0.5096 -0.5556 -4.4473
  958MOL0     H29297   7.658   2.442   1.720  1.0459  1.9201 -1.1504
  958MOL0     H29298   7.720   2.652   1.737  0.8613  3.5129  1.6006
  958MOL0     H29299   7.676   2.665   1.906  2.3469  1.2960  1.0029
  958MOL0     H29300   7.948   2.564   1.817  1.1540  1.2443  0.5416
  958MOL0     H29301   7.882   2.606   1.988  0.9533  1.0117  1.1014
  958MOL0     H29302   7.871   2.841   1.914 -1.7765 -1.7372 -0.0508
  958MOL0     H29303   7.902   2.796   1.753  0.9394 -0.7911 -0.1262
  958MOL0     H29304   8.145   2.764   1.817  1.5491  2.6518 -0.1537
  958MOL0     H29305   8.098   2.901   1.899  0.3258 -0.2379 -2.1345
  958MOL0     H29306   8.244   2.754   2.028  0.9974  1.9451 -1.3351
  958MOL0     H29307   8.120   2.632   2.042 -1.7334 -0.0306  0.1517
  958MOL0     H29308   7.981   2.750   2.172 -0.9814  1.5532  2.8905
  958MOL0     H29309   8.137   2.767   2.244  0.9196  1.1530 -1.3617
  958MOL0     H29310   7.432   2.293   1.725 -0.6702 -0.7587 -0.2846
  958MOL0     H29311   7.227   2.272   1.578 -0.8475  1.5218 -1.6568
  958MOL0     H29312   6.783   2.180   1.395 -0.0719 -1.0939 -0.4000
  958MOL0     H29313   6.676   2.205   1.188 -1.6592  2.6036  0.1061
  958MOL0     H29314   5.256   2.614   0.723  0.9308  1.1872  1.9187
  958MOL0     H29315   5.139   2.732   0.904 -0.9507 -0.5766  1.9796
  958MOL0     H29316   4.844   2.563   1.308  3.4737 -0.7605  2.4334
  958MOL0     H29317   4.765   2.603   1.521 -0.2405  0.7775  1.0147
  958MOL0     H29318   4.812   3.050   1.705  1.2024  0.2341  0.2989
  958MOL0     H29319   4.924   2.939   1.765 -0.0135  3.2285  1.3925
  958MOL0     H29320   4.669   3.044   1.870 -0.5358 -0.7187 -2.3117
  958MOL0     H29321   4.819   3.012   1.950 -1.2438  1.0542 -1.0689
  958MOL0     H29322   4.768   2.789   1.998 -0.1072 -1.0042 -0.7004
  958MOL0     H29323   4.648   2.778   1.877  0.8145 -0.9875 -0.1555
  958MOL0     H29324   4.618   2.954   2.116 -0.2000 -1.6958  3.2259
  958MOL0     H29325   4.490   2.898   1.993  1.1938  0.4461 -0.4534
  958MOL0     H29326   4.517   2.560   2.237 -2.3834  1.5039  0.3777
  958MOL0     H29327   4.926   3.015   1.509  2.0462 -0.9849  1.3398
  958MOL0     H29328   5.143   2.980   1.240 -0.1220  0.7532 -1.9063
  958MOL0     H29329   4.980   3.015   1.168 -1.0992 -0.5578  1.2932
  958MOL0     H29330   5.023   3.089   1.319 -2.9271 -1.7672  4.2754
  959MOL0     O29331   5.498   1.628   3.880  0.1340  0.0773 -0.1454
  959MOL0     C29332   5.535   1.745   3.875 -1.0353 -0.0909  0.6472
  959MOL0     O29333   5.586   1.805   3.759  0.3160 -0.4171 -0.4361
  959MOL0     C29334   5.547   1.759   3.633 -0.5140  0.2199  0.0860
  959MOL0     C29335   5.447   1.825   3.562  0.7219 -0.3317  0.2166
  959MOL0     C29336   5.401   1.768   3.439 -0.0348  0.1554  0.5607
  959MOL0     C29337   5.470   1.660   3.381  0.3523 -0.4797  0.2920
  959MOL0     O29338   5.425   1.600   3.267  0.6152 -0.0972 -0.9211
  959MOL0     C29339   5.499   1.492   3.205 -0.0009 -0.1518 -0.3521
  959MOL0     C29340   5.423   1.444   3.077 -0.7359 -0.1584  0.0264
  959MOL0     C29341   5.480   1.314   3.022  0.6604  0.1067  0.4364
  959MOL0     C29342   5.596   1.331   2.924 -0.4128  0.4854  0.5571
  959MOL0     C29343   5.625   1.204   2.845 -1.0186 -0.3982  0.2218
  959MOL0     C29344   5.743   1.218   2.752  0.1103 -0.7867 -0.2695
  959MOL0     C29345   5.763   1.089   2.677  0.3681 -0.3766  0.0381
  959MOL0     C29346   5.890   1.099   2.590 -0.3667  0.0085 -0.4159
  959MOL0     N29347   6.010   1.056   2.654  0.0058  0.0110 -0.3277
  959MOL0     C29348   6.068   0.931   2.665 -0.3748  0.3644  0.9519
  959MOL0     C29349   6.182   0.938   2.741  0.5924 -0.8680 -0.1208
  959MOL0     C29350   6.259   0.826   2.789 -0.0080 -0.0662  0.5045
  959MOL0     C29351   6.178   0.744   2.894 -0.7292  0.1883  0.6184
  959MOL0     C29352   6.139   0.821   3.027 -0.5523 -0.1472 -0.2291
  959MOL0     C29353   6.050   0.734   3.117  0.2557 -0.6026  0.1654
  959MOL0     O29354   6.124   0.630   3.175 -0.1952 -0.0313 -0.0679
  959MOL0     C29355   6.037   0.546   3.243  0.4385 -0.3101  0.3038
  959MOL0     C29356   6.101   0.423   3.292 -0.5424  0.3095  0.2692
  959MOL0     C29357   6.039   0.310   3.353 -0.2026  0.2348 -0.4685
  959MOL0     C29358   5.899   0.314   3.372  0.0433 -0.2283  0.6298
  959MOL0     C29359   5.834   0.207   3.449  0.0735  0.6435 -0.1258
  959MOL0     O29360   5.889   0.083   3.441  0.1589 -0.0313 -0.5350
  959MOL0     C29361   5.875  -0.001   3.548 -0.6002  0.8197 -0.0238
  959MOL0     C29362   5.886   0.047   3.684  0.0394  0.4572  0.4406
  959MOL0     C29363   5.887  -0.045   3.796 -0.0817  0.2936  0.3809
  959MOL0     C29364   5.866  -0.185   3.771  0.5920 -0.9789  0.0876
  959MOL0     O29365   5.866  -0.269   3.875 -0.4923  0.0535 -0.4684
  959MOL0     C29366   5.755  -0.265   3.970  0.7838  0.7111 -0.2212
  959MOL0     C29367   5.793  -0.195   4.104  1.2449 -0.2670  0.5208
  959MOL0     C29368   5.706  -0.233   4.223 -0.3384 -0.5097  0.3735
  959MOL0     C29369   5.557  -0.181   4.210 -0.1930 -0.7061 -0.0315
  959MOL0     C29370   5.550  -0.052   4.297  0.5491 -0.5159 -0.7076
  959MOL0     C29371   5.417   0.025   4.260 -0.4321  0.7824 -0.0615
  959MOL0     C29372   5.296  -0.064   4.237 -0.7329  0.5883 -0.1301
  959MOL0     C29373   5.178   0.013   4.182 -0.7790  0.2475  0.3988
  959MOL0    Cl29374   5.098   0.098   4.317 -0.3504 -0.5010  0.2574
  959MOL0     C29375   5.861  -0.233   3.639 -0.3662  1.0334 -0.2530
  959MOL0     C29376   5.872  -0.140   3.535 -0.6937 -0.1961 -0.2058
  959MOL0     O29377   5.731   0.235   3.513 -0.3796 -0.4049  0.3380
  959MOL0     C29378   5.830   0.421   3.323  0.1157 -0.2521 -0.9932
  959MOL0     C29379   5.894   0.542   3.262 -0.9093 -0.2815  0.4457
  959MOL0     N29380   6.196   1.075   2.770  0.7472 -0.1030 -0.1549
  959MOL0     N29381   6.092   1.137   2.720 -0.2944  0.8536 -0.0790
  959MOL0     C29382   5.583   1.618   3.451  0.7351 -0.0859 -0.5545
  959MOL0     C29383   5.626   1.658   3.576 -0.0836 -0.0372  0.2749
  959MOL0     C29384   5.545   1.822   4.008  0.6373  0.3219  1.3574
  959MOL0     C29385   5.542   1.958   3.998  1.0764 -0.9281  0.0991
  959MOL0     C29386   5.547   2.038   4.110  0.4213 -0.2604  0.1254
  959MOL0     C29387   5.560   1.981   4.234 -0.2524  0.2005 -0.6334
  959MOL0     O29388   5.595   2.066   4.341 -0.4629  0.7980  0.0614
  959MOL0     C29389   5.619   2.211   4.320 -0.0436 -0.4075 -0.7993
  959MOL0     C29390   5.642   2.265   4.470  0.3999 -0.5890  0.8627
  959MOL0     C29391   5.505   2.256   4.557 -0.8729  0.6861 -0.3856
  959MOL0     C29392   5.454   2.401   4.580  0.6364  0.0119 -0.3711
  959MOL0     C29393   5.390   2.441   4.455  0.5439 -0.2693  0.4144
  959MOL0     C29394   5.329   2.461   4.348  0.1841  0.3725 -0.5702
  959MOL0     C29395   5.536   1.842   4.243  0.0660  0.0093 -0.4115
  959MOL0     C29396   5.542   1.759   4.135  0.2064 -0.0961  0.6954
  959MOL0     C29397   5.529   1.610   4.165 -0.5925 -0.2957  0.3707
  959MOL0     H29398   5.391   1.911   3.597 -1.4039 -1.0505 -1.2423
  959MOL0     H29399   5.325   1.804   3.370  0.5051 -0.0682 -0.1724
  959MOL0     H29400   5.603   1.517   3.179  0.3687 -2.9466 -1.9598
  959MOL0     H29401   5.511   1.406   3.271  0.6084  0.4407  0.3185
  959MOL0     H29402   5.414   1.524   3.003 -0.7460 -0.0931  0.0982
  959MOL0     H29403   5.320   1.422   3.108 -0.0333  0.3665  3.0558
  959MOL0     H29404   5.398   1.273   2.962 -0.0027  0.2223  1.2556
  959MOL0     H29405   5.500   1.244   3.103  3.5075  1.6202  1.1739
  959MOL0     H29406   5.564   1.410   2.855 -1.9558  1.1328  1.9661
  959MOL0     H29407   5.692   1.373   2.956  1.6077 -0.2117 -3.7966
  959MOL0     H29408   5.634   1.116   2.910 -1.0532 -0.8506 -0.3821
  959MOL0     H29409   5.536   1.181   2.786 -0.1344 -2.7982 -0.2931
  959MOL0     H29410   5.723   1.300   2.683  1.7763 -0.6654 -0.6635
  959MOL0     H29411   5.832   1.243   2.811 -0.8312 -1.7966  1.6619
  959MOL0     H29412   5.676   1.083   2.612 -0.0117 -1.3727  0.6214
  959MOL0     H29413   5.767   1.004   2.746 -0.1956 -2.0667 -1.9457
  959MOL0     H29414   5.882   1.047   2.493  0.9565 -2.1520  0.5388
  959MOL0     H29415   5.904   1.204   2.563 -0.0634  0.6508  2.0448
  959MOL0     H29416   6.027   0.839   2.624  2.6606  0.2404 -2.3511
  959MOL0     H29417   6.287   0.756   2.709  2.4531 -0.4011  1.5661
  959MOL0     H29418   6.352   0.861   2.833  1.7962 -0.4491 -2.6606
  959MOL0     H29419   6.091   0.707   2.840  0.6547  0.1569 -1.7799
  959MOL0     H29420   6.252   0.664   2.906  0.9030  0.8354 -3.3641
  959MOL0     H29421   6.099   0.923   3.015  3.7158  1.6178 -1.4632
  959MOL0     H29422   6.232   0.842   3.080 -1.1198  1.4650  0.1931
  959MOL0     H29423   5.960   0.700   3.065 -1.6112  0.4147  2.5482
  959MOL0     H29424   6.032   0.816   3.186  3.5230  3.8178 -3.5526
  959MOL0     H29425   6.208   0.418   3.272 -0.4115  1.5519  0.6106
  959MOL0     H29426   6.089   0.223   3.394  0.4507 -0.1419 -1.9670
  959MOL0     H29427   5.886   0.154   3.702 -0.2569  0.4638  0.4100
  959MOL0     H29428   5.904   0.008   3.890  0.2206  4.0739 -1.6206
  959MOL0     H29429   5.662  -0.222   3.931 -0.4516  1.6505  3.3032
  959MOL0     H29430   5.725  -0.364   4.006 -1.1672  2.0947  2.3009
  959MOL0     H29431   5.899  -0.214   4.123  1.2477 -1.6456 -0.6761
  959MOL0     H29432   5.777  -0.090   4.080 -0.3791 -1.2113 -3.2679
  959MOL0     H29433   5.693  -0.342   4.224 -1.5294 -0.3825  0.5560
  959MOL0     H29434   5.756  -0.188   4.309 -0.3844 -1.1786  0.7589
  959MOL0     H29435   5.485  -0.251   4.254 -1.6091  0.6379 -0.1101
  959MOL0     H29436   5.536  -0.175   4.103 -2.2906 -2.5563  0.1904
  959MOL0     H29437   5.636   0.014   4.291  1.0049 -0.7533  2.0495
  959MOL0     H29438   5.555  -0.085   4.401 -0.1286 -1.3517 -0.9226
  959MOL0     H29439   5.382   0.086   4.344 -0.1425 -0.0901  0.7139
  959MOL0     H29440   5.433   0.085   4.170  0.1134  2.8201  1.3247
  959MOL0     H29441   5.265  -0.107   4.332 -3.4877  1.3229 -0.6244
  959MOL0     H29442   5.317  -0.142   4.163 -0.2507  1.8902 -1.4227
  959MOL0     H29443   5.216   0.081   4.105  0.0874 -2.5272 -1.8221
  959MOL0     H29444   5.117  -0.061   4.129  1.4698 -3.0811  2.0596
  959MOL0     H29445   5.867  -0.341   3.634  2.0527  1.0412  1.2080
  959MOL0     H29446   5.867  -0.175   3.433  2.8059  4.2276 -2.2703
  959MOL0     H29447   5.722   0.431   3.329  0.3847  3.3888  1.7956
  959MOL0     H29448   5.827   0.622   3.232 -0.4867 -0.4995 -1.1551
  959MOL0     H29449   5.655   1.547   3.410  2.2876  1.2811 -0.2945
  959MOL0     H29450   5.711   1.612   3.625 -0.4018  1.1863  2.0574
  959MOL0     H29451   5.534   2.007   3.901 -0.2005  0.7883  1.0182
  959MOL0     H29452   5.548   2.145   4.089  1.8841  0.6347  3.8691
  959MOL0     H29453   5.532   2.268   4.285  0.8802  0.6805 -1.3593
  959MOL0     H29454   5.699   2.229   4.248  1.6070 -1.6504  0.6581
  959MOL0     H29455   5.681   2.367   4.461 -1.3762 -0.0312 -2.3235
  959MOL0     H29456   5.707   2.198   4.526 -1.0229 -1.5616  1.4227
  959MOL0     H29457   5.513   2.204   4.653 -2.5740 -1.0695 -1.1268
  959MOL0     H29458   5.421   2.204   4.510 -2.1697  0.1551  2.3357
  959MOL0     H29459   5.375   2.404   4.655 -0.8615  1.0808 -1.9094
  959MOL0     H29460   5.522   2.485   4.596 -0.1466  0.6953 -0.5706
  959MOL0     H29461   5.280   2.456   4.254  1.1250  2.3001 -1.2133
  959MOL0     H29462   5.558   1.802   4.341  1.9233 -1.9587 -1.5496
  959MOL0     H29463   5.593   1.547   4.103  1.1974 -0.8927  2.6783
  959MOL0     H29464   5.559   1.587   4.268 -1.0039 -3.8841 -0.1934
  959MOL0     H29465   5.423   1.591   4.146 -1.0410  1.3200  1.0912
  960MOL0     O29466   7.747   5.620   2.790 -0.3905  0.1792  0.2771
  960MOL0     C29467   7.843   5.560   2.837 -0.7277  0.6789  1.0049
  960MOL0     O29468   7.850   5.510   2.962 -0.2680  0.1780 -0.4540
  960MOL0     C29469   7.742   5.483   3.037 -0.4475  0.7704 -0.2081
  960MOL0     C29470   7.624   5.439   2.987  0.4620 -0.2312 -1.3884
  960MOL0     C29471   7.516   5.426   3.070 -0.1116 -0.7681  0.1199
  960MOL0     C29472   7.534   5.454   3.210  0.3145 -0.1437  0.1963
  960MOL0     O29473   7.422   5.451   3.303 -0.5619  0.4942  0.8796
  960MOL0     C29474   7.448   5.403   3.433  0.3513 -1.1035 -0.0480
  960MOL0     C29475   7.329   5.332   3.487  0.7366  0.3578 -0.0961
  960MOL0     C29476   7.343   5.311   3.640  0.3776 -0.1818 -0.3111
  960MOL0     C29477   7.225   5.231   3.689  0.3340  0.6162 -0.3131
  960MOL0     C29478   7.130   5.313   3.777  1.5249  0.0148  0.4411
  960MOL0     C29479   6.997   5.237   3.782  0.4173 -0.8544  0.5191
  960MOL0     C29480   6.894   5.327   3.852  1.0518 -0.6415  0.2294
  960MOL0     C29481   6.757   5.265   3.824  0.1744  0.3483 -0.5889
  960MOL0     N29482   6.707   5.269   3.685  0.1606  0.1224  0.0902
  960MOL0     C29483   6.713   5.388   3.610  0.2102 -0.6820 -0.1367
  960MOL0     C29484   6.654   5.356   3.493 -0.0141 -0.2553  0.1517
  960MOL0     C29485   6.632   5.457   3.373  0.5450 -0.1507  0.5906
  960MOL0     C29486   6.762   5.484   3.304  0.5486 -0.1652  0.4922
  960MOL0     C29487   6.729   5.573   3.181 -0.8040  0.6545 -0.1742
  960MOL0     C29488   6.854   5.572   3.100 -0.1146 -0.0486 -0.0486
  960MOL0     O29489   6.836   5.690   3.014  0.0754 -0.9780  0.6295
  960MOL0     C29490   6.857   5.813   3.054  0.2672  0.2482 -0.0860
  960MOL0     C29491   6.844   5.915   2.961 -0.7135 -0.1730 -0.1959
  960MOL0     C29492   6.877   6.054   2.989  0.1089  0.2713  0.0206
  960MOL0     C29493   6.896   6.087   3.120 -0.0028 -0.1583  0.1038
  960MOL0     C29494   6.904   6.226   3.158  0.2523  0.1384  0.9227
  960MOL0     O29495   6.884   6.312   3.057 -0.0309 -0.2262 -0.1728
  960MOL0     C29496   6.902   6.449   3.072  0.1518 -0.2739 -0.1735
  960MOL0     C29497   6.842   6.523   3.176 -0.7787  0.1165  0.6158
  960MOL0     C29498   6.867   6.664   3.182 -0.8077 -0.2046 -1.2845
  960MOL0     C29499   6.973   6.719   3.095  0.1443  0.0795 -0.1063
  960MOL0     O29500   7.019   6.848   3.128  0.1205 -0.2218  0.0347
  960MOL0     C29501   6.920   6.950   3.092  0.0195 -0.8238  0.4605
  960MOL0     C29502   6.983   7.052   2.996  0.8550 -0.2752  0.4957
  960MOL0     C29503   7.093   7.132   3.054  0.5163  0.4842 -0.4239
  960MOL0     C29504   7.049   7.215   3.176  0.4331  0.1756 -0.4131
  960MOL0     C29505   7.164   7.269   3.253 -1.0806 -0.8031 -0.0874
  960MOL0     C29506   7.127   7.332   3.391  0.9090 -0.0183 -0.4211
  960MOL0     C29507   7.239   7.409   3.463 -0.5920  0.3766 -0.0688
  960MOL0     C29508   7.361   7.327   3.495  0.2389  0.2039 -0.9336
  960MOL0    Cl29509   7.324   7.192   3.611  0.0968 -0.4496 -0.2164
  960MOL0     C29510   7.031   6.645   2.999  1.2386  0.6199  1.1667
  960MOL0     C29511   6.993   6.512   2.983 -0.0549  0.3661 -0.7215
  960MOL0     O29512   6.927   6.252   3.274 -0.2317  0.4423 -0.4926
  960MOL0     C29513   6.897   5.988   3.216  0.7906 -0.2298  0.1541
  960MOL0     C29514   6.877   5.855   3.182 -1.3172  0.6884 -0.3775
  960MOL0     N29515   6.606   5.227   3.500 -0.1760  0.2573 -0.2074
  960MOL0     N29516   6.634   5.186   3.623 -0.1316 -0.5148  0.4855
  960MOL0     C29517   7.661   5.500   3.259  0.0319 -0.2802 -0.2520
  960MOL0     C29518   7.766   5.517   3.170  0.0261  0.2757  1.7183
  960MOL0     C29519   7.976   5.556   2.768  0.4431  0.7039 -0.4298
  960MOL0     C29520   8.075   5.467   2.819 -0.2681 -0.3631  0.0065
  960MOL0     C29521   8.201   5.448   2.764 -0.4029 -0.1836  0.2275
  960MOL0     C29522   8.232   5.536   2.658  0.4349  0.8716  0.0428
  960MOL0     O29523   8.351   5.532   2.599  0.1532  0.1042  0.3152
  960MOL0     C29524   8.374   5.406   2.538 -0.1505  0.5459 -0.1834
  960MOL0     C29525   8.504   5.383   2.473 -0.1243 -0.1976  0.5969
  960MOL0     C29526   8.558   5.470   2.360  0.3376 -0.9272 -0.2171
  960MOL0     C29527   8.467   5.461   2.234  0.8726  0.2780 -0.1312
  960MOL0     C29528   8.514   5.563   2.144  0.0297 -0.1353  0.2764
  960MOL0     C29529   8.531   5.655   2.062  0.1887 -0.1695  0.2582
  960MOL0     C29530   8.127   5.607   2.595  0.2984 -0.6519  0.0911
  960MOL0     C29531   8.003   5.634   2.658 -0.1891  0.2271  0.2453
  960MOL0     C29532   7.906   5.722   2.588 -0.5371  0.8426 -0.8346
  960MOL0     H29533   7.603   5.419   2.883  1.1159 -1.7208 -1.2679
  960MOL0     H29534   7.415   5.399   3.039 -2.1578  1.4938  4.0975
  960MOL0     H29535   7.542   5.347   3.430  0.4595 -1.0356  1.6176
  960MOL0     H29536   7.458   5.497   3.488 -1.0330 -0.1209 -1.3860
  960MOL0     H29537   7.338   5.235   3.438  3.3649  0.1413  0.6900
  960MOL0     H29538   7.241   5.395   3.470  2.2913  3.4077  2.0572
  960MOL0     H29539   7.350   5.408   3.690  1.1863  0.4705 -1.6395
  960MOL0     H29540   7.431   5.254   3.671  0.9887  1.4412  1.0612
  960MOL0     H29541   7.168   5.208   3.598 -3.4877  1.8033  1.5801
  960MOL0     H29542   7.248   5.140   3.745  1.1651  2.5283  2.6377
  960MOL0     H29543   7.169   5.328   3.878 -1.6604 -0.4760  1.8576
  960MOL0     H29544   7.117   5.408   3.726  0.6423 -0.8649 -1.0695
  960MOL0     H29545   6.961   5.199   3.685 -2.8620 -0.5210  1.4759
  960MOL0     H29546   7.013   5.155   3.852  1.0886 -0.6620  0.5924
  960MOL0     H29547   6.900   5.429   3.814  1.0249 -0.6678  0.1540
  960MOL0     H29548   6.906   5.346   3.959  0.8599 -0.4323  0.2154
  960MOL0     H29549   6.762   5.159   3.853  1.3236  0.0567 -1.7436
  960MOL0     H29550   6.673   5.298   3.884 -1.6049 -1.3908 -1.9809
  960MOL0     H29551   6.760   5.478   3.649 -0.0674 -0.1740 -0.9512
  960MOL0     H29552   6.552   5.425   3.306 -1.4313  0.7833  2.3781
  960MOL0     H29553   6.599   5.551   3.417 -2.8182 -0.3022 -1.3205
  960MOL0     H29554   6.821   5.531   3.383 -0.1945 -0.6186  1.3317
  960MOL0     H29555   6.817   5.393   3.280  1.2747  0.6680 -1.2026
  960MOL0     H29556   6.706   5.668   3.230  2.9504  0.2944  2.7229
  960MOL0     H29557   6.645   5.519   3.137 -0.3906 -1.5166  1.5409
  960MOL0     H29558   6.853   5.478   3.045 -0.7112  0.1884 -0.4557
  960MOL0     H29559   6.944   5.575   3.163 -1.7779 -1.5023  2.5598
  960MOL0     H29560   6.841   5.893   2.855  1.5586  3.1860 -1.1557
  960MOL0     H29561   6.887   6.132   2.913  1.4834  0.2690  0.1941
  960MOL0     H29562   6.772   6.476   3.244  0.9383 -0.1908  2.2425
  960MOL0     H29563   6.822   6.742   3.243  1.0939  0.3838 -0.5566
  960MOL0     H29564   6.838   6.927   3.023 -0.3727  0.2759  0.5363
  960MOL0     H29565   6.882   6.991   3.186  2.6192  0.5720  0.9878
  960MOL0     H29566   7.002   6.986   2.911 -1.7400 -1.7432  0.9570
  960MOL0     H29567   6.905   7.123   2.967  2.3928  1.5636  0.5959
  960MOL0     H29568   7.172   7.060   3.075 -0.6401 -0.4957  0.7518
  960MOL0     H29569   7.129   7.207   2.983 -0.8512  1.4390 -0.1476
  960MOL0     H29570   6.973   7.161   3.233 -1.1129  2.2095 -0.4083
  960MOL0     H29571   6.995   7.301   3.134  1.0361  1.1897  0.8092
  960MOL0     H29572   7.219   7.342   3.192  0.4951 -3.2392 -1.7996
  960MOL0     H29573   7.238   7.190   3.261 -0.7549 -1.0785 -3.8392
  960MOL0     H29574   7.037   7.393   3.381  1.5367  1.2842  1.2922
  960MOL0     H29575   7.101   7.253   3.461  0.2717 -0.6480 -1.3485
  960MOL0     H29576   7.203   7.451   3.558 -1.9740  0.9889 -0.8276
  960MOL0     H29577   7.267   7.497   3.406  1.2906  1.1165  1.8397
  960MOL0     H29578   7.408   7.275   3.411  2.3347 -0.8001  0.7531
  960MOL0     H29579   7.438   7.389   3.541  0.5041 -1.5922  1.2091
  960MOL0     H29580   7.092   6.687   2.920 -1.4111 -0.8484 -1.8773
  960MOL0     H29581   7.023   6.447   2.901 -3.5475 -0.2256 -1.7150
  960MOL0     H29582   6.912   6.021   3.318 -0.0671 -0.9228  0.5162
  960MOL0     H29583   6.874   5.781   3.262 -1.4703  2.4474  1.3198
  960MOL0     H29584   7.676   5.538   3.360 -0.8892  1.0219 -0.5749
  960MOL0     H29585   7.860   5.553   3.211  0.0405 -0.4948  2.4004
  960MOL0     H29586   8.057   5.399   2.902  1.0417 -2.2340 -1.1826
  960MOL0     H29587   8.268   5.382   2.817 -0.0172  0.3557  0.4204
  960MOL0     H29588   8.298   5.382   2.464 -1.7395  1.9526  0.9168
  960MOL0     H29589   8.368   5.330   2.617 -1.2369 -0.6628 -1.3809
  960MOL0     H29590   8.493   5.282   2.433 -2.8551 -1.3605  3.7587
  960MOL0     H29591   8.588   5.368   2.541  1.4241  2.4939 -0.5926
  960MOL0     H29592   8.656   5.436   2.328  0.8430  0.5557 -0.3262
  960MOL0     H29593   8.569   5.574   2.391 -2.8290 -0.8938  1.1897
  960MOL0     H29594   8.468   5.356   2.202 -0.0091 -0.3164  1.6688
  960MOL0     H29595   8.370   5.501   2.263  0.5415 -1.2208  0.9930
  960MOL0     H29596   8.550   5.729   1.987  0.4768 -0.6082 -0.1035
  960MOL0     H29597   8.139   5.649   2.496 -0.6796 -0.9247 -0.1552
  960MOL0     H29598   7.949   5.781   2.507  0.1375  2.3129  0.5294
  960MOL0     H29599   7.819   5.665   2.556  1.3782 -1.4713 -2.3226
  960MOL0     H29600   7.863   5.799   2.653 -1.8596 -0.6121  0.0851
  961MOL0     O29601   3.516   8.111   7.526  0.5677  0.2633 -0.1439
  961MOL0     C29602   3.446   8.032   7.463 -0.4018  0.3968  1.0463
  961MOL0     O29603   3.356   7.942   7.527  0.4531  0.2228  0.0718
  961MOL0     C29604   3.335   7.966   7.659 -0.3110 -0.2607  0.4407
  961MOL0     C29605   3.290   8.096   7.719 -0.1395  0.1749 -0.3784
  961MOL0     C29606   3.275   8.114   7.856 -0.2050  0.3099  0.5212
  961MOL0     C29607   3.307   8.007   7.945  0.1344 -0.6033 -0.4627
  961MOL0     O29608   3.303   8.015   8.081 -0.7225  0.5451  0.3429
  961MOL0     C29609   3.375   8.124   8.133  0.0779 -0.4640 -0.5134
  961MOL0     C29610   3.380   8.105   8.283  0.7387  0.0460  0.1659
  961MOL0     C29611   3.455   8.231   8.349  0.0472  0.0144  0.0692
  961MOL0     C29612   3.539   8.188   8.475  0.0883  0.3728  0.5136
  961MOL0     C29613   3.590   8.311   8.551  0.0191 -0.0659 -1.0544
  961MOL0     C29614   3.699   8.382   8.463 -0.1823  0.3291 -0.7753
  961MOL0     C29615   3.807   8.445   8.558 -1.0179  0.2624  0.0185
  961MOL0     C29616   3.764   8.560   8.646  0.4778 -0.5059  0.5115
  961MOL0     N29617   3.877   8.618   8.723  0.7589 -0.6383 -0.5951
  961MOL0     C29618   3.968   8.550   8.797  0.2365 -0.0319  0.2932
  961MOL0     C29619   4.034   8.636   8.868  0.8000  0.5911 -0.4892
  961MOL0     C29620   4.139   8.594   8.963  0.2110  0.5322  0.2557
  961MOL0     C29621   4.085   8.510   9.087 -0.4557  0.2673  0.4709
  961MOL0     C29622   4.205   8.498   9.182  0.0233 -0.8097  0.2706
  961MOL0     C29623   4.162   8.491   9.326 -0.2343 -0.2756  0.0241
  961MOL0     O29624   4.275   8.454   9.402  0.4728 -0.5057  0.0329
  961MOL0     C29625   4.361   8.538   9.468  0.2477 -0.4858  0.8775
  961MOL0     C29626   4.343   8.684   9.460 -0.5242 -1.3615 -0.0152
  961MOL0     C29627   4.441   8.762   9.506  0.2282 -0.3181 -0.0028
  961MOL0     C29628   4.559   8.713   9.555 -0.5044 -0.1127  0.5108
  961MOL0     C29629   4.662   8.813   9.584  1.0752  0.7917  0.4940
  961MOL0     O29630   4.775   8.769   9.538  0.3506  0.0132  0.4338
  961MOL0     C29631   4.875   8.857   9.532 -0.4555  1.1026 -0.8712
  961MOL0     C29632   4.942   8.904   9.646 -0.2407  0.0116  1.3130
  961MOL0     C29633   5.045   8.992   9.631 -0.0830  0.3480 -0.3027
  961MOL0     C29634   5.085   9.029   9.505 -0.6595  0.0803 -0.2960
  961MOL0     O29635   5.184   9.126   9.477 -0.5727 -0.1069 -0.0878
  961MOL0     C29636   5.318   9.096   9.527  0.2921 -0.0838 -0.6553
  961MOL0     C29637   5.415   9.103   9.406 -0.1785 -0.2404  0.3344
  961MOL0     C29638   5.526   8.997   9.411  0.3452  0.8821 -0.2310
  961MOL0     C29639   5.459   8.858   9.382 -0.7536 -0.6143 -1.2883
  961MOL0     C29640   5.475   8.806   9.241 -0.4023 -0.1468 -0.8547
  961MOL0     C29641   5.408   8.668   9.217  0.3181  0.7305  0.6605
  961MOL0     C29642   5.424   8.611   9.075  0.1983  0.3183  0.5770
  961MOL0     C29643   5.419   8.458   9.085  0.2970 -0.2849 -0.1407
  961MOL0    Cl29644   5.448   8.381   8.923  0.0909  0.6702 -0.0200
  961MOL0     C29645   5.031   8.974   9.393  0.3234 -0.2814 -0.9187
  961MOL0     C29646   4.922   8.888   9.410 -0.0119  0.4332  0.4864
  961MOL0     O29647   4.635   8.920   9.639 -0.0651 -0.3590  0.1549
  961MOL0     C29648   4.580   8.571   9.552 -0.1390  0.3985 -0.4102
  961MOL0     C29649   4.479   8.488   9.507 -0.0351  0.4481  0.2250
  961MOL0     N29650   4.006   8.761   8.821  0.2251 -0.0399 -0.6515
  961MOL0     N29651   3.909   8.749   8.734 -0.9759 -0.1728 -1.2172
  961MOL0     C29652   3.343   7.882   7.886  0.7426  0.1039  0.5605
  961MOL0     C29653   3.344   7.863   7.746 -1.2338 -0.7982 -1.1494
  961MOL0     C29654   3.467   8.027   7.314 -1.6665 -1.6670 -1.4234
  961MOL0     C29655   3.406   7.932   7.237  0.0899  0.0292 -0.3160
  961MOL0     C29656   3.440   7.923   7.101  0.4246  0.2159 -0.3163
  961MOL0     C29657   3.540   8.002   7.042  0.0887  0.7560 -0.3965
  961MOL0     O29658   3.582   7.991   6.913 -0.4174  0.3567  0.4858
  961MOL0     C29659   3.527   7.889   6.831  0.3595  0.9966  0.5119
  961MOL0     C29660   3.539   7.905   6.680 -0.1841  0.2117 -0.0384
  961MOL0     C29661   3.475   8.030   6.634 -0.1798 -0.1638 -0.2006
  961MOL0     C29662   3.443   8.009   6.483  0.2222  0.1235 -0.4789
  961MOL0     C29663   3.569   8.035   6.416  0.2011 -0.2129  0.2958
  961MOL0     C29664   3.671   8.061   6.357  0.5775  0.6434  0.2332
  961MOL0     C29665   3.607   8.088   7.123  0.5024 -1.2018  0.3130
  961MOL0     C29666   3.572   8.108   7.256 -0.8904 -0.4774  0.1150
  961MOL0     C29667   3.662   8.213   7.326  0.3547 -0.4635 -0.6203
  961MOL0     H29668   3.274   8.183   7.656 -1.6146  3.9153  4.5574
  961MOL0     H29669   3.254   8.217   7.882 -0.4734  0.6386 -0.9225
  961MOL0     H29670   3.479   8.134   8.100  0.1815 -0.9704 -0.3463
  961MOL0     H29671   3.328   8.219   8.105  0.3069 -0.2756 -0.2581
  961MOL0     H29672   3.440   8.016   8.304  0.6046 -0.6753 -2.2146
  961MOL0     H29673   3.280   8.093   8.327  1.1150 -2.4935  0.4231
  961MOL0     H29674   3.381   8.311   8.362 -0.0794  0.3943 -2.4711
  961MOL0     H29675   3.528   8.266   8.275 -1.2436 -0.3659 -1.4493
  961MOL0     H29676   3.473   8.130   8.540 -4.9602  0.9014 -3.5091
  961MOL0     H29677   3.616   8.113   8.455 -1.0005 -0.4189 -0.8770
  961MOL0     H29678   3.518   8.392   8.567 -0.6182 -0.7756 -0.2306
  961MOL0     H29679   3.624   8.280   8.650  1.1943  2.3214 -0.6505
  961MOL0     H29680   3.756   8.312   8.401  3.0526  1.4945  0.6543
  961MOL0     H29681   3.650   8.467   8.415  0.1448  1.8937  1.5263
  961MOL0     H29682   3.887   8.488   8.497  0.5925 -0.3708  1.5734
  961MOL0     H29683   3.855   8.361   8.610 -0.8823  0.1763 -0.2441
  961MOL0     H29684   3.709   8.630   8.584  2.2243 -0.8073 -1.4680
  961MOL0     H29685   3.690   8.512   8.712 -0.9142 -2.0630 -2.0192
  961MOL0     H29686   3.988   8.443   8.802  0.0379 -0.0410  0.9443
  961MOL0     H29687   4.198   8.524   8.902 -1.8430 -1.0683 -0.0078
  961MOL0     H29688   4.188   8.685   8.998  1.3256  0.8091 -1.8678
  961MOL0     H29689   4.010   8.574   9.134 -3.7485 -1.6888 -1.6964
  961MOL0     H29690   4.037   8.415   9.062  0.8861 -0.7956  1.7400
  961MOL0     H29691   4.272   8.583   9.165 -0.0483 -1.0535 -1.4245
  961MOL0     H29692   4.258   8.408   9.150  0.4966 -0.7467  0.8652
  961MOL0     H29693   4.090   8.410   9.335  0.0673 -1.3188 -4.4952
  961MOL0     H29694   4.123   8.589   9.355  0.5020  0.1118 -0.2653
  961MOL0     H29695   4.250   8.729   9.427 -0.3900 -0.4643  0.7729
  961MOL0     H29696   4.426   8.868   9.485 -1.9883 -0.4591  0.6058
  961MOL0     H29697   4.901   8.877   9.742 -1.8540 -0.7586  0.4504
  961MOL0     H29698   5.103   9.037   9.712  0.3802  0.2091 -0.5500
  961MOL0     H29699   5.357   9.174   9.594  1.0180 -0.4854 -0.6036
  961MOL0     H29700   5.314   8.998   9.575  1.9488 -0.0546 -0.4171
  961MOL0     H29701   5.352   9.077   9.320 -0.3204  1.1296  0.0106
  961MOL0     H29702   5.446   9.207   9.394  1.7260 -0.8939 -0.6709
  961MOL0     H29703   5.604   9.020   9.338  0.1847 -4.4627 -2.5675
  961MOL0     H29704   5.561   8.995   9.515 -1.3031  0.4889  0.3534
  961MOL0     H29705   5.352   8.858   9.406 -0.3092 -1.7982  1.0758
  961MOL0     H29706   5.492   8.781   9.453 -1.8603 -1.3800 -1.5723
  961MOL0     H29707   5.582   8.786   9.225 -0.4992  0.4499 -2.3556
  961MOL0     H29708   5.439   8.881   9.170 -2.6968 -2.3356 -2.1261
  961MOL0     H29709   5.446   8.600   9.294  0.1814  1.0611  1.0232
  961MOL0     H29710   5.300   8.679   9.231 -0.0592 -1.3306 -0.2334
  961MOL0     H29711   5.520   8.645   9.034  0.6158 -0.2614  1.0556
  961MOL0     H29712   5.340   8.638   9.011  0.0803 -0.4508  0.3877
  961MOL0     H29713   5.497   8.417   9.150  0.1530  0.1267  0.3069
  961MOL0     H29714   5.322   8.428   9.126 -0.4060  1.9472 -0.0174
  961MOL0     H29715   5.075   8.993   9.296 -2.2758 -2.5074 -2.6888
  961MOL0     H29716   4.885   8.839   9.321  0.7502 -1.2877  1.0622
  961MOL0     H29717   4.677   8.528   9.578 -1.6462 -1.1154  3.5535
  961MOL0     H29718   4.490   8.381   9.494 -0.0093  0.6668 -1.8721
  961MOL0     H29719   3.370   7.799   7.951 -1.9011 -2.3360 -1.1968
  961MOL0     H29720   3.380   7.773   7.697 -0.5219 -0.2308 -1.6757
  961MOL0     H29721   3.334   7.867   7.286  0.4557  1.4503  2.2980
  961MOL0     H29722   3.379   7.846   7.054  0.4333 -2.6978  3.8626
  961MOL0     H29723   3.422   7.864   6.848 -0.6700  2.8121 -2.4697
  961MOL0     H29724   3.587   7.803   6.862  0.4944  1.1325  0.6290
  961MOL0     H29725   3.497   7.818   6.627  0.2636 -1.5221  2.2989
  961MOL0     H29726   3.646   7.910   6.655 -0.4111  2.5754 -0.6979
  961MOL0     H29727   3.539   8.116   6.657  1.7857 -1.3067 -1.0779
  961MOL0     H29728   3.380   8.050   6.685 -0.8469 -0.4570 -1.3025
  961MOL0     H29729   3.393   7.913   6.467 -4.6794  2.0332  1.3390
  961MOL0     H29730   3.382   8.084   6.432  1.8320  0.2344 -2.3308
  961MOL0     H29731   3.767   8.078   6.312  1.4626 -0.9168  1.4303
  961MOL0     H29732   3.665   8.166   7.073 -1.4196 -1.3609 -2.3559
  961MOL0     H29733   3.734   8.165   7.393  0.2193 -0.5580 -0.5433
  961MOL0     H29734   3.718   8.276   7.256 -2.2908  3.5330  0.5236
  961MOL0     H29735   3.596   8.281   7.381 -0.1307 -1.3219 -0.1234
  962MOL0     O29736   6.689   9.367   2.954  0.1885 -0.1365  0.6806
  962MOL0     C29737   6.588   9.309   3.001 -0.1627 -0.2116 -0.2165
  962MOL0     O29738   6.489   9.370   3.073 -0.3831 -0.3387 -0.3440
  962MOL0     C29739   6.509   9.495   3.124  0.3626  0.1702 -0.1950
  962MOL0     C29740   6.509   9.509   3.256  0.1570  0.3772  0.1315
  962MOL0     C29741   6.507   9.632   3.307  0.1962 -0.0800 -0.6143
  962MOL0     C29742   6.495   9.747   3.231  1.7078  0.3482  0.3632
  962MOL0     O29743   6.475   9.866   3.292  1.3128 -0.3463 -0.1236
  962MOL0     C29744   6.578   9.966   3.272  0.5350  1.2894  0.9228
  962MOL0     C29745   6.535  10.095   3.341 -0.4843  0.9819  0.1039
  962MOL0     C29746   6.427  10.177   3.281  0.5042 -0.4566 -0.7166
  962MOL0     C29747   6.422  10.317   3.339 -0.3403 -0.3259 -0.0107
  962MOL0     C29748   6.316  10.409   3.281  0.8532  0.9121 -1.1016
  962MOL0     C29749   6.330  10.438   3.130 -0.5851  0.5408 -0.4986
  962MOL0     C29750   6.232  10.360   3.042  0.2969 -0.2334  0.6953
  962MOL0     C29751   6.271  10.369   2.890 -0.0618 -0.6396 -0.4407
  962MOL0     N29752   6.384  10.288   2.859  0.1239  0.3882  1.1514
  962MOL0     C29753   6.521  10.325   2.870  0.1647  0.3409  0.0253
  962MOL0     C29754   6.596  10.205   2.854  0.4745 -1.0175 -0.9108
  962MOL0     C29755   6.736  10.170   2.853  0.5274 -0.3723  0.7944
  962MOL0     C29756   6.826  10.267   2.942  0.4525  0.6500  0.3577
  962MOL0     C29757   6.805  10.241   3.095  0.1176 -0.1213 -0.0577
  962MOL0     C29758   6.854  10.349   3.184  0.0492  0.1684 -0.1838
  962MOL0     O29759   6.838  10.317   3.324  0.5402  0.5309  0.2677
  962MOL0     C29760   6.934  10.239   3.389  1.1436 -0.0509 -0.1955
  962MOL0     C29761   6.919  10.225   3.522  0.3577 -1.1977 -0.4693
  962MOL0     C29762   6.995  10.147   3.598 -0.7224 -0.0655 -0.2972
  962MOL0     C29763   7.112  10.101   3.546 -0.7476 -0.6337  0.3549
  962MOL0     C29764   7.210  10.034   3.638  0.3832  0.5699  0.0048
  962MOL0     O29765   7.166  10.005   3.762  0.2788  0.4523  0.0961
  962MOL0     C29766   7.258   9.966   3.853 -0.1098  0.8234 -0.0817
  962MOL0     C29767   7.281  10.050   3.959  0.2159  0.2307 -0.0169
  962MOL0     C29768   7.376  10.012   4.060 -0.0671 -0.7652  0.4260
  962MOL0     C29769   7.452   9.897   4.037  0.0458  0.2504 -0.3945
  962MOL0     O29770   7.554   9.859   4.117 -0.1770  0.8479 -0.5476
  962MOL0     C29771   7.617   9.950   4.197 -0.4461 -0.7582  0.9395
  962MOL0     C29772   7.726   9.877   4.263  0.4535  0.1385 -0.6780
  962MOL0     C29773   7.817   9.971   4.334 -0.6558 -0.4081 -0.6983
  962MOL0     C29774   7.802   9.949   4.482 -0.1356 -0.9999  0.6775
  962MOL0     C29775   7.902  10.026   4.570 -0.0398  0.6440 -0.3680
  962MOL0     C29776   7.869   9.999   4.721 -0.0976  0.0417  0.3352
  962MOL0     C29777   7.940  10.094   4.813 -0.3017  0.0274 -0.2294
  962MOL0     C29778   7.909  10.070   4.959  0.0128  0.4124  0.2642
  962MOL0    Cl29779   8.067  10.079   5.060 -0.1130  0.1080  0.5347
  962MOL0     C29780   7.420   9.803   3.938  0.6334 -0.2618 -0.3998
  962MOL0     C29781   7.323   9.838   3.848  0.0243 -0.5471  0.4974
  962MOL0     O29782   7.326  10.020   3.596  0.7884 -0.3520 -1.0582
  962MOL0     C29783   7.138  10.112   3.405 -0.4536 -0.2601 -0.1198
  962MOL0     C29784   7.046  10.184   3.332  0.5178  0.3936  0.0553
  962MOL0     N29785   6.502  10.108   2.828  0.3687  0.5865 -0.0362
  962MOL0     N29786   6.382  10.160   2.827 -0.5585  0.1217 -0.0937
  962MOL0     C29787   6.485   9.737   3.093 -0.1245  0.4564  0.4657
  962MOL0     C29788   6.498   9.606   3.036 -0.6679  0.3736  0.2113
  962MOL0     C29789   6.571   9.163   2.978 -0.0373 -0.2183  0.1832
  962MOL0     C29790   6.478   9.089   3.059 -0.3866  1.2779 -0.4248
  962MOL0     C29791   6.471   8.956   3.044 -0.4744  0.7053  0.0958
  962MOL0     C29792   6.539   8.876   2.947 -0.5870  0.3098  0.1228
  962MOL0     O29793   6.532   8.743   2.940 -0.0128  0.1409  0.0016
  962MOL0     C29794   6.600   8.666   3.036 -0.2547 -0.2306 -0.2964
  962MOL0     C29795   6.684   8.750   3.125  0.4286 -0.2790 -0.9789
  962MOL0     C29796   6.769   8.659   3.219 -0.3371  0.1718 -1.4640
  962MOL0     C29797   6.774   8.710   3.363 -0.7374  0.4233 -1.2214
  962MOL0     C29798   6.654   8.707   3.435 -0.3585 -0.4875 -0.0009
  962MOL0     C29799   6.539   8.707   3.488 -1.2685 -0.8188  0.4212
  962MOL0     C29800   6.622   8.947   2.860 -0.5170  0.5452  0.0112
  962MOL0     C29801   6.642   9.086   2.877 -0.5116 -0.8519 -0.3534
  962MOL0     C29802   6.750   9.156   2.783 -0.3327  0.0515  1.3572
  962MOL0     H29803   6.496   9.417   3.311 -0.5880 -0.9220 -2.0743
  962MOL0     H29804   6.501   9.642   3.415 -1.7759  1.2408 -0.7811
  962MOL0     H29805   6.666   9.914   3.312 -2.1846 -2.0502  3.1765
  962MOL0     H29806   6.600   9.990   3.168  2.2388 -0.1215  0.8998
  962MOL0     H29807   6.623  10.160   3.337 -0.6258  1.0917 -1.6983
  962MOL0     H29808   6.518  10.069   3.446  1.4734  1.3828  0.5571
  962MOL0     H29809   6.325  10.136   3.283  0.3520 -0.0927 -1.0011
  962MOL0     H29810   6.436  10.183   3.172  0.0927 -0.5335 -0.7552
  962MOL0     H29811   6.398  10.321   3.445  0.8182  3.2321  0.2297
  962MOL0     H29812   6.522  10.355   3.317 -1.2302  0.4098 -3.4664
  962MOL0     H29813   6.209  10.384   3.282  1.0927 -0.2180 -1.6501
  962MOL0     H29814   6.306  10.502   3.337  0.6015  1.7474 -2.4837
  962MOL0     H29815   6.309  10.544   3.112  2.8401  1.3391 -0.5700
  962MOL0     H29816   6.435  10.420   3.102 -0.3231  2.0919 -0.6136
  962MOL0     H29817   6.131  10.398   3.055  0.6995  1.0149  0.3132
  962MOL0     H29818   6.239  10.254   3.070 -1.6915 -0.0799  1.9639
  962MOL0     H29819   6.188  10.339   2.826 -2.1415  2.4920  0.5211
  962MOL0     H29820   6.284  10.477   2.873 -5.0601  0.8756  2.9958
  962MOL0     H29821   6.559  10.427   2.878 -0.2842  0.4393  1.0048
  962MOL0     H29822   6.754  10.069   2.891  3.3608 -0.3102 -0.1124
  962MOL0     H29823   6.758  10.170   2.746  1.1777  0.2794  0.9156
  962MOL0     H29824   6.929  10.244   2.914  0.6023  0.9542  0.6435
  962MOL0     H29825   6.791  10.367   2.914 -1.7822 -0.6297 -1.8828
  962MOL0     H29826   6.850  10.142   3.106 -1.0297 -0.6561 -0.0948
  962MOL0     H29827   6.698  10.234   3.114 -0.0368 -0.2222 -0.9717
  962MOL0     H29828   6.791  10.436   3.163  3.1143  2.1722 -1.6870
  962MOL0     H29829   6.961  10.368   3.173  0.3256 -1.5691 -0.8937
  962MOL0     H29830   6.822  10.263   3.553  1.7359  3.8050 -1.3530
  962MOL0     H29831   6.964  10.130   3.701 -0.7035 -1.8712 -0.5631
  962MOL0     H29832   7.225  10.143   3.968  0.0958  0.1770 -0.2137
  962MOL0     H29833   7.396  10.084   4.139 -0.0869  0.0976 -0.3391
  962MOL0     H29834   7.649  10.045   4.153  4.1979 -1.5690  2.0207
  962MOL0     H29835   7.542   9.980   4.272 -1.4542 -0.2424 -0.2483
  962MOL0     H29836   7.679   9.805   4.331 -0.1587  2.1542  1.1293
  962MOL0     H29837   7.782   9.832   4.180  1.6945  0.6427 -0.1300
  962MOL0     H29838   7.921   9.953   4.306 -0.6995  2.4346 -3.1701
  962MOL0     H29839   7.808  10.078   4.312  2.4067  0.4924  1.6399
  962MOL0     H29840   7.796   9.843   4.509 -1.8445 -1.2881 -0.6679
  962MOL0     H29841   7.707   9.999   4.506 -0.5053 -0.3437 -1.8506
  962MOL0     H29842   7.888  10.133   4.554  0.2174  0.8587  0.7332
  962MOL0     H29843   8.007   9.999   4.560 -0.2261 -0.0721 -0.4352
  962MOL0     H29844   7.761  10.012   4.730  0.1060  3.1617 -0.5485
  962MOL0     H29845   7.879   9.894   4.748 -2.0320 -0.5415 -1.0212
  962MOL0     H29846   7.921  10.197   4.781 -1.9926  0.5526  2.2145
  962MOL0     H29847   8.047  10.076   4.811 -0.5373 -2.4666  2.5732
  962MOL0     H29848   7.827  10.128   5.004 -0.3006 -0.0679  0.3186
  962MOL0     H29849   7.882   9.964   4.964 -2.4967  0.9713  0.1857
  962MOL0     H29850   7.462   9.703   3.930  0.0707 -0.5899  0.5736
  962MOL0     H29851   7.296   9.766   3.771 -1.4689  1.1672 -0.6368
  962MOL0     H29852   7.227  10.071   3.358 -0.8751 -0.9082 -0.3694
  962MOL0     H29853   7.076  10.192   3.228 -0.3614 -1.5236 -0.3774
  962MOL0     H29854   6.479   9.828   3.033  0.4712 -1.1739 -2.2392
  962MOL0     H29855   6.495   9.588   2.929 -0.2945 -0.6923  0.3666
  962MOL0     H29856   6.421   9.139   3.137  1.1789 -0.2937  1.8704
  962MOL0     H29857   6.402   8.911   3.114 -1.6822  2.0370 -0.1861
  962MOL0     H29858   6.658   8.584   2.993 -0.7424 -1.1343  0.7280
  962MOL0     H29859   6.528   8.611   3.097  1.8906 -0.4874  2.1609
  962MOL0     H29860   6.621   8.812   3.189  1.1891 -0.0339 -0.4478
  962MOL0     H29861   6.758   8.811   3.073 -0.7573  1.5301 -0.6336
  962MOL0     H29862   6.869   8.651   3.175  0.8599  0.9689  0.9244
  962MOL0     H29863   6.732   8.557   3.232 -3.3145  1.0071 -2.6475
  962MOL0     H29864   6.841   8.649   3.424 -1.3819  1.1680  0.2733
  962MOL0     H29865   6.832   8.803   3.360  4.4345 -2.3403  0.9213
  962MOL0     H29866   6.434   8.717   3.508 -1.3611 -1.3310  0.2141
  962MOL0     H29867   6.687   8.906   2.783  1.0121 -0.3095  1.6758
  962MOL0     H29868   6.726   9.252   2.737 -2.3757 -1.4114 -0.8941
  962MOL0     H29869   6.852   9.164   2.821  1.1142  0.5050 -2.2441
  962MOL0     H29870   6.770   9.094   2.695  1.2265  0.0161  1.7068
  963MOL0     O29871   2.055  11.159   0.447  0.1150  0.5442 -0.0774
  963MOL0     C29872   2.104  11.233   0.363 -0.2908  0.5950  0.1420
  963MOL0     O29873   2.055  11.263   0.244  0.1164 -0.2637 -0.3127
  963MOL0     C29874   1.920  11.235   0.215 -0.2853  0.0500 -0.7373
  963MOL0     C29875   1.894  11.195   0.089  1.0912  0.6958  0.1914
  963MOL0     C29876   1.758  11.181   0.044 -0.4667 -0.2316 -0.7375
  963MOL0     C29877   1.650  11.188   0.126 -0.0991 -0.3111  0.5863
  963MOL0     O29878   1.515  11.176   0.084  0.1455 -0.0017 -0.1565
  963MOL0     C29879   1.495  11.142  -0.057 -0.5881 -0.0202  0.1628
  963MOL0     C29880   1.342  11.159  -0.093  0.6657 -0.0129  0.8197
  963MOL0     C29881   1.301  11.082  -0.224 -0.3118 -0.3195 -0.3527
  963MOL0     C29882   1.153  11.075  -0.264  0.0951  0.9274 -0.7016
  963MOL0     C29883   1.132  10.965  -0.374  0.5883  0.4677 -0.7732
  963MOL0     C29884   0.982  10.950  -0.414  0.2925  0.1909  0.6212
  963MOL0     C29885   0.950  10.874  -0.546 -0.3281  0.6411  0.2281
  963MOL0     C29886   0.954  10.716  -0.538 -0.0321  0.4361 -0.6599
  963MOL0     N29887   0.861  10.675  -0.432 -1.0216  0.0859 -0.1148
  963MOL0     C29888   0.886  10.567  -0.360 -0.2233 -0.6248 -0.4340
  963MOL0     C29889   0.776  10.527  -0.297 -0.4306  0.5872  0.0742
  963MOL0     C29890   0.759  10.418  -0.194  0.3997 -0.2845  0.4895
  963MOL0     C29891   0.881  10.404  -0.102 -0.1154 -0.5711 -0.3768
  963MOL0     C29892   0.865  10.483   0.024  0.6012 -0.6976  0.0265
  963MOL0     C29893   0.994  10.510   0.093  0.0302 -0.1352 -0.3115
  963MOL0     O29894   1.039  10.385   0.159  0.4501 -0.0337 -0.0179
  963MOL0     C29895   1.155  10.384   0.238  0.4786  0.6036 -0.3822
  963MOL0     C29896   1.225  10.503   0.257  0.7573 -0.3630 -0.5956
  963MOL0     C29897   1.330  10.499   0.341 -0.0910  0.6208  0.0592
  963MOL0     C29898   1.374  10.388   0.410 -0.0821 -0.5610  0.0459
  963MOL0     C29899   1.473  10.402   0.529 -0.2866 -0.1208 -0.2079
  963MOL0     O29900   1.494  10.532   0.563  0.6373 -0.1740 -0.3624
  963MOL0     C29901   1.613  10.545   0.634  0.0387  0.3759 -0.3072
  963MOL0     C29902   1.606  10.591   0.773 -0.0577 -0.0956  0.1299
  963MOL0     C29903   1.723  10.601   0.848 -0.1277 -0.1304 -0.0256
  963MOL0     C29904   1.851  10.577   0.793  0.7852 -0.5158  0.3811
  963MOL0     O29905   1.956  10.589   0.877  0.0979  0.7549  0.4813
  963MOL0     C29906   2.093  10.561   0.837 -0.2269 -0.4314 -0.2452
  963MOL0     C29907   2.166  10.529   0.972  0.0398  0.2890 -0.0321
  963MOL0     C29908   2.316  10.531   0.958 -0.4342  0.5506 -0.2277
  963MOL0     C29909   2.375  10.671   0.965 -1.0047  0.2969 -0.1072
  963MOL0     C29910   2.527  10.687   0.926  1.4759 -0.9049 -0.2673
  963MOL0     C29911   2.562  10.838   0.969 -0.0139 -0.1845  0.9981
  963MOL0     C29912   2.711  10.852   0.942 -0.6765  1.1945  0.2451
  963MOL0     C29913   2.766  10.859   0.795  0.0744 -0.2107 -0.1453
  963MOL0    Cl29914   2.676  10.978   0.695 -0.3679  0.6284  0.2551
  963MOL0     C29915   1.859  10.527   0.662 -0.1402 -0.3718 -0.3073
  963MOL0     C29916   1.741  10.522   0.584 -0.6934  0.1804 -0.7263
  963MOL0     O29917   1.512  10.303   0.588 -0.1203 -0.9616  0.1809
  963MOL0     C29918   1.324  10.267   0.370  0.4815  0.1246  0.1143
  963MOL0     C29919   1.206  10.264   0.289 -0.0518 -0.2562 -0.2502
  963MOL0     N29920   0.673  10.595  -0.363 -0.2715 -0.1101  0.8769
  963MOL0     N29921   0.721  10.681  -0.442  0.3271  0.1416 -0.6299
  963MOL0     C29922   1.682  11.228   0.257 -0.0134  0.4646 -0.1409
  963MOL0     C29923   1.810  11.261   0.299 -0.0464 -0.3407 -0.0256
  963MOL0     C29924   2.232  11.296   0.403  0.3941 -0.3863  0.0249
  963MOL0     C29925   2.359  11.230   0.399  0.0536 -0.5049 -0.5014
  963MOL0     C29926   2.479  11.293   0.424  0.4327 -1.2320 -0.5281
  963MOL0     C29927   2.488  11.433   0.450  0.4120 -0.0321 -0.7857
  963MOL0     O29928   2.596  11.501   0.495  0.1561  0.2458  0.0853
  963MOL0     C29929   2.716  11.447   0.448  0.0144  0.1611 -0.3232
  963MOL0     C29930   2.830  11.544   0.479 -0.7333  0.0584 -0.8227
  963MOL0     C29931   2.966  11.495   0.419  0.4310  0.1526  0.4438
  963MOL0     C29932   3.048  11.406   0.524  0.4360 -0.3419  0.0729
  963MOL0     C29933   2.971  11.287   0.559 -0.6823 -0.0802 -0.6392
  963MOL0     C29934   2.918  11.187   0.586 -0.7155 -0.4317  0.6239
  963MOL0     C29935   2.368  11.508   0.440 -0.2129  0.0876  0.1871
  963MOL0     C29936   2.237  11.437   0.423 -0.2832 -1.0937  0.6633
  963MOL0     C29937   2.107  11.524   0.426  0.2508 -0.2095  0.1676
  963MOL0     H29938   1.978  11.180   0.022  0.8428 -0.9186  0.2040
  963MOL0     H29939   1.739  11.150  -0.058  0.6173  0.6371 -1.2298
  963MOL0     H29940   1.548  11.214  -0.121  1.3716 -1.2915  0.2814
  963MOL0     H29941   1.531  11.040  -0.074 -0.5518  0.5218 -4.3297
  963MOL0     H29942   1.302  11.261  -0.087 -0.6249 -0.1783 -2.5103
  963MOL0     H29943   1.278  11.124  -0.011 -1.0596  3.1792  0.9915
  963MOL0     H29944   1.340  10.984  -0.194  0.4344 -0.1926 -0.8693
  963MOL0     H29945   1.371  11.111  -0.303 -0.4667 -0.1469 -0.4267
  963MOL0     H29946   1.089  11.058  -0.176  0.3031  0.3665 -0.6546
  963MOL0     H29947   1.127  11.169  -0.312 -0.4625  0.5352 -1.1820
  963MOL0     H29948   1.185  10.994  -0.465 -0.2266  0.6843 -1.1868
  963MOL0     H29949   1.157  10.865  -0.338 -0.2058 -0.0819 -1.6882
  963MOL0     H29950   0.927  10.896  -0.336  0.2284 -0.9066 -0.1652
  963MOL0     H29951   0.933  11.045  -0.436  0.1346 -0.3800 -1.8044
  963MOL0     H29952   1.024  10.908  -0.619  0.0535 -0.2524  0.1871
  963MOL0     H29953   0.851  10.906  -0.579 -0.6264  0.0597  0.5406
  963MOL0     H29954   0.915  10.675  -0.631  0.1931  0.6483 -0.8495
  963MOL0     H29955   1.047  10.664  -0.516 -0.5069 -0.6602 -1.2071
  963MOL0     H29956   0.984  10.520  -0.356  0.1261 -0.2119 -2.9341
  963MOL0     H29957   0.661  10.440  -0.150 -0.0348  1.4061 -1.1657
  963MOL0     H29958   0.745  10.327  -0.253 -2.0664  1.2047 -1.4476
  963MOL0     H29959   0.883  10.298  -0.078 -1.6963 -0.5615 -0.1067
  963MOL0     H29960   0.969  10.418  -0.166  0.0825 -1.0885 -0.2257
  963MOL0     H29961   0.796  10.436   0.095 -1.1309  2.8273  0.9059
  963MOL0     H29962   0.819  10.578  -0.005  2.3714  0.2312  0.1385
  963MOL0     H29963   0.983  10.594   0.162 -2.6705  0.1038 -0.9118
  963MOL0     H29964   1.062  10.534   0.011  0.8189  0.9457  0.6353
  963MOL0     H29965   1.198  10.602   0.220 -1.1621 -0.6418 -0.0489
  963MOL0     H29966   1.381  10.590   0.370  0.8116  0.2301 -0.2756
  963MOL0     H29967   1.508  10.616   0.812 -2.2557 -2.8844 -2.9901
  963MOL0     H29968   1.702  10.620   0.952 -1.4102 -0.0523 -0.2802
  963MOL0     H29969   2.101  10.470   0.778 -0.2388  0.2837 -1.3850
  963MOL0     H29970   2.148  10.642   0.788 -1.4959 -0.2216 -1.4047
  963MOL0     H29971   2.140  10.604   1.047 -2.8205 -1.0491  0.4591
  963MOL0     H29972   2.142  10.427   1.006 -2.5766 -0.0038 -2.3803
  963MOL0     H29973   2.360  10.476   1.041  0.1904  1.4790  0.0750
  963MOL0     H29974   2.344  10.474   0.869 -4.1164  2.2135 -2.7314
  963MOL0     H29975   2.361  10.692   1.072 -2.5553  2.1629 -0.6127
  963MOL0     H29976   2.314  10.739   0.905 -4.8146 -1.5229  1.3488
  963MOL0     H29977   2.542  10.662   0.821  1.3837 -0.6013 -0.3558
  963MOL0     H29978   2.583  10.614   0.985  0.1035 -1.2065  0.7149
  963MOL0     H29979   2.505  10.912   0.913 -0.9769 -1.0323  0.8297
  963MOL0     H29980   2.538  10.851   1.075 -1.7029 -0.5749  0.7003
  963MOL0     H29981   2.762  10.766   0.986 -1.3781 -0.5797 -2.1747
  963MOL0     H29982   2.753  10.940   0.990  1.7490  1.1978 -1.7075
  963MOL0     H29983   2.874  10.876   0.793 -0.1268  1.3473  0.8364
  963MOL0     H29984   2.764  10.761   0.746  1.7163 -0.1759 -0.3421
  963MOL0     H29985   1.955  10.498   0.619 -1.1159 -1.9098 -1.5907
  963MOL0     H29986   1.768  10.485   0.485 -0.6573 -1.7569 -0.0461
  963MOL0     H29987   1.369  10.182   0.421  0.7760  1.0372  1.4526
  963MOL0     H29988   1.157  10.173   0.255 -0.1669 -0.3470  0.1577
  963MOL0     H29989   1.598  11.251   0.322 -1.8548  2.6496 -3.0477
  963MOL0     H29990   1.823  11.297   0.400 -1.0395 -0.5391  0.1853
  963MOL0     H29991   2.341  11.124   0.381 -0.8406  0.2117 -4.9315
  963MOL0     H29992   2.563  11.223   0.425  0.4169 -1.2488 -0.1236
  963MOL0     H29993   2.706  11.436   0.340  3.2827  0.8267 -0.7991
  963MOL0     H29994   2.734  11.348   0.492 -0.9610  0.0154 -0.2306
  963MOL0     H29995   2.832  11.563   0.586 -3.1159 -0.8390 -0.5500
  963MOL0     H29996   2.797  11.637   0.431 -2.0671 -0.3877 -0.8267
  963MOL0     H29997   3.019  11.582   0.378 -1.4660  0.1255 -2.4225
  963MOL0     H29998   2.949  11.435   0.329  3.0206 -1.5858  0.9856
  963MOL0     H29999   3.149  11.377   0.495  1.3896  1.6857  1.1519
  963MOL0     H30000   3.062  11.462   0.617  0.5681  0.6291 -0.5122
  963MOL0     H30001   2.871  11.091   0.594 -2.4569  0.4502  1.6202
  963MOL0     H30002   2.377  11.615   0.454 -0.4045  0.3336 -1.3589
  963MOL0     H30003   2.041  11.468   0.494 -1.1302 -0.4656 -1.3200
  963MOL0     H30004   2.106  11.625   0.467 -1.3424 -0.3577  0.5563
  963MOL0     H30005   2.054  11.514   0.331 -1.7781  2.2981  0.9112
  964MOL0     O30006   5.145   3.229  10.391  1.0633 -0.2408 -0.0619
  964MOL0     C30007   5.248   3.267  10.439  0.3929  0.2041 -0.8702
  964MOL0     O30008   5.271   3.276  10.572  0.0573  0.8347 -0.3970
  964MOL0     C30009   5.170   3.259  10.664  0.7864 -0.5415 -0.0673
  964MOL0     C30010   5.162   3.157  10.755 -0.1643  0.2712  1.0340
  964MOL0     C30011   5.055   3.138  10.844 -0.5382 -0.0981 -1.1775
  964MOL0     C30012   4.948   3.233  10.855 -0.2057 -0.3217  0.8154
  964MOL0     O30013   4.843   3.212  10.936  0.6931 -0.2594  0.4272
  964MOL0     C30014   4.716   3.253  10.898 -0.2901 -0.1755  0.3403
  964MOL0     C30015   4.690   3.391  10.964  1.2781  1.0826 -0.7655
  964MOL0     C30016   4.656   3.370  11.120 -0.3462  0.5667 -0.5769
  964MOL0     C30017   4.781   3.399  11.203 -0.0036  0.2164 -1.3697
  964MOL0     C30018   4.736   3.396  11.348 -0.6276 -0.6616 -0.3901
  964MOL0     C30019   4.848   3.438  11.445  0.1763  0.1784 -0.0834
  964MOL0     C30020   4.821   3.441  11.604 -0.2172 -0.3138  0.2948
  964MOL0     C30021   4.869   3.553  11.684  1.5722 -0.4541 -0.1591
  964MOL0     N30022   5.010   3.575  11.658 -0.3555  0.2397  1.3664
  964MOL0     C30023   5.104   3.473  11.634  0.3164 -0.0398 -0.8615
  964MOL0     C30024   5.211   3.531  11.584  0.5161 -0.1601  0.1555
  964MOL0     C30025   5.333   3.469  11.528 -0.3409 -0.7652  0.1330
  964MOL0     C30026   5.307   3.385  11.402  0.5928  0.7630 -0.0031
  964MOL0     C30027   5.229   3.461  11.283 -0.4074  0.8162  0.0756
  964MOL0     C30028   5.304   3.586  11.228  0.4358  0.6009 -0.3667
  964MOL0     O30029   5.441   3.545  11.194 -0.0834 -0.2410 -0.3466
  964MOL0     C30030   5.484   3.468  11.086 -0.4112 -0.6346  0.3023
  964MOL0     C30031   5.618   3.439  11.073  1.1057  0.3193  0.7995
  964MOL0     C30032   5.672   3.380  10.962 -0.3041 -0.6046 -0.6647
  964MOL0     C30033   5.595   3.330  10.858 -0.1994  0.0968 -0.3447
  964MOL0     C30034   5.662   3.254  10.750  0.7462 -0.8343 -0.5478
  964MOL0     O30035   5.575   3.180  10.669  0.1891  0.0091  0.2360
  964MOL0     C30036   5.627   3.073  10.598 -0.5312 -0.2274  0.0532
  964MOL0     C30037   5.730   3.088  10.509  0.1719 -0.1688 -1.0224
  964MOL0     C30038   5.786   2.981  10.428  0.2412  0.2990 -0.0790
  964MOL0     C30039   5.730   2.853  10.447 -0.2446 -0.4434  0.8969
  964MOL0     O30040   5.780   2.740  10.386 -0.0791  0.7022  0.8410
  964MOL0     C30041   5.789   2.748  10.248 -0.4591 -0.2817  0.7331
  964MOL0     C30042   5.894   2.643  10.195  0.0883 -0.7681  0.2063
  964MOL0     C30043   5.881   2.505  10.266  0.0460  0.2069  1.4576
  964MOL0     C30044   5.905   2.389  10.161  0.3339 -0.4477 -0.2197
  964MOL0     C30045   5.891   2.257  10.229  0.2867 -0.0590  0.3529
  964MOL0     C30046   5.958   2.137  10.160 -0.2458  0.0185  0.2203
  964MOL0     C30047   5.895   2.102  10.023 -0.1569  0.2296  0.4499
  964MOL0     C30048   5.956   1.979   9.951 -0.1620 -0.8601  0.2035
  964MOL0    Cl30049   5.965   1.833  10.047 -0.6171  0.0574 -0.0421
  964MOL0     C30050   5.624   2.838  10.537 -0.3432 -0.2153  0.6160
  964MOL0     C30051   5.571   2.947  10.604 -0.1890 -0.3215 -1.0233
  964MOL0     O30052   5.783   3.246  10.754  0.1600  0.0076  0.1464
  964MOL0     C30053   5.456   3.355  10.871 -0.1162 -0.3083  0.4625
  964MOL0     C30054   5.401   3.412  10.987  1.1926  0.0847 -0.3245
  964MOL0     N30055   5.183   3.668  11.575 -0.0579 -0.8210  0.2843
  964MOL0     N30056   5.062   3.684  11.601 -0.4720 -0.0196 -0.0566
  964MOL0     C30057   4.964   3.352  10.774  0.4804  0.8625  0.0295
  964MOL0     C30058   5.070   3.353  10.679 -0.5467 -0.2177  0.5866
  964MOL0     C30059   5.369   3.297  10.351  1.1209 -0.3148 -0.4873
  964MOL0     C30060   5.489   3.347  10.413  0.0220  0.9595 -0.8292
  964MOL0     C30061   5.608   3.363  10.338 -0.0459 -0.1862 -0.7384
  964MOL0     C30062   5.604   3.346  10.197 -0.4849  1.3149  0.6311
  964MOL0     O30063   5.709   3.358  10.106 -0.5975 -0.2258 -0.3388
  964MOL0     C30064   5.814   3.438  10.156 -0.5654  0.1216  0.4654
  964MOL0     C30065   5.863   3.520  10.034 -0.8897 -0.4929 -0.0751
  964MOL0     C30066   5.964   3.457   9.928 -0.4846 -0.1492  0.5507
  964MOL0     C30067   6.091   3.544   9.913 -0.9419  0.0194 -0.2811
  964MOL0     C30068   6.128   3.499   9.782 -0.1860 -0.0260 -0.0163
  964MOL0     C30069   6.170   3.470   9.680  0.3870 -0.1966  0.0147
  964MOL0     C30070   5.488   3.304  10.143  0.0461  0.0876  0.0596
  964MOL0     C30071   5.372   3.275  10.214  0.3066  0.6252  0.0342
  964MOL0     C30072   5.255   3.221  10.133  0.8715 -0.3312  0.0891
  964MOL0     H30073   5.232   3.074  10.750 -0.2433  0.2859 -1.1891
  964MOL0     H30074   5.039   3.046  10.900  0.8126 -0.4172 -1.2796
  964MOL0     H30075   4.705   3.268  10.790  0.9887  0.2439  0.2559
  964MOL0     H30076   4.644   3.180  10.938  0.6916 -1.9188 -0.9314
  964MOL0     H30077   4.603   3.443  10.924  0.2550  0.1869  0.2063
  964MOL0     H30078   4.775   3.459  10.959 -0.5087  3.5706  0.3155
  964MOL0     H30079   4.614   3.270  11.131 -1.6164  1.2332  0.9418
  964MOL0     H30080   4.576   3.441  11.144 -0.0488  0.6883  0.0547
  964MOL0     H30081   4.850   3.313  11.198  0.4250  0.2784  1.6323
  964MOL0     H30082   4.830   3.493  11.175  1.4776 -0.8474 -2.5793
  964MOL0     H30083   4.659   3.472  11.360  0.4795  0.2822  0.9385
  964MOL0     H30084   4.700   3.295  11.372  1.9796 -1.7852 -0.8861
  964MOL0     H30085   4.936   3.373  11.434  0.8775  1.3563 -1.9359
  964MOL0     H30086   4.886   3.540  11.429 -0.6561  0.1384 -2.7750
  964MOL0     H30087   4.851   3.345  11.648  2.7548 -0.3327 -1.5386
  964MOL0     H30088   4.712   3.444  11.616 -0.3730 -0.6305 -0.9065
  964MOL0     H30089   4.818   3.646  11.658 -1.0581 -1.8685 -0.4658
  964MOL0     H30090   4.857   3.521  11.788  1.2578 -1.0205 -0.3630
  964MOL0     H30091   5.109   3.369  11.666  3.4072 -0.2423 -1.7313
  964MOL0     H30092   5.397   3.549  11.488 -0.2321 -2.0608 -2.4691
  964MOL0     H30093   5.384   3.404  11.599 -0.1249 -0.3760  0.3372
  964MOL0     H30094   5.401   3.346  11.362 -0.7021  0.9646 -3.6247
  964MOL0     H30095   5.244   3.306  11.445 -3.4058  4.0699  0.8784
  964MOL0     H30096   5.126   3.482  11.313 -1.0552 -0.4647 -1.1437
  964MOL0     H30097   5.231   3.383  11.206  0.6783  0.4995  0.4074
  964MOL0     H30098   5.325   3.661  11.305  2.8460 -3.0100  2.9107
  964MOL0     H30099   5.258   3.629  11.139  2.0328 -0.0312 -1.5492
  964MOL0     H30100   5.679   3.490  11.147 -0.1604  2.4526  0.4628
  964MOL0     H30101   5.780   3.371  10.959 -0.0645 -3.0389  4.1577
  964MOL0     H30102   5.772   3.187  10.493 -2.1229  1.2827  1.1622
  964MOL0     H30103   5.873   2.996  10.365 -0.0902  0.9310 -0.3983
  964MOL0     H30104   5.696   2.734  10.190 -1.3675  3.6577  0.9653
  964MOL0     H30105   5.823   2.845  10.213  2.2228 -1.1581  0.7269
  964MOL0     H30106   5.896   2.645  10.086  0.7039 -0.3085  0.2185
  964MOL0     H30107   5.995   2.678  10.219 -0.2219  2.5377 -2.5182
  964MOL0     H30108   5.942   2.488  10.355 -3.4923  0.2880  4.1339
  964MOL0     H30109   5.781   2.484  10.305 -0.1741  0.1494  0.8778
  964MOL0     H30110   6.001   2.401  10.110 -1.4124 -0.4239 -3.7412
  964MOL0     H30111   5.830   2.392  10.082  1.2966  2.7725 -1.1432
  964MOL0     H30112   5.785   2.233  10.241  0.7652 -1.3047  2.7652
  964MOL0     H30113   5.924   2.264  10.333  2.2101 -1.9524 -0.0504
  964MOL0     H30114   6.063   2.160  10.138 -0.1692 -3.1089 -4.0491
  964MOL0     H30115   5.958   2.049  10.224  2.3291 -2.1427 -2.4601
  964MOL0     H30116   5.906   2.187   9.956 -2.3168  1.0243  1.0217
  964MOL0     H30117   5.791   2.069  10.014 -1.0508  3.0675 -0.4086
  964MOL0     H30118   5.905   1.959   9.856  2.0013 -2.1123 -0.7585
  964MOL0     H30119   6.058   2.015   9.932 -0.2015  1.2617  3.1779
  964MOL0     H30120   5.580   2.739  10.550 -1.2647  0.4867  3.6184
  964MOL0     H30121   5.486   2.922  10.667  0.6326 -2.0331 -0.5247
  964MOL0     H30122   5.389   3.311  10.797  0.2576 -0.9507  0.4985
  964MOL0     H30123   5.293   3.419  10.984  1.0101 -1.3249  0.9883
  964MOL0     H30124   4.889   3.430  10.769  0.2481  0.5903 -3.1281
  964MOL0     H30125   5.070   3.444  10.620 -1.7484 -2.1047 -2.5843
  964MOL0     H30126   5.484   3.364  10.520 -1.0016  2.2620 -1.0532
  964MOL0     H30127   5.691   3.405  10.394  0.9068  0.9541 -2.9240
  964MOL0     H30128   5.879   3.370  10.213 -0.0474 -0.1007 -0.3739
  964MOL0     H30129   5.781   3.521  10.219  4.9410  1.7757  1.7791
  964MOL0     H30130   5.900   3.615  10.075 -0.8867 -0.9817  1.1060
  964MOL0     H30131   5.781   3.549   9.968  0.1845 -0.3516 -1.3843
  964MOL0     H30132   5.915   3.431   9.834  1.1916 -1.8723  0.0809
  964MOL0     H30133   5.993   3.358   9.966  5.2028  0.1743 -1.8572
  964MOL0     H30134   6.067   3.650   9.924 -1.5826 -0.1187 -0.2627
  964MOL0     H30135   6.180   3.523   9.973  1.2011  5.6326 -0.8941
  964MOL0     H30136   6.213   3.441   9.586  1.5737  3.4824 -0.7356
  964MOL0     H30137   5.482   3.306  10.034 -1.4086 -0.7228  0.1043
  964MOL0     H30138   5.188   3.306  10.122  0.4801 -0.4069  1.6980
  964MOL0     H30139   5.291   3.202  10.031 -0.2788  0.5724 -0.5067
  964MOL0     H30140   5.202   3.138  10.180 -3.0345  2.9337  2.0254
  965MOL0     O30141   3.415   2.026   3.750 -0.1212 -0.0804 -0.2797
  965MOL0     C30142   3.442   2.122   3.680 -1.5622 -0.5832  0.2127
  965MOL0     O30143   3.537   2.130   3.574 -0.2128  0.6478  0.6554
  965MOL0     C30144   3.661   2.081   3.606  0.0942  0.6284  0.1981
  965MOL0     C30145   3.702   2.054   3.738 -0.2764 -0.1095 -0.4909
  965MOL0     C30146   3.827   1.990   3.764 -0.1529  0.7341  0.5755
  965MOL0     C30147   3.899   1.948   3.657 -0.7809 -0.0428 -0.7312
  965MOL0     O30148   4.017   1.882   3.655  0.4512 -0.2164  0.2356
  965MOL0     C30149   4.078   1.842   3.768 -0.2840  0.3538 -0.0533
  965MOL0     C30150   4.221   1.789   3.741  0.2583 -0.2771  0.5705
  965MOL0     C30151   4.219   1.663   3.659  0.0555  0.2734 -0.5743
  965MOL0     C30152   4.176   1.541   3.749  0.6194 -0.0737 -0.3857
  965MOL0     C30153   4.077   1.450   3.679  0.0799 -0.8397  0.9927
  965MOL0     C30154   4.131   1.387   3.553  0.1605 -0.1023  0.2922
  965MOL0     C30155   4.019   1.302   3.487 -0.3218 -0.3283 -0.4368
  965MOL0     C30156   3.925   1.379   3.392 -1.0486  0.3637  0.1891
  965MOL0     N30157   3.985   1.453   3.286  0.0134  0.4800  0.6740
  965MOL0     C30158   3.993   1.589   3.269  0.2115 -0.6033  0.1703
  965MOL0     C30159   4.090   1.617   3.180  0.4636  0.4600 -0.4750
  965MOL0     C30160   4.157   1.750   3.157  0.3370  1.0145  0.0954
  965MOL0     C30161   4.244   1.795   3.285  0.0172  0.8253 -0.1928
  965MOL0     C30162   4.287   1.938   3.301 -0.4662  0.5981  0.1072
  965MOL0     C30163   4.377   1.992   3.185  0.4359 -0.1890 -0.7724
  965MOL0     O30164   4.487   1.899   3.175  0.1682  0.0901 -0.6511
  965MOL0     C30165   4.546   1.882   3.051 -0.6049 -0.4033  0.6116
  965MOL0     C30166   4.681   1.842   3.046 -0.0412 -0.1053  0.4033
  965MOL0     C30167   4.758   1.831   2.930 -0.9876  0.0913  0.5142
  965MOL0     C30168   4.702   1.857   2.809  0.2759 -0.2467 -0.9194
  965MOL0     C30169   4.771   1.834   2.681 -0.5743  1.0469  0.6195
  965MOL0     O30170   4.687   1.828   2.563  0.1230 -0.3749 -0.3364
  965MOL0     C30171   4.735   1.812   2.435 -1.0858 -0.6987 -1.2378
  965MOL0     C30172   4.674   1.734   2.343 -0.0024  0.1166  0.0799
  965MOL0     C30173   4.729   1.728   2.213  0.0561 -0.4964  0.5574
  965MOL0     C30174   4.829   1.820   2.176 -0.4369  0.0267  0.0824
  965MOL0     O30175   4.883   1.834   2.050 -0.2961 -0.2014  0.4649
  965MOL0     C30176   4.837   1.759   1.935  0.1871  0.0150 -0.4982
  965MOL0     C30177   4.751   1.842   1.841 -0.6801 -0.2286 -0.0614
  965MOL0     C30178   4.663   1.772   1.746 -0.3060  0.0540 -0.5949
  965MOL0     C30179   4.608   1.874   1.649 -1.1589 -0.4158  0.3375
  965MOL0     C30180   4.512   1.819   1.550 -0.5577  0.5853  0.0311
  965MOL0     C30181   4.434   1.948   1.503 -0.3260 -0.8013 -0.3010
  965MOL0     C30182   4.328   1.904   1.411  0.5094 -0.2324 -0.4652
  965MOL0     C30183   4.227   2.011   1.405  0.9420 -0.4950 -0.0990
  965MOL0    Cl30184   4.090   1.964   1.510 -0.5513  0.0426 -0.1944
  965MOL0     C30185   4.887   1.900   2.275 -0.1209  0.0066  0.4427
  965MOL0     C30186   4.835   1.897   2.399 -0.3213 -0.3692  0.5305
  965MOL0     O30187   4.897   1.811   2.685  0.7886 -0.4798  0.0616
  965MOL0     C30188   4.568   1.913   2.803  0.4633  0.3439 -0.1336
  965MOL0     C30189   4.499   1.931   2.927  0.1935  0.3984 -1.1057
  965MOL0     N30190   4.134   1.495   3.136 -0.1078  0.6374 -0.0463
  965MOL0     N30191   4.073   1.397   3.197 -0.7665 -0.8893  0.0449
  965MOL0     C30192   3.863   1.981   3.523  0.6403 -0.2119 -1.2620
  965MOL0     C30193   3.743   2.039   3.499 -0.1942  1.2129 -0.2618
  965MOL0     C30194   3.359   2.240   3.697 -0.1432  0.7074 -0.3665
  965MOL0     C30195   3.306   2.315   3.583 -0.3026  0.0913  0.1190
  965MOL0     C30196   3.231   2.425   3.601  0.1285 -0.5131 -0.1202
  965MOL0     C30197   3.192   2.466   3.726 -1.1653  0.3608 -0.4642
  965MOL0     O30198   3.105   2.573   3.738  0.3721 -0.4619 -0.0893
  965MOL0     C30199   2.977   2.533   3.683  0.4355  0.7636  0.3227
  965MOL0     C30200   2.868   2.623   3.748  0.1327  0.7066  0.2702
  965MOL0     C30201   2.905   2.782   3.732  0.4073 -0.2049  0.2400
  965MOL0     C30202   2.821   2.870   3.830 -0.3198  0.0690  0.6753
  965MOL0     C30203   2.871   2.842   3.966 -0.2841 -0.5671 -0.3484
  965MOL0     C30204   2.924   2.787   4.066  0.6916 -1.2777 -0.7048
  965MOL0     C30205   3.244   2.400   3.836  0.4500  0.2515 -0.5414
  965MOL0     C30206   3.317   2.280   3.827  0.5416 -0.6610 -0.5731
  965MOL0     C30207   3.375   2.226   3.960 -0.2465  0.5145  0.7399
  965MOL0     H30208   3.646   2.083   3.826  1.0303 -0.6066  0.5332
  965MOL0     H30209   3.852   1.964   3.866 -3.0385 -0.9941  0.9640
  965MOL0     H30210   4.108   1.927   3.830 -2.0053  0.9591 -0.0007
  965MOL0     H30211   4.005   1.775   3.815 -0.2270 -1.1977 -2.0222
  965MOL0     H30212   4.265   1.775   3.840  4.4234  0.2610 -1.0129
  965MOL0     H30213   4.275   1.869   3.688 -0.7347 -0.6004 -1.0028
  965MOL0     H30214   4.316   1.640   3.615  0.2000  3.0399 -1.9095
  965MOL0     H30215   4.147   1.672   3.577 -2.3772 -1.8512  1.1271
  965MOL0     H30216   4.269   1.487   3.767 -0.0271 -1.1775 -0.2130
  965MOL0     H30217   4.125   1.563   3.843 -1.2932 -0.9982 -1.1388
  965MOL0     H30218   4.052   1.370   3.750 -1.6958 -0.5282  0.7609
  965MOL0     H30219   3.985   1.504   3.654  0.6864  0.2474  1.0478
  965MOL0     H30220   4.162   1.458   3.476  1.7565 -0.3777  0.6348
  965MOL0     H30221   4.219   1.325   3.575  0.4442  1.1225  2.9767
  965MOL0     H30222   3.945   1.265   3.558  1.1703 -1.7343  0.4754
  965MOL0     H30223   4.048   1.211   3.433 -3.7920 -1.6568 -0.2878
  965MOL0     H30224   3.862   1.308   3.338  1.0505 -1.4874  0.0412
  965MOL0     H30225   3.863   1.444   3.454 -1.1031 -0.2195  0.7582
  965MOL0     H30226   3.945   1.663   3.332 -2.4126 -0.9417 -1.3045
  965MOL0     H30227   4.214   1.747   3.064  0.2453 -2.2445  0.0201
  965MOL0     H30228   4.074   1.819   3.141 -0.6106 -0.1522 -0.1761
  965MOL0     H30229   4.194   1.782   3.382  0.0913  2.5010  0.1094
  965MOL0     H30230   4.335   1.735   3.281  1.2278  2.6353 -3.2823
  965MOL0     H30231   4.348   1.943   3.391  4.1538  1.8281 -2.7533
  965MOL0     H30232   4.193   1.992   3.316 -0.8735 -0.6454  2.6430
  965MOL0     H30233   4.418   2.088   3.215  3.7247 -1.4681 -0.8224
  965MOL0     H30234   4.309   2.004   3.100  0.8159  1.0367 -0.9114
  965MOL0     H30235   4.734   1.822   3.139 -2.1592 -0.4499  1.6096
  965MOL0     H30236   4.861   1.798   2.942 -0.7969 -0.2209 -1.6382
  965MOL0     H30237   4.595   1.668   2.378  1.6999  0.0031  4.3914
  965MOL0     H30238   4.704   1.645   2.148 -1.0020  0.0296  0.2637
  965MOL0     H30239   4.921   1.719   1.879  0.6622  1.8017 -1.1339
  965MOL0     H30240   4.772   1.674   1.962  1.3500 -1.5797 -2.4725
  965MOL0     H30241   4.688   1.909   1.900 -3.6532  0.0037 -3.2060
  965MOL0     H30242   4.823   1.909   1.794  1.1783  0.3399  3.3127
  965MOL0     H30243   4.728   1.699   1.698  2.0891 -0.3024  2.8427
  965MOL0     H30244   4.584   1.714   1.794 -0.7548 -0.8391 -2.3414
  965MOL0     H30245   4.692   1.924   1.600 -2.2537  3.0490  1.6625
  965MOL0     H30246   4.557   1.950   1.711 -0.4371  0.2683  0.1078
  965MOL0     H30247   4.443   1.742   1.586  0.6424 -1.9430 -2.6488
  965MOL0     H30248   4.568   1.775   1.466  0.9474 -1.3137  1.9056
  965MOL0     H30249   4.390   2.007   1.584 -0.5334  0.9523 -1.6227
  965MOL0     H30250   4.499   2.015   1.446  0.9864 -0.9979  0.8824
  965MOL0     H30251   4.283   1.804   1.419 -0.8894  0.3434 -0.8218
  965MOL0     H30252   4.365   1.904   1.308 -0.9123 -0.1291 -0.9914
  965MOL0     H30253   4.272   2.106   1.435 -2.7584  1.1685  0.7739
  965MOL0     H30254   4.184   2.015   1.305  0.7984 -1.5560 -0.0930
  965MOL0     H30255   4.962   1.970   2.239  0.0086  1.1467  2.7579
  965MOL0     H30256   4.846   1.983   2.465 -3.3396  0.0795  0.6117
  965MOL0     H30257   4.509   1.939   2.715  1.0997  0.4460 -0.5364
  965MOL0     H30258   4.408   1.991   2.923  0.6217  1.5344  2.4844
  965MOL0     H30259   3.933   1.965   3.442  1.6749 -1.0086 -0.2570
  965MOL0     H30260   3.719   2.061   3.396 -0.6051  0.3539 -0.3593
  965MOL0     H30261   3.321   2.298   3.477 -2.1657 -2.0337  0.1373
  965MOL0     H30262   3.199   2.494   3.523  1.4455  0.0920 -0.1459
  965MOL0     H30263   2.946   2.430   3.701 -3.6248  2.1077  2.1762
  965MOL0     H30264   2.975   2.553   3.575  1.8328  3.5536  0.7301
  965MOL0     H30265   2.856   2.592   3.852 -3.9678  0.2272 -0.1672
  965MOL0     H30266   2.772   2.610   3.697  1.3494  0.8267 -2.2067
  965MOL0     H30267   2.889   2.812   3.628  0.7267 -2.3679 -0.4699
  965MOL0     H30268   3.010   2.806   3.750  0.1893  0.9488  0.0822
  965MOL0     H30269   2.819   2.973   3.793 -0.2462 -0.3425 -0.5326
  965MOL0     H30270   2.715   2.844   3.821  0.2333 -1.7241 -1.7763
  965MOL0     H30271   2.966   2.727   4.144 -3.6356 -2.0743  1.2610
  965MOL0     H30272   3.218   2.441   3.933 -0.8980 -0.1846 -0.6962
  965MOL0     H30273   3.377   2.305   4.036 -1.5953  0.2614  1.0630
  965MOL0     H30274   3.308   2.142   3.984 -1.3258  1.0063 -0.4253
  965MOL0     H30275   3.474   2.184   3.938  0.1785  2.1225 -0.6138
  966MOL0     O30276   5.631   3.931  10.380  0.0295 -0.9299 -0.4571
  966MOL0     C30277   5.602   3.835  10.313 -0.0660  0.6709  0.0591
  966MOL0     O30278   5.639   3.700  10.342  0.0920 -0.7351 -0.3128
  966MOL0     C30279   5.751   3.699  10.430  0.5394  0.5398  0.5176
  966MOL0     C30280   5.743   3.632  10.552  0.2523  0.3218  0.2598
  966MOL0     C30281   5.854   3.618  10.624 -0.3135  0.8006  0.4142
  966MOL0     C30282   5.975   3.662  10.582 -0.5353 -1.0387  0.2701
  966MOL0     O30283   6.069   3.680  10.680 -1.2860 -0.9376 -0.1761
  966MOL0     C30284   6.186   3.764  10.656 -0.5565  0.7378 -0.3453
  966MOL0     C30285   6.288   3.728  10.762 -0.1752  0.8389 -0.6362
  966MOL0     C30286   6.411   3.831  10.775  0.8163 -0.1528 -0.0394
  966MOL0     C30287   6.508   3.801  10.893 -0.2096 -0.0101  0.0884
  966MOL0     C30288   6.650   3.850  10.853 -0.0992 -0.1661  0.6691
  966MOL0     C30289   6.737   3.747  10.772 -0.8528  0.0101  0.9197
  966MOL0     C30290   6.889   3.760  10.815  0.6867 -0.3156 -0.9814
  966MOL0     C30291   6.917   3.690  10.949  1.5088  0.5565  0.1499
  966MOL0     N30292   6.890   3.549  10.936 -0.8937  0.0481  0.2609
  966MOL0     C30293   6.985   3.462  10.881 -0.3202 -0.0839 -0.1577
  966MOL0     C30294   6.942   3.340  10.889  0.4647  0.0604  0.6066
  966MOL0     C30295   7.016   3.227  10.840 -0.2513 -0.0460 -0.4678
  966MOL0     C30296   6.984   3.179  10.696  0.1033 -0.1745  0.1039
  966MOL0     C30297   6.841   3.114  10.668 -0.3320 -0.2050  0.2228
  966MOL0     C30298   6.723   3.212  10.630  0.8167  0.5578  0.3029
  966MOL0     O30299   6.755   3.278  10.502 -1.0445 -0.1930 -0.2203
  966MOL0     C30300   6.676   3.381  10.457  0.4146 -0.4065 -0.8145
  966MOL0     C30301   6.685   3.411  10.318 -0.6942  0.2105  0.4706
  966MOL0     C30302   6.622   3.511  10.256  1.2016  0.0267  0.6573
  966MOL0     C30303   6.537   3.592  10.339 -0.2071  0.2737 -0.7013
  966MOL0     C30304   6.454   3.710  10.277 -0.0772  0.0683  0.8933
  966MOL0     O30305   6.455   3.727  10.135 -0.2990 -0.4772  0.5496
  966MOL0     C30306   6.421   3.859  10.094 -0.5145  0.4651 -0.3930
  966MOL0     C30307   6.487   3.981  10.145  0.1717  0.2125  0.5112
  966MOL0     C30308   6.445   4.108  10.103  0.3953  0.8398 -0.7187
  966MOL0     C30309   6.350   4.121  10.000 -1.3812 -0.4400 -0.0889
  966MOL0     O30310   6.328   4.248   9.961  0.1637 -0.4341 -0.4558
  966MOL0     C30311   6.192   4.280   9.940 -0.4286 -0.2589  0.1659
  966MOL0     C30312   6.153   4.424   9.935  0.2218 -0.0752 -0.6563
  966MOL0     C30313   6.011   4.456   9.962  0.2503 -0.4326 -0.6026
  966MOL0     C30314   5.923   4.450   9.842  0.2689 -0.2510  0.5051
  966MOL0     C30315   5.771   4.424   9.872  0.1029  0.4376 -0.8539
  966MOL0     C30316   5.663   4.480   9.777  0.4386 -0.0750 -0.2207
  966MOL0     C30317   5.519   4.480   9.824  0.1527 -0.9060 -0.5957
  966MOL0     C30318   5.432   4.363   9.810 -1.0423 -0.1353  0.7078
  966MOL0    Cl30319   5.498   4.230   9.912 -0.5388  0.0590  0.5874
  966MOL0     C30320   6.296   4.007   9.950  0.0956 -0.8896 -0.1787
  966MOL0     C30321   6.330   3.873   9.994  0.2887  0.1208  0.4962
  966MOL0     O30322   6.375   3.763  10.354  0.0342 -0.5432  0.7922
  966MOL0     C30323   6.518   3.564  10.477 -0.3192 -0.0399 -0.8483
  966MOL0     C30324   6.580   3.451  10.530 -0.0614 -0.4553  0.0716
  966MOL0     N30325   6.813   3.340  10.932  0.1014  0.5076 -0.1891
  966MOL0     N30326   6.779   3.465  10.956  0.9591 -0.2869 -0.1644
  966MOL0     C30327   5.986   3.720  10.451  0.1062  0.3707 -0.0894
  966MOL0     C30328   5.871   3.740  10.371  0.4324  0.3110  0.1639
  966MOL0     C30329   5.527   3.855  10.190 -0.1300  0.6006 -0.3325
  966MOL0     C30330   5.524   3.744  10.106  1.3983 -0.6822  0.3934
  966MOL0     C30331   5.451   3.749   9.990  0.3328 -1.1665  0.4990
  966MOL0     C30332   5.382   3.863   9.952  1.2168  0.5685  1.1500
  966MOL0     O30333   5.298   3.841   9.840  0.0671 -0.1704 -0.4002
  966MOL0     C30334   5.259   3.970   9.776 -0.1845  0.0807  0.4830
  966MOL0     C30335   5.229   3.923   9.634  0.1958 -0.0557 -0.0322
  966MOL0     C30336   5.344   3.856   9.559  0.2785 -0.2352 -0.1605
  966MOL0     C30337   5.406   3.928   9.433 -0.1873 -0.3792  0.0554
  966MOL0     C30338   5.470   4.054   9.476  0.1866  0.4468 -0.1073
  966MOL0     C30339   5.549   4.135   9.532  0.3841  0.4862  0.2817
  966MOL0     C30340   5.377   3.971  10.033 -0.1275  0.3951 -0.2988
  966MOL0     C30341   5.447   3.966  10.161  0.4660 -0.6749 -0.4947
  966MOL0     C30342   5.426   4.082  10.256 -0.2733 -0.8163  0.5239
  966MOL0     H30343   5.651   3.597  10.597  0.3920  0.1961  0.4530
  966MOL0     H30344   5.847   3.567  10.720 -4.3699  0.2761 -0.0134
  966MOL0     H30345   6.226   3.736  10.558 -0.4693 -0.1803 -0.0555
  966MOL0     H30346   6.166   3.871  10.667  0.2774  0.9000 -0.3750
  966MOL0     H30347   6.323   3.628  10.734  0.5034  0.4792  1.3183
  966MOL0     H30348   6.232   3.724  10.856 -1.9023 -2.9944 -1.6348
  966MOL0     H30349   6.366   3.925  10.808  2.3084  1.3322 -2.0477
  966MOL0     H30350   6.451   3.845  10.674 -0.0575  0.5441 -0.3024
  966MOL0     H30351   6.481   3.844  10.990 -1.1226  0.5050 -0.3906
  966MOL0     H30352   6.506   3.693  10.911  1.2349 -0.1470 -0.4022
  966MOL0     H30353   6.636   3.942  10.796  2.2973 -0.2244 -0.1378
  966MOL0     H30354   6.708   3.879  10.941  0.7944  0.4356 -0.0995
  966MOL0     H30355   6.699   3.646  10.787  2.2068 -1.5646 -0.9233
  966MOL0     H30356   6.739   3.779  10.667  1.4498 -0.9410  0.5990
  966MOL0     H30357   6.926   3.862  10.825  1.9595 -0.5082 -3.1942
  966MOL0     H30358   6.955   3.706  10.746  3.9412  1.2770  0.6369
  966MOL0     H30359   7.011   3.709  11.001 -0.0173 -1.4150  4.0657
  966MOL0     H30360   6.843   3.721  11.024 -0.1006  2.6650 -2.1186
  966MOL0     H30361   7.081   3.508  10.861 -0.1673  0.1619  1.0779
  966MOL0     H30362   7.123   3.244  10.855 -0.0266 -1.7680  0.0479
  966MOL0     H30363   6.989   3.142  10.903  3.7555 -2.2476 -1.4250
  966MOL0     H30364   6.996   3.273  10.640  3.2014 -0.3997  0.2330
  966MOL0     H30365   7.064   3.118  10.653 -0.4051  1.7382 -4.1261
  966MOL0     H30366   6.811   3.061  10.759 -0.7181 -0.2351  0.0819
  966MOL0     H30367   6.847   3.037  10.590 -0.5663 -0.6093  0.6014
  966MOL0     H30368   6.697   3.288  10.704 -1.7760 -0.3394  0.4122
  966MOL0     H30369   6.638   3.145  10.613  0.4915  1.0948 -0.2474
  966MOL0     H30370   6.757   3.357  10.257 -0.4257  3.6594 -2.5940
  966MOL0     H30371   6.635   3.529  10.150  2.1367 -0.5818  0.6618
  966MOL0     H30372   6.569   3.968  10.215  0.6674  1.0906  0.0966
  966MOL0     H30373   6.470   4.201  10.153 -0.8297 -0.5022  2.6571
  966MOL0     H30374   6.159   4.235   9.846  1.5710  1.1907 -1.3143
  966MOL0     H30375   6.145   4.236  10.028 -1.6972  0.3546 -0.1782
  966MOL0     H30376   6.221   4.470  10.007 -2.7899 -1.0574  3.1762
  966MOL0     H30377   6.171   4.475   9.839 -1.9609  2.5055  0.1773
  966MOL0     H30378   5.965   4.386  10.033 -0.8924  2.0150  1.2123
  966MOL0     H30379   6.016   4.555  10.009  0.2080 -1.8777  2.7124
  966MOL0     H30380   5.956   4.372   9.772  1.1477  0.8436 -0.3360
  966MOL0     H30381   5.928   4.537   9.776 -0.1078 -1.0116 -0.5553
  966MOL0     H30382   5.753   4.475   9.968 -0.9267  0.9691 -1.3090
  966MOL0     H30383   5.766   4.318   9.898  3.6603 -0.1311 -1.9908
  966MOL0     H30384   5.691   4.581   9.745  2.8428 -0.8909 -0.9346
  966MOL0     H30385   5.657   4.428   9.681 -1.3146  0.9025 -0.6780
  966MOL0     H30386   5.470   4.557   9.763  0.2745 -0.5501 -0.2514
  966MOL0     H30387   5.526   4.525   9.924 -0.5641 -0.3025 -0.8059
  966MOL0     H30388   5.328   4.391   9.832 -0.8631  1.1131  0.0794
  966MOL0     H30389   5.430   4.329   9.706 -0.1501  1.0597  0.2733
  966MOL0     H30390   6.236   3.999   9.859 -3.0414 -1.1068  1.7470
  966MOL0     H30391   6.290   3.780   9.955  3.8956 -1.2557 -0.2603
  966MOL0     H30392   6.456   3.631  10.536 -0.9149 -0.7961 -0.5942
  966MOL0     H30393   6.547   3.430  10.631 -0.5667  0.6957  0.1560
  966MOL0     H30394   6.076   3.765  10.409 -1.1728  2.9410 -0.3127
  966MOL0     H30395   5.885   3.786  10.273  0.8926  0.2978  0.2221
  966MOL0     H30396   5.550   3.641  10.125 -1.4200 -1.1239  2.5150
  966MOL0     H30397   5.441   3.659   9.930  2.9999 -0.8619 -0.5477
  966MOL0     H30398   5.344   4.038   9.768  0.6751 -1.0227  0.0446
  966MOL0     H30399   5.168   4.017   9.813 -1.5336  0.6146 -3.0993
  966MOL0     H30400   5.184   4.004   9.576 -1.4857  0.5885  2.0564
  966MOL0     H30401   5.162   3.837   9.637 -2.5362  1.8701 -1.4426
  966MOL0     H30402   5.303   3.763   9.519  2.2763 -2.4887  2.6237
  966MOL0     H30403   5.438   3.837   9.612  2.0182  1.8681 -2.2591
  966MOL0     H30404   5.478   3.858   9.390 -1.0717 -0.9605 -0.5240
  966MOL0     H30405   5.326   3.946   9.360 -1.6823  0.9401  1.9301
  966MOL0     H30406   5.615   4.200   9.585  1.1944 -1.0619  1.2344
  966MOL0     H30407   5.316   4.056  10.005 -0.2550  1.1006  1.9554
  966MOL0     H30408   5.359   4.160  10.221  1.8491  3.0826  4.2148
  966MOL0     H30409   5.398   4.059  10.360  1.5535  0.6568  1.4031
  966MOL0     H30410   5.523   4.132  10.256 -0.5281 -0.3189  0.1406
  967MOL0     O30411   5.350   7.040   2.117 -0.1048 -0.4956  0.1028
  967MOL0     C30412   5.419   7.003   2.208  0.0491 -0.2331 -0.0624
  967MOL0     O30413   5.438   7.072   2.323 -0.2707  0.1681 -0.0488
  967MOL0     C30414   5.406   7.203   2.316  0.3085  0.2657 -0.2720
  967MOL0     C30415   5.308   7.252   2.393  0.1849  0.4555 -1.0934
  967MOL0     C30416   5.266   7.384   2.404  0.2620 -0.1575  1.1425
  967MOL0     C30417   5.336   7.479   2.321  0.8714  0.9473  0.1603
  967MOL0     O30418   5.301   7.614   2.331 -0.2958 -0.3452  1.2263
  967MOL0     C30419   5.380   7.716   2.255  0.1305  0.4497  0.9050
  967MOL0     C30420   5.337   7.851   2.279 -0.1251 -0.3399 -0.0459
  967MOL0     C30421   5.389   7.949   2.169 -0.8096  0.8241  0.4999
  967MOL0     C30422   5.335   8.093   2.191 -0.0373  0.1326  0.4612
  967MOL0     C30423   5.388   8.189   2.089  0.1847 -0.0514  0.2658
  967MOL0     C30424   5.523   8.250   2.127 -0.0562  0.1877 -0.2273
  967MOL0     C30425   5.519   8.365   2.239 -0.4332  0.2111 -0.4904
  967MOL0     C30426   5.651   8.388   2.307 -0.3839  0.8342 -0.4515
  967MOL0     N30427   5.738   8.452   2.219  0.7914 -0.4143  0.4078
  967MOL0     C30428   5.705   8.582   2.175 -0.2124 -0.4005 -0.1115
  967MOL0     C30429   5.816   8.615   2.095 -0.2424  0.5911 -1.2032
  967MOL0     C30430   5.842   8.747   2.020  0.1020 -0.1257  0.5595
  967MOL0     C30431   5.817   8.883   2.088  0.2856 -0.1158 -1.4477
  967MOL0     C30432   5.870   8.998   2.009 -0.5378  0.1865 -0.1572
  967MOL0     C30433   5.846   9.129   2.086  0.3549 -0.6234 -0.3585
  967MOL0     O30434   5.899   9.236   2.003  0.6725  0.4366  0.8121
  967MOL0     C30435   6.028   9.266   1.995 -0.1753  0.0745  0.3838
  967MOL0     C30436   6.056   9.364   1.900  0.2462  0.9520  0.0202
  967MOL0     C30437   6.188   9.417   1.893  0.3000 -0.4232 -0.6064
  967MOL0     C30438   6.297   9.353   1.957 -1.0552 -0.1819 -0.5866
  967MOL0     C30439   6.449   9.393   1.928  0.2297 -0.2776 -0.1563
  967MOL0     O30440   6.470   9.482   1.820 -0.0547  1.3792 -0.2242
  967MOL0     C30441   6.603   9.507   1.790  0.9920  0.2214  0.0424
  967MOL0     C30442   6.689   9.576   1.874  0.2931 -0.2184  0.5979
  967MOL0     C30443   6.829   9.591   1.839 -0.6142  0.1265 -0.8790
  967MOL0     C30444   6.876   9.529   1.720  0.2315 -0.3323 -0.1020
  967MOL0     O30445   7.006   9.542   1.670 -0.3878 -0.3441  0.5029
  967MOL0     C30446   7.104   9.634   1.725  0.0801  0.5294 -0.8024
  967MOL0     C30447   7.165   9.603   1.869  0.0328  0.3747  1.0731
  967MOL0     C30448   7.218   9.455   1.895 -0.4913  0.2869  0.3916
  967MOL0     C30449   7.104   9.344   1.938  0.2096  0.4108  1.1184
  967MOL0     C30450   7.148   9.210   1.992 -0.4308  0.3978  0.7354
  967MOL0     C30451   7.253   9.151   1.912 -0.6781  0.2305  0.7818
  967MOL0     C30452   7.252   8.999   1.942 -0.2001  0.8405 -0.1068
  967MOL0     C30453   7.353   8.920   1.863 -0.5416 -0.4168 -0.3463
  967MOL0    Cl30454   7.510   8.945   1.945  0.0026 -0.4196  0.1660
  967MOL0     C30455   6.786   9.447   1.646  0.5245  0.1480 -1.1649
  967MOL0     C30456   6.652   9.438   1.682  0.0143 -0.0240  0.6498
  967MOL0     O30457   6.531   9.352   2.007  0.2786 -0.5686  0.1884
  967MOL0     C30458   6.267   9.260   2.058  1.0446  0.1940  0.9759
  967MOL0     C30459   6.134   9.206   2.070  0.2472 -0.5825  0.3025
  967MOL0     N30460   5.908   8.512   2.106  0.8891 -0.0486  0.1250
  967MOL0     N30461   5.857   8.419   2.173 -0.3480 -0.2513 -1.2673
  967MOL0     C30462   5.434   7.431   2.231 -0.3191  0.7172 -0.7629
  967MOL0     C30463   5.468   7.296   2.228 -0.0809 -0.1725  0.4958
  967MOL0     C30464   5.455   6.865   2.224  0.1003 -0.3681  0.0666
  967MOL0     C30465   5.437   6.802   2.343 -0.7423  0.3894 -0.0723
  967MOL0     C30466   5.445   6.666   2.348 -0.2948  0.4035 -0.2413
  967MOL0     C30467   5.497   6.594   2.246 -0.2862  0.0143  0.0349
  967MOL0     O30468   5.506   6.460   2.251 -0.2869  0.8700  0.2606
  967MOL0     C30469   5.493   6.389   2.135 -0.2761 -0.1917 -0.0722
  967MOL0     C30470   5.479   6.247   2.190  1.2490 -0.3139 -0.4653
  967MOL0     C30471   5.460   6.143   2.091 -1.2716  1.1224  0.7139
  967MOL0     C30472   5.354   6.160   1.983 -0.3657 -0.1214  0.0539
  967MOL0     C30473   5.217   6.187   2.037  0.0566  0.6437  0.0555
  967MOL0     C30474   5.096   6.202   2.053  0.0532  0.8599  1.1543
  967MOL0     C30475   5.538   6.663   2.122  0.5683  0.8459 -0.1501
  967MOL0     C30476   5.511   6.797   2.114 -0.6103 -0.4954 -0.4616
  967MOL0     C30477   5.543   6.851   1.984  0.2056 -0.5607  0.3718
  967MOL0     H30478   5.271   7.180   2.465 -0.3879  2.1989  0.4422
  967MOL0     H30479   5.181   7.410   2.466  0.3177 -0.6960  1.4562
  967MOL0     H30480   5.487   7.715   2.278  0.3415 -3.3181  0.3130
  967MOL0     H30481   5.366   7.699   2.148 -1.7786 -0.9629  1.3267
  967MOL0     H30482   5.385   7.886   2.370  0.2271  2.1768 -1.1028
  967MOL0     H30483   5.231   7.859   2.306  0.6436  0.6223  2.9909
  967MOL0     H30484   5.349   7.910   2.075  0.5243 -0.2987  0.3615
  967MOL0     H30485   5.498   7.946   2.160 -0.5207  1.3163  2.9772
  967MOL0     H30486   5.227   8.085   2.179 -0.0439 -0.5089  0.9334
  967MOL0     H30487   5.351   8.142   2.287 -0.0072 -1.0686  1.0890
  967MOL0     H30488   5.402   8.144   1.991  0.8998  0.2084  0.2460
  967MOL0     H30489   5.313   8.265   2.063  0.9794  0.3130 -1.0011
  967MOL0     H30490   5.576   8.170   2.180  2.6668  2.3659  0.5835
  967MOL0     H30491   5.573   8.282   2.035  0.4424  1.3511  0.4182
  967MOL0     H30492   5.443   8.323   2.306  2.1297 -1.8338  1.3691
  967MOL0     H30493   5.476   8.458   2.200  1.6842  0.5212 -2.2490
  967MOL0     H30494   5.647   8.442   2.402  2.7222  0.2892  0.1031
  967MOL0     H30495   5.694   8.289   2.324 -1.7340 -0.1660 -2.4355
  967MOL0     H30496   5.625   8.643   2.218  1.2904  1.1574  0.6143
  967MOL0     H30497   5.946   8.744   1.986 -0.1240 -3.8489 -0.2661
  967MOL0     H30498   5.779   8.745   1.931  1.0991  1.0394 -0.2088
  967MOL0     H30499   5.712   8.905   2.111  0.5182  1.1654 -1.4975
  967MOL0     H30500   5.866   8.895   2.185 -0.8711  3.2309 -1.1350
  967MOL0     H30501   5.817   9.000   1.913 -2.5416 -1.6737  0.8276
  967MOL0     H30502   5.978   8.990   1.992 -0.3294  1.9538  0.1982
  967MOL0     H30503   5.898   9.125   2.182 -2.1232  2.5125  1.2940
  967MOL0     H30504   5.738   9.144   2.099 -0.1076  0.1466 -3.8978
  967MOL0     H30505   5.975   9.412   1.847  0.1135  2.0205  1.1323
  967MOL0     H30506   6.217   9.501   1.830 -1.4749 -1.3474 -2.8086
  967MOL0     H30507   6.647   9.620   1.964  2.3324  1.6313  0.7121
  967MOL0     H30508   6.897   9.659   1.891  2.7582 -2.5058 -1.4870
  967MOL0     H30509   7.191   9.625   1.659  1.2582  0.8808  0.6346
  967MOL0     H30510   7.073   9.739   1.723 -1.8501 -0.0169 -2.0507
  967MOL0     H30511   7.257   9.661   1.878  0.6012 -0.3220  0.0033
  967MOL0     H30512   7.098   9.631   1.951 -1.9940  2.6125 -1.1733
  967MOL0     H30513   7.261   9.418   1.801 -0.9285  0.7629 -0.0081
  967MOL0     H30514   7.300   9.460   1.967  0.9895  0.1015 -1.2010
  967MOL0     H30515   7.053   9.314   1.846  4.7999  2.2062 -2.4689
  967MOL0     H30516   7.029   9.391   2.002 -2.8305 -0.5645 -1.4806
  967MOL0     H30517   7.064   9.141   1.976  1.2925 -1.5992 -0.0873
  967MOL0     H30518   7.182   9.210   2.096  0.0844  0.4407  0.5664
  967MOL0     H30519   7.240   9.174   1.806 -0.8560 -1.9788  0.2653
  967MOL0     H30520   7.350   9.194   1.937 -0.4927  0.4745 -0.3075
  967MOL0     H30521   7.159   8.960   1.900 -0.8128  0.9526  1.1193
  967MOL0     H30522   7.264   8.978   2.049  1.9770  1.1597 -0.2324
  967MOL0     H30523   7.333   8.813   1.875  1.8096 -0.6116  3.1397
  967MOL0     H30524   7.353   8.943   1.756 -0.4660  1.2596 -0.0065
  967MOL0     H30525   6.820   9.407   1.551  0.4126  0.7294 -1.4566
  967MOL0     H30526   6.579   9.387   1.619  1.3218 -0.2818 -0.6935
  967MOL0     H30527   6.354   9.229   2.115 -0.1646 -0.7755  2.3623
  967MOL0     H30528   6.111   9.127   2.141 -1.0919 -1.3400 -0.9458
  967MOL0     H30529   5.497   7.495   2.170  0.7627 -1.5539 -2.2027
  967MOL0     H30530   5.533   7.253   2.153 -2.3657  0.0880 -1.7957
  967MOL0     H30531   5.407   6.856   2.433 -0.7482  1.6293 -0.7878
  967MOL0     H30532   5.424   6.611   2.439  1.7669 -1.1377 -0.6135
  967MOL0     H30533   5.583   6.401   2.072  0.0868  1.3008  0.6844
  967MOL0     H30534   5.421   6.427   2.062  1.6474  1.4763 -1.2263
  967MOL0     H30535   5.395   6.230   2.259  3.1087 -1.2583  1.7007
  967MOL0     H30536   5.559   6.227   2.262 -2.3593 -3.1485  3.2477
  967MOL0     H30537   5.420   6.057   2.146 -2.8326  1.8622  0.7855
  967MOL0     H30538   5.555   6.111   2.046 -0.3111  0.2562  3.1857
  967MOL0     H30539   5.393   6.249   1.933  2.5775 -0.5293  1.4396
  967MOL0     H30540   5.346   6.074   1.916  0.4820 -0.1387 -0.0341
  967MOL0     H30541   4.995   6.236   2.058 -0.1605  1.0842 -2.3324
  967MOL0     H30542   5.585   6.615   2.036  2.9093  2.0499  0.3578
  967MOL0     H30543   5.612   6.783   1.933  2.1343 -1.0902  3.4145
  967MOL0     H30544   5.449   6.863   1.929  0.6450 -0.4082 -0.3493
  967MOL0     H30545   5.591   6.948   1.994  1.8738 -1.0626 -1.9533
  968MOL0     O30546   5.631   4.907   7.121 -0.1393 -0.4040  0.0069
  968MOL0     C30547   5.656   4.923   7.241  0.1292 -1.3990 -0.0329
  968MOL0     O30548   5.592   4.856   7.342  0.2515 -0.3660 -0.4188
  968MOL0     C30549   5.456   4.818   7.325 -1.1448 -0.1067 -1.7129
  968MOL0     C30550   5.420   4.684   7.353  0.0280 -0.4473 -0.0483
  968MOL0     C30551   5.283   4.649   7.350 -0.2777 -1.1602 -0.1671
  968MOL0     C30552   5.177   4.734   7.307 -0.8940 -0.0635 -0.9823
  968MOL0     O30553   5.041   4.702   7.275  0.4358 -0.2028  0.0407
  968MOL0     C30554   4.976   4.621   7.374 -0.7432  0.0097  0.7690
  968MOL0     C30555   4.893   4.722   7.453  0.3367 -0.5466 -0.3387
  968MOL0     C30556   4.776   4.776   7.356 -0.4893 -0.1646 -0.0550
  968MOL0     C30557   4.656   4.796   7.438  0.0351  1.0282  0.6249
  968MOL0     C30558   4.539   4.860   7.372  0.1533  0.1319  1.0259
  968MOL0     C30559   4.553   5.006   7.352  0.7065  0.3770 -0.4538
  968MOL0     C30560   4.437   5.057   7.275  0.5002  0.4861  0.4084
  968MOL0     C30561   4.424   5.205   7.308  0.4104  0.0786 -0.0061
  968MOL0     N30562   4.385   5.224   7.454 -0.2014  0.3412  0.0622
  968MOL0     C30563   4.258   5.187   7.504 -1.0948 -0.6096  0.4376
  968MOL0     C30564   4.264   5.224   7.629  0.9399 -0.0047 -0.1973
  968MOL0     C30565   4.165   5.189   7.732  1.2570  0.2133  0.3482
  968MOL0     C30566   4.097   5.317   7.771 -0.4455  0.8636 -0.0370
  968MOL0     C30567   4.045   5.293   7.914  0.9357 -0.3111 -0.7000
  968MOL0     C30568   3.969   5.419   7.969 -0.4569  0.1296 -0.2975
  968MOL0     O30569   3.885   5.469   7.872  0.3061 -0.2358  0.2184
  968MOL0     C30570   3.867   5.601   7.865  0.0522 -0.7094 -1.3179
  968MOL0     C30571   3.859   5.676   7.980 -0.5808  1.1157  0.1504
  968MOL0     C30572   3.858   5.813   7.975  0.1204  1.2840  0.2453
  968MOL0     C30573   3.872   5.882   7.853 -0.4909 -0.4637  0.6294
  968MOL0     C30574   3.888   6.028   7.849  0.9628  0.1065  0.1549
  968MOL0     O30575   3.850   6.093   7.740  0.4604  0.1581 -0.2621
  968MOL0     C30576   3.873   6.231   7.750  0.4769 -0.4276 -0.1230
  968MOL0     C30577   3.756   6.311   7.776 -1.4319 -0.5157 -0.1062
  968MOL0     C30578   3.760   6.448   7.776  0.2291  0.2964  0.1687
  968MOL0     C30579   3.885   6.517   7.763  1.0908  0.7646  0.0017
  968MOL0     O30580   3.870   6.649   7.787  0.5308 -0.3749  0.1460
  968MOL0     C30581   3.982   6.735   7.771  0.6972  0.4283 -0.0494
  968MOL0     C30582   3.951   6.878   7.844  0.0156 -0.4236  0.4858
  968MOL0     C30583   4.059   6.981   7.800 -0.2414  0.2342 -0.0576
  968MOL0     C30584   4.059   7.100   7.898  0.5897 -0.9312  0.4537
  968MOL0     C30585   4.155   7.209   7.852  0.1704 -0.0218  0.0095
  968MOL0     C30586   4.175   7.308   7.966  0.7322 -0.8999 -1.0277
  968MOL0     C30587   4.307   7.401   7.937 -0.0973  0.2650 -0.2796
  968MOL0     C30588   4.301   7.527   8.013 -0.4340  0.1337  0.8007
  968MOL0    Cl30589   4.443   7.627   7.956 -0.0327  0.5009  0.3420
  968MOL0     C30590   3.995   6.443   7.740 -0.6408  0.3030  0.5987
  968MOL0     C30591   3.995   6.296   7.731 -0.1823 -0.6762  0.3462
  968MOL0     O30592   3.949   6.071   7.941 -0.0521  0.1120 -0.1850
  968MOL0     C30593   3.879   5.808   7.736 -0.3555  0.3481  0.6475
  968MOL0     C30594   3.877   5.664   7.743  1.2376 -0.2728 -0.4409
  968MOL0     N30595   4.392   5.261   7.662  0.5883 -0.1653 -0.3739
  968MOL0     N30596   4.467   5.266   7.560  0.8527 -0.0844  0.8998
  968MOL0     C30597   5.216   4.866   7.283  0.4034 -0.1080  0.1416
  968MOL0     C30598   5.352   4.908   7.301  0.5766  0.8491 -0.2517
  968MOL0     C30599   5.748   5.037   7.291  0.2236 -0.5303 -0.0317
  968MOL0     C30600   5.792   5.033   7.424 -0.2829  0.3995  0.2713
  968MOL0     C30601   5.887   5.111   7.469  0.0092  0.4255  0.3596
  968MOL0     C30602   5.966   5.190   7.376 -0.5478  1.1897  0.4148
  968MOL0     O30603   6.077   5.262   7.404  0.2761  0.4659  0.3711
  968MOL0     C30604   6.121   5.266   7.540  0.0132 -0.3425  0.0061
  968MOL0     C30605   6.268   5.294   7.555  1.0025  0.7770  0.1264
  968MOL0     C30606   6.311   5.424   7.489  0.3459 -0.5117  0.1887
  968MOL0     C30607   6.447   5.469   7.531 -0.1074 -0.7656  0.4260
  968MOL0     C30608   6.436   5.541   7.668 -0.9709  0.5125 -0.5400
  968MOL0     C30609   6.442   5.601   7.774 -1.0646  1.2065  0.2316
  968MOL0     C30610   5.924   5.192   7.245  0.3748  0.6023  0.0387
  968MOL0     C30611   5.814   5.123   7.194 -0.2310 -0.0467 -0.6700
  968MOL0     C30612   5.792   5.135   7.046 -0.3021 -0.1814  0.3769
  968MOL0     H30613   5.494   4.606   7.359  2.9823  1.7120 -3.8377
  968MOL0     H30614   5.271   4.542   7.365 -0.8612 -1.2377 -1.0667
  968MOL0     H30615   4.927   4.540   7.319  0.9045 -1.4962  1.4308
  968MOL0     H30616   5.039   4.566   7.445 -0.8897 -2.5938 -1.0141
  968MOL0     H30617   4.956   4.807   7.481  1.0509 -1.4188  0.7804
  968MOL0     H30618   4.857   4.666   7.540 -0.8112  0.0703 -0.3937
  968MOL0     H30619   4.762   4.700   7.279  0.1233  0.5325 -0.8809
  968MOL0     H30620   4.813   4.869   7.312  0.6870 -1.2404 -1.4269
  968MOL0     H30621   4.624   4.696   7.469 -1.3004  1.1916 -0.1513
  968MOL0     H30622   4.680   4.844   7.534  1.0692 -3.1292  2.6578
  968MOL0     H30623   4.537   4.804   7.278  0.7889  0.1935  0.9724
  968MOL0     H30624   4.445   4.841   7.426 -1.4883  0.6007 -1.4895
  968MOL0     H30625   4.554   5.066   7.444 -2.8435  1.5361 -1.0449
  968MOL0     H30626   4.644   5.039   7.302 -0.5247  1.0452 -2.3229
  968MOL0     H30627   4.350   5.003   7.311  1.4701 -0.5903  1.2092
  968MOL0     H30628   4.449   5.032   7.170  0.0766 -2.3368  0.9693
  968MOL0     H30629   4.511   5.261   7.273  0.5402 -1.1595 -1.8263
  968MOL0     H30630   4.339   5.253   7.257 -1.1085  0.9985  3.1441
  968MOL0     H30631   4.173   5.138   7.457 -0.6109 -0.9797 -0.0697
  968MOL0     H30632   4.102   5.101   7.711  0.4289 -0.6698  5.3718
  968MOL0     H30633   4.218   5.149   7.819 -1.0694 -1.6606  1.0232
  968MOL0     H30634   4.169   5.398   7.761  0.8995 -0.2373  0.3103
  968MOL0     H30635   4.023   5.343   7.695  1.4501  0.0514 -2.2830
  968MOL0     H30636   4.128   5.266   7.980 -0.1217 -1.7980  0.0901
  968MOL0     H30637   3.978   5.206   7.919  2.3043 -1.4074 -0.6004
  968MOL0     H30638   4.051   5.487   7.992 -3.5802  3.2760  2.5792
  968MOL0     H30639   3.913   5.402   8.061 -2.2668 -0.8636 -1.5111
  968MOL0     H30640   3.842   5.621   8.073 -4.3786 -1.4941 -1.8077
  968MOL0     H30641   3.857   5.859   8.073 -0.1625  1.2088  0.2765
  968MOL0     H30642   3.664   6.262   7.807  0.1310 -2.9079  0.9610
  968MOL0     H30643   3.667   6.503   7.786 -0.2409 -0.5370  0.4764
  968MOL0     H30644   4.067   6.699   7.829 -0.7166  0.8923  2.4836
  968MOL0     H30645   4.008   6.746   7.666  1.4710 -4.2656 -0.5625
  968MOL0     H30646   3.857   6.928   7.824 -0.0156 -0.3198  0.8832
  968MOL0     H30647   3.958   6.863   7.952  1.4473  1.0022  0.6222
  968MOL0     H30648   4.154   6.931   7.781  0.0830  0.9898 -0.4753
  968MOL0     H30649   4.017   7.022   7.707  0.5734 -3.9255 -2.4726
  968MOL0     H30650   4.072   7.070   8.003  3.2021 -0.6069  0.2815
  968MOL0     H30651   3.955   7.136   7.898  0.8984  0.1698  2.8384
  968MOL0     H30652   4.119   7.273   7.771  0.8203 -0.8322 -0.9541
  968MOL0     H30653   4.252   7.171   7.819  1.1584  2.5046 -0.1718
  968MOL0     H30654   4.085   7.371   7.969  2.1039  1.2186 -1.9951
  968MOL0     H30655   4.180   7.260   8.064 -4.6758  0.3755  0.1947
  968MOL0     H30656   4.311   7.427   7.831 -0.8796 -1.4190 -0.7594
  968MOL0     H30657   4.396   7.347   7.971 -0.0779 -0.8690 -2.0188
  968MOL0     H30658   4.212   7.582   7.985 -2.8611 -2.8172  2.1239
  968MOL0     H30659   4.307   7.511   8.121 -2.7011  1.6397  1.2095
  968MOL0     H30660   4.089   6.496   7.743 -1.1614  1.2357  3.0879
  968MOL0     H30661   4.094   6.256   7.711  1.1419  0.7288  3.4173
  968MOL0     H30662   3.887   5.863   7.642  1.0764 -1.9251 -0.6329
  968MOL0     H30663   3.886   5.592   7.662 -0.8947 -1.2210  0.1058
  968MOL0     H30664   5.138   4.938   7.261 -2.2017 -2.2659  1.7232
  968MOL0     H30665   5.386   5.009   7.281  0.5069  1.1025  0.8663
  968MOL0     H30666   5.749   4.959   7.491 -4.0966  1.5104 -0.7174
  968MOL0     H30667   5.894   5.120   7.577 -1.4103  0.7565  0.4415
  968MOL0     H30668   6.096   5.180   7.603 -0.2720  0.0742  0.4678
  968MOL0     H30669   6.072   5.355   7.581  0.9435  1.6127 -2.8173
  968MOL0     H30670   6.324   5.211   7.510  1.3969  1.2198 -0.2140
  968MOL0     H30671   6.286   5.299   7.662 -0.1471  2.0864  0.2933
  968MOL0     H30672   6.237   5.505   7.485  1.7226  0.7627 -1.1392
  968MOL0     H30673   6.313   5.393   7.384 -2.2879 -2.6942  0.6841
  968MOL0     H30674   6.518   5.387   7.537  1.1585  0.2444 -0.2551
  968MOL0     H30675   6.485   5.544   7.460 -1.6671 -0.2118  0.1262
  968MOL0     H30676   6.439   5.654   7.866 -1.7935  0.3850  0.7025
  968MOL0     H30677   5.958   5.260   7.167  0.1751 -0.1671 -0.7394
  968MOL0     H30678   5.811   5.033   7.012 -0.7844 -0.8349  1.9524
  968MOL0     H30679   5.690   5.173   7.033  1.3234  3.4025 -5.5173
  968MOL0     H30680   5.859   5.206   6.996 -2.0401  0.6733 -0.8688
  969MOL0     O30681   8.646   6.088   6.389 -0.1136  0.0973  0.1676
  969MOL0     C30682   8.649   6.000   6.305  0.3070  0.3704 -0.3832
  969MOL0     O30683   8.535   5.957   6.243  0.4858 -0.1678 -0.6038
  969MOL0     C30684   8.415   6.025   6.245 -0.9201 -0.2485 -0.2007
  969MOL0     C30685   8.401   6.166   6.252 -0.5910  0.0370  0.1666
  969MOL0     C30686   8.280   6.231   6.239 -0.1944  0.4830  0.5357
  969MOL0     C30687   8.163   6.154   6.223 -0.7032  0.8265 -0.2413
  969MOL0     O30688   8.042   6.215   6.202  0.2076 -0.3486 -0.2362
  969MOL0     C30689   8.036   6.289   6.081 -0.1892  0.6746 -0.1649
  969MOL0     C30690   7.889   6.321   6.057  0.1131 -0.8962 -0.1077
  969MOL0     C30691   7.804   6.192   6.052  0.1667 -0.4149  0.2990
  969MOL0     C30692   7.679   6.235   5.977 -0.4072  0.1948  0.6134
  969MOL0     C30693   7.591   6.117   5.953 -0.6649  0.2080 -0.1516
  969MOL0     C30694   7.478   6.108   6.061 -0.4257 -0.0509 -0.8153
  969MOL0     C30695   7.401   5.974   6.068 -0.6050  0.3676 -0.4713
  969MOL0     C30696   7.295   5.965   6.175  0.1830  1.0744 -0.1308
  969MOL0     N30697   7.242   5.829   6.180 -0.9588  0.1572  0.7591
  969MOL0     C30698   7.241   5.753   6.294 -0.0325  0.6362  0.3638
  969MOL0     C30699   7.204   5.628   6.246  0.7543  1.1344 -0.1146
  969MOL0     C30700   7.164   5.518   6.345 -0.3311 -1.1577  0.3078
  969MOL0     C30701   7.260   5.405   6.368  0.1700  0.5083  0.1858
  969MOL0     C30702   7.401   5.456   6.415  0.1133  0.2629 -0.2117
  969MOL0     C30703   7.516   5.353   6.426  0.0198  0.3496 -0.6189
  969MOL0     O30704   7.484   5.236   6.494  0.3333  0.5862 -0.1820
  969MOL0     C30705   7.584   5.159   6.548  0.7397  0.2269 -0.0810
  969MOL0     C30706   7.720   5.186   6.544  0.2795  0.4547 -0.6420
  969MOL0     C30707   7.818   5.108   6.612 -0.5500  0.0198 -0.4393
  969MOL0     C30708   7.770   5.003   6.697 -0.2258  0.2282 -0.7366
  969MOL0     C30709   7.862   4.919   6.783 -0.1158 -0.8349  0.6938
  969MOL0     O30710   7.812   4.841   6.880  0.7091  0.3298  0.1248
  969MOL0     C30711   7.889   4.753   6.950  0.5990 -0.4176  0.6714
  969MOL0     C30712   7.992   4.814   7.030  0.4417 -0.2818 -0.5192
  969MOL0     C30713   8.063   4.731   7.114  0.7250  0.0043 -0.5110
  969MOL0     C30714   8.050   4.589   7.103  0.0775  0.4787  0.1924
  969MOL0     O30715   8.131   4.508   7.183  0.1480  0.1208  1.0490
  969MOL0     C30716   8.201   4.407   7.117  0.8625 -0.2188 -1.0025
  969MOL0     C30717   8.352   4.438   7.123  0.5398  0.9291 -0.3773
  969MOL0     C30718   8.375   4.584   7.108  0.4974 -0.4404  0.2019
  969MOL0     C30719   8.519   4.630   7.114 -0.0707  0.5661  0.3970
  969MOL0     C30720   8.544   4.779   7.085 -0.0857  0.5314 -0.4282
  969MOL0     C30721   8.522   4.802   6.933  0.2577 -0.0114 -0.6054
  969MOL0     C30722   8.561   4.942   6.903  0.4806 -0.4929 -0.3021
  969MOL0     C30723   8.523   4.975   6.759  0.3101  0.1784  1.0037
  969MOL0    Cl30724   8.523   5.151   6.723 -0.1996 -0.2684 -0.1249
  969MOL0     C30725   7.954   4.534   7.014  0.1799 -1.0593 -0.3981
  969MOL0     C30726   7.873   4.617   6.939  0.6824 -0.8097 -0.3084
  969MOL0     O30727   7.983   4.935   6.762 -0.0353  0.1599  0.1067
  969MOL0     C30728   7.634   4.976   6.698  0.7325 -0.4518  0.8629
  969MOL0     C30729   7.533   5.051   6.629 -0.6326  0.0427 -0.3274
  969MOL0     N30730   7.178   5.630   6.119  0.6814 -0.4416  0.4338
  969MOL0     N30731   7.206   5.750   6.076  0.7239  0.2753 -0.0425
  969MOL0     C30732   8.181   6.014   6.212 -0.3734 -1.4939  0.2529
  969MOL0     C30733   8.305   5.950   6.213 -0.9010 -0.4342  0.7771
  969MOL0     C30734   8.781   5.942   6.266 -0.6055 -0.1235  0.3373
  969MOL0     C30735   8.786   5.902   6.131 -0.3956  0.4517 -0.1142
  969MOL0     C30736   8.910   5.859   6.076 -0.2741  0.6511 -0.0861
  969MOL0     C30737   9.028   5.866   6.145  0.4356  0.1791  0.2688
  969MOL0     O30738   9.159   5.835   6.109 -0.4277 -0.3747  0.7177
  969MOL0     C30739   9.185   5.798   5.975 -0.1479  0.5420 -0.1204
  969MOL0     C30740   9.177   5.921   5.892  0.0401  0.7968  0.8924
  969MOL0     C30741   9.304   6.006   5.907  0.4742 -0.2872 -0.1434
  969MOL0     C30742   9.295   6.124   5.807 -0.0883  0.5118  0.4192
  969MOL0     C30743   9.357   6.080   5.681 -0.2464  0.6792  0.7173
  969MOL0     C30744   9.433   6.056   5.590 -0.0455 -0.8454  0.4600
  969MOL0     C30745   9.018   5.918   6.274 -0.3121  0.5971 -0.8313
  969MOL0     C30746   8.899   5.953   6.342 -0.3708  0.0111  1.0643
  969MOL0     C30747   8.910   5.993   6.483  0.0699 -0.2119 -0.0179
  969MOL0     H30748   8.485   6.229   6.278  0.4561 -1.2943  0.1096
  969MOL0     H30749   8.281   6.340   6.233  2.3769  0.4495 -1.2386
  969MOL0     H30750   8.087   6.385   6.091 -2.9322  2.2564 -0.2217
  969MOL0     H30751   8.085   6.239   5.997  0.6002 -3.7314  2.5772
  969MOL0     H30752   7.879   6.366   5.958 -0.3148 -3.0275 -1.0998
  969MOL0     H30753   7.852   6.391   6.132  0.5917  0.7614 -1.3656
  969MOL0     H30754   7.778   6.162   6.154  0.3497 -0.5471  0.3088
  969MOL0     H30755   7.865   6.116   6.001 -1.1264 -1.2590 -0.0570
  969MOL0     H30756   7.634   6.318   6.031 -3.1762 -1.9955  1.9242
  969MOL0     H30757   7.719   6.271   5.882 -1.1174 -1.4765 -0.3765
  969MOL0     H30758   7.546   6.127   5.854 -2.6246 -4.0224  0.0817
  969MOL0     H30759   7.650   6.025   5.958  2.0994  1.8319 -0.5186
  969MOL0     H30760   7.530   6.113   6.157 -0.5785 -0.6786 -0.6967
  969MOL0     H30761   7.408   6.189   6.037  0.2257  0.5942 -0.5919
  969MOL0     H30762   7.478   5.898   6.084  0.8303  2.0816  1.3774
  969MOL0     H30763   7.364   5.957   5.967  0.5189  2.0536 -1.2139
  969MOL0     H30764   7.327   5.987   6.277 -2.2669  3.3566  0.2673
  969MOL0     H30765   7.213   6.035   6.156  0.6945  1.7516  0.1195
  969MOL0     H30766   7.265   5.767   6.399  1.0206 -1.9374  0.5428
  969MOL0     H30767   7.124   5.560   6.438  0.6500 -0.2947  0.3658
  969MOL0     H30768   7.077   5.477   6.294 -2.4053  1.3500  1.5964
  969MOL0     H30769   7.219   5.327   6.433  1.5118 -2.3670 -2.1707
  969MOL0     H30770   7.269   5.349   6.275  0.8254  1.3939 -0.3025
  969MOL0     H30771   7.383   5.498   6.515  1.0343  0.0798  0.0410
  969MOL0     H30772   7.458   5.533   6.361  3.9788 -0.2671  2.6430
  969MOL0     H30773   7.598   5.409   6.472 -0.7863  1.4571 -0.4759
  969MOL0     H30774   7.534   5.332   6.320 -0.1565  1.0029 -0.7875
  969MOL0     H30775   7.772   5.261   6.486  0.4799 -0.4061 -1.6267
  969MOL0     H30776   7.923   5.126   6.590 -0.3692 -0.0988  0.3014
  969MOL0     H30777   7.998   4.922   7.030 -2.4736 -0.0374  0.5648
  969MOL0     H30778   8.143   4.761   7.181  0.3244  2.2889 -0.9759
  969MOL0     H30779   8.192   4.316   7.177 -1.0716 -1.0258 -2.4407
  969MOL0     H30780   8.160   4.391   7.017 -1.0831  0.3224 -0.3431
  969MOL0     H30781   8.379   4.400   7.222 -2.0085  0.7294  0.3141
  969MOL0     H30782   8.405   4.375   7.051  1.7922 -0.8637  1.9742
  969MOL0     H30783   8.341   4.631   7.015  0.2679 -0.9766  0.0133
  969MOL0     H30784   8.329   4.629   7.197  0.0654 -0.2087 -0.1290
  969MOL0     H30785   8.572   4.571   7.039  0.0726 -1.9127  2.2963
  969MOL0     H30786   8.564   4.604   7.211  2.1992  2.6037  0.0007
  969MOL0     H30787   8.649   4.804   7.102  0.3431 -1.6852  0.5956
  969MOL0     H30788   8.480   4.845   7.145 -1.2871  0.3413 -1.4529
  969MOL0     H30789   8.581   4.737   6.869 -1.0568 -0.8366 -1.0302
  969MOL0     H30790   8.416   4.791   6.907  0.1938 -1.1010  0.0882
  969MOL0     H30791   8.670   4.945   6.913  0.6527  1.1025 -2.0202
  969MOL0     H30792   8.498   5.001   6.970  1.3089  1.8882 -1.4878
  969MOL0     H30793   8.601   4.935   6.694 -0.1152  0.5923  0.2218
  969MOL0     H30794   8.440   4.910   6.731 -0.6707  2.1053 -0.8324
  969MOL0     H30795   7.935   4.428   7.011 -0.6087 -0.9681  0.7460
  969MOL0     H30796   7.796   4.578   6.874 -0.4908 -2.1494  1.7659
  969MOL0     H30797   7.584   4.902   6.759 -1.2086 -1.2249 -1.4963
  969MOL0     H30798   7.428   5.029   6.642 -0.7257 -0.1029 -1.2523
  969MOL0     H30799   8.095   5.953   6.185 -1.0569 -1.0192  1.2834
  969MOL0     H30800   8.306   5.842   6.205 -0.6548 -0.3197 -1.5202
  969MOL0     H30801   8.702   5.909   6.063 -1.3535 -0.4370  0.9297
  969MOL0     H30802   8.913   5.820   5.975  0.7126  1.8283 -0.5501
  969MOL0     H30803   9.127   5.712   5.938  1.8065 -1.0243  0.2878
  969MOL0     H30804   9.284   5.751   5.979 -0.4330 -0.1097 -0.3719
  969MOL0     H30805   9.092   5.989   5.905 -1.7302  0.2639 -4.9032
  969MOL0     H30806   9.162   5.895   5.786 -1.0833  1.5448  0.8397
  969MOL0     H30807   9.396   5.951   5.887  0.9817  0.8389 -1.0385
  969MOL0     H30808   9.314   6.048   6.008 -0.0065 -1.3863  0.3704
  969MOL0     H30809   9.194   6.160   5.786 -0.8349  0.9205  4.0066
  969MOL0     H30810   9.338   6.216   5.849 -0.0151  1.0853 -0.8656
  969MOL0     H30811   9.492   6.019   5.509 -1.2977 -2.0706  0.0671
  969MOL0     H30812   9.108   5.925   6.333 -0.7427 -0.4823 -0.0012
  969MOL0     H30813   8.915   6.102   6.493 -0.7664 -0.2899  1.5595
  969MOL0     H30814   8.824   5.954   6.537 -0.2889  0.2536 -0.2415
  969MOL0     H30815   9.002   5.958   6.530  1.3839  1.6218 -1.0819
  970MOL0     O30816   7.697   0.998   2.609  0.6659  0.9153 -0.1549
  970MOL0     C30817   7.660   0.916   2.687  0.0131  0.6276 -1.0687
  970MOL0     O30818   7.726   0.880   2.801 -1.0625  0.1886 -0.8831
  970MOL0     C30819   7.852   0.932   2.822 -0.3242 -0.2424 -0.1650
  970MOL0     C30820   7.863   1.038   2.911  0.1793  0.2668 -1.0454
  970MOL0     C30821   7.995   1.088   2.947 -0.4398 -0.1322 -0.6924
  970MOL0     C30822   8.109   1.025   2.886 -0.0069  0.0006 -0.5313
  970MOL0     O30823   8.244   1.065   2.916  0.9226 -0.5214  0.1352
  970MOL0     C30824   8.274   1.208   2.903  0.1414 -0.1517  0.2165
  970MOL0     C30825   8.422   1.225   2.864 -0.1316 -0.0488 -0.4072
  970MOL0     C30826   8.512   1.184   2.976  0.1862 -0.2889 -0.5950
  970MOL0     C30827   8.659   1.180   2.930 -0.2466 -0.0147  0.8335
  970MOL0     C30828   8.762   1.135   3.036  0.0768  0.4690  0.0303
  970MOL0     C30829   8.903   1.124   2.994 -0.0626 -0.3110 -0.0654
  970MOL0     C30830   8.992   1.077   3.114 -0.2076  1.2058 -0.5577
  970MOL0     C30831   9.127   1.025   3.068 -0.3427 -0.0882 -0.9335
  970MOL0     N30832   9.218   1.138   3.022  0.0931  0.5308 -0.7399
  970MOL0     C30833   9.353   1.138   3.044 -0.4201 -0.1188  0.3060
  970MOL0     C30834   9.397   1.260   3.062  0.5802 -0.4477  0.9824
  970MOL0     C30835   9.550   1.298   3.093  0.1209  0.2222 -0.3367
  970MOL0     C30836   9.645   1.226   3.004  0.3057  0.5331  0.2338
  970MOL0     C30837   9.786   1.291   3.004 -0.7011 -0.2383 -0.1202
  970MOL0     C30838   9.869   1.239   3.119  0.3679 -0.0934 -0.0091
  970MOL0     O30839  10.002   1.287   3.116 -0.1619 -1.1288  0.4435
  970MOL0     C30840  10.114   1.199   3.100  0.3018  0.1395 -0.1543
  970MOL0     C30841  10.220   1.239   3.013  0.1967  0.7614  0.2130
  970MOL0     C30842  10.333   1.154   2.996  0.4384  0.6960 -0.3628
  970MOL0     C30843  10.331   1.034   3.067  0.6027  1.3953  0.1624
  970MOL0     C30844  10.433   0.930   3.033 -0.4142 -0.1983  0.1160
  970MOL0     O30845  10.441   0.812   3.098  0.2933  0.6567 -0.3372
  970MOL0     C30846  10.553   0.733   3.054  0.3748 -0.1894 -0.8141
  970MOL0     C30847  10.526   0.629   2.970  0.3444  0.1639  0.4064
  970MOL0     C30848  10.641   0.561   2.916  0.8664 -0.0384  0.1725
  970MOL0     C30849  10.767   0.573   2.970 -1.3112 -0.7413  0.3413
  970MOL0     O30850  10.872   0.499   2.924 -0.3630 -0.1129 -0.0970
  970MOL0     C30851  10.862   0.404   2.820  0.4036 -0.1456 -0.2118
  970MOL0     C30852  10.994   0.347   2.776 -0.4878 -0.0401  0.1918
  970MOL0     C30853  10.961   0.259   2.644 -0.2746  0.3301  0.2499
  970MOL0     C30854  11.084   0.178   2.597 -0.0452 -1.4422 -0.1894
  970MOL0     C30855  11.064   0.077   2.494  0.0209  0.2749  0.4367
  970MOL0     C30856  11.036   0.151   2.358  0.3462  0.2286  1.0746
  970MOL0     C30857  11.006   0.065   2.239  0.6264 -0.7179  0.3764
  970MOL0     C30858  10.956   0.134   2.111 -0.1833 -0.8811  0.7120
  970MOL0    Cl30859  10.774   0.170   2.130  0.1041  0.3007  0.7884
  970MOL0     C30860  10.785   0.674   3.068 -0.0345  0.1793 -0.4267
  970MOL0     C30861  10.683   0.750   3.116  0.8584  0.0680 -0.5627
  970MOL0     O30862  10.518   0.973   2.945  0.8145  0.5972 -0.1882
  970MOL0     C30863  10.236   1.013   3.171 -0.1854 -0.5705 -0.5114
  970MOL0     C30864  10.120   1.085   3.173  1.0020  1.0318  0.3366
  970MOL0     N30865   9.289   1.337   3.032  0.2892  0.5165 -0.1719
  970MOL0     N30866   9.183   1.271   3.013  0.1796  0.6000  0.5589
  970MOL0     C30867   8.092   0.935   2.780  0.3358  0.4082 -1.0640
  970MOL0     C30868   7.970   0.885   2.751  0.7667 -0.2100  0.2652
  970MOL0     C30869   7.536   0.844   2.671  0.2336  0.0740 -0.1436
  970MOL0     C30870   7.446   0.843   2.780  0.1796 -0.1271 -0.8115
  970MOL0     C30871   7.320   0.792   2.763  0.1321 -0.4293  0.0660
  970MOL0     C30872   7.273   0.750   2.639 -0.1035 -0.4575 -0.5555
  970MOL0     O30873   7.138   0.715   2.638  0.2787 -0.3408  0.3755
  970MOL0     C30874   7.054   0.767   2.533  0.2814 -0.0702  0.4187
  970MOL0     C30875   6.907   0.754   2.573 -0.3604 -0.4660  0.1020
  970MOL0     C30876   6.850   0.616   2.571 -0.1191 -0.2194 -0.1404
  970MOL0     C30877   6.699   0.619   2.616  0.3524 -0.1162 -0.1224
  970MOL0     C30878   6.683   0.647   2.762 -0.3213 -0.0591 -0.9435
  970MOL0     C30879   6.666   0.690   2.876  0.8439 -0.0029 -0.1086
  970MOL0     C30880   7.356   0.758   2.527  0.1161 -0.3817  0.4046
  970MOL0     C30881   7.490   0.800   2.541 -0.4011  0.7780  0.7702
  970MOL0     C30882   7.581   0.807   2.424 -0.2909  0.4634  0.8663
  970MOL0     H30883   7.771   1.078   2.953  1.4283  0.1146  2.0991
  970MOL0     H30884   8.005   1.170   3.018  0.3752 -1.4545  0.7654
  970MOL0     H30885   8.217   1.255   2.822  0.3476  0.7751  0.5983
  970MOL0     H30886   8.247   1.272   2.988 -1.0230  2.1819 -1.7693
  970MOL0     H30887   8.451   1.329   2.847  0.4065 -0.2435 -0.6915
  970MOL0     H30888   8.440   1.159   2.778 -1.4449  1.6620 -2.0842
  970MOL0     H30889   8.482   1.087   3.016  1.9706 -0.0085  1.5857
  970MOL0     H30890   8.497   1.254   3.059  0.3174 -1.0585  0.0911
  970MOL0     H30891   8.659   1.108   2.848 -0.2152  1.4192 -0.4594
  970MOL0     H30892   8.694   1.272   2.883 -1.5956  0.7806  1.3486
  970MOL0     H30893   8.757   1.211   3.115 -0.3430  1.0691 -0.5623
  970MOL0     H30894   8.728   1.040   3.079 -0.6318 -0.0014 -1.5233
  970MOL0     H30895   8.915   1.042   2.923  1.4551 -0.7004  0.6141
  970MOL0     H30896   8.946   1.212   2.946 -0.4824  0.7442  1.4137
  970MOL0     H30897   8.944   0.995   3.168 -2.3071  2.7919  0.1628
  970MOL0     H30898   9.010   1.150   3.193  0.4874  0.4593 -0.0249
  970MOL0     H30899   9.163   0.972   3.156 -4.6485  0.5082  1.4551
  970MOL0     H30900   9.124   0.954   2.984 -0.6499  1.8805 -2.6710
  970MOL0     H30901   9.404   1.048   3.076 -1.2448 -1.4749 -1.9022
  970MOL0     H30902   9.547   1.406   3.082 -4.5862  0.3802  0.4176
  970MOL0     H30903   9.564   1.269   3.198 -2.8359  0.0772  0.1076
  970MOL0     H30904   9.658   1.119   3.022 -1.0778 -0.2638 -2.9749
  970MOL0     H30905   9.609   1.226   2.901  1.1684 -0.1190 -0.0849
  970MOL0     H30906   9.764   1.394   3.031  0.1011 -1.0699  4.5536
  970MOL0     H30907   9.841   1.279   2.910  0.6367  1.1807  0.4243
  970MOL0     H30908   9.866   1.130   3.111 -1.3037 -0.0307 -0.7637
  970MOL0     H30909   9.826   1.267   3.215  1.1061 -1.0591  0.6263
  970MOL0     H30910  10.203   1.323   2.947 -3.0296 -0.1878 -0.3214
  970MOL0     H30911  10.413   1.181   2.927  0.3721 -0.0033 -0.7279
  970MOL0     H30912  10.428   0.611   2.925 -0.1891 -1.2059  1.9871
  970MOL0     H30913  10.625   0.482   2.843  0.6292  1.0784 -1.0095
  970MOL0     H30914  10.780   0.334   2.842  0.1194  0.1574 -0.2924
  970MOL0     H30915  10.829   0.465   2.735 -0.5475 -1.0390 -0.5077
  970MOL0     H30916  11.068   0.423   2.749  0.4590 -0.8785  0.3611
  970MOL0     H30917  11.035   0.291   2.861 -2.3661 -0.3522  0.9464
  970MOL0     H30918  10.877   0.190   2.657  1.0418 -1.3807 -0.0736
  970MOL0     H30919  10.934   0.328   2.564  0.1388  0.5553  0.2990
  970MOL0     H30920  11.114   0.117   2.683 -0.9106  1.1478  2.0886
  970MOL0     H30921  11.165   0.251   2.587 -2.1011  1.2146  1.3091
  970MOL0     H30922  10.992   0.001   2.527 -1.3077  1.4774  0.4137
  970MOL0     H30923  11.163   0.035   2.475  0.9634  2.2003  0.7408
  970MOL0     H30924  10.940   0.203   2.369  1.1283  1.3246  3.3150
  970MOL0     H30925  11.120   0.215   2.330 -0.5211  0.1869 -2.0123
  970MOL0     H30926  10.927  -0.008   2.259  0.5713 -1.4060 -2.0269
  970MOL0     H30927  11.099   0.010   2.218  1.2406 -0.2581  1.8141
  970MOL0     H30928  11.013   0.224   2.085 -1.9298  0.2921  0.7913
  970MOL0     H30929  10.964   0.061   2.030 -2.6243 -0.8712  0.3890
  970MOL0     H30930  10.883   0.689   3.111 -0.7703 -0.3770  1.5905
  970MOL0     H30931  10.697   0.826   3.192  0.4518 -0.5192  0.1093
  970MOL0     H30932  10.229   0.928   3.239  2.5371 -0.3921  0.0820
  970MOL0     H30933  10.036   1.037   3.222  0.1117  0.1396 -1.9162
  970MOL0     H30934   8.179   0.906   2.721 -0.7968 -1.0900 -2.0765
  970MOL0     H30935   7.956   0.829   2.659 -0.3156  2.0279 -1.0181
  970MOL0     H30936   7.473   0.872   2.881 -2.5458 -0.9057  0.2561
  970MOL0     H30937   7.251   0.783   2.846  0.5751 -3.3439  0.2231
  970MOL0     H30938   7.075   0.703   2.447 -0.9601 -1.3002  0.9992
  970MOL0     H30939   7.085   0.870   2.514 -2.4875  0.4103 -2.3087
  970MOL0     H30940   6.833   0.823   2.533 -0.7725 -0.3507  1.0322
  970MOL0     H30941   6.911   0.788   2.677 -3.3748 -2.7280  1.1116
  970MOL0     H30942   6.905   0.547   2.636 -1.9502  1.7169  3.8136
  970MOL0     H30943   6.839   0.577   2.470 -0.1620  0.4894 -0.4148
  970MOL0     H30944   6.646   0.697   2.561 -2.9155  0.1565  3.0503
  970MOL0     H30945   6.642   0.528   2.595 -1.4798  0.7747  0.7797
  970MOL0     H30946   6.654   0.726   2.976 -0.0656 -0.5904  0.0083
  970MOL0     H30947   7.315   0.734   2.429  0.0829  1.1103  0.0364
  970MOL0     H30948   7.562   0.886   2.351 -0.0498 -0.3667 -0.1138
  970MOL0     H30949   7.685   0.818   2.458 -0.5775  1.2401  1.5094
  970MOL0     H30950   7.581   0.714   2.366  2.3902  1.3719 -0.8072
  971MOL0     O30951   0.701   9.838  11.048 -0.7522 -0.2511  0.2227
  971MOL0     C30952   0.581   9.853  11.093 -1.0203 -0.5686  0.5419
  971MOL0     O30953   0.484   9.932  11.032 -0.6878  0.4183 -0.2557
  971MOL0     C30954   0.541  10.038  10.967 -0.5266  0.6064 -0.0653
  971MOL0     C30955   0.586  10.155  11.019  0.2352 -0.4052  0.1688
  971MOL0     C30956   0.639  10.259  10.937  0.4462  0.3905  0.7815
  971MOL0     C30957   0.639  10.244  10.797 -0.4779  0.7483 -0.0585
  971MOL0     O30958   0.727  10.315  10.710  0.3330 -0.7594 -0.0457
  971MOL0     C30959   0.735  10.456  10.725  1.0521  0.4758 -0.9228
  971MOL0     C30960   0.706  10.509  10.589  0.3191 -1.3542  0.0591
  971MOL0     C30961   0.715  10.664  10.602 -0.2090  0.6039 -0.7911
  971MOL0     C30962   0.731  10.742  10.466 -0.4141  0.1634 -0.4491
  971MOL0     C30963   0.770  10.888  10.510 -0.0533  0.4807 -0.2497
  971MOL0     C30964   0.843  10.971  10.401 -0.5195 -0.0362  0.1921
  971MOL0     C30965   0.874  11.113  10.458 -0.0224 -0.5355 -0.5910
  971MOL0     C30966   1.000  11.118  10.546  0.0803 -0.5917 -0.4707
  971MOL0     N30967   1.122  11.070  10.480  0.6101 -0.2581 -0.2365
  971MOL0     C30968   1.222  11.153  10.450  0.2612 -0.0819 -0.2449
  971MOL0     C30969   1.318  11.073  10.413 -0.3987 -0.5209  0.4217
  971MOL0     C30970   1.457  11.116  10.369 -0.0978  0.1533 -0.0989
  971MOL0     C30971   1.569  11.067  10.465  0.5223  0.0211  0.6680
  971MOL0     C30972   1.689  11.165  10.490 -0.0373  0.3703 -1.0288
  971MOL0     C30973   1.785  11.139  10.614  0.6536 -0.3631  0.9455
  971MOL0     O30974   1.716  11.136  10.740  0.0230  0.4055 -0.1670
  971MOL0     C30975   1.760  11.209  10.849 -0.0875 -0.4711 -0.1510
  971MOL0     C30976   1.890  11.242  10.875 -0.5275  0.6073 -0.3571
  971MOL0     C30977   1.927  11.311  10.991  0.2044 -0.1519 -0.2708
  971MOL0     C30978   1.836  11.351  11.083 -0.9068 -0.2833 -0.1753
  971MOL0     C30979   1.876  11.433  11.201 -0.1586 -0.0037  0.2311
  971MOL0     O30980   1.776  11.461  11.288 -0.2399 -1.1278  0.4960
  971MOL0     C30981   1.790  11.542  11.407  0.4643  1.1604  0.2362
  971MOL0     C30982   1.702  11.516  11.503 -0.2113  0.2898 -0.0560
  971MOL0     C30983   1.716  11.581  11.631  0.2568  0.2079  0.2660
  971MOL0     C30984   1.820  11.670  11.654 -1.1428 -0.6258  0.1140
  971MOL0     O30985   1.852  11.718  11.776  0.3053  0.0290 -0.4159
  971MOL0     C30986   1.754  11.724  11.887  0.6224 -0.2598  0.5971
  971MOL0     C30987   1.827  11.789  12.010 -0.0935 -0.0034 -0.1098
  971MOL0     C30988   1.797  11.938  12.027  0.1796 -0.3718  1.5727
  971MOL0     C30989   1.866  12.022  12.144 -0.6539 -0.5885  0.4760
  971MOL0     C30990   1.848  12.180  12.110  0.2780  1.4793  0.1660
  971MOL0     C30991   1.904  12.242  11.986 -0.9693 -0.6432  0.4179
  971MOL0     C30992   1.886  12.397  11.982 -0.8434  0.4846  0.5146
  971MOL0     C30993   1.993  12.452  11.888 -0.3755 -0.2365  0.4751
  971MOL0    Cl30994   1.985  12.632  11.880 -0.7324 -0.2712 -0.1231
  971MOL0     C30995   1.908  11.701  11.552 -0.0976 -0.0145  0.5803
  971MOL0     C30996   1.885  11.643  11.428  0.1389 -0.1707  0.5204
  971MOL0     O30997   1.996  11.466  11.213 -0.7366  0.4877  0.1371
  971MOL0     C30998   1.699  11.317  11.068 -0.9068  0.4745  0.0664
  971MOL0     C30999   1.667  11.233  10.952  0.3281 -0.5523 -0.2271
  971MOL0     N31000   1.280  10.950  10.440  0.4485  0.3597 -0.4057
  971MOL0     N31001   1.167  10.937  10.477 -0.1345  0.7150 -0.1487
  971MOL0     C31002   0.602  10.124  10.746 -0.3259  1.0490  0.3103
  971MOL0     C31003   0.552  10.020  10.829  0.3319  0.0574  0.4607
  971MOL0     C31004   0.541   9.761  11.200  0.0702  0.6141  0.0904
  971MOL0     C31005   0.407   9.775  11.242 -0.3614 -0.5095 -0.1500
  971MOL0     C31006   0.350   9.705  11.347 -0.2757  0.2390  0.9852
  971MOL0     C31007   0.431   9.607  11.416  0.1856  0.8723  0.0275
  971MOL0     O31008   0.392   9.529  11.521  0.0946 -0.0223  0.6823
  971MOL0     C31009   0.251   9.549  11.570  0.1347  0.1063  0.1078
  971MOL0     C31010   0.205   9.466  11.685 -0.0338 -0.1110 -0.0270
  971MOL0     C31011   0.065   9.522  11.730  0.4214  0.0791  0.4606
  971MOL0     C31012  -0.043   9.480  11.629  0.1323 -0.4306  0.5460
  971MOL0     C31013  -0.175   9.529  11.696 -0.6222  0.0915 -0.2032
  971MOL0     C31014  -0.274   9.575  11.749 -0.3910 -0.6944 -0.0069
  971MOL0     C31015   0.564   9.591  11.369 -0.9239 -0.2859  0.2910
  971MOL0     C31016   0.616   9.662  11.257 -0.3481  0.4100  0.5852
  971MOL0     C31017   0.745   9.618  11.198 -0.0019 -0.3502 -1.4355
  971MOL0     H31018   0.574  10.177  11.125 -2.7764  0.6547 -0.3080
  971MOL0     H31019   0.680  10.350  10.980  3.5150 -1.0320  1.1309
  971MOL0     H31020   0.672  10.509  10.797  2.3053  2.4312 -1.1910
  971MOL0     H31021   0.834  10.490  10.756  0.6806 -0.1531  1.1923
  971MOL0     H31022   0.603  10.486  10.558 -0.2613 -0.6233  1.3832
  971MOL0     H31023   0.776  10.475  10.512  0.7641  0.2159 -0.2746
  971MOL0     H31024   0.791  10.699  10.672 -0.1866  2.3472 -1.6493
  971MOL0     H31025   0.620  10.699  10.642 -0.7949 -1.2924 -0.3836
  971MOL0     H31026   0.810  10.699  10.404  1.3681  2.4851  0.0808
  971MOL0     H31027   0.633  10.743  10.416 -1.8631 -0.0322  2.2335
  971MOL0     H31028   0.688  10.941  10.560 -1.3708 -1.4560 -0.2439
  971MOL0     H31029   0.848  10.870  10.586  0.4871 -0.5175 -1.0187
  971MOL0     H31030   0.929  10.921  10.357  1.1079 -0.7377  3.7771
  971MOL0     H31031   0.774  10.984  10.317  0.9786 -3.7596 -1.8263
  971MOL0     H31032   0.790  11.152  10.517  0.1595  0.2527 -0.8361
  971MOL0     H31033   0.890  11.181  10.374  2.5250 -0.4277 -0.0808
  971MOL0     H31034   1.019  11.223  10.569  0.3943 -0.7157 -0.1546
  971MOL0     H31035   0.983  11.051  10.631 -1.9784 -1.1600 -1.2653
  971MOL0     H31036   1.204  11.260  10.452  1.7083  0.2318 -1.8188
  971MOL0     H31037   1.480  11.076  10.270 -0.3495  0.6662 -0.3680
  971MOL0     H31038   1.461  11.225  10.375  4.9381  0.1667  0.7673
  971MOL0     H31039   1.525  11.045  10.563  1.3607 -1.7389  0.6907
  971MOL0     H31040   1.606  10.971  10.429  0.4491  0.8258 -1.7391
  971MOL0     H31041   1.640  11.261  10.506  2.4399  1.6993 -0.9586
  971MOL0     H31042   1.748  11.180  10.399  0.1598  2.3408 -0.6242
  971MOL0     H31043   1.858  11.220  10.604  0.2294  0.0863  1.4726
  971MOL0     H31044   1.838  11.045  10.599 -0.2844 -1.2135  2.7596
  971MOL0     H31045   1.962  11.207  10.801  0.1635 -0.5496  0.8175
  971MOL0     H31046   2.034  11.327  10.991  0.4305 -1.5087 -0.0905
  971MOL0     H31047   1.625  11.441  11.488  0.7877 -0.5719 -0.9894
  971MOL0     H31048   1.654  11.554  11.716 -0.3421 -0.0665 -0.2453
  971MOL0     H31049   1.665  11.777  11.850  2.8699  2.2455 -1.6793
  971MOL0     H31050   1.717  11.622  11.904 -0.2954 -0.2600 -1.1549
  971MOL0     H31051   1.804  11.729  12.098  3.0689  1.6577  1.9982
  971MOL0     H31052   1.935  11.780  11.996  0.3644  3.0527  0.8478
  971MOL0     H31053   1.842  11.981  11.937 -3.0463 -1.9609 -1.0482
  971MOL0     H31054   1.689  11.957  12.026  0.2578  0.0517  0.4674
  971MOL0     H31055   1.974  12.007  12.139 -0.9827 -3.1696 -0.8440
  971MOL0     H31056   1.833  11.997  12.245  0.6913  1.2840  1.4218
  971MOL0     H31057   1.884  12.233  12.198  0.9276  0.6572  0.4098
  971MOL0     H31058   1.741  12.199  12.116 -0.3087  1.6896 -5.4234
  971MOL0     H31059   2.013  12.237  12.001 -0.8657  1.4124  0.5703
  971MOL0     H31060   1.881  12.188  11.893 -0.7253  0.1637 -0.1209
  971MOL0     H31061   1.875  12.453  12.075  0.7897 -3.1121  3.0761
  971MOL0     H31062   1.790  12.411  11.931  0.2146  0.7744 -1.5073
  971MOL0     H31063   2.091  12.413  11.917  0.2507  0.0776 -1.0804
  971MOL0     H31064   1.973  12.416  11.786  1.1594 -0.9998  0.4084
  971MOL0     H31065   1.995  11.766  11.561  0.7378 -1.1213  0.7639
  971MOL0     H31066   1.962  11.668  11.355  0.3031  4.4011  1.9399
  971MOL0     H31067   1.622  11.357  11.134 -1.8555 -3.4987  1.7060
  971MOL0     H31068   1.563  11.210  10.933  0.3910 -0.8475 -0.2080
  971MOL0     H31069   0.607  10.106  10.639  0.0793  0.0639  0.4853
  971MOL0     H31070   0.517   9.926  10.785  1.4658 -1.0078  1.7676
  971MOL0     H31071   0.342   9.854  11.205  2.0175 -0.3125 -4.5789
  971MOL0     H31072   0.249   9.719  11.386  0.1061 -0.8286  2.4353
  971MOL0     H31073   0.187   9.518  11.487 -1.7881  0.9720  1.2059
  971MOL0     H31074   0.245   9.655  11.596  0.5896  0.1863 -0.0962
  971MOL0     H31075   0.276   9.465  11.768  1.1062  1.6967 -0.9203
  971MOL0     H31076   0.196   9.359  11.664  2.1926 -0.3495 -0.0295
  971MOL0     H31077   0.071   9.632  11.728  3.6676 -0.0152  0.3562
  971MOL0     H31078   0.026   9.480  11.823 -4.7567  2.4151 -0.2994
  971MOL0     H31079  -0.037   9.512  11.525 -0.6276 -0.4989  0.4763
  971MOL0     H31080  -0.055   9.371  11.623 -2.4460 -0.1357 -1.4723
  971MOL0     H31081  -0.362   9.622  11.789 -0.5650 -0.7040 -0.3751
  971MOL0     H31082   0.632   9.522  11.417  1.6408  1.7333 -0.2076
  971MOL0     H31083   0.779   9.529  11.252  1.8908  2.7277  3.0419
  971MOL0     H31084   0.738   9.601  11.090 -2.6039 -0.2278 -1.3354
  971MOL0     H31085   0.824   9.691  11.221 -1.7558  1.1129  0.3210
  972MOL0     O31086   0.560   6.318  11.313  0.4692  0.5085  0.0726
  972MOL0     C31087   0.460   6.247  11.323  0.5156  0.8749 -0.2888
  972MOL0     O31088   0.378   6.250  11.426 -0.1265 -0.2708 -0.4048
  972MOL0     C31089   0.338   6.371  11.474 -0.1562 -0.4960  0.9312
  972MOL0     C31090   0.287   6.377  11.602 -0.0805 -0.2443 -0.6227
  972MOL0     C31091   0.252   6.503  11.659 -0.6228  0.7729  0.5616
  972MOL0     C31092   0.252   6.620  11.583  0.1656 -0.5443  0.6716
  972MOL0     O31093   0.229   6.742  11.617 -0.4789 -0.1568 -1.3770
  972MOL0     C31094   0.201   6.763  11.760  0.2899  0.6913  0.1830
  972MOL0     C31095   0.171   6.911  11.782 -0.1568  0.0127 -0.8108
  972MOL0     C31096   0.150   6.935  11.932 -0.6516 -0.7381  0.3644
  972MOL0     C31097   0.027   6.881  12.004  0.3859 -0.2310  0.3668
  972MOL0     C31098  -0.097   6.946  11.939  0.8249  1.2795  0.1377
  972MOL0     C31099  -0.238   6.911  12.000 -0.4881 -0.3404  0.7608
  972MOL0     C31100  -0.359   7.002  11.951  0.3768 -0.1244 -0.0366
  972MOL0     C31101  -0.351   7.151  11.995  0.9500  0.1013  0.6855
  972MOL0     N31102  -0.463   7.240  11.953  0.0517  0.2819 -0.6912
  972MOL0     C31103  -0.587   7.204  11.919  0.2713 -0.2327  0.0703
  972MOL0     C31104  -0.656   7.317  11.895 -0.1470 -0.5803  0.2214
  972MOL0     C31105  -0.799   7.317  11.856  1.4327 -0.9452 -0.2219
  972MOL0     C31106  -0.815   7.258  11.719 -0.4358 -0.0390 -0.5241
  972MOL0     C31107  -0.790   7.354  11.594  0.5694  0.2320  0.5719
  972MOL0     C31108  -0.811   7.290  11.458 -0.2448 -0.7786  0.0084
  972MOL0     O31109  -0.690   7.308  11.379 -0.2671  0.1751  0.5685
  972MOL0     C31110  -0.700   7.282  11.246 -0.0523 -0.0678  0.4037
  972MOL0     C31111  -0.596   7.312  11.170 -0.6683  0.1435  0.0703
  972MOL0     C31112  -0.596   7.306  11.033  0.2919  0.7658  0.2968
  972MOL0     C31113  -0.714   7.272  10.961  0.5887  0.1123 -0.0973
  972MOL0     C31114  -0.714   7.254  10.817 -0.1220 -0.7333 -0.0313
  972MOL0     O31115  -0.598   7.281  10.750  0.0456  0.3901 -0.1272
  972MOL0     C31116  -0.601   7.274  10.611  1.2726 -0.9933 -0.2313
  972MOL0     C31117  -0.586   7.146  10.561 -0.9634 -0.1638  0.5329
  972MOL0     C31118  -0.591   7.125  10.419 -0.2727 -0.2662 -0.7525
  972MOL0     C31119  -0.620   7.228  10.333 -0.7427  0.0638 -0.7866
  972MOL0     O31120  -0.642   7.209  10.203 -0.0558  0.1341 -0.4297
  972MOL0     C31121  -0.689   7.087  10.155  0.1724 -0.2836 -0.1881
  972MOL0     C31122  -0.757   7.112  10.020  0.1913 -0.0794  0.4184
  972MOL0     C31123  -0.776   6.978   9.948  0.4046  0.2409 -0.4674
  972MOL0     C31124  -0.871   6.977   9.815 -0.3635  0.4547  0.5721
  972MOL0     C31125  -0.818   6.871   9.723  0.2791 -0.6441  0.4424
  972MOL0     C31126  -0.699   6.942   9.633  0.2324  0.1151 -0.5313
  972MOL0     C31127  -0.645   6.837   9.521 -0.3927 -0.3071  0.0494
  972MOL0     C31128  -0.532   6.890   9.434  0.4587  0.7238  0.8827
  972MOL0    Cl31129  -0.397   6.958   9.530  0.0306  0.5825 -0.1262
  972MOL0     C31130  -0.625   7.357  10.384 -0.0143 -0.9895  0.1893
  972MOL0     C31131  -0.613   7.384  10.522 -0.4777 -0.9388  0.9285
  972MOL0     O31132  -0.821   7.225  10.757 -0.7215  0.5121  0.1583
  972MOL0     C31133  -0.823   7.231  11.040  0.2817  0.1343  0.2157
  972MOL0     C31134  -0.814   7.242  11.175  0.4079  1.3505 -0.2780
  972MOL0     N31135  -0.570   7.425  11.918 -0.1025  0.0181 -0.2547
  972MOL0     N31136  -0.450   7.377  11.943 -0.7495  0.1163 -0.1489
  972MOL0     C31137   0.305   6.614  11.450  0.0599 -0.4112 -0.3789
  972MOL0     C31138   0.354   6.497  11.398  0.7248  0.0291 -0.0550
  972MOL0     C31139   0.440   6.150  11.219  0.7633 -0.4092  0.2632
  972MOL0     C31140   0.425   6.017  11.254  0.4028 -0.5909  1.4539
  972MOL0     C31141   0.421   5.923  11.160  0.2555 -0.4406 -0.3339
  972MOL0     C31142   0.419   5.950  11.025  0.1179 -0.6661  0.5436
  972MOL0     O31143   0.395   5.838  10.955 -0.1506 -0.9697  0.3201
  972MOL0     C31144   0.319   5.853  10.834 -0.6462  0.2000 -0.8766
  972MOL0     C31145   0.295   5.719  10.750 -0.4188  0.5645 -0.1130
  972MOL0     C31146   0.247   5.733  10.597 -0.8525  0.3048 -0.4377
  972MOL0     C31147   0.259   5.608  10.512  0.5000  0.9659  0.0619
  972MOL0     C31148   0.149   5.511  10.553  0.0779  0.4567  0.1233
  972MOL0     C31149   0.066   5.425  10.581  0.6056  0.1952  0.0808
  972MOL0     C31150   0.421   6.082  10.982 -0.6660  0.0393 -0.5973
  972MOL0     C31151   0.430   6.182  11.081 -0.5910  0.4800 -0.3408
  972MOL0     C31152   0.455   6.324  11.030  0.1263  0.9671 -0.1415
  972MOL0     H31153   0.273   6.286  11.661 -2.8024 -0.8555 -2.0305
  972MOL0     H31154   0.220   6.514  11.763 -0.0865  2.2110  0.5894
  972MOL0     H31155   0.114   6.707  11.796  1.7925 -0.8945  1.4864
  972MOL0     H31156   0.290   6.722  11.808 -1.0477 -0.9857  1.3923
  972MOL0     H31157   0.081   6.931  11.723 -0.3063 -0.8656 -0.9045
  972MOL0     H31158   0.249   6.974  11.739  1.2345 -0.6579  0.6272
  972MOL0     H31159   0.156   7.040  11.962 -2.6423 -0.7476  0.9004
  972MOL0     H31160   0.236   6.885  11.978 -0.1642  1.2908  1.8091
  972MOL0     H31161   0.024   6.774  11.986 -2.8554  0.0099 -1.3670
  972MOL0     H31162   0.017   6.907  12.110 -0.7086  2.5556 -0.3213
  972MOL0     H31163  -0.088   7.055  11.942 -0.9395  1.4385  1.2430
  972MOL0     H31164  -0.090   6.913  11.835  0.9640  2.7288 -0.3356
  972MOL0     H31165  -0.268   6.815  11.956  1.0827  0.3820 -2.0877
  972MOL0     H31166  -0.236   6.905  12.110  2.2348 -0.7516  0.7465
  972MOL0     H31167  -0.453   6.956  11.982  2.0683 -3.7913  0.2235
  972MOL0     H31168  -0.372   7.006  11.842 -1.8369  0.7678  0.2192
  972MOL0     H31169  -0.346   7.168  12.103 -0.6205 -0.9534  0.9561
  972MOL0     H31170  -0.258   7.194  11.958  0.7803  1.2604  1.5423
  972MOL0     H31171  -0.622   7.102  11.906 -2.8390  0.5817  1.0284
  972MOL0     H31172  -0.853   7.265  11.936  1.0697 -3.0369 -1.7491
  972MOL0     H31173  -0.838   7.419  11.853 -1.5799 -1.9853 -0.6754
  972MOL0     H31174  -0.749   7.172  11.703  1.1580  0.9181  0.5481
  972MOL0     H31175  -0.914   7.215  11.705 -0.8014  0.6165 -0.0157
  972MOL0     H31176  -0.702   7.413  11.621 -0.2258  1.1139  1.2931
  972MOL0     H31177  -0.875   7.423  11.590  0.8076  0.4810 -1.6755
  972MOL0     H31178  -0.896   7.327  11.401  2.3156  0.7818 -3.0851
  972MOL0     H31179  -0.821   7.183  11.480 -1.1641 -0.3019  2.1276
  972MOL0     H31180  -0.506   7.340  11.224 -2.0462  1.0037  2.0451
  972MOL0     H31181  -0.509   7.310  10.969 -0.8919  1.5017 -1.3455
  972MOL0     H31182  -0.573   7.059  10.625  0.3305 -0.5122 -0.1600
  972MOL0     H31183  -0.574   7.023  10.389 -1.7620 -1.2371  1.4398
  972MOL0     H31184  -0.601   7.023  10.138  0.8222  1.0451 -2.2176
  972MOL0     H31185  -0.755   7.040  10.228 -0.3951 -1.2461 -1.2816
  972MOL0     H31186  -0.847   7.166  10.049  0.2528  1.0463 -1.3793
  972MOL0     H31187  -0.695   7.173   9.954  0.4812  0.0790  0.8296
  972MOL0     H31188  -0.676   6.950   9.917  0.2930  0.2558 -0.8445
  972MOL0     H31189  -0.811   6.895  10.012 -1.7513  1.2994 -0.1640
  972MOL0     H31190  -0.863   7.075   9.766 -0.0958 -0.5288 -1.4790
  972MOL0     H31191  -0.971   6.955   9.854 -0.3842  0.5858  0.5914
  972MOL0     H31192  -0.903   6.849   9.658  0.2376  2.8716 -0.9353
  972MOL0     H31193  -0.792   6.781   9.779  0.0802 -0.2798  1.1218
  972MOL0     H31194  -0.725   7.034   9.580  0.8503 -0.8290 -2.5884
  972MOL0     H31195  -0.619   6.962   9.705  1.2191  1.5332 -1.9550
  972MOL0     H31196  -0.732   6.826   9.455  1.2082 -0.4622 -2.1191
  972MOL0     H31197  -0.617   6.739   9.559 -2.5319 -1.2404 -0.6311
  972MOL0     H31198  -0.492   6.812   9.369 -0.5996 -0.1801  1.2864
  972MOL0     H31199  -0.580   6.968   9.374  1.0885  1.0782  0.8274
  972MOL0     H31200  -0.659   7.442  10.326  2.2683 -1.3530 -1.8216
  972MOL0     H31201  -0.617   7.487  10.555 -0.8851 -0.8927  0.7449
  972MOL0     H31202  -0.912   7.187  10.995 -1.2755  0.4159  2.8061
  972MOL0     H31203  -0.900   7.210  11.231  2.3243 -3.2823  0.4045
  972MOL0     H31204   0.319   6.710  11.401 -0.8765 -0.5494 -0.9409
  972MOL0     H31205   0.385   6.493  11.294  1.5036  0.7827  0.1424
  972MOL0     H31206   0.430   5.978  11.355 -0.0925  1.6703  2.4238
  972MOL0     H31207   0.417   5.819  11.191  0.4357 -0.9825 -2.0356
  972MOL0     H31208   0.358   5.929  10.766 -1.6438 -0.9609 -2.8174
  972MOL0     H31209   0.216   5.879  10.861 -0.9275 -2.5023  1.0574
  972MOL0     H31210   0.216   5.659  10.796 -0.2258  0.3559 -0.0518
  972MOL0     H31211   0.393   5.670  10.754 -0.8460 -0.3110 -0.1621
  972MOL0     H31212   0.311   5.810  10.550 -0.5057  0.8982  0.9623
  972MOL0     H31213   0.140   5.754  10.604 -2.1068 -5.2052  2.0750
  972MOL0     H31214   0.251   5.628  10.405 -1.0832 -1.3778 -0.3428
  972MOL0     H31215   0.359   5.566  10.524  0.6612  1.0367 -0.9922
  972MOL0     H31216  -0.005   5.347  10.597 -1.1636  1.8826  0.8447
  972MOL0     H31217   0.434   6.101  10.876  0.9764  0.8329 -0.2853
  972MOL0     H31218   0.404   6.356  10.939  1.3635  0.6494 -0.9806
  972MOL0     H31219   0.440   6.399  11.107 -1.9679  0.9070 -0.4372
  972MOL0     H31220   0.561   6.318  11.004  0.0227  0.6224 -0.5080
  973MOL0     O31221   7.643   5.455   4.946  0.0585  0.4352 -0.2138
  973MOL0     C31222   7.688   5.458   4.825 -0.0509  0.4991  0.6293
  973MOL0     O31223   7.733   5.567   4.760 -0.2030 -0.3939  0.1524
  973MOL0     C31224   7.682   5.689   4.789  0.1550 -0.3341 -0.0726
  973MOL0     C31225   7.628   5.749   4.678 -0.2861  0.3862  0.2967
  973MOL0     C31226   7.602   5.887   4.670 -0.1757 -0.8702 -1.0840
  973MOL0     C31227   7.619   5.968   4.779 -0.3344 -0.3340 -0.1159
  973MOL0     O31228   7.571   6.095   4.785 -0.4225  0.7369  0.1336
  973MOL0     C31229   7.452   6.126   4.705 -0.3993  0.1846 -0.6392
  973MOL0     C31230   7.396   6.259   4.751 -0.6355 -0.1344 -0.5533
  973MOL0     C31231   7.274   6.287   4.674 -0.2889 -0.6506 -0.6113
  973MOL0     C31232   7.179   6.392   4.734  0.8637  0.8924 -0.3155
  973MOL0     C31233   7.036   6.398   4.668  0.2490 -0.9312  0.0203
  973MOL0     C31234   6.942   6.461   4.762 -0.6288  0.2833  0.4141
  973MOL0     C31235   6.881   6.366   4.869  0.3274 -1.0912  0.4550
  973MOL0     C31236   6.820   6.431   4.988 -0.4571  0.0871 -1.4351
  973MOL0     N31237   6.913   6.516   5.069 -0.1111 -0.8039  0.1996
  973MOL0     C31238   7.032   6.476   5.130 -0.3972 -0.2496 -0.7771
  973MOL0     C31239   7.111   6.583   5.142 -0.2780 -0.3356  0.7355
  973MOL0     C31240   7.256   6.589   5.175  0.6473  0.1883  0.0551
  973MOL0     C31241   7.348   6.588   5.056  0.0525 -0.0811  0.9580
  973MOL0     C31242   7.478   6.643   5.105 -0.4140 -1.2861  0.8705
  973MOL0     C31243   7.580   6.657   4.991  0.2781  0.3354 -0.1680
  973MOL0     O31244   7.541   6.768   4.913  0.0792  0.0233  0.6661
  973MOL0     C31245   7.620   6.819   4.813 -0.5674 -0.2123 -0.0418
  973MOL0     C31246   7.566   6.926   4.729 -0.1843 -0.5988  0.3418
  973MOL0     C31247   7.621   6.962   4.607  0.1290  0.2993  0.1788
  973MOL0     C31248   7.748   6.905   4.579 -0.1948 -0.5644  0.4174
  973MOL0     C31249   7.808   6.923   4.449  0.0498  0.0627  0.8494
  973MOL0     O31250   7.913   6.842   4.407  0.0504 -0.0253 -0.6673
  973MOL0     C31251   7.974   6.875   4.292 -0.8499  0.3819 -0.3127
  973MOL0     C31252   8.008   7.002   4.248 -0.3251 -0.1642 -0.7334
  973MOL0     C31253   8.085   7.036   4.141 -0.4123  0.3534 -0.4161
  973MOL0     C31254   8.140   6.931   4.065  0.1673 -0.0085 -0.9100
  973MOL0     O31255   8.203   6.951   3.940  0.6000 -0.0024 -0.0656
  973MOL0     C31256   8.265   7.078   3.899 -0.1371 -0.0258 -0.7736
  973MOL0     C31257   8.263   7.076   3.753 -0.2776  1.0869  0.4821
  973MOL0     C31258   8.293   7.216   3.705 -0.6431  0.1850  0.1741
  973MOL0     C31259   8.304   7.226   3.557 -0.5745 -0.1127 -0.7049
  973MOL0     C31260   8.396   7.347   3.508  0.6344  0.4252 -0.4476
  973MOL0     C31261   8.369   7.358   3.359 -0.3168  0.8627  0.5323
  973MOL0     C31262   8.482   7.455   3.304  0.7590  0.7899 -0.6326
  973MOL0     C31263   8.505   7.594   3.361  0.8493  0.6423  1.1179
  973MOL0    Cl31264   8.650   7.663   3.281  0.2983 -0.5449  0.0495
  973MOL0     C31265   8.121   6.797   4.106 -0.0697 -0.0821 -0.1717
  973MOL0     C31266   8.041   6.770   4.220 -0.0622 -0.1509  0.5281
  973MOL0     O31267   7.752   7.004   4.375  0.8199 -0.6904  0.1403
  973MOL0     C31268   7.814   6.825   4.664  0.2217 -0.0560 -0.6008
  973MOL0     C31269   7.747   6.762   4.773 -0.0989 -0.3413 -0.2471
  973MOL0     N31270   7.046   6.693   5.092  0.8305  0.2363 -0.1299
  973MOL0     N31271   6.925   6.654   5.061 -0.1209  0.7883  0.4731
  973MOL0     C31272   7.674   5.907   4.891  0.1756  0.1118  0.5297
  973MOL0     C31273   7.712   5.773   4.899 -0.3479  0.7823  1.3508
  973MOL0     C31274   7.707   5.328   4.750 -0.0996 -0.2867  0.1020
  973MOL0     C31275   7.811   5.314   4.660  0.0562 -0.1413 -0.8790
  973MOL0     C31276   7.830   5.193   4.576 -0.5008 -0.4784 -0.0362
  973MOL0     C31277   7.737   5.091   4.601 -0.2998 -0.1654 -0.2417
  973MOL0     O31278   7.747   4.971   4.535  0.0312  0.3092  0.4676
  973MOL0     C31279   7.762   4.974   4.392  0.0594 -0.6482 -0.4874
  973MOL0     C31280   7.620   5.018   4.343 -0.3916 -0.2688  0.0438
  973MOL0     C31281   7.501   4.909   4.348  0.0833 -0.9316 -0.1272
  973MOL0     C31282   7.510   4.805   4.235 -0.3981 -0.1697 -0.8356
  973MOL0     C31283   7.617   4.707   4.258  0.8976 -0.2162 -0.2328
  973MOL0     C31284   7.685   4.612   4.286 -0.0757  0.1179  0.3450
  973MOL0     C31285   7.645   5.107   4.710  0.1410  1.0339 -0.2182
  973MOL0     C31286   7.623   5.216   4.781  0.1002 -0.8082 -0.0463
  973MOL0     C31287   7.494   5.228   4.865  0.8870  0.7000  0.1759
  973MOL0     H31288   7.634   5.685   4.590 -1.9167 -0.2986  0.6417
  973MOL0     H31289   7.554   5.918   4.578  2.3933  3.6378 -1.1699
  973MOL0     H31290   7.468   6.137   4.597 -0.3370 -0.3566 -0.6897
  973MOL0     H31291   7.376   6.049   4.722 -0.6079  1.0327  2.9677
  973MOL0     H31292   7.461   6.346   4.743 -2.5799  1.8309  2.7673
  973MOL0     H31293   7.381   6.250   4.859  0.6597 -2.1690 -0.4807
  973MOL0     H31294   7.233   6.188   4.653 -1.1345 -0.5578  0.4707
  973MOL0     H31295   7.301   6.343   4.584  1.0462  3.9328  2.2908
  973MOL0     H31296   7.150   6.359   4.834  0.6256  0.7442 -0.4316
  973MOL0     H31297   7.225   6.491   4.742 -0.3789  1.5030 -0.4340
  973MOL0     H31298   7.041   6.447   4.570  1.9359  2.4198  1.5924
  973MOL0     H31299   6.993   6.300   4.650  0.4058 -0.8011 -1.1442
  973MOL0     H31300   6.986   6.554   4.801  1.8017  0.6534 -2.8111
  973MOL0     H31301   6.858   6.504   4.707 -0.1853  1.6523  0.7446
  973MOL0     H31302   6.960   6.300   4.905  0.6968 -1.9516 -1.7550
  973MOL0     H31303   6.802   6.316   4.813 -1.7021  3.0958 -0.8475
  973MOL0     H31304   6.744   6.501   4.952 -3.7546 -1.5123  1.7774
  973MOL0     H31305   6.779   6.349   5.047 -2.5564  1.9511 -0.1565
  973MOL0     H31306   7.065   6.375   5.153  1.4569  0.3418 -0.7050
  973MOL0     H31307   7.266   6.685   5.227 -1.4104  0.3620  0.2369
  973MOL0     H31308   7.270   6.518   5.257 -0.0034  0.3288  0.2988
  973MOL0     H31309   7.367   6.487   5.019 -3.2822 -0.3084 -0.4320
  973MOL0     H31310   7.315   6.657   4.977 -1.5647  0.8364  2.3696
  973MOL0     H31311   7.514   6.570   5.178 -0.7883 -2.5177 -0.1457
  973MOL0     H31312   7.469   6.744   5.145 -0.1950 -0.1613 -1.7262
  973MOL0     H31313   7.579   6.563   4.935 -1.6444  0.6730 -0.7537
  973MOL0     H31314   7.685   6.670   5.020  1.4003 -1.4389 -2.9833
  973MOL0     H31315   7.471   6.969   4.761 -0.6518 -0.4019 -1.2340
  973MOL0     H31316   7.575   7.034   4.540  2.2272  2.3502  0.8392
  973MOL0     H31317   7.980   7.092   4.302  2.5166  0.7738 -0.6258
  973MOL0     H31318   8.101   7.141   4.118 -3.9451  0.8724 -1.0996
  973MOL0     H31319   8.219   7.166   3.946  2.8024  0.7720  0.8934
  973MOL0     H31320   8.368   7.085   3.934  0.1407  0.4941 -1.6650
  973MOL0     H31321   8.333   6.999   3.718 -0.4287  0.8890  0.6108
  973MOL0     H31322   8.166   7.055   3.707 -0.1167  1.3790  0.0091
  973MOL0     H31323   8.213   7.282   3.742 -1.0423 -0.1032 -0.1590
  973MOL0     H31324   8.393   7.238   3.742 -0.4279 -2.3059  1.2704
  973MOL0     H31325   8.204   7.251   3.523  0.4071  1.1684 -2.8786
  973MOL0     H31326   8.326   7.125   3.522 -0.0855 -0.7025  1.1758
  973MOL0     H31327   8.500   7.334   3.539  1.0650 -1.5498 -2.5510
  973MOL0     H31328   8.345   7.432   3.555  1.4637 -0.4043  2.1189
  973MOL0     H31329   8.393   7.265   3.306  2.3859  2.0713 -0.5415
  973MOL0     H31330   8.268   7.385   3.327 -0.5614 -1.3977 -0.8008
  973MOL0     H31331   8.450   7.465   3.199 -2.2805 -1.6836 -0.1194
  973MOL0     H31332   8.579   7.406   3.312 -0.0839 -0.7966  0.2593
  973MOL0     H31333   8.419   7.661   3.355  1.6822  2.0628  3.5065
  973MOL0     H31334   8.528   7.576   3.467  2.3570 -1.5953  0.4906
  973MOL0     H31335   8.150   6.716   4.039 -1.8276 -1.0697  0.1938
  973MOL0     H31336   8.016   6.666   4.239  1.6319 -0.6521  0.1853
  973MOL0     H31337   7.914   6.791   4.638 -0.1384 -0.1639 -1.9095
  973MOL0     H31338   7.787   6.679   4.831 -2.9527 -1.4221  0.3417
  973MOL0     H31339   7.690   5.974   4.974  1.2411 -0.4343  0.7841
  973MOL0     H31340   7.761   5.748   4.992  0.8984  1.0300  0.7793
  973MOL0     H31341   7.877   5.399   4.650  1.1603 -0.7880  0.6001
  973MOL0     H31342   7.907   5.201   4.500 -1.2006 -1.7728 -0.9297
  973MOL0     H31343   7.788   4.876   4.350  0.2064 -0.4155 -0.9519
  973MOL0     H31344   7.840   5.042   4.356 -1.7225  0.1349 -3.2696
  973MOL0     H31345   7.627   5.067   4.246 -2.4471  0.5687  0.2831
  973MOL0     H31346   7.595   5.101   4.410 -2.8757  0.0913 -1.2387
  973MOL0     H31347   7.411   4.968   4.328  1.1349  0.2741 -1.4906
  973MOL0     H31348   7.493   4.870   4.450 -4.3890  0.0245  0.0880
  973MOL0     H31349   7.408   4.767   4.223 -0.0618 -0.9112 -1.4575
  973MOL0     H31350   7.527   4.859   4.141  0.0007 -2.5168 -2.1967
  973MOL0     H31351   7.754   4.534   4.310 -1.0833 -1.2745 -1.1127
  973MOL0     H31352   7.580   5.022   4.729  0.0985  1.3993  1.4085
  973MOL0     H31353   7.437   5.314   4.828  0.4479 -1.5906 -5.6344
  973MOL0     H31354   7.431   5.141   4.848 -1.5130  2.3610  0.0693
  973MOL0     H31355   7.509   5.235   4.973  2.7169  0.9378 -0.0601
  974MOL0     O31356  10.232   3.966   6.197  0.0404  0.4041 -0.0452
  974MOL0     C31357  10.214   4.051   6.114 -1.1637 -0.9448  0.9684
  974MOL0     O31358  10.095   4.108   6.068 -0.5574 -0.3636 -0.0719
  974MOL0     C31359   9.985   4.082   6.152  0.1096 -0.1649 -0.1526
  974MOL0     C31360   9.870   4.045   6.089 -0.2283  0.2410  0.0249
  974MOL0     C31361   9.753   4.040   6.165 -0.4906  0.5724 -0.7003
  974MOL0     C31362   9.743   4.054   6.301  0.3135  0.3541 -0.4694
  974MOL0     O31363   9.622   4.058   6.360  0.4886  0.2923 -0.1223
  974MOL0     C31364   9.599   4.075   6.503 -1.5832 -0.9098 -0.2684
  974MOL0     C31365   9.463   4.113   6.548  0.0694 -0.7227 -0.2199
  974MOL0     C31366   9.339   4.029   6.497  0.0992 -1.0808 -0.0669
  974MOL0     C31367   9.364   3.882   6.489 -1.1456  0.5202 -0.2724
  974MOL0     C31368   9.249   3.786   6.493  0.0201  0.0686  0.0893
  974MOL0     C31369   9.298   3.643   6.522  0.1673 -0.4115 -0.3873
  974MOL0     C31370   9.173   3.556   6.524  0.3000  0.0671  0.5621
  974MOL0     C31371   9.194   3.419   6.604 -0.7007 -0.7169 -0.0993
  974MOL0     N31372   9.223   3.448   6.748  0.7241 -0.1553 -0.3867
  974MOL0     C31373   9.126   3.439   6.845  0.3716 -0.3231 -0.1487
  974MOL0     C31374   9.181   3.493   6.960 -0.0245  0.6016 -0.4215
  974MOL0     C31375   9.115   3.504   7.094 -0.0735 -0.8138  0.3652
  974MOL0     C31376   9.159   3.381   7.178  0.5000  0.9073 -1.3349
  974MOL0     C31377   9.282   3.386   7.269 -0.5445  0.6473 -0.7770
  974MOL0     C31378   9.416   3.400   7.202 -0.0595 -0.3671  0.1577
  974MOL0     O31379   9.521   3.359   7.281  0.7624 -0.4713 -0.4888
  974MOL0     C31380   9.644   3.332   7.231  0.8860 -0.4818  1.0806
  974MOL0     C31381   9.741   3.290   7.321 -0.6332 -0.5925  0.3961
  974MOL0     C31382   9.864   3.248   7.284  0.6548  0.2374 -0.7093
  974MOL0     C31383   9.911   3.266   7.153  0.2049 -1.2899 -0.0680
  974MOL0     C31384  10.047   3.221   7.103 -0.0056  0.7260  0.8840
  974MOL0     O31385  10.081   3.252   6.975  0.0830  0.1751  0.4688
  974MOL0     C31386  10.211   3.246   6.930  0.8187  0.3186  0.3289
  974MOL0     C31387  10.217   3.234   6.797 -0.4170  0.0883 -0.0158
  974MOL0     C31388  10.337   3.232   6.732 -0.9849 -0.6277  0.3150
  974MOL0     C31389  10.457   3.261   6.804  0.4445  0.2578  0.3131
  974MOL0     O31390  10.565   3.268   6.725  0.7549 -0.6255 -0.1515
  974MOL0     C31391  10.675   3.340   6.775  0.6068  0.2850  0.4611
  974MOL0     C31392  10.789   3.345   6.678 -0.3104 -0.4458  0.3103
  974MOL0     C31393  10.923   3.397   6.738 -0.8760  0.0763  0.0490
  974MOL0     C31394  10.955   3.351   6.888 -0.1865 -1.7357  0.6508
  974MOL0     C31395  11.098   3.392   6.924  0.5310  0.1768  0.0403
  974MOL0     C31396  11.153   3.539   6.929  1.0435  0.4226 -0.0656
  974MOL0     C31397  11.299   3.552   6.940  0.5909  0.2716  0.0831
  974MOL0     C31398  11.335   3.696   6.990  0.1873 -0.6168 -0.9079
  974MOL0    Cl31399  11.499   3.715   7.058 -0.1437  0.2220  0.3052
  974MOL0     C31400  10.448   3.295   6.943  0.6463 -0.0643  0.0037
  974MOL0     C31401  10.319   3.293   7.002 -0.5041  1.0427  0.2009
  974MOL0     O31402  10.123   3.190   7.192 -0.2256  0.6755  0.7558
  974MOL0     C31403   9.819   3.320   7.065 -0.5861 -0.7774  0.1246
  974MOL0     C31404   9.688   3.341   7.097 -1.0436 -0.0645 -0.6821
  974MOL0     N31405   9.317   3.508   6.932  0.2121 -0.5490  0.0899
  974MOL0     N31406   9.342   3.488   6.805  0.1146 -0.2573 -0.2548
  974MOL0     C31407   9.864   4.066   6.373 -0.3526  1.1670  0.5627
  974MOL0     C31408   9.983   4.084   6.291  0.9237  0.0992  0.5324
  974MOL0     C31409  10.337   4.097   6.052 -0.8576  0.6271  0.8028
  974MOL0     C31410  10.325   4.126   5.915 -0.4385  0.8775  1.1951
  974MOL0     C31411  10.439   4.171   5.844  0.3226 -0.2052 -0.5769
  974MOL0     C31412  10.560   4.202   5.910  0.6168 -0.0805 -0.6554
  974MOL0     O31413  10.668   4.237   5.836 -0.4063  0.1925  0.0781
  974MOL0     C31414  10.692   4.166   5.718 -1.0159 -0.4755 -0.3796
  974MOL0     C31415  10.751   4.030   5.743 -0.0442  0.3119  0.3881
  974MOL0     C31416  10.885   4.031   5.818  0.1982  0.1770  0.0816
  974MOL0     C31417  10.946   3.897   5.847 -0.5582  0.0969  0.9479
  974MOL0     C31418  11.088   3.904   5.888  0.2001  0.0955 -0.5205
  974MOL0     C31419  11.197   3.915   5.945  0.5370  0.5124 -0.7326
  974MOL0     C31420  10.574   4.173   6.051  0.9204 -0.4033  0.8383
  974MOL0     C31421  10.466   4.122   6.121  0.3259  1.1644 -0.9213
  974MOL0     C31422  10.484   4.101   6.273 -0.3900  0.3937  0.2542
  974MOL0     H31423   9.876   4.043   5.981 -5.6427  0.0273 -0.5395
  974MOL0     H31424   9.661   4.033   6.108 -0.8611 -0.4034 -0.0136
  974MOL0     H31425   9.630   3.983   6.553 -1.7544 -0.4192  0.7695
  974MOL0     H31426   9.665   4.154   6.541  1.8231 -2.4683 -2.4175
  974MOL0     H31427   9.439   4.211   6.507 -1.4558 -0.3346  1.4648
  974MOL0     H31428   9.455   4.132   6.656 -2.4780  1.6520 -0.7243
  974MOL0     H31429   9.291   4.062   6.405 -5.1166 -1.1881  2.2628
  974MOL0     H31430   9.259   4.037   6.570  0.6594 -1.0136  0.5544
  974MOL0     H31431   9.421   3.875   6.396 -1.2815  1.6367 -0.4529
  974MOL0     H31432   9.425   3.855   6.576 -2.4226 -0.9580  0.1954
  974MOL0     H31433   9.173   3.814   6.567 -3.2732 -0.5508 -2.8213
  974MOL0     H31434   9.197   3.783   6.397  0.1958 -1.1433  0.0141
  974MOL0     H31435   9.366   3.604   6.445 -0.0300 -3.4997  0.8578
  974MOL0     H31436   9.352   3.636   6.617 -1.4029 -0.6029  0.5203
  974MOL0     H31437   9.138   3.541   6.422 -0.1851  2.3373  0.3395
  974MOL0     H31438   9.094   3.611   6.577 -0.1501 -1.1289  1.1633
  974MOL0     H31439   9.102   3.361   6.614 -0.6025 -1.1604 -1.5599
  974MOL0     H31440   9.279   3.360   6.569  1.3666  2.6763 -1.2317
  974MOL0     H31441   9.022   3.418   6.824  0.5649  0.0060 -1.5789
  974MOL0     H31442   9.133   3.593   7.155 -3.2017  0.3016 -0.1740
  974MOL0     H31443   9.006   3.491   7.087 -0.6077 -0.2646  4.7887
  974MOL0     H31444   9.072   3.347   7.234  1.0441 -1.2166 -1.7031
  974MOL0     H31445   9.184   3.304   7.105 -2.0218  1.5524 -3.0004
  974MOL0     H31446   9.299   3.295   7.328  1.5937  0.1971 -1.9916
  974MOL0     H31447   9.278   3.466   7.344  0.3383 -1.1565  1.3187
  974MOL0     H31448   9.427   3.506   7.178  0.8157 -0.7142 -1.0456
  974MOL0     H31449   9.424   3.350   7.105 -0.4746 -1.1987  0.5460
  974MOL0     H31450   9.717   3.272   7.425  1.9335 -2.4026  0.7628
  974MOL0     H31451   9.925   3.203   7.362  2.2669  2.3848 -0.6510
  974MOL0     H31452  10.130   3.211   6.737  1.3007 -1.4287 -2.1028
  974MOL0     H31453  10.342   3.231   6.624 -1.1194 -0.0791  0.2986
  974MOL0     H31454  10.645   3.441   6.804  0.4436 -0.3991  2.8649
  974MOL0     H31455  10.711   3.269   6.849  0.7532 -4.6897 -3.7680
  974MOL0     H31456  10.806   3.243   6.641  0.5741 -0.6014  1.0853
  974MOL0     H31457  10.756   3.413   6.599 -0.7372 -0.6600  0.3013
  974MOL0     H31458  11.008   3.369   6.675 -0.0716 -1.9343  1.8966
  974MOL0     H31459  10.926   3.506   6.737 -0.8126  0.0774 -0.9400
  974MOL0     H31460  10.943   3.243   6.896 -1.2958 -1.6217  0.7666
  974MOL0     H31461  10.884   3.404   6.953  0.8963 -3.3166  3.2446
  974MOL0     H31462  11.168   3.343   6.856  2.6166 -0.6777  2.6566
  974MOL0     H31463  11.113   3.354   7.026  4.1194  2.7253  0.6493
  974MOL0     H31464  11.116   3.596   6.844  0.7439  1.6722  0.8695
  974MOL0     H31465  11.106   3.580   7.019  0.2007 -0.5521 -0.0468
  974MOL0     H31466  11.350   3.507   6.854  0.3335 -0.3584  0.2613
  974MOL0     H31467  11.339   3.499   7.027 -2.7957 -0.6933  1.1877
  974MOL0     H31468  11.355   3.766   6.909 -0.3321  2.2729  1.2852
  974MOL0     H31469  11.272   3.744   7.065  1.7998  0.1954 -0.0091
  974MOL0     H31470  10.540   3.312   6.997  0.3784 -1.6820  1.0389
  974MOL0     H31471  10.306   3.315   7.107  4.1729 -0.7499  1.4322
  974MOL0     H31472   9.840   3.342   6.961  0.4090 -1.4405  0.1701
  974MOL0     H31473   9.615   3.376   7.025 -0.3501  2.2986 -0.3409
  974MOL0     H31474   9.862   4.069   6.482  4.1563 -3.5176  1.1497
  974MOL0     H31475  10.069   4.105   6.353  1.8109  1.1291 -0.9865
  974MOL0     H31476  10.230   4.100   5.870 -1.5684  1.2026  3.2526
  974MOL0     H31477  10.437   4.179   5.736 -0.0779  0.6638 -0.5087
  974MOL0     H31478  10.771   4.209   5.656  1.0733 -1.5450  1.4101
  974MOL0     H31479  10.609   4.156   5.648  1.2732 -2.6187 -3.0124
  974MOL0     H31480  10.742   3.979   5.647  1.6753  0.3475  0.1794
  974MOL0     H31481  10.683   3.982   5.814 -0.3016  1.1664  0.7338
  974MOL0     H31482  10.858   4.065   5.919 -3.0460 -4.2184  1.0218
  974MOL0     H31483  10.942   4.103   5.759 -0.6118 -0.7222 -1.8782
  974MOL0     H31484  10.883   3.843   5.919  0.9924 -2.7296  0.3414
  974MOL0     H31485  10.959   3.836   5.757  0.2888  1.3078  0.2337
  974MOL0     H31486  11.281   3.929   6.011  0.5698  0.9415 -0.8574
  974MOL0     H31487  10.672   4.198   6.092  0.0233  1.1152  2.1590
  974MOL0     H31488  10.426   4.189   6.304 -2.5521  0.1019 -2.5627
  974MOL0     H31489  10.438   4.010   6.312 -0.6181  0.4848  0.2004
  974MOL0     H31490  10.590   4.091   6.295 -0.8039 -0.9361  1.7755
  975MOL0     O31491   7.730   3.292   1.077 -0.2565 -0.0176  0.0330
  975MOL0     C31492   7.624   3.255   1.118  0.5577 -1.0315 -0.6284
  975MOL0     O31493   7.546   3.156   1.068 -1.1106 -0.0700 -0.0827
  975MOL0     C31494   7.588   3.090   0.960 -0.7468  0.2423  0.2460
  975MOL0     C31495   7.492   3.074   0.859  0.0229 -0.1252 -0.4132
  975MOL0     C31496   7.516   2.984   0.749  0.0432  0.1094 -0.1784
  975MOL0     C31497   7.636   2.909   0.754  0.1133  0.1334  0.5160
  975MOL0     O31498   7.669   2.814   0.656 -0.2167  0.4740 -0.3363
  975MOL0     C31499   7.625   2.837   0.525  0.4657 -0.0796 -0.7460
  975MOL0     C31500   7.744   2.788   0.440 -0.1570 -0.8854  0.8532
  975MOL0     C31501   7.771   2.641   0.440 -0.2622 -0.6478  0.4419
  975MOL0     C31502   7.877   2.606   0.330  0.1863 -0.1874 -0.4343
  975MOL0     C31503   7.876   2.459   0.292  0.1781 -0.3185  0.4853
  975MOL0     C31504   7.759   2.420   0.189 -0.0738 -0.8645 -1.6414
  975MOL0     C31505   7.786   2.290   0.128  0.6426  0.3849  0.0112
  975MOL0     C31506   7.798   2.174   0.234  0.2946 -0.0283 -0.0522
  975MOL0     N31507   7.940   2.153   0.264  0.8135 -0.4557 -0.6224
  975MOL0     C31508   8.045   2.160   0.174 -0.3732  0.1373  0.0921
  975MOL0     C31509   8.161   2.174   0.248 -0.1921 -0.4546  0.1672
  975MOL0     C31510   8.304   2.163   0.192 -0.1950 -1.3284 -0.7219
  975MOL0     C31511   8.354   2.303   0.193 -0.8317 -0.1125  0.2299
  975MOL0     C31512   8.471   2.300   0.087 -0.1221 -0.2399 -0.6628
  975MOL0     C31513   8.527   2.446   0.039  0.6155 -0.5106  0.0506
  975MOL0     O31514   8.596   2.526   0.140 -0.0759  0.3985 -0.0682
  975MOL0     C31515   8.521   2.615   0.218 -0.3689 -0.7795 -0.3855
  975MOL0     C31516   8.610   2.701   0.292  0.1183  0.3685  0.9640
  975MOL0     C31517   8.567   2.830   0.347  0.1059  0.1006 -0.4906
  975MOL0     C31518   8.426   2.850   0.354  0.3173 -0.6578 -0.9131
  975MOL0     C31519   8.363   2.973   0.419 -0.1556  0.6171  0.4975
  975MOL0     O31520   8.434   3.083   0.422 -0.4395 -0.1074 -0.3926
  975MOL0     C31521   8.379   3.198   0.477 -0.0050 -1.1625  0.9549
  975MOL0     C31522   8.339   3.311   0.403  0.8150 -0.1803  0.2861
  975MOL0     C31523   8.305   3.433   0.474 -0.1257  0.9225 -0.3691
  975MOL0     C31524   8.290   3.431   0.617  0.2032  0.2118  0.2472
  975MOL0     O31525   8.251   3.543   0.693  1.1032  0.0053 -0.2710
  975MOL0     C31526   8.175   3.650   0.621 -0.3650  0.1902  0.9733
  975MOL0     C31527   8.120   3.730   0.742  0.0496  0.4227  0.2180
  975MOL0     C31528   8.068   3.864   0.682 -0.3027 -0.6632 -0.4635
  975MOL0     C31529   8.016   3.953   0.788 -0.5765 -0.6258  0.8192
  975MOL0     C31530   7.981   4.096   0.735 -0.1311  0.3035 -0.2098
  975MOL0     C31531   7.932   4.205   0.834  0.7248  0.4798  0.2270
  975MOL0     C31532   7.901   4.338   0.764  0.5523  0.0336 -0.1881
  975MOL0     C31533   7.830   4.439   0.846  0.6797 -0.5096  0.2174
  975MOL0    Cl31534   7.653   4.394   0.837 -0.0722  0.3029  0.0617
  975MOL0     C31535   8.338   3.324   0.683 -0.3527 -0.0281  0.0650
  975MOL0     C31536   8.378   3.213   0.615 -0.9463  0.4724  0.4504
  975MOL0     O31537   8.255   2.948   0.474 -0.4904 -0.6624  0.1169
  975MOL0     C31538   8.347   2.758   0.286 -0.4682 -0.4151  1.0387
  975MOL0     C31539   8.391   2.653   0.210 -0.5631  0.2759 -0.3211
  975MOL0     N31540   8.118   2.164   0.381 -0.7482  0.4315 -0.5896
  975MOL0     N31541   7.991   2.153   0.391  0.1784  0.4084 -0.7788
  975MOL0     C31542   7.717   2.917   0.863  0.6362 -0.8188  0.4848
  975MOL0     C31543   7.699   3.001   0.966 -0.3183  0.4161  0.1189
  975MOL0     C31544   7.557   3.341   1.230 -0.3562 -0.3158  1.0863
  975MOL0     C31545   7.422   3.357   1.213 -1.1858 -0.1592 -0.8626
  975MOL0     C31546   7.347   3.406   1.320 -0.3398 -0.9662 -0.3960
  975MOL0     C31547   7.407   3.428   1.452 -0.2820  0.1325  0.2451
  975MOL0     O31548   7.344   3.466   1.576 -0.6725  0.1466 -0.0117
  975MOL0     C31549   7.210   3.429   1.590  0.6544 -0.3716 -0.3462
  975MOL0     C31550   7.109   3.540   1.631 -0.0315 -0.3500 -1.0541
  975MOL0     C31551   6.967   3.498   1.596  0.0482  0.3356  0.2302
  975MOL0     C31552   6.873   3.626   1.589 -0.2622  0.1799  0.0977
  975MOL0     C31553   6.742   3.567   1.547  0.4346 -0.6990  0.3839
  975MOL0     C31554   6.633   3.548   1.495  0.0886 -0.8554  0.2318
  975MOL0     C31555   7.545   3.422   1.446 -0.3473 -0.3213 -0.8313
  975MOL0     C31556   7.623   3.373   1.345 -0.5376  0.4689  0.1701
  975MOL0     C31557   7.768   3.344   1.363 -0.4058  0.3413 -0.0395
  975MOL0     H31558   7.396   3.124   0.851  0.0648 -0.3549 -4.6014
  975MOL0     H31559   7.436   2.959   0.679  0.4593 -1.0315 -0.2790
  975MOL0     H31560   7.543   2.771   0.495  2.3837 -1.8322 -2.5021
  975MOL0     H31561   7.610   2.945   0.516  2.5899  1.0703  5.0559
  975MOL0     H31562   7.826   2.854   0.468  0.1161 -2.2384  3.4968
  975MOL0     H31563   7.715   2.812   0.337  0.1036 -1.4669  0.6448
  975MOL0     H31564   7.674   2.594   0.423 -0.7315 -0.0331  1.3609
  975MOL0     H31565   7.798   2.601   0.538  0.1674 -1.7331 -0.1002
  975MOL0     H31566   7.857   2.667   0.241  0.0669  2.5065  1.3065
  975MOL0     H31567   7.976   2.630   0.368 -1.2203  0.9837  2.8307
  975MOL0     H31568   7.970   2.445   0.239 -1.5316  1.6015 -3.4560
  975MOL0     H31569   7.871   2.400   0.384 -1.7595  1.7787  1.8618
  975MOL0     H31570   7.672   2.407   0.254  1.3340 -1.3006  0.2580
  975MOL0     H31571   7.737   2.493   0.111 -1.7777 -1.1098 -1.4164
  975MOL0     H31572   7.856   2.285   0.044 -0.6188  0.9863 -1.1026
  975MOL0     H31573   7.702   2.259   0.065  2.3428 -0.5936 -1.9163
  975MOL0     H31574   7.737   2.184   0.324 -3.4353  1.5269 -2.5048
  975MOL0     H31575   7.766   2.082   0.183  1.6557  0.1500 -1.2980
  975MOL0     H31576   8.056   2.149   0.067  2.1700  1.8558  0.0923
  975MOL0     H31577   8.377   2.097   0.239  0.3743 -1.6157 -1.9535
  975MOL0     H31578   8.305   2.122   0.090 -0.7964  0.8592 -1.6652
  975MOL0     H31579   8.274   2.371   0.163 -1.4841 -1.0081 -0.0794
  975MOL0     H31580   8.387   2.333   0.294 -2.0591 -2.5064  1.4219
  975MOL0     H31581   8.437   2.247  -0.002 -0.5291  1.4278 -1.5390
  975MOL0     H31582   8.553   2.246   0.135 -0.3838 -0.9880 -1.0349
  975MOL0     H31583   8.438   2.499   0.004 -1.6681 -3.3669  1.1099
  975MOL0     H31584   8.592   2.430  -0.047  0.4922  0.3859 -0.2263
  975MOL0     H31585   8.715   2.676   0.299  0.3418  1.3865  1.3811
  975MOL0     H31586   8.632   2.900   0.400  1.8873  0.5114 -3.0003
  975MOL0     H31587   8.361   3.297   0.297  4.9120 -3.7350  1.2980
  975MOL0     H31588   8.275   3.525   0.424 -1.2276  0.3276 -0.8434
  975MOL0     H31589   8.242   3.720   0.569 -1.0945  1.0229  1.1340
  975MOL0     H31590   8.094   3.610   0.560 -1.4682  0.1395  2.4097
  975MOL0     H31591   8.039   3.679   0.796  0.8278 -0.7809  0.2931
  975MOL0     H31592   8.199   3.738   0.817 -0.7861  0.0729  1.1626
  975MOL0     H31593   8.150   3.915   0.631 -1.8903 -0.4597 -2.9431
  975MOL0     H31594   7.980   3.855   0.618 -2.7988  2.4382  2.1389
  975MOL0     H31595   8.093   3.951   0.866 -0.2006 -1.0003  0.4400
  975MOL0     H31596   7.926   3.907   0.830 -2.7254  0.6277 -2.0689
  975MOL0     H31597   7.905   4.075   0.660  1.1840 -2.1107 -0.9724
  975MOL0     H31598   8.074   4.130   0.688  0.3779 -2.5943 -1.4742
  975MOL0     H31599   7.839   4.175   0.884 -0.1091  2.9267  0.2443
  975MOL0     H31600   8.007   4.213   0.912  0.6049  0.2007  0.3739
  975MOL0     H31601   7.839   4.313   0.678  1.5220  3.6758 -2.1503
  975MOL0     H31602   7.985   4.396   0.725 -0.7427  1.6876 -0.6478
  975MOL0     H31603   7.861   4.442   0.951  1.4464  3.1315 -0.0007
  975MOL0     H31604   7.851   4.537   0.804  0.8014  0.2541  1.9607
  975MOL0     H31605   8.335   3.319   0.792 -4.5331 -0.7266  0.0855
  975MOL0     H31606   8.407   3.125   0.670 -4.5005 -3.3905 -3.1144
  975MOL0     H31607   8.241   2.780   0.279 -0.5139 -0.7008  0.8289
  975MOL0     H31608   8.316   2.595   0.157 -1.1114  1.6959 -1.1459
  975MOL0     H31609   7.801   2.849   0.873 -1.4522 -3.8511 -1.1034
  975MOL0     H31610   7.776   2.997   1.042 -0.3932  1.0766  0.2352
  975MOL0     H31611   7.358   3.337   1.127 -0.9863 -1.1586 -0.7918
  975MOL0     H31612   7.240   3.422   1.316 -0.3071 -0.8933 -1.0596
  975MOL0     H31613   7.209   3.351   1.667 -0.7170 -0.9973 -0.9628
  975MOL0     H31614   7.176   3.381   1.498  0.3012 -2.0955  0.6416
  975MOL0     H31615   7.140   3.632   1.582 -1.6583  1.5592  1.2349
  975MOL0     H31616   7.104   3.543   1.740 -5.3140 -2.4272 -0.9111
  975MOL0     H31617   6.935   3.418   1.664  4.6727 -3.3794 -1.4078
  975MOL0     H31618   6.980   3.462   1.494  2.9289 -0.6795  0.8726
  975MOL0     H31619   6.871   3.684   1.682 -0.2488  0.3315  0.0031
  975MOL0     H31620   6.911   3.701   1.519 -0.3429  0.3472  0.2338
  975MOL0     H31621   6.544   3.518   1.444 -1.8754  3.0307  1.0095
  975MOL0     H31622   7.595   3.435   1.542 -2.5406  0.2380  0.2988
  975MOL0     H31623   7.828   3.420   1.312 -0.3755 -0.0553 -0.5991
  975MOL0     H31624   7.783   3.336   1.471 -1.4970  0.0358  0.0974
  975MOL0     H31625   7.790   3.244   1.323  1.1936  0.7859 -0.3545
  976MOL0     O31626   9.959   7.038   5.376 -0.5020  0.0581 -0.0447
  976MOL0     C31627  10.031   6.991   5.293 -0.4865 -0.0540 -1.1025
  976MOL0     O31628  10.038   7.026   5.163 -0.3366 -0.2110  0.4042
  976MOL0     C31629   9.951   7.098   5.089 -0.2502 -0.5419 -0.6133
  976MOL0     C31630  10.006   7.162   4.975 -0.1255  0.4003 -0.1161
  976MOL0     C31631   9.926   7.238   4.895  0.2849 -0.3314  0.5619
  976MOL0     C31632   9.791   7.266   4.911  0.4276  0.0581  0.8497
  976MOL0     O31633   9.728   7.341   4.809 -0.4608  0.6269 -0.1167
  976MOL0     C31634   9.609   7.406   4.845 -0.4297 -0.6449 -0.1189
  976MOL0     C31635   9.494   7.333   4.769 -0.3661  0.0600 -0.5429
  976MOL0     C31636   9.511   7.353   4.614  1.0388 -0.0894  0.0433
  976MOL0     C31637   9.377   7.344   4.538  0.3798  0.4929 -0.3334
  976MOL0     C31638   9.367   7.403   4.391 -0.5514  0.4544  0.1651
  976MOL0     C31639   9.491   7.335   4.308  0.0789 -0.4663 -0.5224
  976MOL0     C31640   9.454   7.321   4.162  0.2701  0.3291 -0.1346
  976MOL0     C31641   9.573   7.281   4.069  0.4427 -0.6476 -0.1231
  976MOL0     N31642   9.594   7.136   4.072 -0.6572 -0.0901  0.3998
  976MOL0     C31643   9.654   7.048   4.161  0.9349 -1.0087  0.0599
  976MOL0     C31644   9.674   6.937   4.094  0.1925  0.8993 -0.2463
  976MOL0     C31645   9.753   6.814   4.139 -0.5219 -0.0444 -0.0230
  976MOL0     C31646   9.690   6.711   4.221  0.9246  0.0504 -0.3645
  976MOL0     C31647   9.559   6.647   4.160 -0.1464 -0.3200 -0.1082
  976MOL0     C31648   9.425   6.722   4.173 -0.8875  0.1334  0.3492
  976MOL0     O31649   9.388   6.753   4.303 -0.0967 -0.1224  0.2558
  976MOL0     C31650   9.275   6.830   4.313 -0.9252  0.3027  0.6441
  976MOL0     C31651   9.294   6.969   4.296  0.2214  0.5820 -0.3438
  976MOL0     C31652   9.186   7.041   4.326  0.2346  0.1885 -0.7361
  976MOL0     C31653   9.055   6.987   4.360  0.0540 -0.5814  0.1927
  976MOL0     C31654   8.946   7.080   4.396  0.4708  0.9150 -0.2862
  976MOL0     O31655   8.963   7.215   4.390 -1.3096  0.0874 -0.2001
  976MOL0     C31656   8.881   7.314   4.444  0.3059 -1.7365 -0.5160
  976MOL0     C31657   8.945   7.439   4.450  0.0111  0.1069  0.3123
  976MOL0     C31658   8.880   7.557   4.484  0.5293 -0.1453  0.1604
  976MOL0     C31659   8.738   7.548   4.513  0.1460  0.1837 -0.3447
  976MOL0     O31660   8.671   7.669   4.523  0.6933 -0.3132  0.8869
  976MOL0     C31661   8.576   7.693   4.406  0.2442 -0.7681 -0.0320
  976MOL0     C31662   8.553   7.849   4.392  0.1055 -0.0562  0.5634
  976MOL0     C31663   8.461   7.881   4.267 -0.0727  0.2331 -0.4222
  976MOL0     C31664   8.459   8.028   4.228  0.5061 -0.1107  0.3095
  976MOL0     C31665   8.391   8.051   4.091  0.8114 -0.1070 -0.3494
  976MOL0     C31666   8.470   8.004   3.978  0.1173 -0.1618  0.2078
  976MOL0     C31667   8.618   8.038   3.975 -0.3618 -0.0965 -0.0129
  976MOL0     C31668   8.685   7.985   3.847 -0.4149 -0.0276 -0.8091
  976MOL0    Cl31669   8.863   7.993   3.859  0.0797 -0.0667  0.2027
  976MOL0     C31670   8.677   7.415   4.526 -0.4848  0.1042 -0.2107
  976MOL0     C31671   8.751   7.300   4.501 -0.6676 -0.1053  0.0311
  976MOL0     O31672   8.834   7.031   4.420 -0.1461 -0.6876  0.2129
  976MOL0     C31673   9.040   6.851   4.372  0.2529  0.6896  0.3746
  976MOL0     C31674   9.151   6.770   4.346 -0.3685  0.4705  0.0197
  976MOL0     N31675   9.618   6.936   3.971 -0.7141 -0.1236  0.6000
  976MOL0     N31676   9.574   7.064   3.960  0.0470  1.2322 -0.7807
  976MOL0     C31677   9.737   7.203   5.024  0.2669 -0.1679  0.2916
  976MOL0     C31678   9.813   7.126   5.116  0.0133 -0.1464 -0.2084
  976MOL0     C31679  10.109   6.872   5.347  0.0600 -0.7049  0.0289
  976MOL0     C31680  10.112   6.753   5.277 -0.0304 -0.3896  0.4946
  976MOL0     C31681  10.159   6.631   5.324  0.0028 -0.3862  0.8356
  976MOL0     C31682  10.213   6.631   5.451 -0.7501 -0.1260  0.1416
  976MOL0     O31683  10.272   6.519   5.499 -0.2705  0.3180  0.6774
  976MOL0     C31684  10.197   6.396   5.485 -0.3485  0.1073  0.1690
  976MOL0     C31685  10.224   6.318   5.619  0.0801  0.1775 -0.0085
  976MOL0     C31686  10.153   6.186   5.623 -0.0198 -0.1037 -0.3642
  976MOL0     C31687  10.150   6.110   5.756  0.3978  0.9220 -0.7863
  976MOL0     C31688  10.277   6.089   5.814 -1.1797  0.3389 -0.4778
  976MOL0     C31689  10.383   6.080   5.873  0.8765 -0.3706  0.5877
  976MOL0     C31690  10.215   6.747   5.530  0.2803  0.1369  0.3723
  976MOL0     C31691  10.170   6.867   5.473 -0.4834 -0.5124  0.2431
  976MOL0     C31692  10.163   6.986   5.571  0.2945  0.1806 -0.5714
  976MOL0     H31693  10.110   7.147   4.950  0.0734  2.6258 -0.8259
  976MOL0     H31694   9.977   7.299   4.821 -0.5597  0.5497  0.6939
  976MOL0     H31695   9.590   7.424   4.951 -2.2275  0.6541 -0.6143
  976MOL0     H31696   9.615   7.507   4.804 -0.1993 -0.3606  0.5899
  976MOL0     H31697   9.399   7.370   4.808 -0.1033  1.0139 -0.7830
  976MOL0     H31698   9.486   7.229   4.802  1.1965 -0.1236 -0.6714
  976MOL0     H31699   9.569   7.272   4.568  1.3607 -2.5390  4.1709
  976MOL0     H31700   9.548   7.455   4.602  0.6479 -0.0662 -1.0798
  976MOL0     H31701   9.347   7.239   4.531 -1.4720  0.7441  2.2971
  976MOL0     H31702   9.311   7.401   4.604  0.2437 -3.4756  3.4149
  976MOL0     H31703   9.270   7.371   4.350 -0.2414 -2.9234  1.7303
  976MOL0     H31704   9.378   7.511   4.395  1.4380  0.5142 -3.2778
  976MOL0     H31705   9.569   7.411   4.308 -3.1412  3.5755 -6.2730
  976MOL0     H31706   9.523   7.236   4.343  1.5877  0.8279  2.0777
  976MOL0     H31707   9.419   7.418   4.125  0.0946  1.1717  2.0635
  976MOL0     H31708   9.370   7.252   4.147  0.3535  0.4723 -1.3348
  976MOL0     H31709   9.540   7.311   3.969 -0.0682  0.8788  0.4680
  976MOL0     H31710   9.664   7.337   4.093  0.3161 -0.9861  1.1736
  976MOL0     H31711   9.688   7.070   4.261 -0.2866  0.5335  0.1790
  976MOL0     H31712   9.789   6.756   4.054 -0.1312 -0.1531  0.2141
  976MOL0     H31713   9.841   6.853   4.190  0.4470 -0.7769 -1.0770
  976MOL0     H31714   9.756   6.625   4.237 -0.2722 -1.2933 -2.2381
  976MOL0     H31715   9.663   6.748   4.320 -2.5850 -2.7041 -0.0719
  976MOL0     H31716   9.539   6.549   4.205 -1.3576 -1.7065 -3.3417
  976MOL0     H31717   9.579   6.630   4.054  0.7778 -4.7786  0.5739
  976MOL0     H31718   9.358   6.648   4.128  2.8725 -2.3512 -1.6669
  976MOL0     H31719   9.426   6.815   4.115 -0.5008 -0.2167 -0.2136
  976MOL0     H31720   9.397   7.002   4.287  0.5057  1.2113  3.3106
  976MOL0     H31721   9.199   7.148   4.315  1.2065  0.2581  0.7637
  976MOL0     H31722   9.047   7.445   4.413 -0.3241  0.9212 -0.5004
  976MOL0     H31723   8.913   7.658   4.462 -0.5866  0.2497  0.2229
  976MOL0     H31724   8.604   7.645   4.312  0.1939  0.4287 -0.6746
  976MOL0     H31725   8.478   7.650   4.429 -1.1379  1.6875 -0.9605
  976MOL0     H31726   8.515   7.898   4.482  1.2097 -1.5171  1.8873
  976MOL0     H31727   8.656   7.885   4.386  0.5295 -0.8342  2.4702
  976MOL0     H31728   8.483   7.823   4.177 -1.8642 -0.5981 -0.3760
  976MOL0     H31729   8.356   7.866   4.293 -0.5025  1.0563 -1.5765
  976MOL0     H31730   8.554   8.083   4.226 -0.1939  1.1473 -1.8220
  976MOL0     H31731   8.394   8.081   4.298  1.2775 -1.7400  2.3305
  976MOL0     H31732   8.372   8.159   4.082  2.6472  0.3625  1.0247
  976MOL0     H31733   8.292   8.004   4.091  0.6310  0.2538 -0.8251
  976MOL0     H31734   8.470   7.895   3.964 -1.2741  0.1813 -3.4975
  976MOL0     H31735   8.419   8.045   3.891  0.0859 -3.2932 -1.4040
  976MOL0     H31736   8.664   7.993   4.064 -1.5111  1.3931  1.3955
  976MOL0     H31737   8.626   8.146   3.988 -3.5815  0.3212 -0.7692
  976MOL0     H31738   8.661   7.883   3.817 -0.9760  0.4869 -2.1911
  976MOL0     H31739   8.652   8.050   3.765 -2.4545 -0.0315 -0.0503
  976MOL0     H31740   8.573   7.391   4.543  0.4087 -2.8182  1.8907
  976MOL0     H31741   8.707   7.201   4.513 -4.5056  1.7231  3.6364
  976MOL0     H31742   8.942   6.807   4.386 -0.0141  1.8549  2.6537
  976MOL0     H31743   9.139   6.662   4.346  0.5832  0.2631 -3.0082
  976MOL0     H31744   9.640   7.229   5.065 -1.0692 -2.0201 -1.5299
  976MOL0     H31745   9.781   7.092   5.214  0.2768  1.9346  0.6523
  976MOL0     H31746  10.083   6.744   5.173 -0.5398 -1.1191  0.6878
  976MOL0     H31747  10.149   6.545   5.258 -0.2494 -0.2250  0.6626
  976MOL0     H31748  10.227   6.328   5.404  1.4103 -1.3584  1.9553
  976MOL0     H31749  10.090   6.418   5.477 -0.7450 -1.9943 -1.1514
  976MOL0     H31750  10.185   6.375   5.703 -3.0170 -0.6493 -0.7593
  976MOL0     H31751  10.330   6.306   5.643  1.3066 -0.4455 -4.7087
  976MOL0     H31752  10.201   6.112   5.559 -1.4154 -1.5862  0.2351
  976MOL0     H31753  10.050   6.203   5.591 -0.1256  0.6283  0.3214
  976MOL0     H31754  10.096   6.174   5.826 -0.6777 -0.7913  0.0342
  976MOL0     H31755  10.088   6.020   5.754  1.0516  0.4591 -0.5438
  976MOL0     H31756  10.478   6.072   5.923  0.4031  2.0049  2.0094
  976MOL0     H31757  10.260   6.744   5.629 -0.6887  1.4076  0.8837
  976MOL0     H31758  10.219   7.074   5.537 -2.9404  1.9062 -1.8313
  976MOL0     H31759  10.061   7.010   5.601  0.6459  0.6200  0.3294
  976MOL0     H31760  10.211   6.951   5.663 -3.0450 -2.3380  0.3995
  977MOL0     O31761   2.891   9.133   1.793 -0.0510  0.0628 -0.4221
  977MOL0     C31762   2.931   9.241   1.756 -0.6557 -0.2378 -0.6021
  977MOL0     O31763   2.945   9.352   1.838 -0.6732 -0.9347 -0.0056
  977MOL0     C31764   2.874   9.362   1.961 -0.3130  0.2216  0.3699
  977MOL0     C31765   2.735   9.338   1.967  0.0706  0.4519 -0.3865
  977MOL0     C31766   2.675   9.342   2.095 -0.2375  0.9452  0.1112
  977MOL0     C31767   2.742   9.390   2.208 -0.2136 -0.3754 -0.2513
  977MOL0     O31768   2.686   9.418   2.331 -0.4987  0.5852  0.6126
  977MOL0     C31769   2.538   9.430   2.343  0.5627 -0.5578  0.6354
  977MOL0     C31770   2.511   9.445   2.493 -0.1975 -0.1032  0.4006
  977MOL0     C31771   2.507   9.587   2.540  0.0670 -0.1442  0.8176
  977MOL0     C31772   2.440   9.618   2.666  0.8252 -0.1962  0.2590
  977MOL0     C31773   2.531   9.707   2.750  0.3303 -0.4635  0.0000
  977MOL0     C31774   2.642   9.632   2.819 -0.1493 -0.4033  0.1079
  977MOL0     C31775   2.728   9.701   2.933 -0.1884  0.1671  0.3185
  977MOL0     C31776   2.807   9.595   3.011 -0.3502 -0.0886 -0.5986
  977MOL0     N31777   2.903   9.666   3.096 -0.3362 -0.4185 -0.0845
  977MOL0     C31778   2.922   9.622   3.227  0.4348  0.7369  0.8622
  977MOL0     C31779   3.012   9.713   3.279 -1.9497 -0.2074 -0.1640
  977MOL0     C31780   3.071   9.701   3.416 -0.3786 -0.3247  0.4168
  977MOL0     C31781   3.074   9.828   3.493 -0.3275 -0.4144  0.7312
  977MOL0     C31782   2.946   9.869   3.563  0.4580 -0.1820  0.6055
  977MOL0     C31783   2.944  10.010   3.622  0.6132  0.0705  0.0546
  977MOL0     O31784   3.023  10.013   3.743  0.2151  0.3659  0.1181
  977MOL0     C31785   3.150  10.069   3.735  1.2638  0.7166  0.3015
  977MOL0     C31786   3.208  10.086   3.859 -0.5012  0.4296  0.2437
  977MOL0     C31787   3.329  10.142   3.878 -0.6118 -0.6436 -0.5695
  977MOL0     C31788   3.397  10.194   3.767 -0.2888 -0.3882  0.3841
  977MOL0     C31789   3.534  10.262   3.787 -0.8095  0.2720  0.1237
  977MOL0     O31790   3.620  10.273   3.677  0.3259  0.5698  0.3463
  977MOL0     C31791   3.724  10.359   3.694 -0.6534  0.0890 -1.6611
  977MOL0     C31792   3.706  10.498   3.699 -0.5135 -0.3992  0.3819
  977MOL0     C31793   3.820  10.581   3.708 -0.4869 -0.6690 -0.1099
  977MOL0     C31794   3.952  10.525   3.708  0.4037 -0.5227  0.1450
  977MOL0     O31795   4.076  10.586   3.696 -0.3204 -0.2982  0.3242
  977MOL0     C31796   4.075  10.730   3.688  0.4658 -0.5834 -0.3463
  977MOL0     C31797   4.212  10.789   3.694 -0.1803 -0.3684 -0.3342
  977MOL0     C31798   4.204  10.941   3.721  0.4693 -0.5058  0.3617
  977MOL0     C31799   4.345  10.997   3.724 -0.1679  0.0114  0.5857
  977MOL0     C31800   4.354  11.148   3.744  0.8162 -0.3786  0.1494
  977MOL0     C31801   4.271  11.215   3.855  0.1509 -0.7286  0.4231
  977MOL0     C31802   4.298  11.369   3.841  0.3238  0.0843 -0.9903
  977MOL0     C31803   4.190  11.447   3.915  0.7291  0.6044 -0.0903
  977MOL0    Cl31804   4.218  11.437   4.096 -0.2679 -0.0714  0.1428
  977MOL0     C31805   3.963  10.386   3.716  0.3681 -0.2221  0.7974
  977MOL0     C31806   3.854  10.302   3.710 -0.2780  0.2167 -0.5392
  977MOL0     O31807   3.562  10.306   3.907  0.4779  0.1859  0.4075
  977MOL0     C31808   3.351  10.180   3.637  0.3610  0.3664  0.1488
  977MOL0     C31809   3.220  10.118   3.627 -0.1191 -0.1052 -0.2019
  977MOL0     N31810   3.047   9.804   3.178 -0.0436  0.3067  0.1639
  977MOL0     N31811   2.984   9.767   3.070  0.3649 -0.3924 -0.0436
  977MOL0     C31812   2.876   9.421   2.188 -0.1005  0.2864  0.0305
  977MOL0     C31813   2.938   9.409   2.073 -0.3014 -0.1513  0.4248
  977MOL0     C31814   2.972   9.262   1.616  0.4528  0.0044  0.3509
  977MOL0     C31815   3.051   9.375   1.582 -1.2123  0.4839 -0.5423
  977MOL0     C31816   3.092   9.401   1.449 -0.1694 -0.5217 -0.3507
  977MOL0     C31817   3.046   9.312   1.344  0.0463 -0.7707 -0.2809
  977MOL0     O31818   3.095   9.327   1.219  0.3935  0.0789 -0.4246
  977MOL0     C31819   3.175   9.212   1.175  0.2754 -0.0373 -0.7777
  977MOL0     C31820   3.319   9.229   1.232 -0.3252 -1.2297  0.0287
  977MOL0     C31821   3.399   9.104   1.212  0.0560 -0.4996 -0.3638
  977MOL0     C31822   3.459   9.096   1.064  1.0170  0.6107 -0.1087
  977MOL0     C31823   3.366   9.031   0.971 -0.5939  1.7045  0.6451
  977MOL0     C31824   3.291   8.990   0.887  0.2677  0.0501 -0.4791
  977MOL0     C31825   2.957   9.210   1.377 -0.3575 -0.0393  0.6118
  977MOL0     C31826   2.925   9.175   1.511  0.1183 -0.3177  0.4549
  977MOL0     C31827   2.843   9.048   1.532  0.1511 -0.2246  0.3450
  977MOL0     H31828   2.674   9.318   1.879  1.4027  0.6692 -1.3827
  977MOL0     H31829   2.569   9.327   2.113 -0.1004  0.3966  0.4645
  977MOL0     H31830   2.511   9.520   2.287  0.0193 -1.4176 -0.5448
  977MOL0     H31831   2.486   9.346   2.296  1.4689 -0.2213 -1.0178
  977MOL0     H31832   2.577   9.386   2.558 -1.7478 -0.5799  1.5837
  977MOL0     H31833   2.408   9.410   2.506 -0.8277 -0.0327 -3.2390
  977MOL0     H31834   2.456   9.645   2.463 -1.4338 -1.9806  0.3658
  977MOL0     H31835   2.612   9.618   2.545 -0.1621  0.4594  2.6008
  977MOL0     H31836   2.344   9.666   2.643  1.3164 -0.7432 -3.6278
  977MOL0     H31837   2.417   9.525   2.720  0.1225  0.1208  0.5154
  977MOL0     H31838   2.566   9.784   2.681  1.7932  0.6369  1.8678
  977MOL0     H31839   2.473   9.771   2.818 -0.1838  0.4706 -1.2867
  977MOL0     H31840   2.595   9.547   2.869  2.4121 -1.7072  0.5029
  977MOL0     H31841   2.709   9.593   2.741 -0.6594 -0.8176 -0.1262
  977MOL0     H31842   2.663   9.759   2.998 -1.7532 -0.2266 -0.8342
  977MOL0     H31843   2.787   9.767   2.868 -1.8960  0.5833 -0.8910
  977MOL0     H31844   2.733   9.541   3.071 -2.9424  3.4944 -0.2104
  977MOL0     H31845   2.862   9.528   2.945  0.1596  1.2528 -1.5759
  977MOL0     H31846   2.879   9.535   3.274 -0.8125 -0.3627 -2.0492
  977MOL0     H31847   3.013   9.626   3.470  0.1453 -0.4554  0.7993
  977MOL0     H31848   3.176   9.672   3.406  0.2667  1.0592  2.4690
  977MOL0     H31849   3.146   9.812   3.574  1.7604  1.5666 -0.6156
  977MOL0     H31850   3.118   9.910   3.435  0.0246 -2.6599 -2.4232
  977MOL0     H31851   2.919   9.791   3.634 -2.0317 -0.4114 -0.4842
  977MOL0     H31852   2.865   9.868   3.489 -0.9730  2.4837  2.0104
  977MOL0     H31853   2.840  10.036   3.644  0.8406  2.5620 -1.4602
  977MOL0     H31854   2.973  10.086   3.548  2.8990 -0.5875  0.1981
  977MOL0     H31855   3.170  10.018   3.935  1.9892 -1.2249  0.1055
  977MOL0     H31856   3.376  10.143   3.975  0.7631 -0.7836 -1.2029
  977MOL0     H31857   3.609  10.545   3.690 -1.4621 -2.4263 -0.4041
  977MOL0     H31858   3.824  10.689   3.719  0.3080 -0.8938  2.5059
  977MOL0     H31859   4.013  10.762   3.604  0.3236  0.1273  0.0136
  977MOL0     H31860   4.025  10.758   3.782  0.6172  3.4769 -1.2820
  977MOL0     H31861   4.263  10.736   3.775  0.5640 -1.2949 -1.3722
  977MOL0     H31862   4.268  10.771   3.602 -0.1741 -0.2772 -0.3489
  977MOL0     H31863   4.155  10.991   3.637 -2.5467 -0.5164  1.9805
  977MOL0     H31864   4.147  10.963   3.812 -0.4175  0.1037 -0.3365
  977MOL0     H31865   4.401  10.978   3.632  1.6700  0.8888  1.4603
  977MOL0     H31866   4.402  10.953   3.807 -1.9486 -0.6279  1.5173
  977MOL0     H31867   4.319  11.196   3.652  0.9017 -0.5795  0.0117
  977MOL0     H31868   4.456  11.184   3.761  0.3101  0.2689  2.1742
  977MOL0     H31869   4.168  11.192   3.827  0.6794  0.1045 -2.5651
  977MOL0     H31870   4.291  11.174   3.954  0.0046  1.9839  1.6935
  977MOL0     H31871   4.300  11.393   3.734  2.0323  0.2857 -0.9420
  977MOL0     H31872   4.396  11.402   3.876  0.1889  1.0325 -1.4554
  977MOL0     H31873   4.202  11.547   3.872  1.2156  0.9520  0.8321
  977MOL0     H31874   4.088  11.418   3.886  0.5086  2.3444 -1.2082
  977MOL0     H31875   4.064  10.345   3.714  1.9143  3.1353 -2.3793
  977MOL0     H31876   3.859  10.195   3.727 -2.8694 -0.4959 -3.4059
  977MOL0     H31877   3.405  10.219   3.551 -0.4309  0.6005 -0.2540
  977MOL0     H31878   3.176  10.120   3.528  3.2864 -0.1117 -1.8573
  977MOL0     H31879   2.932   9.463   2.271  3.4373  0.7688 -2.3442
  977MOL0     H31880   3.044   9.426   2.057  0.3958 -3.1798  1.1126
  977MOL0     H31881   3.086   9.434   1.667  1.0129  1.7987 -2.2676
  977MOL0     H31882   3.163   9.477   1.421  0.2545 -1.0074 -0.6073
  977MOL0     H31883   3.184   9.209   1.066 -0.6437 -0.6774 -0.8432
  977MOL0     H31884   3.130   9.117   1.204 -0.3345  0.3929 -0.2822
  977MOL0     H31885   3.305   9.250   1.339  1.8785  1.0250 -0.0254
  977MOL0     H31886   3.366   9.317   1.186  2.6574 -2.0137  1.3202
  977MOL0     H31887   3.341   9.019   1.249 -1.9208  2.2454  3.6839
  977MOL0     H31888   3.483   9.104   1.283  0.3769  2.2953 -0.6280
  977MOL0     H31889   3.474   9.201   1.038 -1.2564  1.1738  0.6168
  977MOL0     H31890   3.555   9.044   1.077  0.0638 -0.6239  3.0971
  977MOL0     H31891   3.214   8.954   0.821  2.8566 -0.7474 -3.2875
  977MOL0     H31892   2.922   9.144   1.298  1.2552  0.4802 -0.5815
  977MOL0     H31893   2.888   8.993   1.615 -0.4071  1.1455  1.6078
  977MOL0     H31894   2.741   9.075   1.560 -0.8221 -2.3217 -0.9801
  977MOL0     H31895   2.845   8.989   1.439  2.5031  2.5547 -1.5568
  978MOL0     O31896   7.601   7.415   1.445 -0.4812  0.5892 -0.8688
  978MOL0     C31897   7.611   7.538   1.462 -0.2673 -0.0080  0.0161
  978MOL0     O31898   7.565   7.627   1.378  0.1570  0.1773 -0.4763
  978MOL0     C31899   7.552   7.590   1.250 -0.3406  0.4414  0.0294
  978MOL0     C31900   7.658   7.609   1.159  0.2804 -0.1366 -0.4531
  978MOL0     C31901   7.653   7.560   1.037  0.9813  0.4338  0.2978
  978MOL0     C31902   7.543   7.490   0.990 -0.2457 -0.5577  0.3676
  978MOL0     O31903   7.566   7.432   0.863  0.4805 -0.0961  0.5192
  978MOL0     C31904   7.465   7.348   0.809  0.3723  0.2020  0.0546
  978MOL0     C31905   7.525   7.257   0.701 -0.2504 -0.6116  0.1040
  978MOL0     C31906   7.647   7.170   0.753  0.4691 -0.3252 -0.1228
  978MOL0     C31907   7.697   7.067   0.653  0.6318  0.1168  0.9733
  978MOL0     C31908   7.693   6.921   0.713  0.3845 -0.8265  0.2553
  978MOL0     C31909   7.817   6.838   0.664 -0.8030 -0.2093  0.7573
  978MOL0     C31910   7.803   6.695   0.722  0.9905 -0.3434 -1.2276
  978MOL0     C31911   7.922   6.605   0.677  0.1891 -0.3899  0.3994
  978MOL0     N31912   7.895   6.475   0.726 -0.5862  0.2873 -0.9246
  978MOL0     C31913   7.805   6.387   0.685  0.3760 -1.1915 -0.8339
  978MOL0     C31914   7.820   6.276   0.759  0.1019  0.1949 -0.3400
  978MOL0     C31915   7.735   6.153   0.737  0.8001  0.3322  0.8444
  978MOL0     C31916   7.601   6.186   0.664  0.0262 -0.2652  0.5255
  978MOL0     C31917   7.498   6.065   0.662  0.7449  0.1058 -0.2742
  978MOL0     C31918   7.356   6.088   0.606 -0.5073  0.3179  1.5162
  978MOL0     O31919   7.370   6.113   0.463 -0.3246 -0.4417 -0.7170
  978MOL0     C31920   7.262   6.139   0.380 -0.1619 -0.1716  1.1636
  978MOL0     C31921   7.287   6.180   0.245 -0.9158  0.1558 -0.6710
  978MOL0     C31922   7.188   6.228   0.153 -1.2396  0.8884 -0.0712
  978MOL0     C31923   7.052   6.217   0.203 -0.0975  0.6932  0.9949
  978MOL0     C31924   6.945   6.247   0.106  1.0108 -0.0844 -0.2071
  978MOL0     O31925   6.984   6.281  -0.021  0.4520 -0.3415  0.8245
  978MOL0     C31926   6.898   6.324  -0.119 -0.5814 -0.4339 -0.1038
  978MOL0     C31927   6.942   6.425  -0.207  0.1216 -0.2004  0.5973
  978MOL0     C31928   6.864   6.465  -0.318  0.0423 -0.3047  0.2241
  978MOL0     C31929   6.742   6.409  -0.347 -0.2722  0.7693  0.2519
  978MOL0     O31930   6.658   6.434  -0.452 -0.6398 -0.0771  0.4164
  978MOL0     C31931   6.710   6.527  -0.550 -0.4185  0.4646 -1.1174
  978MOL0     C31932   6.607   6.559  -0.650  0.1057  0.7335  0.2440
  978MOL0     C31933   6.581   6.446  -0.750  0.2003 -1.0643  0.0153
  978MOL0     C31934   6.456   6.480  -0.826  0.6681  0.1931 -0.4134
  978MOL0     C31935   6.397   6.378  -0.927  0.6919  0.0116 -0.0024
  978MOL0     C31936   6.267   6.437  -0.987 -0.5884 -0.0401  0.8401
  978MOL0     C31937   6.210   6.355  -1.107  0.1811  0.3771  0.1359
  978MOL0     C31938   6.151   6.217  -1.075 -0.0307  0.2118  0.0393
  978MOL0    Cl31939   6.131   6.121  -1.228  0.0006 -0.0490 -0.1016
  978MOL0     C31940   6.699   6.307  -0.259 -1.4715 -0.1964  0.2853
  978MOL0     C31941   6.772   6.260  -0.148 -0.2265  0.6086  0.4204
  978MOL0     O31942   6.826   6.245   0.142 -0.4435 -0.2310 -0.4513
  978MOL0     C31943   7.026   6.166   0.327 -0.1567 -0.1457 -0.1843
  978MOL0     C31944   7.127   6.140   0.416 -0.0838 -0.1259 -0.8844
  978MOL0     N31945   7.943   6.293   0.823  0.1219 -0.1575 -0.8289
  978MOL0     N31946   7.987   6.418   0.805 -0.3338 -0.8666  0.6767
  978MOL0     C31947   7.429   7.481   1.071 -0.1454  0.1200 -0.4752
  978MOL0     C31948   7.436   7.535   1.207  0.3801 -0.6391  0.3647
  978MOL0     C31949   7.674   7.585   1.589  0.3860 -0.0146 -0.6924
  978MOL0     C31950   7.634   7.517   1.703  0.5899  0.6318 -0.1791
  978MOL0     C31951   7.668   7.566   1.830  0.6361 -0.1718  0.1308
  978MOL0     C31952   7.731   7.697   1.851 -0.5510  1.1967  0.1377
  978MOL0     O31953   7.748   7.738   1.978  0.0695  0.0171  0.7201
  978MOL0     C31954   7.863   7.816   2.011  0.5906 -0.4509  0.0870
  978MOL0     C31955   7.873   7.794   2.158 -0.7748  1.1826  1.0665
  978MOL0     C31956   7.882   7.645   2.205  0.1099  0.2441  0.2223
  978MOL0     C31957   7.949   7.653   2.347  1.4092  0.4954 -0.2956
  978MOL0     C31958   7.861   7.716   2.457  0.2394  1.2124 -0.2415
  978MOL0     C31959   7.812   7.770   2.553 -0.6885  0.0092  0.7369
  978MOL0     C31960   7.766   7.763   1.730 -0.2965  0.5045 -0.1423
  978MOL0     C31961   7.736   7.710   1.603 -0.7511  0.6346  0.7525
  978MOL0     C31962   7.760   7.800   1.485  0.2382  0.1942  0.7446
  978MOL0     H31963   7.742   7.667   1.198 -0.5822  0.4909  0.5210
  978MOL0     H31964   7.750   7.574   0.990  0.1818  0.2162 -1.4953
  978MOL0     H31965   7.422   7.279   0.883  0.7668 -1.3449 -1.1000
  978MOL0     H31966   7.388   7.406   0.758 -0.7801 -2.4994 -1.4939
  978MOL0     H31967   7.558   7.322   0.619  2.3410 -0.2509  1.3211
  978MOL0     H31968   7.443   7.193   0.668 -2.6100 -0.6480  5.0921
  978MOL0     H31969   7.627   7.116   0.846 -0.3877  0.2765  0.0512
  978MOL0     H31970   7.727   7.240   0.778 -0.0272  1.2761 -2.5971
  978MOL0     H31971   7.640   7.086   0.562  1.9147  1.1585  0.3481
  978MOL0     H31972   7.802   7.091   0.635  0.8179 -0.9422  0.5482
  978MOL0     H31973   7.694   6.926   0.822 -2.1753  1.8362  0.3010
  978MOL0     H31974   7.600   6.868   0.691  0.5536 -0.6401 -0.9911
  978MOL0     H31975   7.811   6.831   0.555 -0.1719  1.2605  0.6157
  978MOL0     H31976   7.910   6.886   0.695  0.7334 -2.2049 -0.4418
  978MOL0     H31977   7.704   6.653   0.701 -0.3476  1.7441  0.5258
  978MOL0     H31978   7.802   6.712   0.830  0.0377 -1.6219 -1.0112
  978MOL0     H31979   7.918   6.614   0.568  0.9400  1.5135  0.4914
  978MOL0     H31980   8.013   6.652   0.713 -0.1260  2.7055 -2.3018
  978MOL0     H31981   7.719   6.398   0.620  0.3481  1.0696 -0.5189
  978MOL0     H31982   7.779   6.074   0.676 -1.6031  1.1319 -2.1291
  978MOL0     H31983   7.709   6.121   0.839 -0.0429  0.7256  0.7587
  978MOL0     H31984   7.557   6.278   0.706  0.3340  0.2720 -0.3086
  978MOL0     H31985   7.634   6.210   0.563  2.0505 -0.6503  1.0578
  978MOL0     H31986   7.473   6.017   0.758 -2.3850  1.8073 -0.0804
  978MOL0     H31987   7.538   5.978   0.609  0.4118  0.9623 -2.0198
  978MOL0     H31988   7.292   6.168   0.644 -2.3373 -0.9300  1.1836
  978MOL0     H31989   7.302   5.994   0.618  0.1338 -0.5982 -1.8053
  978MOL0     H31990   7.392   6.179   0.217  0.2948  4.7508  2.5590
  978MOL0     H31991   7.226   6.256   0.055  1.3745  0.6287  0.7709
  978MOL0     H31992   7.031   6.473  -0.167  0.2124  0.8914 -0.8261
  978MOL0     H31993   6.905   6.532  -0.393 -0.9682 -0.4937 -0.5052
  978MOL0     H31994   6.747   6.621  -0.507 -0.6008 -0.2830  0.7396
  978MOL0     H31995   6.801   6.482  -0.590  0.4208 -0.4593  1.6053
  978MOL0     H31996   6.516   6.589  -0.598 -0.3479  1.6574 -1.0289
  978MOL0     H31997   6.649   6.642  -0.708 -1.7515 -0.0038 -2.3179
  978MOL0     H31998   6.655   6.417  -0.825 -0.2807 -2.7815  0.1550
  978MOL0     H31999   6.561   6.357  -0.689 -1.2412 -0.2709  0.7360
  978MOL0     H32000   6.483   6.570  -0.883  2.3068  0.3909  0.6170
  978MOL0     H32001   6.371   6.502  -0.760  1.8306  0.5542  1.0233
  978MOL0     H32002   6.378   6.284  -0.874  3.0135 -0.7232 -0.3421
  978MOL0     H32003   6.474   6.358  -1.001 -1.0146  0.3332 -1.9534
  978MOL0     H32004   6.187   6.439  -0.913 -3.8086  0.9948 -2.3778
  978MOL0     H32005   6.281   6.537  -1.030 -0.1062 -1.3599 -2.3455
  978MOL0     H32006   6.291   6.342  -1.181  1.0940  0.7278  1.0480
  978MOL0     H32007   6.132   6.407  -1.163  0.0755 -2.8191 -3.0658
  978MOL0     H32008   6.214   6.161  -1.006  3.7032  0.9060 -2.4774
  978MOL0     H32009   6.060   6.220  -1.015  0.3985 -1.9970  0.8857
  978MOL0     H32010   6.610   6.252  -0.290  0.7646 -3.8311 -0.3835
  978MOL0     H32011   6.759   6.170  -0.089  1.8738  0.5004  0.7894
  978MOL0     H32012   6.922   6.147   0.350 -0.5648  0.8758 -1.0774
  978MOL0     H32013   7.092   6.115   0.515  0.4881  1.8963 -0.1220
  978MOL0     H32014   7.336   7.429   1.051  2.0057 -4.7728  0.6157
  978MOL0     H32015   7.357   7.531   1.281  0.9412  1.0923  1.1162
  978MOL0     H32016   7.589   7.419   1.696 -2.6285  2.0256 -0.8412
  978MOL0     H32017   7.637   7.504   1.914 -0.5532 -2.5018 -1.8900
  978MOL0     H32018   7.853   7.923   1.994 -1.0783 -0.1696  2.4026
  978MOL0     H32019   7.955   7.779   1.964  0.8888  0.8359 -0.3711
  978MOL0     H32020   7.784   7.841   2.203 -1.6023 -0.8080  1.6287
  978MOL0     H32021   7.961   7.853   2.184  0.5403  1.7923 -3.8329
  978MOL0     H32022   7.955   7.601   2.136  1.5006  0.4369  1.5126
  978MOL0     H32023   7.788   7.589   2.206  1.6059 -2.6342 -2.1856
  978MOL0     H32024   7.956   7.548   2.378 -2.8360  0.6697  2.0166
  978MOL0     H32025   8.045   7.707   2.341  1.2984  0.5484 -2.4002
  978MOL0     H32026   7.765   7.829   2.629 -1.3130  0.1856  0.2243
  978MOL0     H32027   7.824   7.854   1.737  0.8351 -0.2404  0.5458
  978MOL0     H32028   7.666   7.852   1.465  0.3049 -0.1695 -0.5843
  978MOL0     H32029   7.839   7.871   1.511  1.7015 -0.9097 -0.5131
  978MOL0     H32030   7.791   7.742   1.397  1.2929  0.9193  0.6185
  979MOL0     O32031   6.484   5.132   2.545  0.0307 -1.2979 -0.2383
  979MOL0     C32032   6.532   5.172   2.440 -0.9622  0.3265  0.0655
  979MOL0     O32033   6.581   5.304   2.414  0.3948  0.3541 -0.3101
  979MOL0     C32034   6.568   5.408   2.501  0.9293 -0.6596  0.2912
  979MOL0     C32035   6.580   5.399   2.641  1.0916  0.2698 -0.5601
  979MOL0     C32036   6.573   5.513   2.721 -0.0809 -0.5976 -0.4365
  979MOL0     C32037   6.534   5.642   2.667  0.0021  0.2859  0.7314
  979MOL0     O32038   6.504   5.746   2.751  0.1818 -0.0578  1.1642
  979MOL0     C32039   6.557   5.879   2.714  0.2715  0.7382 -0.0407
  979MOL0     C32040   6.502   5.980   2.819 -0.2053 -0.5411 -0.6595
  979MOL0     C32041   6.514   6.128   2.792  0.5361 -0.0409  0.2057
  979MOL0     C32042   6.469   6.200   2.922 -0.2443  0.6973  0.0579
  979MOL0     C32043   6.494   6.351   2.908  0.5529 -0.2612 -0.2991
  979MOL0     C32044   6.448   6.439   3.030  0.6837  0.4380  0.3061
  979MOL0     C32045   6.484   6.584   3.000  0.8572  0.5592 -0.1917
  979MOL0     C32046   6.482   6.670   3.129  0.4352 -0.5514  0.6993
  979MOL0     N32047   6.497   6.815   3.090 -0.2686  0.4802  0.9389
  979MOL0     C32048   6.398   6.898   3.051 -0.9517 -1.2537  0.5659
  979MOL0     C32049   6.450   7.021   3.028 -0.6581  0.1346  0.5882
  979MOL0     C32050   6.390   7.153   2.984 -1.0444  0.0553 -0.2166
  979MOL0     C32051   6.241   7.141   2.923 -0.5562  0.5433 -0.8821
  979MOL0     C32052   6.201   7.275   2.869  0.0015 -1.0637  0.3544
  979MOL0     C32053   6.179   7.383   2.977 -0.1838 -0.8922 -0.0832
  979MOL0     O32054   6.101   7.347   3.100 -0.3570 -0.3358 -0.1890
  979MOL0     C32055   6.017   7.435   3.166 -0.2644 -0.2053 -0.0816
  979MOL0     C32056   5.939   7.387   3.267  0.3356 -0.0038 -0.5840
  979MOL0     C32057   5.850   7.473   3.338  0.6777  0.2259  0.6940
  979MOL0     C32058   5.849   7.613   3.308  1.0891  0.0026  0.1866
  979MOL0     C32059   5.751   7.697   3.383  0.3112 -0.7255  0.1775
  979MOL0     O32060   5.637   7.639   3.431 -0.4735  0.0434 -0.4620
  979MOL0     C32061   5.532   7.718   3.470  0.0647  0.1174  0.6619
  979MOL0     C32062   5.476   7.828   3.389 -0.6368  1.1492  0.5518
  979MOL0     C32063   5.369   7.900   3.440  0.5691  0.3940  0.1676
  979MOL0     C32064   5.312   7.869   3.563  0.7355  1.1516  0.1414
  979MOL0     O32065   5.203   7.939   3.595 -0.0416  0.2475 -0.1170
  979MOL0     C32066   5.177   7.971   3.735  0.9573 -0.0449 -0.2291
  979MOL0     C32067   5.028   7.965   3.749  0.3053  0.1628 -0.2780
  979MOL0     C32068   4.937   8.039   3.647 -0.1571  0.5451 -1.2811
  979MOL0     C32069   4.787   8.024   3.673  0.0314  0.2951 -0.4933
  979MOL0     C32070   4.715   8.144   3.611 -0.2388 -0.1759 -0.7978
  979MOL0     C32071   4.744   8.157   3.460  0.4819 -0.2848  0.5587
  979MOL0     C32072   4.635   8.253   3.403 -0.2300  0.9552 -0.8252
  979MOL0     C32073   4.606   8.227   3.259 -0.3985  0.7934  0.5261
  979MOL0    Cl32074   4.742   8.224   3.141  0.2222 -0.3044 -0.1738
  979MOL0     C32075   5.364   7.767   3.639  0.1915 -0.0822  0.7343
  979MOL0     C32076   5.472   7.690   3.591 -0.0847  0.9611  0.5754
  979MOL0     O32077   5.780   7.819   3.383  0.4709  0.0740 -0.6300
  979MOL0     C32078   5.918   7.653   3.196 -1.4124 -0.2483  0.0966
  979MOL0     C32079   6.004   7.567   3.132  0.3505 -0.4427  0.7396
  979MOL0     N32080   6.589   7.010   3.042  0.2187 -0.3333 -0.8049
  979MOL0     N32081   6.611   6.886   3.079 -0.7575 -0.1491 -0.1845
  979MOL0     C32082   6.519   5.647   2.528  0.9168 -0.4942 -0.1476
  979MOL0     C32083   6.544   5.535   2.446 -0.2834  0.0006 -1.0270
  979MOL0     C32084   6.564   5.074   2.323  0.9442  0.8184 -0.1627
  979MOL0     C32085   6.573   5.121   2.194 -1.1602 -0.1980 -0.9934
  979MOL0     C32086   6.607   5.038   2.088 -0.2544 -0.9784 -0.4772
  979MOL0     C32087   6.627   4.904   2.110 -0.7957  0.8170 -1.0979
  979MOL0     O32088   6.669   4.829   2.008 -0.5622 -0.5376 -0.2209
  979MOL0     C32089   6.704   4.694   2.036  0.9020  0.0605  0.2583
  979MOL0     C32090   6.775   4.638   1.913 -0.4648  0.6733 -0.7722
  979MOL0     C32091   6.825   4.490   1.946 -0.5882 -0.5969 -0.0014
  979MOL0     C32092   6.869   4.417   1.814  0.0229 -0.9740  0.5482
  979MOL0     C32093   6.757   4.364   1.743  0.4427 -0.0013 -0.8879
  979MOL0     C32094   6.673   4.326   1.660 -0.4203  0.9402 -0.0815
  979MOL0     C32095   6.613   4.846   2.240  0.4393  0.5097  0.1546
  979MOL0     C32096   6.574   4.934   2.351 -0.9118 -0.0215 -0.1164
  979MOL0     C32097   6.550   4.862   2.477 -1.0008 -0.3754  0.4528
  979MOL0     H32098   6.574   5.301   2.686 -2.8105  0.9560  0.8696
  979MOL0     H32099   6.600   5.500   2.825  0.4559 -2.5106 -0.7820
  979MOL0     H32100   6.665   5.891   2.716  0.3205  1.0366 -2.1316
  979MOL0     H32101   6.524   5.906   2.613 -3.4713 -0.5152  0.6609
  979MOL0     H32102   6.563   5.953   2.906 -0.6763  0.3618 -0.0317
  979MOL0     H32103   6.399   5.960   2.851 -0.5286  0.6376 -0.9063
  979MOL0     H32104   6.461   6.165   2.703  0.7560  2.7868  1.1412
  979MOL0     H32105   6.617   6.159   2.775 -0.6838  2.7194 -3.3539
  979MOL0     H32106   6.367   6.167   2.942  0.0380 -1.9160 -2.3144
  979MOL0     H32107   6.538   6.180   3.004  1.1410  2.3538 -0.6339
  979MOL0     H32108   6.600   6.380   2.908 -0.3752  4.4646  3.6981
  979MOL0     H32109   6.438   6.384   2.820  0.4056  0.5674  0.1038
  979MOL0     H32110   6.342   6.421   3.050  0.7523  1.2324  1.4757
  979MOL0     H32111   6.506   6.400   3.114  1.8226 -2.1693 -1.5479
  979MOL0     H32112   6.403   6.614   2.933 -0.3422 -1.6282  0.1696
  979MOL0     H32113   6.586   6.591   2.962  0.1969  0.7308 -2.0154
  979MOL0     H32114   6.382   6.665   3.173  0.0629  1.1662  0.0998
  979MOL0     H32115   6.566   6.635   3.190  0.3903 -3.2175 -0.6061
  979MOL0     H32116   6.299   6.859   3.028 -0.6522 -0.8303 -1.6855
  979MOL0     H32117   6.395   7.196   3.084  0.6675  2.6461 -1.3303
  979MOL0     H32118   6.459   7.204   2.916  0.9224 -1.0957  0.8292
  979MOL0     H32119   6.233   7.073   2.838  1.8953 -1.6856  0.5140
  979MOL0     H32120   6.170   7.108   2.998  0.7602  0.8854  0.5585
  979MOL0     H32121   6.104   7.267   2.818  0.7044  0.4656 -1.3163
  979MOL0     H32122   6.273   7.313   2.797  0.8981 -0.0216  1.7749
  979MOL0     H32123   6.122   7.456   2.920  0.2688 -1.2294 -0.9976
  979MOL0     H32124   6.279   7.421   3.002 -0.6683 -0.3287  1.0568
  979MOL0     H32125   5.927   7.281   3.289  0.9929 -0.1289 -0.8026
  979MOL0     H32126   5.799   7.448   3.431 -1.4085  0.7642 -0.2410
  979MOL0     H32127   5.530   7.857   3.299  0.0630  2.0769  1.2438
  979MOL0     H32128   5.336   7.980   3.375  1.1503  2.6161  2.4424
  979MOL0     H32129   5.229   7.896   3.794  3.2166  1.4927 -0.1427
  979MOL0     H32130   5.212   8.072   3.759 -0.1166  0.5783 -1.1565
  979MOL0     H32131   4.997   7.860   3.742 -0.2624  0.0291  2.6890
  979MOL0     H32132   5.011   8.013   3.846  1.5096 -1.7374  0.9538
  979MOL0     H32133   4.972   8.143   3.652 -2.6574  1.3822  0.6558
  979MOL0     H32134   4.944   8.005   3.544 -0.0158 -0.0646 -1.0757
  979MOL0     H32135   4.769   8.024   3.781 -0.6020 -4.3665 -0.4060
  979MOL0     H32136   4.743   7.939   3.621  0.9197  0.0740 -0.9071
  979MOL0     H32137   4.737   8.236   3.666  2.3103 -0.8618 -0.5491
  979MOL0     H32138   4.608   8.128   3.626  0.0664 -2.0806 -0.4437
  979MOL0     H32139   4.840   8.206   3.442 -1.8327  3.5524 -3.2314
  979MOL0     H32140   4.735   8.055   3.422 -1.8147 -1.0385  2.8409
  979MOL0     H32141   4.666   8.358   3.404  1.5978  0.4701 -1.9471
  979MOL0     H32142   4.540   8.244   3.457  0.7998 -0.4439  0.8395
  979MOL0     H32143   4.567   8.125   3.259  1.8300 -0.1444 -0.8507
  979MOL0     H32144   4.531   8.300   3.227 -1.3966 -1.6322 -3.3261
  979MOL0     H32145   5.318   7.733   3.731  0.2376 -1.1380  0.3737
  979MOL0     H32146   5.508   7.604   3.647  1.3989  2.2207  1.6451
  979MOL0     H32147   5.906   7.760   3.186 -0.7387 -0.1494  0.2816
  979MOL0     H32148   6.074   7.611   3.062 -1.4333  1.6441  0.1689
  979MOL0     H32149   6.481   5.740   2.487  0.9193 -0.8109 -0.8882
  979MOL0     H32150   6.520   5.535   2.340 -2.7181 -2.1892 -0.5761
  979MOL0     H32151   6.550   5.227   2.182 -1.6053 -0.3104 -1.1165
  979MOL0     H32152   6.624   5.086   1.992  1.8398 -0.7021 -0.0148
  979MOL0     H32153   6.614   4.635   2.053 -0.7311  2.9035  2.2858
  979MOL0     H32154   6.773   4.674   2.118 -1.2995 -0.0847  2.1762
  979MOL0     H32155   6.855   4.708   1.888 -2.7008  3.9284  0.5453
  979MOL0     H32156   6.705   4.623   1.831  1.7037 -4.4779 -2.1028
  979MOL0     H32157   6.745   4.436   1.997 -1.1712  0.6111  0.4156
  979MOL0     H32158   6.910   4.492   2.013  0.5434  3.8458 -1.2335
  979MOL0     H32159   6.940   4.468   1.747 -0.2759  0.4176  1.2466
  979MOL0     H32160   6.934   4.334   1.843  1.7582 -0.4075 -1.3952
  979MOL0     H32161   6.615   4.286   1.579  0.6704  1.5000 -1.1556
  979MOL0     H32162   6.622   4.739   2.255  1.3095  0.8124  1.9504
  979MOL0     H32163   6.595   4.911   2.564 -0.3168  1.6508 -0.9583
  979MOL0     H32164   6.443   4.878   2.492 -1.2537 -0.3626 -1.1885
  979MOL0     H32165   6.575   4.756   2.476  1.0189 -0.0287 -3.1200
  980MOL0     O32166  10.392   9.371   4.601 -0.2915  0.1137 -0.3618
  980MOL0     C32167  10.402   9.249   4.605 -0.3008 -0.1616  0.6904
  980MOL0     O32168  10.466   9.171   4.507 -0.4409 -0.4766 -0.2500
  980MOL0     C32169  10.505   9.232   4.390  0.8174  0.2484  0.6480
  980MOL0     C32170  10.431   9.212   4.267  0.0854  0.1945 -1.0317
  980MOL0     C32171  10.477   9.267   4.150 -0.2310  0.0099  0.7415
  980MOL0     C32172  10.603   9.331   4.147  0.5268 -0.2579 -0.4924
  980MOL0     O32173  10.658   9.377   4.028 -0.0794  0.2061  0.3648
  980MOL0     C32174  10.800   9.400   4.026  0.7642  1.0021  0.3497
  980MOL0     C32175  10.834   9.394   3.869  0.3694  0.4136 -0.5086
  980MOL0     C32176  10.846   9.238   3.825  0.2034 -0.1543  0.3836
  980MOL0     C32177  10.861   9.243   3.670  0.1931  0.5370 -0.2753
  980MOL0     C32178  10.994   9.321   3.630 -0.0820 -0.8227 -1.0491
  980MOL0     C32179  10.977   9.382   3.498 -0.1086 -1.1347 -0.2744
  980MOL0     C32180  11.111   9.445   3.463 -0.1843  0.5741  0.0887
  980MOL0     C32181  11.102   9.513   3.325  0.5690  0.3276 -0.2331
  980MOL0     N32182  11.229   9.563   3.262  0.1638 -0.2441 -0.0526
  980MOL0     C32183  11.239   9.660   3.169 -1.0353 -0.6829  0.9678
  980MOL0     C32184  11.367   9.683   3.150 -0.4571 -0.0836 -0.2071
  980MOL0     C32185  11.432   9.777   3.055 -0.4206  0.4241  0.2978
  980MOL0     C32186  11.553   9.710   2.981 -0.4137  0.4295 -0.8408
  980MOL0     C32187  11.633   9.809   2.911  0.2079  0.3683 -0.3780
  980MOL0     C32188  11.752   9.740   2.841 -0.2387 -0.7094 -0.1159
  980MOL0     O32189  11.860   9.709   2.941 -0.4508  0.6465  0.9540
  980MOL0     C32190  11.989   9.701   2.898 -0.3567 -0.6739 -0.9754
  980MOL0     C32191  12.046   9.707   2.764 -0.3076  0.4733  0.3589
  980MOL0     C32192  12.190   9.716   2.734  1.1671  1.2185  0.5919
  980MOL0     C32193  12.275   9.688   2.846 -0.5887 -0.0517  0.0766
  980MOL0     C32194  12.420   9.709   2.824 -0.2793  0.4409  0.1108
  980MOL0     O32195  12.487   9.737   2.940 -0.0201  0.0677 -0.1280
  980MOL0     C32196  12.627   9.729   2.940  0.4714 -0.2003  0.2541
  980MOL0     C32197  12.707   9.833   2.994  0.1202 -0.6812  0.4706
  980MOL0     C32198  12.846   9.816   3.027  0.1271  0.4702  0.0007
  980MOL0     C32199  12.904   9.694   3.008  0.3857  0.5069  0.3954
  980MOL0     O32200  13.040   9.690   3.033  0.3083 -0.0914 -0.1477
  980MOL0     C32201  13.127   9.613   2.946  0.2326 -0.0980 -0.9547
  980MOL0     C32202  13.166   9.473   3.010 -0.0036 -0.8068 -0.0820
  980MOL0     C32203  13.286   9.497   3.105 -0.6590 -0.4019  0.3421
  980MOL0     C32204  13.369   9.365   3.114  0.5480 -0.3180 -0.7277
  980MOL0     C32205  13.485   9.363   3.215  0.7083  0.0287  0.8755
  980MOL0     C32206  13.438   9.363   3.353 -0.0553  0.2685  0.3014
  980MOL0     C32207  13.536   9.381   3.469 -0.2197  0.5501 -0.0976
  980MOL0     C32208  13.679   9.313   3.446 -0.0431 -0.6470  0.2977
  980MOL0    Cl32209  13.667   9.142   3.397 -0.0589  0.3181  0.3133
  980MOL0     C32210  12.834   9.581   2.952  0.1148  0.5410 -0.4064
  980MOL0     C32211  12.692   9.607   2.916  0.3515  0.1272 -1.0392
  980MOL0     O32212  12.467   9.705   2.709  0.0074  0.1404 -0.1623
  980MOL0     C32213  12.216   9.672   2.979 -0.5714 -0.4793  0.0951
  980MOL0     C32214  12.082   9.677   2.998 -0.9381 -0.1142  0.4638
  980MOL0     N32215  11.438   9.610   3.246  0.9233  0.7276  0.0498
  980MOL0     N32216  11.357   9.534   3.307 -0.7112 -0.3002 -0.1674
  980MOL0     C32217  10.663   9.369   4.271 -0.2625  0.0451  0.8121
  980MOL0     C32218  10.608   9.327   4.388 -1.0105 -0.7294 -0.3921
  980MOL0     C32219  10.360   9.175   4.731 -0.4649 -0.6704 -0.0100
  980MOL0     C32220  10.286   9.052   4.722 -0.9458  0.2789  0.0785
  980MOL0     C32221  10.217   9.000   4.832  0.0783  0.2248  0.2413
  980MOL0     C32222  10.213   9.067   4.952 -0.9569  0.0923  0.6017
  980MOL0     O32223  10.119   9.015   5.046  0.3951 -0.5791  1.1921
  980MOL0     C32224  10.109   9.060   5.179  0.2085 -0.2087 -1.6661
  980MOL0     C32225   9.967   9.033   5.238  0.3246  0.2131  0.3862
  980MOL0     C32226   9.941   8.878   5.246  0.3151 -0.3590  0.8925
  980MOL0     C32227   9.791   8.834   5.265 -0.6565  0.9196 -0.2956
  980MOL0     C32228   9.802   8.686   5.269  0.1415  0.2502 -0.2908
  980MOL0     C32229   9.813   8.565   5.275 -1.2481 -0.4415  0.3196
  980MOL0     C32230  10.314   9.165   4.969  0.5882  0.2684  0.2401
  980MOL0     C32231  10.381   9.221   4.863 -0.0426  0.6765  0.3440
  980MOL0     C32232  10.481   9.338   4.895  0.1064  0.7954  0.6764
  980MOL0     H32233  10.337   9.159   4.260 -0.8296  1.3881  1.3240
  980MOL0     H32234  10.426   9.246   4.057 -1.1510  0.8582  1.0375
  980MOL0     H32235  10.819   9.499   4.068  0.7263  1.4751 -0.7113
  980MOL0     H32236  10.861   9.332   4.086  1.8447  0.5321 -1.2221
  980MOL0     H32237  10.932   9.441   3.861  0.6766 -0.3262 -1.1644
  980MOL0     H32238  10.763   9.452   3.808 -0.7724 -1.1463 -0.7216
  980MOL0     H32239  10.759   9.173   3.839  2.0377 -2.8721 -0.0595
  980MOL0     H32240  10.936   9.191   3.867 -0.6195 -1.3990  0.8002
  980MOL0     H32241  10.860   9.137   3.642  1.3222 -0.1325  2.0206
  980MOL0     H32242  10.769   9.285   3.628 -1.2276  1.2879  3.2122
  980MOL0     H32243  11.031   9.394   3.703  1.3595 -1.7118 -0.8480
  980MOL0     H32244  11.065   9.239   3.640 -0.8570 -1.2614  1.3144
  980MOL0     H32245  10.947   9.318   3.415  0.9461 -2.9797  0.7248
  980MOL0     H32246  10.908   9.468   3.500  2.1160  1.0815 -4.2195
  980MOL0     H32247  11.195   9.374   3.465 -0.6912 -0.0406  1.3395
  980MOL0     H32248  11.143   9.522   3.534  1.3410  1.2414 -1.2578
  980MOL0     H32249  11.055   9.456   3.245 -0.0762 -1.1104  1.1093
  980MOL0     H32250  11.042   9.604   3.334  2.5752  2.7834 -6.4238
  980MOL0     H32251  11.149   9.688   3.114 -1.6883 -2.9478  0.7706
  980MOL0     H32252  11.360   9.819   2.984 -0.5808  0.9068  0.7377
  980MOL0     H32253  11.471   9.861   3.113  3.7599  0.1498 -1.7655
  980MOL0     H32254  11.610   9.655   3.056  1.1985 -0.9658 -2.9615
  980MOL0     H32255  11.511   9.635   2.913  1.1472 -0.0587 -1.3085
  980MOL0     H32256  11.662   9.897   2.969 -2.0397  0.7233  0.2941
  980MOL0     H32257  11.566   9.841   2.830  0.5557  1.9250 -0.0780
  980MOL0     H32258  11.786   9.820   2.775  0.8813 -0.2834  0.9378
  980MOL0     H32259  11.716   9.649   2.792 -1.6657 -0.5494  0.5818
  980MOL0     H32260  11.978   9.721   2.680 -0.3412 -0.9808  0.1195
  980MOL0     H32261  12.235   9.749   2.642  0.0983 -0.1690 -0.4780
  980MOL0     H32262  12.659   9.928   3.016  0.0135 -0.0265 -2.2815
  980MOL0     H32263  12.916   9.891   3.061  0.5778  0.9790 -1.9115
  980MOL0     H32264  13.084   9.593   2.847 -1.5917  0.7614 -0.3848
  980MOL0     H32265  13.212   9.675   2.916 -0.9644 -0.2496 -5.4057
  980MOL0     H32266  13.079   9.426   3.059  1.1468 -3.5915 -0.4859
  980MOL0     H32267  13.198   9.412   2.925 -0.4133  0.5049 -1.2203
  980MOL0     H32268  13.355   9.574   3.071 -1.0881  0.2389  0.8925
  980MOL0     H32269  13.250   9.543   3.198 -0.8756  2.7502 -1.1791
  980MOL0     H32270  13.414   9.334   3.019  0.2639 -2.2139 -0.2986
  980MOL0     H32271  13.302   9.282   3.138  0.6655 -0.0697  0.5158
  980MOL0     H32272  13.543   9.456   3.209 -0.7298  1.1781  3.5499
  980MOL0     H32273  13.545   9.272   3.207 -4.1179 -3.3873 -2.4758
  980MOL0     H32274  13.376   9.453   3.361 -1.4814 -0.6905  0.1687
  980MOL0     H32275  13.387   9.268   3.364  0.9265 -0.0403  2.7902
  980MOL0     H32276  13.496   9.342   3.563  0.6128  0.5379  0.2603
  980MOL0     H32277  13.542   9.490   3.474 -2.0828  0.6092  1.6393
  980MOL0     H32278  13.724   9.373   3.366 -1.4369 -0.3384 -0.3003
  980MOL0     H32279  13.741   9.331   3.534 -1.5539 -1.7262  1.6347
  980MOL0     H32280  12.881   9.484   2.942 -0.5061 -0.2615  3.0874
  980MOL0     H32281  12.619   9.526   2.908  0.1060  0.2307  0.0014
  980MOL0     H32282  12.286   9.662   3.062 -0.9999  3.4423  1.1440
  980MOL0     H32283  12.037   9.679   3.097 -2.3539  1.0761 -0.1507
  980MOL0     H32284  10.748   9.436   4.278  0.3573 -0.6172 -0.1030
  980MOL0     H32285  10.654   9.349   4.484 -1.3966  2.2256 -0.7849
  980MOL0     H32286  10.287   9.003   4.625  1.6661 -0.9722  0.6497
  980MOL0     H32287  10.151   8.915   4.818 -0.1834  0.1695  1.7108
  980MOL0     H32288  10.130   9.167   5.192  0.5603 -0.4049 -0.5328
  980MOL0     H32289  10.182   9.001   5.235 -1.0008 -0.2527 -0.0915
  980MOL0     H32290   9.906   9.080   5.160 -0.2658  0.2663  0.8692
  980MOL0     H32291   9.957   9.077   5.337  0.6039  0.5677  0.2571
  980MOL0     H32292  10.007   8.837   5.324  2.5457  0.3041 -0.5391
  980MOL0     H32293   9.991   8.822   5.166 -1.0222 -0.4247  0.0792
  980MOL0     H32294   9.753   8.874   5.360  1.4464  2.3583  0.0072
  980MOL0     H32295   9.731   8.867   5.179  1.4334  0.4126 -2.0291
  980MOL0     H32296   9.801   8.459   5.277 -1.1037 -0.4516  1.4809
  980MOL0     H32297  10.329   9.195   5.072 -1.2524  1.4407  0.2302
  980MOL0     H32298  10.429   9.400   4.968  1.4717  2.9704 -0.0832
  980MOL0     H32299  10.561   9.282   4.945 -0.8384 -1.7850 -0.5520
  980MOL0     H32300  10.515   9.394   4.807 -2.1912  1.0072 -0.1539
  981MOL0     O32301   7.533  11.122  10.062 -0.3573 -1.0069  0.4877
  981MOL0     C32302   7.467  11.147   9.964 -0.2009 -0.3494  0.6994
  981MOL0     O32303   7.450  11.058   9.855  0.7892  0.3412 -0.3925
  981MOL0     C32304   7.553  10.968   9.833  1.0433 -0.9912 -0.5514
  981MOL0     C32305   7.519  10.839   9.792  0.3344  0.1026  0.4231
  981MOL0     C32306   7.614  10.745   9.746 -0.2300 -1.1483  0.0926
  981MOL0     C32307   7.750  10.777   9.735 -0.4374 -0.3745 -0.6993
  981MOL0     O32308   7.856  10.702   9.692  0.3461  0.5425  0.1567
  981MOL0     C32309   7.962  10.745   9.612  1.2811 -0.3132 -0.1702
  981MOL0     C32310   8.040  10.625   9.553  0.3903 -0.1043 -0.3629
  981MOL0     C32311   8.168  10.659   9.492 -0.8751 -0.2732 -0.7872
  981MOL0     C32312   8.253  10.535   9.460 -0.0827  1.0140  0.0141
  981MOL0     C32313   8.374  10.570   9.373  0.3071 -0.3420 -0.0847
  981MOL0     C32314   8.483  10.450   9.370  0.6986 -0.3547  0.6206
  981MOL0     C32315   8.448  10.327   9.285 -0.3921  0.5167 -0.4856
  981MOL0     C32316   8.563  10.218   9.280  0.0259 -0.9282 -0.1139
  981MOL0     N32317   8.495  10.104   9.218 -0.2267 -0.5429  0.5627
  981MOL0     C32318   8.430  10.093   9.097 -0.6208  0.1784 -0.4420
  981MOL0     C32319   8.377   9.973   9.090  0.1415  0.2803 -0.0854
  981MOL0     C32320   8.325   9.890   8.981 -0.5312 -0.3246  0.6357
  981MOL0     C32321   8.223   9.981   8.911 -0.9125 -0.6421 -0.0509
  981MOL0     C32322   8.150   9.911   8.809 -1.0596 -0.5174 -0.4217
  981MOL0     C32323   8.029   9.830   8.877 -1.0434 -0.0136 -0.2579
  981MOL0     O32324   7.934   9.810   8.769  0.1977  0.2989  0.2796
  981MOL0     C32325   7.816   9.743   8.802 -0.9092 -0.5172 -0.2410
  981MOL0     C32326   7.793   9.703   8.932  0.8061  0.4452  0.3676
  981MOL0     C32327   7.661   9.656   8.971 -0.3085 -0.3410 -0.5856
  981MOL0     C32328   7.560   9.625   8.875 -1.4645 -0.3992  0.3096
  981MOL0     C32329   7.426   9.585   8.909  0.1852  0.4568 -0.3835
  981MOL0     O32330   7.347   9.533   8.810  0.2669  0.0014  0.2758
  981MOL0     C32331   7.234   9.479   8.834  0.8845  0.6317 -0.1066
  981MOL0     C32332   7.233   9.337   8.837  0.4585  0.6829  0.5385
  981MOL0     C32333   7.113   9.271   8.859  0.0450 -0.1375 -0.5814
  981MOL0     C32334   6.996   9.351   8.880 -0.3846  0.3970  0.4311
  981MOL0     O32335   6.869   9.301   8.891  0.2336 -0.0928 -0.2135
  981MOL0     C32336   6.850   9.159   8.898  0.4373  0.7299  0.4096
  981MOL0     C32337   6.701   9.119   8.923 -0.0594 -0.5306  0.9028
  981MOL0     C32338   6.686   8.972   8.968  1.0123 -0.3758 -0.0336
  981MOL0     C32339   6.544   8.939   9.018 -0.6597 -1.2396 -0.3144
  981MOL0     C32340   6.553   8.795   9.069  0.1900 -0.4223 -0.9986
  981MOL0     C32341   6.424   8.751   9.135 -0.0668  0.9407  0.0227
  981MOL0     C32342   6.366   8.835   9.255 -0.3442 -0.1430  0.8421
  981MOL0     C32343   6.247   8.769   9.321  0.2506  0.0507  0.1599
  981MOL0    Cl32344   6.197   8.891   9.446 -0.0592  0.1817 -0.3911
  981MOL0     C32345   6.992   9.494   8.863 -0.9686  0.1400 -0.5233
  981MOL0     C32346   7.112   9.557   8.841 -0.3018  1.1304  1.3755
  981MOL0     O32347   7.394   9.594   9.030  0.0026  0.0493  0.2811
  981MOL0     C32348   7.586   9.665   8.742 -0.2912  0.6622  0.1326
  981MOL0     C32349   7.717   9.721   8.703  0.8125 -0.0179  0.9659
  981MOL0     N32350   8.402   9.915   9.216 -0.0623  0.1224  0.8786
  981MOL0     N32351   8.460   9.999   9.286 -0.7326  0.1825  0.1476
  981MOL0     C32352   7.789  10.904   9.786 -0.3372  0.0351  0.8495
  981MOL0     C32353   7.694  11.002   9.829  0.4130 -0.1493 -0.2232
  981MOL0     C32354   7.421  11.287   9.954  0.2497 -0.6619 -0.7706
  981MOL0     C32355   7.400  11.336   9.819  0.7536  0.5112 -0.2194
  981MOL0     C32356   7.366  11.473   9.803  0.9547 -0.3391  0.8040
  981MOL0     C32357   7.335  11.560   9.910 -0.3678 -0.1559 -1.0509
  981MOL0     O32358   7.287  11.688   9.874  0.1590  0.0014  0.2203
  981MOL0     C32359   7.233  11.765   9.973 -0.4204  0.8438  0.4392
  981MOL0     C32360   7.096  11.709  10.021 -0.5251 -0.3115  0.4480
  981MOL0     C32361   7.011  11.806  10.110  0.7678 -0.0345 -0.4081
  981MOL0     C32362   7.057  11.813  10.249  0.8168  0.2055  0.2087
  981MOL0     C32363   6.953  11.871  10.329  0.9341  0.9622 -0.1815
  981MOL0     C32364   6.871  11.930  10.398  0.1375  0.3767  0.8437
  981MOL0     C32365   7.357  11.507  10.042  0.1822 -0.3577  0.6110
  981MOL0     C32366   7.404  11.378  10.065 -0.5948 -0.1948 -0.3342
  981MOL0     C32367   7.414  11.338  10.218 -0.2175 -0.3570  1.1417
  981MOL0     H32368   7.419  10.800   9.807 -0.0062  0.9847  0.5143
  981MOL0     H32369   7.574  10.646   9.724  0.9760 -1.3504 -1.4099
  981MOL0     H32370   7.932  10.818   9.537  1.7043  1.6126  1.4407
  981MOL0     H32371   8.028  10.804   9.677  1.2213  2.5781 -2.5227
  981MOL0     H32372   7.994  10.571   9.469  1.9701 -0.5479 -0.9773
  981MOL0     H32373   8.046  10.550   9.633  0.4041 -0.9246 -1.1151
  981MOL0     H32374   8.225  10.730   9.553 -0.7513  1.5909 -2.9800
  981MOL0     H32375   8.142  10.715   9.402  0.0564  4.1022  1.3982
  981MOL0     H32376   8.278  10.475   9.548  1.6373 -0.3937 -1.3728
  981MOL0     H32377   8.191  10.471   9.398  2.7335 -1.5600 -0.3927
  981MOL0     H32378   8.337  10.588   9.272 -1.4798 -0.0539  0.5881
  981MOL0     H32379   8.416  10.663   9.414 -1.8134  0.0345  1.4172
  981MOL0     H32380   8.575  10.481   9.319  1.2784 -2.0734  0.5402
  981MOL0     H32381   8.513  10.424   9.472 -0.1916 -2.3283  0.4401
  981MOL0     H32382   8.421  10.367   9.187 -1.6284  2.7002  0.6675
  981MOL0     H32383   8.357  10.284   9.329 -0.6072  0.1084 -1.3082
  981MOL0     H32384   8.648  10.257   9.222 -0.7132 -0.8300 -1.1476
  981MOL0     H32385   8.596  10.183   9.379 -2.0668 -1.0122  0.5957
  981MOL0     H32386   8.430  10.172   9.023  1.9613  0.9303  0.2512
  981MOL0     H32387   8.402   9.863   8.907 -2.3948 -1.8632 -0.8393
  981MOL0     H32388   8.278   9.805   9.030  0.2626 -0.6523  0.8343
  981MOL0     H32389   8.165  10.048   8.975  0.6872  1.3270 -0.5628
  981MOL0     H32390   8.276  10.052   8.847 -1.7611 -1.0879 -1.2778
  981MOL0     H32391   8.214   9.848   8.747 -0.0343 -0.4836  0.5675
  981MOL0     H32392   8.100   9.985   8.746 -0.7225  0.2087  0.1365
  981MOL0     H32393   7.975   9.885   8.955 -1.2673  1.7947 -1.6227
  981MOL0     H32394   8.064   9.733   8.912 -3.5898 -2.2991 -3.4531
  981MOL0     H32395   7.872   9.717   9.005  0.4013 -0.0039  0.8985
  981MOL0     H32396   7.634   9.651   9.076 -0.7488 -0.7595 -0.7184
  981MOL0     H32397   7.322   9.280   8.812 -2.3724 -3.5846 -1.1259
  981MOL0     H32398   7.103   9.163   8.858 -1.3121 -0.0346  0.1408
  981MOL0     H32399   6.888   9.105   8.812  0.7178 -0.5814  1.3301
  981MOL0     H32400   6.911   9.121   8.981  1.9930  0.8549 -0.6431
  981MOL0     H32401   6.670   9.188   9.002 -0.8410  2.3523 -1.7380
  981MOL0     H32402   6.650   9.146   8.830  0.8534 -0.8204  0.3046
  981MOL0     H32403   6.701   8.895   8.891 -0.2337 -0.0902 -0.5903
  981MOL0     H32404   6.763   8.952   9.043  2.0752  1.3672 -0.6046
  981MOL0     H32405   6.456   8.953   8.954  0.5023 -2.1644 -2.2026
  981MOL0     H32406   6.510   9.006   9.098  0.3899  2.4231 -2.6989
  981MOL0     H32407   6.637   8.784   9.139 -0.1952 -0.6757 -0.5722
  981MOL0     H32408   6.570   8.721   8.990  1.3654 -1.0986 -0.1510
  981MOL0     H32409   6.350   8.755   9.054 -0.1264  2.2305  0.1118
  981MOL0     H32410   6.432   8.645   9.161 -0.3739 -0.1214 -3.6651
  981MOL0     H32411   6.326   8.928   9.213  3.8422  0.5036 -2.3907
  981MOL0     H32412   6.441   8.866   9.328  0.1255  1.2573 -0.1880
  981MOL0     H32413   6.173   8.762   9.241  0.2305 -3.3633  0.3311
  981MOL0     H32414   6.268   8.675   9.373 -1.0835  0.7154  2.0124
  981MOL0     H32415   6.896   9.543   8.876 -1.0285  0.0013 -0.4381
  981MOL0     H32416   7.124   9.665   8.838  0.9842  0.9856 -0.1671
  981MOL0     H32417   7.506   9.678   8.670 -1.5915  5.4910  2.0242
  981MOL0     H32418   7.733   9.761   8.603 -0.0489  0.1634  0.8943
  981MOL0     H32419   7.891  10.938   9.804 -1.1028  1.4026  3.0027
  981MOL0     H32420   7.727  11.099   9.864  2.1278 -0.9223  0.4558
  981MOL0     H32421   7.401  11.272   9.731 -0.1745 -2.9383  2.0919
  981MOL0     H32422   7.350  11.500   9.699 -2.1210 -0.7738  1.0732
  981MOL0     H32423   7.196  11.864   9.944  2.7438  2.1313  0.3733
  981MOL0     H32424   7.305  11.784  10.053 -1.2584  0.3951  1.3227
  981MOL0     H32425   7.117  11.613  10.068 -1.2853 -0.7200 -0.0463
  981MOL0     H32426   7.032  11.695   9.934 -0.6486  1.9834  0.1077
  981MOL0     H32427   6.910  11.763  10.104  0.4746  0.6070 -0.1743
  981MOL0     H32428   7.006  11.911  10.082  0.1834  0.4961  1.5518
  981MOL0     H32429   7.075  11.713  10.288 -1.1316 -0.3623 -0.2716
  981MOL0     H32430   7.140  11.884  10.258 -1.3329  2.6309  2.1226
  981MOL0     H32431   6.799  11.978  10.461  0.6638 -0.3585  2.0547
  981MOL0     H32432   7.349  11.576  10.125  0.9009  2.7708 -1.7486
  981MOL0     H32433   7.516  11.303  10.236  0.4058  0.1385 -1.1462
  981MOL0     H32434   7.402  11.429  10.278 -2.6327  0.0553  0.1499
  981MOL0     H32435   7.342  11.261  10.248  1.1186 -3.3373 -2.4116
  982MOL0     O32436   6.323   5.429   3.536  0.0804  0.0659 -0.9074
  982MOL0     C32437   6.329   5.470   3.655 -0.1683  0.4630 -0.0122
  982MOL0     O32438   6.330   5.396   3.765 -0.2954  0.3611  0.6104
  982MOL0     C32439   6.286   5.263   3.762 -0.0704 -0.5658  0.7110
  982MOL0     C32440   6.350   5.159   3.834  0.0308  0.2656  0.1349
  982MOL0     C32441   6.281   5.042   3.854  0.2497 -0.1295 -0.3937
  982MOL0     C32442   6.154   5.019   3.798  0.1382  0.8784 -0.1237
  982MOL0     O32443   6.082   4.903   3.824 -0.5305 -0.0461 -0.2911
  982MOL0     C32444   6.159   4.782   3.812 -0.1322  0.0683 -0.7833
  982MOL0     C32445   6.084   4.670   3.891  0.7473  0.5444  0.2581
  982MOL0     C32446   5.956   4.602   3.834 -1.1602  1.4895  0.2674
  982MOL0     C32447   5.898   4.511   3.940 -0.2940  0.4321 -0.2868
  982MOL0     C32448   5.811   4.395   3.880  0.0833 -0.4881  0.5297
  982MOL0     C32449   5.752   4.294   3.994 -0.7529 -0.5799  0.9645
  982MOL0     C32450   5.679   4.186   3.918 -0.3922  0.2395  0.0261
  982MOL0     C32451   5.528   4.170   3.960 -0.8124 -0.7193 -0.3255
  982MOL0     N32452   5.512   4.103   4.090 -0.3912  0.8684 -0.2997
  982MOL0     C32453   5.564   3.978   4.111  0.2727 -0.2878 -0.1719
  982MOL0     C32454   5.524   3.934   4.236 -0.6967 -0.1803 -0.7790
  982MOL0     C32455   5.549   3.790   4.286  0.4141 -0.0481  0.0110
  982MOL0     C32456   5.461   3.686   4.213  0.2757  0.6632  1.2903
  982MOL0     C32457   5.317   3.689   4.263 -0.5743 -0.5426  0.5423
  982MOL0     C32458   5.222   3.589   4.190  0.1183 -0.2870 -0.2601
  982MOL0     O32459   5.194   3.618   4.054 -0.7947  0.9870  0.2875
  982MOL0     C32460   5.102   3.707   4.013  0.5285  0.7108  0.2124
  982MOL0     C32461   5.008   3.764   4.097  0.6567  0.2408  0.8218
  982MOL0     C32462   4.923   3.864   4.049  0.2099  0.1865  0.6811
  982MOL0     C32463   4.928   3.903   3.918  0.4295 -0.5377  0.2011
  982MOL0     C32464   4.850   4.016   3.861 -0.3300  0.6822 -0.2551
  982MOL0     O32465   4.755   4.065   3.954  0.2358 -0.4092  0.0145
  982MOL0     C32466   4.672   4.160   3.900 -0.0821 -0.5778 -0.4831
  982MOL0     C32467   4.656   4.287   3.964  0.8190 -0.3141  0.2473
  982MOL0     C32468   4.563   4.384   3.912 -0.8433 -0.0262 -0.5917
  982MOL0     C32469   4.489   4.356   3.798 -0.1435 -0.7489 -0.5417
  982MOL0     O32470   4.396   4.442   3.746  0.1199  0.3843  0.5352
  982MOL0     C32471   4.380   4.569   3.803  0.0444  1.1779 -0.4017
  982MOL0     C32472   4.293   4.659   3.714 -0.2046  0.4460 -0.7989
  982MOL0     C32473   4.289   4.799   3.769 -0.3995  0.5829  0.0369
  982MOL0     C32474   4.212   4.894   3.680 -0.4826  0.5058 -0.0570
  982MOL0     C32475   4.184   5.034   3.732  0.2353 -0.0993  0.3888
  982MOL0     C32476   4.290   5.099   3.814 -0.1303  0.2564  0.0570
  982MOL0     C32477   4.301   5.042   3.954  0.0043 -0.5989  0.3441
  982MOL0     C32478   4.342   5.147   4.055  0.6219 -0.1560 -1.2022
  982MOL0    Cl32479   4.192   5.242   4.099 -0.3763 -0.5675  0.2056
  982MOL0     C32480   4.514   4.232   3.737  0.4327  0.0537  0.7103
  982MOL0     C32481   4.595   4.128   3.790 -0.8274 -0.3959 -0.3148
  982MOL0     O32482   4.864   4.050   3.735  0.1352  0.1410  0.3062
  982MOL0     C32483   5.001   3.829   3.828 -0.0864 -1.3549 -0.2275
  982MOL0     C32484   5.089   3.735   3.878 -0.3206  0.1819 -0.4245
  982MOL0     N32485   5.447   4.033   4.292 -0.3637  1.0338  0.3402
  982MOL0     N32486   5.439   4.134   4.204  0.9945  1.4799  0.4767
  982MOL0     C32487   6.099   5.116   3.714  0.9798  0.2466  0.0710
  982MOL0     C32488   6.157   5.243   3.707 -0.1346 -0.2557  0.5868
  982MOL0     C32489   6.315   5.613   3.691  0.6706 -0.0425 -0.2486
  982MOL0     C32490   6.192   5.672   3.647 -0.9942  0.1882  0.7489
  982MOL0     C32491   6.169   5.796   3.694  0.9157  0.5494 -0.5813
  982MOL0     C32492   6.270   5.870   3.766  0.8760 -0.0924 -0.4381
  982MOL0     O32493   6.229   6.004   3.799 -1.0433  0.0057  0.3316
  982MOL0     C32494   6.313   6.073   3.894 -0.3469 -0.6843  0.3032
  982MOL0     C32495   6.299   6.021   4.042  0.3029  0.5051  0.2682
  982MOL0     C32496   6.143   5.994   4.066 -0.9014  1.3358 -0.4254
  982MOL0     C32497   6.109   6.016   4.216  0.3776 -0.0032  0.7639
  982MOL0     C32498   5.969   6.006   4.244  0.6631  0.8692 -0.4624
  982MOL0     C32499   5.847   6.008   4.273 -1.0459  0.5498 -0.4881
  982MOL0     C32500   6.383   5.810   3.813  0.1486 -0.3409 -0.3040
  982MOL0     C32501   6.408   5.680   3.770 -0.1539 -0.2444 -0.0854
  982MOL0     C32502   6.519   5.611   3.843 -0.2466  0.0002  0.1807
  982MOL0     H32503   6.446   5.190   3.875  0.9848 -3.1072  0.7065
  982MOL0     H32504   6.338   4.984   3.926  2.7705  2.0249 -0.4756
  982MOL0     H32505   6.162   4.746   3.708  1.1468  2.9051 -1.8490
  982MOL0     H32506   6.265   4.787   3.841 -0.0621 -1.8109 -0.6078
  982MOL0     H32507   6.055   4.710   3.989  2.0538 -1.5468  1.5837
  982MOL0     H32508   6.149   4.587   3.920  2.4409  1.5646 -0.4993
  982MOL0     H32509   5.987   4.555   3.740 -0.3224  2.5707 -0.0235
  982MOL0     H32510   5.881   4.679   3.814 -0.8016  2.5676  2.7107
  982MOL0     H32511   5.987   4.473   3.990 -0.8063 -3.1012 -1.7189
  982MOL0     H32512   5.836   4.568   4.009 -2.1571 -3.5176  1.6467
  982MOL0     H32513   5.730   4.439   3.821  0.6883  1.7892  1.3035
  982MOL0     H32514   5.872   4.344   3.805  1.7358 -0.2729  1.6608
  982MOL0     H32515   5.825   4.261   4.068 -0.7006 -0.1245  1.1152
  982MOL0     H32516   5.683   4.362   4.044  0.7122  1.0777  0.8443
  982MOL0     H32517   5.727   4.089   3.935 -4.5496 -2.1878 -0.5313
  982MOL0     H32518   5.682   4.216   3.813 -0.1834  3.2661  0.7966
  982MOL0     H32519   5.486   4.267   3.987  2.0386  0.5529 -0.1172
  982MOL0     H32520   5.473   4.126   3.877  0.4020 -1.8438 -0.5765
  982MOL0     H32521   5.618   3.917   4.040  0.7538  1.6801 -1.5682
  982MOL0     H32522   5.651   3.771   4.250  0.0016  1.1260 -1.8589
  982MOL0     H32523   5.553   3.788   4.396  1.2230 -3.7050  0.0576
  982MOL0     H32524   5.459   3.716   4.107  0.7146 -1.7386  0.5516
  982MOL0     H32525   5.496   3.583   4.214  0.0987  0.5286 -0.8898
  982MOL0     H32526   5.275   3.790   4.254  2.0815  0.5344 -0.7249
  982MOL0     H32527   5.309   3.658   4.367 -3.3974 -3.4738 -0.3684
  982MOL0     H32528   5.127   3.579   4.244  0.9996  1.0056  1.6351
  982MOL0     H32529   5.257   3.485   4.196 -2.5480 -1.2438  0.5032
  982MOL0     H32530   5.007   3.751   4.205 -0.6128  0.8919  0.9068
  982MOL0     H32531   4.849   3.912   4.113  0.1489 -0.3098  0.9863
  982MOL0     H32532   4.698   4.316   4.059 -0.0892  0.0886  0.5345
  982MOL0     H32533   4.547   4.471   3.976 -0.4150 -1.9992  2.3558
  982MOL0     H32534   4.320   4.546   3.891  1.2314 -3.0557 -0.4334
  982MOL0     H32535   4.480   4.611   3.819  2.6587 -3.0666 -3.1816
  982MOL0     H32536   4.309   4.651   3.606  1.5818 -1.7558 -0.4299
  982MOL0     H32537   4.196   4.611   3.730  1.2754 -1.8266  2.2155
  982MOL0     H32538   4.240   4.789   3.867 -1.1212 -2.0441 -0.4928
  982MOL0     H32539   4.391   4.834   3.784 -0.0773 -0.0714 -0.5507
  982MOL0     H32540   4.113   4.858   3.652 -0.8242  2.4854 -1.6143
  982MOL0     H32541   4.275   4.901   3.591  1.9851 -0.1182  1.5484
  982MOL0     H32542   4.089   5.040   3.786 -0.5386  0.9100 -1.0257
  982MOL0     H32543   4.178   5.096   3.642 -2.4246  0.7939  1.0998
  982MOL0     H32544   4.384   5.089   3.759 -0.7638 -0.1413 -0.9769
  982MOL0     H32545   4.265   5.205   3.822 -4.8522 -0.7064  1.3301
  982MOL0     H32546   4.379   4.965   3.957 -1.2129 -1.8331  2.6740
  982MOL0     H32547   4.208   4.993   3.983  0.6901 -1.7380  0.6717
  982MOL0     H32548   4.362   5.108   4.155 -0.4259  0.6146 -0.6864
  982MOL0     H32549   4.430   5.202   4.020  0.6646 -0.5633 -1.7630
  982MOL0     H32550   4.455   4.204   3.650 -0.3236 -0.5284  1.3932
  982MOL0     H32551   4.614   4.035   3.736  0.7064 -0.2617 -0.0364
  982MOL0     H32552   5.005   3.857   3.723 -1.3227  1.3393  0.3704
  982MOL0     H32553   5.149   3.675   3.809  3.4873 -0.4051  3.0120
  982MOL0     H32554   6.003   5.098   3.668  1.9922  0.4470 -2.2706
  982MOL0     H32555   6.122   5.322   3.642 -2.5146 -0.6686  1.2499
  982MOL0     H32556   6.131   5.608   3.585  1.6409 -0.3429 -1.5249
  982MOL0     H32557   6.080   5.840   3.650  0.4422  0.6610  0.4686
  982MOL0     H32558   6.278   6.176   3.892  1.9351  0.1393 -1.3792
  982MOL0     H32559   6.420   6.076   3.872 -0.3504 -0.8056  0.2695
  982MOL0     H32560   6.334   6.095   4.115  0.2760  1.4349 -0.6349
  982MOL0     H32561   6.359   5.931   4.057 -1.7664 -0.9762  0.1110
  982MOL0     H32562   6.121   5.893   4.033 -2.4723  1.5682 -0.1423
  982MOL0     H32563   6.081   6.060   4.005 -3.3026  1.0616  1.5914
  982MOL0     H32564   6.158   5.945   4.283  1.1626 -0.2398 -0.0419
  982MOL0     H32565   6.154   6.110   4.251 -0.3830  0.6486  0.0419
  982MOL0     H32566   5.743   6.006   4.302 -0.3414 -1.0624  2.2032
  982MOL0     H32567   6.448   5.858   3.886 -0.3083 -0.5161  0.2204
  982MOL0     H32568   6.479   5.558   3.931 -4.6557  0.5163 -1.2532
  982MOL0     H32569   6.556   5.535   3.774 -1.3908 -0.5436  0.1400
  982MOL0     H32570   6.603   5.678   3.862 -0.0613  1.1398 -3.8619
  983MOL0     O32571   9.097  10.220   3.119 -0.8817 -0.0020 -0.0911
  983MOL0     C32572   9.217  10.243   3.096  0.2451 -0.2138  1.1742
  983MOL0     O32573   9.297  10.307   3.172 -0.6180 -0.2419 -0.5048
  983MOL0     C32574   9.258  10.373   3.281  0.0642 -0.6288  0.4439
  983MOL0     C32575   9.201  10.310   3.397 -0.1010  0.3242  0.0064
  983MOL0     C32576   9.174  10.390   3.512 -0.5254 -0.3337 -0.6734
  983MOL0     C32577   9.202  10.530   3.518  0.4011 -0.8021  0.1453
  983MOL0     O32578   9.171  10.595   3.636 -0.2707 -0.3905  0.0364
  983MOL0     C32579   9.222  10.728   3.643  0.6973  0.1414  0.3391
  983MOL0     C32580   9.199  10.778   3.788  1.0541  0.3677  0.7333
  983MOL0     C32581   9.230  10.676   3.902  0.3515  0.0496 -0.0987
  983MOL0     C32582   9.343  10.583   3.874 -0.3625  0.5639 -0.5953
  983MOL0     C32583   9.409  10.545   4.009 -0.6365 -0.0462 -0.4842
  983MOL0     C32584   9.551  10.474   4.021  0.0540  0.9048  0.4803
  983MOL0     C32585   9.560  10.345   3.941  0.0491 -0.2817 -0.2658
  983MOL0     C32586   9.702  10.287   3.957 -0.1100  0.6275  0.4832
  983MOL0     N32587   9.714  10.250   4.101  0.0928  0.7698 -0.4250
  983MOL0     C32588   9.796  10.315   4.190  0.2988 -0.3638 -0.0023
  983MOL0     C32589   9.808  10.243   4.297 -0.7397 -0.2740 -0.6594
  983MOL0     C32590   9.908  10.282   4.409  0.2342 -0.4427 -1.2675
  983MOL0     C32591  10.032  10.191   4.429  0.1716 -0.0011  0.1648
  983MOL0     C32592  10.128  10.191   4.314 -0.8355  0.0565  0.2881
  983MOL0     C32593  10.260  10.111   4.337  0.6681 -1.1157 -0.2086
  983MOL0     O32594  10.346  10.181   4.432 -0.4864  0.1001  0.3574
  983MOL0     C32595  10.483  10.187   4.425 -0.1224 -0.3102  0.3395
  983MOL0     C32596  10.560  10.147   4.313 -0.1544 -0.1105  1.0400
  983MOL0     C32597  10.699  10.179   4.312  0.3054  0.1928 -0.0932
  983MOL0     C32598  10.759  10.257   4.413 -0.1355  0.0124  0.3529
  983MOL0     C32599  10.903  10.285   4.389 -0.5960  0.7293  0.5124
  983MOL0     O32600  10.973  10.333   4.496  0.3109 -0.0702 -0.3704
  983MOL0     C32601  11.107  10.372   4.487  0.3415 -0.4788 -0.6686
  983MOL0     C32602  11.167  10.412   4.368 -0.3304  0.1637 -0.0434
  983MOL0     C32603  11.307  10.444   4.369 -0.9160 -0.1028 -0.4327
  983MOL0     C32604  11.380  10.443   4.488  1.9349 -0.3298 -0.3432
  983MOL0     O32605  11.515  10.483   4.489  0.9175  0.7742  0.6663
  983MOL0     C32606  11.593  10.464   4.611  0.1418 -0.8271 -0.0356
  983MOL0     C32607  11.742  10.516   4.592 -0.0213  0.7323 -0.0641
  983MOL0     C32608  11.806  10.442   4.479 -0.6214  0.5948  0.3185
  983MOL0     C32609  11.947  10.487   4.438  1.1063  0.5749  0.3754
  983MOL0     C32610  11.928  10.626   4.374  0.4952  0.3267 -0.2128
  983MOL0     C32611  12.049  10.662   4.287  0.1883 -0.2605  1.0625
  983MOL0     C32612  12.181  10.696   4.363  0.8021 -0.2146  0.0895
  983MOL0     C32613  12.171  10.773   4.496  0.1521  0.3429  0.3571
  983MOL0    Cl32614  12.335  10.789   4.559  0.3272 -0.0584  0.3160
  983MOL0     C32615  11.313  10.418   4.608  0.1645  0.4870  0.3777
  983MOL0     C32616  11.177  10.386   4.603  1.1093  0.2890 -0.5268
  983MOL0     O32617  10.949  10.260   4.273  0.0063 -0.4393  0.2278
  983MOL0     C32618  10.686  10.292   4.529  0.1922  1.4973 -0.0444
  983MOL0     C32619  10.546  10.255   4.529 -0.0197 -1.1629  0.5920
  983MOL0     N32620   9.714  10.132   4.278  0.2946 -0.4587  0.5522
  983MOL0     N32621   9.659  10.143   4.158  0.4726 -1.3060  0.1520
  983MOL0     C32622   9.258  10.587   3.400  0.1144 -1.1189 -0.5927
  983MOL0     C32623   9.285  10.514   3.285  0.2392 -0.3360 -0.1025
  983MOL0     C32624   9.287  10.180   2.978 -0.4001  0.2837 -0.6151
  983MOL0     C32625   9.408  10.234   2.934 -0.3190 -0.0948 -0.7879
  983MOL0     C32626   9.484  10.179   2.828 -0.0515  0.3709 -0.0191
  983MOL0     C32627   9.444  10.070   2.758  0.0516  0.2196  0.6478
  983MOL0     O32628   9.522  10.026   2.651  0.2739  0.0017  0.1800
  983MOL0     C32629   9.472   9.942   2.543  0.3429 -0.1106 -0.5982
  983MOL0     C32630   9.481   9.786   2.578  0.8732 -0.1852  0.2528
  983MOL0     C32631   9.630   9.741   2.605 -1.5239  0.0205 -0.2338
  983MOL0     C32632   9.633   9.580   2.619  0.1441 -0.5311  0.1356
  983MOL0     C32633   9.770   9.533   2.584 -0.1041  0.4877 -0.6577
  983MOL0     C32634   9.875   9.501   2.545 -0.2209  0.5851  0.1061
  983MOL0     C32635   9.315  10.020   2.792 -0.1968  0.7936 -0.4743
  983MOL0     C32636   9.233  10.073   2.895 -0.5368 -0.6153 -0.7182
  983MOL0     C32637   9.102  10.005   2.927 -0.4953 -0.9688 -0.0968
  983MOL0     H32638   9.175  10.205   3.403  2.8692 -0.4956  0.5894
  983MOL0     H32639   9.131  10.344   3.601  2.1833 -0.1941  0.8368
  983MOL0     H32640   9.328  10.725   3.618  0.9853 -0.7551  1.5737
  983MOL0     H32641   9.175  10.785   3.562  3.4387 -0.1193 -1.5291
  983MOL0     H32642   9.098  10.818   3.800  0.0977 -2.0881  1.4140
  983MOL0     H32643   9.255  10.871   3.801 -0.9263  1.4484  1.9799
  983MOL0     H32644   9.138  10.622   3.926 -1.3217  2.3301 -1.0334
  983MOL0     H32645   9.256  10.735   3.991  1.5373 -1.4026  0.5464
  983MOL0     H32646   9.301  10.499   3.818  2.1278 -0.5630 -0.9205
  983MOL0     H32647   9.424  10.621   3.811  0.5231 -1.9131 -1.0771
  983MOL0     H32648   9.429  10.635   4.066  4.1351 -0.7913 -0.5817
  983MOL0     H32649   9.336  10.478   4.055  1.1110 -2.7032 -1.2648
  983MOL0     H32650   9.631  10.545   3.997  0.1171  0.8175  0.4285
  983MOL0     H32651   9.561  10.450   4.127 -1.0836 -0.6697  0.2731
  983MOL0     H32652   9.532  10.358   3.836  0.3316  2.2045 -0.1019
  983MOL0     H32653   9.490  10.276   3.989  1.7960 -1.9664  0.0017
  983MOL0     H32654   9.715  10.204   3.887 -0.2500 -0.4945  1.7592
  983MOL0     H32655   9.770  10.366   3.924 -0.2009 -0.5559 -2.9919
  983MOL0     H32656   9.861  10.399   4.165 -2.0049  1.7360  0.6153
  983MOL0     H32657   9.943  10.386   4.401 -0.4695  0.3412  3.0723
  983MOL0     H32658   9.843  10.285   4.497 -1.7592  2.6738 -2.6487
  983MOL0     H32659  10.075  10.225   4.524  1.7026  1.9950 -1.1768
  983MOL0     H32660   9.999  10.087   4.437 -0.5211  0.2221  0.3005
  983MOL0     H32661  10.164  10.292   4.292 -0.6946 -0.3750 -1.6446
  983MOL0     H32662  10.077  10.144   4.229 -0.8106  2.8398 -1.4001
  983MOL0     H32663  10.313  10.114   4.242  3.7780 -0.1950  1.3998
  983MOL0     H32664  10.243  10.009   4.374 -0.8073 -1.0436 -0.6033
  983MOL0     H32665  10.514  10.087   4.235  1.4406 -0.4641  0.3314
  983MOL0     H32666  10.753  10.148   4.223 -0.2549  0.3190 -0.4859
  983MOL0     H32667  11.112  10.413   4.274 -1.0974 -3.2441  0.2544
  983MOL0     H32668  11.355  10.463   4.274  3.3104 -1.4031  1.1886
  983MOL0     H32669  11.539  10.517   4.691 -0.6444 -0.4900 -0.7743
  983MOL0     H32670  11.589  10.358   4.638 -2.3685 -0.6091  0.6538
  983MOL0     H32671  11.738  10.621   4.564 -2.5866  0.6939 -0.0899
  983MOL0     H32672  11.802  10.513   4.683 -0.3448  0.1384  0.1351
  983MOL0     H32673  11.804  10.334   4.495  0.0955  0.6122  0.5589
  983MOL0     H32674  11.741  10.456   4.392  0.4441 -0.1770 -0.6254
  983MOL0     H32675  11.991  10.413   4.370 -2.1846 -0.1499 -1.1376
  983MOL0     H32676  12.020  10.498   4.519  1.7030  0.1885 -0.1004
  983MOL0     H32677  11.909  10.702   4.450 -3.3698 -1.3295  0.7422
  983MOL0     H32678  11.840  10.626   4.309  1.4430  3.7672 -1.6999
  983MOL0     H32679  12.061  10.586   4.210 -0.9010  1.2390 -0.6835
  983MOL0     H32680  12.026  10.759   4.242 -1.3350 -0.4532  1.3698
  983MOL0     H32681  12.258  10.751   4.309 -1.9001  3.3552 -0.4673
  983MOL0     H32682  12.229  10.600   4.386  0.1579 -1.1355 -2.1123
  983MOL0     H32683  12.124  10.871   4.486  0.4356  0.3970 -0.6116
  983MOL0     H32684  12.114  10.706   4.560 -1.1679  1.9060  0.8537
  983MOL0     H32685  11.366  10.413   4.703 -0.0050 -0.0215  0.4492
  983MOL0     H32686  11.136  10.371   4.703  1.3651  1.5018 -0.2194
  983MOL0     H32687  10.744  10.337   4.608  1.2506 -0.0857  0.1277
  983MOL0     H32688  10.493  10.296   4.615  1.6272 -0.8440  1.4970
  983MOL0     H32689   9.286  10.692   3.395  2.1775 -1.6736 -1.7800
  983MOL0     H32690   9.314  10.544   3.185 -1.6919 -1.6309 -1.1236
  983MOL0     H32691   9.440  10.332   2.967 -1.3284 -0.5760  1.8147
  983MOL0     H32692   9.577  10.232   2.807  0.0069 -0.1088 -1.0714
  983MOL0     H32693   9.525   9.961   2.449 -1.0798 -2.6953 -2.0574
  983MOL0     H32694   9.366   9.961   2.522  0.1722 -2.0231 -1.6701
  983MOL0     H32695   9.437   9.733   2.493  0.2485 -3.0626  2.2639
  983MOL0     H32696   9.433   9.757   2.671  0.8917  0.1706  0.3754
  983MOL0     H32697   9.660   9.781   2.702 -0.7876  1.9290 -1.2012
  983MOL0     H32698   9.698   9.783   2.530 -2.9679  0.2632 -1.4524
  983MOL0     H32699   9.611   9.557   2.724 -4.3551  2.1335 -0.0061
  983MOL0     H32700   9.563   9.519   2.561 -0.4834 -1.2807  1.6023
  983MOL0     H32701   9.973   9.463   2.525 -0.4295 -1.7749  2.8667
  983MOL0     H32702   9.285   9.940   2.725  1.5459  1.8984 -2.7145
  983MOL0     H32703   9.103   9.977   3.033  1.1312 -0.6442  0.0026
  983MOL0     H32704   9.020  10.076   2.914  0.1557  0.0963  1.3450
  983MOL0     H32705   9.080   9.915   2.868 -0.9203 -1.5750  0.9489
  984MOL0     O32706   7.852   2.586   3.139  0.6067 -0.5921 -0.2644
  984MOL0     C32707   7.731   2.600   3.130 -0.8339 -0.7090 -0.4194
  984MOL0     O32708   7.639   2.567   3.224 -0.4574  0.4688 -0.2985
  984MOL0     C32709   7.671   2.507   3.334 -0.7367  0.2041  0.9778
  984MOL0     C32710   7.677   2.575   3.450  0.0704 -1.5245 -0.0415
  984MOL0     C32711   7.716   2.514   3.575  0.2117  0.0158  0.3037
  984MOL0     C32712   7.748   2.379   3.571  0.3361  0.3073 -1.1430
  984MOL0     O32713   7.804   2.318   3.686  0.2531 -0.8470  0.2439
  984MOL0     C32714   7.909   2.229   3.659 -1.0116  0.2182 -0.4414
  984MOL0     C32715   7.987   2.217   3.795  0.1497 -0.0449 -0.7319
  984MOL0     C32716   8.109   2.124   3.792  0.1349 -0.3839 -0.3584
  984MOL0     C32717   8.168   2.087   3.659 -0.5288 -0.5937  0.1528
  984MOL0     C32718   8.290   1.998   3.667  0.4803  0.0653 -0.2703
  984MOL0     C32719   8.266   1.860   3.736  0.7086 -0.3931 -0.1710
  984MOL0     C32720   8.330   1.737   3.676  0.1389  0.3191 -0.9069
  984MOL0     C32721   8.475   1.710   3.717 -0.1163 -0.5803 -0.1596
  984MOL0     N32722   8.569   1.817   3.693 -0.0055  0.3274 -0.3029
  984MOL0     C32723   8.595   1.927   3.772  0.9718 -0.1598  0.0001
  984MOL0     C32724   8.713   1.974   3.722 -0.5052  1.0006  0.6918
  984MOL0     C32725   8.796   2.082   3.785 -0.1164 -0.2154 -0.0543
  984MOL0     C32726   8.816   2.054   3.938 -0.4633 -1.6406 -0.1604
  984MOL0     C32727   8.939   1.965   3.961  0.5877  0.4218  0.7004
  984MOL0     C32728   8.950   1.904   4.098  0.0880 -0.0934  0.4295
  984MOL0     O32729   8.845   1.820   4.140  1.2394  0.0238  0.3259
  984MOL0     C32730   8.822   1.698   4.091 -0.6797 -0.3243  0.0670
  984MOL0     C32731   8.701   1.653   4.049  0.0028  0.1691  0.3306
  984MOL0     C32732   8.695   1.518   4.004  0.4666  0.1665 -0.2288
  984MOL0     C32733   8.804   1.428   4.016 -0.2690  0.3471 -0.3399
  984MOL0     C32734   8.785   1.293   3.977  0.4466 -0.3448  0.0479
  984MOL0     O32735   8.660   1.258   3.930 -0.7636 -0.1523  0.0283
  984MOL0     C32736   8.602   1.131   3.909 -0.2131  0.0074  0.2242
  984MOL0     C32737   8.487   1.122   3.830  0.3986 -0.3804 -0.7456
  984MOL0     C32738   8.416   1.002   3.816  0.6653  0.2113 -0.7221
  984MOL0     C32739   8.462   0.895   3.883  0.3464 -0.3307 -0.0808
  984MOL0     O32740   8.396   0.777   3.865  0.9552 -0.4984 -0.1879
  984MOL0     C32741   8.312   0.747   3.973 -0.5796 -0.6566  0.2258
  984MOL0     C32742   8.216   0.637   3.941 -0.3447 -0.0619 -0.2465
  984MOL0     C32743   8.095   0.703   3.872 -0.3501 -0.4263 -0.4424
  984MOL0     C32744   8.011   0.595   3.798  0.2211  0.0604 -0.5899
  984MOL0     C32745   7.865   0.655   3.790  0.6403  0.1853 -0.3194
  984MOL0     C32746   7.778   0.559   3.712  0.3441  0.2502 -0.4698
  984MOL0     C32747   7.633   0.610   3.725 -0.0412  0.1447 -0.0994
  984MOL0     C32748   7.525   0.513   3.664 -0.4791 -0.7138  0.4285
  984MOL0    Cl32749   7.374   0.536   3.748  0.0481  0.1013  0.3673
  984MOL0     C32750   8.577   0.901   3.967  0.6486  0.2113 -0.2225
  984MOL0     C32751   8.644   1.017   3.978 -1.0376 -0.1950  0.3030
  984MOL0     O32752   8.871   1.210   3.989  0.0910  0.7255  0.0995
  984MOL0     C32753   8.925   1.484   4.064  0.6649  0.7537  0.1524
  984MOL0     C32754   8.932   1.611   4.112 -0.6795 -0.1644 -0.0718
  984MOL0     N32755   8.748   1.901   3.611 -0.4285 -0.1705  0.4526
  984MOL0     N32756   8.653   1.823   3.592 -0.5954 -0.7215 -0.6293
  984MOL0     C32757   7.724   2.298   3.456 -1.4681 -0.4577 -0.5521
  984MOL0     C32758   7.700   2.373   3.339 -0.2957  0.4508 -0.2317
  984MOL0     C32759   7.683   2.657   2.993  0.0521  0.5631 -0.6047
  984MOL0     C32760   7.537   2.687   2.991 -0.2862  0.3501 -0.3221
  984MOL0     C32761   7.471   2.744   2.878 -0.3136 -0.0391  0.3711
  984MOL0     C32762   7.546   2.790   2.768  0.0121  0.6023  0.2868
  984MOL0     O32763   7.485   2.863   2.663 -0.2067  0.0077 -0.4988
  984MOL0     C32764   7.363   2.933   2.684  0.5270 -0.0201  0.3083
  984MOL0     C32765   7.332   3.031   2.571  0.4913 -1.3116  0.2176
  984MOL0     C32766   7.215   3.118   2.618 -0.5946  0.7887  0.6007
  984MOL0     C32767   7.166   3.220   2.511 -0.3348 -0.0734 -0.8779
  984MOL0     C32768   7.109   3.176   2.383  1.0364 -0.0435 -0.2651
  984MOL0     C32769   7.036   3.122   2.301  1.0507  1.0163  0.1306
  984MOL0     C32770   7.682   2.761   2.759  1.5868  0.3680 -0.0641
  984MOL0     C32771   7.752   2.700   2.872  0.1718  0.4561  0.7892
  984MOL0     C32772   7.900   2.660   2.844  1.3481 -0.6121 -0.6679
  984MOL0     H32773   7.663   2.683   3.448  2.0727 -1.1562  1.6672
  984MOL0     H32774   7.736   2.563   3.670  0.7553 -0.3839  0.4002
  984MOL0     H32775   7.873   2.133   3.621  2.7306 -2.0038  1.0648
  984MOL0     H32776   7.980   2.274   3.589  1.4904 -0.4827  1.4722
  984MOL0     H32777   7.925   2.178   3.877  2.9138 -0.3629  1.3812
  984MOL0     H32778   8.023   2.315   3.828  0.1376 -1.0232  2.5923
  984MOL0     H32779   8.099   2.024   3.834  1.1244 -0.3383  0.0214
  984MOL0     H32780   8.184   2.171   3.857 -2.8360  1.3531  2.0645
  984MOL0     H32781   8.097   2.036   3.594  1.7025 -2.0659 -1.2675
  984MOL0     H32782   8.204   2.176   3.606  1.9655 -1.0622  0.9044
  984MOL0     H32783   8.322   1.983   3.563 -0.7708 -0.9801 -0.5177
  984MOL0     H32784   8.356   2.057   3.732  0.2827  0.3519 -0.3266
  984MOL0     H32785   8.308   1.874   3.836 -1.3677 -1.9023  0.9809
  984MOL0     H32786   8.161   1.834   3.751  0.3385 -0.5313 -2.5564
  984MOL0     H32787   8.319   1.736   3.567 -0.1818 -4.6385 -1.0333
  984MOL0     H32788   8.276   1.652   3.716 -1.5735  1.0373 -1.6036
  984MOL0     H32789   8.476   1.671   3.819  1.3947 -2.0884 -0.7103
  984MOL0     H32790   8.501   1.625   3.653 -0.7176  0.6780 -2.1979
  984MOL0     H32791   8.545   1.971   3.857  2.4878  2.0684 -0.2047
  984MOL0     H32792   8.890   2.090   3.731 -1.1413 -0.0799 -1.8818
  984MOL0     H32793   8.732   2.169   3.768 -1.1137 -0.7862  0.6482
  984MOL0     H32794   8.835   2.156   3.972 -2.2463 -1.8752  1.7603
  984MOL0     H32795   8.722   2.016   3.980 -2.6414  0.8618 -2.3943
  984MOL0     H32796   9.034   2.015   3.938  0.4768  1.5839  2.5554
  984MOL0     H32797   8.939   1.884   3.888 -0.0933  2.4262 -1.6647
  984MOL0     H32798   8.961   1.996   4.156 -2.5552  1.7587 -1.7632
  984MOL0     H32799   9.047   1.852   4.098  1.3850  2.0537 -2.3337
  984MOL0     H32800   8.616   1.714   4.023 -0.7481 -1.2683 -0.7818
  984MOL0     H32801   8.604   1.473   3.966  1.5214 -1.0702 -1.4007
  984MOL0     H32802   8.446   1.197   3.764 -0.4783 -1.0759 -1.0065
  984MOL0     H32803   8.322   0.992   3.763 -0.6243  0.6476  1.3748
  984MOL0     H32804   8.372   0.717   4.059  0.8761  0.7515 -0.2516
  984MOL0     H32805   8.256   0.837   4.001 -1.2280 -0.8462 -0.4528
  984MOL0     H32806   8.262   0.565   3.873  2.3661  0.9778  0.3252
  984MOL0     H32807   8.183   0.595   4.037  0.5266  0.5219  0.3359
  984MOL0     H32808   8.039   0.765   3.943  3.5191  3.7337 -0.5752
  984MOL0     H32809   8.118   0.772   3.790 -2.7423 -0.3314 -1.1074
  984MOL0     H32810   7.996   0.497   3.845 -2.0463  0.3923 -0.4843
  984MOL0     H32811   8.051   0.580   3.698 -1.5096 -0.3637 -1.2528
  984MOL0     H32812   7.858   0.749   3.733 -0.1569 -0.6642 -1.6791
  984MOL0     H32813   7.820   0.671   3.888 -2.4297  1.4749 -1.8028
  984MOL0     H32814   7.804   0.574   3.606  0.9866  0.3398 -0.3057
  984MOL0     H32815   7.787   0.453   3.738  0.9341  1.0277  2.8388
  984MOL0     H32816   7.626   0.715   3.694  0.2794  0.6719  1.5282
  984MOL0     H32817   7.604   0.619   3.830  2.2757  3.4624  0.3979
  984MOL0     H32818   7.506   0.534   3.558  3.4663 -3.9796 -1.1833
  984MOL0     H32819   7.552   0.407   3.663  2.8160  0.0327 -1.3284
  984MOL0     H32820   8.609   0.813   4.022  1.6804 -0.3534 -1.6562
  984MOL0     H32821   8.743   1.017   4.023 -1.5902 -0.5572  1.5793
  984MOL0     H32822   9.017   1.426   4.065  0.8451  1.0514  1.1960
  984MOL0     H32823   9.021   1.664   4.145 -1.3533  1.8219 -1.3261
  984MOL0     H32824   7.759   2.195   3.452  1.4780  0.4266 -0.1951
  984MOL0     H32825   7.688   2.313   3.249  1.2469 -1.5722  0.8210
  984MOL0     H32826   7.484   2.661   3.082 -0.5306  0.5461 -0.4090
  984MOL0     H32827   7.363   2.749   2.886 -0.2204  0.7275  1.2947
  984MOL0     H32828   7.358   2.989   2.778  0.2276 -1.2785  1.0546
  984MOL0     H32829   7.281   2.866   2.710  1.6969 -0.7286  2.4171
  984MOL0     H32830   7.307   2.980   2.477 -1.9204 -0.8061  0.5158
  984MOL0     H32831   7.420   3.090   2.546 -0.5834  0.7324  1.0172
  984MOL0     H32832   7.255   3.173   2.704 -1.2535 -0.4072  1.7069
  984MOL0     H32833   7.130   3.055   2.643 -0.8040  0.5527 -0.6448
  984MOL0     H32834   7.091   3.271   2.571  0.6200  1.3055 -0.8167
  984MOL0     H32835   7.247   3.292   2.494 -2.0230  2.1040 -0.1559
  984MOL0     H32836   6.961   3.097   2.229  2.9550 -2.1574 -0.9704
  984MOL0     H32837   7.735   2.797   2.671  0.8684 -1.6757 -1.4200
  984MOL0     H32838   7.981   2.717   2.891  0.4877  1.0027 -1.0552
  984MOL0     H32839   7.910   2.558   2.882  1.3648 -0.6422 -0.7537
  984MOL0     H32840   7.921   2.658   2.737  0.8483 -0.1199 -0.7837
  985MOL0     O32841   8.071   0.342   2.553 -0.4305 -0.1409 -0.5106
  985MOL0     C32842   8.086   0.458   2.571 -0.5396 -0.4273 -0.0320
  985MOL0     O32843   7.974   0.536   2.597 -0.0148  0.5910  0.2625
  985MOL0     C32844   7.839   0.493   2.611 -1.3102 -0.2430  0.2944
  985MOL0     C32845   7.768   0.543   2.710 -0.0401  0.0984 -0.0229
  985MOL0     C32846   7.633   0.511   2.727  0.4768  0.1150 -0.4072
  985MOL0     C32847   7.572   0.442   2.638  0.9608 -0.2634 -0.4116
  985MOL0     O32848   7.436   0.411   2.642  0.5030 -1.2817  0.0268
  985MOL0     C32849   7.394   0.361   2.766 -0.2154 -0.8326 -0.4135
  985MOL0     C32850   7.237   0.376   2.767  0.5569 -0.8933 -0.7865
  985MOL0     C32851   7.152   0.288   2.676 -1.2033 -0.3752  0.1016
  985MOL0     C32852   7.200   0.142   2.687 -0.2777  0.1629  0.8322
  985MOL0     C32853   7.106   0.036   2.625 -0.1671  0.9187 -0.3403
  985MOL0     C32854   7.155  -0.105   2.643 -0.0194 -0.5516 -0.2562
  985MOL0     C32855   7.058  -0.196   2.561 -0.2054  0.8403 -0.7017
  985MOL0     C32856   6.927  -0.203   2.635  0.1003  0.2831  0.6143
  985MOL0     N32857   6.919  -0.319   2.725  0.4839  0.6310 -0.8019
  985MOL0     C32858   6.863  -0.444   2.707 -0.6363  0.1645 -1.3765
  985MOL0     C32859   6.907  -0.504   2.820  0.1358  0.7848 -1.2125
  985MOL0     C32860   6.856  -0.626   2.882  0.9353 -0.4325  0.3740
  985MOL0     C32861   6.870  -0.754   2.780 -0.4759 -0.9434  0.1774
  985MOL0     C32862   7.021  -0.785   2.746  0.3515  0.0736 -0.2024
  985MOL0     C32863   7.088  -0.695   2.642  0.3058  0.0943 -0.1118
  985MOL0     O32864   7.010  -0.701   2.522  0.0593  0.5699  0.6800
  985MOL0     C32865   7.051  -0.602   2.428 -1.2716  0.7006 -0.0372
  985MOL0     C32866   6.974  -0.592   2.318 -0.1378 -0.3195  0.1522
  985MOL0     C32867   7.011  -0.501   2.215 -1.1928 -0.9282 -0.1470
  985MOL0     C32868   7.127  -0.418   2.220 -0.0464  1.4338  0.1111
  985MOL0     C32869   7.168  -0.345   2.103  0.3947 -0.2107 -0.5828
  985MOL0     O32870   7.283  -0.278   2.119 -0.0694  0.2913  0.3761
  985MOL0     C32871   7.327  -0.184   2.023 -0.4518  0.1628  0.1718
  985MOL0     C32872   7.412  -0.218   1.917 -0.1614  0.5575 -0.0234
  985MOL0     C32873   7.457  -0.121   1.831  0.5046  0.0745 -0.2331
  985MOL0     C32874   7.401   0.011   1.837 -0.4093 -0.1724  0.0695
  985MOL0     O32875   7.448   0.108   1.757  0.8778 -0.1357 -0.3234
  985MOL0     C32876   7.499   0.055   1.636 -0.2222  0.5229  0.2878
  985MOL0     C32877   7.521   0.165   1.524 -0.5291  0.5946 -0.2183
  985MOL0     C32878   7.616   0.107   1.408  0.8868 -0.7108  0.3467
  985MOL0     C32879   7.610   0.205   1.295  0.3211  0.7817 -0.4922
  985MOL0     C32880   7.709   0.172   1.186 -0.2014 -0.1069  0.7312
  985MOL0     C32881   7.693   0.260   1.060  0.4022 -0.3095 -0.2437
  985MOL0     C32882   7.814   0.244   0.965  0.3701  0.4955 -0.4729
  985MOL0     C32883   7.784   0.293   0.825 -0.5920  0.0605  0.4718
  985MOL0    Cl32884   7.770   0.467   0.827  0.3151 -0.3179 -0.0992
  985MOL0     C32885   7.318   0.045   1.942  2.2909  0.4097 -0.2493
  985MOL0     C32886   7.270  -0.052   2.032 -1.4623  0.5175 -0.1912
  985MOL0     O32887   7.093  -0.334   2.003  0.0973 -0.1798 -0.5866
  985MOL0     C32888   7.207  -0.428   2.336  0.5769  0.8304 -0.8908
  985MOL0     C32889   7.169  -0.523   2.432 -0.5522  0.0454 -0.3924
  985MOL0     N32890   6.981  -0.422   2.899  0.0329 -0.6134  0.2875
  985MOL0     N32891   6.988  -0.311   2.841 -0.0893 -0.5933  0.3769
  985MOL0     C32892   7.641   0.378   2.528  0.0615  0.4622 -0.3996
  985MOL0     C32893   7.777   0.407   2.515 -1.1326  0.2542  0.2366
  985MOL0     C32894   8.231   0.524   2.573  0.1329 -0.8031  0.0528
  985MOL0     C32895   8.234   0.649   2.631 -0.5590  0.0576  0.1933
  985MOL0     C32896   8.359   0.719   2.648  0.3158  0.0040 -0.0578
  985MOL0     C32897   8.483   0.662   2.601 -0.7002 -0.3810 -0.3336
  985MOL0     O32898   8.614   0.702   2.613 -0.4396  0.8597  0.5205
  985MOL0     C32899   8.639   0.824   2.678  1.0962  0.1152 -0.2165
  985MOL0     C32900   8.788   0.856   2.673  0.8666 -0.2578  0.2731
  985MOL0     C32901   8.885   0.729   2.693  0.8730  1.0181 -0.6968
  985MOL0     C32902   9.023   0.789   2.691  0.1840 -0.3761 -0.0600
  985MOL0     C32903   9.127   0.686   2.721  0.8294  0.0349  0.1616
  985MOL0     C32904   9.223   0.625   2.737  0.4744 -0.4063  0.2458
  985MOL0     C32905   8.470   0.534   2.554  0.1363 -0.6858  0.2644
  985MOL0     C32906   8.354   0.465   2.527  0.1725 -0.0543  0.8487
  985MOL0     C32907   8.362   0.331   2.469  0.1950  0.5596 -0.1041
  985MOL0     H32908   7.806   0.618   2.778 -2.4015  2.0925 -0.7289
  985MOL0     H32909   7.582   0.565   2.805  1.3156  0.4465 -0.0836
  985MOL0     H32910   7.425   0.256   2.766 -1.0342 -1.0959  0.8470
  985MOL0     H32911   7.437   0.417   2.850 -1.2794 -0.2607 -0.2330
  985MOL0     H32912   7.220   0.480   2.738  1.5561 -1.6056 -4.4255
  985MOL0     H32913   7.206   0.378   2.872  2.2964  0.2323 -0.2487
  985MOL0     H32914   7.165   0.319   2.572 -1.6948 -3.8156 -1.1159
  985MOL0     H32915   7.049   0.295   2.711 -0.3530  2.4454  2.3672
  985MOL0     H32916   7.293   0.131   2.631 -2.2213 -2.3709 -2.2667
  985MOL0     H32917   7.221   0.122   2.793  3.1472  3.4464  0.9738
  985MOL0     H32918   7.016   0.052   2.685  0.5808  1.1362  0.7477
  985MOL0     H32919   7.102   0.050   2.517  0.4862 -0.0732 -0.5112
  985MOL0     H32920   7.260  -0.121   2.618  0.6883  0.8363  1.5907
  985MOL0     H32921   7.157  -0.120   2.752 -0.9079  5.3193  0.9216
  985MOL0     H32922   7.107  -0.291   2.541 -0.1271  0.6265  0.4439
  985MOL0     H32923   7.032  -0.162   2.460 -0.8928  1.6088 -0.2804
  985MOL0     H32924   6.909  -0.113   2.694  0.2201  0.9539 -0.3524
  985MOL0     H32925   6.840  -0.194   2.569  1.1395  0.8928 -0.7174
  985MOL0     H32926   6.794  -0.490   2.637 -1.3055 -0.7027 -0.1823
  985MOL0     H32927   6.906  -0.650   2.977  0.0880  0.0567  0.9583
  985MOL0     H32928   6.751  -0.633   2.912  1.8863 -1.8393  3.9192
  985MOL0     H32929   6.842  -0.847   2.829 -0.0393 -0.6106  1.0817
  985MOL0     H32930   6.808  -0.742   2.691  0.1373 -0.0902 -0.1594
  985MOL0     H32931   7.015  -0.878   2.689 -2.3077 -1.3581  2.1606
  985MOL0     H32932   7.084  -0.806   2.833 -0.5170 -0.7691  0.2495
  985MOL0     H32933   7.188  -0.728   2.612  1.4355  1.1998  2.1760
  985MOL0     H32934   7.095  -0.594   2.684 -5.3558  0.7254  0.0281
  985MOL0     H32935   6.881  -0.645   2.304 -1.3177  1.9780 -1.3821
  985MOL0     H32936   6.941  -0.492   2.132 -2.2343 -0.6860  0.7319
  985MOL0     H32937   7.444  -0.322   1.913 -1.7865  0.0243  0.3320
  985MOL0     H32938   7.521  -0.159   1.751 -0.9741  0.3953 -1.6241
  985MOL0     H32939   7.594  -0.000   1.642 -0.5339 -0.1648 -0.7418
  985MOL0     H32940   7.421  -0.010   1.595  1.2710 -2.1753  1.4326
  985MOL0     H32941   7.426   0.192   1.477  0.0443  1.2677 -1.0109
  985MOL0     H32942   7.562   0.254   1.572 -1.6693  0.0513  1.8991
  985MOL0     H32943   7.718   0.087   1.444  0.9087  2.3488  2.3327
  985MOL0     H32944   7.561   0.020   1.371 -1.1683  0.1788  1.1573
  985MOL0     H32945   7.636   0.306   1.328  0.7420  0.4591  0.1847
  985MOL0     H32946   7.510   0.217   1.253 -1.3705  0.8615  3.2232
  985MOL0     H32947   7.698   0.070   1.149 -0.5775  0.9834 -2.4967
  985MOL0     H32948   7.805   0.176   1.238 -1.0792 -0.2882  2.4457
  985MOL0     H32949   7.600   0.243   1.005  0.7359  0.7848 -1.2001
  985MOL0     H32950   7.685   0.364   1.094  0.9113 -0.1521 -0.5884
  985MOL0     H32951   7.833   0.136   0.959 -0.9498  0.2293 -0.2453
  985MOL0     H32952   7.908   0.291   0.994  0.2994  2.8823 -3.5324
  985MOL0     H32953   7.857   0.244   0.761  1.5139  1.4487  1.6841
  985MOL0     H32954   7.685   0.254   0.798 -1.4501  3.4674 -2.2471
  985MOL0     H32955   7.277   0.146   1.933  0.6462 -0.1191  0.7776
  985MOL0     H32956   7.203  -0.029   2.114  1.3494  1.7471  1.9034
  985MOL0     H32957   7.297  -0.367   2.346  1.8479 -1.2517  1.3465
  985MOL0     H32958   7.229  -0.528   2.522 -1.3602  3.6054  0.4984
  985MOL0     H32959   7.601   0.314   2.450  0.0678  0.8973 -0.7631
  985MOL0     H32960   7.835   0.356   2.439  1.3147 -2.8205  3.8040
  985MOL0     H32961   8.153   0.704   2.678  0.3847  0.6989  1.1275
  985MOL0     H32962   8.361   0.822   2.681 -2.9746  1.7122 -4.1761
  985MOL0     H32963   8.616   0.817   2.785 -1.7617 -0.6949 -0.7797
  985MOL0     H32964   8.587   0.910   2.634  2.4203  0.0709 -1.9780
  985MOL0     H32965   8.821   0.921   2.755  0.5452  0.2958 -0.0380
  985MOL0     H32966   8.802   0.905   2.576  2.9134 -1.2587  0.0174
  985MOL0     H32967   8.868   0.656   2.614  0.6939  1.6448 -1.2486
  985MOL0     H32968   8.881   0.678   2.790 -1.1733  1.8622 -0.2673
  985MOL0     H32969   9.041   0.827   2.589 -0.2840 -0.1060 -0.0467
  985MOL0     H32970   9.038   0.877   2.755  0.9531 -1.4047  1.2224
  985MOL0     H32971   9.319   0.583   2.762  1.0862  1.2354  0.7578
  985MOL0     H32972   8.566   0.492   2.525  0.9674  2.9003 -3.0433
  985MOL0     H32973   8.448   0.313   2.405 -0.5654  2.8509 -1.9038
  985MOL0     H32974   8.354   0.252   2.545  1.1663  1.7459  1.2841
  985MOL0     H32975   8.284   0.307   2.396 -0.0035 -0.4707  0.4286
  986MOL0     O32976   1.075   2.471   4.018  0.3259 -0.0834 -0.0589
  986MOL0     C32977   1.189   2.460   4.066  0.5317 -0.3417 -0.7662
  986MOL0     O32978   1.265   2.558   4.134  0.1111 -0.2699  0.2995
  986MOL0     C32979   1.218   2.681   4.172 -0.5677  0.0104  0.2028
  986MOL0     C32980   1.097   2.738   4.120 -0.1314 -0.2271 -0.2883
  986MOL0     C32981   1.050   2.860   4.170  0.3324  0.0863 -0.3777
  986MOL0     C32982   1.119   2.934   4.263  0.9432  0.6050  0.0930
  986MOL0     O32983   1.063   3.045   4.326 -0.6666 -0.5902 -0.2396
  986MOL0     C32984   0.921   3.034   4.366 -0.2084  0.0471 -0.4765
  986MOL0     C32985   0.881   3.130   4.480 -0.6205 -0.3737  0.1185
  986MOL0     C32986   0.747   3.096   4.546 -0.2559  0.2446  0.3227
  986MOL0     C32987   0.708   3.214   4.645 -1.0754  0.1790  0.6043
  986MOL0     C32988   0.556   3.221   4.683  0.2343 -0.6075 -0.3823
  986MOL0     C32989   0.523   3.371   4.717  0.1818  0.0362 -0.5992
  986MOL0     C32990   0.564   3.410   4.867  0.5333  0.8828  0.1169
  986MOL0     C32991   0.529   3.544   4.916 -1.1204 -0.2062 -0.0904
  986MOL0     N32992   0.393   3.592   4.909  0.5193  0.3474  1.1083
  986MOL0     C32993   0.331   3.622   4.797 -0.1676 -1.0889  0.4214
  986MOL0     C32994   0.206   3.654   4.834  0.3612  0.2781  0.2522
  986MOL0     C32995   0.100   3.704   4.738  0.2314 -0.3477  0.4671
  986MOL0     C32996   0.002   3.588   4.704  1.0262  0.2833  0.7658
  986MOL0     C32997  -0.095   3.542   4.820 -1.3649 -0.4256 -0.4010
  986MOL0     C32998  -0.158   3.661   4.895 -0.4538 -0.1713  1.1324
  986MOL0     O32999  -0.259   3.640   4.994 -0.4927  0.4156  0.9319
  986MOL0     C33000  -0.388   3.644   4.953  1.1637 -0.0675 -0.0242
  986MOL0     C33001  -0.441   3.596   4.835  1.4279 -0.1640 -0.0942
  986MOL0     C33002  -0.584   3.611   4.809 -0.7004 -0.3798 -0.0938
  986MOL0     C33003  -0.666   3.677   4.913 -0.3175 -0.1594  0.0029
  986MOL0     C33004  -0.809   3.681   4.902 -0.9630  0.0615  1.4234
  986MOL0     O33005  -0.880   3.753   4.998 -0.8557 -0.5092 -0.8895
  986MOL0     C33006  -1.013   3.761   4.994 -0.2065 -0.5992 -0.3029
  986MOL0     C33007  -1.099   3.667   5.050  0.5491  0.1934  0.3820
  986MOL0     C33008  -1.241   3.687   5.058  0.0836  0.7820  0.7859
  986MOL0     C33009  -1.296   3.809   5.005 -0.2556  0.0451 -0.8144
  986MOL0     O33010  -1.430   3.848   4.991  1.0127 -0.3501 -0.4266
  986MOL0     C33011  -1.511   3.731   4.973 -0.8388 -0.0569 -0.5004
  986MOL0     C33012  -1.633   3.762   4.897 -0.6556  0.1782 -0.2136
  986MOL0     C33013  -1.598   3.795   4.750  0.2433 -0.5131 -0.3674
  986MOL0     C33014  -1.733   3.817   4.674 -0.1089 -0.0125  0.0157
  986MOL0     C33015  -1.817   3.936   4.725 -0.6191 -0.1404 -0.8226
  986MOL0     C33016  -1.916   3.983   4.613 -0.2610  0.1891  0.6389
  986MOL0     C33017  -1.967   4.126   4.642 -0.6269  0.7284 -0.9819
  986MOL0     C33018  -2.089   4.160   4.575  0.4859 -0.5358  0.4128
  986MOL0    Cl33019  -2.224   4.042   4.600 -0.0554 -0.2134 -0.4025
  986MOL0     C33020  -1.206   3.905   4.950 -0.3052 -0.3698 -0.0327
  986MOL0     C33021  -1.066   3.881   4.951 -0.1361 -0.4050  1.5868
  986MOL0     O33022  -0.859   3.620   4.800 -0.3642 -1.3003 -0.2009
  986MOL0     C33023  -0.604   3.733   5.030 -0.3969  0.7754  0.0474
  986MOL0     C33024  -0.465   3.715   5.044  0.6705  1.0337 -0.1940
  986MOL0     N33025   0.195   3.638   4.973  0.4030  1.2218  0.0133
  986MOL0     N33026   0.311   3.602   5.012  0.6610 -0.0238 -0.8604
  986MOL0     C33027   1.234   2.887   4.319 -0.0443  0.8354  0.5113
  986MOL0     C33028   1.279   2.764   4.275 -0.3654 -0.1605  0.4459
  986MOL0     C33029   1.243   2.325   4.042  0.1904 -0.7738 -0.6801
  986MOL0     C33030   1.145   2.227   4.007  0.3644 -0.4065 -0.2037
  986MOL0     C33031   1.183   2.096   3.980 -0.1946 -0.4838 -0.7063
  986MOL0     C33032   1.318   2.055   3.999  0.0117 -0.2472  0.5647
  986MOL0     O33033   1.355   1.928   3.988 -0.2928  0.0130 -0.0166
  986MOL0     C33034   1.280   1.835   4.060  0.9655 -0.0330  0.4536
  986MOL0     C33035   1.381   1.713   4.086 -0.5360 -0.0006 -0.7899
  986MOL0     C33036   1.457   1.735   4.216  0.4654  0.9511 -0.4258
  986MOL0     C33037   1.579   1.641   4.246  0.5059 -0.2770 -0.7098
  986MOL0     C33038   1.540   1.506   4.271 -0.9756  0.5921 -0.5040
  986MOL0     C33039   1.522   1.389   4.285 -0.4611  0.2886 -0.6235
  986MOL0     C33040   1.412   2.159   4.015 -0.9334  0.4861  0.2406
  986MOL0     C33041   1.382   2.294   4.049 -0.0985 -0.1181 -0.6067
  986MOL0     C33042   1.495   2.395   4.098  0.9287  0.2246  0.7312
  986MOL0     H33043   1.036   2.682   4.050  0.5069 -0.4402 -0.6876
  986MOL0     H33044   0.957   2.904   4.134 -0.2485  0.2307  1.2161
  986MOL0     H33045   0.867   3.057   4.274  0.1685 -3.1153 -1.6049
  986MOL0     H33046   0.896   2.931   4.390  4.4023 -1.1207  0.3805
  986MOL0     H33047   0.882   3.235   4.452  3.4047 -0.0600  0.9017
  986MOL0     H33048   0.965   3.123   4.550  0.2930 -1.3664 -1.0129
  986MOL0     H33049   0.747   2.999   4.596  3.3505  0.6759  1.4456
  986MOL0     H33050   0.670   3.100   4.468  0.4507  0.5187 -0.3683
  986MOL0     H33051   0.773   3.223   4.733 -2.2932 -1.6047  1.7520
  986MOL0     H33052   0.735   3.304   4.590  2.2650 -0.0963  1.5557
  986MOL0     H33053   0.497   3.199   4.594  1.5435  1.0357 -1.7198
  986MOL0     H33054   0.528   3.153   4.764  2.0594  0.1113  0.9435
  986MOL0     H33055   0.571   3.442   4.649 -1.0461 -0.4613 -2.0459
  986MOL0     H33056   0.414   3.375   4.711  0.0438 -1.2687  0.5619
  986MOL0     H33057   0.671   3.390   4.882 -0.0045 -3.6059 -0.6931
  986MOL0     H33058   0.520   3.339   4.936 -0.8453  1.1649 -0.4453
  986MOL0     H33059   0.566   3.557   5.019 -0.8354 -4.1394  0.4368
  986MOL0     H33060   0.579   3.611   4.845 -1.8943 -0.1018 -0.5525
  986MOL0     H33061   0.381   3.629   4.701  1.6869 -0.0546  1.3996
  986MOL0     H33062   0.059   3.791   4.788  0.5351  0.8485 -1.2746
  986MOL0     H33063   0.141   3.744   4.645 -1.6621  0.9344  0.1289
  986MOL0     H33064  -0.063   3.613   4.620 -0.7824 -3.1128  1.0022
  986MOL0     H33065   0.072   3.510   4.672  0.1633 -1.6206  3.2392
  986MOL0     H33066  -0.025   3.502   4.893  1.1135 -0.1623 -2.4879
  986MOL0     H33067  -0.157   3.455   4.795 -0.6212 -1.1149  0.1356
  986MOL0     H33068  -0.196   3.739   4.829  1.2241  0.4942  0.9067
  986MOL0     H33069  -0.079   3.716   4.947  0.0370  1.3014 -1.0560
  986MOL0     H33070  -0.372   3.559   4.760  1.0996 -2.0123  0.4800
  986MOL0     H33071  -0.630   3.566   4.721  0.1793  1.4462 -1.5618
  986MOL0     H33072  -1.060   3.573   5.087 -0.0321 -1.1239 -2.0802
  986MOL0     H33073  -1.313   3.614   5.094 -1.1051  2.4555  1.9632
  986MOL0     H33074  -1.458   3.650   4.923 -4.5631 -1.9900 -1.7484
  986MOL0     H33075  -1.545   3.695   5.071  0.7763  1.1769  0.5648
  986MOL0     H33076  -1.701   3.676   4.901 -0.7117  0.0443 -2.4716
  986MOL0     H33077  -1.678   3.852   4.941 -1.5599 -0.0787 -0.5701
  986MOL0     H33078  -1.532   3.882   4.755  0.6008 -0.8560  1.6337
  986MOL0     H33079  -1.541   3.712   4.707  0.2677 -2.2455  2.7078
  986MOL0     H33080  -1.789   3.723   4.676  1.1544 -0.7814  0.2604
  986MOL0     H33081  -1.699   3.844   4.574  0.3688  1.0278  0.4391
  986MOL0     H33082  -1.754   4.016   4.764 -0.1010  0.0154 -1.9403
  986MOL0     H33083  -1.875   3.902   4.811  1.8766 -0.0508  0.9783
  986MOL0     H33084  -1.870   3.978   4.514 -1.9294  1.1580 -0.2469
  986MOL0     H33085  -1.998   3.911   4.618  0.8162 -1.3404 -1.7059
  986MOL0     H33086  -1.895   4.202   4.611 -1.6083  1.5851 -1.1939
  986MOL0     H33087  -1.983   4.140   4.749 -0.6828 -1.5889 -0.6399
  986MOL0     H33088  -2.116   4.265   4.587  0.4951 -0.2959 -1.4349
  986MOL0     H33089  -2.064   4.152   4.469 -0.0674 -1.2665  0.3320
  986MOL0     H33090  -1.243   3.984   4.886  0.9245  2.0077  2.0019
  986MOL0     H33091  -1.008   3.961   4.906 -0.8499 -0.9260 -0.4141
  986MOL0     H33092  -0.656   3.783   5.110  2.9283  3.9659  0.4909
  986MOL0     H33093  -0.421   3.758   5.134 -2.7328  0.8988  1.6770
  986MOL0     H33094   1.289   2.945   4.393  0.0403 -0.3479  1.4087
  986MOL0     H33095   1.373   2.730   4.317 -0.5462 -2.4925 -0.8866
  986MOL0     H33096   1.040   2.248   3.995 -0.3874 -2.0382  2.5522
  986MOL0     H33097   1.104   2.029   3.947  3.8525 -5.2084 -2.0028
  986MOL0     H33098   1.199   1.804   3.993 -0.5815  2.0180  1.2443
  986MOL0     H33099   1.229   1.872   4.149  2.1416  0.3878  0.9739
  986MOL0     H33100   1.452   1.707   4.003  2.0707 -1.0344  1.3919
  986MOL0     H33101   1.334   1.615   4.099  1.5502 -0.7509  2.2634
  986MOL0     H33102   1.389   1.738   4.302 -0.4780  0.0865 -1.1107
  986MOL0     H33103   1.515   1.826   4.198  2.3194 -0.2169 -0.5632
  986MOL0     H33104   1.641   1.637   4.156 -2.1898  0.9400 -2.7652
  986MOL0     H33105   1.639   1.688   4.324  1.1311 -2.8071  0.4468
  986MOL0     H33106   1.489   1.290   4.308 -0.4160  0.1525 -1.1255
  986MOL0     H33107   1.515   2.126   4.028 -1.8862 -2.3249  1.1552
  986MOL0     H33108   1.463   2.419   4.200  1.5802 -5.2266  2.5768
  986MOL0     H33109   1.591   2.341   4.100 -0.0245 -1.6698 -1.2089
  986MOL0     H33110   1.490   2.482   4.033 -2.3921  1.7006  2.6855
  987MOL0     O33111   7.424   4.980   2.347  0.7722  1.0287 -0.6204
  987MOL0     C33112   7.392   5.082   2.408  0.5163 -0.0167  0.3518
  987MOL0     O33113   7.317   5.090   2.518 -0.5428 -0.0610 -0.5195
  987MOL0     C33114   7.275   4.982   2.595  0.0298  0.1217  0.0397
  987MOL0     C33115   7.153   4.987   2.670 -0.0459 -0.6795 -0.0841
  987MOL0     C33116   7.107   4.884   2.755  0.6632  0.0834 -0.7279
  987MOL0     C33117   7.188   4.774   2.776 -0.1175  0.5158  0.3037
  987MOL0     O33118   7.158   4.664   2.851  0.3265  0.2689  0.4998
  987MOL0     C33119   7.092   4.686   2.979  0.2944 -0.0989 -0.1460
  987MOL0     C33120   7.108   4.555   3.070 -0.5469 -0.5741  0.3528
  987MOL0     C33121   7.253   4.531   3.123 -0.7433 -1.5708  0.4052
  987MOL0     C33122   7.329   4.394   3.118 -0.4420 -0.3950  0.3918
  987MOL0     C33123   7.372   4.338   2.982 -0.0843  0.5185 -0.1294
  987MOL0     C33124   7.441   4.210   3.009 -0.2313 -0.8929  0.8027
  987MOL0     C33125   7.497   4.145   2.875 -0.0973 -0.1629  0.4483
  987MOL0     C33126   7.642   4.079   2.864 -0.4477  0.1722 -0.2980
  987MOL0     N33127   7.624   3.942   2.913  0.2876 -0.1796 -0.5875
  987MOL0     C33128   7.590   3.832   2.837  0.1228  1.0394  0.3636
  987MOL0     C33129   7.583   3.735   2.938  0.1076 -0.0752  0.7215
  987MOL0     C33130   7.525   3.594   2.917 -0.3256  0.3831  0.6490
  987MOL0     C33131   7.369   3.600   2.931  0.2023  0.3909  0.2510
  987MOL0     C33132   7.315   3.476   2.855  0.3461  0.0941 -0.1129
  987MOL0     C33133   7.299   3.348   2.947  0.6869  0.3769  0.6123
  987MOL0     O33134   7.414   3.271   2.955 -0.4533  0.2539  0.5141
  987MOL0     C33135   7.417   3.172   3.050 -0.2724 -0.8761 -0.0876
  987MOL0     C33136   7.308   3.105   3.105 -0.5121  0.2645  1.1613
  987MOL0     C33137   7.329   3.012   3.204 -0.0276 -0.2317 -1.1658
  987MOL0     C33138   7.463   3.001   3.265 -0.5293  0.5156 -0.2641
  987MOL0     C33139   7.467   2.915   3.386 -0.3233 -0.5431  0.9357
  987MOL0     O33140   7.564   2.954   3.476 -0.2050 -0.3427 -0.0768
  987MOL0     C33141   7.559   2.912   3.604  0.8354  0.5855  0.3642
  987MOL0     C33142   7.625   2.984   3.697  0.3423  0.1767 -0.5521
  987MOL0     C33143   7.647   2.944   3.828 -0.6665  0.4354 -1.0508
  987MOL0     C33144   7.582   2.830   3.885 -0.0181 -0.0708 -1.0249
  987MOL0     O33145   7.588   2.802   4.021  0.2982 -0.4694  0.3244
  987MOL0     C33146   7.698   2.848   4.088  0.4158 -0.0983 -0.0072
  987MOL0     C33147   7.656   2.969   4.166 -0.1865  0.1943 -0.0944
  987MOL0     C33148   7.666   2.928   4.312  0.1641 -0.1359 -0.2972
  987MOL0     C33149   7.806   2.966   4.355  0.3266 -0.3375 -0.2119
  987MOL0     C33150   7.844   2.914   4.493 -0.5840 -0.9301  0.2386
  987MOL0     C33151   7.758   2.983   4.587 -0.1060 -0.9088 -0.7259
  987MOL0     C33152   7.847   3.009   4.725  0.5073  0.2732  0.2010
  987MOL0     C33153   7.756   3.029   4.851 -0.5599 -0.2352 -0.2446
  987MOL0    Cl33154   7.650   2.890   4.871 -0.2090 -0.1607 -0.0012
  987MOL0     C33155   7.512   2.752   3.795  0.0085  0.4092 -0.2563
  987MOL0     C33156   7.502   2.787   3.654 -1.2828 -0.2860 -0.2275
  987MOL0     O33157   7.389   2.813   3.394 -0.5700 -0.3594 -0.6038
  987MOL0     C33158   7.570   3.072   3.220  0.3907 -0.5973 -0.1818
  987MOL0     C33159   7.544   3.154   3.106 -0.7854 -0.0429 -0.2426
  987MOL0     N33160   7.630   3.787   3.056  0.9750 -0.0427  0.2662
  987MOL0     N33161   7.658   3.908   3.038 -0.1555  0.5701 -0.3273
  987MOL0     C33162   7.299   4.756   2.693 -0.7604 -0.5165 -0.3243
  987MOL0     C33163   7.347   4.860   2.614  0.5142  0.5532 -0.2207
  987MOL0     C33164   7.445   5.215   2.361  0.3339  0.4286 -0.1829
  987MOL0     C33165   7.436   5.252   2.226  0.1473 -0.1959 -0.6263
  987MOL0     C33166   7.500   5.368   2.181  0.3271 -0.4304 -0.4756
  987MOL0     C33167   7.549   5.457   2.272  0.1773 -0.9195  0.2849
  987MOL0     O33168   7.593   5.588   2.248  0.2098 -0.8517 -0.6422
  987MOL0     C33169   7.633   5.614   2.107  0.1474 -0.9148  0.4439
  987MOL0     C33170   7.509   5.642   2.023 -0.2816 -0.1915 -1.1568
  987MOL0     C33171   7.561   5.649   1.871 -0.0679 -0.0724  0.3268
  987MOL0     C33172   7.447   5.616   1.776  0.3670 -0.1504  0.3049
  987MOL0     C33173   7.388   5.482   1.784  0.2776  0.0676 -0.0210
  987MOL0     C33174   7.338   5.370   1.802  0.3841  0.9429 -0.8319
  987MOL0     C33175   7.561   5.422   2.402 -0.0995 -0.2330 -0.4235
  987MOL0     C33176   7.508   5.300   2.445 -0.6265  0.0732 -0.2476
  987MOL0     C33177   7.525   5.268   2.594 -0.1302 -0.6160  0.2397
  987MOL0     H33178   7.098   5.077   2.646  2.4735  0.9845 -0.0395
  987MOL0     H33179   7.008   4.896   2.798 -0.9333  1.1005 -4.3355
  987MOL0     H33180   7.138   4.776   3.021  0.5452  0.4204 -1.4554
  987MOL0     H33181   6.988   4.718   2.981  0.7420  1.4793  0.1775
  987MOL0     H33182   7.076   4.473   3.005 -1.1469 -0.4916  0.5336
  987MOL0     H33183   7.038   4.557   3.154  0.5226 -1.9211  1.3228
  987MOL0     H33184   7.257   4.577   3.222  0.9979  1.9976 -1.1425
  987MOL0     H33185   7.308   4.599   3.058 -3.2296  1.6980  1.4631
  987MOL0     H33186   7.419   4.409   3.178  0.8330 -2.7084 -0.8239
  987MOL0     H33187   7.273   4.311   3.162  0.8552 -0.6539  1.6112
  987MOL0     H33188   7.278   4.320   2.929  1.1692 -1.0293 -1.9760
  987MOL0     H33189   7.444   4.408   2.937  1.5989 -1.0385  0.0103
  987MOL0     H33190   7.529   4.236   3.068  0.8398  1.3151 -1.6132
  987MOL0     H33191   7.381   4.143   3.072  1.3502 -1.8916  1.2948
  987MOL0     H33192   7.510   4.224   2.801  1.4630 -2.4671 -1.8822
  987MOL0     H33193   7.432   4.070   2.829  2.8299 -1.3886 -2.0156
  987MOL0     H33194   7.682   4.068   2.762  0.8473  0.3525  0.1784
  987MOL0     H33195   7.709   4.140   2.925  0.2274 -1.4967  0.6752
  987MOL0     H33196   7.549   3.836   2.737 -0.1419 -2.6701  0.1602
  987MOL0     H33197   7.556   3.561   2.818  0.1830 -1.7976  1.4552
  987MOL0     H33198   7.564   3.530   2.997 -2.6913 -0.3261  1.3327
  987MOL0     H33199   7.338   3.615   3.035 -0.3777 -0.5164  0.2178
  987MOL0     H33200   7.340   3.685   2.869 -2.6103 -0.7473 -0.1545
  987MOL0     H33201   7.383   3.457   2.772  0.0507  0.3389 -0.4146
  987MOL0     H33202   7.222   3.521   2.819  0.6376  0.4859 -0.3790
  987MOL0     H33203   7.223   3.291   2.893  1.5559 -0.7375  0.5179
  987MOL0     H33204   7.271   3.385   3.046 -0.4877  2.1335 -0.3330
  987MOL0     H33205   7.210   3.109   3.059  0.1567 -1.4459 -0.5266
  987MOL0     H33206   7.250   2.952   3.246 -0.1564  2.0147  2.2396
  987MOL0     H33207   7.679   3.072   3.663 -0.1033  1.6799  2.3766
  987MOL0     H33208   7.723   2.990   3.890  0.6384 -1.9364 -0.7858
  987MOL0     H33209   7.731   2.770   4.158 -0.9473  0.4868  1.3273
  987MOL0     H33210   7.779   2.854   4.015 -0.3824  1.7089 -0.8074
  987MOL0     H33211   7.733   3.040   4.135  3.0090 -2.1656  1.8430
  987MOL0     H33212   7.559   3.007   4.133  0.7182  1.9825 -0.8380
  987MOL0     H33213   7.593   2.982   4.373  0.0766 -0.3552 -0.2057
  987MOL0     H33214   7.654   2.820   4.326 -0.3269 -0.2286 -1.3475
  987MOL0     H33215   7.822   3.073   4.343  2.0561 -0.5542 -0.1628
  987MOL0     H33216   7.882   2.913   4.296  0.5177 -1.4809  1.0204
  987MOL0     H33217   7.950   2.928   4.513 -0.8958 -2.9460  4.2224
  987MOL0     H33218   7.839   2.805   4.496 -3.3797 -0.8565  0.5762
  987MOL0     H33219   7.743   3.087   4.554 -0.2382 -0.2924  1.1454
  987MOL0     H33220   7.664   2.931   4.607 -0.5033  0.1606  0.3293
  987MOL0     H33221   7.896   3.104   4.704  0.6454 -0.1275 -1.4269
  987MOL0     H33222   7.922   2.933   4.753 -1.3041 -0.4578  3.6544
  987MOL0     H33223   7.808   3.040   4.946 -0.2657  1.2291 -0.5444
  987MOL0     H33224   7.698   3.122   4.845 -1.1198 -0.5494  0.2248
  987MOL0     H33225   7.475   2.655   3.824  2.0503 -1.0594 -2.2522
  987MOL0     H33226   7.451   2.715   3.590 -1.1349 -0.6880  0.1009
  987MOL0     H33227   7.665   3.068   3.271  0.6056 -0.9129 -0.6046
  987MOL0     H33228   7.633   3.202   3.067  0.7131 -2.8293 -0.4988
  987MOL0     H33229   7.368   4.675   2.713 -1.2927 -0.2326  3.5165
  987MOL0     H33230   7.442   4.846   2.563  0.5154  2.0025 -0.6817
  987MOL0     H33231   7.377   5.191   2.158  1.0880 -0.1156 -1.5381
  987MOL0     H33232   7.476   5.393   2.078 -0.5457 -1.8377 -0.6405
  987MOL0     H33233   7.686   5.527   2.066 -1.5180 -1.6912 -0.1710
  987MOL0     H33234   7.697   5.702   2.106 -0.7674 -0.2046  1.3461
  987MOL0     H33235   7.483   5.745   2.049  0.1814 -0.5840  1.0886
  987MOL0     H33236   7.432   5.576   2.063  0.9909 -0.0746  1.7765
  987MOL0     H33237   7.642   5.581   1.842 -1.1272 -1.0449 -0.4307
  987MOL0     H33238   7.596   5.752   1.858  0.5734  0.0431  2.4311
  987MOL0     H33239   7.367   5.690   1.790 -1.3866 -2.4659  3.6873
  987MOL0     H33240   7.487   5.628   1.675 -1.8255  1.4545 -0.4523
  987MOL0     H33241   7.294   5.274   1.817  1.0133  0.8062  0.2038
  987MOL0     H33242   7.598   5.499   2.469  0.6214  0.4964 -1.6149
  987MOL0     H33243   7.542   5.160   2.601  2.0773 -0.2920  0.4047
  987MOL0     H33244   7.613   5.324   2.625 -1.1242  0.7142  0.7873
  987MOL0     H33245   7.449   5.312   2.659  1.5150  1.6670  0.7097
  988MOL0     O33246   1.511   2.439  11.023  0.5020 -0.9005 -0.7156
  988MOL0     C33247   1.582   2.479  10.929 -0.1388 -0.4363  0.0185
  988MOL0     O33248   1.714   2.519  10.955  0.1595  0.1608  0.6960
  988MOL0     C33249   1.775   2.534  11.077 -0.1565  0.1830  0.1970
  988MOL0     C33250   1.740   2.490  11.213 -1.1612  0.4431 -0.1726
  988MOL0     C33251   1.824   2.509  11.323  0.5561  0.0932 -0.0898
  988MOL0     C33252   1.943   2.580  11.318 -0.4772  0.8141 -0.6165
  988MOL0     O33253   2.029   2.597  11.426 -1.1921 -0.1147 -0.3191
  988MOL0     C33254   2.007   2.558  11.563 -0.1132  0.2890 -0.0149
  988MOL0     C33255   1.979   2.686  11.652 -0.1617 -0.4447  0.1238
  988MOL0     C33256   1.833   2.730  11.618 -0.6150  0.4003 -0.0399
  988MOL0     C33257   1.799   2.858  11.685  0.0613 -0.3287 -0.1798
  988MOL0     C33258   1.653   2.895  11.700 -0.0705 -0.6226 -0.1945
  988MOL0     C33259   1.579   2.811  11.807  0.1724  0.7227 -0.0826
  988MOL0     C33260   1.456   2.883  11.860 -0.3369  0.1725  1.2110
  988MOL0     C33261   1.348   2.911  11.759 -0.1748 -0.0830  0.0257
  988MOL0     N33262   1.269   2.798  11.721 -0.4151  0.0742 -0.2046
  988MOL0     C33263   1.319   2.697  11.641  0.3099 -0.2725 -0.1594
  988MOL0     C33264   1.222   2.606  11.631 -0.6597 -0.3107 -0.0836
  988MOL0     C33265   1.217   2.484  11.543  0.6216 -0.0776  0.0026
  988MOL0     C33266   1.098   2.493  11.445 -0.8719 -0.2495  0.9974
  988MOL0     C33267   1.073   2.359  11.379 -0.4805  0.0005  0.1939
  988MOL0     C33268   0.983   2.369  11.268  0.3329 -0.0007 -0.2342
  988MOL0     O33269   0.849   2.402  11.316 -0.3840 -0.4654 -0.2711
  988MOL0     C33270   0.740   2.391  11.236  0.6670  0.8580  0.8133
  988MOL0     C33271   0.616   2.407  11.301 -0.1664  0.0479 -0.6526
  988MOL0     C33272   0.492   2.394  11.235 -0.1582 -0.4520  0.1493
  988MOL0     C33273   0.493   2.362  11.099  0.0683  0.7145  0.3192
  988MOL0     C33274   0.367   2.349  11.023  0.0442  0.3306 -0.1415
  988MOL0     O33275   0.362   2.260  10.914  0.3573 -0.4516 -0.4657
  988MOL0     C33276   0.267   2.286  10.828 -0.0152  0.2804  0.6318
  988MOL0     C33277   0.247   2.414  10.766 -0.4244  0.0581  0.1099
  988MOL0     C33278   0.145   2.421  10.672  0.4647 -0.0308 -0.0561
  988MOL0     C33279   0.058   2.308  10.640  0.3401 -0.5017 -0.2563
  988MOL0     O33280  -0.057   2.310  10.553 -0.4695 -0.5648  0.5280
  988MOL0     C33281  -0.098   2.441  10.485  0.4020  0.5382 -1.3349
  988MOL0     C33282  -0.166   2.528  10.586  0.3146 -0.0857 -0.0444
  988MOL0     C33283  -0.226   2.655  10.527 -0.0634 -0.0495  0.0246
  988MOL0     C33284  -0.301   2.737  10.630  0.5883 -0.4920 -0.8239
  988MOL0     C33285  -0.355   2.870  10.581 -0.1395  0.1004 -0.1886
  988MOL0     C33286  -0.439   2.963  10.682  0.6970  0.4777  0.0894
  988MOL0     C33287  -0.557   2.883  10.749  0.1508  0.2719  0.3903
  988MOL0     C33288  -0.646   2.956  10.855  0.6052  0.5111  0.4808
  988MOL0    Cl33289  -0.787   2.863  10.864 -0.1618  0.2268 -0.2751
  988MOL0     C33290   0.098   2.186  10.682 -0.2114 -0.0704 -0.4525
  988MOL0     C33291   0.197   2.171  10.779 -1.0231 -0.1153 -0.0938
  988MOL0     O33292   0.275   2.428  11.059 -0.2505  0.0954  0.0198
  988MOL0     C33293   0.613   2.339  11.027 -0.0339  0.4740 -0.0430
  988MOL0     C33294   0.733   2.351  11.097 -0.2319  0.7772 -0.4641
  988MOL0     N33295   1.114   2.653  11.704  0.3383 -0.6010  0.4568
  988MOL0     N33296   1.145   2.772  11.753  0.6437  0.0984 -0.2066
  988MOL0     C33297   1.977   2.619  11.184 -0.5333 -0.2087 -0.3000
  988MOL0     C33298   1.899   2.590  11.071 -0.9237  0.3692 -0.2120
  988MOL0     C33299   1.528   2.486  10.791 -0.4090 -0.2135 -0.3669
  988MOL0     C33300   1.400   2.438  10.773 -0.7730 -0.2474  0.5830
  988MOL0     C33301   1.347   2.419  10.641 -0.3849 -0.6157  1.1370
  988MOL0     C33302   1.402   2.486  10.534  0.1657  0.4112  0.8664
  988MOL0     O33303   1.332   2.478  10.418  0.3416  0.0370  0.6519
  988MOL0     C33304   1.380   2.544  10.294 -0.3026  0.7526  0.1725
  988MOL0     C33305   1.283   2.559  10.173 -0.3051  1.0878  0.0814
  988MOL0     C33306   1.155   2.649  10.184 -0.0600  0.4434  0.1075
  988MOL0     C33307   1.117   2.689  10.046 -1.1552 -0.6210 -0.2979
  988MOL0     C33308   1.208   2.804  10.014  0.5958 -1.1107 -0.1933
  988MOL0     C33309   1.267   2.891   9.972 -0.8496  0.2590  0.4290
  988MOL0     C33310   1.524   2.546  10.556 -0.0182 -0.2299  0.3967
  988MOL0     C33311   1.593   2.536  10.678  0.5696 -0.1895 -0.2957
  988MOL0     C33312   1.740   2.586  10.672 -0.3342 -0.4155  0.4283
  988MOL0     H33313   1.645   2.439  11.223 -0.3245 -1.5883 -1.7974
  988MOL0     H33314   1.770   2.471  11.410 -2.1842  2.3007 -0.6750
  988MOL0     H33315   1.916   2.499  11.581 -0.5484  1.3212  1.4842
  988MOL0     H33316   2.096   2.503  11.593  0.4282  2.5886  3.2379
  988MOL0     H33317   2.052   2.762  11.622  0.7945 -0.9711  1.0434
  988MOL0     H33318   1.985   2.668  11.760 -1.7745  0.6384  0.4203
  988MOL0     H33319   1.753   2.660  11.642 -1.6374  0.8757 -1.8940
  988MOL0     H33320   1.826   2.751  11.511  0.1921  1.5353  0.1084
  988MOL0     H33321   1.831   2.863  11.789 -1.2261  2.1583  0.1796
  988MOL0     H33322   1.842   2.950  11.643 -0.5550  0.7510  1.4696
  988MOL0     H33323   1.646   3.003  11.718  2.1338 -0.5915  0.7564
  988MOL0     H33324   1.607   2.878  11.602  1.7559 -4.2195 -0.5915
  988MOL0     H33325   1.563   2.711  11.765 -0.9760  0.8060  0.1215
  988MOL0     H33326   1.643   2.798  11.895 -0.3461 -0.6215  0.1194
  988MOL0     H33327   1.506   2.974  11.893  1.7590 -0.7107  0.6590
  988MOL0     H33328   1.404   2.830  11.941 -0.5642 -2.0595 -0.3065
  988MOL0     H33329   1.278   2.983  11.802  0.3037  0.9312 -0.8613
  988MOL0     H33330   1.386   2.959  11.668 -2.6308 -2.7156 -2.6240
  988MOL0     H33331   1.415   2.685  11.592  1.0371  0.9022  0.9352
  988MOL0     H33332   1.318   2.466  11.503  0.3095  0.6426 -1.1486
  988MOL0     H33333   1.189   2.400  11.608 -3.2782  0.2329 -1.0763
  988MOL0     H33334   1.004   2.520  11.494 -2.0674 -1.3387 -0.5912
  988MOL0     H33335   1.128   2.568  11.371  0.7001 -0.8927  0.9486
  988MOL0     H33336   1.046   2.285  11.454  2.7663 -0.5424  0.9616
  988MOL0     H33337   1.170   2.323  11.344 -0.4712  1.4291 -1.4128
  988MOL0     H33338   0.970   2.269  11.227 -1.5685  0.1858 -0.1734
  988MOL0     H33339   1.020   2.441  11.195  1.3251 -1.8733 -1.6685
  988MOL0     H33340   0.624   2.435  11.405  0.9854 -2.4330 -0.0057
  988MOL0     H33341   0.405   2.419  11.295 -0.2050  2.3954 -0.9447
  988MOL0     H33342   0.317   2.493  10.792 -0.3457  0.3773 -1.0292
  988MOL0     H33343   0.133   2.511  10.612 -1.4695 -2.1040 -3.1140
  988MOL0     H33344  -0.012   2.494  10.442 -0.0247  1.1490 -1.4447
  988MOL0     H33345  -0.166   2.423  10.401  0.3344 -1.5401 -0.8894
  988MOL0     H33346  -0.247   2.473  10.635  1.3254 -1.0422  0.5810
  988MOL0     H33347  -0.088   2.549  10.660 -1.0249 -0.7061  1.6043
  988MOL0     H33348  -0.145   2.718  10.488 -2.1291  2.5198 -0.4201
  988MOL0     H33349  -0.304   2.645  10.451 -1.1738  0.7111  1.0117
  988MOL0     H33350  -0.239   2.754  10.718 -1.5840  2.0114  0.3618
  988MOL0     H33351  -0.388   2.683  10.669  0.3434  1.3732  1.3836
  988MOL0     H33352  -0.419   2.857  10.493  0.7311  1.7547 -1.1146
  988MOL0     H33353  -0.270   2.931  10.549 -0.2021 -0.2364 -1.0371
  988MOL0     H33354  -0.376   3.001  10.763 -0.0267 -0.3956  1.1002
  988MOL0     H33355  -0.480   3.055  10.640 -0.2388  0.3303  0.6526
  988MOL0     H33356  -0.511   2.796  10.797  3.1241  1.7686  0.5362
  988MOL0     H33357  -0.622   2.853  10.667 -1.0405  0.7588  1.1339
  988MOL0     H33358  -0.605   2.968  10.956  0.9497 -0.4982  0.4713
  988MOL0     H33359  -0.680   3.052  10.816  2.1030  0.6628 -0.5294
  988MOL0     H33360   0.054   2.091  10.652  2.8120 -2.3952  1.7699
  988MOL0     H33361   0.238   2.071  10.791  0.0979  0.4345  0.8497
  988MOL0     H33362   0.615   2.323  10.920  0.2114  0.2460 -0.0066
  988MOL0     H33363   0.831   2.329  11.057  0.1001  1.4530 -0.0311
  988MOL0     H33364   2.067   2.680  11.182 -0.8892  0.4730  1.8677
  988MOL0     H33365   1.926   2.628  10.973  3.5134  0.9972  1.0236
  988MOL0     H33366   1.347   2.401  10.860 -2.9222 -3.0980 -1.7211
  988MOL0     H33367   1.265   2.348  10.649 -0.4305 -0.6917  0.1507
  988MOL0     H33368   1.465   2.483  10.263 -1.1399  0.4190 -1.5518
  988MOL0     H33369   1.432   2.639  10.309  0.7174  0.4596 -1.3663
  988MOL0     H33370   1.263   2.455  10.144  1.9452  0.6019  0.0752
  988MOL0     H33371   1.346   2.599  10.093  1.7843  0.0455  1.1086
  988MOL0     H33372   1.169   2.736  10.249  3.5117 -1.3828  2.1047
  988MOL0     H33373   1.076   2.584  10.223 -0.3828  1.4110  1.1189
  988MOL0     H33374   1.117   2.618   9.962  0.1119  0.5404 -1.3253
  988MOL0     H33375   1.014   2.724  10.039 -0.5275  1.3229 -0.2511
  988MOL0     H33376   1.319   2.976   9.933  1.0261 -0.3454  1.5152
  988MOL0     H33377   1.570   2.577  10.462  0.8941 -0.7206  0.6644
  988MOL0     H33378   1.800   2.498  10.694 -1.6556 -1.6090 -0.5494
  988MOL0     H33379   1.774   2.615  10.572  1.1074 -2.6920  0.1881
  988MOL0     H33380   1.758   2.663  10.748  0.0066 -1.5507  1.5209
  989MOL0     O33381   5.191   1.233   9.973  0.7629  0.5975  0.8290
  989MOL0     C33382   5.227   1.321  10.042 -1.4288  0.5597  0.2320
  989MOL0     O33383   5.167   1.365  10.157 -0.4175 -0.0042  0.7435
  989MOL0     C33384   5.135   1.283  10.253  0.5669  0.8184  0.3772
  989MOL0     C33385   5.165   1.154  10.255 -0.2865  0.9289 -0.1746
  989MOL0     C33386   5.129   1.068  10.360  0.7741  1.1333  0.1671
  989MOL0     C33387   5.056   1.118  10.467 -0.2478  0.2152 -0.2587
  989MOL0     O33388   5.006   1.032  10.565 -0.7265 -0.9988 -1.2555
  989MOL0     C33389   5.000   0.897  10.545 -0.1222 -0.4883  0.0265
  989MOL0     C33390   4.922   0.836  10.663  0.7061  0.5191 -0.3134
  989MOL0     C33391   4.970   0.890  10.792 -0.0616 -1.2892  0.3707
  989MOL0     C33392   4.882   0.850  10.902  0.3254  0.2167  0.8946
  989MOL0     C33393   4.915   0.907  11.033  0.2993 -0.6978  0.1824
  989MOL0     C33394   4.843   0.847  11.149  0.5894 -0.8947 -1.2953
  989MOL0     C33395   4.890   0.905  11.289 -0.6772  0.0539 -0.6636
  989MOL0     C33396   4.861   0.808  11.406  0.2563  0.3114  0.9007
  989MOL0     N33397   4.857   0.877  11.532 -0.4523 -0.4866  0.5158
  989MOL0     C33398   4.752   0.968  11.570  0.0964  0.1629 -0.3277
  989MOL0     C33399   4.809   1.018  11.688 -0.1773 -0.2288  0.5666
  989MOL0     C33400   4.740   1.116  11.781 -0.6420  0.2189  0.1071
  989MOL0     C33401   4.703   1.067  11.918 -0.4796  0.2522 -0.1343
  989MOL0     C33402   4.803   1.117  12.027  0.3850  0.6690 -0.1184
  989MOL0     C33403   4.778   1.044  12.161 -0.2387 -0.8926 -0.2602
  989MOL0     O33404   4.667   1.113  12.224  0.0847 -0.0223 -0.7610
  989MOL0     C33405   4.641   1.075  12.349  0.3078 -0.3762  0.5992
  989MOL0     C33406   4.512   1.053  12.400 -0.6416  0.4686  0.1946
  989MOL0     C33407   4.479   1.002  12.527 -0.0829  0.1773 -0.6978
  989MOL0     C33408   4.574   0.981  12.618 -0.6645  0.2815 -0.1840
  989MOL0     C33409   4.533   0.925  12.751 -0.6421 -0.1604 -0.2349
  989MOL0     O33410   4.409   0.879  12.760 -0.0961 -0.1845 -0.4492
  989MOL0     C33411   4.343   0.848  12.875 -0.2079  0.0968  0.7684
  989MOL0     C33412   4.394   0.850  13.008  0.0896 -0.6708  0.6697
  989MOL0     C33413   4.320   0.821  13.121 -0.3033 -0.5790  0.5094
  989MOL0     C33414   4.182   0.789  13.102 -0.0485  1.0818  0.7100
  989MOL0     O33415   4.089   0.764  13.197 -0.4849  0.3929  0.2433
  989MOL0     C33416   4.145   0.753  13.325  0.3234 -0.4252  0.6670
  989MOL0     C33417   4.020   0.713  13.408 -0.0529 -0.6480 -0.0717
  989MOL0     C33418   3.979   0.573  13.407  0.3220 -0.2211 -0.0312
  989MOL0     C33419   3.865   0.538  13.508  0.5386  0.0553 -0.4216
  989MOL0     C33420   3.802   0.401  13.521 -1.3137  0.0925 -0.4254
  989MOL0     C33421   3.644   0.403  13.559 -0.4554  0.4380  0.2978
  989MOL0     C33422   3.580   0.268  13.562  0.1073  0.5222 -0.1937
  989MOL0     C33423   3.636   0.151  13.638  0.2369  0.3052  0.1206
  989MOL0    Cl33424   3.638   0.190  13.814 -0.3823 -0.2933  0.0787
  989MOL0     C33425   4.130   0.786  12.968 -0.8802  0.1760  0.8129
  989MOL0     C33426   4.214   0.810  12.865  0.7964 -0.3672  0.3131
  989MOL0     O33427   4.627   0.904  12.826  0.9799 -0.1260  0.8770
  989MOL0     C33428   4.706   1.016  12.583 -1.1987 -0.2784  0.2886
  989MOL0     C33429   4.741   1.063  12.446 -0.1719  0.7146 -0.0300
  989MOL0     N33430   4.942   0.978  11.706 -0.4454  1.0425  0.0545
  989MOL0     N33431   4.970   0.895  11.613 -0.6167  0.6689 -0.4601
  989MOL0     C33432   5.018   1.251  10.467 -0.3965 -1.6613  0.6718
  989MOL0     C33433   5.058   1.331  10.356  0.5551 -0.2957 -0.4070
  989MOL0     C33434   5.344   1.407   9.994 -0.4789 -0.5040 -0.1148
  989MOL0     C33435   5.371   1.406   9.854  1.2430  0.4704  0.2077
  989MOL0     C33436   5.478   1.455   9.787  0.2505  0.2988  0.4296
  989MOL0     C33437   5.573   1.527   9.871  0.1572 -0.2106  0.1734
  989MOL0     O33438   5.697   1.568   9.824 -0.6841 -0.3388 -0.3033
  989MOL0     C33439   5.725   1.534   9.695 -0.7405 -0.2437  0.1878
  989MOL0     C33440   5.856   1.597   9.637 -0.5301 -0.9433  1.0259
  989MOL0     C33441   5.984   1.531   9.691 -0.0114 -0.1585 -0.0797
  989MOL0     C33442   6.108   1.616   9.640 -0.0924  0.6431 -0.7247
  989MOL0     C33443   6.235   1.596   9.718  0.1988 -0.3108 -0.4744
  989MOL0     C33444   6.334   1.587   9.780  0.3047  1.4988 -0.7167
  989MOL0     C33445   5.541   1.548  10.006 -0.1271  0.4437  0.1094
  989MOL0     C33446   5.435   1.490  10.065 -0.8430 -0.3512  1.0089
  989MOL0     C33447   5.422   1.530  10.206  0.1115  0.2368 -0.4163
  989MOL0     H33448   5.223   1.123  10.169  2.4895 -1.1902  2.2215
  989MOL0     H33449   5.143   0.961  10.351 -1.0681  0.4593  3.4987
  989MOL0     H33450   4.942   0.874  10.455 -3.1278 -1.6584  2.0897
  989MOL0     H33451   5.096   0.844  10.536  0.5255 -0.2070  3.8034
  989MOL0     H33452   4.948   0.730  10.661 -1.1512 -0.0510 -4.4743
  989MOL0     H33453   4.815   0.860  10.654  0.4795 -0.9484 -2.1025
  989MOL0     H33454   4.942   0.996  10.798 -0.0762 -1.2118 -0.9509
  989MOL0     H33455   5.076   0.863  10.796  0.0811 -1.2545 -2.0116
  989MOL0     H33456   4.780   0.881  10.878 -0.1907 -1.5413  0.6657
  989MOL0     H33457   4.889   0.741  10.902  1.8482  0.0458 -4.3011
  989MOL0     H33458   5.021   0.884  11.051  0.4242 -0.0494  0.2889
  989MOL0     H33459   4.910   1.016  11.038 -0.8984 -0.6118 -1.8699
  989MOL0     H33460   4.734   0.860  11.143  0.8720  1.3012 -2.7467
  989MOL0     H33461   4.865   0.740  11.143  0.6617 -0.9171 -0.6942
  989MOL0     H33462   4.831   0.994  11.313  2.1647  1.2352  2.8719
  989MOL0     H33463   4.997   0.923  11.297 -0.6732 -0.7205  3.1984
  989MOL0     H33464   4.756   0.775  11.406 -0.3430  2.1165  1.7012
  989MOL0     H33465   4.929   0.724  11.387  0.7204  1.3105 -2.5650
  989MOL0     H33466   4.653   0.992  11.532  0.6352  0.3942 -1.6455
  989MOL0     H33467   4.805   1.201  11.803 -0.7943  0.3368  0.0982
  989MOL0     H33468   4.644   1.156  11.748 -1.1007 -1.2782 -0.4493
  989MOL0     H33469   4.609   1.106  11.956 -0.6556 -0.3000  0.0156
  989MOL0     H33470   4.693   0.958  11.931  5.5075 -0.6713 -0.3230
  989MOL0     H33471   4.790   1.224  12.039 -1.2180  0.3694  1.2356
  989MOL0     H33472   4.900   1.085  11.988 -0.0953 -1.8022  0.5346
  989MOL0     H33473   4.873   1.049  12.216  0.7609  0.1287 -2.0209
  989MOL0     H33474   4.748   0.938  12.158  0.3224 -1.0363 -1.3319
  989MOL0     H33475   4.434   1.064  12.325  0.9280  0.3908 -1.5317
  989MOL0     H33476   4.373   0.995  12.550  0.0169 -3.5632 -0.7977
  989MOL0     H33477   4.500   0.871  13.008  0.6726 -2.3457 -3.8646
  989MOL0     H33478   4.360   0.829  13.221 -2.1468  1.7977  1.1274
  989MOL0     H33479   4.229   0.683  13.332 -0.5814 -1.3913  2.8457
  989MOL0     H33480   4.172   0.851  13.365  2.3147 -2.0553  3.7331
  989MOL0     H33481   4.056   0.737  13.508 -0.3345  2.5658 -0.6288
  989MOL0     H33482   3.925   0.766  13.394  0.4548  0.4857  0.7045
  989MOL0     H33483   3.952   0.551  13.303  2.8727 -1.0364 -0.5849
  989MOL0     H33484   4.061   0.507  13.437  0.2780  0.0309  0.6534
  989MOL0     H33485   3.775   0.595  13.482 -0.2878  0.1746  2.3193
  989MOL0     H33486   3.878   0.584  13.606 -2.3355 -1.0314  0.6051
  989MOL0     H33487   3.860   0.337  13.589 -1.2202 -3.2150 -3.3054
  989MOL0     H33488   3.807   0.345  13.427 -0.5072  0.6008 -0.6887
  989MOL0     H33489   3.635   0.443  13.660 -1.8940  2.6630 -0.6376
  989MOL0     H33490   3.595   0.471  13.489  1.7167  0.5787 -1.2221
  989MOL0     H33491   3.567   0.231  13.460 -0.5100 -0.2573  0.1663
  989MOL0     H33492   3.477   0.278  13.596  0.1633 -3.2470  1.5675
  989MOL0     H33493   3.557   0.078  13.620 -0.4254  1.0359 -0.0258
  989MOL0     H33494   3.739   0.120  13.618  0.3908 -0.1183  1.4998
  989MOL0     H33495   4.029   0.755  12.943 -0.3981  1.1630 -2.8951
  989MOL0     H33496   4.168   0.793  12.768  2.4861  2.4814 -1.1393
  989MOL0     H33497   4.790   1.002  12.651  2.4539 -1.3987 -3.9400
  989MOL0     H33498   4.844   1.094  12.428  0.6805  0.6127  3.6746
  989MOL0     H33499   4.969   1.294  10.554 -2.2373 -0.0833 -1.0668
  989MOL0     H33500   5.033   1.437  10.348 -2.1403 -0.5206  2.9228
  989MOL0     H33501   5.304   1.359   9.783  1.7288  0.3600 -0.1829
  989MOL0     H33502   5.476   1.455   9.679  2.7246 -1.7474  0.2854
  989MOL0     H33503   5.649   1.575   9.627 -0.0134 -2.1488 -1.8777
  989MOL0     H33504   5.711   1.427   9.679 -0.8956  0.0499 -1.7997
  989MOL0     H33505   5.843   1.700   9.672  1.0267  0.1898 -1.4510
  989MOL0     H33506   5.873   1.597   9.529  2.1379 -0.9745  1.3765
  989MOL0     H33507   5.990   1.431   9.647  0.0571  0.5002 -1.6509
  989MOL0     H33508   5.970   1.517   9.798 -1.4124 -2.0149 -0.4542
  989MOL0     H33509   6.128   1.612   9.533  0.8340  2.3589 -0.6556
  989MOL0     H33510   6.075   1.719   9.661  0.4051  1.1446 -2.3022
  989MOL0     H33511   6.423   1.569   9.836 -2.0778  0.2248  3.0402
  989MOL0     H33512   5.621   1.599  10.058 -2.4242  3.1374  1.2712
  989MOL0     H33513   5.396   1.442  10.265 -0.9926 -0.5227 -1.9548
  989MOL0     H33514   5.511   1.582  10.243  0.5767  1.2810 -2.7979
  989MOL0     H33515   5.344   1.607  10.211  0.0672  0.1682 -0.0736
  990MOL0     O33516   8.540   4.043   2.659 -0.3417 -0.9713  0.2376
  990MOL0     C33517   8.494   4.082   2.551  0.4233 -0.3733  0.0717
  990MOL0     O33518   8.527   4.029   2.431 -0.0975  0.2500  0.6420
  990MOL0     C33519   8.618   3.927   2.430  0.0323 -0.5815  0.1997
  990MOL0     C33520   8.594   3.808   2.497 -0.3011 -0.0795  0.2486
  990MOL0     C33521   8.684   3.700   2.485 -0.3622 -0.6754  0.1419
  990MOL0     C33522   8.802   3.712   2.409  0.1512  0.0991 -0.0348
  990MOL0     O33523   8.861   3.590   2.374  0.7895 -0.5492 -0.2118
  990MOL0     C33524   9.006   3.583   2.364  0.3278 -0.7637  0.3223
  990MOL0     C33525   9.023   3.525   2.218  0.2182  0.1876 -0.6095
  990MOL0     C33526   9.170   3.524   2.176 -0.5999  0.1973  0.5339
  990MOL0     C33527   9.247   3.397   2.218 -0.7384  0.3400 -0.7535
  990MOL0     C33528   9.380   3.374   2.143 -0.6902 -0.1978 -0.1876
  990MOL0     C33529   9.490   3.484   2.145 -0.2344 -0.1638 -0.6498
  990MOL0     C33530   9.522   3.549   2.277  0.1934 -0.1755  0.2877
  990MOL0     C33531   9.598   3.676   2.250  0.5248 -1.1788  0.3895
  990MOL0     N33532   9.514   3.792   2.235  0.3819 -0.3171  1.0029
  990MOL0     C33533   9.480   3.834   2.115 -0.0693  0.1283  0.7167
  990MOL0     C33534   9.413   3.950   2.135 -0.3417 -0.3997 -0.3788
  990MOL0     C33535   9.323   4.014   2.038  0.3255  0.1218 -1.1066
  990MOL0     C33536   9.313   4.157   2.063  0.4239 -0.2280 -0.7322
  990MOL0     C33537   9.439   4.228   2.014 -0.1473  0.7195 -0.3573
  990MOL0     C33538   9.397   4.377   2.027 -0.9770 -0.6289  0.8444
  990MOL0     O33539   9.509   4.449   1.974  0.1518 -0.6824  0.5327
  990MOL0     C33540   9.533   4.465   1.837 -0.8004 -0.5133 -1.1541
  990MOL0     C33541   9.446   4.423   1.735  0.2569  0.6626 -0.4515
  990MOL0     C33542   9.487   4.439   1.603 -0.9477 -0.0312 -0.9295
  990MOL0     C33543   9.608   4.503   1.573  0.7725  0.3760  0.9024
  990MOL0     C33544   9.643   4.498   1.430  0.2654 -0.7356 -0.4172
  990MOL0     O33545   9.774   4.541   1.401  0.4817 -0.3892 -0.6665
  990MOL0     C33546   9.805   4.536   1.270 -0.2883 -0.1426 -0.6034
  990MOL0     C33547   9.848   4.659   1.210 -0.3876  0.1661 -0.3764
  990MOL0     C33548   9.891   4.672   1.083 -0.5976  0.2772  0.7513
  990MOL0     C33549   9.900   4.555   1.009 -0.7233  0.0347  0.9949
  990MOL0     O33550   9.952   4.550   0.876  0.8702  0.9643 -0.2758
  990MOL0     C33551   9.953   4.669   0.791 -1.0748  0.2932 -0.4240
  990MOL0     C33552  10.021   4.631   0.654  0.4305 -0.0393 -0.2290
  990MOL0     C33553   9.970   4.489   0.610  0.1418 -0.9631  1.1927
  990MOL0     C33554   9.826   4.487   0.567 -0.2420 -0.6594 -0.1896
  990MOL0     C33555   9.760   4.350   0.547 -0.2786  0.0102  0.2871
  990MOL0     C33556   9.794   4.283   0.413  0.0670 -0.0148 -0.8822
  990MOL0     C33557   9.741   4.132   0.399  0.0967  0.1181  0.3388
  990MOL0     C33558   9.583   4.139   0.372 -0.1719 -0.2656 -0.0046
  990MOL0    Cl33559   9.478   4.000   0.383  0.5132 -0.0965  0.4055
  990MOL0     C33560   9.854   4.434   1.060  0.7800  0.9316  0.0316
  990MOL0     C33561   9.807   4.421   1.189  1.0538  0.5199 -0.7383
  990MOL0     O33562   9.565   4.447   1.355 -0.2893  0.0864  1.0701
  990MOL0     C33563   9.681   4.561   1.672 -0.6757 -0.4708 -0.0860
  990MOL0     C33564   9.649   4.533   1.802 -0.4552  0.3823 -0.0127
  990MOL0     N33565   9.429   3.983   2.270 -0.2353  0.3169 -0.1789
  990MOL0     N33566   9.488   3.887   2.327  0.3508  0.3494 -0.3521
  990MOL0     C33567   8.839   3.845   2.357  0.4973 -0.4766 -0.3425
  990MOL0     C33568   8.740   3.953   2.361 -0.0679 -0.1380 -0.5220
  990MOL0     C33569   8.386   4.182   2.560 -0.3450  0.5822  0.0826
  990MOL0     C33570   8.370   4.266   2.442 -0.3929  0.1618 -1.0815
  990MOL0     C33571   8.259   4.352   2.436 -0.7158 -0.0659  0.5459
  990MOL0     C33572   8.155   4.364   2.531  0.0143 -0.7151  1.2390
  990MOL0     O33573   8.056   4.462   2.520  0.3794 -0.1844  0.4682
  990MOL0     C33574   7.919   4.422   2.551 -0.7494  0.4578  0.3845
  990MOL0     C33575   7.848   4.547   2.603 -0.3892  0.7053 -0.1765
  990MOL0     C33576   7.693   4.533   2.618  0.2586 -0.0766 -0.5436
  990MOL0     C33577   7.633   4.503   2.486  0.1905  0.5476  0.6682
  990MOL0     C33578   7.485   4.479   2.489  0.0038 -1.5247 -0.7488
  990MOL0     C33579   7.373   4.475   2.527  0.8815  0.2817  0.3313
  990MOL0     C33580   8.172   4.284   2.650 -0.9464  0.2151  0.6341
  990MOL0     C33581   8.282   4.193   2.664 -0.8873  0.0528  1.2153
  990MOL0     C33582   8.302   4.122   2.792  0.6724 -0.2022  0.1248
  990MOL0     H33583   8.497   3.792   2.544 -0.5030  0.1044 -0.0936
  990MOL0     H33584   8.663   3.604   2.532 -0.0365 -0.8534 -0.0815
  990MOL0     H33585   9.050   3.683   2.365  1.8136 -1.3908  1.1025
  990MOL0     H33586   9.063   3.518   2.431 -0.4385 -0.2655  1.4936
  990MOL0     H33587   8.971   3.594   2.151  1.5178  1.6134 -0.1881
  990MOL0     H33588   8.963   3.434   2.204 -2.0823  1.4505  0.3935
  990MOL0     H33589   9.210   3.615   2.220  1.6532 -0.8946  0.9067
  990MOL0     H33590   9.190   3.536   2.069  0.0202  2.3024  0.8483
  990MOL0     H33591   9.280   3.400   2.322  2.5492 -3.8159 -1.4269
  990MOL0     H33592   9.180   3.312   2.204 -0.0666 -0.1407 -1.0767
  990MOL0     H33593   9.419   3.279   2.179  1.1915 -0.8717 -3.5651
  990MOL0     H33594   9.360   3.363   2.036  0.2314 -1.5566 -0.2427
  990MOL0     H33595   9.584   3.440   2.112  0.0408  0.3323 -0.5377
  990MOL0     H33596   9.478   3.550   2.058  0.6973 -0.4517 -1.0036
  990MOL0     H33597   9.591   3.492   2.340  2.8900  0.9145 -1.5055
  990MOL0     H33598   9.426   3.567   2.325  0.6375 -0.7813  1.4450
  990MOL0     H33599   9.665   3.687   2.336  2.0371  0.5233 -0.9240
  990MOL0     H33600   9.654   3.673   2.156  1.7259  1.9532  0.8499
  990MOL0     H33601   9.485   3.773   2.026 -2.1350  2.2511 -0.9804
  990MOL0     H33602   9.361   4.011   1.936 -3.7338 -1.7704 -2.7656
  990MOL0     H33603   9.224   3.968   2.043  0.8210 -0.8661  1.0267
  990MOL0     H33604   9.224   4.184   2.005 -0.4182 -1.3434  0.0116
  990MOL0     H33605   9.300   4.178   2.169  0.9091 -3.9446  0.1730
  990MOL0     H33606   9.476   4.206   1.913  4.4018  0.1066  1.2118
  990MOL0     H33607   9.512   4.192   2.086  0.7852  1.5462 -0.8589
  990MOL0     H33608   9.396   4.409   2.131  1.1671 -1.1113  1.0630
  990MOL0     H33609   9.301   4.396   1.979  0.4815  0.5488 -1.9095
  990MOL0     H33610   9.349   4.376   1.754 -0.0165  1.3380 -0.1532
  990MOL0     H33611   9.418   4.400   1.529 -0.1272 -1.0569 -1.1682
  990MOL0     H33612   9.832   4.738   1.283 -2.1839 -0.3696 -0.1230
  990MOL0     H33613   9.929   4.759   1.031  1.0626 -2.0455 -2.2592
  990MOL0     H33614   9.855   4.712   0.770 -2.7559 -2.5008  1.0493
  990MOL0     H33615  10.031   4.739   0.822  1.1785 -1.8859 -0.8618
  990MOL0     H33616  10.009   4.701   0.571  2.3519 -0.0268 -0.5526
  990MOL0     H33617  10.130   4.629   0.666  0.3455  1.5191  1.2247
  990MOL0     H33618  10.035   4.459   0.527  0.1355 -0.0926  0.8538
  990MOL0     H33619   9.987   4.414   0.688  0.7966 -1.8035  0.2635
  990MOL0     H33620   9.807   4.544   0.476 -2.1888 -1.4986 -0.3637
  990MOL0     H33621   9.759   4.542   0.633 -0.0775  0.9144 -1.2761
  990MOL0     H33622   9.652   4.366   0.548 -0.2603  0.6295 -2.2671
  990MOL0     H33623   9.788   4.276   0.624 -1.7835 -0.6537  0.2160
  990MOL0     H33624   9.751   4.338   0.329  0.1746 -0.4710 -1.2441
  990MOL0     H33625   9.902   4.284   0.394 -0.1375  1.9641 -2.2850
  990MOL0     H33626   9.754   4.086   0.498  0.2539  2.4473  1.4517
  990MOL0     H33627   9.776   4.080   0.310  0.0477  1.8265 -0.7223
  990MOL0     H33628   9.532   4.211   0.437 -1.5079 -3.3561  2.6575
  990MOL0     H33629   9.566   4.185   0.274  0.0589 -0.1808 -0.0060
  990MOL0     H33630   9.860   4.340   1.008  0.3092  0.4182  0.8875
  990MOL0     H33631   9.796   4.319   1.222  3.3109  0.5160  0.1854
  990MOL0     H33632   9.778   4.604   1.650 -0.4582 -1.4061 -1.0758
  990MOL0     H33633   9.720   4.567   1.876 -1.4373  0.7439  0.7856
  990MOL0     H33634   8.931   3.874   2.305  0.0978 -0.6198 -1.1460
  990MOL0     H33635   8.751   4.050   2.312  0.5066  0.0827  0.0314
  990MOL0     H33636   8.452   4.271   2.372  2.9485 -2.8884  2.1989
  990MOL0     H33637   8.257   4.417   2.349  0.6717 -0.1253  0.4448
  990MOL0     H33638   7.907   4.336   2.618 -0.9067  0.0241 -0.1988
  990MOL0     H33639   7.881   4.384   2.456  0.8083  0.5705 -0.3096
  990MOL0     H33640   7.861   4.618   2.521  0.0302  0.7119 -0.1060
  990MOL0     H33641   7.896   4.565   2.699  0.5531 -0.1922 -0.4602
  990MOL0     H33642   7.653   4.625   2.661 -2.0730 -1.8400  1.3749
  990MOL0     H33643   7.658   4.453   2.684 -3.9884  0.8139 -1.4711
  990MOL0     H33644   7.656   4.590   2.423  0.0635 -0.0596 -0.2439
  990MOL0     H33645   7.670   4.417   2.429  2.3922  2.9768 -1.8455
  990MOL0     H33646   7.270   4.488   2.555  1.0832  1.7203  0.4650
  990MOL0     H33647   8.118   4.300   2.743  2.4842  0.2927  2.7836
  990MOL0     H33648   8.316   4.014   2.778  1.2642 -0.4442  2.3594
  990MOL0     H33649   8.387   4.162   2.847 -1.1753  0.9878  2.2464
  990MOL0     H33650   8.222   4.140   2.864  1.3453  0.5016  0.7031
  991MOL0     O33651   5.978   6.408  10.704 -1.2661 -0.0726  0.1319
  991MOL0     C33652   6.015   6.372  10.819 -0.3103 -0.6920  0.9712
  991MOL0     O33653   5.980   6.265  10.886 -0.5993  0.4223  0.3833
  991MOL0     C33654   5.935   6.158  10.826  0.1411  0.7865  0.1434
  991MOL0     C33655   5.808   6.152  10.764 -0.8482  0.5459 -0.8462
  991MOL0     C33656   5.779   6.042  10.689  1.0355  0.0228  0.2266
  991MOL0     C33657   5.849   5.929  10.688  0.9886 -0.0822 -1.0944
  991MOL0     O33658   5.817   5.819  10.614 -0.6786 -0.0666 -0.2606
  991MOL0     C33659   5.727   5.739  10.691 -0.0668  0.1294  0.0569
  991MOL0     C33660   5.624   5.675  10.603 -0.3105  0.3644  0.3971
  991MOL0     C33661   5.670   5.561  10.514 -0.3674 -0.2952  0.2854
  991MOL0     C33662   5.563   5.472  10.450 -0.0621  0.4168 -0.2384
  991MOL0     C33663   5.632   5.364  10.367  0.0407 -0.6331 -0.5377
  991MOL0     C33664   5.541   5.297  10.264 -0.2510  1.2360  0.2053
  991MOL0     C33665   5.618   5.184  10.188 -0.2113  1.2228  0.5147
  991MOL0     C33666   5.709   5.098  10.271 -0.4344 -0.1644  0.2911
  991MOL0     N33667   5.648   5.026  10.386  0.3614 -0.6548  0.1500
  991MOL0     C33668   5.515   4.980  10.376 -0.9677 -0.2703  1.0394
  991MOL0     C33669   5.477   4.955  10.505 -0.4272 -0.5388  0.1852
  991MOL0     C33670   5.359   4.889  10.551  0.5116 -0.1868 -0.1378
  991MOL0     C33671   5.266   4.983  10.627 -0.2695 -0.0984  0.4909
  991MOL0     C33672   5.116   4.974  10.596  0.3390 -0.0893 -0.5740
  991MOL0     C33673   5.079   4.997  10.449 -0.0997 -0.0599 -1.4161
  991MOL0     O33674   5.136   5.124  10.408  0.5680  0.0266  0.7231
  991MOL0     C33675   5.095   5.186  10.292 -0.7367 -0.2705  0.3871
  991MOL0     C33676   5.163   5.302  10.273  0.6430 -0.1697 -0.9193
  991MOL0     C33677   5.166   5.356  10.144 -0.0929 -0.9491  0.2776
  991MOL0     C33678   5.131   5.281  10.032 -0.8836  0.5879 -0.1525
  991MOL0     C33679   5.170   5.316   9.893 -0.1467 -0.3397 -0.6780
  991MOL0     O33680   5.092   5.272   9.789  0.4540  0.6544  0.8181
  991MOL0     C33681   5.105   5.317   9.662 -0.1882 -0.2066 -1.2093
  991MOL0     C33682   4.997   5.371   9.595  0.7288 -0.5444  0.5200
  991MOL0     C33683   5.018   5.427   9.471  0.8554 -0.8719 -0.6728
  991MOL0     C33684   5.139   5.406   9.409 -0.8411  0.4537  0.4359
  991MOL0     O33685   5.161   5.447   9.281 -0.5847 -0.3023 -0.3181
  991MOL0     C33686   5.107   5.375   9.169  0.3160  0.2766 -0.6266
  991MOL0     C33687   5.053   5.478   9.066 -0.0553 -1.0440 -0.3969
  991MOL0     C33688   4.931   5.564   9.101  0.5167  0.4847  0.1060
  991MOL0     C33689   4.800   5.477   9.098 -0.1190 -0.3573 -0.0455
  991MOL0     C33690   4.692   5.532   9.194 -0.1248 -0.6961  0.6914
  991MOL0     C33691   4.574   5.429   9.211  0.6364 -0.3113 -0.5349
  991MOL0     C33692   4.617   5.347   9.319  0.1732 -0.0017 -0.4870
  991MOL0     C33693   4.549   5.212   9.344 -0.0013 -0.2080  0.5375
  991MOL0    Cl33694   4.639   5.118   9.480 -0.4600  0.2717 -0.2921
  991MOL0     C33695   5.241   5.335   9.462 -0.0926 -0.1069  0.6317
  991MOL0     C33696   5.226   5.292   9.589  0.7124  0.4497  0.1349
  991MOL0     O33697   5.284   5.362   9.878  0.0235  0.2439  0.8578
  991MOL0     C33698   5.050   5.164  10.056 -0.5035 -0.0873  0.6822
  991MOL0     C33699   5.033   5.117  10.183  0.5753  0.6692  0.0480
  991MOL0     N33700   5.584   4.989  10.581 -0.9203 -0.3260 -0.2986
  991MOL0     N33701   5.695   5.016  10.513  0.2531  0.0243 -0.5751
  991MOL0     C33702   5.982   5.926  10.755  0.9199  0.1460  0.3642
  991MOL0     C33703   6.016   6.046  10.825  0.3895  0.5439  0.1976
  991MOL0     C33704   6.093   6.459  10.912 -0.2887  0.3656 -1.4571
  991MOL0     C33705   6.167   6.396  11.017 -0.5083 -1.2121  0.6751
  991MOL0     C33706   6.250   6.481  11.099  0.0160 -1.1601  0.6858
  991MOL0     C33707   6.281   6.608  11.067 -0.6383  0.2849 -0.3154
  991MOL0     O33708   6.381   6.686  11.122  0.1118 -0.2642 -0.0180
  991MOL0     C33709   6.462   6.639  11.229 -0.7581  0.4633 -0.5388
  991MOL0     C33710   6.582   6.740  11.238  0.0505 -0.1505  0.0471
  991MOL0     C33711   6.686   6.699  11.341 -0.0516  0.3438 -0.4754
  991MOL0     C33712   6.811   6.778  11.351 -0.2077 -0.0121 -0.5413
  991MOL0     C33713   6.878   6.812  11.228  0.3529 -0.4264 -0.1826
  991MOL0     C33714   6.929   6.838  11.121  1.0342 -0.0975  0.4024
  991MOL0     C33715   6.220   6.665  10.961  0.2856  0.2762  0.5222
  991MOL0     C33716   6.118   6.597  10.890  0.0898 -0.2824  0.0096
  991MOL0     C33717   6.047   6.677  10.791  0.8558  0.4761  1.5937
  991MOL0     H33718   5.744   6.240  10.768 -0.7038  0.7372 -2.2625
  991MOL0     H33719   5.697   6.050  10.617  2.1639  0.6051 -1.0329
  991MOL0     H33720   5.782   5.676  10.762  1.4719  2.7913  1.3912
  991MOL0     H33721   5.666   5.800  10.758  0.3344 -0.5965  1.1077
  991MOL0     H33722   5.599   5.752  10.529  4.2174  1.5587 -0.2327
  991MOL0     H33723   5.541   5.639  10.664  0.7463 -2.0303  0.5417
  991MOL0     H33724   5.745   5.513  10.577 -1.8266  0.3422  2.5995
  991MOL0     H33725   5.732   5.600  10.431 -1.6753  5.1508  1.4448
  991MOL0     H33726   5.497   5.423  10.522 -1.3583  0.5991 -1.2731
  991MOL0     H33727   5.509   5.529  10.374  0.4669 -0.3289 -1.2084
  991MOL0     H33728   5.716   5.413  10.318  1.1461 -1.6746  0.2767
  991MOL0     H33729   5.673   5.290  10.436  0.2020  0.4068  0.5174
  991MOL0     H33730   5.459   5.252  10.321  1.1962  0.3189  1.6206
  991MOL0     H33731   5.508   5.373  10.193 -0.1830  0.4710 -0.6644
  991MOL0     H33732   5.670   5.225  10.101 -2.1012 -1.1337 -1.9150
  991MOL0     H33733   5.546   5.120  10.136 -1.9265  2.6932  0.9862
  991MOL0     H33734   5.757   5.019  10.213 -1.8365 -0.3378 -0.6844
  991MOL0     H33735   5.790   5.165  10.302  0.5908 -1.5214  0.6523
  991MOL0     H33736   5.460   4.951  10.287  3.6220 -0.4295 -2.0806
  991MOL0     H33737   5.308   4.879  10.454 -2.1751  4.6112  0.4383
  991MOL0     H33738   5.366   4.793  10.604  1.6139  0.7974  1.5859
  991MOL0     H33739   5.288   4.963  10.732 -1.4732 -2.1964  0.3989
  991MOL0     H33740   5.284   5.087  10.600  0.3904 -0.3361 -0.0292
  991MOL0     H33741   5.066   5.041  10.667 -1.5666  0.3166 -2.1959
  991MOL0     H33742   5.087   4.879  10.643 -0.7509 -0.1960 -1.4132
  991MOL0     H33743   4.972   4.987  10.431  0.2558 -3.8984 -2.1253
  991MOL0     H33744   5.130   4.929  10.381  1.5587  0.7202 -1.0053
  991MOL0     H33745   5.209   5.357  10.354 -0.0034 -1.2258  0.1955
  991MOL0     H33746   5.219   5.449  10.127  4.4594 -3.4904 -1.2309
  991MOL0     H33747   4.901   5.386   9.643  0.2284  3.7257 -1.3959
  991MOL0     H33748   4.934   5.473   9.421  0.3995 -1.6210 -0.6119
  991MOL0     H33749   5.183   5.308   9.128 -0.6932 -1.6100  0.4575
  991MOL0     H33750   5.042   5.299   9.212  0.1046  0.5117 -0.5293
  991MOL0     H33751   5.132   5.552   9.050 -2.1615  1.6269  0.7797
  991MOL0     H33752   5.035   5.431   8.969  1.9700  1.6046 -2.1988
  991MOL0     H33753   4.951   5.600   9.203  1.7802  0.3126 -0.0559
  991MOL0     H33754   4.920   5.648   9.032 -2.6143  0.5557  0.5562
  991MOL0     H33755   4.821   5.373   9.127 -2.3374 -0.1620  2.6608
  991MOL0     H33756   4.752   5.461   9.001 -0.9778 -2.2994  0.6308
  991MOL0     H33757   4.649   5.623   9.150  0.5261  1.0841  3.5075
  991MOL0     H33758   4.730   5.554   9.294  0.5911 -0.6357  0.4112
  991MOL0     H33759   4.483   5.472   9.255 -1.7235 -2.7626 -2.6547
  991MOL0     H33760   4.550   5.369   9.123 -1.4357 -2.6692  1.4866
  991MOL0     H33761   4.599   5.406   9.409  3.7763 -0.2950  0.5734
  991MOL0     H33762   4.722   5.317   9.323 -0.9817 -4.7939  1.0269
  991MOL0     H33763   4.443   5.238   9.360 -0.4357  0.5413 -2.8034
  991MOL0     H33764   4.558   5.151   9.254 -0.2136 -0.0773  0.4273
  991MOL0     H33765   5.337   5.326   9.413 -0.4799 -2.8663  0.2012
  991MOL0     H33766   5.309   5.240   9.637 -2.0462 -2.9672  1.5872
  991MOL0     H33767   5.006   5.104   9.977  1.4207 -2.3614  1.2215
  991MOL0     H33768   4.977   5.024  10.185  0.8652  0.4978  0.4773
  991MOL0     H33769   6.030   5.829  10.755 -1.9890 -1.5151  3.5635
  991MOL0     H33770   6.111   6.054  10.876 -1.0928 -0.2396  3.3031
  991MOL0     H33771   6.175   6.292  11.049  1.3952 -1.0125  0.9837
  991MOL0     H33772   6.301   6.435  11.184 -0.5090 -0.5017  1.3721
  991MOL0     H33773   6.506   6.542  11.202 -0.6541  0.6327 -0.9841
  991MOL0     H33774   6.408   6.638  11.325 -1.4239 -0.1238 -0.9042
  991MOL0     H33775   6.545   6.838  11.270  0.3510 -0.0413  0.0609
  991MOL0     H33776   6.626   6.760  11.140  0.8806 -0.0248  0.4385
  991MOL0     H33777   6.704   6.592  11.333 -2.6296 -0.4603  2.3125
  991MOL0     H33778   6.640   6.703  11.441  1.5881  0.1803  0.3198
  991MOL0     H33779   6.783   6.877  11.390 -1.4036 -1.6832  3.2807
  991MOL0     H33780   6.878   6.730  11.423  1.0897  0.6698 -1.2690
  991MOL0     H33781   6.945   6.848  11.016  1.0630 -0.9150  0.3208
  991MOL0     H33782   6.246   6.766  10.932  1.5227  0.0656  0.8433
  991MOL0     H33783   5.942   6.648  10.779  1.6858 -2.0685 -0.2140
  991MOL0     H33784   6.059   6.785  10.808  0.1779  0.4789  2.0925
  991MOL0     H33785   6.093   6.660  10.694 -2.3859  2.9895 -0.5867
  992MOL0     O33786   7.852   0.089   0.571 -0.1647  0.1514  0.7354
  992MOL0     C33787   7.908   0.112   0.461  0.1736  0.9515  0.3470
  992MOL0     O33788   8.027   0.176   0.448 -0.6081  0.1873  0.1528
  992MOL0     C33789   8.084   0.217   0.562  0.2190 -1.2713 -0.4235
  992MOL0     C33790   8.181   0.144   0.630  0.3982  0.1583 -0.3523
  992MOL0     C33791   8.248   0.195   0.749  0.0856  0.0712 -0.1191
  992MOL0     C33792   8.208   0.324   0.801 -0.4346 -0.3802 -0.6093
  992MOL0     O33793   8.261   0.377   0.919 -0.0385 -0.8493  0.1616
  992MOL0     C33794   8.394   0.429   0.905  1.1252  0.5382  0.4073
  992MOL0     C33795   8.508   0.330   0.946 -0.2366 -0.1750  0.5985
  992MOL0     C33796   8.635   0.414   0.964 -0.7462  0.6987  0.4081
  992MOL0     C33797   8.744   0.346   1.046  0.7157  0.2523  0.7363
  992MOL0     C33798   8.874   0.428   1.032 -0.1450 -0.6065 -0.9118
  992MOL0     C33799   8.887   0.536   1.144 -0.1094 -0.4465 -0.5424
  992MOL0     C33800   9.002   0.632   1.135 -0.3594  0.2859 -0.4860
  992MOL0     C33801   8.971   0.742   1.026 -0.3045  0.6738  0.0293
  992MOL0     N33802   9.029   0.874   1.067 -0.3134 -0.1270  0.8956
  992MOL0     C33803   9.122   0.925   0.985 -0.2853 -0.0265 -0.7947
  992MOL0     C33804   9.151   1.040   1.045 -0.2789 -0.5932  0.1264
  992MOL0     C33805   9.269   1.127   1.013 -0.1614 -0.4996 -0.3615
  992MOL0     C33806   9.265   1.179   0.873  0.3334 -0.4420 -0.0644
  992MOL0     C33807   9.152   1.290   0.852 -0.2916 -0.1436  0.3591
  992MOL0     C33808   9.180   1.401   0.744  0.0379  0.2483  0.2622
  992MOL0     O33809   9.095   1.353   0.639  0.1366  0.1937  0.1809
  992MOL0     C33810   9.137   1.251   0.550  0.6537 -0.7267 -0.4664
  992MOL0     C33811   9.033   1.205   0.473  0.6645  0.7232  0.4061
  992MOL0     C33812   9.054   1.093   0.387 -0.0137 -0.2935  0.5076
  992MOL0     C33813   9.183   1.042   0.367 -0.4149  0.3648  1.1717
  992MOL0     C33814   9.210   0.943   0.260  0.9380  0.5182 -0.2134
  992MOL0     O33815   9.326   0.864   0.258 -0.3605  0.2950  0.1351
  992MOL0     C33816   9.353   0.780   0.144 -0.1794 -0.2056 -1.1139
  992MOL0     C33817   9.422   0.824   0.036  0.1358  0.3078 -0.0148
  992MOL0     C33818   9.422   0.738  -0.076 -0.1405 -0.5322 -0.4169
  992MOL0     C33819   9.356   0.615  -0.079  0.2906 -0.1939 -0.4119
  992MOL0     O33820   9.376   0.541  -0.199  0.1108 -0.1260 -0.1898
  992MOL0     C33821   9.256   0.472  -0.245  0.7801  0.3605  1.0962
  992MOL0     C33822   9.283   0.445  -0.394 -0.6271 -0.3358 -0.8534
  992MOL0     C33823   9.410   0.357  -0.412  0.7102 -0.6964  0.3184
  992MOL0     C33824   9.391   0.211  -0.386 -0.5704 -0.9825 -0.3795
  992MOL0     C33825   9.500   0.120  -0.426 -0.2638 -0.1470 -0.0387
  992MOL0     C33826   9.599   0.095  -0.307  0.8924 -0.3346  0.3074
  992MOL0     C33827   9.721   0.016  -0.360  0.7936 -0.5870  1.1533
  992MOL0     C33828   9.785  -0.077  -0.255  0.2507 -1.1860  0.5078
  992MOL0    Cl33829   9.782   0.005  -0.093 -0.0002  0.1215 -0.4395
  992MOL0     C33830   9.296   0.571   0.034  0.0937  0.8945 -1.2681
  992MOL0     C33831   9.291   0.658   0.143  0.4985 -0.3190  0.3852
  992MOL0     O33832   9.132   0.942   0.169  0.0582  0.0837  0.0843
  992MOL0     C33833   9.284   1.093   0.441  0.6797  0.1876 -0.3114
  992MOL0     C33834   9.262   1.193   0.544  0.4504  0.0414 -0.1178
  992MOL0     N33835   9.057   1.082   1.137  1.7231 -0.5757  0.1357
  992MOL0     N33836   8.979   0.972   1.150  0.3773  0.1915  0.5309
  992MOL0     C33837   8.107   0.398   0.736 -0.9693 -0.0740  0.1960
  992MOL0     C33838   8.059   0.347   0.613 -0.5954 -0.5822 -0.5172
  992MOL0     C33839   7.820   0.088   0.342  0.0679  0.4150 -0.4931
  992MOL0     C33840   7.846   0.169   0.233  0.0871  0.2664 -0.4595
  992MOL0     C33841   7.770   0.162   0.118 -1.1351  0.1244 -0.6401
  992MOL0     C33842   7.667   0.065   0.111 -0.2366 -0.0488  0.2558
  992MOL0     O33843   7.585   0.057   0.002  0.4019  0.1658  0.6008
  992MOL0     C33844   7.650   0.069  -0.129  0.1088  1.8425 -0.2234
  992MOL0     C33845   7.557   0.085  -0.249 -0.6100 -0.4243  0.8375
  992MOL0     C33846   7.626   0.143  -0.374 -0.5918  0.3049 -0.3436
  992MOL0     C33847   7.545   0.151  -0.503 -0.0184 -0.3157 -0.2535
  992MOL0     C33848   7.593   0.242  -0.608  0.1575 -0.6082  0.1647
  992MOL0     C33849   7.644   0.306  -0.703  0.0590  0.1332  1.0973
  992MOL0     C33850   7.637  -0.015   0.213  0.4289 -0.7331 -0.2678
  992MOL0     C33851   7.708  -0.005   0.335  0.9031 -0.1520 -0.7917
  992MOL0     C33852   7.676  -0.109   0.446  0.2586 -0.5303  0.2688
  992MOL0     H33853   8.225   0.053   0.591  1.9362  0.9788 -0.6038
  992MOL0     H33854   8.316   0.135   0.809  0.0959  0.8326  0.6448
  992MOL0     H33855   8.411   0.472   0.806 -2.2390 -0.0938 -0.5824
  992MOL0     H33856   8.408   0.510   0.977  2.6843  0.1436  0.5891
  992MOL0     H33857   8.529   0.247   0.878 -3.2059 -0.6446  0.1091
  992MOL0     H33858   8.477   0.274   1.035  0.9599 -3.0787 -0.6783
  992MOL0     H33859   8.615   0.516   0.999 -1.4307  1.6942 -2.5814
  992MOL0     H33860   8.674   0.424   0.862 -2.3181 -2.9676 -0.7062
  992MOL0     H33861   8.701   0.316   1.142 -1.8625 -1.5839 -0.8932
  992MOL0     H33862   8.777   0.254   0.999  2.3488  1.1853 -0.0427
  992MOL0     H33863   8.955   0.356   1.042 -1.8631 -2.4284  0.7986
  992MOL0     H33864   8.875   0.481   0.936  0.4776  3.8145  1.2819
  992MOL0     H33865   8.795   0.596   1.138 -0.8030 -1.4497 -0.2419
  992MOL0     H33866   8.890   0.493   1.245  0.2791  1.8687  0.5041
  992MOL0     H33867   9.097   0.582   1.118 -0.8356 -0.3419 -1.3246
  992MOL0     H33868   9.007   0.684   1.232  2.0812 -0.2282 -0.2784
  992MOL0     H33869   8.994   0.700   0.928 -0.5791  2.7878 -0.9920
  992MOL0     H33870   8.862   0.748   1.017 -0.3519  0.1175  0.1553
  992MOL0     H33871   9.159   0.867   0.901 -0.5367 -3.1238  1.0956
  992MOL0     H33872   9.279   1.213   1.079  2.5273 -1.3563  0.4813
  992MOL0     H33873   9.355   1.060   1.025 -1.3526 -1.6934  2.6335
  992MOL0     H33874   9.357   1.237   0.864  0.3252 -0.5470 -0.8744
  992MOL0     H33875   9.267   1.100   0.797  4.0934  2.6353 -3.6305
  992MOL0     H33876   9.118   1.326   0.950 -1.7040 -1.4561  0.3771
  992MOL0     H33877   9.071   1.226   0.816  1.2753 -1.6664 -0.5654
  992MOL0     H33878   9.286   1.390   0.715  0.4209 -0.3503  1.7758
  992MOL0     H33879   9.162   1.503   0.778 -0.8705  0.1192  0.1863
  992MOL0     H33880   8.933   1.245   0.482  0.7478  1.3769 -1.2033
  992MOL0     H33881   8.970   1.045   0.336  0.4833  1.0912 -1.7904
  992MOL0     H33882   9.465   0.923   0.027 -0.6330  0.5502 -1.2417
  992MOL0     H33883   9.481   0.775  -0.159  1.2590 -0.3240  0.6396
  992MOL0     H33884   9.248   0.375  -0.197  0.8648 -1.1213 -1.6910
  992MOL0     H33885   9.160   0.521  -0.229 -0.9458 -2.4915  0.2054
  992MOL0     H33886   9.194   0.405  -0.445 -2.4750  0.5381  1.5100
  992MOL0     H33887   9.296   0.543  -0.441  1.1372  0.5151  1.2823
  992MOL0     H33888   9.439   0.375  -0.516  1.7224 -0.2408  0.6643
  992MOL0     H33889   9.499   0.390  -0.358  2.3434 -0.8699 -2.1053
  992MOL0     H33890   9.309   0.182  -0.452 -1.4936  0.9553 -0.1464
  992MOL0     H33891   9.350   0.195  -0.286 -2.0642  0.9119 -0.6381
  992MOL0     H33892   9.548   0.161  -0.516  3.2063  1.3075  2.2497
  992MOL0     H33893   9.456   0.027  -0.462  1.4102 -0.3355 -1.7782
  992MOL0     H33894   9.630   0.194  -0.273  2.5480 -1.3530  1.9986
  992MOL0     H33895   9.548   0.049  -0.222  1.9364  0.5289  1.4345
  992MOL0     H33896   9.787   0.096  -0.395  1.4218 -0.9710  1.4337
  992MOL0     H33897   9.686  -0.038  -0.448  0.1361 -0.4297  1.3155
  992MOL0     H33898   9.730  -0.167  -0.224  1.5877 -1.9732  0.6471
  992MOL0     H33899   9.885  -0.110  -0.285  0.7280  0.2951  0.4090
  992MOL0     H33900   9.250   0.472   0.037  2.1183 -0.1149 -1.4265
  992MOL0     H33901   9.245   0.621   0.234  3.8244 -0.7104  2.0570
  992MOL0     H33902   9.390   1.069   0.448  0.4687 -0.8916 -0.7108
  992MOL0     H33903   9.347   1.214   0.608  0.8005  2.3706 -1.2560
  992MOL0     H33904   8.068   0.494   0.767 -0.4219 -0.3461  1.8211
  992MOL0     H33905   7.993   0.422   0.570  1.2236  2.5062  1.7620
  992MOL0     H33906   7.922   0.246   0.240  2.0852 -1.5767 -0.8254
  992MOL0     H33907   7.797   0.221   0.031  0.3547 -0.5870 -0.6888
  992MOL0     H33908   7.713  -0.020  -0.139 -0.8262  1.0971  0.4001
  992MOL0     H33909   7.723   0.150  -0.129  3.8143 -1.1938  0.7987
  992MOL0     H33910   7.473   0.150  -0.223 -2.1205 -1.7308 -0.5541
  992MOL0     H33911   7.514  -0.014  -0.270 -1.1887 -0.1513  0.7045
  992MOL0     H33912   7.709   0.079  -0.405 -1.8656 -0.2579 -2.8234
  992MOL0     H33913   7.667   0.242  -0.350  0.5231 -0.6953  2.2276
  992MOL0     H33914   7.539   0.051  -0.546 -0.7092  0.6503 -2.5536
  992MOL0     H33915   7.447   0.181  -0.466 -0.3386 -0.7889 -0.6995
  992MOL0     H33916   7.687   0.352  -0.790  0.5257 -2.5208 -0.1615
  992MOL0     H33917   7.553  -0.082   0.198  0.1835 -0.4183 -0.3055
  992MOL0     H33918   7.621  -0.055   0.523  0.4401  1.2993 -0.8221
  992MOL0     H33919   7.612  -0.187   0.406  0.9210 -2.6039  2.9754
  992MOL0     H33920   7.768  -0.158   0.480 -0.6965 -2.1469  0.6172
  993MOL0     O33921   1.609   3.441   8.729  0.0849  0.5998  0.3136
  993MOL0     C33922   1.650   3.332   8.684 -0.0715  0.2080 -0.2088
  993MOL0     O33923   1.724   3.244   8.761 -0.0849 -0.6278 -0.2488
  993MOL0     C33924   1.775   3.289   8.883 -0.6376 -0.3769  0.5047
  993MOL0     C33925   1.894   3.375   8.884 -0.1168  0.5822 -0.0530
  993MOL0     C33926   1.940   3.426   9.000  0.1963  0.0069 -0.4913
  993MOL0     C33927   1.873   3.412   9.120 -0.6907 -0.9483 -0.0676
  993MOL0     O33928   1.921   3.489   9.225 -0.7641  0.1371 -0.0798
  993MOL0     C33929   1.990   3.430   9.336  0.3499  0.2913  0.3924
  993MOL0     C33930   2.143   3.446   9.333  0.6614  0.8080 -0.3775
  993MOL0     C33931   2.185   3.597   9.335 -0.8929 -0.7746  0.1247
  993MOL0     C33932   2.333   3.608   9.367 -0.6442 -0.3004 -0.2473
  993MOL0     C33933   2.386   3.747   9.332  0.3157  0.7801 -0.6632
  993MOL0     C33934   2.321   3.857   9.425 -0.2912 -0.0838 -0.5914
  993MOL0     C33935   2.392   4.000   9.428 -0.7050 -0.5958 -0.0524
  993MOL0     C33936   2.319   4.115   9.486  0.4342 -0.2554  0.3744
  993MOL0     N33937   2.289   4.100   9.633 -0.6172 -0.5131  0.1727
  993MOL0     C33938   2.197   4.009   9.691 -0.6789 -0.0781 -0.3069
  993MOL0     C33939   2.202   4.033   9.820  0.1972 -0.1761 -0.1439
  993MOL0     C33940   2.110   3.970   9.927 -0.1041  0.4456  1.3531
  993MOL0     C33941   1.998   4.062   9.958  1.1902  0.4417 -0.2334
  993MOL0     C33942   1.891   4.008  10.058  1.2737 -0.1142 -0.4650
  993MOL0     C33943   1.774   3.947   9.980 -0.1374 -0.5746 -0.7620
  993MOL0     O33944   1.704   3.849  10.061 -0.3417  0.0343 -0.7672
  993MOL0     C33945   1.569   3.869  10.098 -0.9693 -0.2275  0.4738
  993MOL0     C33946   1.516   3.997  10.128 -0.0486 -0.4614  0.1819
  993MOL0     C33947   1.390   4.014  10.180 -0.0451  0.2363  0.1135
  993MOL0     C33948   1.308   3.897  10.214 -0.1982 -0.4338  0.1394
  993MOL0     C33949   1.173   3.906  10.272 -0.6114 -1.0537  0.0438
  993MOL0     O33950   1.138   4.026  10.325 -0.6234  0.1042 -0.1064
  993MOL0     C33951   1.011   4.048  10.368  0.4271 -0.0385 -0.2978
  993MOL0     C33952   0.987   4.056  10.503  0.3802  0.0316 -0.7410
  993MOL0     C33953   0.857   4.099  10.547  0.0624  0.7728  0.2991
  993MOL0     C33954   0.755   4.130  10.456  0.1137 -0.1855 -0.5315
  993MOL0     O33955   0.632   4.193  10.483 -0.0240 -0.0394 -0.8188
  993MOL0     C33956   0.597   4.235  10.616 -0.7117 -0.3141  0.3591
  993MOL0     C33957   0.464   4.309  10.620 -0.4069 -0.1013  0.4351
  993MOL0     C33958   0.356   4.211  10.665 -0.3879 -0.7783 -0.1568
  993MOL0     C33959   0.219   4.279  10.634  0.7806 -0.1482  1.0798
  993MOL0     C33960   0.116   4.184  10.659  0.2692  0.2051  0.4471
  993MOL0     C33961  -0.023   4.251  10.661 -0.0134  0.1721 -0.1733
  993MOL0     C33962  -0.127   4.131  10.697 -0.3014 -0.3332  0.6375
  993MOL0     C33963  -0.210   4.165  10.818 -0.1302  0.0909  0.7958
  993MOL0    Cl33964  -0.375   4.103  10.801  0.3489  0.2545 -0.2138
  993MOL0     C33965   0.785   4.108  10.322 -0.1995  0.1947 -1.1742
  993MOL0     C33966   0.905   4.059  10.283  0.0794  0.1297  0.2907
  993MOL0     O33967   1.094   3.816  10.261  0.2101 -0.7628 -0.2903
  993MOL0     C33968   1.369   3.771  10.186 -0.1178  1.2226  0.9575
  993MOL0     C33969   1.492   3.763  10.135 -0.0325 -0.6701  0.3451
  993MOL0     N33970   2.299   4.130   9.841 -0.0901 -0.4968  0.1675
  993MOL0     N33971   2.359   4.162   9.733  0.5311  1.1087  0.1915
  993MOL0     C33972   1.757   3.332   9.116 -0.0583  0.7766 -0.1584
  993MOL0     C33973   1.713   3.270   8.997 -0.2682 -0.8266 -0.5176
  993MOL0     C33974   1.604   3.287   8.552  0.2860 -0.1115  0.9096
  993MOL0     C33975   1.577   3.148   8.527 -0.0868  0.7073  0.3782
  993MOL0     C33976   1.522   3.111   8.400 -0.2851  0.1768  0.7343
  993MOL0     C33977   1.499   3.204   8.305  0.1490  0.1628  0.0898
  993MOL0     O33978   1.441   3.148   8.191 -0.2934  0.1814  0.6400
  993MOL0     C33979   1.483   3.210   8.069  0.0588 -0.0278 -0.0105
  993MOL0     C33980   1.452   3.126   7.949  0.1415  0.7064 -0.3758
  993MOL0     C33981   1.436   3.218   7.823  1.4224  0.7747 -0.2389
  993MOL0     C33982   1.458   3.143   7.691  0.6391  0.1092 -0.2384
  993MOL0     C33983   1.377   3.023   7.670 -0.5856  0.5685 -0.8041
  993MOL0     C33984   1.305   2.932   7.645  0.0992  0.3930  0.3539
  993MOL0     C33985   1.518   3.343   8.330 -1.0431  0.1369  0.8394
  993MOL0     C33986   1.586   3.385   8.445 -0.8100  0.1850  0.2530
  993MOL0     C33987   1.610   3.533   8.458  0.5072  0.4145 -0.5903
  993MOL0     H33988   1.956   3.388   8.796 -1.1636 -0.9730 -1.0822
  993MOL0     H33989   2.034   3.480   9.002  0.2199 -0.0021 -1.1334
  993MOL0     H33990   1.944   3.476   9.424  0.6318 -1.0741  1.2885
  993MOL0     H33991   1.972   3.322   9.338 -1.6724  0.5788  0.4667
  993MOL0     H33992   2.184   3.397   9.244  0.3137  1.6089 -0.9936
  993MOL0     H33993   2.188   3.398   9.421  0.3473  0.0081 -0.6439
  993MOL0     H33994   2.135   3.662   9.406  0.1778  1.2035 -0.8553
  993MOL0     H33995   2.171   3.635   9.234  1.7481 -1.5592 -0.6259
  993MOL0     H33996   2.335   3.584   9.474 -0.6534 -1.1394 -0.4306
  993MOL0     H33997   2.404   3.540   9.319  2.3312  1.1018  1.8540
  993MOL0     H33998   2.495   3.737   9.341  0.4070  2.6734  0.9162
  993MOL0     H33999   2.368   3.756   9.225 -1.8805 -1.8722 -0.6376
  993MOL0     H34000   2.220   3.881   9.390  0.2020  1.0990 -1.2648
  993MOL0     H34001   2.313   3.804   9.520 -1.3670 -1.8088 -1.5734
  993MOL0     H34002   2.406   4.018   9.321 -1.5067 -1.6713 -0.3527
  993MOL0     H34003   2.497   3.997   9.459 -0.8034  1.4587  0.6693
  993MOL0     H34004   2.376   4.209   9.482 -0.6150  0.4220  0.7929
  993MOL0     H34005   2.225   4.130   9.431  1.9022  1.3111 -1.9149
  993MOL0     H34006   2.131   3.936   9.644  1.0005 -0.8585 -1.5572
  993MOL0     H34007   2.070   3.878   9.882  2.0060  1.3516 -2.7471
  993MOL0     H34008   2.165   3.927  10.012 -3.1886 -2.7646  1.9978
  993MOL0     H34009   2.045   4.152   9.999  0.4122  2.6049 -3.6846
  993MOL0     H34010   1.943   4.094   9.870  1.3766  1.3168 -0.0470
  993MOL0     H34011   1.847   4.090  10.116  1.4319 -1.0064  0.9754
  993MOL0     H34012   1.939   3.940  10.128  1.6078  0.3364 -0.2478
  993MOL0     H34013   1.815   3.889   9.897 -1.9243 -2.0277 -0.6915
  993MOL0     H34014   1.709   4.023   9.936  0.7067  0.1584 -0.7864
  993MOL0     H34015   1.585   4.078  10.106 -0.4902  0.3438  1.5997
  993MOL0     H34016   1.352   4.114  10.196 -2.2444 -0.2079 -1.7527
  993MOL0     H34017   1.076   4.061  10.564 -0.8511 -0.9742  1.2562
  993MOL0     H34018   0.844   4.110  10.655  3.8271 -1.9898  1.2294
  993MOL0     H34019   0.600   4.152  10.687 -2.4504 -1.5349 -0.9299
  993MOL0     H34020   0.673   4.308  10.646 -1.2426 -0.0734  1.1642
  993MOL0     H34021   0.479   4.380  10.702  2.0603 -1.2756  1.1011
  993MOL0     H34022   0.431   4.364  10.532  1.6259  1.8860  0.8232
  993MOL0     H34023   0.372   4.122  10.603  2.0545 -1.4856  1.3665
  993MOL0     H34024   0.355   4.187  10.772 -0.1321 -0.6722 -0.1292
  993MOL0     H34025   0.224   4.312  10.530  0.5540  2.4176  1.8103
  993MOL0     H34026   0.217   4.372  10.691  0.3431  1.1987 -1.0488
  993MOL0     H34027   0.138   4.135  10.754 -2.2158 -2.4425 -0.2025
  993MOL0     H34028   0.129   4.098  10.591  3.0146  1.6787 -1.0808
  993MOL0     H34029  -0.031   4.328  10.739 -1.1846 -2.4048  2.4530
  993MOL0     H34030  -0.044   4.287  10.560  3.4360 -1.1761 -1.5377
  993MOL0     H34031  -0.083   4.031  10.706  2.0872  0.5236 -0.7160
  993MOL0     H34032  -0.188   4.133  10.605  0.1931 -0.8121  0.2898
  993MOL0     H34033  -0.167   4.143  10.915 -0.5683  0.5381  1.0959
  993MOL0     H34034  -0.217   4.275  10.820 -0.5725  0.0720  0.5392
  993MOL0     H34035   0.714   4.126  10.241  0.2994  0.7004 -1.5057
  993MOL0     H34036   0.920   4.031  10.179 -1.8097 -1.5889  0.3982
  993MOL0     H34037   1.305   3.687  10.214 -0.8176  1.6868  0.7941
  993MOL0     H34038   1.541   3.667  10.122  0.7368 -0.2049 -0.2993
  993MOL0     H34039   1.707   3.323   9.212  0.5691 -0.3881  0.0735
  993MOL0     H34040   1.628   3.204   9.011  0.4508 -1.1123  3.8540
  993MOL0     H34041   1.597   3.066   8.595  0.6647 -2.0390 -2.8440
  993MOL0     H34042   1.495   3.007   8.384 -0.8424  0.3393  0.6157
  993MOL0     H34043   1.584   3.248   8.085 -0.4611  2.6774 -2.4834
  993MOL0     H34044   1.424   3.300   8.051 -3.5142 -2.0987  0.3789
  993MOL0     H34045   1.349   3.092   7.969 -0.2934  0.8561 -2.2510
  993MOL0     H34046   1.526   3.048   7.935 -0.7833 -0.0795 -1.0084
  993MOL0     H34047   1.508   3.299   7.832  3.3748 -0.9816  0.9897
  993MOL0     H34048   1.332   3.250   7.818  1.4436  0.9103  0.1603
  993MOL0     H34049   1.434   3.209   7.607  2.3604 -0.2370 -1.0414
  993MOL0     H34050   1.565   3.119   7.684  0.3526 -2.6024  2.4444
  993MOL0     H34051   1.235   2.858   7.612 -2.1324  2.1897  0.7925
  993MOL0     H34052   1.484   3.417   8.258  1.0620  0.0287 -0.3437
  993MOL0     H34053   1.532   3.578   8.520  0.7072  0.8689 -0.6645
  993MOL0     H34054   1.705   3.560   8.505  1.3810 -0.9009 -1.5364
  993MOL0     H34055   1.609   3.587   8.363  0.7341  4.1682  1.3447
  994MOL0     O34056  10.193  10.089   7.098 -0.5489 -0.0503  0.6481
  994MOL0     C34057  10.171  10.092   7.217 -0.0006  0.2741 -0.0926
  994MOL0     O34058  10.263  10.071   7.319  0.0535  0.1352 -0.3320
  994MOL0     C34059  10.391  10.017   7.305  0.5055  0.2449 -0.8887
  994MOL0     C34060  10.475  10.054   7.200 -0.3879 -0.3183 -0.0118
  994MOL0     C34061  10.602   9.986   7.184 -0.1348 -1.1139 -0.6438
  994MOL0     C34062  10.645   9.887   7.266 -0.8231 -0.5509  0.1194
  994MOL0     O34063  10.768   9.823   7.249 -0.7362 -0.1118 -0.2492
  994MOL0     C34064  10.883   9.902   7.244 -0.3992  0.3995  0.6980
  994MOL0     C34065  11.006   9.811   7.234  0.1540 -0.3608 -0.0851
  994MOL0     C34066  11.138   9.881   7.243 -0.4085  0.3913 -0.0942
  994MOL0     C34067  11.156   9.972   7.366 -0.2683 -0.2110 -0.1238
  994MOL0     C34068  11.207   9.896   7.489  0.1183 -0.1194  0.2883
  994MOL0     C34069  11.161   9.959   7.615 -0.4180  0.0459 -1.2516
  994MOL0     C34070  11.220   9.891   7.735 -0.0394  0.4244  0.1052
  994MOL0     C34071  11.134   9.903   7.868  0.7243 -0.3049  0.7586
  994MOL0     N34072  11.161  10.036   7.914  0.0329 -0.9149 -0.2274
  994MOL0     C34073  11.280  10.068   7.980  0.5168  0.0543  1.0496
  994MOL0     C34074  11.269  10.202   8.016  0.4756 -0.7926  0.6860
  994MOL0     C34075  11.386  10.289   8.072 -0.8340  0.4215 -0.0553
  994MOL0     C34076  11.389  10.314   8.223 -0.5988  0.9405  0.0771
  994MOL0     C34077  11.500  10.405   8.275  0.4499 -0.7512 -0.8873
  994MOL0     C34078  11.537  10.386   8.421  0.0668  0.2356 -0.5253
  994MOL0     O34079  11.603  10.501   8.462  0.4129  0.3864 -0.0816
  994MOL0     C34080  11.728  10.481   8.525  0.7269 -0.3416 -0.6186
  994MOL0     C34081  11.835  10.428   8.463 -0.1194  0.4521 -0.8029
  994MOL0     C34082  11.955  10.419   8.533 -0.3756  0.6272  0.6291
  994MOL0     C34083  11.975  10.457   8.664  0.2243  0.1988 -0.1271
  994MOL0     C34084  12.107  10.458   8.734 -0.6572  0.8126  0.1173
  994MOL0     O34085  12.144  10.561   8.817 -0.3323  0.1492 -0.2769
  994MOL0     C34086  12.263  10.562   8.875 -0.6289  0.5981  0.2640
  994MOL0     C34087  12.330  10.684   8.882 -0.2832  0.4757 -1.1134
  994MOL0     C34088  12.441  10.683   8.965  0.2818  1.0479 -0.2281
  994MOL0     C34089  12.502  10.566   9.019 -0.4686  0.5710  0.2094
  994MOL0     O34090  12.624  10.565   9.082 -0.2238  0.9082  0.1566
  994MOL0     C34091  12.705  10.688   9.081  0.0993  0.8520  0.1218
  994MOL0     C34092  12.833  10.648   9.143  0.1209  0.0375 -0.2013
  994MOL0     C34093  12.912  10.776   9.184 -1.0197  1.3129 -0.3606
  994MOL0     C34094  13.026  10.766   9.290 -0.1373 -0.3515 -0.7626
  994MOL0     C34095  13.131  10.644   9.273 -0.6683 -0.1417 -0.4492
  994MOL0     C34096  13.227  10.648   9.146  1.0695  0.2836 -0.0418
  994MOL0     C34097  13.327  10.760   9.151 -0.3722  1.0775  0.1613
  994MOL0     C34098  13.400  10.755   9.281  0.0582  1.4583 -0.3481
  994MOL0    Cl34099  13.546  10.863   9.258  0.2321 -0.0038  0.1200
  994MOL0     C34100  12.432  10.444   8.996 -0.3271 -0.0196 -0.6168
  994MOL0     C34101  12.311  10.441   8.939 -0.1245 -0.3202 -0.3985
  994MOL0     O34102  12.182  10.369   8.690 -0.4931  0.1868 -0.5990
  994MOL0     C34103  11.860  10.499   8.737  0.1875  0.5673  0.6919
  994MOL0     C34104  11.735  10.512   8.669  0.3209 -0.7743  0.4051
  994MOL0     N34105  11.138  10.247   7.988  0.2701  0.5048 -0.6225
  994MOL0     N34106  11.080  10.144   7.932  0.2569  0.5583  0.1100
  994MOL0     C34107  10.569   9.864   7.388 -0.1768 -0.9958 -0.2195
  994MOL0     C34108  10.446   9.934   7.407 -0.7877 -0.7380  0.1277
  994MOL0     C34109  10.031  10.125   7.254  0.3880  0.0561 -1.2344
  994MOL0     C34110   9.923  10.063   7.181  0.1685  0.1629  0.1869
  994MOL0     C34111   9.792  10.093   7.213 -0.2531  0.2635  0.0088
  994MOL0     C34112   9.753  10.194   7.305 -0.0837 -0.9231  0.4166
  994MOL0     O34113   9.618  10.216   7.302 -0.6133  0.2201 -0.8175
  994MOL0     C34114   9.573  10.346   7.283 -0.5126 -0.5901  0.0318
  994MOL0     C34115   9.449  10.328   7.199 -0.2875 -0.3291  0.6722
  994MOL0     C34116   9.323  10.329   7.279  0.1973  0.9635  0.8312
  994MOL0     C34117   9.200  10.314   7.185 -0.3275 -0.1835 -0.9684
  994MOL0     C34118   9.181  10.416   7.093 -0.1352  0.7900  0.4845
  994MOL0     C34119   9.172  10.517   7.022  0.5289 -0.6445  0.2170
  994MOL0     C34120   9.863  10.258   7.376  0.2227  0.3625 -0.2999
  994MOL0     C34121   9.995  10.225   7.351  0.1361  0.7437  0.0640
  994MOL0     C34122  10.105  10.299   7.420 -0.1962  0.2265  0.1464
  994MOL0     H34123  10.440  10.116   7.118 -2.7244 -0.8811  0.4664
  994MOL0     H34124  10.648  10.021   7.092 -0.8308 -1.0213 -0.9623
  994MOL0     H34125  10.886   9.975   7.163  2.0549 -0.0907  0.2904
  994MOL0     H34126  10.884   9.947   7.344  2.8769 -1.5857  1.7076
  994MOL0     H34127  10.999   9.757   7.139 -3.0606 -1.7790  0.8080
  994MOL0     H34128  11.008   9.733   7.311 -1.3747 -0.5886 -0.2529
  994MOL0     H34129  11.146   9.928   7.144  1.2926 -1.2547 -0.8169
  994MOL0     H34130  11.215   9.803   7.237 -1.1038 -0.2064 -1.9700
  994MOL0     H34131  11.234  10.037   7.324 -1.7384  2.3250  0.8325
  994MOL0     H34132  11.069  10.038   7.368 -0.6059 -0.2865 -4.0240
  994MOL0     H34133  11.171   9.793   7.485 -0.6294  0.1318  0.4821
  994MOL0     H34134  11.316   9.891   7.475  0.0477 -0.6078 -0.1259
  994MOL0     H34135  11.185  10.065   7.612  0.2509  0.0482  1.5689
  994MOL0     H34136  11.052   9.954   7.623 -0.2744 -0.5895  1.4027
  994MOL0     H34137  11.326   9.910   7.754 -0.3918  2.7638 -0.0713
  994MOL0     H34138  11.213   9.784   7.709 -0.0597  0.8145 -1.6213
  994MOL0     H34139  11.026   9.895   7.855  0.9679 -1.2825 -1.0474
  994MOL0     H34140  11.165   9.824   7.938 -1.3651 -0.4681  1.5813
  994MOL0     H34141  11.367  10.006   8.000 -0.8993 -1.8615  1.4695
  994MOL0     H34142  11.476  10.237   8.039 -0.7263  1.2974 -1.2239
  994MOL0     H34143  11.391  10.387   8.022  1.0468  0.9306  1.0242
  994MOL0     H34144  11.287  10.343   8.249  0.1250  2.1440  1.7150
  994MOL0     H34145  11.407  10.210   8.255  0.8859  1.0867 -0.2143
  994MOL0     H34146  11.476  10.508   8.248 -2.0291 -1.0204  0.0137
  994MOL0     H34147  11.587  10.368   8.221  0.1680 -1.8073 -0.6479
  994MOL0     H34148  11.595  10.293   8.427 -0.6863 -0.1492  2.0768
  994MOL0     H34149  11.450  10.366   8.484 -2.3522  0.5572 -3.5486
  994MOL0     H34150  11.829  10.397   8.359  1.9575  1.0345 -1.1334
  994MOL0     H34151  12.047  10.401   8.478  1.1195  0.6132  2.9817
  994MOL0     H34152  12.280  10.766   8.833  0.3108 -0.8498 -4.1587
  994MOL0     H34153  12.480  10.784   8.970  0.5177  1.0242 -1.3822
  994MOL0     H34154  12.729  10.721   8.979 -0.4156 -0.8969 -0.5925
  994MOL0     H34155  12.667  10.773   9.138  0.8224  0.8234  0.6699
  994MOL0     H34156  12.816  10.587   9.233  1.8458 -1.4604 -0.8136
  994MOL0     H34157  12.892  10.585   9.075  0.0129  1.4557 -1.6570
  994MOL0     H34158  12.963  10.809   9.093 -0.0120 -1.3085 -0.8390
  994MOL0     H34159  12.830  10.839   9.220 -0.5209  2.0072 -0.4103
  994MOL0     H34160  12.969  10.748   9.382 -0.8029  1.3119 -0.8122
  994MOL0     H34161  13.080  10.861   9.296  0.1658 -0.5871  0.6164
  994MOL0     H34162  13.070  10.555   9.265 -2.3989  0.7661  1.4860
  994MOL0     H34163  13.193  10.635   9.364  0.1506  1.1098 -0.8504
  994MOL0     H34164  13.282  10.554   9.139 -0.1317 -0.5944  1.4858
  994MOL0     H34165  13.167  10.660   9.056  0.0230 -1.5052  0.3653
  994MOL0     H34166  13.276  10.857   9.148 -1.7088  0.5056  2.3477
  994MOL0     H34167  13.392  10.757   9.063 -3.4444 -0.3043 -2.2464
  994MOL0     H34168  13.340  10.795   9.363 -0.7607 -3.0947  1.6285
  994MOL0     H34169  13.433  10.658   9.320 -1.2378  1.4290  0.7607
  994MOL0     H34170  12.461  10.352   9.047 -4.2122  0.2935  2.6214
  994MOL0     H34171  12.262  10.345   8.923  0.5976 -0.6911 -0.4108
  994MOL0     H34172  11.870  10.525   8.842 -0.2110  1.0056  0.6222
  994MOL0     H34173  11.648  10.543   8.725  1.6337  1.8683  1.1533
  994MOL0     H34174  10.611   9.793   7.459  1.2049  0.5579  0.5851
  994MOL0     H34175  10.392   9.909   7.498  1.1308  0.5846  1.6980
  994MOL0     H34176   9.947   9.984   7.111 -0.0270 -0.1062  0.4221
  994MOL0     H34177   9.723  10.026   7.163  0.4299  1.2777 -2.4439
  994MOL0     H34178   9.647  10.402   7.225 -0.0696 -1.6802 -0.4625
  994MOL0     H34179   9.551  10.402   7.375  2.4639  5.2100 -2.2636
  994MOL0     H34180   9.455  10.235   7.142 -1.0403 -0.9128  1.5091
  994MOL0     H34181   9.448  10.417   7.136  0.6038 -1.0316 -0.3743
  994MOL0     H34182   9.314  10.422   7.336  1.0521  0.3618  1.9808
  994MOL0     H34183   9.317  10.242   7.345 -2.1043 -2.7353 -3.5898
  994MOL0     H34184   9.210  10.223   7.126 -0.5142 -0.0256 -1.2459
  994MOL0     H34185   9.110  10.316   7.248  0.0599  1.0140 -0.4247
  994MOL0     H34186   9.159  10.603   6.960 -0.3010 -0.1086  1.1096
  994MOL0     H34187   9.847  10.346   7.437 -2.6980 -0.8511  0.8447
  994MOL0     H34188  10.146  10.226   7.490  2.8994 -0.8237 -2.5026
  994MOL0     H34189  10.185  10.331   7.352  1.6097 -0.6295  1.7533
  994MOL0     H34190  10.062  10.380   7.481 -1.1676 -1.2906  1.5579
  995MOL0     O34191   6.882   7.138  11.340 -0.3981  0.1465  0.1531
  995MOL0     C34192   6.868   7.222  11.252 -0.6705 -0.6192  0.3553
  995MOL0     O34193   6.943   7.339  11.235  0.3522  0.7183 -0.2619
  995MOL0     C34194   7.052   7.376  11.310  0.7628  0.6740 -0.3937
  995MOL0     C34195   7.123   7.309  11.415  1.1083 -0.6886  0.9707
  995MOL0     C34196   7.214   7.378  11.499  0.4130  0.4157 -0.9568
  995MOL0     C34197   7.244   7.510  11.480 -0.2447  0.0088  0.2429
  995MOL0     O34198   7.333   7.582  11.564  0.2824  0.0873 -0.0201
  995MOL0     C34199   7.441   7.509  11.627  0.4913  0.3735 -0.2783
  995MOL0     C34200   7.555   7.603  11.686 -0.0634 -0.1042 -0.3627
  995MOL0     C34201   7.510   7.701  11.794  0.5013 -0.4232  0.4674
  995MOL0     C34202   7.484   7.645  11.935 -0.2499  0.0329  0.3304
  995MOL0     C34203   7.441   7.758  12.028 -0.5067  0.4576 -1.8314
  995MOL0     C34204   7.461   7.728  12.179 -0.1540 -0.6453  0.2826
  995MOL0     C34205   7.404   7.843  12.268 -0.6932 -0.0475 -0.0150
  995MOL0     C34206   7.507   7.956  12.297 -0.3777  0.3920  0.3477
  995MOL0     N34207   7.448   8.081  12.338  0.3102  0.0811  0.3158
  995MOL0     C34208   7.366   8.105  12.445  0.3181 -1.2279 -0.1584
  995MOL0     C34209   7.350   8.239  12.447  0.2133  0.1980 -0.0637
  995MOL0     C34210   7.290   8.322  12.551 -0.5725  0.3928 -1.0776
  995MOL0     C34211   7.372   8.448  12.577 -1.1516 -1.0787  0.2168
  995MOL0     C34212   7.513   8.396  12.621 -0.3402 -0.4050 -1.0903
  995MOL0     C34213   7.518   8.370  12.774  0.6903  0.1505 -0.5588
  995MOL0     O34214   7.583   8.240  12.799 -0.2109 -0.0635  0.5147
  995MOL0     C34215   7.499   8.145  12.864  0.0277  0.0489 -0.2448
  995MOL0     C34216   7.449   8.157  12.997 -0.4193  0.0616 -0.0918
  995MOL0     C34217   7.372   8.059  13.054  0.6243 -0.2417 -0.2803
  995MOL0     C34218   7.344   7.943  12.991  0.2113  0.6356  0.0603
  995MOL0     C34219   7.263   7.842  13.056 -0.0524  1.2836  0.6482
  995MOL0     O34220   7.248   7.863  13.185  0.7209 -0.1887 -0.3273
  995MOL0     C34221   7.238   7.753  13.262  0.0103 -0.0533 -0.3262
  995MOL0     C34222   7.146   7.750  13.368  0.5579  0.2479 -0.1096
  995MOL0     C34223   7.121   7.643  13.451 -0.4011  0.2336  0.5920
  995MOL0     C34224   7.206   7.523  13.426  0.4838  0.6070 -0.6255
  995MOL0     O34225   7.185   7.398  13.505 -0.2825  0.2847  0.1480
  995MOL0     C34226   7.105   7.403  13.624  0.0802  0.4981  0.7716
  995MOL0     C34227   7.132   7.294  13.725 -1.1111 -0.9617 -0.0568
  995MOL0     C34228   7.094   7.155  13.674 -0.1271  1.0731  0.2925
  995MOL0     C34229   7.124   7.039  13.778  0.4871 -0.4635 -0.2041
  995MOL0     C34230   7.016   7.021  13.879 -0.2411 -0.6971  0.8394
  995MOL0     C34231   7.050   6.901  13.961 -0.5202  0.7876 -0.7585
  995MOL0     C34232   6.932   6.862  14.057  0.2148  0.0345  1.0214
  995MOL0     C34233   6.972   6.758  14.161 -0.0815  0.5579  0.8626
  995MOL0    Cl34234   6.828   6.725  14.265 -0.5774 -0.3555  0.3073
  995MOL0     C34235   7.299   7.525  13.323 -0.3503 -0.6923 -0.1587
  995MOL0     C34236   7.325   7.639  13.248 -0.0424 -0.4415 -0.6896
  995MOL0     O34237   7.219   7.741  13.001  0.2913 -0.6004 -0.1168
  995MOL0     C34238   7.396   7.922  12.866  0.0896  0.2737 -0.4605
  995MOL0     C34239   7.470   8.021  12.806 -0.1989 -0.1139  0.4105
  995MOL0     N34240   7.408   8.294  12.334  0.5652  0.0843  0.2578
  995MOL0     N34241   7.468   8.199  12.267  0.0265  0.5596  0.1471
  995MOL0     C34242   7.176   7.576  11.373  0.6867  0.7985  0.1607
  995MOL0     C34243   7.073   7.510  11.292 -0.1437  0.7728 -1.1066
  995MOL0     C34244   6.803   7.169  11.132  0.4823  0.7357 -0.2335
  995MOL0     C34245   6.683   7.104  11.158 -0.0404 -0.6497  0.0411
  995MOL0     C34246   6.601   7.058  11.059  0.2992  0.0557  0.2116
  995MOL0     C34247   6.643   7.078  10.926  0.0249 -1.3255 -0.7687
  995MOL0     O34248   6.578   7.035  10.813 -0.8772 -0.1301  0.4370
  995MOL0     C34249   6.447   6.966  10.822 -0.2812 -0.1458  0.6078
  995MOL0     C34250   6.326   7.062  10.834  0.4480  0.3017  0.2222
  995MOL0     C34251   6.307   7.164  10.709 -1.2592 -0.2579  0.2639
  995MOL0     C34252   6.182   7.259  10.723 -0.5734 -0.2524 -1.4555
  995MOL0     C34253   6.061   7.184  10.737  0.8184 -0.5741  0.3651
  995MOL0     C34254   5.966   7.108  10.750 -0.5310  0.1922 -0.6398
  995MOL0     C34255   6.763   7.137  10.899  0.1895  0.1135  0.9461
  995MOL0     C34256   6.842   7.185  10.995 -0.5988 -0.4843 -0.4397
  995MOL0     C34257   6.971   7.252  10.951  0.3806 -0.4214  0.0953
  995MOL0     H34258   7.108   7.202  11.427 -2.8945 -0.2764  0.7459
  995MOL0     H34259   7.252   7.323  11.584 -0.7854  2.8228  1.2419
  995MOL0     H34260   7.404   7.434  11.697  1.6926  0.8923  0.9458
  995MOL0     H34261   7.492   7.459  11.544 -2.0184 -1.1079 -1.0437
  995MOL0     H34262   7.598   7.661  11.604 -1.4723 -1.3362 -2.0809
  995MOL0     H34263   7.632   7.542  11.735  1.8683  0.1723 -2.8604
  995MOL0     H34264   7.424   7.760  11.759 -0.9924 -2.2396  0.9145
  995MOL0     H34265   7.579   7.786  11.798  0.6354 -0.4500 -0.6935
  995MOL0     H34266   7.408   7.566  11.928  0.4808 -0.5947 -0.9433
  995MOL0     H34267   7.573   7.603  11.982  1.0914 -1.0957 -2.9021
  995MOL0     H34268   7.500   7.847  12.005  1.0406 -0.4200 -1.4002
  995MOL0     H34269   7.333   7.777  12.021 -1.3627 -2.4080  1.1283
  995MOL0     H34270   7.405   7.637  12.203  2.9319 -2.5326  1.0116
  995MOL0     H34271   7.564   7.711  12.213  0.0101 -1.0718 -0.3913
  995MOL0     H34272   7.378   7.807  12.368 -0.2818  1.8165  0.8183
  995MOL0     H34273   7.309   7.886  12.235 -0.4834 -0.9078 -1.8835
  995MOL0     H34274   7.576   7.919  12.374 -1.4030  3.7711  3.1648
  995MOL0     H34275   7.574   7.979  12.214  2.4742 -1.4050  1.9879
  995MOL0     H34276   7.323   8.042  12.522 -1.6631 -1.4964 -1.3999
  995MOL0     H34277   7.186   8.353  12.538 -0.2723  3.1635  1.9686
  995MOL0     H34278   7.297   8.265  12.644  0.7660  1.4686 -0.4873
  995MOL0     H34279   7.384   8.518  12.494  0.7984 -0.2067  1.1644
  995MOL0     H34280   7.331   8.516  12.652 -1.5607 -0.8188 -0.2345
  995MOL0     H34281   7.584   8.472  12.587 -1.7048  0.4382 -2.1995
  995MOL0     H34282   7.547   8.306  12.570  0.9631 -0.0588 -0.8654
  995MOL0     H34283   7.415   8.368  12.811  0.8760 -4.0587  0.2044
  995MOL0     H34284   7.577   8.450  12.819  0.5405 -0.5713  0.9598
  995MOL0     H34285   7.465   8.251  13.050 -3.5999 -0.1985  1.5187
  995MOL0     H34286   7.327   8.074  13.152 -1.7490  0.2893 -1.3811
  995MOL0     H34287   7.087   7.839  13.392  0.1955 -0.9363  4.2223
  995MOL0     H34288   7.047   7.649  13.530 -1.4636 -0.1322 -0.3400
  995MOL0     H34289   7.130   7.497  13.673  2.6530  0.3187 -0.0339
  995MOL0     H34290   7.000   7.398  13.595 -0.1558  1.7623  1.3504
  995MOL0     H34291   7.236   7.300  13.757 -0.2803 -3.0364 -2.0651
  995MOL0     H34292   7.072   7.330  13.809  1.0671  2.0664  0.3597
  995MOL0     H34293   6.994   7.147  13.630 -0.9999 -5.3606  2.4309
  995MOL0     H34294   7.171   7.134  13.598 -0.3572  1.5037 -0.0678
  995MOL0     H34295   7.216   7.067  13.831  0.4833 -0.0346 -0.4201
  995MOL0     H34296   7.142   6.945  13.725 -3.1624 -2.6790  2.1076
  995MOL0     H34297   6.922   7.016  13.823  1.6082 -1.0654 -2.5190
  995MOL0     H34298   6.995   7.099  13.953 -0.4961  0.2172 -0.1616
  995MOL0     H34299   7.071   6.816  13.895  0.9849  0.5198  0.0160
  995MOL0     H34300   7.139   6.910  14.024 -1.4359  0.7373  0.6028
  995MOL0     H34301   6.861   6.815  13.988  0.1201 -2.4732  2.6713
  995MOL0     H34302   6.893   6.952  14.104  2.0656  1.8417 -0.6506
  995MOL0     H34303   7.004   6.667  14.109 -1.7113  0.3453  0.1723
  995MOL0     H34304   7.053   6.814  14.208 -1.0772  4.6452 -1.8465
  995MOL0     H34305   7.359   7.435  13.316 -0.1465 -0.6956  1.2267
  995MOL0     H34306   7.403   7.638  13.173  0.1914  0.0525 -0.4513
  995MOL0     H34307   7.392   7.829  12.809 -3.7433 -0.8161  1.2258
  995MOL0     H34308   7.507   8.003  12.706  3.0569  0.8077  1.3331
  995MOL0     H34309   7.192   7.683  11.363  0.9541  0.6127 -1.9751
  995MOL0     H34310   7.009   7.560  11.220  0.4308  1.8501 -0.8817
  995MOL0     H34311   6.651   7.088  11.260 -0.6002 -0.9907 -0.1862
  995MOL0     H34312   6.498   7.028  11.075  0.4007  0.0234  0.8334
  995MOL0     H34313   6.439   6.886  10.897 -1.5929  0.0056  0.6415
  995MOL0     H34314   6.453   6.911  10.728  1.3094  0.9227  0.0407
  995MOL0     H34315   6.349   7.129  10.918 -1.2990 -2.0474  2.7199
  995MOL0     H34316   6.236   7.006  10.859  0.0907  0.9231  0.3390
  995MOL0     H34317   6.287   7.113  10.614 -0.6745 -0.3648  0.1986
  995MOL0     H34318   6.403   7.216  10.712 -0.8756 -0.9682  2.8094
  995MOL0     H34319   6.206   7.316  10.813 -2.5456  0.3681 -1.2810
  995MOL0     H34320   6.173   7.337  10.647  0.9269 -0.3539 -1.7739
  995MOL0     H34321   5.887   7.036  10.759  0.5461 -1.0796 -0.9341
  995MOL0     H34322   6.783   7.157  10.794 -0.2830  1.8322  1.1432
  995MOL0     H34323   7.054   7.238  11.020 -0.5597  1.4317  1.6952
  995MOL0     H34324   7.004   7.216  10.853 -0.7301 -1.6190  0.1374
  995MOL0     H34325   6.965   7.361  10.952 -0.3923 -0.4417  1.9905
  996MOL0     O34326   1.491   6.364   9.119  0.1633  1.1746 -0.1507
  996MOL0     C34327   1.531   6.439   9.206 -0.8774  0.0344  0.2082
  996MOL0     O34328   1.479   6.565   9.231  0.1861 -0.0405  0.3886
  996MOL0     C34329   1.391   6.626   9.143 -0.3421  0.1639  0.5644
  996MOL0     C34330   1.255   6.600   9.156 -0.9673 -0.4194  0.0058
  996MOL0     C34331   1.167   6.664   9.070  0.0867  0.5071  0.6351
  996MOL0     C34332   1.207   6.753   8.970  1.1190 -0.4330  0.0762
  996MOL0     O34333   1.112   6.798   8.891  0.2644 -0.4031 -0.2130
  996MOL0     C34334   1.134   6.905   8.801  1.0840  0.3347  0.1065
  996MOL0     C34335   1.008   6.941   8.729  0.0193 -0.5782 -0.5623
  996MOL0     C34336   0.898   7.024   8.797 -0.1011  0.0407 -1.0167
  996MOL0     C34337   0.910   7.170   8.796 -0.3895  0.5311  0.2747
  996MOL0     C34338   0.803   7.247   8.870 -0.4954 -0.5315  0.1293
  996MOL0     C34339   0.799   7.395   8.850  0.2178 -0.2828  0.3575
  996MOL0     C34340   0.665   7.459   8.873  0.7314  0.0806 -0.1841
  996MOL0     C34341   0.602   7.440   9.008  0.0767  0.0128 -0.3097
  996MOL0     N34342   0.472   7.381   8.986 -0.2027  0.2948 -0.3174
  996MOL0     C34343   0.359   7.457   8.982 -0.0826 -0.0633 -0.2263
  996MOL0     C34344   0.259   7.372   8.957 -0.9442  0.3563  0.6903
  996MOL0     C34345   0.113   7.400   8.921 -0.3988 -0.1305  0.4753
  996MOL0     C34346   0.030   7.442   9.033  0.2398 -0.5177 -0.0079
  996MOL0     C34347   0.058   7.576   9.092 -0.3886  0.5544  0.1747
  996MOL0     C34348  -0.014   7.584   9.222 -0.2947  0.0093  0.3435
  996MOL0     O34349  -0.152   7.576   9.198  0.7819  0.3842  0.1349
  996MOL0     C34350  -0.241   7.621   9.297  0.8084 -0.1331 -1.1293
  996MOL0     C34351  -0.372   7.663   9.261  0.0457  0.2231  0.4346
  996MOL0     C34352  -0.470   7.695   9.357  0.4944 -0.0977  0.4048
  996MOL0     C34353  -0.437   7.691   9.496 -0.1717 -0.2450  0.3336
  996MOL0     C34354  -0.534   7.729   9.598 -0.2457 -0.4492  0.3408
  996MOL0     O34355  -0.547   7.664   9.715 -0.6658 -0.4973 -0.1333
  996MOL0     C34356  -0.624   7.708   9.823 -0.0716 -0.3266 -0.3209
  996MOL0     C34357  -0.662   7.841   9.849  0.2543  0.0397  0.2086
  996MOL0     C34358  -0.749   7.871   9.955 -0.4294 -0.4649  0.2301
  996MOL0     C34359  -0.782   7.770  10.047 -0.2035  0.5487  0.1012
  996MOL0     O34360  -0.854   7.807  10.161 -0.1266 -0.2321 -0.1955
  996MOL0     C34361  -0.827   7.733  10.280 -0.4959  0.8863 -0.9606
  996MOL0     C34362  -0.893   7.801  10.391  0.5100 -0.4726  0.3154
  996MOL0     C34363  -0.866   7.957  10.397  0.0980  0.4079 -0.1666
  996MOL0     C34364  -0.716   7.982  10.413  0.1911  0.1750  0.2159
  996MOL0     C34365  -0.699   8.123  10.463  0.7965 -0.6520  1.0105
  996MOL0     C34366  -0.566   8.189  10.404  0.2786  0.4710 -1.2185
  996MOL0     C34367  -0.566   8.336  10.457 -0.3808  0.2788 -0.0910
  996MOL0     C34368  -0.466   8.407  10.360 -0.2590 -0.4054  0.8665
  996MOL0    Cl34369  -0.297   8.355  10.366 -0.1841 -0.2966 -0.4401
  996MOL0     C34370  -0.725   7.640  10.032  0.3540 -0.0286 -0.1936
  996MOL0     C34371  -0.659   7.607   9.916 -0.1408  0.3722 -0.2695
  996MOL0     O34372  -0.602   7.829   9.560  0.6555  0.7187 -0.5995
  996MOL0     C34373  -0.304   7.652   9.531  0.2794  1.0808  0.1752
  996MOL0     C34374  -0.204   7.620   9.437  0.3466 -0.7175  0.3813
  996MOL0     N34375   0.324   7.250   8.942  0.2307 -0.2747 -0.4772
  996MOL0     N34376   0.448   7.255   8.959 -0.8230  0.8178  0.3232
  996MOL0     C34377   1.348   6.789   8.970  0.3867  0.2868  1.3472
  996MOL0     C34378   1.440   6.721   9.049 -0.2300  0.7134  0.8722
  996MOL0     C34379   1.657   6.416   9.269  0.6204 -0.3760  0.6724
  996MOL0     C34380   1.718   6.529   9.336  0.2213  0.3204 -0.4316
  996MOL0     C34381   1.853   6.515   9.380 -0.1473 -0.8741 -0.0264
  996MOL0     C34382   1.931   6.407   9.368  0.1183 -0.7189  0.3113
  996MOL0     O34383   2.057   6.408   9.416  0.1348  0.1951  0.4433
  996MOL0     C34384   2.145   6.304   9.361 -0.2895 -0.8065  0.2839
  996MOL0     C34385   2.284   6.321   9.426 -0.0254  0.6009 -0.0463
  996MOL0     C34386   2.342   6.453   9.385  0.1157  1.1682 -0.6744
  996MOL0     C34387   2.495   6.454   9.435 -0.0165  0.4194 -0.1567
  996MOL0     C34388   2.510   6.463   9.584  0.4834  0.3756  0.4097
  996MOL0     C34389   2.525   6.466   9.705 -0.4117 -0.3424 -0.3405
  996MOL0     C34390   1.867   6.297   9.312  0.2222  0.2731 -0.3917
  996MOL0     C34391   1.733   6.290   9.259 -1.3282  0.1048 -0.1874
  996MOL0     C34392   1.685   6.162   9.209 -0.5283  0.2750 -0.3361
  996MOL0     H34393   1.217   6.516   9.214  2.0186 -3.9120 -2.5825
  996MOL0     H34394   1.063   6.632   9.074 -0.0820  0.9587  0.0498
  996MOL0     H34395   1.180   6.990   8.854  0.0781  1.1538 -0.3014
  996MOL0     H34396   1.204   6.872   8.724 -2.6957 -0.0798 -3.4437
  996MOL0     H34397   0.975   6.843   8.692  3.2911 -1.2536 -2.0048
  996MOL0     H34398   1.052   6.987   8.640  3.8307  1.7664  2.2522
  996MOL0     H34399   0.878   6.991   8.899 -1.2377 -0.1750 -1.2893
  996MOL0     H34400   0.802   7.001   8.748 -1.9717 -0.1502  2.4160
  996MOL0     H34401   1.009   7.191   8.838 -1.8525  2.8379  2.8979
  996MOL0     H34402   0.906   7.208   8.694 -1.9651  0.8765  0.4470
  996MOL0     H34403   0.705   7.199   8.858 -1.9355  2.1626  0.3123
  996MOL0     H34404   0.827   7.230   8.975  1.3601  1.7227  0.1706
  996MOL0     H34405   0.880   7.445   8.906  0.2554  2.8989 -2.2236
  996MOL0     H34406   0.834   7.422   8.750  0.1817  3.6108  1.2071
  996MOL0     H34407   0.605   7.417   8.792  1.2204 -2.6589  0.7651
  996MOL0     H34408   0.663   7.567   8.854 -1.4191 -0.2578 -2.2756
  996MOL0     H34409   0.666   7.380   9.073  0.0758 -0.6449 -0.8953
  996MOL0     H34410   0.590   7.539   9.054 -0.4764  1.8498 -4.0121
  996MOL0     H34411   0.358   7.565   8.997 -2.8392 -0.0784  0.1235
  996MOL0     H34412   0.092   7.472   8.842 -2.0474  0.9750  1.8355
  996MOL0     H34413   0.059   7.308   8.897 -4.6847  1.8381  1.6078
  996MOL0     H34414  -0.075   7.437   9.004  0.5302 -0.5081 -1.0939
  996MOL0     H34415   0.040   7.372   9.116 -2.5333  0.5177  1.3061
  996MOL0     H34416   0.025   7.654   9.022  0.2453 -1.7350 -2.8757
  996MOL0     H34417   0.164   7.599   9.103 -0.1839  1.2172 -2.4042
  996MOL0     H34418   0.013   7.681   9.264 -0.0637  0.7100 -1.3787
  996MOL0     H34419   0.021   7.504   9.288 -0.4206 -0.4359 -0.1212
  996MOL0     H34420  -0.392   7.679   9.155  2.7581 -1.0509 -0.3583
  996MOL0     H34421  -0.566   7.733   9.324  0.3694  0.7888  1.6925
  996MOL0     H34422  -0.626   7.912   9.776 -0.0970 -0.6707 -0.6805
  996MOL0     H34423  -0.779   7.972   9.983  1.1150 -0.0612  0.5270
  996MOL0     H34424  -0.865   7.630  10.273  0.5614  0.1965  2.1169
  996MOL0     H34425  -0.720   7.731  10.302 -0.2776  1.3364 -1.9269
  996MOL0     H34426  -1.002   7.792  10.382  0.5698 -3.1538  1.3818
  996MOL0     H34427  -0.876   7.747  10.484  1.4005  1.1281  1.1150
  996MOL0     H34428  -0.904   8.011  10.309 -0.3302 -0.9821 -0.8530
  996MOL0     H34429  -0.908   7.997  10.490  3.1720  1.8024  0.7322
  996MOL0     H34430  -0.655   7.975  10.323  1.1386  0.4952  0.8242
  996MOL0     H34431  -0.675   7.902  10.475  2.0599  0.4092 -0.6618
  996MOL0     H34432  -0.693   8.128  10.572  1.2402 -0.5045  0.9822
  996MOL0     H34433  -0.780   8.194  10.439  0.5493 -0.8462  1.2623
  996MOL0     H34434  -0.479   8.134  10.439 -0.4024 -1.1137 -1.9351
  996MOL0     H34435  -0.552   8.174  10.296  0.5464 -3.3284 -0.7919
  996MOL0     H34436  -0.526   8.351  10.558 -1.9068  1.5202  0.3702
  996MOL0     H34437  -0.665   8.381  10.460 -1.2588 -1.5635  3.0519
  996MOL0     H34438  -0.491   8.383  10.257  3.7960 -3.0724  0.2817
  996MOL0     H34439  -0.478   8.515  10.376  1.4347 -0.3462  2.0009
  996MOL0     H34440  -0.741   7.563  10.108  0.5729  0.7159  0.6289
  996MOL0     H34441  -0.619   7.512   9.883  2.5339  0.4953  2.1667
  996MOL0     H34442  -0.278   7.649   9.636  1.1165  0.1074 -0.0448
  996MOL0     H34443  -0.103   7.589   9.462  0.3349 -1.4487 -0.4148
  996MOL0     H34444   1.384   6.864   8.901 -3.7271  1.5039  0.2287
  996MOL0     H34445   1.546   6.738   9.064 -0.3385  1.7634  0.5772
  996MOL0     H34446   1.669   6.625   9.343 -2.7853 -1.2035  2.2420
  996MOL0     H34447   1.902   6.601   9.424 -0.0547 -0.9092 -0.0597
  996MOL0     H34448   2.163   6.326   9.255 -1.0420  2.3857  0.7360
  996MOL0     H34449   2.107   6.202   9.377  1.4837 -1.4666  0.4629
  996MOL0     H34450   2.348   6.251   9.373 -1.6553 -0.2954 -0.8892
  996MOL0     H34451   2.272   6.303   9.533 -1.0884  0.0118 -0.2564
  996MOL0     H34452   2.289   6.533   9.437 -0.1527 -1.1338  2.9607
  996MOL0     H34453   2.347   6.462   9.276 -3.1954  1.2283 -0.9199
  996MOL0     H34454   2.546   6.366   9.397 -3.8098 -2.5449  1.0598
  996MOL0     H34455   2.543   6.549   9.408 -1.5100  2.4968  3.6667
  996MOL0     H34456   2.531   6.452   9.811  0.0005 -0.8270 -0.4226
  996MOL0     H34457   1.914   6.200   9.313  0.4637  0.3830  0.9465
  996MOL0     H34458   1.769   6.092   9.201  0.1408  1.2260 -2.2245
  996MOL0     H34459   1.619   6.122   9.287  1.2245  1.1725  1.7328
  996MOL0     H34460   1.629   6.172   9.116 -1.7049  0.5555  0.3771
  997MOL0     O34461   1.801  10.565   7.019 -0.0173 -0.5865  0.2069
  997MOL0     C34462   1.703  10.530   7.087  0.9682  0.2206 -0.4352
  997MOL0     O34463   1.591  10.483   7.035  0.6954  0.1639  0.5400
  997MOL0     C34464   1.544  10.512   6.913  0.3524  0.2373  0.2620
  997MOL0     C34465   1.566  10.630   6.839 -0.6934 -0.1119  0.4568
  997MOL0     C34466   1.516  10.655   6.711  0.5842  0.2436  0.4933
  997MOL0     C34467   1.436  10.559   6.653  0.0757 -0.6059  0.3307
  997MOL0     O34468   1.386  10.579   6.523  0.1360 -0.2744 -0.2166
  997MOL0     C34469   1.250  10.616   6.533  0.2669  0.8323 -0.5324
  997MOL0     C34470   1.203  10.690   6.404 -0.6897  0.7996  0.4290
  997MOL0     C34471   1.057  10.717   6.423  0.4942 -0.5073 -0.3368
  997MOL0     C34472   0.996  10.797   6.309  0.6803 -0.7528 -0.2545
  997MOL0     C34473   0.974  10.709   6.178  0.8431 -0.7463  0.6315
  997MOL0     C34474   0.894  10.777   6.078  0.5958  0.5166  0.7702
  997MOL0     C34475   0.871  10.692   5.958 -0.2216 -0.2002  0.1987
  997MOL0     C34476   0.821  10.791   5.853  0.4199 -0.3167 -0.3506
  997MOL0     N34477   0.778  10.722   5.728  1.2672 -0.8365  0.5372
  997MOL0     C34478   0.721  10.785   5.616 -0.5263 -0.8505 -0.3536
  997MOL0     C34479   0.673  10.682   5.539 -0.7112 -0.6362  0.6282
  997MOL0     C34480   0.631  10.689   5.392 -0.3837 -0.2730  0.1455
  997MOL0     C34481   0.480  10.704   5.372 -0.0988  0.3630  0.2774
  997MOL0     C34482   0.409  10.805   5.455 -1.2104  0.1220 -0.4097
  997MOL0     C34483   0.249  10.811   5.430 -0.5027  0.4667 -0.4394
  997MOL0     O34484   0.197  10.893   5.534  0.2538 -0.0809  0.4881
  997MOL0     C34485   0.056  10.890   5.542  0.4543 -0.2284  0.0560
  997MOL0     C34486  -0.002  10.975   5.640 -0.9335 -0.7737  0.0588
  997MOL0     C34487  -0.137  10.991   5.648  1.0611  0.3153 -0.8100
  997MOL0     C34488  -0.229  10.926   5.565 -0.2358  0.0186 -0.1552
  997MOL0     C34489  -0.374  10.945   5.582  0.6976 -0.9131 -0.0477
  997MOL0     O34490  -0.457  10.906   5.485 -0.2767 -0.3708 -0.0649
  997MOL0     C34491  -0.601  10.900   5.493 -0.0563 -0.2113 -0.3690
  997MOL0     C34492  -0.669  10.912   5.375  0.1304  0.5236 -0.4417
  997MOL0     C34493  -0.804  10.911   5.371  0.3307  0.3386  0.4131
  997MOL0     C34494  -0.881  10.911   5.489  0.2046  0.4223 -0.2796
  997MOL0     O34495  -1.022  10.909   5.471 -0.3498 -0.3012  0.1361
  997MOL0     C34496  -1.111  10.896   5.583  0.2325  0.3701 -0.0845
  997MOL0     C34497  -1.262  10.905   5.549  1.1476 -0.1887 -0.3086
  997MOL0     C34498  -1.320  10.819   5.445 -0.0256 -0.1699 -0.2194
  997MOL0     C34499  -1.326  10.895   5.307 -0.2938 -0.1938  0.9587
  997MOL0     C34500  -1.374  10.800   5.194 -0.2373  0.0762 -0.3901
  997MOL0     C34501  -1.396  10.861   5.060 -0.1774  0.3071 -0.1704
  997MOL0     C34502  -1.286  10.828   4.970 -0.6869  0.1434  0.1704
  997MOL0     C34503  -1.299  10.895   4.832  0.5692 -0.3322 -0.3619
  997MOL0    Cl34504  -1.455  10.865   4.751 -0.7145  0.5241 -0.0020
  997MOL0     C34505  -0.818  10.891   5.615 -0.5646 -0.7469 -0.0371
  997MOL0     C34506  -0.678  10.895   5.616 -0.0999  0.5701  0.7790
  997MOL0     O34507  -0.414  10.984   5.690  0.0056  0.6044 -0.8884
  997MOL0     C34508  -0.173  10.854   5.461 -1.5191 -0.8011 -0.4881
  997MOL0     C34509  -0.032  10.834   5.452  1.4768 -0.2263  0.7074
  997MOL0     N34510   0.712  10.563   5.601  0.3337  0.0823 -0.5306
  997MOL0     N34511   0.777  10.588   5.715  0.5109 -0.7448  0.1897
  997MOL0     C34512   1.418  10.442   6.728 -0.0499  1.3129  0.6870
  997MOL0     C34513   1.467  10.418   6.853 -0.2661  0.1738 -0.3761
  997MOL0     C34514   1.713  10.553   7.235  0.8366  0.5991  0.1182
  997MOL0     C34515   1.621  10.480   7.305  0.0173  0.1361 -0.0285
  997MOL0     C34516   1.620  10.479   7.442  0.2336 -0.9625 -0.3435
  997MOL0     C34517   1.704  10.564   7.517 -0.4167  0.1731 -0.1776
  997MOL0     O34518   1.725  10.566   7.654  0.0076  0.9891  0.6176
  997MOL0     C34519   1.659  10.486   7.749 -0.4682 -0.2025  0.1294
  997MOL0     C34520   1.526  10.552   7.781 -0.0978  0.3374  0.1352
  997MOL0     C34521   1.438  10.493   7.896 -0.4640 -0.0318  0.4394
  997MOL0     C34522   1.309  10.577   7.929  0.4218  0.0442  0.5504
  997MOL0     C34523   1.228  10.610   7.806  0.1653  0.6621 -0.5001
  997MOL0     C34524   1.185  10.621   7.693 -0.6282  0.4745  0.0306
  997MOL0     C34525   1.796  10.643   7.446 -1.1581  0.3129  0.3524
  997MOL0     C34526   1.800  10.641   7.310  0.2487 -0.5635  0.1267
  997MOL0     C34527   1.919  10.714   7.233 -1.2442 -0.0902  0.3871
  997MOL0     H34528   1.618  10.717   6.877 -1.1002 -0.2017  1.2223
  997MOL0     H34529   1.530  10.748   6.657  0.7589  0.0885  0.2661
  997MOL0     H34530   1.185  10.528   6.541 -0.5094  1.4594  0.2124
  997MOL0     H34531   1.222  10.683   6.615 -0.4218  1.7188 -1.4726
  997MOL0     H34532   1.221  10.629   6.315 -1.5322  0.2036  0.6585
  997MOL0     H34533   1.253  10.783   6.378 -1.6687  1.3015  0.3042
  997MOL0     H34534   1.047  10.781   6.511  2.8691 -0.3292 -0.1351
  997MOL0     H34535   1.005  10.623   6.445 -0.7076  0.5606  1.8071
  997MOL0     H34536   0.896  10.833   6.336  2.3334  3.2480  1.3331
  997MOL0     H34537   1.049  10.892   6.304 -1.2303  0.4713  1.2930
  997MOL0     H34538   1.071  10.671   6.146  0.8215 -1.6284  1.5592
  997MOL0     H34539   0.919  10.618   6.206  1.9806 -0.6676  3.4611
  997MOL0     H34540   0.804  10.813   6.128  2.1144  0.9129  3.3984
  997MOL0     H34541   0.948  10.869   6.051  0.3924  1.1185  2.3489
  997MOL0     H34542   0.792  10.618   5.975  1.8782 -2.9568 -1.2936
  997MOL0     H34543   0.966  10.644   5.933 -0.9844 -1.2670 -0.7826
  997MOL0     H34544   0.743  10.860   5.888  1.4277 -0.4766  2.4062
  997MOL0     H34545   0.896  10.868   5.832 -0.4779  0.7538  0.2290
  997MOL0     H34546   0.728  10.889   5.587  1.7296 -1.3254 -1.7664
  997MOL0     H34547   0.687  10.768   5.343 -1.5127  0.2880 -0.2698
  997MOL0     H34548   0.657  10.590   5.353  0.7510  0.6406 -1.5306
  997MOL0     H34549   0.466  10.729   5.267 -3.1347 -0.7525  0.3236
  997MOL0     H34550   0.429  10.608   5.388  2.4652 -0.8311  2.0814
  997MOL0     H34551   0.469  10.896   5.448  0.6105 -1.0887 -1.0471
  997MOL0     H34552   0.426  10.764   5.555  1.1390 -4.3160 -2.3787
  997MOL0     H34553   0.201  10.712   5.431  2.5959 -1.1791 -1.0894
  997MOL0     H34554   0.223  10.853   5.332 -3.3074 -3.6183 -1.7576
  997MOL0     H34555   0.053  11.046   5.701 -0.2655 -0.6137 -0.6929
  997MOL0     H34556  -0.169  11.058   5.727 -2.0053 -0.3966 -1.3031
  997MOL0     H34557  -0.599  10.929   5.294  3.8888 -2.3404  1.8883
  997MOL0     H34558  -0.858  10.928   5.278  1.3007  0.2268 -0.1863
  997MOL0     H34559  -1.097  10.797   5.625 -0.2528 -1.3403 -3.5513
  997MOL0     H34560  -1.082  10.967   5.661  1.5613  1.6272 -1.6535
  997MOL0     H34561  -1.306  10.873   5.644  0.6844 -0.2806 -0.5512
  997MOL0     H34562  -1.297  11.007   5.535  0.0157 -0.9744 -4.7944
  997MOL0     H34563  -1.252  10.734   5.446 -1.1385 -1.0810 -0.0287
  997MOL0     H34564  -1.418  10.786   5.481  2.3333 -4.2690  3.5766
  997MOL0     H34565  -1.225  10.928   5.283  0.5323 -4.3049 -2.3322
  997MOL0     H34566  -1.403  10.973   5.312 -1.0439 -0.1424 -4.9040
  997MOL0     H34567  -1.462  10.737   5.212 -0.7637  0.4274 -1.6670
  997MOL0     H34568  -1.299  10.721   5.197 -0.5251 -0.2544  3.4347
  997MOL0     H34569  -1.496  10.835   5.024  0.0211  0.2958 -0.7109
  997MOL0     H34570  -1.385  10.969   5.075 -5.1606  0.8314  2.0348
  997MOL0     H34571  -1.286  10.719   4.958  3.9172  0.0585 -0.7720
  997MOL0     H34572  -1.186  10.851   5.009  0.3601 -1.0968 -1.5921
  997MOL0     H34573  -1.296  11.004   4.839 -1.7042 -0.2184 -0.6968
  997MOL0     H34574  -1.218  10.859   4.768  1.5763  1.0808  0.0426
  997MOL0     H34575  -0.873  10.865   5.704 -0.5993 -1.2146 -0.1961
  997MOL0     H34576  -0.623  10.898   5.709  2.4217  0.5965 -0.6258
  997MOL0     H34577  -0.233  10.817   5.379  0.5933  1.4143 -3.2073
  997MOL0     H34578  -0.000  10.768   5.372 -3.0718 -2.3905  0.3738
  997MOL0     H34579   1.355  10.368   6.682 -0.0593  2.8153 -1.8757
  997MOL0     H34580   1.447  10.332   6.915 -2.3036  0.2112 -0.9010
  997MOL0     H34581   1.546  10.421   7.254  0.7744  1.9227 -3.5250
  997MOL0     H34582   1.564  10.405   7.498  0.8105 -2.1376 -1.2736
  997MOL0     H34583   1.724  10.477   7.836  4.8279  1.5428 -3.1621
  997MOL0     H34584   1.640  10.386   7.707  1.6486 -2.1272  3.3402
  997MOL0     H34585   1.472  10.550   7.685 -0.1622  0.8743  0.1597
  997MOL0     H34586   1.537  10.658   7.805 -3.0427  1.0360 -1.1029
  997MOL0     H34587   1.503  10.479   7.984 -0.0606 -0.4613  0.0754
  997MOL0     H34588   1.393  10.398   7.867 -3.8114  0.6904  2.7562
  997MOL0     H34589   1.239  10.525   7.995 -0.3548  0.4669  0.0813
  997MOL0     H34590   1.344  10.671   7.972  2.1427 -0.4395  0.2738
  997MOL0     H34591   1.147  10.653   7.598 -1.4706 -1.6705 -0.4247
  997MOL0     H34592   1.867  10.691   7.513  0.1949  0.4769 -1.1489
  997MOL0     H34593   1.874  10.755   7.142  2.2302 -2.6255 -2.8009
  997MOL0     H34594   1.963  10.784   7.305  1.4089 -1.4696  0.2148
  997MOL0     H34595   1.999  10.652   7.193 -0.4521  0.6617  0.7749
  998MOL0     O34596   9.375   6.728   7.868  0.3195 -0.1323 -0.4688
  998MOL0     C34597   9.441   6.682   7.775  1.1453 -0.6342 -0.0930
  998MOL0     O34598   9.382   6.670   7.651  0.2514 -0.4981 -0.6609
  998MOL0     C34599   9.270   6.741   7.621 -0.2651  0.6010  0.4582
  998MOL0     C34600   9.278   6.874   7.596 -0.8520  0.5877  0.4371
  998MOL0     C34601   9.171   6.964   7.569  0.3335  0.1366 -0.7747
  998MOL0     C34602   9.045   6.906   7.579 -0.7154  0.1527 -0.1794
  998MOL0     O34603   8.943   6.991   7.540  0.5047 -0.2390  0.7264
  998MOL0     C34604   8.805   6.953   7.507 -0.6528 -0.3048  0.6613
  998MOL0     C34605   8.731   7.084   7.508  0.5379  0.1450  0.1808
  998MOL0     C34606   8.581   7.071   7.471 -0.3043  0.5357 -0.4902
  998MOL0     C34607   8.563   7.067   7.317 -0.9894  0.8043  0.2327
  998MOL0     C34608   8.423   7.028   7.257  0.0829  0.2530 -0.6684
  998MOL0     C34609   8.406   7.112   7.117  1.3113  0.4252  0.2530
  998MOL0     C34610   8.305   7.044   7.027 -1.1190 -0.9570 -0.1997
  998MOL0     C34611   8.163   7.035   7.089 -0.6331 -0.6699 -0.6045
  998MOL0     N34612   8.093   7.169   7.088  0.4937  0.5321  0.0004
  998MOL0     C34613   8.001   7.220   6.997  0.2361 -1.0962  0.0515
  998MOL0     C34614   7.968   7.336   7.048  0.8629 -0.3161 -0.5296
  998MOL0     C34615   7.882   7.431   6.981  0.1563  0.3718  1.1558
  998MOL0     C34616   7.862   7.553   7.061  0.1835 -0.2503 -0.9509
  998MOL0     C34617   7.747   7.636   7.007  0.7433 -0.5639  0.3180
  998MOL0     C34618   7.672   7.703   7.123 -0.3649  0.2694  0.5319
  998MOL0     O34619   7.547   7.761   7.082 -0.5423 -0.0307  0.5766
  998MOL0     C34620   7.543   7.888   7.039  0.0648 -0.1644 -1.1134
  998MOL0     C34621   7.553   7.925   6.907 -1.3437  0.1930 -0.2535
  998MOL0     C34622   7.558   8.056   6.876 -0.2610  0.5349 -0.4292
  998MOL0     C34623   7.552   8.151   6.975  1.1230  0.4227 -0.2075
  998MOL0     C34624   7.582   8.294   6.949 -0.8305  0.4431 -0.6979
  998MOL0     O34625   7.617   8.321   6.817  0.0577 -1.0334  0.2132
  998MOL0     C34626   7.655   8.449   6.780 -0.4278  0.7111  1.0469
  998MOL0     C34627   7.628   8.468   6.637  0.2604 -0.3360 -0.4683
  998MOL0     C34628   7.651   8.598   6.592 -0.1952 -0.2527  0.3270
  998MOL0     C34629   7.702   8.704   6.661  0.3043  0.1977 -0.5260
  998MOL0     O34630   7.716   8.829   6.604 -0.0248  0.8409  1.0157
  998MOL0     C34631   7.726   8.948   6.676  0.6676 -0.4522  0.0758
  998MOL0     C34632   7.705   9.075   6.605 -0.6638  0.3384  0.6101
  998MOL0     C34633   7.743   9.193   6.684 -0.0488 -0.4382  0.7523
  998MOL0     C34634   7.702   9.327   6.606 -0.3112  0.4240 -0.1671
  998MOL0     C34635   7.721   9.441   6.709  0.6220  0.2174  1.0755
  998MOL0     C34636   7.672   9.579   6.651 -0.4881  1.7111 -0.7048
  998MOL0     C34637   7.709   9.684   6.758 -0.4302 -0.9447 -0.4784
  998MOL0     C34638   7.661   9.831   6.733 -0.0616 -1.0840  0.5782
  998MOL0    Cl34639   7.779   9.905   6.625  0.3627 -0.5427 -0.1903
  998MOL0     C34640   7.732   8.682   6.790 -0.6175  0.0137 -0.6207
  998MOL0     C34641   7.706   8.556   6.855  0.2317  0.7474  0.1090
  998MOL0     O34642   7.570   8.379   7.039  0.4263 -0.0221  0.5042
  998MOL0     C34643   7.527   8.117   7.104  0.2874  0.5619  0.6577
  998MOL0     C34644   7.528   7.983   7.135 -0.3119  0.3157  0.2931
  998MOL0     N34645   8.032   7.363   7.167  0.2318 -0.0066  0.8898
  998MOL0     N34646   8.101   7.259   7.193  0.3621  0.7493  0.1336
  998MOL0     C34647   9.032   6.764   7.606 -0.5415 -0.1645 -0.6000
  998MOL0     C34648   9.144   6.684   7.636 -0.6903  0.3215  0.5051
  998MOL0     C34649   9.584   6.655   7.800 -0.1252  0.0863  0.5621
  998MOL0     C34650   9.649   6.573   7.700 -0.0097 -0.2267 -0.2576
  998MOL0     C34651   9.791   6.546   7.706 -0.2652 -0.6537  0.4533
  998MOL0     C34652   9.870   6.591   7.813 -0.1151  0.7248  0.8167
  998MOL0     O34653  10.002   6.564   7.816  0.2215  0.1694  0.0448
  998MOL0     C34654  10.062   6.443   7.756 -0.5462 -0.5220 -1.0630
  998MOL0     C34655  10.091   6.352   7.881 -0.3340  0.5372 -0.0512
  998MOL0     C34656  10.159   6.225   7.844  0.4479 -0.2214 -0.4410
  998MOL0     C34657  10.092   6.138   7.733 -1.4172  0.3913  0.1999
  998MOL0     C34658   9.952   6.109   7.752 -0.6244  0.5342  0.3367
  998MOL0     C34659   9.836   6.078   7.736  0.7651  1.2805 -0.4301
  998MOL0     C34660   9.794   6.661   7.911 -0.7578  0.3508  0.0792
  998MOL0     C34661   9.665   6.696   7.910  0.9770 -0.2897 -0.0702
  998MOL0     C34662   9.619   6.782   8.025  0.1910 -0.3651  0.4182
  998MOL0     H34663   9.381   6.905   7.581  0.0377 -2.3018 -0.0933
  998MOL0     H34664   9.173   7.070   7.545 -0.0748 -0.3333 -3.1284
  998MOL0     H34665   8.808   6.905   7.408  1.7548 -3.3555  2.0512
  998MOL0     H34666   8.753   6.890   7.579  0.7033 -0.9755  1.0799
  998MOL0     H34667   8.767   7.153   7.431  1.2470  1.9782  2.0879
  998MOL0     H34668   8.742   7.132   7.605  1.3953  1.3750 -0.4922
  998MOL0     H34669   8.520   7.152   7.512  0.4639  0.7929  0.1685
  998MOL0     H34670   8.556   6.978   7.522  1.6817  0.5091  0.5444
  998MOL0     H34671   8.587   7.169   7.286  0.1886 -0.5761 -4.2475
  998MOL0     H34672   8.640   7.010   7.265 -0.0775  2.7916 -0.7102
  998MOL0     H34673   8.404   6.921   7.240 -0.4534  0.4716 -1.4962
  998MOL0     H34674   8.343   7.057   7.325  0.1923 -1.1614  0.0895
  998MOL0     H34675   8.378   7.213   7.147 -0.3650  0.9963 -2.8398
  998MOL0     H34676   8.503   7.116   7.066  1.5862 -3.3893  0.1580
  998MOL0     H34677   8.334   6.943   6.997 -1.0620 -0.4291 -2.0774
  998MOL0     H34678   8.286   7.097   6.933 -2.5641  1.8133  1.5141
  998MOL0     H34679   8.106   6.965   7.027 -1.7563  0.5178 -0.9606
  998MOL0     H34680   8.158   7.000   7.192  2.5098  2.6705  0.9168
  998MOL0     H34681   7.962   7.184   6.903  2.3432  1.1767 -1.8212
  998MOL0     H34682   7.919   7.471   6.886 -1.8508 -0.6166 -0.0983
  998MOL0     H34683   7.787   7.379   6.966 -0.9396  2.2326  1.3160
  998MOL0     H34684   7.825   7.529   7.161  0.3555  4.8783  0.6255
  998MOL0     H34685   7.957   7.604   7.077 -0.2279  1.2381 -2.8562
  998MOL0     H34686   7.671   7.580   6.951  0.0591  0.1105  0.5607
  998MOL0     H34687   7.787   7.723   6.954  3.3282  2.0043  5.6536
  998MOL0     H34688   7.745   7.777   7.156  1.9667 -1.5672 -0.2443
  998MOL0     H34689   7.650   7.623   7.195  2.3146 -0.0403  1.0923
  998MOL0     H34690   7.584   7.849   6.836  2.4672  0.3094  1.0577
  998MOL0     H34691   7.573   8.088   6.773 -1.7294  0.0036 -0.8368
  998MOL0     H34692   7.581   8.392   6.576  0.7787  0.2268 -1.6090
  998MOL0     H34693   7.646   8.609   6.484  1.6586 -4.0915 -0.3068
  998MOL0     H34694   7.652   8.951   6.756  0.7528 -3.6610  0.4126
  998MOL0     H34695   7.816   8.952   6.737 -0.3474  0.6417  1.5518
  998MOL0     H34696   7.780   9.088   6.526 -1.3181 -2.1715 -0.5270
  998MOL0     H34697   7.600   9.078   6.576 -1.0541  1.8091  2.0759
  998MOL0     H34698   7.693   9.191   6.781 -0.8514  0.7967  0.3893
  998MOL0     H34699   7.850   9.194   6.708  0.2930 -0.4270 -0.7132
  998MOL0     H34700   7.598   9.315   6.574  0.4764  0.3566 -2.9855
  998MOL0     H34701   7.753   9.329   6.509 -0.6502 -1.4813 -0.4121
  998MOL0     H34702   7.826   9.442   6.741  0.7482 -1.2767  0.7932
  998MOL0     H34703   7.665   9.417   6.800 -2.0467 -0.0649 -0.5468
  998MOL0     H34704   7.713   9.608   6.553 -0.8458 -0.8499 -1.6878
  998MOL0     H34705   7.564   9.559   6.649 -0.1427 -0.2615 -1.3632
  998MOL0     H34706   7.816   9.705   6.768 -0.8798  0.6861  2.1140
  998MOL0     H34707   7.663   9.645   6.850  0.2231  0.8576  0.6710
  998MOL0     H34708   7.560   9.840   6.693  0.2630 -0.2334 -0.0582
  998MOL0     H34709   7.660   9.898   6.819 -1.1084  1.0816 -1.0262
  998MOL0     H34710   7.756   8.767   6.854  2.7860 -1.5407  0.4057
  998MOL0     H34711   7.727   8.562   6.962 -3.6404  4.6999  0.9194
  998MOL0     H34712   7.524   8.187   7.187 -0.7786  1.0119  0.2586
  998MOL0     H34713   7.523   7.957   7.240 -2.2649  3.5984  1.1663
  998MOL0     H34714   8.934   6.717   7.607 -1.2645  1.3009  1.1467
  998MOL0     H34715   9.142   6.581   7.671 -1.8607  0.9299  2.3323
  998MOL0     H34716   9.595   6.529   7.617  2.9264 -1.6908 -1.5687
  998MOL0     H34717   9.831   6.494   7.620 -2.5236 -0.8459 -0.5495
  998MOL0     H34718  10.156   6.468   7.706  0.2976  1.1216  1.2008
  998MOL0     H34719  10.001   6.392   7.681 -0.4170 -1.7173 -0.3853
  998MOL0     H34720   9.995   6.336   7.930 -0.2629  1.4071  0.3852
  998MOL0     H34721  10.148   6.406   7.957 -2.6797  1.1670  1.3614
  998MOL0     H34722  10.176   6.160   7.931  0.8394  1.2122  0.5781
  998MOL0     H34723  10.256   6.257   7.806 -1.7603  2.0956 -4.7976
  998MOL0     H34724  10.101   6.196   7.641 -2.8668 -1.4194 -1.1468
  998MOL0     H34725  10.150   6.046   7.719  0.2136  1.4460 -0.2875
  998MOL0     H34726   9.731   6.059   7.732  1.0640 -1.1305  1.2017
  998MOL0     H34727   9.854   6.697   7.995  0.0636  0.7533 -0.6646
  998MOL0     H34728   9.543   6.730   8.084  1.1954 -2.0783  0.2744
  998MOL0     H34729   9.696   6.818   8.093 -0.9153  0.0114  1.4984
  998MOL0     H34730   9.569   6.869   7.982 -0.3069 -0.5720  0.5756
  999MOL0     O34731   1.365   0.604   7.460  0.6841 -0.2211 -0.2351
  999MOL0     C34732   1.388   0.703   7.395  0.0230  0.2532  0.0161
  999MOL0     O34733   1.503   0.736   7.350 -0.6877  0.3038  0.1203
  999MOL0     C34734   1.607   0.642   7.357 -0.4582 -0.3828  0.4904
  999MOL0     C34735   1.622   0.538   7.264  0.1041  0.0946  0.2998
  999MOL0     C34736   1.730   0.448   7.284  0.0152 -0.3209 -0.0349
  999MOL0     C34737   1.821   0.467   7.385 -0.6322  0.1190  0.7686
  999MOL0     O34738   1.911   0.367   7.407  0.8239 -0.1612 -0.1056
  999MOL0     C34739   2.045   0.377   7.396 -0.3735  0.0673 -0.9644
  999MOL0     C34740   2.121   0.256   7.454 -0.5864  0.3231  0.8863
  999MOL0     C34741   2.279   0.267   7.458 -0.4525  0.4155  0.4448
  999MOL0     C34742   2.333   0.135   7.505 -0.0980  1.3382 -0.0844
  999MOL0     C34743   2.484   0.146   7.491 -0.1493  0.4437 -0.1184
  999MOL0     C34744   2.555   0.031   7.570  0.5533  0.5048  0.4444
  999MOL0     C34745   2.703   0.033   7.539  0.6114 -0.2571  0.1821
  999MOL0     C34746   2.784  -0.078   7.630  0.7048 -0.3439  0.4216
  999MOL0     N34747   2.814  -0.055   7.767  0.4883 -0.2103 -0.3640
  999MOL0     C34748   2.730  -0.000   7.861 -0.4898  0.2784 -0.1923
  999MOL0     C34749   2.795  -0.020   7.975 -0.4986  1.1891  0.2418
  999MOL0     C34750   2.738   0.021   8.108 -0.0093  1.0540 -0.0919
  999MOL0     C34751   2.699  -0.100   8.199 -0.3504 -0.0479 -0.1233
  999MOL0     C34752   2.815  -0.176   8.240  0.4389  0.3610 -0.5835
  999MOL0     C34753   2.769  -0.290   8.325 -0.5026  0.3187 -0.0403
  999MOL0     O34754   2.758  -0.245   8.464  0.1848  0.0330 -0.0720
  999MOL0     C34755   2.705  -0.318   8.567 -0.3036  0.0287  0.7732
  999MOL0     C34756   2.690  -0.251   8.688  0.2348  0.0174 -0.7169
  999MOL0     C34757   2.647  -0.320   8.799  0.9364 -0.7413 -0.5777
  999MOL0     C34758   2.615  -0.458   8.793  0.9136  0.3363  0.0856
  999MOL0     C34759   2.584  -0.536   8.920  0.4466 -1.5862  0.5649
  999MOL0     O34760   2.634  -0.479   9.032  0.6915  0.4811 -0.2536
  999MOL0     C34761   2.643  -0.556   9.143  0.0336  0.6351 -0.2745
  999MOL0     C34762   2.767  -0.627   9.165 -0.1729  0.7998  0.6324
  999MOL0     C34763   2.777  -0.720   9.277 -0.4023 -1.0756 -0.2275
  999MOL0     C34764   2.670  -0.731   9.368 -0.0097 -0.0734  0.1263
  999MOL0     O34765   2.666  -0.830   9.468 -0.4962  0.3483 -0.1189
  999MOL0     C34766   2.615  -0.958   9.412  0.0412  0.6736 -0.7254
  999MOL0     C34767   2.468  -0.964   9.377 -0.3146 -0.2768 -0.9213
  999MOL0     C34768   2.452  -0.948   9.227  0.1308  0.3533  0.7029
  999MOL0     C34769   2.306  -0.983   9.183 -0.0117 -0.9310  0.1350
  999MOL0     C34770   2.287  -0.934   9.043  1.2723 -0.5699  0.7592
  999MOL0     C34771   2.366  -0.995   8.931 -0.4722 -0.6485  0.4917
  999MOL0     C34772   2.341  -0.925   8.791 -1.1140  0.1372  0.2686
  999MOL0     C34773   2.453  -0.976   8.690  1.3179 -0.8850 -1.1827
  999MOL0    Cl34774   2.399  -1.147   8.648  0.2778 -0.5222 -0.5553
  999MOL0     C34775   2.566  -0.641   9.364 -0.5376  0.0777 -0.5382
  999MOL0     C34776   2.542  -0.559   9.249 -0.1718 -1.3755  0.5988
  999MOL0     O34777   2.530  -0.649   8.904  0.2547  0.0112 -0.6000
  999MOL0     C34778   2.607  -0.520   8.662 -0.2985  0.1499  0.6942
  999MOL0     C34779   2.659  -0.453   8.549  0.0680  0.5745  0.3724
  999MOL0     N34780   2.923  -0.075   7.951  0.1091 -0.2658  0.4116
  999MOL0     N34781   2.925  -0.113   7.829 -0.6368  0.3870  0.0861
  999MOL0     C34782   1.812   0.574   7.466 -0.0706  0.4311  0.3508
  999MOL0     C34783   1.708   0.660   7.452  0.8240 -0.0155 -0.5187
  999MOL0     C34784   1.271   0.780   7.350  0.1767  0.4826  0.7749
  999MOL0     C34785   1.291   0.888   7.257 -0.0078  0.7897 -0.7892
  999MOL0     C34786   1.195   0.981   7.224  0.0744  0.4270 -0.3553
  999MOL0     C34787   1.061   0.962   7.270 -0.0085  0.4242  0.8277
  999MOL0     O34788   0.960   1.055   7.252 -0.2212 -0.3245 -0.5128
  999MOL0     C34789   1.017   1.188   7.236  1.0317 -0.4402  0.1161
  999MOL0     C34790   0.915   1.305   7.221 -0.3498 -0.2374 -0.5680
  999MOL0     C34791   0.799   1.304   7.121 -0.5459 -1.5530  0.4905
  999MOL0     C34792   0.735   1.446   7.129  0.5336  0.5606  0.4508
  999MOL0     C34793   0.591   1.429   7.068  0.0737 -0.3148 -0.9657
  999MOL0     C34794   0.476   1.429   7.038  0.1197 -1.1531  0.0605
  999MOL0     C34795   1.035   0.846   7.347 -0.5672 -0.8322  0.8285
  999MOL0     C34796   1.139   0.763   7.399  0.3837  0.3292  0.3103
  999MOL0     C34797   1.089   0.658   7.501  0.1677  0.2422 -0.2376
  999MOL0     H34798   1.557   0.515   7.180  1.1011  0.2869 -0.5611
  999MOL0     H34799   1.739   0.364   7.215 -2.3741 -0.7663  0.0902
  999MOL0     H34800   2.064   0.381   7.288  2.5218  1.4234 -0.4953
  999MOL0     H34801   2.076   0.471   7.442 -0.0971 -1.1748  1.5266
  999MOL0     H34802   2.076   0.168   7.406 -1.5484  0.4834  1.4563
  999MOL0     H34803   2.094   0.236   7.558  0.9113 -3.1200  0.7702
  999MOL0     H34804   2.315   0.337   7.534  2.6915  0.0262 -0.5446
  999MOL0     H34805   2.317   0.295   7.360  1.7172  0.7019  1.2958
  999MOL0     H34806   2.306   0.109   7.608  0.4197 -2.2285 -0.7243
  999MOL0     H34807   2.293   0.052   7.447  1.4646  1.8329 -1.9771
  999MOL0     H34808   2.502   0.144   7.383  2.3130  2.5862  0.1699
  999MOL0     H34809   2.515   0.238   7.541 -0.6603  0.9847 -0.7744
  999MOL0     H34810   2.543   0.039   7.678  2.0949 -1.8689  0.8643
  999MOL0     H34811   2.519  -0.071   7.550  0.2987 -0.2453  4.0760
  999MOL0     H34812   2.739   0.136   7.550 -2.5696  0.9385  0.4468
  999MOL0     H34813   2.712   0.015   7.432 -0.2815 -0.7098  0.1726
  999MOL0     H34814   2.739  -0.176   7.614  0.4878 -0.3219  0.8821
  999MOL0     H34815   2.882  -0.086   7.583 -1.5718 -0.6897 -4.9068
  999MOL0     H34816   2.633   0.046   7.846 -3.0457 -4.2750  0.4263
  999MOL0     H34817   2.819   0.081   8.152  1.4470 -0.4011 -0.6870
  999MOL0     H34818   2.649   0.081   8.089 -0.5955 -0.6634 -3.2855
  999MOL0     H34819   2.642  -0.055   8.281  0.9290  1.5446 -0.0562
  999MOL0     H34820   2.629  -0.163   8.143 -1.6455  0.6829  0.6114
  999MOL0     H34821   2.878  -0.115   8.306  0.8851  1.3495 -1.8879
  999MOL0     H34822   2.876  -0.227   8.165  0.5321 -0.9668  0.3563
  999MOL0     H34823   2.849  -0.362   8.344  0.5897  2.2735  3.8834
  999MOL0     H34824   2.678  -0.339   8.291 -1.2961  1.3808  0.4872
  999MOL0     H34825   2.722  -0.148   8.703 -2.4087  0.4688  3.6235
  999MOL0     H34826   2.674  -0.278   8.895 -3.2313  1.3357 -0.1180
  999MOL0     H34827   2.842  -0.614   9.087  0.2834  1.6270  1.1986
  999MOL0     H34828   2.864  -0.785   9.284 -0.4406 -0.9659  2.2593
  999MOL0     H34829   2.684  -0.987   9.333  1.1919  1.8091 -0.1870
  999MOL0     H34830   2.620  -1.031   9.494 -0.0452 -1.1436 -2.2891
  999MOL0     H34831   2.426  -1.058   9.413  0.8492 -0.2824  0.5188
  999MOL0     H34832   2.413  -0.888   9.433  0.4969  0.9760 -1.7483
  999MOL0     H34833   2.479  -0.845   9.203  2.4635 -0.5747 -1.1736
  999MOL0     H34834   2.521  -1.021   9.182 -2.1570 -1.9689  0.7268
  999MOL0     H34835   2.242  -0.929   9.253 -1.3679  0.2476 -1.9016
  999MOL0     H34836   2.299  -1.091   9.200  2.3994 -0.9089  1.8420
  999MOL0     H34837   2.311  -0.828   9.037  1.5350 -0.6470  0.4339
  999MOL0     H34838   2.180  -0.936   9.018  1.3478  1.5980  0.1339
  999MOL0     H34839   2.475  -0.994   8.941 -0.4160  0.3522 -0.1012
  999MOL0     H34840   2.339  -1.101   8.925 -0.1114 -0.7530  0.6530
  999MOL0     H34841   2.346  -0.815   8.790 -0.4086  0.1441  1.5254
  999MOL0     H34842   2.241  -0.953   8.756 -2.0165  2.1794  1.0639
  999MOL0     H34843   2.459  -0.905   8.606  2.1230  0.7051  0.1634
  999MOL0     H34844   2.551  -0.982   8.738  0.7232  2.7932  0.8286
  999MOL0     H34845   2.488  -0.655   9.438  0.6660 -3.2094  0.2855
  999MOL0     H34846   2.440  -0.523   9.243 -1.1410 -3.7209  1.6208
  999MOL0     H34847   2.580  -0.624   8.652 -2.2859  0.5374  1.6029
  999MOL0     H34848   2.669  -0.508   8.456 -1.4015  1.5143 -0.3762
  999MOL0     H34849   1.890   0.594   7.540  0.5444 -1.1001  0.1658
  999MOL0     H34850   1.719   0.746   7.517 -1.0750 -0.1587  0.0539
  999MOL0     H34851   1.394   0.894   7.224 -0.7105  1.0338 -3.0828
  999MOL0     H34852   1.230   1.071   7.175 -1.4160  1.4851  0.4479
  999MOL0     H34853   1.062   1.179   7.136 -0.1961  0.3758 -0.5366
  999MOL0     H34854   1.081   1.212   7.321  1.9905 -6.4722  1.6044
  999MOL0     H34855   0.983   1.391   7.214  1.1040 -1.3595 -0.6408
  999MOL0     H34856   0.888   1.308   7.327  3.1640  1.6891  0.4560
  999MOL0     H34857   0.725   1.228   7.148 -1.7577 -0.2236  0.9953
  999MOL0     H34858   0.841   1.294   7.020  2.1184 -2.6110  1.5934
  999MOL0     H34859   0.728   1.478   7.234  3.7570  1.6756  0.4585
  999MOL0     H34860   0.801   1.518   7.079  1.5456 -1.2907 -1.0184
  999MOL0     H34861   0.373   1.431   7.008  0.5767  0.6711 -1.6084
  999MOL0     H34862   0.931   0.847   7.378 -0.7640  1.3503  0.2065
  999MOL0     H34863   1.160   0.632   7.580 -0.8543 -0.7165  0.3948
  999MOL0     H34864   0.997   0.684   7.555  2.6899  6.1481  2.0531
  999MOL0     H34865   1.080   0.559   7.456  0.6324 -0.1928  0.5876
 1000MOL0     O34866  10.267   4.859   8.077 -0.0513 -0.4198  1.0747
 1000MOL0     C34867  10.192   4.841   7.980 -0.7031 -0.4438 -0.9103
 1000MOL0     O34868  10.227   4.844   7.850 -0.5724  0.7492  0.1052
 1000MOL0     C34869  10.363   4.852   7.811 -0.4921  0.2050 -0.5332
 1000MOL0     C34870  10.441   4.739   7.806  0.9091 -0.7045 -0.4741
 1000MOL0     C34871  10.565   4.739   7.736  1.3120  0.5670 -1.0057
 1000MOL0     C34872  10.608   4.856   7.674 -1.2638  0.4709 -0.7890
 1000MOL0     O34873  10.718   4.826   7.600  0.2979  0.0182 -0.0862
 1000MOL0     C34874  10.800   4.925   7.533  0.0613 -0.1375  1.4593
 1000MOL0     C34875  10.919   4.848   7.479  0.7971 -0.4670  0.0756
 1000MOL0     C34876  11.019   4.940   7.415  0.1579  0.0423 -0.2492
 1000MOL0     C34877  10.981   5.042   7.304 -0.2500  0.3041 -0.4446
 1000MOL0     C34878  11.091   5.146   7.263  0.3238 -0.3156 -0.0420
 1000MOL0     C34879  11.104   5.252   7.376  0.2882 -1.3586 -1.0737
 1000MOL0     C34880  11.246   5.303   7.396 -0.3957  0.3925 -0.0112
 1000MOL0     C34881  11.270   5.434   7.463  0.5830  0.0976 -0.7963
 1000MOL0     N34882  11.252   5.429   7.608  0.5891  0.1228 -0.1337
 1000MOL0     C34883  11.314   5.333   7.684 -0.1013  0.3167 -0.1208
 1000MOL0     C34884  11.291   5.359   7.815  0.3552  0.5405  0.5732
 1000MOL0     C34885  11.358   5.280   7.930 -0.3146  0.2201  0.6465
 1000MOL0     C34886  11.254   5.224   8.013  1.1924  0.3516 -0.4090
 1000MOL0     C34887  11.301   5.153   8.130  0.1051 -0.4567  0.3602
 1000MOL0     C34888  11.427   5.068   8.099  0.1778  0.8171  0.6850
 1000MOL0     O34889  11.448   4.963   8.198 -0.5481 -0.4399 -0.1847
 1000MOL0     C34890  11.507   4.997   8.322  0.9610 -0.4254 -0.2451
 1000MOL0     C34891  11.515   4.900   8.423 -1.8321 -0.3357 -0.3522
 1000MOL0     C34892  11.580   4.925   8.546  0.2094 -0.3329  0.7358
 1000MOL0     C34893  11.629   5.045   8.577  0.0273  0.0831  0.7918
 1000MOL0     C34894  11.697   5.063   8.709  0.1474  0.8362  0.7455
 1000MOL0     O34895  11.636   4.998   8.814 -0.5778 -0.4342 -0.9375
 1000MOL0     C34896  11.699   4.979   8.937  0.1474  0.2410  0.3887
 1000MOL0     C34897  11.672   4.858   9.005  0.1855 -0.2389 -0.9049
 1000MOL0     C34898  11.722   4.831   9.137  0.7067 -0.2034  0.1713
 1000MOL0     C34899  11.804   4.920   9.205  0.3775 -0.7433  0.6420
 1000MOL0     O34900  11.817   4.908   9.339  0.4990 -0.5618  0.4559
 1000MOL0     C34901  11.911   4.987   9.409  0.1434  0.5723 -0.7969
 1000MOL0     C34902  11.826   5.098   9.483  0.0196  0.4843 -0.6457
 1000MOL0     C34903  11.899   5.203   9.569  0.5408  0.7665  0.6188
 1000MOL0     C34904  11.957   5.149   9.706 -0.5284  0.0065  0.2949
 1000MOL0     C34905  12.067   5.250   9.762  0.0040  0.5512 -0.5905
 1000MOL0     C34906  12.015   5.385   9.815  0.2833 -0.3643  0.3100
 1000MOL0     C34907  11.931   5.359   9.941  0.3700 -0.5048  0.4705
 1000MOL0     C34908  11.905   5.493  10.012 -0.3298  0.1473  0.1105
 1000MOL0    Cl34909  11.843   5.447  10.171  0.2389  0.3687  0.3727
 1000MOL0     C34910  11.832   5.042   9.139 -0.3671  0.2290 -0.1714
 1000MOL0     C34911  11.775   5.074   9.008 -0.0004  0.0080  0.5193
 1000MOL0     O34912  11.783   5.142   8.712 -0.6521 -0.7238  0.2399
 1000MOL0     C34913  11.623   5.147   8.473  0.0493  0.0028 -0.6502
 1000MOL0     C34914  11.557   5.128   8.352 -0.4367  0.6278  0.4064
 1000MOL0     N34915  11.202   5.469   7.810  0.1134 -0.5933  0.2809
 1000MOL0     N34916  11.207   5.528   7.689 -0.1219  0.2581 -0.7421
 1000MOL0     C34917  10.538   4.973   7.687 -0.0164 -0.6106  0.1281
 1000MOL0     C34918  10.409   4.965   7.751  0.9306 -0.2020 -0.0710
 1000MOL0     C34919  10.048   4.817   8.005  0.0683  0.1325 -0.3512
 1000MOL0     C34920   9.958   4.843   7.899  0.4498  1.1560 -0.1662
 1000MOL0     C34921   9.820   4.839   7.929  0.6289  0.0111  0.8363
 1000MOL0     C34922   9.765   4.782   8.045 -0.3110 -0.2952 -0.1919
 1000MOL0     O34923   9.627   4.773   8.040  0.5662  0.9628 -0.4629
 1000MOL0     C34924   9.550   4.730   8.158 -0.0935 -1.3484 -1.3902
 1000MOL0     C34925   9.516   4.841   8.255 -0.0012 -0.3708 -0.1085
 1000MOL0     C34926   9.443   4.960   8.186  0.3579 -0.4898  0.1452
 1000MOL0     C34927   9.434   5.091   8.268  0.4423  0.2005 -0.5759
 1000MOL0     C34928   9.374   5.092   8.398  0.4885 -0.7515 -0.4954
 1000MOL0     C34929   9.336   5.075   8.515 -0.8892  0.0821  0.5609
 1000MOL0     C34930   9.854   4.747   8.144 -0.9978  0.2434 -0.5527
 1000MOL0     C34931   9.993   4.759   8.124 -0.0501  0.0980 -0.1177
 1000MOL0     C34932  10.075   4.733   8.252 -0.4756  0.3105  0.1907
 1000MOL0     H34933  10.414   4.643   7.848  2.4839 -0.8011  0.4115
 1000MOL0     H34934  10.608   4.640   7.723 -2.2584 -1.1471 -0.7346
 1000MOL0     H34935  10.751   4.969   7.445 -0.5234 -1.2720  1.1910
 1000MOL0     H34936  10.818   5.013   7.595  0.1689  0.8512  0.0690
 1000MOL0     H34937  10.880   4.775   7.408 -1.5066 -0.0614  0.8400
 1000MOL0     H34938  10.961   4.797   7.566  1.7453  2.9050  1.7587
 1000MOL0     H34939  11.105   4.879   7.388 -1.5299 -2.1833 -0.9995
 1000MOL0     H34940  11.051   4.998   7.502  0.3504 -0.9752  0.3833
 1000MOL0     H34941  10.949   4.983   7.218  2.0132 -0.4725 -0.8130
 1000MOL0     H34942  10.896   5.095   7.348  1.2203  0.0624  3.0142
 1000MOL0     H34943  11.189   5.099   7.252  1.5123  2.1346 -0.4924
 1000MOL0     H34944  11.059   5.199   7.172 -0.0920  1.4813  1.1022
 1000MOL0     H34945  11.037   5.338   7.365  3.4322  1.3930 -0.3400
 1000MOL0     H34946  11.083   5.215   7.477 -0.0330  1.2378 -0.0967
 1000MOL0     H34947  11.277   5.312   7.291  0.3934 -2.8919 -0.1678
 1000MOL0     H34948  11.303   5.225   7.447  0.4819  1.4333  0.6544
 1000MOL0     H34949  11.370   5.470   7.438  0.7173 -0.6784 -1.4308
 1000MOL0     H34950  11.202   5.502   7.411 -0.2687 -0.6432 -0.6828
 1000MOL0     H34951  11.393   5.269   7.647 -0.9072 -0.8883  0.1728
 1000MOL0     H34952  11.407   5.203   7.869  0.5828  2.0377 -1.0305
 1000MOL0     H34953  11.436   5.347   7.967 -0.4828  0.5212  0.4619
 1000MOL0     H34954  11.197   5.311   8.047  0.3378 -0.6392  0.7772
 1000MOL0     H34955  11.185   5.156   7.963  0.9699  0.1802  0.1211
 1000MOL0     H34956  11.221   5.088   8.164  0.2568 -0.4531  0.7252
 1000MOL0     H34957  11.327   5.224   8.210  2.0416 -2.8450  1.9969
 1000MOL0     H34958  11.514   5.131   8.079  1.6568 -1.4505 -0.4333
 1000MOL0     H34959  11.407   5.009   8.009  0.1337 -2.6420  2.7811
 1000MOL0     H34960  11.481   4.803   8.388 -0.5221 -0.5467 -1.0960
 1000MOL0     H34961  11.586   4.858   8.632 -1.3302  4.3544  4.9363
 1000MOL0     H34962  11.606   4.794   8.948 -0.8304  0.2639 -0.3180
 1000MOL0     H34963  11.686   4.742   9.187  1.0383 -2.6379 -3.4703
 1000MOL0     H34964  11.963   4.923   9.480 -0.1082  1.3000  0.0671
 1000MOL0     H34965  11.993   5.040   9.360  0.9407  3.8449  3.4307
 1000MOL0     H34966  11.775   5.154   9.405  0.1633 -2.2118 -2.8284
 1000MOL0     H34967  11.746   5.043   9.534  1.4502 -2.8108 -1.6498
 1000MOL0     H34968  11.979   5.240   9.506 -0.2631 -1.0393 -1.6081
 1000MOL0     H34969  11.823   5.281   9.585 -0.4911 -0.2380  0.7693
 1000MOL0     H34970  12.005   5.053   9.682  0.1770  0.9881 -2.6383
 1000MOL0     H34971  11.883   5.107   9.776  0.4005 -1.0949  0.6616
 1000MOL0     H34972  12.134   5.275   9.679 -2.1859  0.8651 -2.3841
 1000MOL0     H34973  12.120   5.205   9.846 -0.4767  1.4716  0.2335
 1000MOL0     H34974  12.101   5.445   9.844 -1.2880  2.3424 -0.3511
 1000MOL0     H34975  11.959   5.431   9.733  1.6471  0.4041 -0.2136
 1000MOL0     H34976  12.001   5.311  10.010  2.4687 -0.1842 -1.3036
 1000MOL0     H34977  11.850   5.288   9.922  0.8269 -0.7495 -0.6359
 1000MOL0     H34978  11.993   5.552  10.036  0.3590 -0.9313  0.2743
 1000MOL0     H34979  11.834   5.547   9.947  0.6356 -0.3264 -1.3898
 1000MOL0     H34980  11.898   5.113   9.189  1.6284 -2.6303  1.5360
 1000MOL0     H34981  11.806   5.172   8.974  3.9611 -1.0399  0.5469
 1000MOL0     H34982  11.665   5.246   8.486 -0.5771  0.2687 -0.6286
 1000MOL0     H34983  11.538   5.219   8.297 -0.5242  1.2792  1.4988
 1000MOL0     H34984  10.556   5.066   7.634 -1.5437 -0.7812 -0.7667
 1000MOL0     H34985  10.343   5.052   7.750  1.1218 -0.0572 -1.3696
 1000MOL0     H34986   9.990   4.861   7.798 -0.2962 -1.2778 -0.9146
 1000MOL0     H34987   9.746   4.854   7.851  0.4460 -4.9215 -0.2612
 1000MOL0     H34988   9.590   4.641   8.207 -0.9532 -0.8928  0.2135
 1000MOL0     H34989   9.455   4.694   8.118 -1.1248 -2.0690  1.4281
 1000MOL0     H34990   9.598   4.881   8.316 -0.0064 -0.6672  0.0973
 1000MOL0     H34991   9.452   4.788   8.325  2.2772 -1.1307  1.5267
 1000MOL0     H34992   9.342   4.921   8.177  0.6510 -0.8824 -1.7739
 1000MOL0     H34993   9.490   4.977   8.089 -1.0926  2.2672 -0.1770
 1000MOL0     H34994   9.535   5.130   8.283  0.2355 -0.2613  2.7676
 1000MOL0     H34995   9.389   5.170   8.206  0.7160  1.6269  0.9731
 1000MOL0     H34996   9.324   5.073   8.621  2.4772  1.5548  1.0774
 1000MOL0     H34997   9.819   4.709   8.240 -1.3521  0.0052 -0.7746
 1000MOL0     H34998  10.131   4.639   8.251 -0.6375  0.0579  3.4150
 1000MOL0     H34999  10.144   4.816   8.272 -1.2587  0.7471  1.1686
 1000MOL0     H35000  10.022   4.735   8.348  0.5914  2.7904  0.8108
 1001MOL0     O35001   8.398   8.113   0.077  0.5559  0.2630 -0.2441
 1001MOL0     C35002   8.436   7.996   0.097 -0.3137 -0.4900  0.4552
 1001MOL0     O35003   8.383   7.890   0.027 -0.6198 -0.8847 -0.2615
 1001MOL0     C35004   8.319   7.915  -0.089  0.1543 -0.3381  0.6677
 1001MOL0     C35005   8.202   7.837  -0.111 -0.4074 -0.0331  0.3072
 1001MOL0     C35006   8.128   7.839  -0.229  0.9849  1.0153 -0.0240
 1001MOL0     C35007   8.176   7.924  -0.325  0.3661 -0.6693  0.9700
 1001MOL0     O35008   8.105   7.942  -0.442 -0.0472  0.3464 -0.1076
 1001MOL0     C35009   8.159   7.965  -0.567 -0.3009  0.6594  0.1906
 1001MOL0     C35010   8.101   8.082  -0.637  0.5498 -0.3797  0.0602
 1001MOL0     C35011   8.141   8.219  -0.590  0.8379  1.0380  0.0983
 1001MOL0     C35012   8.072   8.326  -0.683  0.4785  1.0688  0.2320
 1001MOL0     C35013   8.076   8.466  -0.627 -0.3070 -0.6623 -0.3535
 1001MOL0     C35014   8.215   8.509  -0.572  0.3799  0.1204  0.2362
 1001MOL0     C35015   8.203   8.657  -0.546  0.5332 -0.0898  0.0387
 1001MOL0     C35016   8.333   8.711  -0.482  0.3139  0.1461  0.3388
 1001MOL0     N35017   8.385   8.617  -0.367  0.1407  0.3571 -0.9518
 1001MOL0     C35018   8.311   8.571  -0.262 -0.3112  0.2943 -0.0680
 1001MOL0     C35019   8.408   8.508  -0.184 -0.7779  0.0518 -0.4690
 1001MOL0     C35020   8.401   8.432  -0.049 -0.0528 -0.3342  0.5593
 1001MOL0     C35021   8.481   8.489   0.067 -0.1924  0.1779 -0.6242
 1001MOL0     C35022   8.481   8.641   0.097 -0.2869 -0.0599  0.1349
 1001MOL0     C35023   8.560   8.667   0.224  0.0826  0.6545  0.1162
 1001MOL0     O35024   8.517   8.593   0.347  0.1018 -0.5391  0.3445
 1001MOL0     C35025   8.620   8.555   0.428 -0.3169  0.3846  0.1416
 1001MOL0     C35026   8.696   8.445   0.383 -0.6722  0.5438  0.3167
 1001MOL0     C35027   8.811   8.399   0.457 -0.5433  0.4507 -0.7071
 1001MOL0     C35028   8.856   8.479   0.570  0.4540 -0.2893  0.6259
 1001MOL0     C35029   8.973   8.443   0.646  0.4757  0.5204  0.2309
 1001MOL0     O35030   9.029   8.550   0.719  1.0723  0.1217  1.2137
 1001MOL0     C35031   9.126   8.516   0.800  0.9102 -0.4559  0.1180
 1001MOL0     C35032   9.114   8.557   0.931 -0.7946  0.0138 -0.6421
 1001MOL0     C35033   9.219   8.521   1.023  0.5760 -0.2068  0.1279
 1001MOL0     C35034   9.334   8.453   0.980 -0.1636  0.0726  0.0234
 1001MOL0     O35035   9.426   8.423   1.071 -0.3248  0.3012 -0.2265
 1001MOL0     C35036   9.500   8.537   1.121 -0.1897 -0.1024 -0.3021
 1001MOL0     C35037   9.627   8.484   1.197  0.2733 -0.6175 -0.1064
 1001MOL0     C35038   9.679   8.592   1.292 -0.7044 -0.3596  0.7173
 1001MOL0     C35039   9.797   8.545   1.362 -0.6562 -0.3005  0.4720
 1001MOL0     C35040   9.824   8.633   1.489  0.0514  0.2979 -0.1784
 1001MOL0     C35041   9.961   8.646   1.544  0.4464 -0.3909  0.0754
 1001MOL0     C35042   9.964   8.706   1.692 -0.5058 -0.9091  0.0559
 1001MOL0     C35043   9.917   8.606   1.802  0.1128  0.0723  0.4829
 1001MOL0    Cl35044   9.967   8.648   1.967 -0.6326  0.3347 -0.5991
 1001MOL0     C35045   9.340   8.414   0.846  0.2813 -0.2861 -0.4052
 1001MOL0     C35046   9.246   8.460   0.751 -0.0102  0.2457  0.6910
 1001MOL0     O35047   9.003   8.326   0.640 -0.9755  0.3223  1.1634
 1001MOL0     C35048   8.785   8.600   0.596  0.4426 -0.3092  0.3678
 1001MOL0     C35049   8.666   8.633   0.527  0.7883  0.0766 -0.2968
 1001MOL0     N35050   8.535   8.520  -0.247  0.5055 -0.4803 -0.0400
 1001MOL0     N35051   8.518   8.579  -0.353  0.6332  0.0151  0.5307
 1001MOL0     C35052   8.292   8.003  -0.304  0.9571  0.3201 -0.2370
 1001MOL0     C35053   8.364   7.999  -0.189  0.3774 -0.6071 -0.0731
 1001MOL0     C35054   8.516   7.972   0.217  0.2588  0.3442 -0.9830
 1001MOL0     C35055   8.643   8.026   0.220  0.3248  0.3936  1.3180
 1001MOL0     C35056   8.734   8.004   0.319  0.3797  0.6376  0.2720
 1001MOL0     C35057   8.701   7.924   0.423  0.7416 -0.3591  1.1532
 1001MOL0     O35058   8.795   7.911   0.513 -0.6997 -0.5009 -0.0928
 1001MOL0     C35059   8.778   7.843   0.639  0.1733  0.2509  0.6981
 1001MOL0     C35060   8.724   7.927   0.756 -0.6362  0.0496  0.6291
 1001MOL0     C35061   8.823   8.040   0.791 -0.2411  0.2876 -0.4434
 1001MOL0     C35062   8.822   8.083   0.939 -0.3449  0.3285 -0.2780
 1001MOL0     C35063   8.940   8.158   0.987 -0.9935  0.0996 -0.4643
 1001MOL0     C35064   9.037   8.221   1.014  0.0207 -0.1740  0.0962
 1001MOL0     C35065   8.581   7.851   0.420 -0.0570  0.2247 -0.4680
 1001MOL0     C35066   8.490   7.869   0.319 -0.4140 -0.7595  0.7232
 1001MOL0     C35067   8.362   7.795   0.322 -1.0596 -0.5181  0.0833
 1001MOL0     H35068   8.173   7.781  -0.023 -0.4172 -0.5495 -0.0205
 1001MOL0     H35069   8.046   7.768  -0.232  0.6886  1.3452  0.1201
 1001MOL0     H35070   8.268   7.981  -0.562 -0.4534  3.7723 -2.8218
 1001MOL0     H35071   8.151   7.872  -0.624  1.8671 -0.5803  1.7468
 1001MOL0     H35072   7.994   8.065  -0.629  0.6961 -0.4644  2.6302
 1001MOL0     H35073   8.127   8.079  -0.744  1.0339  0.7104  0.1377
 1001MOL0     H35074   8.250   8.232  -0.582  1.2239 -1.2093 -0.7504
 1001MOL0     H35075   8.090   8.240  -0.495  0.4125 -2.5322  0.7844
 1001MOL0     H35076   8.109   8.333  -0.786  1.4270  0.9097  0.5543
 1001MOL0     H35077   7.969   8.291  -0.697  1.0863 -2.0950  2.5345
 1001MOL0     H35078   8.050   8.529  -0.712 -0.4367 -0.1653  0.0480
 1001MOL0     H35079   7.997   8.476  -0.553  0.9439 -0.9286  1.0762
 1001MOL0     H35080   8.237   8.448  -0.484  2.1824 -2.8884 -2.1027
 1001MOL0     H35081   8.299   8.507  -0.642  0.6356  1.8603  0.4652
 1001MOL0     H35082   8.120   8.674  -0.476  0.9419 -0.0375  0.5128
 1001MOL0     H35083   8.183   8.708  -0.641  4.3780  1.7994  0.0673
 1001MOL0     H35084   8.420   8.709  -0.549 -0.3291  1.0068 -0.5496
 1001MOL0     H35085   8.334   8.813  -0.442  2.9630  0.7496 -0.9905
 1001MOL0     H35086   8.203   8.570  -0.252 -0.5269  0.4065 -2.0254
 1001MOL0     H35087   8.293   8.420  -0.037 -0.4456 -1.2354 -2.7737
 1001MOL0     H35088   8.448   8.334  -0.063  1.3086  0.4195 -0.3567
 1001MOL0     H35089   8.450   8.437   0.158  1.7093  1.8106  1.0664
 1001MOL0     H35090   8.584   8.455   0.048  0.3960  1.7204 -0.3525
 1001MOL0     H35091   8.375   8.668   0.100  0.1807  2.0021 -0.4289
 1001MOL0     H35092   8.533   8.696   0.018  1.5141 -1.6931  0.1332
 1001MOL0     H35093   8.549   8.774   0.242 -4.5330  0.5743 -0.9871
 1001MOL0     H35094   8.666   8.659   0.200  1.1503  1.0279  4.0478
 1001MOL0     H35095   8.681   8.399   0.286  3.4027 -0.5111  0.0035
 1001MOL0     H35096   8.863   8.308   0.429 -1.8719 -2.4404  4.7093
 1001MOL0     H35097   9.027   8.610   0.968  0.6216 -0.0612  3.3104
 1001MOL0     H35098   9.209   8.537   1.130  2.9387 -4.5337  1.2484
 1001MOL0     H35099   9.529   8.606   1.041  0.5311  1.2570  1.0958
 1001MOL0     H35100   9.442   8.593   1.195 -0.9919 -2.5733  1.0440
 1001MOL0     H35101   9.597   8.401   1.262  0.2455  1.2866  2.5097
 1001MOL0     H35102   9.706   8.454   1.127  0.3147 -2.2493  0.5853
 1001MOL0     H35103   9.688   8.692   1.248  0.8853 -0.9319 -0.3649
 1001MOL0     H35104   9.602   8.601   1.369 -2.5659  0.0008 -1.1097
 1001MOL0     H35105   9.877   8.556   1.289 -1.7705 -3.6020 -1.4711
 1001MOL0     H35106   9.796   8.437   1.379 -0.6788 -0.4551 -0.4678
 1001MOL0     H35107   9.769   8.591   1.574 -0.2711  1.4576  0.2068
 1001MOL0     H35108   9.791   8.734   1.465  1.1966  0.7584  0.0824
 1001MOL0     H35109  10.005   8.546   1.554  2.0107  0.3855  1.3770
 1001MOL0     H35110  10.025   8.698   1.472  0.6011 -2.1728 -1.1280
 1001MOL0     H35111   9.895   8.791   1.691 -0.8416 -1.1746  0.4215
 1001MOL0     H35112  10.064   8.740   1.721  0.3993 -0.2692 -3.4417
 1001MOL0     H35113   9.811   8.587   1.782  0.1250  1.9698 -1.7626
 1001MOL0     H35114   9.962   8.510   1.776 -2.1559 -1.4290  1.7243
 1001MOL0     H35115   9.423   8.352   0.815 -0.3227 -1.1590 -0.2824
 1001MOL0     H35116   9.259   8.442   0.645  0.2447  1.3417  0.5260
 1001MOL0     H35117   8.825   8.662   0.675 -0.8256 -1.3981  1.9340
 1001MOL0     H35118   8.616   8.729   0.541  0.0473 -0.5023  1.1814
 1001MOL0     H35119   8.315   8.083  -0.373 -3.0793  1.0832 -0.9472
 1001MOL0     H35120   8.455   8.057  -0.178 -2.8307  5.0061  1.0948
 1001MOL0     H35121   8.675   8.086   0.136 -1.9015 -2.0369 -1.5121
 1001MOL0     H35122   8.833   8.050   0.317  0.9822 -0.5365  1.4894
 1001MOL0     H35123   8.875   7.806   0.670  0.5839 -0.7405 -1.5620
 1001MOL0     H35124   8.718   7.753   0.620 -0.2761  0.8868 -1.1546
 1001MOL0     H35125   8.698   7.861   0.839  1.5896 -5.2056 -2.3447
 1001MOL0     H35126   8.629   7.967   0.719 -0.6244 -0.4262  0.0739
 1001MOL0     H35127   8.800   8.126   0.727  0.0281  1.5650  1.1141
 1001MOL0     H35128   8.924   8.000   0.777  0.1173  0.1836  1.9469
 1001MOL0     H35129   8.732   8.144   0.950  0.7396  1.9916 -0.3209
 1001MOL0     H35130   8.810   7.997   1.006 -1.6810  0.7504  0.0570
 1001MOL0     H35131   9.131   8.270   1.029  1.4870 -2.5548 -0.6373
 1001MOL0     H35132   8.539   7.771   0.481 -1.4048  0.2621 -1.3028
 1001MOL0     H35133   8.334   7.746   0.229 -0.5891 -2.5891  0.9898
 1001MOL0     H35134   8.347   7.739   0.414  1.2163  0.7469  1.3242
 1001MOL0     H35135   8.283   7.871   0.319  0.7750  1.5091 -2.6519
 1002MOL0     O35136   3.263   8.358   9.426  0.5808  0.7784 -0.2525
 1002MOL0     C35137   3.274   8.461   9.365 -0.2816 -1.1574 -0.1543
 1002MOL0     O35138   3.364   8.564   9.396 -0.5654 -0.3761  0.3178
 1002MOL0     C35139   3.429   8.568   9.523 -0.2928  0.1232 -0.0322
 1002MOL0     C35140   3.390   8.505   9.646  0.3040  0.4150 -0.4381
 1002MOL0     C35141   3.468   8.499   9.762 -0.1508  0.0913  0.1671
 1002MOL0     C35142   3.580   8.582   9.766  0.2489 -0.4580  0.0956
 1002MOL0     O35143   3.661   8.581   9.880 -0.3312 -0.5278  0.1190
 1002MOL0     C35144   3.592   8.584  10.003 -0.6528  0.4439 -0.1930
 1002MOL0     C35145   3.688   8.621  10.122 -0.1001 -0.2455 -0.0384
 1002MOL0     C35146   3.817   8.545  10.132  0.9026  0.1330 -0.2199
 1002MOL0     C35147   3.922   8.619  10.221 -0.4902  0.7165 -0.3445
 1002MOL0     C35148   4.047   8.528  10.221 -0.0272  0.4911  0.2564
 1002MOL0     C35149   4.125   8.553  10.349  0.4025  0.1318 -0.1228
 1002MOL0     C35150   4.254   8.472  10.357  0.3205 -0.0450  0.6876
 1002MOL0     C35151   4.340   8.528  10.465  0.2786 -0.7824  0.3411
 1002MOL0     N35152   4.470   8.452  10.478 -0.1605  0.0122  0.5303
 1002MOL0     C35153   4.554   8.412  10.379  0.9678  0.2810 -0.1264
 1002MOL0     C35154   4.649   8.339  10.445  1.2786 -0.1690 -0.3018
 1002MOL0     C35155   4.771   8.273  10.375  0.1154 -0.3505 -0.2744
 1002MOL0     C35156   4.888   8.370  10.360 -1.7433 -0.3384 -0.7752
 1002MOL0     C35157   4.849   8.514  10.321  0.7270 -0.8768  0.5953
 1002MOL0     C35158   4.962   8.604  10.293 -0.2648  0.3064 -0.5653
 1002MOL0     O35159   5.025   8.567  10.182 -0.2949 -0.0702  0.2808
 1002MOL0     C35160   5.117   8.654  10.137 -0.2727  0.0442  0.7921
 1002MOL0     C35161   5.247   8.661  10.192  0.5989 -0.2844  0.1953
 1002MOL0     C35162   5.338   8.758  10.139 -0.5321 -0.2163 -0.7668
 1002MOL0     C35163   5.308   8.835  10.023 -0.0909  0.2918  0.3001
 1002MOL0     C35164   5.406   8.929   9.955  0.2999  0.8156 -0.3413
 1002MOL0     O35165   5.532   8.916  10.000 -0.0623 -0.2894  0.0936
 1002MOL0     C35166   5.634   8.987   9.941 -0.3456  0.5002  0.4397
 1002MOL0     C35167   5.634   9.116   9.902  0.0998  1.0211  0.5256
 1002MOL0     C35168   5.746   9.174   9.828  0.8056 -0.4016 -0.5017
 1002MOL0     C35169   5.869   9.096   9.804  0.3426 -0.3745 -0.5720
 1002MOL0     O35170   5.983   9.138   9.742 -0.2989 -0.7268  0.0214
 1002MOL0     C35171   6.003   9.280   9.722  1.1639 -0.4453  0.3677
 1002MOL0     C35172   6.153   9.302   9.716  0.6537 -0.5479 -0.3093
 1002MOL0     C35173   6.214   9.261   9.584  0.1568  0.6578  0.8327
 1002MOL0     C35174   6.356   9.232   9.592  0.3431 -0.3034 -0.1122
 1002MOL0     C35175   6.414   9.202   9.459  0.7512  0.3938  0.3470
 1002MOL0     C35176   6.565   9.182   9.476 -0.8286 -0.0113 -0.3699
 1002MOL0     C35177   6.643   9.122   9.351 -0.1691  0.0108 -0.5517
 1002MOL0     C35178   6.793   9.137   9.382  0.1304 -0.2528 -0.2228
 1002MOL0    Cl35179   6.893   9.033   9.284 -0.0121  0.2489 -0.2022
 1002MOL0     C35180   5.872   8.974   9.857  0.9482  0.2453  0.4862
 1002MOL0     C35181   5.760   8.925   9.909 -0.2027 -0.3378 -0.0121
 1002MOL0     O35182   5.360   8.981   9.851 -0.7517 -0.1085  0.3376
 1002MOL0     C35183   5.173   8.820   9.971 -0.5337 -0.6463  0.3335
 1002MOL0     C35184   5.082   8.734  10.030 -0.0176 -0.6924  0.2956
 1002MOL0     N35185   4.621   8.342  10.580  0.6393  0.8326  0.1337
 1002MOL0     N35186   4.513   8.413  10.593 -0.0907  0.8084 -1.1840
 1002MOL0     C35187   3.620   8.653   9.648  0.6009 -0.2877  0.2230
 1002MOL0     C35188   3.543   8.649   9.528  0.2377 -0.3780  0.1532
 1002MOL0     C35189   3.191   8.487   9.245  0.3662 -1.2891 -0.4348
 1002MOL0     C35190   3.152   8.618   9.233 -0.0967  0.4703 -0.4671
 1002MOL0     C35191   3.059   8.658   9.144  0.3881  0.1237  0.2754
 1002MOL0     C35192   3.000   8.564   9.051 -0.2795 -0.2381  0.0025
 1002MOL0     O35193   2.915   8.609   8.957  0.7504  0.2007  0.1651
 1002MOL0     C35194   2.828   8.521   8.890  0.6494  0.1465 -0.0668
 1002MOL0     C35195   2.744   8.613   8.813  0.8407 -0.4396 -0.2987
 1002MOL0     C35196   2.630   8.545   8.742  0.0298  0.0628 -0.1602
 1002MOL0     C35197   2.553   8.642   8.665  0.4526 -0.1335  0.1994
 1002MOL0     C35198   2.471   8.580   8.557 -0.9513 -0.4986  0.0520
 1002MOL0     C35199   2.406   8.533   8.473 -0.5618  0.9137  0.7626
 1002MOL0     C35200   3.043   8.426   9.056 -0.2886 -0.6101  0.0345
 1002MOL0     C35201   3.140   8.392   9.153 -1.1655 -0.9050  0.1791
 1002MOL0     C35202   3.197   8.249   9.119 -0.1544 -0.3335 -0.6290
 1002MOL0     H35203   3.306   8.437   9.648 -0.2629  0.7572 -4.5259
 1002MOL0     H35204   3.445   8.439   9.850 -0.8531 -0.3908 -0.3282
 1002MOL0     H35205   3.511   8.657   9.992 -2.9672 -2.1373 -1.2716
 1002MOL0     H35206   3.552   8.483  10.014 -0.8780  0.8090  5.1687
 1002MOL0     H35207   3.631   8.605  10.214  0.5609 -1.3708  0.1998
 1002MOL0     H35208   3.713   8.723  10.093 -0.2662 -1.3050 -4.8019
 1002MOL0     H35209   3.861   8.521  10.035 -0.2151  2.1672 -1.2984
 1002MOL0     H35210   3.792   8.449  10.179 -1.1473  1.7379  2.3024
 1002MOL0     H35211   3.947   8.719  10.185  0.2281  1.6858  2.6010
 1002MOL0     H35212   3.886   8.614  10.324  0.7316 -1.0787  0.0388
 1002MOL0     H35213   4.035   8.419  10.220  2.6836  0.0788  1.6904
 1002MOL0     H35214   4.106   8.564  10.136 -0.7696  1.9694  0.3303
 1002MOL0     H35215   4.163   8.655  10.349  3.9812 -0.9794  3.0245
 1002MOL0     H35216   4.058   8.535  10.434 -4.3152  2.7896 -2.8301
 1002MOL0     H35217   4.311   8.465  10.263 -1.5003  1.9918 -0.6605
 1002MOL0     H35218   4.227   8.368  10.375  1.5746 -0.2281  1.6185
 1002MOL0     H35219   4.366   8.632  10.443 -1.2153  0.5342  4.0290
 1002MOL0     H35220   4.284   8.527  10.559 -0.4030  0.2266 -0.0415
 1002MOL0     H35221   4.551   8.435  10.273  3.0290 -0.8670 -0.4807
 1002MOL0     H35222   4.788   8.189  10.444 -0.1837 -1.3116 -1.3481
 1002MOL0     H35223   4.746   8.240  10.274  1.8608  0.1614 -0.9025
 1002MOL0     H35224   4.947   8.372  10.452  2.5139  1.0568 -3.2247
 1002MOL0     H35225   4.956   8.335  10.281 -0.8729  3.6252 -2.0313
 1002MOL0     H35226   4.791   8.557  10.403 -0.0912  0.7193 -0.7481
 1002MOL0     H35227   4.782   8.529  10.235 -0.5226  1.6648  1.8975
 1002MOL0     H35228   5.038   8.602  10.371 -0.8906 -3.2040  0.1566
 1002MOL0     H35229   4.913   8.701  10.294 -1.4881 -0.2828  1.0430
 1002MOL0     H35230   5.284   8.595  10.269  3.7530  0.0177 -0.9224
 1002MOL0     H35231   5.438   8.766  10.181 -1.6696  1.4152  1.9053
 1002MOL0     H35232   5.547   9.180   9.909 -0.3340  0.5251 -0.0774
 1002MOL0     H35233   5.726   9.273   9.790  0.0201  0.3010  1.5917
 1002MOL0     H35234   5.953   9.316   9.632  0.5116  1.3959  1.4107
 1002MOL0     H35235   5.957   9.336   9.803 -1.2558 -1.8096  0.0387
 1002MOL0     H35236   6.170   9.410   9.726 -0.7510 -0.4412  1.4325
 1002MOL0     H35237   6.206   9.247   9.794 -0.2420 -2.4767 -0.9912
 1002MOL0     H35238   6.169   9.175   9.533  2.5427 -0.4296  0.4257
 1002MOL0     H35239   6.198   9.340   9.510  1.5567  0.6126  0.4516
 1002MOL0     H35240   6.375   9.150   9.663  0.1309 -1.5646 -1.4757
 1002MOL0     H35241   6.403   9.328   9.616 -0.8642  0.5933 -1.2053
 1002MOL0     H35242   6.404   9.287   9.391  2.7851 -0.3006 -0.9127
 1002MOL0     H35243   6.364   9.112   9.424 -2.5104  1.1137  2.6520
 1002MOL0     H35244   6.602   9.282   9.500  2.6313 -0.9867 -1.0542
 1002MOL0     H35245   6.578   9.107   9.554  2.4032  2.4849  1.7317
 1002MOL0     H35246   6.617   9.173   9.258  0.1384  1.7541  0.2755
 1002MOL0     H35247   6.622   9.016   9.336 -1.4479  0.1718 -0.0151
 1002MOL0     H35248   6.810   9.245   9.375 -4.2653  0.7868  1.7397
 1002MOL0     H35249   6.812   9.106   9.485  3.4484  2.7608  0.3099
 1002MOL0     H35250   5.958   8.909   9.843  1.1810  0.6843 -0.1596
 1002MOL0     H35251   5.764   8.817   9.920  0.2685 -0.1846  1.5046
 1002MOL0     H35252   5.138   8.891   9.897  2.1668  0.8797  0.3979
 1002MOL0     H35253   4.983   8.731   9.985  0.3356 -1.1122 -0.4776
 1002MOL0     H35254   3.712   8.710   9.642 -0.6314  1.8772  0.7513
 1002MOL0     H35255   3.569   8.700   9.436  0.3929 -1.6095 -0.5106
 1002MOL0     H35256   3.183   8.705   9.289  2.2422 -1.5164  1.5264
 1002MOL0     H35257   3.016   8.757   9.138 -3.3472 -0.9555  4.2745
 1002MOL0     H35258   2.768   8.469   8.965 -0.6295  1.4768 -0.1111
 1002MOL0     H35259   2.890   8.449   8.836  0.3231 -0.7549  0.7412
 1002MOL0     H35260   2.804   8.679   8.750 -0.6950 -1.0760 -2.5166
 1002MOL0     H35261   2.693   8.681   8.883  3.0656 -0.5263  1.5437
 1002MOL0     H35262   2.567   8.502   8.820 -1.1148 -0.5464 -1.3627
 1002MOL0     H35263   2.684   8.469   8.683 -1.0849  0.9208 -2.3996
 1002MOL0     H35264   2.483   8.686   8.736 -2.8445 -3.1688 -0.8531
 1002MOL0     H35265   2.615   8.718   8.615  0.3080 -0.5556 -0.6473
 1002MOL0     H35266   2.366   8.495   8.381 -1.3296  3.2134  0.0767
 1002MOL0     H35267   3.015   8.353   8.980  1.3667 -0.1755 -1.0546
 1002MOL0     H35268   3.261   8.245   9.031 -0.1886 -0.2281 -0.6585
 1002MOL0     H35269   3.248   8.210   9.208  3.6842  1.5343 -1.7782
 1002MOL0     H35270   3.119   8.173   9.107 -0.8769  0.3275 -0.2377
 1003MOL0     O35271  11.049   3.558   0.314 -0.3866 -0.6305 -0.0701
 1003MOL0     C35272  11.137   3.642   0.321  0.8781 -0.1340  0.1622
 1003MOL0     O35273  11.237   3.649   0.223 -0.0217 -0.3908 -0.5554
 1003MOL0     C35274  11.239   3.546   0.133  0.0211 -0.3714  0.9639
 1003MOL0     C35275  11.180   3.568   0.009  0.1942 -1.0404 -0.4747
 1003MOL0     C35276  11.181   3.465  -0.085 -0.7742 -1.2119  0.7836
 1003MOL0     C35277  11.252   3.348  -0.063  0.7312 -0.9870 -0.6549
 1003MOL0     O35278  11.241   3.240  -0.149 -0.3987 -0.1811  0.3122
 1003MOL0     C35279  11.225   3.262  -0.293 -1.2979 -0.2336 -0.4883
 1003MOL0     C35280  11.183   3.121  -0.348  0.3246 -0.3463 -0.1838
 1003MOL0     C35281  11.317   3.035  -0.348 -0.7060  0.2282  0.0350
 1003MOL0     C35282  11.273   2.903  -0.417 -0.1241  0.0814  0.5720
 1003MOL0     C35283  11.388   2.799  -0.442  0.2690 -0.4462 -0.3926
 1003MOL0     C35284  11.320   2.664  -0.438  0.4255  0.0637 -0.6042
 1003MOL0     C35285  11.393   2.554  -0.515  1.3216  0.1633 -0.3976
 1003MOL0     C35286  11.301   2.418  -0.523 -0.0051 -0.0341  0.8073
 1003MOL0     N35287  11.290   2.367  -0.383 -0.2106 -0.7410 -0.1392
 1003MOL0     C35288  11.187   2.381  -0.291  0.1362 -0.1304 -0.2943
 1003MOL0     C35289  11.221   2.315  -0.180 -0.0886 -0.2185  0.3617
 1003MOL0     C35290  11.140   2.301  -0.050  0.7552  1.0159 -0.3878
 1003MOL0     C35291  11.034   2.407  -0.020  0.3790  0.4788  0.0875
 1003MOL0     C35292  10.978   2.396   0.126  0.0676 -0.2330  0.9863
 1003MOL0     C35293  10.828   2.421   0.136 -1.3649  0.5154 -0.4516
 1003MOL0     O35294  10.767   2.424   0.268  0.1465  0.6380 -0.1766
 1003MOL0     C35295  10.721   2.309   0.335 -0.4977 -1.1291  0.1686
 1003MOL0     C35296  10.695   2.183   0.283  0.3502  0.6315 -0.5473
 1003MOL0     C35297  10.623   2.081   0.345 -0.5984 -0.5066 -0.0926
 1003MOL0     C35298  10.580   2.104   0.476  0.1056 -0.3784 -0.1929
 1003MOL0     C35299  10.511   1.993   0.550  0.4234 -0.4804 -0.7762
 1003MOL0     O35300  10.524   1.868   0.501 -0.0016  0.0881 -0.1197
 1003MOL0     C35301  10.491   1.750   0.567  0.0055 -0.4404 -0.2307
 1003MOL0     C35302  10.517   1.735   0.706  0.3301 -0.6438  0.2297
 1003MOL0     C35303  10.473   1.615   0.771  0.0043  0.5414 -0.2255
 1003MOL0     C35304  10.418   1.503   0.702  1.3189  0.0512 -0.8492
 1003MOL0     O35305  10.369   1.390   0.761 -0.3305  0.6188 -0.8828
 1003MOL0     C35306  10.309   1.409   0.893  0.0933  0.7297  0.1008
 1003MOL0     C35307  10.261   1.276   0.941 -0.3811  0.1667  0.2067
 1003MOL0     C35308  10.130   1.232   0.870 -0.6919  0.7431  0.1573
 1003MOL0     C35309  10.153   1.156   0.730  0.2550 -0.4385  0.6240
 1003MOL0     C35310  10.019   1.071   0.686  0.4047 -0.1744  0.0430
 1003MOL0     C35311   9.910   1.172   0.632  0.4547 -0.1037  0.3236
 1003MOL0     C35312   9.767   1.112   0.631  0.3234 -0.7827 -0.2652
 1003MOL0     C35313   9.696   1.082   0.773  0.0371  0.2466  0.7114
 1003MOL0    Cl35314   9.687   1.220   0.889 -0.0213  0.2794 -0.0928
 1003MOL0     C35315  10.405   1.515   0.567  0.6824 -0.3647  0.6987
 1003MOL0     C35316  10.449   1.630   0.500  0.9965 -0.1266  0.0252
 1003MOL0     O35317  10.444   2.029   0.645 -0.1816 -0.4722  0.5403
 1003MOL0     C35318  10.618   2.227   0.535 -0.5181 -0.5802  0.3098
 1003MOL0     C35319  10.678   2.331   0.467 -0.2895 -0.2218 -0.1714
 1003MOL0     N35320  11.346   2.259  -0.193 -0.4478  0.0472  0.4307
 1003MOL0     N35321  11.385   2.297  -0.305 -0.2726 -0.1215 -0.0471
 1003MOL0     C35322  11.316   3.335   0.063 -0.1309  1.1344 -0.2739
 1003MOL0     C35323  11.310   3.426   0.158  0.4515  0.4037  0.6392
 1003MOL0     C35324  11.123   3.762   0.416 -0.7528  0.3762  0.5067
 1003MOL0     C35325  11.218   3.870   0.398  0.7182  1.2757  0.8929
 1003MOL0     C35326  11.204   3.981   0.469 -0.1693  0.6907  0.0833
 1003MOL0     C35327  11.104   3.992   0.572 -0.6040  0.1970 -0.4998
 1003MOL0     O35328  11.099   4.103   0.659 -0.6332  0.4036  0.2840
 1003MOL0     C35329  11.130   4.233   0.615  0.2172 -0.4067  0.0803
 1003MOL0     C35330  11.021   4.287   0.518  0.2857  0.3708 -0.6308
 1003MOL0     C35331  11.042   4.436   0.481  0.0399 -0.6869  0.6079
 1003MOL0     C35332  10.931   4.490   0.397 -0.1448  0.3477 -0.4180
 1003MOL0     C35333  10.930   4.637   0.409  0.9267 -0.1547  0.5566
 1003MOL0     C35334  10.921   4.753   0.416  0.3602  0.6606  0.2113
 1003MOL0     C35335  11.020   3.880   0.601 -0.0744 -0.1788  0.0773
 1003MOL0     C35336  11.028   3.762   0.528 -0.6583  0.1490  0.8238
 1003MOL0     C35337  10.941   3.648   0.581  0.6476  0.3672  0.1875
 1003MOL0     H35338  11.120   3.657  -0.005  0.6667 -0.7977 -0.9869
 1003MOL0     H35339  11.141   3.488  -0.183  0.1148 -2.3097  0.1324
 1003MOL0     H35340  11.149   3.333  -0.326  0.4732  0.9380 -2.2523
 1003MOL0     H35341  11.325   3.292  -0.324  0.2460 -0.8766  3.3360
 1003MOL0     H35342  11.138   3.130  -0.447 -1.5377 -0.3414  0.6248
 1003MOL0     H35343  11.102   3.085  -0.283  0.6573  0.7661  0.8999
 1003MOL0     H35344  11.330   3.016  -0.241 -1.0820  0.3320  0.1015
 1003MOL0     H35345  11.401   3.090  -0.392 -1.8826  3.3380  1.3425
 1003MOL0     H35346  11.197   2.856  -0.354 -1.2242 -0.9156 -1.3986
 1003MOL0     H35347  11.224   2.928  -0.511  2.5959 -1.8697 -1.5118
 1003MOL0     H35348  11.422   2.811  -0.546  0.3744 -1.8512 -0.5500
 1003MOL0     H35349  11.455   2.813  -0.357 -0.5774 -3.5565  0.9386
 1003MOL0     H35350  11.305   2.645  -0.331  0.9181  1.9871 -0.1568
 1003MOL0     H35351  11.220   2.676  -0.480  0.0502  1.3797  0.6003
 1003MOL0     H35352  11.488   2.532  -0.464  2.0633  0.4235 -1.6100
 1003MOL0     H35353  11.412   2.583  -0.619  2.0050 -0.0813 -0.3516
 1003MOL0     H35354  11.204   2.433  -0.572 -1.1516 -1.9514  2.3362
 1003MOL0     H35355  11.357   2.347  -0.584 -1.5180  1.1816 -2.1958
 1003MOL0     H35356  11.095   2.438  -0.300  0.1212 -0.1571 -0.3109
 1003MOL0     H35357  11.094   2.203  -0.063  0.5015  1.1398 -0.4171
 1003MOL0     H35358  11.218   2.292   0.027 -0.5748 -0.1541  0.8837
 1003MOL0     H35359  11.082   2.505  -0.027 -1.3342  1.4473  1.1019
 1003MOL0     H35360  10.951   2.391  -0.089  1.0506 -0.7793 -0.4669
 1003MOL0     H35361  11.027   2.465   0.196 -0.5657 -0.7758  1.9852
 1003MOL0     H35362  11.006   2.299   0.168 -0.4491 -0.7367  0.1630
 1003MOL0     H35363  10.780   2.342   0.078 -1.5667 -2.0210  2.8301
 1003MOL0     H35364  10.811   2.513   0.080  0.4755  0.0167 -1.9275
 1003MOL0     H35365  10.720   2.162   0.179 -1.9150  0.0031 -1.0097
 1003MOL0     H35366  10.581   1.987   0.310 -4.0175  1.2304 -1.1242
 1003MOL0     H35367  10.561   1.818   0.762  1.8344 -2.5491  2.0261
 1003MOL0     H35368  10.503   1.609   0.875  3.3057  1.3960 -0.9952
 1003MOL0     H35369  10.391   1.436   0.960 -1.0362  0.1317  1.7877
 1003MOL0     H35370  10.225   1.479   0.895 -1.0496 -0.5921  0.6107
 1003MOL0     H35371  10.331   1.193   0.923 -0.3282 -0.3248  2.3681
 1003MOL0     H35372  10.247   1.266   1.049  1.9008 -1.0020  0.4692
 1003MOL0     H35373  10.072   1.170   0.940 -0.7287  0.1453 -0.3897
 1003MOL0     H35374  10.066   1.318   0.851 -3.9487 -0.7760  3.0098
 1003MOL0     H35375  10.243   1.096   0.743  0.6779  0.0371 -0.0356
 1003MOL0     H35376  10.192   1.225   0.654  1.6949 -0.1672  1.5707
 1003MOL0     H35377   9.977   1.007   0.764  0.1201 -0.8458 -0.6538
 1003MOL0     H35378  10.045   1.002   0.606  1.4330  1.9548 -1.5640
 1003MOL0     H35379   9.911   1.263   0.693  1.7107  0.4402 -0.4905
 1003MOL0     H35380   9.944   1.211   0.536  1.0703 -0.1436  0.5202
 1003MOL0     H35381   9.754   1.026   0.564 -0.4498  0.3039 -1.5597
 1003MOL0     H35382   9.710   1.190   0.579  0.8208 -0.9834 -1.1319
 1003MOL0     H35383   9.594   1.055   0.744  0.4975  0.2628 -1.0796
 1003MOL0     H35384   9.745   0.992   0.811 -0.7867 -1.3108 -1.6453
 1003MOL0     H35385  10.368   1.422   0.527  0.9825 -0.9129  1.6487
 1003MOL0     H35386  10.463   1.627   0.392  4.5973 -2.5153  0.3906
 1003MOL0     H35387  10.587   2.239   0.638 -2.3229 -0.4690 -0.2234
 1003MOL0     H35388  10.698   2.426   0.516  3.1695 -1.5326  1.3035
 1003MOL0     H35389  11.352   3.236   0.089 -1.9292  0.5211  0.0426
 1003MOL0     H35390  11.362   3.405   0.250 -1.5241 -1.4800  1.4047
 1003MOL0     H35391  11.293   3.858   0.321 -1.4096  3.1720 -1.6844
 1003MOL0     H35392  11.273   4.063   0.452  1.3073 -0.6446 -0.5245
 1003MOL0     H35393  11.227   4.238   0.564  0.5208  1.7194  0.7730
 1003MOL0     H35394  11.138   4.302   0.700  0.4465  1.2829 -1.2621
 1003MOL0     H35395  10.916   4.291   0.549 -0.5887 -0.2034 -3.2565
 1003MOL0     H35396  11.012   4.225   0.429 -0.3230 -0.6232  0.0931
 1003MOL0     H35397  11.136   4.450   0.428  0.0249  2.8156  1.2674
 1003MOL0     H35398  11.053   4.498   0.570  0.8383  2.3255 -1.4480
 1003MOL0     H35399  10.952   4.450   0.297 -1.4205 -3.2340  0.5757
 1003MOL0     H35400  10.835   4.451   0.432  0.2841 -0.0272  0.3538
 1003MOL0     H35401  10.930   4.859   0.430  1.5814  0.7103 -0.8073
 1003MOL0     H35402  10.945   3.875   0.680 -1.5549 -1.7940 -1.3584
 1003MOL0     H35403  10.845   3.665   0.533 -0.3481 -2.6794  0.8778
 1003MOL0     H35404  10.976   3.547   0.558  0.0227  0.3522 -0.7671
 1003MOL0     H35405  10.923   3.652   0.689  2.0285  1.5028  0.4025
 1004MOL0     O35406  10.471   9.846  10.566 -0.5129  0.6074 -0.5834
 1004MOL0     C35407  10.548   9.825  10.468 -0.1655 -0.0013 -0.1610
 1004MOL0     O35408  10.550   9.712  10.389  0.1492  0.1555 -0.1788
 1004MOL0     C35409  10.486   9.596  10.439  0.8289 -0.5260 -0.0678
 1004MOL0     C35410  10.502   9.551  10.572 -0.2764 -0.2436 -0.8004
 1004MOL0     C35411  10.462   9.424  10.609  0.3375  0.0455 -0.0060
 1004MOL0     C35412  10.372   9.342  10.527 -0.9741 -1.1739  0.4871
 1004MOL0     O35413  10.330   9.214  10.558 -0.4754  0.2568 -0.1497
 1004MOL0     C35414  10.371   9.145  10.673  0.8910 -0.0168 -0.5247
 1004MOL0     C35415  10.476   9.044  10.634  0.2225  0.6181 -0.7933
 1004MOL0     C35416  10.483   8.924  10.725  0.7004 -1.0827  0.0277
 1004MOL0     C35417  10.604   8.829  10.694 -0.3927 -0.2015 -1.1304
 1004MOL0     C35418  10.604   8.720  10.798 -1.2602  0.0016  0.2172
 1004MOL0     C35419  10.733   8.638  10.770 -0.1089  0.3399  1.0085
 1004MOL0     C35420  10.743   8.499  10.847  0.4921 -0.5198  0.3591
 1004MOL0     C35421  10.684   8.379  10.780 -0.7175  0.0116 -0.3911
 1004MOL0     N35422  10.567   8.346  10.853  0.7060  1.1023  0.5640
 1004MOL0     C35423  10.545   8.227  10.907  0.4024  1.1759 -0.3031
 1004MOL0     C35424  10.412   8.227  10.943  1.0582 -0.5492  0.0850
 1004MOL0     C35425  10.347   8.102  11.010  0.8473  0.2349  0.6837
 1004MOL0     C35426  10.242   8.056  10.922  0.6051 -0.6666  0.6147
 1004MOL0     C35427  10.165   7.931  10.952 -0.0334 -0.9166  0.2446
 1004MOL0     C35428  10.079   7.886  10.838  0.0176 -0.6068  0.4609
 1004MOL0     O35429  10.154   7.831  10.730  0.0487 -0.1574  0.7898
 1004MOL0     C35430  10.083   7.737  10.656 -0.1751  0.6982 -0.1836
 1004MOL0     C35431  10.142   7.609  10.617 -0.8678  0.0697 -0.0620
 1004MOL0     C35432  10.090   7.532  10.509 -0.1682 -0.0601 -0.8397
 1004MOL0     C35433   9.967   7.568  10.458 -0.4217 -0.3687 -0.0440
 1004MOL0     C35434   9.909   7.499  10.341 -0.0220  0.7886 -0.3440
 1004MOL0     O35435   9.992   7.402  10.288  0.1778  0.0089 -0.6314
 1004MOL0     C35436   9.948   7.362  10.162  0.4944  0.2444 -0.0940
 1004MOL0     C35437   9.895   7.237  10.144 -1.0274  0.2169  0.7965
 1004MOL0     C35438   9.862   7.201  10.012 -1.1836 -0.5198  0.0242
 1004MOL0     C35439   9.877   7.298   9.907 -0.8427  0.9483 -0.0389
 1004MOL0     O35440   9.818   7.261   9.788  0.1947  0.0428 -0.4286
 1004MOL0     C35441   9.767   7.372   9.706 -0.2738 -0.3585 -0.0747
 1004MOL0     C35442   9.713   7.321   9.577  0.2053  0.0308  0.7965
 1004MOL0     C35443   9.825   7.300   9.474 -1.1325  0.5348  0.8769
 1004MOL0     C35444   9.796   7.185   9.379  0.5108 -1.0777  0.8325
 1004MOL0     C35445   9.913   7.161   9.286 -0.9344  0.9443 -0.1347
 1004MOL0     C35446   9.901   7.029   9.203  0.2645 -0.0166 -0.3953
 1004MOL0     C35447   9.926   6.896   9.275 -0.3532  0.4146  0.0553
 1004MOL0     C35448   9.862   6.774   9.206 -0.9077 -0.3384  0.3006
 1004MOL0    Cl35449   9.949   6.717   9.048  0.1750 -0.0435  0.0415
 1004MOL0     C35450   9.954   7.411   9.924  1.0250  0.1006 -1.1931
 1004MOL0     C35451   9.980   7.445  10.055 -1.3881 -0.2955  0.2216
 1004MOL0     O35452   9.796   7.514  10.308  0.0409 -0.5552  0.1703
 1004MOL0     C35453   9.905   7.682  10.510  0.8907 -0.3283  0.2482
 1004MOL0     C35454   9.961   7.765  10.603 -0.9035 -0.7390 -0.3710
 1004MOL0     N35455  10.355   8.346  10.897  0.2220  0.1395 -0.0886
 1004MOL0     N35456  10.455   8.423  10.850 -0.2020  0.1277 -0.3894
 1004MOL0     C35457  10.348   9.394  10.396 -0.5221  0.1150 -0.4924
 1004MOL0     C35458  10.406   9.517  10.351  0.4255  0.2902  0.3280
 1004MOL0     C35459  10.649   9.927  10.431  0.7262  0.0683 -0.7250
 1004MOL0     C35460  10.652   9.965  10.300 -0.3448  0.0989  0.1193
 1004MOL0     C35461  10.728  10.065  10.249  0.2078 -0.0446 -0.5434
 1004MOL0     C35462  10.803  10.139  10.342 -0.3149  0.0344  0.2028
 1004MOL0     O35463  10.865  10.257  10.296 -0.4781  0.8407 -0.5948
 1004MOL0     C35464  10.913  10.348  10.400 -0.2967 -1.1151  0.2868
 1004MOL0     C35465  11.052  10.319  10.435  0.8567  0.9998  0.2126
 1004MOL0     C35466  11.108  10.416  10.546 -0.3013  0.0738  0.7467
 1004MOL0     C35467  11.158  10.550  10.492 -0.8189 -0.7984  1.2136
 1004MOL0     C35468  11.271  10.537  10.402 -0.5309  0.3492 -0.3147
 1004MOL0     C35469  11.365  10.510  10.333  0.3116 -1.0762  0.4517
 1004MOL0     C35470  10.795  10.097  10.480 -0.1698  0.8006  0.2418
 1004MOL0     C35471  10.716   9.994  10.527  0.1511 -0.6689  0.3312
 1004MOL0     C35472  10.719   9.975  10.677  0.3183 -0.0722  0.4685
 1004MOL0     H35473  10.558   9.607  10.647 -3.0666  4.0065 -1.5220
 1004MOL0     H35474  10.503   9.396  10.705 -1.1711  0.0552  0.6749
 1004MOL0     H35475  10.409   9.213  10.750 -0.1109  1.6264 -1.4311
 1004MOL0     H35476  10.287   9.091  10.719 -0.7669  0.8634 -2.3953
 1004MOL0     H35477  10.573   9.093  10.642  0.1272  0.5466  1.1251
 1004MOL0     H35478  10.453   9.022  10.529 -0.5334 -1.5526 -0.2204
 1004MOL0     H35479  10.390   8.869  10.706 -1.5554  2.5891 -0.6532
 1004MOL0     H35480  10.483   8.955  10.830  0.5627 -1.0770  0.0260
 1004MOL0     H35481  10.589   8.785  10.595  0.4350  0.7632 -1.7129
 1004MOL0     H35482  10.701   8.879  10.696  0.2202 -1.3131  1.6304
 1004MOL0     H35483  10.612   8.743  10.905 -0.7192 -0.8338  0.3736
 1004MOL0     H35484  10.509   8.666  10.784 -0.7335 -1.2583  1.2155
 1004MOL0     H35485  10.741   8.625  10.662  0.6949  0.0214  1.1005
 1004MOL0     H35486  10.823   8.696  10.792  0.2293  1.0206 -1.8261
 1004MOL0     H35487  10.706   8.514  10.949 -1.4990  0.9494 -0.4948
 1004MOL0     H35488  10.847   8.464  10.849  0.1165 -1.7761 -0.8157
 1004MOL0     H35489  10.654   8.413  10.681  3.3294 -2.2425 -2.6624
 1004MOL0     H35490  10.749   8.293  10.759 -2.3707 -2.0920  2.3426
 1004MOL0     H35491  10.625   8.157  10.925  1.0374  1.7671 -0.7719
 1004MOL0     H35492  10.424   8.024  11.015  2.5048  1.6527 -1.1841
 1004MOL0     H35493  10.302   8.120  11.108 -0.7921  2.0520 -0.3289
 1004MOL0     H35494  10.169   8.138  10.917  1.1376 -0.2542 -1.2109
 1004MOL0     H35495  10.284   8.056  10.821  1.1247 -0.4984  0.8261
 1004MOL0     H35496  10.116   7.939  11.049 -0.2622 -2.7513  0.3159
 1004MOL0     H35497  10.236   7.849  10.965 -2.1846 -2.9466 -0.1460
 1004MOL0     H35498  10.013   7.966  10.803 -0.0713 -1.2590 -0.9281
 1004MOL0     H35499  10.007   7.809  10.869 -0.4597 -0.3289  0.0523
 1004MOL0     H35500  10.241   7.598  10.659 -1.6757 -0.9373  1.6784
 1004MOL0     H35501  10.156   7.452  10.475  3.0820  0.6418  2.9868
 1004MOL0     H35502   9.863   7.169  10.222 -1.2909 -0.9736 -0.2996
 1004MOL0     H35503   9.808   7.112   9.984 -2.5444  0.8304 -1.9363
 1004MOL0     H35504   9.683   7.417   9.759 -1.6468 -2.1182 -0.6474
 1004MOL0     H35505   9.832   7.460   9.698 -1.3947  0.5751  0.7266
 1004MOL0     H35506   9.649   7.233   9.591 -1.5683  1.1985  0.3613
 1004MOL0     H35507   9.645   7.399   9.542  0.3984  0.0060  0.3650
 1004MOL0     H35508   9.846   7.393   9.419  2.6856 -0.4473  0.3965
 1004MOL0     H35509   9.924   7.286   9.519 -1.1834 -1.4528  0.4567
 1004MOL0     H35510   9.711   7.222   9.320 -1.9395  0.8408  5.0736
 1004MOL0     H35511   9.757   7.094   9.425 -3.4235 -1.9151 -3.3530
 1004MOL0     H35512   9.998   7.145   9.353  1.2959  2.9305 -2.2462
 1004MOL0     H35513   9.936   7.242   9.216 -3.2130  0.4805 -1.4944
 1004MOL0     H35514   9.800   7.037   9.162  0.1156  0.0779 -0.0174
 1004MOL0     H35515   9.959   7.029   9.110 -0.6833  2.6080 -1.0854
 1004MOL0     H35516   9.881   6.899   9.374 -2.2303 -1.2986 -0.6818
 1004MOL0     H35517  10.034   6.881   9.274 -0.5049 -0.7454 -0.0060
 1004MOL0     H35518   9.848   6.685   9.268  2.1033 -1.1465 -0.0278
 1004MOL0     H35519   9.759   6.805   9.187 -1.5504 -0.4616  3.1366
 1004MOL0     H35520   9.987   7.488   9.854 -1.7445  3.5597  0.9424
 1004MOL0     H35521  10.029   7.539  10.075  0.5229 -0.7562 -1.9556
 1004MOL0     H35522   9.804   7.704  10.476  0.6019 -0.4904  0.9891
 1004MOL0     H35523   9.917   7.864  10.614  1.5522  0.4706 -0.8792
 1004MOL0     H35524  10.285   9.335  10.330 -1.1176  1.6383 -1.3543
 1004MOL0     H35525  10.397   9.553  10.249 -0.8138 -2.5500 -0.6765
 1004MOL0     H35526  10.585   9.914  10.232  2.3923 -1.8466 -1.2993
 1004MOL0     H35527  10.748  10.077  10.143 -2.0949 -2.1646 -1.3240
 1004MOL0     H35528  10.844  10.353  10.484 -0.8235  2.5855 -0.1850
 1004MOL0     H35529  10.916  10.448  10.356  0.9751 -0.4885  1.6918
 1004MOL0     H35530  11.122  10.314  10.351  2.1154 -2.0561  1.3146
 1004MOL0     H35531  11.061  10.220  10.480 -1.7097  1.5617  2.1837
 1004MOL0     H35532  11.188  10.356  10.591  0.5314 -0.2167 -1.0429
 1004MOL0     H35533  11.027  10.438  10.616 -0.4396 -0.7738  0.8606
 1004MOL0     H35534  11.077  10.592  10.432 -0.6647 -1.7918  0.2759
 1004MOL0     H35535  11.168  10.623  10.573  1.4800  1.0005 -0.5425
 1004MOL0     H35536  11.452  10.486  10.274  1.4908 -0.6336  1.9491
 1004MOL0     H35537  10.846  10.155  10.556 -1.2969  0.2013  1.4860
 1004MOL0     H35538  10.780  10.051  10.726  1.1961  1.6910 -3.0736
 1004MOL0     H35539  10.624   9.988  10.729 -0.4461 -4.0325  0.3694
 1004MOL0     H35540  10.754   9.876  10.709  0.0668 -0.8661 -1.5759
 1005MOL0     O35541   9.800   5.466   5.498 -0.5362  0.1641  0.1798
 1005MOL0     C35542   9.744   5.377   5.435  0.0275 -0.4053  0.0728
 1005MOL0     O35543   9.684   5.394   5.318  0.0429  0.2008 -0.0595
 1005MOL0     C35544   9.651   5.525   5.278  0.3679  0.3164 -0.7665
 1005MOL0     C35545   9.575   5.604   5.360  0.3660 -0.0444 -0.3539
 1005MOL0     C35546   9.520   5.729   5.321  0.2171  0.0421  0.3066
 1005MOL0     C35547   9.536   5.772   5.187 -0.2646  0.7537 -0.6982
 1005MOL0     O35548   9.476   5.884   5.135 -0.3473  0.3837  0.1516
 1005MOL0     C35549   9.336   5.890   5.155  0.3175 -0.7250  0.0871
 1005MOL0     C35550   9.260   5.998   5.073 -0.8717 -0.1337  0.2779
 1005MOL0     C35551   9.251   5.975   4.922  0.3476  0.5931 -0.7616
 1005MOL0     C35552   9.140   6.070   4.871 -0.6839  0.0977  0.3029
 1005MOL0     C35553   9.114   6.081   4.721 -0.0159 -0.5090 -0.2476
 1005MOL0     C35554   9.036   5.959   4.669 -0.8482  0.2009 -0.7378
 1005MOL0     C35555   8.993   5.970   4.524 -0.3318  0.4007  1.3145
 1005MOL0     C35556   8.896   5.853   4.485 -0.1537 -0.4646  0.0112
 1005MOL0     N35557   8.866   5.854   4.342 -0.2317  0.1974  0.0377
 1005MOL0     C35558   8.892   5.757   4.247 -0.0657 -0.9546 -0.5685
 1005MOL0     C35559   8.840   5.798   4.132 -0.2873  0.3974 -0.2502
 1005MOL0     C35560   8.848   5.715   4.003  0.1339  0.1550 -0.1413
 1005MOL0     C35561   8.981   5.739   3.920 -0.4898 -0.2004 -0.4229
 1005MOL0     C35562   9.028   5.884   3.896 -0.7670 -0.0508 -0.5499
 1005MOL0     C35563   8.911   5.958   3.826  0.4926  0.2613 -0.7433
 1005MOL0     O35564   8.877   5.891   3.698  0.0623  0.2098 -1.0259
 1005MOL0     C35565   8.754   5.932   3.637  0.1353 -0.1961  0.6673
 1005MOL0     C35566   8.681   6.051   3.675  0.8795 -0.7769 -0.8519
 1005MOL0     C35567   8.574   6.105   3.600 -0.3515  0.1552  0.7396
 1005MOL0     C35568   8.535   6.044   3.483 -0.0375 -1.2150 -0.9657
 1005MOL0     C35569   8.431   6.103   3.406 -0.4388  0.3450 -0.2376
 1005MOL0     O35570   8.339   6.192   3.459  0.1475 -0.8593 -0.5654
 1005MOL0     C35571   8.258   6.279   3.381 -0.3701  0.7443 -0.8158
 1005MOL0     C35572   8.296   6.322   3.254  0.2084 -1.1190 -0.4485
 1005MOL0     C35573   8.219   6.408   3.176 -0.4534  0.5983 -0.0077
 1005MOL0     C35574   8.103   6.455   3.226  0.6003 -0.1637 -0.6048
 1005MOL0     O35575   8.017   6.538   3.158  0.3161  0.3931 -1.2534
 1005MOL0     C35576   8.047   6.549   3.019 -1.0744  0.0356  0.2763
 1005MOL0     C35577   7.930   6.614   2.953  0.0784  0.9479 -0.1994
 1005MOL0     C35578   7.953   6.613   2.805  0.5914  0.8446  0.7932
 1005MOL0     C35579   7.853   6.722   2.757 -0.0166  1.0324 -0.2318
 1005MOL0     C35580   7.848   6.726   2.601 -0.8931 -0.6656  1.1682
 1005MOL0     C35581   7.747   6.830   2.554 -0.2000  0.0901 -0.0462
 1005MOL0     C35582   7.787   6.892   2.413 -0.2299 -0.3474  0.0102
 1005MOL0     C35583   7.816   6.801   2.295  0.2840  0.0063 -0.0939
 1005MOL0    Cl35584   7.980   6.738   2.290  0.2965  0.1660  0.3740
 1005MOL0     C35585   8.066   6.414   3.357  0.9473  0.0784 -0.1835
 1005MOL0     C35586   8.139   6.320   3.437 -0.4678 -0.3105 -0.0427
 1005MOL0     O35587   8.423   6.063   3.286 -0.1261  0.4990  0.0052
 1005MOL0     C35588   8.603   5.931   3.436 -0.3051 -0.3885 -0.3957
 1005MOL0     C35589   8.707   5.872   3.517  0.1768 -1.2366 -0.1942
 1005MOL0     N35590   8.769   5.920   4.154 -0.0429 -0.4508  0.3565
 1005MOL0     N35591   8.798   5.955   4.283 -1.5742  0.2623 -0.3206
 1005MOL0     C35592   9.602   5.689   5.098 -0.8155  0.0923 -0.0089
 1005MOL0     C35593   9.659   5.566   5.142  0.1859 -0.4656 -0.3093
 1005MOL0     C35594   9.733   5.242   5.500  0.6699  0.3146 -0.0349
 1005MOL0     C35595   9.737   5.125   5.416  0.1700  0.2826 -0.7593
 1005MOL0     C35596   9.756   4.999   5.469  0.8583  0.0126 -0.4095
 1005MOL0     C35597   9.769   4.984   5.606 -0.3008  0.4236  0.5335
 1005MOL0     O35598   9.792   4.861   5.673 -0.0517  0.2164  0.7275
 1005MOL0     C35599   9.786   4.741   5.602  0.2777  1.8523 -0.0533
 1005MOL0     C35600   9.836   4.624   5.690 -0.0345 -0.1351  0.2231
 1005MOL0     C35601   9.970   4.647   5.771 -0.2241 -0.3868  0.4298
 1005MOL0     C35602   9.958   4.594   5.929 -0.2152  0.0465  0.4983
 1005MOL0     C35603   9.934   4.449   5.930 -0.4161  0.0952  0.8603
 1005MOL0     C35604   9.945   4.331   5.898 -0.2462  0.0737 -1.1777
 1005MOL0     C35605   9.761   5.100   5.691 -0.5076 -0.3352  0.0731
 1005MOL0     C35606   9.741   5.228   5.640  0.4521 -0.2736 -0.0675
 1005MOL0     C35607   9.726   5.340   5.749 -0.6033 -0.3286 -0.1815
 1005MOL0     H35608   9.548   5.563   5.456 -0.6910 -1.0962 -1.0750
 1005MOL0     H35609   9.464   5.790   5.392  2.3816  1.4532  0.9047
 1005MOL0     H35610   9.284   5.798   5.129  3.1959 -2.3783 -0.1662
 1005MOL0     H35611   9.315   5.909   5.261  3.1352 -0.5983  0.7129
 1005MOL0     H35612   9.309   6.091   5.103  1.5087 -0.7943 -1.2235
 1005MOL0     H35613   9.161   6.018   5.114 -0.1122 -1.1872  2.8612
 1005MOL0     H35614   9.236   5.871   4.894 -0.5753  0.9091 -1.4983
 1005MOL0     H35615   9.347   6.014   4.887  0.7793  1.4455  1.2341
 1005MOL0     H35616   9.046   6.029   4.910 -1.9662  1.5823 -1.0988
 1005MOL0     H35617   9.159   6.166   4.920  0.6337 -0.8671  1.7780
 1005MOL0     H35618   9.065   6.176   4.701 -0.6458  0.2531  4.0353
 1005MOL0     H35619   9.210   6.078   4.668  0.4951 -1.1890  0.6820
 1005MOL0     H35620   9.084   5.868   4.705 -0.3520  1.1384  1.0508
 1005MOL0     H35621   8.945   5.961   4.729 -1.8292 -0.5168 -2.1363
 1005MOL0     H35622   9.076   5.966   4.453 -0.7811 -2.1000  0.8312
 1005MOL0     H35623   8.928   6.055   4.499 -0.5281 -0.3489 -0.9944
 1005MOL0     H35624   8.919   5.753   4.522 -4.4909 -1.3312  0.9420
 1005MOL0     H35625   8.795   5.868   4.523 -0.5638 -2.3825 -0.2246
 1005MOL0     H35626   8.936   5.661   4.274 -0.6867 -0.9785  0.4051
 1005MOL0     H35627   8.830   5.609   4.025  0.0117 -0.0810 -1.3311
 1005MOL0     H35628   8.756   5.745   3.952 -1.3868  0.1734  2.4246
 1005MOL0     H35629   9.066   5.686   3.964  0.0927 -1.6515 -3.0317
 1005MOL0     H35630   8.962   5.704   3.818  2.7804  2.2638 -2.0653
 1005MOL0     H35631   9.121   5.886   3.837  0.6330  0.7152  1.5752
 1005MOL0     H35632   9.042   5.934   3.992 -2.1878  2.3277 -1.5040
 1005MOL0     H35633   8.945   6.059   3.801 -1.6645  0.6857 -2.2718
 1005MOL0     H35634   8.825   5.964   3.894 -0.3467  0.1298 -1.7628
 1005MOL0     H35635   8.706   6.122   3.754 -3.7935  1.0418 -0.7101
 1005MOL0     H35636   8.526   6.198   3.629  0.6015  1.3652 -1.2588
 1005MOL0     H35637   8.392   6.296   3.209  0.2507 -0.0477 -1.0143
 1005MOL0     H35638   8.253   6.431   3.076 -1.8801 -3.2422 -1.5372
 1005MOL0     H35639   8.147   6.593   3.014 -0.9587 -0.1991  0.4459
 1005MOL0     H35640   8.067   6.456   2.965  1.1197  0.5115  0.1510
 1005MOL0     H35641   7.847   6.547   2.977  1.2898  0.3726  2.8458
 1005MOL0     H35642   7.911   6.714   2.994 -3.6260  0.3373 -0.0089
 1005MOL0     H35643   8.059   6.631   2.786  1.0238 -1.8408  0.2643
 1005MOL0     H35644   7.943   6.515   2.758  1.4495  1.7639 -1.4213
 1005MOL0     H35645   7.885   6.823   2.785  0.4948  1.1574 -1.1968
 1005MOL0     H35646   7.751   6.698   2.789 -0.3892 -0.7679 -2.4956
 1005MOL0     H35647   7.823   6.631   2.553  1.1062  0.0953 -1.5993
 1005MOL0     H35648   7.953   6.747   2.579 -0.7988 -2.0184  0.2068
 1005MOL0     H35649   7.654   6.774   2.541  0.8919 -2.4021  1.9476
 1005MOL0     H35650   7.741   6.902   2.637 -0.9425 -1.4574  1.3083
 1005MOL0     H35651   7.869   6.962   2.434  3.2242 -3.6025 -1.4903
 1005MOL0     H35652   7.696   6.948   2.389  0.6969  1.2508  0.0818
 1005MOL0     H35653   7.734   6.729   2.294 -1.1999  1.6138 -1.7002
 1005MOL0     H35654   7.800   6.862   2.206 -0.0429  0.2002  0.0958
 1005MOL0     H35655   7.974   6.448   3.404 -0.6487  0.4969 -3.3497
 1005MOL0     H35656   8.104   6.295   3.537 -0.1685  0.6736  0.3256
 1005MOL0     H35657   8.583   5.885   3.339  1.3104  0.9266 -1.4056
 1005MOL0     H35658   8.769   5.790   3.482 -1.1346 -1.6272 -1.7055
 1005MOL0     H35659   9.624   5.740   5.005  3.2310 -0.6860  0.3336
 1005MOL0     H35660   9.726   5.511   5.076  4.2369  1.6665  1.6412
 1005MOL0     H35661   9.731   5.124   5.307  2.1839 -2.2367 -0.9471
 1005MOL0     H35662   9.773   4.913   5.404 -2.0537 -1.3568  0.4373
 1005MOL0     H35663   9.848   4.743   5.512  0.6364 -0.6021  0.0876
 1005MOL0     H35664   9.683   4.722   5.569  0.6301  2.3005 -1.4819
 1005MOL0     H35665   9.829   4.525   5.642 -2.1317 -0.4423  1.0302
 1005MOL0     H35666   9.751   4.615   5.760  0.4004  0.3455  0.8195
 1005MOL0     H35667  10.002   4.752   5.777 -1.0392 -0.0482 -0.7239
 1005MOL0     H35668  10.048   4.587   5.724  2.1826  1.6110  1.6110
 1005MOL0     H35669  10.047   4.624   5.984  1.6153  0.1699 -2.3374
 1005MOL0     H35670   9.880   4.649   5.982  1.7146  1.8534  1.6101
 1005MOL0     H35671   9.959   4.226   5.878  0.4279 -0.2899  0.9890
 1005MOL0     H35672   9.776   5.089   5.798  1.5508 -0.5780 -0.1993
 1005MOL0     H35673   9.684   5.434   5.711  3.6749  2.9116  2.1867
 1005MOL0     H35674   9.676   5.294   5.834  2.4025 -1.5323  1.0723
 1005MOL0     H35675   9.824   5.377   5.779 -1.1385  0.7699  0.3040
 1006MOL0     O35676   8.593  11.019   4.843 -0.4287 -1.0401  0.7281
 1006MOL0     C35677   8.661  11.111   4.790  0.0116  0.5045 -0.4154
 1006MOL0     O35678   8.705  11.118   4.652  0.0743  0.3081 -0.8481
 1006MOL0     C35679   8.706  11.002   4.576 -0.4667  0.2714  0.0241
 1006MOL0     C35680   8.593  10.910   4.584  0.3199 -0.5643 -0.3019
 1006MOL0     C35681   8.592  10.783   4.528 -0.3576 -0.0780  1.0740
 1006MOL0     C35682   8.707  10.743   4.449 -0.2528 -0.5738 -0.2270
 1006MOL0     O35683   8.717  10.620   4.384  0.0678  0.4200 -0.1187
 1006MOL0     C35684   8.620  10.519   4.413 -0.7840  0.2970 -0.5005
 1006MOL0     C35685   8.676  10.392   4.358 -0.1654  0.2092  0.2155
 1006MOL0     C35686   8.596  10.262   4.378 -0.1146 -0.1577 -0.3954
 1006MOL0     C35687   8.533  10.224   4.514  0.1756  0.0214 -0.3790
 1006MOL0     C35688   8.491  10.076   4.519 -0.2147  0.0275 -1.1257
 1006MOL0     C35689   8.344  10.066   4.463  0.1637  0.7716 -0.6778
 1006MOL0     C35690   8.316   9.910   4.435 -0.1610 -0.4058  0.8201
 1006MOL0     C35691   8.341   9.871   4.292  0.9582 -0.6698 -0.5551
 1006MOL0     N35692   8.282   9.748   4.245  0.2014  0.0415  0.1305
 1006MOL0     C35693   8.332   9.673   4.142 -0.2328  0.2461 -0.1876
 1006MOL0     C35694   8.253   9.567   4.121 -0.3442  0.4353 -1.2147
 1006MOL0     C35695   8.264   9.457   4.018 -0.2607  0.0019 -0.6399
 1006MOL0     C35696   8.239   9.512   3.873 -0.4496 -0.2914  0.2717
 1006MOL0     C35697   8.087   9.526   3.844  0.3252 -1.1055 -0.7295
 1006MOL0     C35698   8.013   9.391   3.857 -0.0145 -1.0807 -0.3186
 1006MOL0     O35699   7.867   9.398   3.823 -0.0025 -0.0262  0.1301
 1006MOL0     C35700   7.777   9.419   3.928  0.5050 -0.0422 -0.0331
 1006MOL0     C35701   7.643   9.383   3.911  0.2309 -0.4045  0.4500
 1006MOL0     C35702   7.546   9.399   4.010 -0.2808  0.2332  0.4249
 1006MOL0     C35703   7.576   9.477   4.125  0.0102  0.2104 -0.1232
 1006MOL0     C35704   7.476   9.503   4.227 -0.7330 -0.4930  0.2062
 1006MOL0     O35705   7.347   9.489   4.198 -0.0400  0.1160 -0.2268
 1006MOL0     C35706   7.255   9.488   4.304  0.1074 -0.4710  1.0926
 1006MOL0     C35707   7.224   9.366   4.367 -0.0811  0.1380 -0.0531
 1006MOL0     C35708   7.151   9.367   4.488 -0.3883  0.5737 -0.1147
 1006MOL0     C35709   7.091   9.483   4.528 -1.1255 -0.1480  0.1098
 1006MOL0     O35710   7.010   9.507   4.637  0.1250 -0.0807  0.1394
 1006MOL0     C35711   7.016   9.412   4.743 -0.1121  0.8129 -0.6913
 1006MOL0     C35712   6.927   9.462   4.861 -0.7129 -0.1602 -0.5560
 1006MOL0     C35713   6.904   9.351   4.965  0.0748  0.0291 -0.9068
 1006MOL0     C35714   6.829   9.398   5.095  0.6778 -0.2670  1.0790
 1006MOL0     C35715   6.786   9.286   5.191  0.2897 -0.1576 -0.7449
 1006MOL0     C35716   6.707   9.335   5.315  0.7610 -0.3410  0.0638
 1006MOL0     C35717   6.567   9.395   5.271  0.3364  0.8302  0.0559
 1006MOL0     C35718   6.548   9.541   5.319  0.4259 -0.2822  0.3725
 1006MOL0    Cl35719   6.385   9.587   5.256  0.4662  0.1179 -0.3440
 1006MOL0     C35720   7.125   9.603   4.471 -0.9021 -0.2453  0.0006
 1006MOL0     C35721   7.201   9.605   4.359 -0.4511 -0.2099 -0.3857
 1006MOL0     O35722   7.515   9.552   4.331 -0.0133  0.5028  1.1205
 1006MOL0     C35723   7.710   9.515   4.145  0.1357 -0.6570  0.0573
 1006MOL0     C35724   7.807   9.482   4.048  0.0301 -1.1534  0.2290
 1006MOL0     N35725   8.147   9.569   4.211  0.5943 -0.5511 -0.2387
 1006MOL0     N35726   8.170   9.681   4.285 -0.2471  0.4847 -0.8031
 1006MOL0     C35727   8.810  10.831   4.440  0.4233 -0.2100 -0.5210
 1006MOL0     C35728   8.820  10.955   4.510 -0.1901 -0.5608 -0.4644
 1006MOL0     C35729   8.693  11.234   4.885 -1.0841  0.5702  0.3495
 1006MOL0     C35730   8.599  11.263   4.975 -1.1814 -0.0644  0.7426
 1006MOL0     C35731   8.615  11.383   5.048 -0.0177 -0.2802  0.6740
 1006MOL0     C35732   8.725  11.463   5.041 -0.4157  0.0923  0.3909
 1006MOL0     O35733   8.720  11.574   5.119  0.4100 -0.5332  0.4017
 1006MOL0     C35734   8.841  11.652   5.129 -0.6244  0.0519  0.4256
 1006MOL0     C35735   8.820  11.778   5.204 -0.3119 -0.8935  0.1332
 1006MOL0     C35736   8.711  11.868   5.136  0.3072 -1.1270  0.4400
 1006MOL0     C35737   8.707  12.014   5.195 -0.5585  0.6109  0.0333
 1006MOL0     C35738   8.654  11.996   5.337 -0.2798 -0.0220 -0.3264
 1006MOL0     C35739   8.603  11.973   5.446  0.1070 -0.2197 -0.3315
 1006MOL0     C35740   8.826  11.431   4.951  0.3158 -0.2075  0.5488
 1006MOL0     C35741   8.815  11.313   4.875 -0.4787  0.3262 -0.5445
 1006MOL0     C35742   8.931  11.274   4.781 -0.4895  1.3696  0.4631
 1006MOL0     H35743   8.494  10.935   4.620  0.2439 -0.7190 -0.4075
 1006MOL0     H35744   8.506  10.718   4.537 -0.6820  0.1326 -0.2923
 1006MOL0     H35745   8.606  10.510   4.521  0.7767 -0.4860 -0.3392
 1006MOL0     H35746   8.522  10.531   4.365 -1.3136  3.2969  1.1287
 1006MOL0     H35747   8.772  10.376   4.407 -0.8741 -0.7176  1.3816
 1006MOL0     H35748   8.695  10.402   4.251  1.4179  0.1257  0.4770
 1006MOL0     H35749   8.666  10.185   4.346  1.4813  0.8858  0.4306
 1006MOL0     H35750   8.505  10.275   4.318  0.0886  1.5982 -0.3842
 1006MOL0     H35751   8.608  10.222   4.594 -0.8397 -3.0039  0.6735
 1006MOL0     H35752   8.452  10.294   4.535  2.0769  2.7590 -1.6828
 1006MOL0     H35753   8.549  10.005   4.458 -0.8315 -0.7087 -0.8760
 1006MOL0     H35754   8.499  10.035   4.620 -3.4907 -0.2316 -0.8583
 1006MOL0     H35755   8.277  10.107   4.539 -1.5060 -0.8185 -1.2360
 1006MOL0     H35756   8.329  10.125   4.373 -0.1594  2.9670  0.7332
 1006MOL0     H35757   8.217   9.880   4.469 -0.3682  0.2257  0.7992
 1006MOL0     H35758   8.375   9.844   4.499  2.3574  4.4072  4.1089
 1006MOL0     H35759   8.290   9.943   4.227 -1.2569  0.9496  2.7344
 1006MOL0     H35760   8.446   9.875   4.260  1.1687 -1.8786 -0.0693
 1006MOL0     H35761   8.417   9.706   4.083 -0.5034  1.6279  0.1593
 1006MOL0     H35762   8.366   9.419   4.027  0.2778  1.8000  2.1136
 1006MOL0     H35763   8.214   9.366   4.053  4.2654 -2.8408 -0.7366
 1006MOL0     H35764   8.284   9.611   3.864  1.0644 -0.5671  3.5711
 1006MOL0     H35765   8.284   9.438   3.806 -2.3856 -0.0323 -1.3954
 1006MOL0     H35766   8.074   9.571   3.745  1.2228 -0.5990 -0.6221
 1006MOL0     H35767   8.039   9.596   3.912 -2.0956 -3.0796 -0.2498
 1006MOL0     H35768   8.027   9.349   3.957 -1.9728  0.0450  0.4923
 1006MOL0     H35769   8.067   9.330   3.785  1.0637 -0.7122  0.1495
 1006MOL0     H35770   7.612   9.317   3.831 -3.5070 -1.0683  2.2571
 1006MOL0     H35771   7.446   9.359   3.996  0.6539 -1.3621 -2.8117
 1006MOL0     H35772   7.270   9.276   4.330  0.8962  1.3999 -2.1003
 1006MOL0     H35773   7.130   9.275   4.541  0.0638  0.6724  0.2451
 1006MOL0     H35774   6.980   9.313   4.712  0.1574  0.2823  0.6092
 1006MOL0     H35775   7.120   9.399   4.774 -0.3130  0.0232 -0.3172
 1006MOL0     H35776   6.976   9.548   4.907 -1.0317 -1.2511  1.9463
 1006MOL0     H35777   6.833   9.493   4.814 -0.0207  1.5016 -0.9345
 1006MOL0     H35778   6.855   9.266   4.917  1.1167 -0.1010 -1.7755
 1006MOL0     H35779   6.996   9.315   5.012  0.4745  1.3102 -0.6715
 1006MOL0     H35780   6.740   9.454   5.066  2.0253  2.2177  1.4748
 1006MOL0     H35781   6.896   9.471   5.141 -0.5621  2.8046 -1.6448
 1006MOL0     H35782   6.870   9.227   5.229 -0.7931 -0.0929  2.0168
 1006MOL0     H35783   6.725   9.217   5.133  1.1640 -0.5797 -1.1799
 1006MOL0     H35784   6.691   9.249   5.380  1.7824 -0.1985  0.5169
 1006MOL0     H35785   6.756   9.416   5.370 -3.3883  0.8033  2.5822
 1006MOL0     H35786   6.483   9.336   5.308  0.7237  1.0766  1.3642
 1006MOL0     H35787   6.550   9.384   5.163 -3.4742  1.2201  0.4975
 1006MOL0     H35788   6.551   9.563   5.426  3.4398  0.1128  0.2831
 1006MOL0     H35789   6.629   9.602   5.279  1.1887 -1.2210  0.4471
 1006MOL0     H35790   7.076   9.688   4.516  0.2273  0.4125  0.0188
 1006MOL0     H35791   7.217   9.705   4.320 -1.9336  0.6570  1.1008
 1006MOL0     H35792   7.744   9.565   4.235  1.8044  0.4835 -1.1605
 1006MOL0     H35793   7.904   9.520   4.076 -1.8303  2.7437  2.0449
 1006MOL0     H35794   8.903  10.812   4.387  2.2338  1.3978  1.8750
 1006MOL0     H35795   8.908  11.015   4.494  0.7864 -1.5109  1.1342
 1006MOL0     H35796   8.502  11.216   4.967 -1.8047  0.1567  4.7083
 1006MOL0     H35797   8.539  11.414   5.119 -1.4013 -0.3457 -0.7400
 1006MOL0     H35798   8.880  11.682   5.032  0.0773 -0.9770  0.3783
 1006MOL0     H35799   8.917  11.588   5.176  0.0059  0.7951  0.4211
 1006MOL0     H35800   8.913  11.834   5.191 -1.0922  0.3465 -0.3440
 1006MOL0     H35801   8.792  11.753   5.307 -1.7372  1.6185  0.4544
 1006MOL0     H35802   8.614  11.820   5.124 -1.2590  1.5124  1.5841
 1006MOL0     H35803   8.747  11.879   5.034  0.8629 -3.1851  0.3612
 1006MOL0     H35804   8.804  12.064   5.195  0.9100 -2.0227  1.1210
 1006MOL0     H35805   8.636  12.073   5.136 -2.7270 -0.9037  0.9706
 1006MOL0     H35806   8.564  11.970   5.546 -1.9283 -0.7933 -1.0947
 1006MOL0     H35807   8.922  11.483   4.948 -0.1742  0.8801  2.1361
 1006MOL0     H35808   8.898  11.224   4.689  0.8091  0.7991  0.2834
 1006MOL0     H35809   8.985  11.362   4.746  0.8519  0.3431 -0.1381
 1006MOL0     H35810   9.006  11.210   4.829  1.3379  1.8654 -1.5518
 1007MOL0     O35811   2.125   9.893   9.367 -0.3857  1.1147 -0.0019
 1007MOL0     C35812   2.195   9.966   9.302  0.1432 -0.5311  0.0999
 1007MOL0     O35813   2.246  10.087   9.343 -0.1885  0.1273  0.0409
 1007MOL0     C35814   2.148  10.145   9.420  0.0111 -0.4406  0.2528
 1007MOL0     C35815   2.159  10.174   9.561  0.1291 -0.4187  0.0951
 1007MOL0     C35816   2.053  10.236   9.637  0.2624  0.7672 -0.1965
 1007MOL0     C35817   1.940  10.271   9.569 -0.2209  0.2639  0.6266
 1007MOL0     O35818   1.834  10.303   9.646  0.9073  0.0072 -0.3484
 1007MOL0     C35819   1.772  10.202   9.722 -0.5505  0.6228  0.1047
 1007MOL0     C35820   1.633  10.185   9.676  0.1217  0.0948  1.5338
 1007MOL0     C35821   1.542  10.297   9.719 -0.0484  0.0272 -0.5758
 1007MOL0     C35822   1.490  10.384   9.605 -0.2418  0.6673 -0.3217
 1007MOL0     C35823   1.443  10.525   9.630 -1.0090  0.5554 -0.5031
 1007MOL0     C35824   1.323  10.542   9.729  0.7536  0.6145 -0.0133
 1007MOL0     C35825   1.314  10.685   9.775  0.2648  0.3661  0.0145
 1007MOL0     C35826   1.313  10.798   9.670  0.4141  0.1732  1.0098
 1007MOL0     N35827   1.201  10.798   9.581  0.6803  0.9343  0.2525
 1007MOL0     C35828   1.076  10.815   9.635 -0.0155  0.4610 -0.3335
 1007MOL0     C35829   0.991  10.802   9.531  0.2492 -0.0946 -0.3435
 1007MOL0     C35830   0.847  10.803   9.540 -0.3313  1.0503  0.0356
 1007MOL0     C35831   0.784  10.704   9.438 -0.3579  0.4905  0.3310
 1007MOL0     C35832   0.833  10.558   9.458  0.4478  0.7850 -0.5482
 1007MOL0     C35833   0.793  10.475   9.336  0.3880  0.5651  0.1861
 1007MOL0     O35834   0.768  10.344   9.377 -0.3465 -0.6385  0.4444
 1007MOL0     C35835   0.871  10.261   9.372 -0.1256 -0.2751  1.4297
 1007MOL0     C35836   1.003  10.296   9.375 -0.4296  0.3032  0.7098
 1007MOL0     C35837   1.106  10.202   9.390  0.1861 -0.1439  0.1808
 1007MOL0     C35838   1.074  10.061   9.394 -0.9532 -0.3313  0.4826
 1007MOL0     C35839   1.181   9.962   9.408  0.4858  1.2474  0.7340
 1007MOL0     O35840   1.302  10.002   9.369  0.4743 -0.3449  0.1885
 1007MOL0     C35841   1.401   9.913   9.335 -0.4556 -0.8578 -0.1482
 1007MOL0     C35842   1.525   9.927   9.402 -0.6049  0.3948 -0.7394
 1007MOL0     C35843   1.629   9.832   9.381  0.4032 -0.5403 -0.0992
 1007MOL0     C35844   1.608   9.719   9.303 -0.0322  0.4487  0.4819
 1007MOL0     O35845   1.692   9.619   9.274  0.2547 -0.7087  0.1451
 1007MOL0     C35846   1.785   9.582   9.370 -0.1893 -0.5421  0.1718
 1007MOL0     C35847   1.819   9.438   9.343 -0.2118 -0.1948 -0.2194
 1007MOL0     C35848   1.873   9.426   9.194  0.1800 -0.1839  0.1305
 1007MOL0     C35849   1.896   9.275   9.156 -0.6601  0.3920 -0.6452
 1007MOL0     C35850   1.939   9.250   9.010 -0.2332  0.6092  0.0794
 1007MOL0     C35851   2.055   9.336   8.968  0.5683  0.4057  0.3609
 1007MOL0     C35852   2.109   9.300   8.831 -0.2967 -0.5570 -0.7069
 1007MOL0     C35853   2.218   9.398   8.793  0.4547 -1.1392 -0.5834
 1007MOL0    Cl35854   2.283   9.345   8.647 -0.2253  0.3723 -0.0356
 1007MOL0     C35855   1.486   9.713   9.229 -0.4076 -0.0971 -0.6451
 1007MOL0     C35856   1.386   9.804   9.256 -0.1575  0.3238 -0.6009
 1007MOL0     O35857   1.150   9.849   9.436 -0.0845  0.9360 -0.4701
 1007MOL0     C35858   0.942  10.027   9.380 -0.2168  0.7580 -0.0817
 1007MOL0     C35859   0.842  10.119   9.375 -0.5892 -0.9044  0.2099
 1007MOL0     N35860   1.079  10.795   9.426  0.0124  0.0805  0.4853
 1007MOL0     N35861   1.203  10.774   9.451 -0.3455  0.0222 -0.4302
 1007MOL0     C35862   1.926  10.263   9.431  0.0934  0.3768 -0.9758
 1007MOL0     C35863   2.036  10.212   9.354  0.0435  0.0102 -0.1437
 1007MOL0     C35864   2.248   9.914   9.185 -0.7899 -0.3176  0.0417
 1007MOL0     C35865   2.390   9.916   9.168 -0.2409 -0.0683  0.3686
 1007MOL0     C35866   2.439   9.866   9.048 -1.0773  0.4082 -0.0960
 1007MOL0     C35867   2.364   9.807   8.952 -0.2693 -1.0303 -0.4401
 1007MOL0     O35868   2.414   9.735   8.841  0.7651 -0.3969  0.2688
 1007MOL0     C35869   2.546   9.749   8.789 -0.2843 -0.5280  1.0992
 1007MOL0     C35870   2.576   9.890   8.728  0.5402  0.3206  0.3587
 1007MOL0     C35871   2.711   9.892   8.659 -0.1894  0.2232  1.1191
 1007MOL0     C35872   2.829   9.879   8.756  0.7916  0.5594  0.2215
 1007MOL0     C35873   2.895  10.005   8.744  0.3347 -0.0071  0.7494
 1007MOL0     C35874   2.950  10.113   8.744 -0.6357  0.1153 -0.1946
 1007MOL0     C35875   2.225   9.800   8.968 -0.9512  0.9636  0.1743
 1007MOL0     C35876   2.166   9.851   9.082  0.0388 -0.2104 -0.5805
 1007MOL0     C35877   2.011   9.841   9.082 -0.9177 -0.7799 -0.3011
 1007MOL0     H35878   2.245  10.138   9.617 -1.0754 -2.5743  0.6615
 1007MOL0     H35879   2.059  10.235   9.745 -1.6030  0.7433 -0.0723
 1007MOL0     H35880   1.825  10.107   9.708 -1.1789  0.1049  1.1369
 1007MOL0     H35881   1.762  10.214   9.830 -2.3364  1.3559 -0.1171
 1007MOL0     H35882   1.598  10.083   9.696 -2.6332  1.3200  3.5556
 1007MOL0     H35883   1.640  10.195   9.567  0.8795  1.2411  1.6769
 1007MOL0     H35884   1.602  10.357   9.790 -1.0840  1.4366 -0.8425
 1007MOL0     H35885   1.461  10.251   9.775  1.5093 -3.6855 -1.0856
 1007MOL0     H35886   1.577  10.399   9.541 -0.0136 -1.1015 -0.4827
 1007MOL0     H35887   1.416  10.326   9.548 -1.9630  1.6225  0.8422
 1007MOL0     H35888   1.530  10.579   9.670 -0.4526 -0.1524 -0.7346
 1007MOL0     H35889   1.398  10.556   9.536  2.9010  1.0792 -2.3966
 1007MOL0     H35890   1.231  10.513   9.678  1.3182  0.2167 -0.8413
 1007MOL0     H35891   1.349  10.466   9.802  4.0576 -2.1325 -3.5844
 1007MOL0     H35892   1.396  10.716   9.841  1.7019  3.1839 -2.7931
 1007MOL0     H35893   1.225  10.687   9.839  0.3165 -4.8007  0.6626
 1007MOL0     H35894   1.315  10.896   9.718  3.5201  0.3762  0.6771
 1007MOL0     H35895   1.408  10.794   9.616 -0.0451 -0.5921  0.2322
 1007MOL0     H35896   1.040  10.829   9.737  1.8844  0.3927  0.3927
 1007MOL0     H35897   0.822  10.769   9.641  2.6170 -1.5845  0.0272
 1007MOL0     H35898   0.812  10.905   9.518 -0.1691  0.9754 -0.6046
 1007MOL0     H35899   0.677  10.717   9.456 -0.4694 -0.6550  0.5662
 1007MOL0     H35900   0.810  10.735   9.336 -3.2019 -0.5314 -0.7918
 1007MOL0     H35901   0.795  10.509   9.548  2.1204  1.0812  0.3779
 1007MOL0     H35902   0.941  10.550   9.478  0.5905  0.2405 -1.5028
 1007MOL0     H35903   0.873  10.479   9.261  1.2081 -2.5807  0.7902
 1007MOL0     H35904   0.697  10.507   9.295 -0.2724 -0.0326  1.2526
 1007MOL0     H35905   1.037  10.399   9.373  2.0061 -0.4397 -0.3913
 1007MOL0     H35906   1.204  10.246   9.401 -0.9407  2.2940  1.3371
 1007MOL0     H35907   1.542  10.008   9.472  2.5563 -1.1019  0.4381
 1007MOL0     H35908   1.730   9.847   9.418  0.4903  0.9888 -0.8538
 1007MOL0     H35909   1.875   9.642   9.358 -1.0786  0.7055 -0.4917
 1007MOL0     H35910   1.751   9.595   9.473  0.7510 -0.5245  0.4915
 1007MOL0     H35911   1.900   9.413   9.412 -0.1558 -0.0386 -0.2269
 1007MOL0     H35912   1.735   9.368   9.349  0.2156 -0.8737 -1.6271
 1007MOL0     H35913   1.796   9.466   9.126  0.9540  1.2966  0.0940
 1007MOL0     H35914   1.966   9.482   9.186  0.7494 -0.9656  1.1263
 1007MOL0     H35915   1.804   9.217   9.170 -1.0131  0.3601 -2.7272
 1007MOL0     H35916   1.975   9.242   9.224 -0.1427  0.2731 -1.2917
 1007MOL0     H35917   1.858   9.285   8.945  2.3928  2.6611 -2.3558
 1007MOL0     H35918   1.958   9.144   8.992  1.1077  0.8269  0.0831
 1007MOL0     H35919   2.030   9.442   8.974  0.6354  0.5310 -1.2468
 1007MOL0     H35920   2.133   9.334   9.045  1.7160  1.8178 -0.7078
 1007MOL0     H35921   2.029   9.304   8.757 -0.9251 -1.0250 -0.0594
 1007MOL0     H35922   2.158   9.203   8.834 -0.4328 -0.6238 -0.6509
 1007MOL0     H35923   2.172   9.497   8.779 -2.5653 -2.6752 -2.5320
 1007MOL0     H35924   2.299   9.407   8.866  0.6529  3.2227 -1.0654
 1007MOL0     H35925   1.479   9.633   9.157  0.8883 -0.5566 -0.3029
 1007MOL0     H35926   1.289   9.798   9.207 -1.7126  3.1049  1.7785
 1007MOL0     H35927   0.931   9.919   9.376  3.1493  0.3290 -2.4212
 1007MOL0     H35928   0.745  10.073   9.390  0.4091 -2.5816  2.1874
 1007MOL0     H35929   1.833  10.304   9.393  0.0050  2.9934  1.7048
 1007MOL0     H35930   2.010  10.204   9.249 -0.3323 -1.2053  0.0302
 1007MOL0     H35931   2.464   9.947   9.242  1.5867 -1.8928 -0.5910
 1007MOL0     H35932   2.544   9.882   9.028 -0.9004  0.0250  0.5064
 1007MOL0     H35933   2.570   9.677   8.711  1.6482 -0.9766  2.0418
 1007MOL0     H35934   2.614   9.736   8.874  1.1551  0.8026  0.1834
 1007MOL0     H35935   2.574   9.974   8.798 -1.0783  0.4597  0.1947
 1007MOL0     H35936   2.497   9.920   8.658  0.1597  0.0675  0.6696
 1007MOL0     H35937   2.717   9.969   8.582  0.3262 -0.7554  0.1529
 1007MOL0     H35938   2.714   9.809   8.588 -1.3480  2.1510 -1.3536
 1007MOL0     H35939   2.810   9.843   8.858  3.1641 -0.0456  0.5217
 1007MOL0     H35940   2.899   9.799   8.731  1.5112  1.4517 -0.7192
 1007MOL0     H35941   2.992  10.208   8.718  1.2363 -0.4943  0.4300
 1007MOL0     H35942   2.161   9.752   8.895 -0.8540 -0.5083  1.0256
 1007MOL0     H35943   1.976   9.838   9.186 -0.2223  1.9788  0.0855
 1007MOL0     H35944   1.962   9.927   9.033  1.0266  0.2286 -0.5501
 1007MOL0     H35945   1.974   9.753   9.029 -1.6683  0.6578 -2.2974
 1008MOL0     O35946   5.228  10.795  10.676  0.1327 -0.9666 -0.5260
 1008MOL0     C35947   5.184  10.891  10.744 -0.3255 -0.2945  0.1656
 1008MOL0     O35948   5.252  10.957  10.837  0.1323  0.0023 -0.2301
 1008MOL0     C35949   5.372  10.903  10.869  0.0542  0.0636  0.4701
 1008MOL0     C35950   5.390  10.845  10.995  0.1851 -0.1480 -0.3146
 1008MOL0     C35951   5.516  10.786  11.024  0.0735  0.3840 -0.3989
 1008MOL0     C35952   5.624  10.779  10.931  0.2700  0.8169 -0.1444
 1008MOL0     O35953   5.750  10.729  10.947 -0.1520  0.3404  0.3566
 1008MOL0     C35954   5.756  10.592  11.003 -0.1896  0.4664 -1.2673
 1008MOL0     C35955   5.887  10.530  10.964 -0.3316 -0.2971 -0.1842
 1008MOL0     C35956   5.903  10.383  11.012  0.1225  0.8843  0.0889
 1008MOL0     C35957   6.005  10.297  10.928 -0.3339 -0.9523  0.3617
 1008MOL0     C35958   6.035  10.161  10.978  0.6157  0.3528 -0.4639
 1008MOL0     C35959   6.153  10.105  10.908 -1.2664 -0.8203  0.7332
 1008MOL0     C35960   6.195   9.967  10.949  0.0129  0.0054 -1.2014
 1008MOL0     C35961   6.347   9.938  10.936 -0.8180  0.6245  0.1353
 1008MOL0     N35962   6.377   9.904  10.792  0.0069 -0.4512 -0.3412
 1008MOL0     C35963   6.386   9.995  10.689 -0.4088  0.3824  0.5302
 1008MOL0     C35964   6.440   9.922  10.589  0.5725 -0.3097  0.0072
 1008MOL0     C35965   6.483   9.991  10.451 -0.8485  0.0594 -0.3281
 1008MOL0     C35966   6.623  10.066  10.458 -0.0294 -0.9185  0.2211
 1008MOL0     C35967   6.658  10.136  10.322  1.1951  0.0421  0.8184
 1008MOL0     C35968   6.796  10.206  10.321 -0.3166  0.1922  0.6981
 1008MOL0     O35969   6.892  10.134  10.398  0.2814  0.3274  0.2914
 1008MOL0     C35970   6.997  10.201  10.455 -0.4843  0.0014  0.3647
 1008MOL0     C35971   7.093  10.109  10.515 -0.9643  0.4427  0.8879
 1008MOL0     C35972   7.205  10.148  10.585 -0.3258  0.0326 -1.1424
 1008MOL0     C35973   7.233  10.286  10.582 -0.9184  0.3968 -0.2349
 1008MOL0     C35974   7.354  10.347  10.647  0.1189 -0.7760 -0.6041
 1008MOL0     O35975   7.373  10.482  10.651 -0.1831 -0.9726  0.0324
 1008MOL0     C35976   7.494  10.539  10.680  0.2790 -0.5151  0.0128
 1008MOL0     C35977   7.502  10.651  10.767 -0.5561  0.1190 -0.7013
 1008MOL0     C35978   7.628  10.693  10.808  1.1219 -0.5036  0.5497
 1008MOL0     C35979   7.746  10.628  10.764 -0.4167  0.1413 -0.6726
 1008MOL0     O35980   7.865  10.678  10.816 -0.3374 -0.2917  0.8225
 1008MOL0     C35981   7.979  10.589  10.827  0.7876 -1.0996  0.1326
 1008MOL0     C35982   8.079  10.611  10.710 -0.8081 -0.6417 -0.3866
 1008MOL0     C35983   8.114  10.763  10.687  0.2655  0.3821 -0.5879
 1008MOL0     C35984   8.032  10.827  10.574 -0.5954 -0.5112  0.2416
 1008MOL0     C35985   8.090  10.811  10.431  0.7009  0.2383  1.0279
 1008MOL0     C35986   8.234  10.860  10.413 -0.1235  0.0331  0.5909
 1008MOL0     C35987   8.264  10.899  10.273 -0.1412  0.4819 -0.0574
 1008MOL0     C35988   8.411  10.944  10.260  0.1442  0.4624  0.5257
 1008MOL0    Cl35989   8.432  11.120  10.266 -0.0444  0.1397 -0.0817
 1008MOL0     C35990   7.748  10.537  10.663 -1.4707  0.2860 -0.6949
 1008MOL0     C35991   7.622  10.495  10.620  0.7537 -0.2301  0.1219
 1008MOL0     O35992   7.434  10.257  10.687 -0.1709 -0.1427 -0.3056
 1008MOL0     C35993   7.161  10.372  10.503 -0.0520  0.1946  0.6878
 1008MOL0     C35994   7.038  10.334  10.452  0.0137  0.1043  0.2194
 1008MOL0     N35995   6.457   9.789  10.623  0.8726 -0.3212  0.5847
 1008MOL0     N35996   6.424   9.785  10.745  0.4170 -0.2371 -0.4759
 1008MOL0     C35997   5.607  10.856  10.820 -0.1508  0.4291  0.2411
 1008MOL0     C35998   5.482  10.914  10.785 -0.3256  0.7035  0.7312
 1008MOL0     C35999   5.048  10.939  10.715  0.5811  1.0280  0.1116
 1008MOL0     C36000   4.958  10.888  10.811  0.1654  1.0292 -0.1544
 1008MOL0     C36001   4.824  10.916  10.800 -0.2441 -1.1681 -0.5310
 1008MOL0     C36002   4.774  11.009  10.712  0.1089  0.7109 -0.5663
 1008MOL0     O36003   4.640  11.041  10.702 -0.0372  0.4413 -0.5112
 1008MOL0     C36004   4.607  11.177  10.741 -0.2024  0.1928 -0.9214
 1008MOL0     C36005   4.603  11.186  10.893 -0.2627 -0.7514 -0.5169
 1008MOL0     C36006   4.516  11.075  10.965  0.7520 -0.1574  0.1800
 1008MOL0     C36007   4.510  11.108  11.116  0.1414 -0.6112  1.0382
 1008MOL0     C36008   4.448  11.240  11.132  0.6153 -0.1410  0.1692
 1008MOL0     C36009   4.394  11.348  11.131 -0.2740 -1.2205 -0.3873
 1008MOL0     C36010   4.862  11.062  10.614  0.9070 -0.5378  0.1985
 1008MOL0     C36011   5.001  11.030  10.621  0.7621 -0.4433 -0.0564
 1008MOL0     C36012   5.091  11.074  10.508 -0.5597  0.7593  0.7806
 1008MOL0     H36013   5.320  10.845  11.078  1.3934  1.4125  0.7773
 1008MOL0     H36014   5.530  10.755  11.127  2.2878  0.7753 -0.5253
 1008MOL0     H36015   5.744  10.598  11.112  0.8131 -1.8720 -0.9577
 1008MOL0     H36016   5.672  10.539  10.955 -0.7388 -0.0437  0.1990
 1008MOL0     H36017   5.975  10.585  10.998  2.9642 -4.5916 -0.8888
 1008MOL0     H36018   5.892  10.536  10.855  2.0444 -1.5562 -0.2198
 1008MOL0     H36019   5.803  10.339  11.017  0.6482 -0.5250 -1.0240
 1008MOL0     H36020   5.934  10.389  11.117 -0.0408  1.4151  0.1088
 1008MOL0     H36021   5.969  10.284  10.825  1.8167  3.1593 -1.1276
 1008MOL0     H36022   6.092  10.362  10.919  0.4949 -1.6343  2.6345
 1008MOL0     H36023   6.040  10.170  11.087 -1.5993 -3.4618  0.1282
 1008MOL0     H36024   5.944  10.102  10.969  1.9770 -1.9064 -0.1651
 1008MOL0     H36025   6.148  10.106  10.799  1.4044 -0.4234  0.5474
 1008MOL0     H36026   6.239  10.169  10.930 -1.1377 -0.4825 -0.6562
 1008MOL0     H36027   6.135   9.888  10.904 -0.6438 -0.2667  0.0999
 1008MOL0     H36028   6.160   9.955  11.052 -0.7091  1.3253 -1.2743
 1008MOL0     H36029   6.404  10.030  10.955 -0.4911  0.4729 -0.0982
 1008MOL0     H36030   6.381   9.852  10.995 -0.9389 -2.5508 -3.9371
 1008MOL0     H36031   6.367  10.102  10.686 -1.3447  0.2188 -2.0886
 1008MOL0     H36032   6.499   9.915  10.373 -3.4546 -0.3134 -0.5727
 1008MOL0     H36033   6.408  10.063  10.417 -2.2965 -2.3186 -2.6113
 1008MOL0     H36034   6.619  10.136  10.542 -0.3698  0.1250 -0.6407
 1008MOL0     H36035   6.693   9.985  10.480  0.5828 -0.0322  1.6431
 1008MOL0     H36036   6.580  10.211  10.305  0.7684 -0.9165 -2.0848
 1008MOL0     H36037   6.655  10.072  10.233 -4.1011  0.7446  0.1656
 1008MOL0     H36038   6.786  10.307  10.363 -2.2539  0.5945 -0.5869
 1008MOL0     H36039   6.835  10.206  10.219 -0.8062 -4.7230  0.2891
 1008MOL0     H36040   7.065  10.006  10.497 -2.1654  1.3547 -3.9278
 1008MOL0     H36041   7.267  10.081  10.643 -0.5837  1.0138  0.3309
 1008MOL0     H36042   7.406  10.688  10.802 -0.3999 -0.5888  0.5145
 1008MOL0     H36043   7.625  10.765  10.890  1.1497  0.3004 -0.1413
 1008MOL0     H36044   8.035  10.604  10.919 -0.0648  0.2890  0.4427
 1008MOL0     H36045   7.953  10.483  10.837  0.5982 -1.2410 -1.5446
 1008MOL0     H36046   8.168  10.566  10.756  0.2071 -1.6250 -3.1050
 1008MOL0     H36047   8.041  10.562  10.620 -2.9226  0.1773  0.0211
 1008MOL0     H36048   8.082  10.814  10.779 -1.2757 -3.1677  1.0415
 1008MOL0     H36049   8.222  10.771  10.668  0.2250 -0.5766 -1.2803
 1008MOL0     H36050   8.033  10.935  10.588  1.7926 -0.3677 -0.5449
 1008MOL0     H36051   7.925  10.803  10.576 -0.7478  0.1602  0.3889
 1008MOL0     H36052   8.018  10.863  10.368 -0.8012 -1.2072  1.4986
 1008MOL0     H36053   8.087  10.708  10.394  1.1760 -0.2555  2.3016
 1008MOL0     H36054   8.244  10.949  10.475 -1.8600 -0.2341  1.3029
 1008MOL0     H36055   8.309  10.788  10.444 -0.5621 -0.6752  0.0465
 1008MOL0     H36056   8.196  10.978  10.240 -2.0163 -1.2978 -0.6506
 1008MOL0     H36057   8.251  10.814  10.205  1.6294  1.2022 -1.3743
 1008MOL0     H36058   8.455  10.898  10.349 -2.0359 -3.3725 -0.1437
 1008MOL0     H36059   8.459  10.901  10.171  0.0013 -0.3221  0.8206
 1008MOL0     H36060   7.838  10.506  10.611 -1.2127 -1.8894  0.9476
 1008MOL0     H36061   7.626  10.415  10.548  1.7980 -2.0881  2.1350
 1008MOL0     H36062   7.191  10.475  10.488 -2.7022  1.2763  2.1159
 1008MOL0     H36063   6.981  10.406  10.394  2.2252  1.5285 -0.2964
 1008MOL0     H36064   5.693  10.873  10.755 -0.1225  2.6747  0.7800
 1008MOL0     H36065   5.494  10.981  10.700  2.0437  0.3928  0.7340
 1008MOL0     H36066   4.993  10.809  10.875 -0.3638  2.4097  1.9469
 1008MOL0     H36067   4.755  10.869  10.869 -0.0246 -1.3778 -0.4540
 1008MOL0     H36068   4.504  11.206  10.718 -0.5563  0.0048  0.3571
 1008MOL0     H36069   4.671  11.256  10.700 -2.9210  2.5690 -0.8928
 1008MOL0     H36070   4.558  11.282  10.920 -0.5813 -1.3756  1.3482
 1008MOL0     H36071   4.704  11.191  10.935 -0.2692 -0.7439 -0.5015
 1008MOL0     H36072   4.568  10.981  10.946  0.5438 -0.3894  0.7357
 1008MOL0     H36073   4.414  11.075  10.925  0.9687 -2.1088 -0.4580
 1008MOL0     H36074   4.433  11.050  11.169 -1.8661  1.0822  0.1331
 1008MOL0     H36075   4.610  11.106  11.159 -0.3650  0.3296  2.3107
 1008MOL0     H36076   4.365  11.451  11.133  2.7830 -0.1909  3.4889
 1008MOL0     H36077   4.817  11.129  10.541  0.7583  3.6393  3.7272
 1008MOL0     H36078   5.173  11.127  10.557 -0.1125 -0.6019  1.5684
 1008MOL0     H36079   5.128  10.982  10.461  1.6407  0.1495  3.4446
 1008MOL0     H36080   5.041  11.142  10.438 -2.2885 -1.6000 -0.4301
 1009MOL0     O36081   0.404   5.693   0.053 -0.2302  0.2675 -0.3241
 1009MOL0     C36082   0.488   5.687   0.148  0.8236 -0.1295  0.5499
 1009MOL0     O36083   0.623   5.685   0.133 -0.0709  0.6252 -0.6619
 1009MOL0     C36084   0.679   5.667   0.007 -0.3868  1.0644 -0.0389
 1009MOL0     C36085   0.741   5.551  -0.030  0.8094 -0.5371 -0.1548
 1009MOL0     C36086   0.802   5.531  -0.152 -0.1466 -0.4932  1.1540
 1009MOL0     C36087   0.809   5.637  -0.238 -0.6728 -0.1586  0.3470
 1009MOL0     O36088   0.849   5.646  -0.368  0.2130  0.3378  0.4829
 1009MOL0     C36089   0.873   5.527  -0.450  0.1699 -0.5463 -0.0295
 1009MOL0     C36090   0.758   5.507  -0.556 -0.5192 -0.3741 -0.1385
 1009MOL0     C36091   0.622   5.501  -0.495 -0.2774  0.2652  0.2956
 1009MOL0     C36092   0.573   5.363  -0.497  0.9883  0.0641 -0.0270
 1009MOL0     C36093   0.441   5.341  -0.421  0.9223 -1.1413 -0.2802
 1009MOL0     C36094   0.456   5.325  -0.265 -0.2477  0.1377 -0.2830
 1009MOL0     C36095   0.406   5.448  -0.182  1.1184 -0.2597 -0.1630
 1009MOL0     C36096   0.268   5.505  -0.231  0.8974  0.0731 -0.1801
 1009MOL0     N36097   0.165   5.403  -0.247 -0.3726  0.4096 -0.2709
 1009MOL0     C36098   0.124   5.340  -0.361  0.2220  0.1018 -0.5324
 1009MOL0     C36099   0.036   5.246  -0.321 -0.9326 -0.3571 -0.7159
 1009MOL0     C36100  -0.033   5.158  -0.414 -0.3193  0.2323  0.4090
 1009MOL0     C36101  -0.038   5.196  -0.562  0.2708 -0.7534  1.1484
 1009MOL0     C36102  -0.134   5.102  -0.647  0.3332  0.5628  0.1564
 1009MOL0     C36103  -0.278   5.154  -0.661 -0.1368  0.4555 -0.8048
 1009MOL0     O36104  -0.280   5.271  -0.751 -0.1700  1.0520  0.0253
 1009MOL0     C36105  -0.361   5.291  -0.854  0.5976  0.4272 -0.1661
 1009MOL0     C36106  -0.482   5.229  -0.857 -0.4188 -0.6556 -0.3690
 1009MOL0     C36107  -0.568   5.246  -0.962 -0.5734 -0.3060  0.1486
 1009MOL0     C36108  -0.525   5.322  -1.072 -0.5316  0.9842  0.3315
 1009MOL0     C36109  -0.595   5.307  -1.205 -0.2244  0.4115  0.7852
 1009MOL0     O36110  -0.669   5.192  -1.217  0.0607 -0.6716  0.7128
 1009MOL0     C36111  -0.761   5.174  -1.321 -0.2088 -0.0871 -0.6934
 1009MOL0     C36112  -0.849   5.274  -1.362 -0.1698  0.1225 -0.7349
 1009MOL0     C36113  -0.947   5.251  -1.458  0.7080  0.4314 -0.6458
 1009MOL0     C36114  -0.964   5.123  -1.524 -0.3582  0.4373 -0.2367
 1009MOL0     O36115  -1.045   5.085  -1.626  1.3013 -0.3857 -0.0638
 1009MOL0     C36116  -1.144   5.177  -1.666 -0.8026 -0.9332 -0.4615
 1009MOL0     C36117  -1.217   5.109  -1.779  0.4578  0.9833  0.6436
 1009MOL0     C36118  -1.309   4.997  -1.721 -0.1754  0.3145  0.4764
 1009MOL0     C36119  -1.381   4.935  -1.844  1.0514 -0.2810  0.0820
 1009MOL0     C36120  -1.519   4.888  -1.799 -0.4183  0.5452 -0.7812
 1009MOL0     C36121  -1.598   4.806  -1.908 -0.6386 -0.2623 -0.4225
 1009MOL0     C36122  -1.622   4.894  -2.034  0.3134  0.4719 -0.2615
 1009MOL0     C36123  -1.673   4.821  -2.160 -0.4794  0.3091 -0.5843
 1009MOL0    Cl36124  -1.794   4.682  -2.113  0.0663 -0.0188  0.2175
 1009MOL0     C36125  -0.873   5.029  -1.474  0.4505 -0.4862  0.0771
 1009MOL0     C36126  -0.799   5.043  -1.357 -0.2529  0.2050 -0.6490
 1009MOL0     O36127  -0.585   5.400  -1.287  0.0402 -0.4892 -0.1444
 1009MOL0     C36128  -0.400   5.394  -1.060  0.5955 -1.0327 -0.0544
 1009MOL0     C36129  -0.319   5.379  -0.947  0.2024  0.2085  0.3049
 1009MOL0     N36130   0.002   5.254  -0.184 -0.1529 -0.5425  0.1320
 1009MOL0     N36131   0.082   5.356  -0.145  0.2011 -0.6612  0.3624
 1009MOL0     C36132   0.762   5.766  -0.199 -0.5098 -0.3459 -0.4828
 1009MOL0     C36133   0.689   5.772  -0.078 -0.2014 -0.2502  0.0513
 1009MOL0     C36134   0.444   5.687   0.289 -0.5062  0.0098 -0.2688
 1009MOL0     C36135   0.532   5.745   0.385  0.3634  0.5079 -0.0070
 1009MOL0     C36136   0.489   5.743   0.523 -0.2374 -0.1819 -0.4378
 1009MOL0     C36137   0.362   5.694   0.564 -0.0161  0.0557  0.7312
 1009MOL0     O36138   0.313   5.690   0.695 -0.1402  0.1245  0.0371
 1009MOL0     C36139   0.384   5.744   0.805 -0.0116  0.1400  0.2853
 1009MOL0     C36140   0.487   5.643   0.867 -0.5511 -0.8309 -0.0408
 1009MOL0     C36141   0.600   5.711   0.955  0.3827 -0.1540 -0.2029
 1009MOL0     C36142   0.702   5.610   0.985 -1.2388  1.0852 -1.4948
 1009MOL0     C36143   0.649   5.508   1.075 -0.5636 -0.1766  0.8651
 1009MOL0     C36144   0.612   5.413   1.141 -0.3788 -0.6766 -0.1092
 1009MOL0     C36145   0.271   5.640   0.464  0.2300 -0.2256  0.1718
 1009MOL0     C36146   0.316   5.636   0.330  0.3203  0.3826 -0.1931
 1009MOL0     C36147   0.227   5.573   0.224  0.3439 -0.6848  0.2260
 1009MOL0     H36148   0.737   5.481   0.053  0.4060 -0.2330  0.0893
 1009MOL0     H36149   0.841   5.430  -0.164  1.8114  0.3970 -0.5928
 1009MOL0     H36150   0.957   5.546  -0.517 -0.2682  0.8153 -0.2309
 1009MOL0     H36151   0.878   5.434  -0.393  1.0388  0.1968  1.1837
 1009MOL0     H36152   0.786   5.423  -0.620  2.0494  0.1496  0.1806
 1009MOL0     H36153   0.755   5.592  -0.625  1.0010  0.0081  0.2308
 1009MOL0     H36154   0.547   5.564  -0.544 -1.3661 -1.5130 -0.4369
 1009MOL0     H36155   0.636   5.519  -0.389 -0.2504 -0.5958  0.4474
 1009MOL0     H36156   0.550   5.334  -0.600 -0.3146 -0.9073  0.5078
 1009MOL0     H36157   0.643   5.297  -0.446  0.1290  1.8154  3.8175
 1009MOL0     H36158   0.376   5.426  -0.442 -1.9323 -1.8574  4.1862
 1009MOL0     H36159   0.397   5.250  -0.463 -1.2475 -0.5990  0.6406
 1009MOL0     H36160   0.410   5.232  -0.231 -1.0372  1.0636  1.2925
 1009MOL0     H36161   0.563   5.310  -0.245 -0.6759 -3.0872  0.1673
 1009MOL0     H36162   0.483   5.526  -0.174 -0.3739  1.1932  0.8862
 1009MOL0     H36163   0.387   5.397  -0.087 -3.2052 -1.8304 -1.6511
 1009MOL0     H36164   0.239   5.573  -0.151  1.3627  2.4631 -1.9471
 1009MOL0     H36165   0.280   5.566  -0.321  2.6202  0.8603  0.5467
 1009MOL0     H36166   0.154   5.359  -0.463  0.3169 -0.1802 -0.5600
 1009MOL0     H36167   0.019   5.062  -0.404 -0.2271  0.0564 -1.3483
 1009MOL0     H36168  -0.131   5.144  -0.369 -1.6314  3.4103 -1.1963
 1009MOL0     H36169  -0.073   5.300  -0.570  0.9058 -0.5518  0.9224
 1009MOL0     H36170   0.060   5.185  -0.609  0.6882 -2.9533  2.4050
 1009MOL0     H36171  -0.137   5.007  -0.591 -2.3369  0.8230  0.5739
 1009MOL0     H36172  -0.087   5.113  -0.745  0.9460  1.3114  0.5283
 1009MOL0     H36173  -0.306   5.182  -0.559 -0.1690 -0.6997 -0.4840
 1009MOL0     H36174  -0.330   5.060  -0.683  0.4745  0.3856 -2.0487
 1009MOL0     H36175  -0.512   5.167  -0.773 -2.4527 -0.9426 -1.2556
 1009MOL0     H36176  -0.666   5.201  -0.973 -0.7031  0.5065 -3.2025
 1009MOL0     H36177  -0.824   5.375  -1.329 -3.0704  0.1491  1.8047
 1009MOL0     H36178  -1.013   5.330  -1.489 -2.3975 -0.9147  1.9588
 1009MOL0     H36179  -1.203   5.189  -1.575  1.1091 -3.0467  1.1732
 1009MOL0     H36180  -1.096   5.272  -1.692  2.2498 -1.5433  2.3000
 1009MOL0     H36181  -1.284   5.176  -1.835 -4.4329 -2.2459  1.9410
 1009MOL0     H36182  -1.136   5.068  -1.840  0.6295 -1.8413  2.5425
 1009MOL0     H36183  -1.252   4.927  -1.659  0.3517  0.9104  0.6702
 1009MOL0     H36184  -1.381   5.044  -1.654 -0.2738  1.7716 -0.5852
 1009MOL0     H36185  -1.321   4.849  -1.875  2.3094  0.7806 -0.5373
 1009MOL0     H36186  -1.387   5.010  -1.924 -1.8705 -0.3866  0.0929
 1009MOL0     H36187  -1.584   4.968  -1.762  0.0536  0.2260  0.8022
 1009MOL0     H36188  -1.505   4.812  -1.723  2.6670  1.7009 -0.0532
 1009MOL0     H36189  -1.548   4.711  -1.928 -0.4905 -0.3169  0.1755
 1009MOL0     H36190  -1.695   4.778  -1.865 -0.9302  0.4398 -0.6105
 1009MOL0     H36191  -1.538   4.954  -2.068 -0.6918  1.8744 -0.3615
 1009MOL0     H36192  -1.691   4.975  -2.009 -0.1867  0.2798 -0.9988
 1009MOL0     H36193  -1.720   4.894  -2.226 -2.3583  1.7829  2.1484
 1009MOL0     H36194  -1.593   4.773  -2.216 -0.5315 -0.5786  0.0757
 1009MOL0     H36195  -0.881   4.931  -1.522  1.8482  0.5607 -2.4721
 1009MOL0     H36196  -0.735   4.967  -1.315  1.4552  1.3843 -1.0144
 1009MOL0     H36197  -0.353   5.447  -1.142 -1.1334 -3.8677 -3.1290
 1009MOL0     H36198  -0.217   5.413  -0.932  0.1352 -0.5763  3.0332
 1009MOL0     H36199   0.755   5.843  -0.276  1.3282 -1.5858 -1.9717
 1009MOL0     H36200   0.656   5.873  -0.055  0.1503 -0.2896  0.7508
 1009MOL0     H36201   0.636   5.762   0.359  0.4649 -2.3456 -2.0703
 1009MOL0     H36202   0.549   5.790   0.600  0.3061  0.8543 -1.4507
 1009MOL0     H36203   0.317   5.769   0.888 -2.3645 -1.9410 -0.8282
 1009MOL0     H36204   0.428   5.835   0.764 -3.4127  0.8252 -2.3059
 1009MOL0     H36205   0.531   5.589   0.783 -0.5279  1.4152 -1.5631
 1009MOL0     H36206   0.440   5.569   0.933  1.4337 -2.7677 -0.6909
 1009MOL0     H36207   0.555   5.758   1.042  1.4809 -1.8891  1.3793
 1009MOL0     H36208   0.655   5.785   0.896  3.3134 -1.5772  0.5642
 1009MOL0     H36209   0.738   5.573   0.889  0.3489  1.6407 -1.1495
 1009MOL0     H36210   0.787   5.652   1.040 -0.9123 -1.9478  0.5454
 1009MOL0     H36211   0.580   5.325   1.193 -3.7069  0.1081 -0.5856
 1009MOL0     H36212   0.172   5.603   0.488 -1.6964  2.2673 -3.0268
 1009MOL0     H36213   0.163   5.638   0.164  1.7321 -0.6729 -1.3006
 1009MOL0     H36214   0.289   5.515   0.155  1.0615  2.6837 -2.1938
 1009MOL0     H36215   0.164   5.496   0.270 -1.1099 -1.3251 -2.6112
 1010MOL0     O36216  11.019   9.991   0.014 -0.2339 -0.0416  0.3089
 1010MOL0     C36217  11.087   9.918   0.085  0.2314  0.3216 -0.6348
 1010MOL0     O36218  11.041   9.866   0.206  0.3046 -0.3051  0.3385
 1010MOL0     C36219  10.924   9.900   0.256 -0.2953  1.0446 -0.6840
 1010MOL0     C36220  10.866  10.029   0.259  0.0828 -0.3791 -0.1466
 1010MOL0     C36221  10.746  10.062   0.323 -0.4497  0.0125 -0.8114
 1010MOL0     C36222  10.670   9.947   0.371 -0.0128  0.2245  0.2359
 1010MOL0     O36223  10.552   9.959   0.444 -0.1651  0.9636  0.7872
 1010MOL0     C36224  10.454  10.052   0.399 -0.3124  0.0531  0.8993
 1010MOL0     C36225  10.322  10.053   0.476 -0.2074  0.3312  0.5456
 1010MOL0     C36226  10.244   9.926   0.460  0.0648 -0.4810 -0.1430
 1010MOL0     C36227  10.146   9.904   0.582 -0.3182 -0.2152  0.3669
 1010MOL0     C36228  10.065   9.770   0.559  0.7255 -0.5409 -0.0754
 1010MOL0     C36229   9.931   9.763   0.632 -0.9591 -0.7278 -0.2410
 1010MOL0     C36230   9.950   9.756   0.785 -0.1222 -0.7349 -1.4025
 1010MOL0     C36231   9.813   9.742   0.859 -0.1114 -0.1633  0.8861
 1010MOL0     N36232   9.734   9.880   0.870  0.2382  1.0380 -0.9399
 1010MOL0     C36233   9.604   9.897   0.933 -1.0148 -0.3605  1.3858
 1010MOL0     C36234   9.588  10.030   0.940 -0.9791 -0.1432 -0.7720
 1010MOL0     C36235   9.467  10.104   0.982  0.2229 -0.0851 -0.0297
 1010MOL0     C36236   9.383  10.040   1.093  0.2418  0.9309  0.3462
 1010MOL0     C36237   9.258  10.124   1.116  0.3385 -0.1057  0.6580
 1010MOL0     C36238   9.145  10.080   1.025  0.0667 -0.2205  0.2698
 1010MOL0     O36239   9.089   9.958   1.085  0.6277 -0.8979 -0.0986
 1010MOL0     C36240   8.957   9.940   1.052  0.2067 -0.4195  0.7111
 1010MOL0     C36241   8.871   9.901   1.156 -0.8566 -0.3883 -0.8654
 1010MOL0     C36242   8.738   9.874   1.134  0.2965  0.4117 -0.4044
 1010MOL0     C36243   8.682   9.882   1.007 -0.8158 -0.1858  0.0493
 1010MOL0     C36244   8.554   9.821   0.978  0.9058  0.2235 -0.2738
 1010MOL0     O36245   8.481   9.869   0.873 -0.4468 -0.5660  0.4327
 1010MOL0     C36246   8.350   9.839   0.854  0.3096 -0.3620 -0.4178
 1010MOL0     C36247   8.263   9.839   0.962  0.3503 -0.0847 -0.4989
 1010MOL0     C36248   8.122   9.808   0.952 -0.3518 -0.3836 -0.3301
 1010MOL0     C36249   8.072   9.772   0.824 -0.5886 -0.2198  0.5816
 1010MOL0     O36250   7.941   9.744   0.797  0.2518 -0.1895 -0.1559
 1010MOL0     C36251   7.841   9.740   0.902  0.3534  0.5085  0.4071
 1010MOL0     C36252   7.839   9.599   0.956 -0.0817  1.0616 -0.1314
 1010MOL0     C36253   7.830   9.487   0.853 -0.7372 -0.3400  0.2634
 1010MOL0     C36254   7.701   9.494   0.771  0.1532 -0.3195  0.0694
 1010MOL0     C36255   7.645   9.359   0.708 -0.1904  0.2585  0.3074
 1010MOL0     C36256   7.624   9.256   0.819 -0.0697 -0.7965  0.1381
 1010MOL0     C36257   7.518   9.149   0.805 -0.1083 -0.2273  0.3370
 1010MOL0     C36258   7.376   9.189   0.855 -1.0675  0.3059 -0.3273
 1010MOL0    Cl36259   7.351   9.149   1.028  0.1315  0.0746 -0.1232
 1010MOL0     C36260   8.163   9.779   0.710  0.3066  0.6828  0.3454
 1010MOL0     C36261   8.291   9.823   0.729 -0.4501 -0.5693 -0.0591
 1010MOL0     O36262   8.517   9.731   1.053 -0.1776 -0.5809 -0.6164
 1010MOL0     C36263   8.760   9.962   0.914  0.3218 -0.1862  0.1143
 1010MOL0     C36264   8.895   9.983   0.932 -0.1907 -0.3837  0.3450
 1010MOL0     N36265   9.705  10.100   0.894  0.1854 -0.1411  0.6211
 1010MOL0     N36266   9.787  10.003   0.850 -0.7494  0.4006 -0.9794
 1010MOL0     C36267  10.720   9.822   0.362  0.2241 -1.2713  0.1820
 1010MOL0     C36268  10.842   9.795   0.311 -0.6804  0.2018  0.4745
 1010MOL0     C36269  11.232   9.921   0.048 -0.2795  0.0156 -0.0724
 1010MOL0     C36270  11.312   9.913   0.162  0.9396  0.4255  0.1636
 1010MOL0     C36271  11.452   9.917   0.150 -0.8191  1.2299  0.5698
 1010MOL0     C36272  11.515   9.923   0.022  0.1163 -0.6870  0.6517
 1010MOL0     O36273  11.645   9.933  -0.006 -0.7983  0.0540  0.0546
 1010MOL0     C36274  11.723   9.994   0.097  0.1176  0.4870 -0.2549
 1010MOL0     C36275  11.869   9.973   0.053 -0.3432  0.0607  0.2468
 1010MOL0     C36276  11.950  10.094   0.102  0.2869  0.5664  0.1503
 1010MOL0     C36277  12.079  10.094   0.020  0.4310  0.2260  0.6575
 1010MOL0     C36278  12.186  10.113   0.115 -1.1657  0.1733  0.0157
 1010MOL0     C36279  12.289  10.128   0.182  0.7428  0.2458  0.5125
 1010MOL0     C36280  11.427   9.909  -0.090 -0.1588  0.0173 -0.2314
 1010MOL0     C36281  11.285   9.918  -0.076 -1.1900 -0.0454  0.5914
 1010MOL0     C36282  11.208   9.917  -0.205 -1.3173  0.2719 -0.6532
 1010MOL0     H36283  10.926  10.110   0.219  0.2944 -1.3904 -2.0293
 1010MOL0     H36284  10.720  10.167   0.333  2.1831  0.9933 -2.9876
 1010MOL0     H36285  10.491  10.155   0.413 -4.0919  2.0674 -2.0718
 1010MOL0     H36286  10.420  10.045   0.295 -2.0721  1.7430  1.3004
 1010MOL0     H36287  10.255  10.131   0.441  0.8750  0.6204 -1.0083
 1010MOL0     H36288  10.326  10.067   0.584 -0.6369  0.4095  0.5497
 1010MOL0     H36289  10.305   9.836   0.468 -1.1431 -1.1475  2.8969
 1010MOL0     H36290  10.198   9.932   0.361 -0.8250 -0.5134  0.2637
 1010MOL0     H36291  10.206   9.891   0.673 -1.1984 -0.3693  0.9383
 1010MOL0     H36292  10.072   9.982   0.604 -0.8279 -0.9055  1.1681
 1010MOL0     H36293  10.034   9.766   0.454  1.2240  0.0294 -0.2486
 1010MOL0     H36294  10.112   9.674   0.583 -0.4131 -0.8612  0.9822
 1010MOL0     H36295   9.873   9.853   0.613 -0.3827 -0.7421 -2.2891
 1010MOL0     H36296   9.877   9.673   0.601 -1.7620  0.4588 -2.4668
 1010MOL0     H36297  10.006   9.839   0.829 -1.7137 -1.2380  1.9092
 1010MOL0     H36298  10.004   9.668   0.820  3.5275  1.8487  0.0731
 1010MOL0     H36299   9.749   9.669   0.809  0.9583  0.3804 -1.3911
 1010MOL0     H36300   9.831   9.712   0.962  2.8234  2.5949  1.3403
 1010MOL0     H36301   9.525   9.829   0.966 -2.2906 -0.6478 -1.8362
 1010MOL0     H36302   9.491  10.207   1.010 -1.1780  0.5921 -1.2100
 1010MOL0     H36303   9.395  10.107   0.900  1.8355 -0.0521 -1.4950
 1010MOL0     H36304   9.351   9.941   1.058 -0.7042  0.9712  1.0504
 1010MOL0     H36305   9.437  10.033   1.188  2.3222 -0.9004 -0.8739
 1010MOL0     H36306   9.286  10.224   1.081 -0.8327  0.3591  1.0265
 1010MOL0     H36307   9.219  10.113   1.218  1.5674  0.1558  1.1753
 1010MOL0     H36308   9.171  10.065   0.919  0.2022  1.7509 -0.0096
 1010MOL0     H36309   9.075  10.162   1.013  0.9771  0.7030  1.0555
 1010MOL0     H36310   8.914   9.894   1.256  0.8596  0.6179 -1.5051
 1010MOL0     H36311   8.691   9.835   1.224  1.8467 -0.6580 -0.0101
 1010MOL0     H36312   8.291   9.874   1.061 -3.6490  1.4221  0.2734
 1010MOL0     H36313   8.057   9.822   1.037 -2.9857 -1.2182 -2.0982
 1010MOL0     H36314   7.860   9.813   0.982 -0.7708  0.8520  0.3766
 1010MOL0     H36315   7.743   9.758   0.857 -0.1370 -2.7104 -0.0571
 1010MOL0     H36316   7.921   9.578   1.024 -0.4835  1.0859  0.3646
 1010MOL0     H36317   7.743   9.596   1.009 -0.3945 -0.1414 -0.7298
 1010MOL0     H36318   7.913   9.479   0.783 -2.3140 -0.6150 -1.6563
 1010MOL0     H36319   7.843   9.399   0.917  1.2743 -0.9972 -0.9489
 1010MOL0     H36320   7.715   9.573   0.696  2.0084  0.1780  0.8968
 1010MOL0     H36321   7.622   9.516   0.843  2.3506  0.1120  2.4997
 1010MOL0     H36322   7.697   9.328   0.617  0.2542  2.4656 -0.2274
 1010MOL0     H36323   7.548   9.398   0.677  0.0693  0.3497 -0.4108
 1010MOL0     H36324   7.718   9.202   0.837  0.6991  0.0215 -1.1966
 1010MOL0     H36325   7.611   9.308   0.914  2.2263  1.5282 -0.6934
 1010MOL0     H36326   7.548   9.054   0.850 -0.2041 -1.6506 -2.3624
 1010MOL0     H36327   7.502   9.132   0.698  2.5735 -1.0822 -0.0051
 1010MOL0     H36328   7.369   9.298   0.852 -3.0980  0.4466  3.3538
 1010MOL0     H36329   7.292   9.152   0.796  0.5619 -0.0615 -2.5465
 1010MOL0     H36330   8.127   9.750   0.612  2.5386 -0.5296 -0.1873
 1010MOL0     H36331   8.349   9.830   0.637 -2.3292  1.3024 -1.1831
 1010MOL0     H36332   8.707   9.993   0.824 -1.1031 -0.6606  0.7565
 1010MOL0     H36333   8.954  10.015   0.847  0.0939 -2.7991 -0.4309
 1010MOL0     H36334  10.661   9.741   0.406 -1.5429 -1.0373 -1.6222
 1010MOL0     H36335  10.870   9.691   0.327 -1.6023 -0.2305 -0.5176
 1010MOL0     H36336  11.276   9.900   0.264  1.4961 -0.8452  0.2092
 1010MOL0     H36337  11.511   9.915   0.241  0.3815 -1.5911 -0.1499
 1010MOL0     H36338  11.711   9.960   0.200 -0.6196  1.9745  0.1801
 1010MOL0     H36339  11.691  10.099   0.099  0.7188  0.6740  0.2240
 1010MOL0     H36340  11.870   9.972  -0.056 -0.5462 -2.6239  0.2106
 1010MOL0     H36341  11.909   9.882   0.098 -1.3939 -0.0752  0.9523
 1010MOL0     H36342  11.974  10.074   0.207  0.0293 -0.3154  0.0500
 1010MOL0     H36343  11.896  10.187   0.089  0.7084  0.9294  0.9023
 1010MOL0     H36344  12.095   9.996  -0.027  0.6000 -0.5884  2.3416
 1010MOL0     H36345  12.064  10.170  -0.057 -0.2765  0.5210  1.0903
 1010MOL0     H36346  12.381  10.141   0.235  0.7158  0.3844  0.5262
 1010MOL0     H36347  11.479   9.896  -0.184 -1.4849  0.6845 -1.0879
 1010MOL0     H36348  11.106   9.877  -0.195 -2.1618  2.4009 -0.2484
 1010MOL0     H36349  11.186  10.019  -0.237 -1.4868  0.3294 -0.3569
 1010MOL0     H36350  11.256   9.850  -0.277 -3.4924 -0.3594 -1.6350
 1011MOL0     O36351   1.529   4.209   7.319  0.0851  0.1419 -1.2526
 1011MOL0     C36352   1.646   4.232   7.344  0.3659  0.2748  0.0346
 1011MOL0     O36353   1.697   4.331   7.426 -0.1684  0.3430 -0.7085
 1011MOL0     C36354   1.628   4.446   7.399  0.2018  0.1000  0.7389
 1011MOL0     C36355   1.693   4.547   7.331  0.7028 -0.3387  0.9658
 1011MOL0     C36356   1.629   4.669   7.299  0.5528 -0.8065  0.0790
 1011MOL0     C36357   1.497   4.687   7.338  0.4988 -0.8289  0.2393
 1011MOL0     O36358   1.430   4.808   7.320  0.3691 -0.1370 -0.5756
 1011MOL0     C36359   1.302   4.797   7.252  0.8673  0.7122  0.9290
 1011MOL0     C36360   1.326   4.819   7.098  0.7743 -0.4147 -0.1216
 1011MOL0     C36361   1.191   4.852   7.023  0.4460 -0.2645  0.5030
 1011MOL0     C36362   1.106   4.735   6.986 -0.4112  0.7879  0.1607
 1011MOL0     C36363   0.967   4.791   6.966  0.6556  0.2601 -0.4620
 1011MOL0     C36364   0.870   4.676   6.961 -0.7291  0.6969  0.1498
 1011MOL0     C36365   0.735   4.718   6.903 -0.7357 -0.1373 -0.1375
 1011MOL0     C36366   0.624   4.622   6.925  0.6971  0.6861  0.9070
 1011MOL0     N36367   0.560   4.640   7.053  0.0756 -0.6002  0.1513
 1011MOL0     C36368   0.619   4.599   7.173  0.8385  0.6726 -0.2165
 1011MOL0     C36369   0.507   4.581   7.256  0.5564 -0.3182  0.0065
 1011MOL0     C36370   0.505   4.534   7.398  0.2162  0.2407 -0.5861
 1011MOL0     C36371   0.373   4.555   7.462 -0.4825 -0.0326  0.4193
 1011MOL0     C36372   0.370   4.597   7.609  0.6680 -0.4093 -0.3990
 1011MOL0     C36373   0.411   4.478   7.695 -0.3278 -0.2563  0.5581
 1011MOL0     O36374   0.552   4.463   7.686  0.0804  0.6952 -0.1100
 1011MOL0     C36375   0.634   4.510   7.785  0.1940  0.3965 -0.0927
 1011MOL0     C36376   0.734   4.428   7.838  0.2347  0.4049 -0.1385
 1011MOL0     C36377   0.804   4.463   7.952  0.2733 -0.2966  0.0817
 1011MOL0     C36378   0.794   4.594   7.997 -0.4981  0.0949 -0.4301
 1011MOL0     C36379   0.892   4.644   8.089 -0.6821  0.6368  0.4623
 1011MOL0     O36380   1.025   4.603   8.093  0.2785  0.2712 -0.8465
 1011MOL0     C36381   1.108   4.638   8.194 -0.0572 -0.8081 -0.6226
 1011MOL0     C36382   1.244   4.631   8.161 -0.0930  0.8768  0.0527
 1011MOL0     C36383   1.347   4.664   8.253 -0.0397  0.5418  0.1450
 1011MOL0     C36384   1.309   4.694   8.389  0.2328  1.6385  0.4624
 1011MOL0     O36385   1.402   4.721   8.488  0.1789 -0.0721  0.9228
 1011MOL0     C36386   1.546   4.742   8.446  0.4476  0.1451  0.3857
 1011MOL0     C36387   1.617   4.807   8.563 -0.4512 -0.0325 -0.3523
 1011MOL0     C36388   1.679   4.716   8.667 -0.2426  0.0147 -0.6422
 1011MOL0     C36389   1.733   4.794   8.779  0.2479 -0.3677 -0.4472
 1011MOL0     C36390   1.783   4.722   8.903  0.3398  1.2298 -1.0358
 1011MOL0     C36391   1.822   4.815   9.004 -0.1785 -0.1924 -0.5041
 1011MOL0     C36392   1.854   4.740   9.126  0.3957  0.6152  0.0927
 1011MOL0     C36393   1.932   4.811   9.242 -0.4060 -0.9086  1.3280
 1011MOL0    Cl36394   1.901   4.721   9.396 -0.4249 -0.0347 -0.0039
 1011MOL0     C36395   1.173   4.697   8.418 -0.5077  0.0097 -0.8946
 1011MOL0     C36396   1.076   4.676   8.332  0.0834  0.3140  0.3598
 1011MOL0     O36397   0.846   4.739   8.154  0.3497 -0.7110  1.2171
 1011MOL0     C36398   0.696   4.678   7.947  0.0444 -0.3127 -0.7911
 1011MOL0     C36399   0.611   4.632   7.844  0.7582 -0.9041  0.1896
 1011MOL0     N36400   0.389   4.599   7.179  0.5828  0.2455  0.6475
 1011MOL0     N36401   0.421   4.643   7.065 -0.2169  0.6203  0.1124
 1011MOL0     C36402   1.441   4.589   7.424  0.7499  0.7826 -0.3910
 1011MOL0     C36403   1.509   4.478   7.460  0.6012  0.8975 -0.3991
 1011MOL0     C36404   1.741   4.129   7.294 -0.1227 -0.6967 -0.3299
 1011MOL0     C36405   1.698   3.997   7.295  1.0224  0.4271 -0.1977
 1011MOL0     C36406   1.790   3.893   7.260 -0.0847 -0.4867  0.0768
 1011MOL0     C36407   1.917   3.920   7.222  0.1337  0.2655  0.0420
 1011MOL0     O36408   1.991   3.810   7.181 -0.4240  0.2530 -0.6405
 1011MOL0     C36409   1.935   3.679   7.170 -0.1675 -0.6388  0.9739
 1011MOL0     C36410   2.059   3.588   7.120  0.2981  1.1503  0.7531
 1011MOL0     C36411   2.011   3.440   7.102 -0.6769 -0.2382  0.3733
 1011MOL0     C36412   1.954   3.387   7.234  0.0288  0.2999  0.4276
 1011MOL0     C36413   2.035   3.412   7.353  0.2074  0.6458  0.1471
 1011MOL0     C36414   2.098   3.420   7.465 -0.1451  0.1991 -0.3566
 1011MOL0     C36415   1.953   4.051   7.212  0.3826  0.2945 -0.0823
 1011MOL0     C36416   1.873   4.154   7.247 -0.4407  0.0367 -0.4615
 1011MOL0     C36417   1.929   4.298   7.234  0.2169  0.8558 -0.6266
 1011MOL0     H36418   1.794   4.531   7.294  0.3154  0.8983 -0.7179
 1011MOL0     H36419   1.670   4.755   7.248 -1.2524 -0.3919 -0.7694
 1011MOL0     H36420   1.254   4.699   7.261  2.6540 -0.8283 -3.5184
 1011MOL0     H36421   1.248   4.882   7.295 -1.0067  0.4266 -0.7415
 1011MOL0     H36422   1.385   4.739   7.052  2.5470 -0.3570  1.9099
 1011MOL0     H36423   1.381   4.912   7.077 -2.0750  0.9188 -2.3135
 1011MOL0     H36424   1.207   4.921   6.939  4.0578 -1.1500  0.3120
 1011MOL0     H36425   1.123   4.900   7.094 -1.5829 -0.6284 -1.1072
 1011MOL0     H36426   1.135   4.683   6.894 -2.7185  0.0819 -0.2325
 1011MOL0     H36427   1.099   4.661   7.066  1.6302 -0.0090 -0.3432
 1011MOL0     H36428   0.925   4.856   7.043  0.8342 -1.5858  1.2712
 1011MOL0     H36429   0.963   4.856   6.877 -3.3287 -0.8292 -1.2791
 1011MOL0     H36430   0.896   4.584   6.908 -0.0597  0.0978  1.4663
 1011MOL0     H36431   0.865   4.648   7.066 -2.0295 -0.0225 -0.0769
 1011MOL0     H36432   0.760   4.724   6.796 -3.1043  0.1990 -0.7412
 1011MOL0     H36433   0.694   4.817   6.927 -2.4090 -0.3852 -1.6733
 1011MOL0     H36434   0.547   4.646   6.852  0.5930 -0.1197  0.7427
 1011MOL0     H36435   0.661   4.521   6.906 -0.7097 -0.0632  1.9094
 1011MOL0     H36436   0.723   4.579   7.194  1.2507  1.1395 -1.7059
 1011MOL0     H36437   0.540   4.431   7.408 -0.4456  0.1399  1.1846
 1011MOL0     H36438   0.584   4.589   7.451  1.7738 -0.9376 -1.6082
 1011MOL0     H36439   0.321   4.638   7.412  2.7583  0.8988 -1.6986
 1011MOL0     H36440   0.313   4.466   7.443  0.0182 -0.2613 -0.1294
 1011MOL0     H36441   0.269   4.622   7.642  0.4967 -0.3777 -0.9268
 1011MOL0     H36442   0.438   4.681   7.624  1.0889 -0.7930 -0.1248
 1011MOL0     H36443   0.362   4.386   7.664  0.5360 -1.2310  1.9643
 1011MOL0     H36444   0.393   4.507   7.799  0.5030 -0.2711  0.7191
 1011MOL0     H36445   0.725   4.326   7.801 -0.9853  0.4411 -0.0010
 1011MOL0     H36446   0.878   4.395   7.992 -1.4712 -1.2504  1.8753
 1011MOL0     H36447   1.266   4.615   8.056  1.9235  2.0332  0.2543
 1011MOL0     H36448   1.447   4.672   8.212 -0.2839  3.1881 -0.1682
 1011MOL0     H36449   1.602   4.651   8.422  2.0267  1.0517  0.4951
 1011MOL0     H36450   1.536   4.797   8.352 -1.8062 -2.6804 -1.2058
 1011MOL0     H36451   1.699   4.862   8.514  4.0356 -5.3217  0.1911
 1011MOL0     H36452   1.548   4.880   8.605 -0.5821  0.2079 -0.9730
 1011MOL0     H36453   1.594   4.655   8.695 -0.2904 -0.3760 -1.5900
 1011MOL0     H36454   1.763   4.654   8.635 -0.8863 -1.6953  0.8476
 1011MOL0     H36455   1.659   4.866   8.815  1.2761  0.3506  0.2847
 1011MOL0     H36456   1.820   4.846   8.739 -1.5135  3.1304 -0.1405
 1011MOL0     H36457   1.860   4.647   8.883  0.1235  0.3274  1.1961
 1011MOL0     H36458   1.708   4.652   8.941  1.0481  1.2247  0.4406
 1011MOL0     H36459   1.912   4.869   8.972 -0.9377  1.4871  0.0353
 1011MOL0     H36460   1.749   4.895   9.022  1.8780  1.4254  1.3121
 1011MOL0     H36461   1.903   4.644   9.112  0.9284  0.7243  1.1050
 1011MOL0     H36462   1.756   4.725   9.172  1.1287 -0.6261  1.3132
 1011MOL0     H36463   2.038   4.812   9.216  0.0565 -2.2397  2.9458
 1011MOL0     H36464   1.890   4.911   9.259  0.8796 -0.3930  1.6178
 1011MOL0     H36465   1.137   4.740   8.510  1.3301  0.6265 -0.4227
 1011MOL0     H36466   0.970   4.684   8.355 -0.1332  0.9619 -0.8146
 1011MOL0     H36467   0.682   4.776   7.992 -0.3503  0.1309 -1.8465
 1011MOL0     H36468   0.530   4.703   7.830  0.0573 -1.7526 -0.1765
 1011MOL0     H36469   1.335   4.590   7.449  0.5010  0.7504 -1.3883
 1011MOL0     H36470   1.465   4.416   7.537 -2.4691  0.4992 -2.3201
 1011MOL0     H36471   1.605   3.978   7.348  0.1489  1.1398 -1.4460
 1011MOL0     H36472   1.751   3.792   7.272 -0.6907 -0.4735 -1.5391
 1011MOL0     H36473   1.852   3.674   7.099 -1.2428  0.0051  2.1582
 1011MOL0     H36474   1.911   3.646   7.271 -0.4317  0.5373  1.3057
 1011MOL0     H36475   2.141   3.593   7.192  0.7303 -1.3208  0.5193
 1011MOL0     H36476   2.088   3.624   7.020  0.0534  0.2393  0.3426
 1011MOL0     H36477   2.093   3.376   7.069  1.3316  1.7271  1.2780
 1011MOL0     H36478   1.934   3.430   7.026 -1.2118  1.0055  0.7261
 1011MOL0     H36479   1.853   3.426   7.248 -0.4825 -0.0229 -1.9172
 1011MOL0     H36480   1.951   3.278   7.217 -0.2771  0.4663 -0.6657
 1011MOL0     H36481   2.154   3.422   7.556 -1.8879  2.9978  0.7752
 1011MOL0     H36482   2.051   4.065   7.167  1.4796 -1.6720  1.5214
 1011MOL0     H36483   1.932   4.339   7.336  1.2349 -1.7064  0.4640
 1011MOL0     H36484   2.030   4.300   7.193  0.6863 -0.0597  0.4214
 1011MOL0     H36485   1.858   4.351   7.170 -0.3027  0.1604 -0.6432
 1012MOL0     O36486   5.811   1.550   1.496 -0.1500 -0.0285  0.5780
 1012MOL0     C36487   5.752   1.657   1.501 -1.0824 -0.9330  0.5052
 1012MOL0     O36488   5.621   1.670   1.475 -0.4019 -0.4052  0.1019
 1012MOL0     C36489   5.539   1.560   1.453 -0.1541 -0.2297  0.1422
 1012MOL0     C36490   5.486   1.484   1.557  1.1598 -0.4235  0.6906
 1012MOL0     C36491   5.410   1.368   1.521 -0.0253  0.0226 -0.1613
 1012MOL0     C36492   5.380   1.337   1.385  0.4501  0.2439 -0.2052
 1012MOL0     O36493   5.299   1.233   1.354 -0.1560  0.5156 -0.5303
 1012MOL0     C36494   5.240   1.200   1.228 -0.3916  0.4640 -0.5467
 1012MOL0     C36495   5.151   1.076   1.251  0.2434  0.1940  0.9165
 1012MOL0     C36496   5.054   1.071   1.374 -0.5082 -0.3442  0.6288
 1012MOL0     C36497   4.949   1.181   1.368  0.7850  0.5509  1.1069
 1012MOL0     C36498   4.857   1.191   1.490 -0.7634  0.5714  0.1491
 1012MOL0     C36499   4.909   1.287   1.597 -0.7184 -0.0641 -0.9998
 1012MOL0     C36500   4.840   1.277   1.735  0.2619  0.9229 -0.2763
 1012MOL0     C36501   4.850   1.402   1.832  0.2787 -0.0473  0.3910
 1012MOL0     N36502   4.786   1.376   1.958  0.0250  0.7484 -0.3784
 1012MOL0     C36503   4.849   1.333   2.076 -0.2865  0.1767 -0.8664
 1012MOL0     C36504   4.753   1.323   2.170  0.3429  0.1613 -0.0089
 1012MOL0     C36505   4.779   1.275   2.316  0.8219  0.4973  0.2548
 1012MOL0     C36506   4.768   1.396   2.418 -0.0126 -0.5413 -0.0460
 1012MOL0     C36507   4.899   1.430   2.484 -1.2268  1.0027 -0.5948
 1012MOL0     C36508   5.007   1.500   2.399 -0.1280  0.4312 -1.0998
 1012MOL0     O36509   5.059   1.421   2.288  0.2611  0.1101  0.3746
 1012MOL0     C36510   5.187   1.392   2.301 -0.1880 -0.9590 -0.1609
 1012MOL0     C36511   5.270   1.470   2.230 -0.2779  0.0133 -0.6020
 1012MOL0     C36512   5.406   1.470   2.253  0.6754 -0.2575 -0.0096
 1012MOL0     C36513   5.464   1.381   2.345  0.5584  0.3834  0.2827
 1012MOL0     C36514   5.613   1.382   2.344 -0.2115 -0.0353  0.6712
 1012MOL0     O36515   5.678   1.473   2.265 -0.4234 -0.2233  0.5191
 1012MOL0     C36516   5.815   1.490   2.280 -0.4240  0.6288 -0.1966
 1012MOL0     C36517   5.901   1.383   2.255  0.2182 -0.5077  0.5633
 1012MOL0     C36518   6.042   1.409   2.268 -0.4183  0.4428 -0.2299
 1012MOL0     C36519   6.095   1.538   2.283  0.0248  0.1638  0.3982
 1012MOL0     O36520   6.229   1.543   2.294 -0.0514 -1.0052  0.8048
 1012MOL0     C36521   6.286   1.658   2.363  0.2217 -0.0133 -0.4832
 1012MOL0     C36522   6.426   1.609   2.401 -0.6324  0.2808 -0.2630
 1012MOL0     C36523   6.496   1.713   2.486  0.0946 -0.4594  0.5093
 1012MOL0     C36524   6.456   1.705   2.631 -0.2336 -0.7292 -0.2386
 1012MOL0     C36525   6.528   1.805   2.728 -0.2019  0.3828  0.9775
 1012MOL0     C36526   6.431   1.908   2.784  0.4087  0.6101 -0.4312
 1012MOL0     C36527   6.508   1.992   2.889  0.1999  0.8683 -0.0821
 1012MOL0     C36528   6.430   2.120   2.932  0.1449 -0.4294 -0.0851
 1012MOL0    Cl36529   6.247   2.132   2.943  0.1002 -0.2308 -0.1475
 1012MOL0     C36530   5.999   1.649   2.292  1.3687 -0.3523 -0.5112
 1012MOL0     C36531   5.868   1.621   2.292  0.7175 -0.4238  0.1666
 1012MOL0     O36532   5.667   1.306   2.423  0.1372  0.5229 -0.3508
 1012MOL0     C36533   5.378   1.297   2.418 -0.2845 -0.3393  0.7899
 1012MOL0     C36534   5.240   1.308   2.395 -0.8318 -0.1890 -0.0855
 1012MOL0     N36535   4.628   1.344   2.102  0.7572  0.4519  0.4062
 1012MOL0     N36536   4.654   1.385   1.985  0.7492  0.5519  0.0189
 1012MOL0     C36537   5.434   1.410   1.289  1.0587 -0.2164  0.7682
 1012MOL0     C36538   5.517   1.516   1.323 -0.5089 -0.2168  0.1890
 1012MOL0     C36539   5.836   1.777   1.545 -0.7210 -0.3453 -0.8144
 1012MOL0     C36540   5.969   1.778   1.520 -0.4868 -0.3187 -1.0674
 1012MOL0     C36541   6.056   1.882   1.549 -0.7521 -0.4353  0.0455
 1012MOL0     C36542   6.014   1.992   1.621 -0.4655  0.0328  0.4519
 1012MOL0     O36543   6.102   2.092   1.661  0.6296  0.2118  0.5591
 1012MOL0     C36544   6.240   2.083   1.639  0.0526 -0.1825  0.5917
 1012MOL0     C36545   6.319   1.976   1.727  0.0421  0.0738 -0.6125
 1012MOL0     C36546   6.303   2.022   1.883 -0.6420  1.0938  0.3464
 1012MOL0     C36547   6.384   1.932   1.971 -0.7047 -0.0886  0.5249
 1012MOL0     C36548   6.351   1.788   1.978  0.2238 -0.7797 -0.1965
 1012MOL0     C36549   6.323   1.670   1.996 -0.2519  0.0029  0.8435
 1012MOL0     C36550   5.878   1.993   1.665 -0.6029 -0.0005 -0.1957
 1012MOL0     C36551   5.791   1.888   1.630  0.5836 -1.0638  0.3762
 1012MOL0     C36552   5.641   1.891   1.683 -0.6123 -0.8409  0.4691
 1012MOL0     H36553   5.502   1.516   1.660  4.0557 -2.1910  0.9101
 1012MOL0     H36554   5.371   1.302   1.598 -0.6719 -0.4643 -0.8878
 1012MOL0     H36555   5.173   1.280   1.195 -1.8620 -0.6916 -0.4249
 1012MOL0     H36556   5.323   1.189   1.158  2.4895 -2.8154  2.9287
 1012MOL0     H36557   5.214   0.987   1.257 -1.3846 -0.9611  2.2349
 1012MOL0     H36558   5.100   1.063   1.155  2.2577  1.3907 -0.3652
 1012MOL0     H36559   5.113   1.086   1.465  1.2601  2.9329 -0.8520
 1012MOL0     H36560   5.005   0.974   1.382  3.1969 -2.2911  1.4238
 1012MOL0     H36561   4.996   1.279   1.356  2.1585 -0.0583  1.3379
 1012MOL0     H36562   4.881   1.152   1.287  1.2505 -2.7704  1.7778
 1012MOL0     H36563   4.757   1.214   1.451 -1.4902 -1.2136  0.8592
 1012MOL0     H36564   4.850   1.096   1.543 -2.8458 -0.1596 -1.2716
 1012MOL0     H36565   5.011   1.252   1.618 -0.8314 -0.3612 -0.9492
 1012MOL0     H36566   4.922   1.384   1.548 -0.5950  0.0236 -0.7933
 1012MOL0     H36567   4.867   1.180   1.776 -3.3817 -0.9158 -1.7254
 1012MOL0     H36568   4.736   1.262   1.705 -0.3847  0.8661  1.8411
 1012MOL0     H36569   4.952   1.432   1.858  0.4529 -1.1261  1.0118
 1012MOL0     H36570   4.791   1.483   1.787 -1.5018  0.1961  2.9484
 1012MOL0     H36571   4.956   1.327   2.095 -0.7980  0.4939  2.6709
 1012MOL0     H36572   4.705   1.198   2.342  5.5235 -3.9167  2.2559
 1012MOL0     H36573   4.878   1.229   2.308  1.7106  1.7823  2.7845
 1012MOL0     H36574   4.737   1.484   2.361  2.0558  1.3147  1.5276
 1012MOL0     H36575   4.702   1.372   2.502 -0.5884  2.6167  0.5201
 1012MOL0     H36576   4.946   1.345   2.534  1.0100  1.7686 -1.2963
 1012MOL0     H36577   4.866   1.497   2.564 -0.6289 -1.4243  1.8206
 1012MOL0     H36578   5.089   1.539   2.459 -0.1801  1.0836 -1.4426
 1012MOL0     H36579   4.959   1.593   2.368  0.8360  1.4983  0.4633
 1012MOL0     H36580   5.235   1.537   2.152 -0.0975 -0.8104 -1.4131
 1012MOL0     H36581   5.463   1.545   2.200 -2.8820  3.8085  1.3583
 1012MOL0     H36582   5.861   1.286   2.230  0.9190 -0.5435 -0.4434
 1012MOL0     H36583   6.104   1.320   2.278 -1.7286 -0.2458  3.1077
 1012MOL0     H36584   6.284   1.743   2.295 -0.6239  0.3098 -0.0627
 1012MOL0     H36585   6.222   1.680   2.448 -2.0098 -2.0551 -1.5071
 1012MOL0     H36586   6.426   1.519   2.463 -1.5194 -1.1054 -2.1824
 1012MOL0     H36587   6.485   1.588   2.311  1.3509  0.2220  0.9850
 1012MOL0     H36588   6.603   1.690   2.489  0.4000  0.4740 -1.4172
 1012MOL0     H36589   6.481   1.815   2.450 -0.9810  0.0089  2.1623
 1012MOL0     H36590   6.469   1.606   2.674  1.6768 -1.0939 -1.5397
 1012MOL0     H36591   6.346   1.711   2.629 -0.2184  0.1698 -2.8401
 1012MOL0     H36592   6.605   1.856   2.669 -1.9338  0.7236 -1.1228
 1012MOL0     H36593   6.579   1.748   2.806 -1.2263 -0.1194  1.2945
 1012MOL0     H36594   6.384   1.969   2.706 -0.1931 -0.6157 -1.0548
 1012MOL0     H36595   6.351   1.853   2.835  0.2423 -0.4259 -1.7606
 1012MOL0     H36596   6.612   2.012   2.862  0.8590 -0.6556  1.1932
 1012MOL0     H36597   6.516   1.927   2.976 -1.9293 -0.2828 -0.6762
 1012MOL0     H36598   6.472   2.159   3.025 -1.1365  3.2590 -0.8738
 1012MOL0     H36599   6.450   2.193   2.852  2.1870 -2.0836 -1.1865
 1012MOL0     H36600   6.029   1.750   2.319  0.4334 -0.0674 -0.5043
 1012MOL0     H36601   5.791   1.697   2.297  2.6384  1.8253 -2.0638
 1012MOL0     H36602   5.407   1.223   2.492  0.3587  0.3959  1.2918
 1012MOL0     H36603   5.176   1.241   2.452 -0.4581  1.7450  2.7985
 1012MOL0     H36604   5.414   1.382   1.186 -2.4389  0.2478  1.1912
 1012MOL0     H36605   5.577   1.572   1.252  0.8370  1.6668  2.6591
 1012MOL0     H36606   6.014   1.690   1.475  0.1178 -0.2247 -0.6562
 1012MOL0     H36607   6.149   1.880   1.492 -0.7687 -1.5888  0.0464
 1012MOL0     H36608   6.281   2.185   1.640  1.1474 -0.5061 -1.9978
 1012MOL0     H36609   6.261   2.063   1.533  0.9339 -0.7910  0.8734
 1012MOL0     H36610   6.422   1.982   1.691  0.4962  0.7225  0.7131
 1012MOL0     H36611   6.292   1.871   1.716  2.4448 -0.4600 -2.2756
 1012MOL0     H36612   6.199   2.025   1.914 -1.0422 -0.0105 -0.8252
 1012MOL0     H36613   6.342   2.124   1.897 -0.4223  0.8676  1.5084
 1012MOL0     H36614   6.488   1.931   1.939 -1.2347 -2.5653 -1.3745
 1012MOL0     H36615   6.371   1.969   2.073 -2.3585  0.6104  0.0903
 1012MOL0     H36616   6.288   1.569   2.002 -0.5829  0.1650  2.0016
 1012MOL0     H36617   5.837   2.063   1.737 -0.5348 -2.2666  2.2155
 1012MOL0     H36618   5.626   1.987   1.733  2.1472 -1.4321  2.6407
 1012MOL0     H36619   5.577   1.879   1.595  0.0356 -0.5196 -0.0513
 1012MOL0     H36620   5.625   1.810   1.754  3.6530 -2.2163  0.1440
 1013MOL0     O36621  11.212   8.132   8.533  0.1783  0.4926 -0.0767
 1013MOL0     C36622  11.113   8.066   8.563  0.4416 -0.1446  0.8344
 1013MOL0     O36623  11.058   7.960   8.490  0.5801  0.1151 -0.0599
 1013MOL0     C36624  11.111   7.943   8.372 -0.0130  0.1004  0.0074
 1013MOL0     C36625  11.060   8.010   8.258  0.4262 -0.7158  0.4797
 1013MOL0     C36626  11.114   7.987   8.126  0.4118  0.4178 -0.3520
 1013MOL0     C36627  11.215   7.882   8.111  1.0582  0.4969 -0.4821
 1013MOL0     O36628  11.269   7.846   7.994  0.2463  0.1281 -0.6842
 1013MOL0     C36629  11.231   7.899   7.869  0.0987 -0.4609  0.3905
 1013MOL0     C36630  11.095   7.856   7.812 -1.8509 -0.1068  0.1638
 1013MOL0     C36631  11.088   7.711   7.751 -0.3610  0.0349 -0.7729
 1013MOL0     C36632  10.993   7.723   7.624 -0.7890  1.4752 -1.1762
 1013MOL0     C36633  10.977   7.582   7.561  0.6761  0.0586 -0.3630
 1013MOL0     C36634  10.839   7.573   7.489  0.3014  0.2682  0.2834
 1013MOL0     C36635  10.811   7.433   7.440  0.3170  0.0741 -0.2454
 1013MOL0     C36636  10.917   7.378   7.350  0.5753  0.1350 -0.1710
 1013MOL0     N36637  10.890   7.233   7.330  0.3590 -0.1337 -0.4402
 1013MOL0     C36638  10.781   7.174   7.274  0.5463  0.5414 -0.1284
 1013MOL0     C36639  10.800   7.038   7.290  1.5926  0.3397  0.4629
 1013MOL0     C36640  10.713   6.920   7.229  0.1103 -0.4151  0.6131
 1013MOL0     C36641  10.595   6.897   7.320  0.4866  0.3134 -0.3306
 1013MOL0     C36642  10.505   6.776   7.279 -0.4335  0.7587 -0.4496
 1013MOL0     C36643  10.419   6.798   7.149 -0.0240  1.5058 -0.6435
 1013MOL0     O36644  10.366   6.931   7.129  0.0459 -0.6100 -0.2547
 1013MOL0     C36645  10.235   6.965   7.143  0.4679 -0.2464 -0.0358
 1013MOL0     C36646  10.137   6.871   7.170 -0.5744 -0.4386  0.0203
 1013MOL0     C36647  10.010   6.910   7.169  0.1302 -0.7658 -0.3256
 1013MOL0     C36648   9.964   7.041   7.164 -0.2774  0.6043  0.0096
 1013MOL0     C36649   9.821   7.069   7.158  0.1197  0.1982 -0.7350
 1013MOL0     O36650   9.731   6.972   7.187 -0.4741  0.3587 -0.1168
 1013MOL0     C36651   9.599   6.982   7.165 -0.4996 -0.2109 -0.6486
 1013MOL0     C36652   9.537   7.022   7.046 -0.4882 -0.3405  0.6678
 1013MOL0     C36653   9.404   7.027   7.028  0.8882  0.0550 -0.0292
 1013MOL0     C36654   9.315   6.994   7.138 -0.2899  0.1335  0.3079
 1013MOL0     O36655   9.182   7.009   7.115  0.3866  0.1718  0.4850
 1013MOL0     C36656   9.102   7.048   7.231 -0.0007  0.5332  0.1227
 1013MOL0     C36657   8.965   7.053   7.155  0.5678 -0.2295  0.5899
 1013MOL0     C36658   8.954   7.177   7.055  0.0116  0.2374  0.0951
 1013MOL0     C36659   8.808   7.177   7.002 -0.7375  0.2264 -1.5919
 1013MOL0     C36660   8.798   7.236   6.867 -0.0571 -0.3592 -0.2749
 1013MOL0     C36661   8.858   7.376   6.844  0.3117  0.4337  0.0549
 1013MOL0     C36662   8.877   7.427   6.698  0.0972 -0.8904 -0.4465
 1013MOL0     C36663   8.993   7.347   6.631 -0.2667  0.3511 -0.6336
 1013MOL0    Cl36664   8.984   7.383   6.453 -0.3718 -0.4156 -0.0766
 1013MOL0     C36665   9.371   6.947   7.255  0.2178  0.7181 -0.0665
 1013MOL0     C36666   9.513   6.937   7.259 -0.5028 -0.4756  0.3554
 1013MOL0     O36667   9.791   7.177   7.108  0.1896  0.1160  0.1557
 1013MOL0     C36668  10.061   7.130   7.132 -0.2746  0.2166 -0.2084
 1013MOL0     C36669  10.198   7.094   7.119 -0.0467  0.7509 -0.6224
 1013MOL0     N36670  10.916   7.019   7.355 -0.0036  0.0688 -0.0848
 1013MOL0     N36671  10.972   7.132   7.378  0.0462  0.7837 -0.8706
 1013MOL0     C36672  11.260   7.816   8.226  0.1975 -0.3342 -0.9004
 1013MOL0     C36673  11.207   7.843   8.352 -0.7200 -0.0751  0.1518
 1013MOL0     C36674  11.059   8.097   8.696  0.0362  0.0161 -0.7451
 1013MOL0     C36675  11.134   8.088   8.814 -0.0240  0.1469 -0.1150
 1013MOL0     C36676  11.069   8.127   8.933  0.4494  0.6082 -0.2089
 1013MOL0     C36677  10.932   8.158   8.941  0.4528 -0.5604 -0.1819
 1013MOL0     O36678  10.855   8.203   9.046 -0.4489  0.2222  0.0678
 1013MOL0     C36679  10.898   8.152   9.173 -0.5314 -0.4510  0.4098
 1013MOL0     C36680  10.882   7.997   9.166 -1.1242 -0.2047 -0.5329
 1013MOL0     C36681  10.758   7.930   9.121 -0.0734 -0.2273  0.2151
 1013MOL0     C36682  10.643   7.996   9.194  0.4735  0.0550  0.0550
 1013MOL0     C36683  10.526   7.912   9.197  0.1096 -0.5293  0.0143
 1013MOL0     C36684  10.426   7.842   9.210  0.0101 -0.2151 -0.1674
 1013MOL0     C36685  10.859   8.160   8.819 -0.4687 -0.2875  0.5699
 1013MOL0     C36686  10.925   8.133   8.696 -0.4665 -0.0443  0.5039
 1013MOL0     C36687  10.845   8.167   8.567 -0.1361  0.5824  0.1610
 1013MOL0     H36688  11.000   8.099   8.266  1.3246 -0.2465  2.6359
 1013MOL0     H36689  11.080   8.043   8.040  2.0389  0.4047 -1.0522
 1013MOL0     H36690  11.238   8.008   7.873 -1.7487 -0.2230 -1.3571
 1013MOL0     H36691  11.301   7.866   7.791 -0.0744  1.1454 -0.4858
 1013MOL0     H36692  11.072   7.935   7.740 -1.4011  0.7840  0.9733
 1013MOL0     H36693  11.024   7.869   7.895  1.1536  2.3865  2.6073
 1013MOL0     H36694  11.038   7.648   7.825 -2.3111  2.0563 -0.2573
 1013MOL0     H36695  11.190   7.673   7.735  0.4659  1.9409 -0.2852
 1013MOL0     H36696  10.898   7.769   7.653 -2.3448 -1.2220 -1.6836
 1013MOL0     H36697  11.038   7.796   7.556  1.1945 -0.2337 -1.8012
 1013MOL0     H36698  11.062   7.565   7.494  1.6617  2.3923  0.2143
 1013MOL0     H36699  10.973   7.511   7.644 -0.4029 -1.4945 -1.6587
 1013MOL0     H36700  10.759   7.604   7.557 -1.0531 -1.5155 -0.4195
 1013MOL0     H36701  10.842   7.646   7.408  2.4727 -0.1254 -0.0459
 1013MOL0     H36702  10.710   7.443   7.399  0.4824  2.4282 -0.1917
 1013MOL0     H36703  10.805   7.365   7.526  0.5294  0.8686  0.4116
 1013MOL0     H36704  10.917   7.428   7.252 -3.1425  2.0649  0.6384
 1013MOL0     H36705  11.017   7.396   7.391 -0.3444  4.1941  0.7116
 1013MOL0     H36706  10.693   7.210   7.223  0.2260 -2.5347 -2.0177
 1013MOL0     H36707  10.671   6.945   7.131 -1.4012 -0.4522  1.2281
 1013MOL0     H36708  10.788   6.840   7.217  0.9350 -0.1453  3.3653
 1013MOL0     H36709  10.637   6.879   7.420 -0.1774  3.0008  0.5155
 1013MOL0     H36710  10.539   6.989   7.338 -0.4442 -0.3507  0.2666
 1013MOL0     H36711  10.448   6.760   7.371  1.6102  1.3427  0.9934
 1013MOL0     H36712  10.577   6.694   7.271 -1.3676  0.0331 -2.1142
 1013MOL0     H36713  10.339   6.724   7.141 -0.2379  1.8411 -1.8994
 1013MOL0     H36714  10.482   6.770   7.063 -0.2513  0.5244 -0.5049
 1013MOL0     H36715  10.155   6.766   7.188  2.6140 -0.1573 -0.9821
 1013MOL0     H36716   9.954   6.819   7.181 -0.2659 -0.3276  1.3525
 1013MOL0     H36717   9.601   7.050   6.963  0.1827 -2.4283  0.4017
 1013MOL0     H36718   9.372   7.066   6.932  3.2601  0.2356 -0.8188
 1013MOL0     H36719   9.089   6.968   7.304  0.7865 -1.7832 -2.0954
 1013MOL0     H36720   9.129   7.146   7.270 -0.0098  1.9454 -3.1158
 1013MOL0     H36721   8.939   6.957   7.109  0.8686 -1.1998  2.3794
 1013MOL0     H36722   8.885   7.062   7.229  0.6357 -3.0628  1.1343
 1013MOL0     H36723   8.975   7.273   7.102  0.9803  0.3546 -0.5393
 1013MOL0     H36724   9.039   7.157   6.989 -0.5170  0.5494 -0.6930
 1013MOL0     H36725   8.733   7.227   7.064 -1.3838 -2.0050 -0.4613
 1013MOL0     H36726   8.784   7.070   6.996 -2.6454  0.6387 -2.1387
 1013MOL0     H36727   8.691   7.239   6.846 -0.2171 -2.3056  0.0812
 1013MOL0     H36728   8.841   7.159   6.804 -0.1936  1.6593 -3.0012
 1013MOL0     H36729   8.793   7.450   6.892 -0.0263 -0.4509  1.0123
 1013MOL0     H36730   8.954   7.391   6.893  0.2314 -0.8303  0.6424
 1013MOL0     H36731   8.923   7.526   6.706 -0.0424 -0.8608  0.0234
 1013MOL0     H36732   8.785   7.429   6.640 -0.6120  0.6409  0.6465
 1013MOL0     H36733   9.088   7.384   6.669  0.7713 -3.6844  1.2323
 1013MOL0     H36734   8.976   7.240   6.643  3.0889 -0.7860 -3.9721
 1013MOL0     H36735   9.302   6.914   7.332  1.5372 -0.9422  0.4624
 1013MOL0     H36736   9.550   6.908   7.356  0.5559  1.0182  0.4294
 1013MOL0     H36737  10.027   7.233   7.116 -0.5778  0.1997  0.3133
 1013MOL0     H36738  10.275   7.165   7.094  0.2275  1.8574  2.8639
 1013MOL0     H36739  11.323   7.727   8.228  0.1596 -0.4767  3.6947
 1013MOL0     H36740  11.246   7.797   8.443  1.1670  2.4124  0.7271
 1013MOL0     H36741  11.242   8.077   8.814  0.3995  1.4653  5.2671
 1013MOL0     H36742  11.138   8.131   9.016  0.7285  1.3499 -0.4663
 1013MOL0     H36743  10.824   8.187   9.246 -1.8845 -4.0454  0.9765
 1013MOL0     H36744  10.996   8.192   9.198 -1.2029  2.3713 -1.0812
 1013MOL0     H36745  10.904   7.949   9.262  1.9913 -0.3648 -1.2178
 1013MOL0     H36746  10.962   7.947   9.109  0.1193  1.9177 -0.7489
 1013MOL0     H36747  10.766   7.823   9.141  0.5193 -0.6218 -1.8988
 1013MOL0     H36748  10.757   7.933   9.012  1.1368  2.2506  0.1934
 1013MOL0     H36749  10.669   8.003   9.301 -1.0170  0.8536  0.3890
 1013MOL0     H36750  10.614   8.091   9.150 -1.6918 -1.3406 -1.7430
 1013MOL0     H36751  10.348   7.769   9.204  0.2433 -0.5024  0.2535
 1013MOL0     H36752  10.757   8.197   8.809 -0.1148  0.3839 -0.7890
 1013MOL0     H36753  10.751   8.218   8.591 -0.7357 -0.6321  0.5220
 1013MOL0     H36754  10.894   8.234   8.496 -1.0181  0.3641 -0.6702
 1013MOL0     H36755  10.809   8.075   8.519 -0.3389  1.0907 -0.6690
 1014MOL0     O36756  10.507   6.410   8.867 -0.5528  0.4918 -0.5393
 1014MOL0     C36757  10.477   6.313   8.798 -0.2037 -0.0208  0.3572
 1014MOL0     O36758  10.359   6.291   8.727  0.2086 -0.0294  0.0916
 1014MOL0     C36759  10.267   6.391   8.729 -0.7587 -0.7853 -0.4242
 1014MOL0     C36760  10.129   6.360   8.740  0.4030  0.0126  0.0820
 1014MOL0     C36761  10.028   6.454   8.714 -0.3344 -0.5319 -0.9153
 1014MOL0     C36762  10.064   6.587   8.683  0.2767 -0.1618  0.0058
 1014MOL0     O36763   9.972   6.681   8.649 -0.1439  0.6115 -0.5297
 1014MOL0     C36764   9.830   6.638   8.662  0.3243 -0.5191  0.4811
 1014MOL0     C36765   9.797   6.558   8.538  0.1228 -0.7104  1.0556
 1014MOL0     C36766   9.642   6.552   8.507  0.3149 -0.0612 -0.2971
 1014MOL0     C36767   9.618   6.533   8.359  0.4136 -0.1181 -0.2457
 1014MOL0     C36768   9.472   6.517   8.316 -0.7264  0.1947 -1.1939
 1014MOL0     C36769   9.384   6.636   8.346  0.1573  0.5890 -0.5782
 1014MOL0     C36770   9.247   6.611   8.298 -0.2525 -0.0697 -0.2568
 1014MOL0     C36771   9.161   6.732   8.250  0.5536 -0.4187 -0.0294
 1014MOL0     N36772   9.031   6.747   8.317 -0.6153 -0.2529  0.1466
 1014MOL0     C36773   8.952   6.650   8.355 -0.4496  0.4921  0.7540
 1014MOL0     C36774   8.843   6.713   8.396 -0.5055  0.2538 -0.6226
 1014MOL0     C36775   8.714   6.633   8.434 -0.3835  0.3010  0.4924
 1014MOL0     C36776   8.637   6.607   8.301 -0.6223  0.3740  0.0000
 1014MOL0     C36777   8.525   6.502   8.329 -0.0069 -0.1059 -0.3005
 1014MOL0     C36778   8.440   6.468   8.207  0.3318  0.6239  0.4705
 1014MOL0     O36779   8.390   6.587   8.150 -0.5739  0.0068 -1.3721
 1014MOL0     C36780   8.307   6.671   8.221  0.3313 -0.2681  0.3446
 1014MOL0     C36781   8.309   6.806   8.184  0.9132  0.1508 -0.3694
 1014MOL0     C36782   8.225   6.897   8.251 -0.2711  1.7850 -0.0723
 1014MOL0     C36783   8.133   6.854   8.342  0.1545 -0.7415 -0.5180
 1014MOL0     C36784   8.030   6.951   8.404 -0.6240  0.4687  0.7234
 1014MOL0     O36785   7.945   6.904   8.502 -0.2540  0.2488 -0.0190
 1014MOL0     C36786   7.869   7.005   8.562 -0.6502  0.6786 -0.5273
 1014MOL0     C36787   7.757   7.075   8.498 -0.0064 -0.4837 -0.1485
 1014MOL0     C36788   7.679   7.162   8.584  0.0078 -0.3431 -0.5084
 1014MOL0     C36789   7.704   7.178   8.724 -0.7898  0.7136 -0.8507
 1014MOL0     O36790   7.616   7.223   8.813 -0.0229 -0.7199 -0.0101
 1014MOL0     C36791   7.506   7.306   8.772 -0.6091  0.3853 -0.0066
 1014MOL0     C36792   7.436   7.359   8.901  0.4396 -0.2341  0.2958
 1014MOL0     C36793   7.280   7.362   8.879 -0.4936 -1.1645  0.2451
 1014MOL0     C36794   7.204   7.439   8.986  0.4692  0.3787  0.4995
 1014MOL0     C36795   7.225   7.380   9.117  0.0388  0.0428 -0.4081
 1014MOL0     C36796   7.122   7.429   9.222 -0.4532  1.2965 -0.0059
 1014MOL0     C36797   7.143   7.355   9.356  0.5828 -0.4139 -1.2056
 1014MOL0     C36798   7.087   7.210   9.365 -0.1194  0.2425  0.2259
 1014MOL0    Cl36799   7.138   7.131   9.515  0.0252 -0.0624  0.2368
 1014MOL0     C36800   7.820   7.113   8.773  0.0845 -0.1768 -0.4635
 1014MOL0     C36801   7.890   7.022   8.697  0.5240 -0.8445  0.6548
 1014MOL0     O36802   8.047   7.067   8.378 -0.3195  0.1612  0.1504
 1014MOL0     C36803   8.132   6.722   8.380  0.4207 -0.0611  0.7656
 1014MOL0     C36804   8.222   6.629   8.326 -0.0129 -1.0476  0.9416
 1014MOL0     N36805   8.856   6.851   8.375 -0.2674 -0.1876 -0.3714
 1014MOL0     N36806   8.978   6.872   8.330  0.7516 -0.3463 -0.5560
 1014MOL0     C36807  10.202   6.614   8.673  0.9100  0.0473 -0.3355
 1014MOL0     C36808  10.297   6.524   8.709 -0.6975  0.0533  0.3869
 1014MOL0     C36809  10.575   6.200   8.791  0.9060 -0.1085 -0.1887
 1014MOL0     C36810  10.689   6.232   8.715  0.7488 -0.5428 -0.3788
 1014MOL0     C36811  10.785   6.134   8.697 -0.4993 -0.3375  0.3873
 1014MOL0     C36812  10.768   6.003   8.749  0.6064 -0.6509 -0.6555
 1014MOL0     O36813  10.865   5.910   8.729 -0.2104  0.6239  0.0993
 1014MOL0     C36814  11.004   5.938   8.766  0.3911 -0.1511 -0.3326
 1014MOL0     C36815  11.066   5.819   8.855  0.2893 -0.6551 -0.0460
 1014MOL0     C36816  10.973   5.775   8.972  0.1517 -0.3496  0.4865
 1014MOL0     C36817  11.027   5.668   9.062 -0.4719 -0.2228  1.0046
 1014MOL0     C36818  11.122   5.709   9.156  0.2591  0.7400  0.9721
 1014MOL0     C36819  11.186   5.752   9.255 -0.3935  0.2384  0.6418
 1014MOL0     C36820  10.652   5.977   8.828  0.5629 -0.4519  0.3448
 1014MOL0     C36821  10.551   6.071   8.851  0.7359 -0.5421  0.9381
 1014MOL0     C36822  10.427   6.040   8.933 -0.2665  0.0445  0.1220
 1014MOL0     H36823  10.111   6.255   8.759  4.6509 -0.7519  1.0132
 1014MOL0     H36824   9.934   6.400   8.712  0.0785 -1.3415  0.3980
 1014MOL0     H36825   9.802   6.585   8.753 -1.0908 -0.1153  0.3067
 1014MOL0     H36826   9.774   6.732   8.656  0.2351 -0.6156 -0.3046
 1014MOL0     H36827   9.841   6.458   8.541 -0.1551 -0.8127  3.7783
 1014MOL0     H36828   9.833   6.621   8.456  0.5947 -3.1905 -0.7423
 1014MOL0     H36829   9.592   6.644   8.537 -1.8121 -1.1768 -0.2452
 1014MOL0     H36830   9.601   6.471   8.568  1.1510 -0.9500 -0.8787
 1014MOL0     H36831   9.657   6.623   8.310  1.9669 -0.4948  0.2467
 1014MOL0     H36832   9.672   6.441   8.334 -1.5771 -0.3437 -4.6079
 1014MOL0     H36833   9.476   6.495   8.209 -0.4458 -2.2376 -0.7284
 1014MOL0     H36834   9.434   6.425   8.361 -2.8293  0.5142 -2.1851
 1014MOL0     H36835   9.375   6.655   8.453 -1.4210 -0.8402 -0.4186
 1014MOL0     H36836   9.429   6.723   8.297  3.2659 -1.7589 -2.3115
 1014MOL0     H36837   9.190   6.540   8.358 -0.9224 -0.4096 -1.2721
 1014MOL0     H36838   9.262   6.558   8.204 -0.6465  4.3116 -3.1205
 1014MOL0     H36839   9.224   6.818   8.277  0.8803 -1.3658  2.4333
 1014MOL0     H36840   9.149   6.747   8.142  0.0337  1.6323  0.2622
 1014MOL0     H36841   8.971   6.544   8.341 -0.5417  0.7338 -1.5242
 1014MOL0     H36842   8.746   6.543   8.487 -0.6026  0.4239  0.8339
 1014MOL0     H36843   8.651   6.680   8.510 -0.8652  0.9463 -0.2784
 1014MOL0     H36844   8.602   6.699   8.254 -4.1104 -0.0712  1.3668
 1014MOL0     H36845   8.705   6.552   8.235 -0.7596 -1.2542  1.1293
 1014MOL0     H36846   8.457   6.546   8.402  0.5440  6.1815 -2.9268
 1014MOL0     H36847   8.570   6.416   8.379 -0.5759  0.4424  1.2285
 1014MOL0     H36848   8.367   6.395   8.242 -0.6305  2.1323  1.7483
 1014MOL0     H36849   8.512   6.428   8.134  0.6601  2.0824 -0.0464
 1014MOL0     H36850   8.374   6.826   8.099  0.2310 -1.3781 -1.3052
 1014MOL0     H36851   8.235   7.002   8.224 -0.7947  1.8145 -0.1566
 1014MOL0     H36852   7.728   7.051   8.396  2.7917  2.4604 -1.8214
 1014MOL0     H36853   7.592   7.209   8.538  1.7156  2.3654 -1.2341
 1014MOL0     H36854   7.547   7.398   8.731  1.3987 -0.5584 -0.2210
 1014MOL0     H36855   7.436   7.239   8.720 -3.0201  1.1618  2.0203
 1014MOL0     H36856   7.448   7.279   8.975 -0.8468  0.9944  1.9185
 1014MOL0     H36857   7.484   7.452   8.930 -1.6229  2.2698 -3.4770
 1014MOL0     H36858   7.254   7.408   8.783  2.6461 -0.0159 -0.1677
 1014MOL0     H36859   7.235   7.263   8.882 -1.1866 -0.9552 -1.6796
 1014MOL0     H36860   7.097   7.430   8.964  0.9156  1.8303 -3.0187
 1014MOL0     H36861   7.222   7.547   8.980 -4.4911  1.4420  0.2045
 1014MOL0     H36862   7.326   7.399   9.155  0.5339 -0.4872 -1.4248
 1014MOL0     H36863   7.229   7.271   9.111 -1.1488  0.0201 -0.9206
 1014MOL0     H36864   7.115   7.538   9.236  2.0754  1.7215 -1.4364
 1014MOL0     H36865   7.023   7.396   9.189  1.1502 -0.5521 -3.5881
 1014MOL0     H36866   7.102   7.413   9.440  1.8303 -2.3932  0.8718
 1014MOL0     H36867   7.250   7.346   9.376  0.8692  1.7144 -1.5441
 1014MOL0     H36868   6.980   7.210   9.347  0.1774 -3.1084 -2.4975
 1014MOL0     H36869   7.127   7.146   9.286 -0.0684  0.0740  0.3865
 1014MOL0     H36870   7.850   7.112   8.878  1.1945 -2.6889 -0.7507
 1014MOL0     H36871   7.966   6.967   8.753  2.5109  2.0761  1.0711
 1014MOL0     H36872   8.053   6.678   8.441 -2.0516  1.4565 -1.1628
 1014MOL0     H36873   8.208   6.524   8.351  2.4668 -2.0572 -1.4280
 1014MOL0     H36874  10.223   6.719   8.656 -1.1347  0.3858 -1.0730
 1014MOL0     H36875  10.398   6.561   8.695 -0.3462 -1.9525 -5.0338
 1014MOL0     H36876  10.695   6.333   8.676 -0.1930 -0.7282 -1.0453
 1014MOL0     H36877  10.861   6.174   8.631 -1.8623 -0.2851 -1.2274
 1014MOL0     H36878  11.014   6.036   8.814 -0.5113 -0.6137  0.8431
 1014MOL0     H36879  11.069   5.958   8.679  3.0199 -0.3241  1.4797
 1014MOL0     H36880  11.165   5.856   8.881 -0.1893 -0.0987  1.0436
 1014MOL0     H36881  11.080   5.733   8.788 -2.2713 -0.3972 -1.0134
 1014MOL0     H36882  10.881   5.731   8.934  1.0262 -1.9752  0.2028
 1014MOL0     H36883  10.940   5.851   9.043  0.4995 -1.4633  1.8733
 1014MOL0     H36884  10.949   5.610   9.113 -1.1544 -0.0262  0.2147
 1014MOL0     H36885  11.084   5.608   8.991 -3.7514 -0.8711 -1.3084
 1014MOL0     H36886  11.233   5.787   9.344 -0.0320 -2.3714  1.5639
 1014MOL0     H36887  10.637   5.878   8.870 -0.5793 -0.4559 -0.0453
 1014MOL0     H36888  10.457   6.002   9.032 -1.0809  2.7298  1.4848
 1014MOL0     H36889  10.375   6.130   8.967  2.1325  1.0302  1.4088
 1014MOL0     H36890  10.359   5.973   8.881  0.6093 -0.2630 -0.6556
 1015MOL0     O36891  10.224   1.903   6.388 -0.3469  0.1004 -0.0482
 1015MOL0     C36892  10.223   1.934   6.268 -0.8287  0.5054  0.1366
 1015MOL0     O36893  10.332   1.940   6.187 -0.3464 -0.0502 -0.4361
 1015MOL0     C36894  10.454   1.906   6.241  1.1229  0.1167  1.2850
 1015MOL0     C36895  10.481   1.781   6.301 -0.5673 -0.5637  0.0370
 1015MOL0     C36896  10.598   1.750   6.355 -0.9398 -1.0289 -0.4930
 1015MOL0     C36897  10.707   1.840   6.343 -0.5098  0.1302  0.4126
 1015MOL0     O36898  10.829   1.811   6.401 -0.2235 -0.0210 -0.1419
 1015MOL0     C36899  10.903   1.695   6.354 -0.8010  0.3893  0.3911
 1015MOL0     C36900  11.022   1.693   6.452 -0.5960  0.2228 -0.2606
 1015MOL0     C36901  10.997   1.703   6.615  1.1351 -0.3377 -0.0225
 1015MOL0     C36902  11.123   1.710   6.699 -0.9050 -0.0452 -0.3356
 1015MOL0     C36903  11.086   1.698   6.850 -0.0861 -0.1274 -0.2840
 1015MOL0     C36904  11.209   1.703   6.954 -0.8366  0.0173  0.2914
 1015MOL0     C36905  11.145   1.722   7.093  0.4372  0.0974  0.4619
 1015MOL0     C36906  11.255   1.755   7.190 -0.5593 -0.6621  0.4376
 1015MOL0     N36907  11.196   1.748   7.329  0.8587  0.3684 -0.3812
 1015MOL0     C36908  11.137   1.854   7.393  0.5775  0.0849  0.2228
 1015MOL0     C36909  11.047   1.800   7.478  1.3636 -0.2903 -1.1608
 1015MOL0     C36910  10.930   1.860   7.549 -0.3916 -0.3867 -0.2821
 1015MOL0     C36911  10.973   1.892   7.690  0.5487  0.5252  0.0257
 1015MOL0     C36912  10.859   1.963   7.765  1.4132 -0.8700 -0.4919
 1015MOL0     C36913  10.891   2.010   7.902 -0.3009 -0.4126 -0.5034
 1015MOL0     O36914  10.960   1.905   7.977 -0.6102 -0.1549  0.2404
 1015MOL0     C36915  10.998   1.935   8.104 -0.5093 -0.0765  0.7419
 1015MOL0     C36916  10.995   1.827   8.194  0.2246  0.1927  0.0430
 1015MOL0     C36917  11.034   1.844   8.330 -0.3332 -0.0522  0.1389
 1015MOL0     C36918  11.068   1.970   8.372  0.4849 -0.5755  0.6162
 1015MOL0     C36919  11.092   1.997   8.517 -0.2149  0.5202 -0.2852
 1015MOL0     O36920  11.101   1.887   8.597 -0.8485  0.3608  0.3349
 1015MOL0     C36921  11.116   1.882   8.732  0.1902  0.4219  0.0090
 1015MOL0     C36922  11.187   1.779   8.796  0.9499  0.2673  0.0373
 1015MOL0     C36923  11.220   1.784   8.936  0.4232  0.4928  0.0911
 1015MOL0     C36924  11.179   1.884   9.015  0.2167 -0.5943 -0.7377
 1015MOL0     O36925  11.227   1.863   9.142  0.2090 -0.2096 -0.4666
 1015MOL0     C36926  11.169   1.951   9.237  0.5900 -0.6245 -0.9161
 1015MOL0     C36927  11.223   1.931   9.381 -1.2216 -1.3646 -0.5445
 1015MOL0     C36928  11.194   1.803   9.448  0.4839  1.0780 -0.0035
 1015MOL0     C36929  11.200   1.665   9.367  0.3046  0.1301 -0.3646
 1015MOL0     C36930  11.197   1.548   9.465 -0.2162  0.4466 -0.8777
 1015MOL0     C36931  11.058   1.539   9.550 -0.3190 -1.1657 -0.0012
 1015MOL0     C36932  11.048   1.445   9.667 -0.3118  0.0282 -0.2005
 1015MOL0     C36933  11.144   1.474   9.771 -0.7168  0.5580  0.7088
 1015MOL0    Cl36934  11.162   1.343   9.899 -0.1332 -0.6498 -0.0947
 1015MOL0     C36935  11.104   1.988   8.964 -0.4462  0.4070  0.1667
 1015MOL0     C36936  11.081   1.987   8.827  0.6539  0.6826 -0.1727
 1015MOL0     O36937  11.118   2.104   8.561 -0.7324 -0.4802 -0.4423
 1015MOL0     C36938  11.052   2.080   8.286  0.8183 -0.7722 -0.4164
 1015MOL0     C36939  11.002   2.064   8.155 -0.9633 -0.4792 -0.5586
 1015MOL0     N36940  11.057   1.659   7.478 -0.2219 -0.2941 -0.5144
 1015MOL0     N36941  11.155   1.632   7.393  0.1900  0.0104  0.1421
 1015MOL0     C36942  10.685   1.961   6.280 -0.3149  0.0385 -0.3024
 1015MOL0     C36943  10.557   2.002   6.233 -0.6042  0.8057 -0.3502
 1015MOL0     C36944  10.091   1.972   6.197 -0.4921 -0.4508 -0.4982
 1015MOL0     C36945  10.103   2.050   6.080  0.0107  0.2521  0.1103
 1015MOL0     C36946   9.989   2.100   6.016 -0.5271  0.5133  0.6688
 1015MOL0     C36947   9.858   2.080   6.065  0.8851  0.2608 -0.9208
 1015MOL0     O36948   9.739   2.140   6.034  0.4160 -0.1517  0.2757
 1015MOL0     C36949   9.713   2.198   5.913  0.2811  0.7822  0.6362
 1015MOL0     C36950   9.561   2.188   5.895  0.2165  0.5749 -0.2410
 1015MOL0     C36951   9.526   2.031   5.897  0.4712 -1.4282  0.3411
 1015MOL0     C36952   9.418   1.997   5.789  0.0261 -0.2811 -0.4501
 1015MOL0     C36953   9.286   2.036   5.824  0.0718 -0.4257  0.8079
 1015MOL0     C36954   9.168   2.065   5.841 -0.2736 -0.4054  0.4478
 1015MOL0     C36955   9.846   1.988   6.176 -0.2724 -0.0531 -0.6440
 1015MOL0     C36956   9.971   1.931   6.238  1.3477  0.9325  0.4101
 1015MOL0     C36957   9.944   1.846   6.359 -0.5267 -0.4015  0.3560
 1015MOL0     H36958  10.401   1.708   6.296 -0.3319 -0.7687 -2.8081
 1015MOL0     H36959  10.633   1.665   6.413  0.4863  2.0980  3.7074
 1015MOL0     H36960  10.845   1.602   6.348 -0.5161 -0.1514  3.9281
 1015MOL0     H36961  10.954   1.707   6.258 -2.0405 -1.8484 -0.6283
 1015MOL0     H36962  11.095   1.767   6.418 -1.0368  1.2063  0.8559
 1015MOL0     H36963  11.078   1.599   6.446  0.7338  0.9778 -0.1488
 1015MOL0     H36964  10.947   1.619   6.663  1.0981  1.9665  4.5170
 1015MOL0     H36965  10.924   1.784   6.629 -2.1522 -2.8064 -1.4911
 1015MOL0     H36966  11.196   1.630   6.682 -0.9426 -0.2308  0.3570
 1015MOL0     H36967  11.175   1.800   6.663 -0.4773 -0.4281 -0.6931
 1015MOL0     H36968  11.023   1.786   6.864  1.5596  1.1186 -0.3617
 1015MOL0     H36969  11.018   1.614   6.866 -0.4101  0.2112  0.1155
 1015MOL0     H36970  11.256   1.605   6.940  0.0671  0.7595 -2.6699
 1015MOL0     H36971  11.266   1.793   6.929 -1.7475  0.5473  0.0765
 1015MOL0     H36972  11.083   1.637   7.124  0.7263 -0.1233  0.4415
 1015MOL0     H36973  11.075   1.803   7.075 -1.2271 -1.2445  0.6322
 1015MOL0     H36974  11.336   1.682   7.198 -0.4753 -0.3441  3.6327
 1015MOL0     H36975  11.301   1.852   7.169 -0.6917 -1.0653 -2.0467
 1015MOL0     H36976  11.147   1.959   7.367 -0.4064 -0.3316 -2.0829
 1015MOL0     H36977  10.890   1.949   7.499  1.3718 -0.1575 -1.3743
 1015MOL0     H36978  10.851   1.785   7.547  1.7595 -2.7663 -1.8485
 1015MOL0     H36979  10.983   1.799   7.747 -2.6088  1.0786  1.7847
 1015MOL0     H36980  11.059   1.959   7.688 -1.1154  2.7906 -0.8257
 1015MOL0     H36981  10.770   1.901   7.778  1.1874 -0.1967  1.5797
 1015MOL0     H36982  10.836   2.051   7.704  0.8749  0.0152  0.9207
 1015MOL0     H36983  10.803   2.040   7.959  1.2899  1.0753  1.3378
 1015MOL0     H36984  10.943   2.105   7.887  0.9434 -0.8166  0.9742
 1015MOL0     H36985  10.960   1.734   8.151 -0.2006  0.2964  0.1583
 1015MOL0     H36986  11.034   1.753   8.390 -0.7407 -0.4008 -0.3757
 1015MOL0     H36987  11.238   1.705   8.735  1.5024  0.2495  0.5000
 1015MOL0     H36988  11.269   1.697   8.977 -0.7811 -0.9828 -1.4584
 1015MOL0     H36989  11.180   2.057   9.214  1.3476 -0.9463 -2.1144
 1015MOL0     H36990  11.061   1.935   9.243  0.8381 -2.5940 -1.2321
 1015MOL0     H36991  11.332   1.930   9.370 -0.9734 -0.8604  1.4310
 1015MOL0     H36992  11.186   2.014   9.441 -2.9062 -0.4975 -2.6752
 1015MOL0     H36993  11.261   1.786   9.532 -0.6920 -1.6135  0.5125
 1015MOL0     H36994  11.094   1.810   9.493  0.4664  1.4701 -0.1045
 1015MOL0     H36995  11.290   1.656   9.306  1.0394  2.6524  0.2302
 1015MOL0     H36996  11.117   1.658   9.297  1.1833 -1.3515 -1.3108
 1015MOL0     H36997  11.284   1.568   9.528 -0.0897  3.6616 -1.8949
 1015MOL0     H36998  11.213   1.450   9.420 -0.5695  0.6058 -1.3584
 1015MOL0     H36999  11.048   1.643   9.585  0.5527 -0.6799 -1.1387
 1015MOL0     H37000  10.967   1.514   9.495 -0.9163 -3.9333  2.0327
 1015MOL0     H37001  11.061   1.340   9.638 -0.7727  0.2706 -1.3365
 1015MOL0     H37002  10.954   1.462   9.720  0.4761  0.5659  1.0729
 1015MOL0     H37003  11.248   1.478   9.735  0.9751 -0.5531  4.8293
 1015MOL0     H37004  11.119   1.565   9.826  0.0868  0.2099  1.6800
 1015MOL0     H37005  11.058   2.056   9.035 -2.3954 -1.2181  0.5657
 1015MOL0     H37006  11.030   2.076   8.790  0.5366  1.0102  0.7496
 1015MOL0     H37007  11.057   2.180   8.326  2.0842 -0.4409 -1.3235
 1015MOL0     H37008  10.981   2.157   8.103  0.7078  0.9627  1.2430
 1015MOL0     H37009  10.773   2.020   6.258  0.7090 -1.0304  0.7406
 1015MOL0     H37010  10.555   2.096   6.178 -0.1806  0.9181 -0.1851
 1015MOL0     H37011  10.198   2.089   6.047 -0.8068 -0.0714 -2.9742
 1015MOL0     H37012  10.004   2.165   5.931  1.4551 -2.7942 -1.7076
 1015MOL0     H37013   9.772   2.150   5.835 -1.2127 -2.8526  1.5366
 1015MOL0     H37014   9.731   2.306   5.909  1.6078  0.5284 -1.1616
 1015MOL0     H37015   9.548   2.239   5.799 -0.9355  0.5504 -0.1161
 1015MOL0     H37016   9.507   2.241   5.975 -0.0522  0.6251 -0.4534
 1015MOL0     H37017   9.500   2.009   6.001  1.9927  1.5853  1.4858
 1015MOL0     H37018   9.620   1.978   5.876  1.3301 -1.0505  2.8927
 1015MOL0     H37019   9.451   2.047   5.697 -0.4505  0.8235 -0.0342
 1015MOL0     H37020   9.396   1.891   5.772  4.4640 -1.3993 -0.3413
 1015MOL0     H37021   9.073   2.104   5.872 -0.3054  1.6488 -1.9126
 1015MOL0     H37022   9.744   1.971   6.210 -1.2139  1.2174 -2.6110
 1015MOL0     H37023   9.840   1.813   6.367 -1.2495  1.2730 -1.2541
 1015MOL0     H37024  10.020   1.769   6.374  0.7071  0.9716  1.4747
 1015MOL0     H37025   9.965   1.909   6.446  0.7652  1.7848 -1.4117
 1016MOL0     O37026   6.103   2.447   5.783 -0.5333  0.2311 -0.8839
 1016MOL0     C37027   6.080   2.540   5.705  0.0662 -0.4116  1.6852
 1016MOL0     O37028   6.130   2.662   5.699  0.2359  0.1906  1.1060
 1016MOL0     C37029   6.178   2.707   5.813 -0.6004  0.8714  0.5499
 1016MOL0     C37030   6.099   2.790   5.879 -0.2520  0.0971 -1.0172
 1016MOL0     C37031   6.159   2.858   5.991  0.0370 -0.0757  0.7741
 1016MOL0     C37032   6.293   2.852   6.013 -0.2372 -0.3316 -0.4170
 1016MOL0     O37033   6.354   2.932   6.106 -0.3998 -0.6687  0.2277
 1016MOL0     C37034   6.499   2.927   6.129  0.0491 -0.4867  0.8551
 1016MOL0     C37035   6.525   3.024   6.243 -0.4926  0.2430  0.0749
 1016MOL0     C37036   6.672   2.996   6.303  0.1001 -0.4978  0.6817
 1016MOL0     C37037   6.778   3.040   6.205  0.4151 -1.0854 -0.9686
 1016MOL0     C37038   6.918   3.010   6.258  0.8384 -0.2450  0.2185
 1016MOL0     C37039   6.960   2.861   6.262  0.4499  0.0641 -0.1237
 1016MOL0     C37040   7.105   2.841   6.308  0.2621 -0.6871 -0.1936
 1016MOL0     C37041   7.148   2.845   6.447  0.8042  0.0728 -0.1569
 1016MOL0     N37042   7.048   2.790   6.534  0.1993  0.2123 -0.6567
 1016MOL0     C37043   6.972   2.674   6.518  0.2213  0.3069  0.0682
 1016MOL0     C37044   6.892   2.669   6.628 -1.3206  0.8987  0.0647
 1016MOL0     C37045   6.816   2.544   6.651 -0.5900 -0.4864 -1.1463
 1016MOL0     C37046   6.671   2.557   6.635 -0.7856 -0.3553  0.0153
 1016MOL0     C37047   6.621   2.573   6.486 -0.4902 -0.5049  1.2126
 1016MOL0     C37048   6.486   2.638   6.476 -0.6702 -0.3076 -0.3534
 1016MOL0     O37049   6.434   2.634   6.343 -0.1298  0.5092 -0.2560
 1016MOL0     C37050   6.297   2.618   6.335  0.8274 -0.2973 -0.3484
 1016MOL0     C37051   6.200   2.629   6.437  1.2653  0.5188  0.5319
 1016MOL0     C37052   6.068   2.627   6.409  0.0746  0.0589 -0.2275
 1016MOL0     C37053   6.023   2.594   6.277 -0.0975 -0.3502 -0.3010
 1016MOL0     C37054   5.875   2.555   6.266  0.0928  1.1984 -0.7331
 1016MOL0     O37055   5.816   2.561   6.149 -0.5382 -0.6779  0.3309
 1016MOL0     C37056   5.687   2.516   6.131 -0.5471  0.2830 -0.0997
 1016MOL0     C37057   5.585   2.596   6.076  0.1702  0.0576 -0.2570
 1016MOL0     C37058   5.457   2.554   6.089 -0.4618  0.3584  0.4393
 1016MOL0     C37059   5.429   2.429   6.138  0.3667  0.8919  0.5012
 1016MOL0     O37060   5.303   2.374   6.147 -0.4261 -0.3167  0.7072
 1016MOL0     C37061   5.191   2.453   6.101 -0.2118  0.1982  0.6189
 1016MOL0     C37062   5.063   2.386   6.103  0.3550  0.4651  0.0814
 1016MOL0     C37063   5.065   2.253   6.018  0.1157 -1.1723  0.3297
 1016MOL0     C37064   4.923   2.219   5.962 -0.3152 -0.0141 -0.5318
 1016MOL0     C37065   4.906   2.302   5.838 -0.7378 -0.5809  0.0827
 1016MOL0     C37066   4.758   2.341   5.798 -0.3733  0.0417 -0.0096
 1016MOL0     C37067   4.695   2.210   5.751  0.3560  0.6317  0.3874
 1016MOL0     C37068   4.554   2.236   5.684  0.2068  0.7470  0.2989
 1016MOL0    Cl37069   4.465   2.367   5.773  0.2879  0.1537 -0.3120
 1016MOL0     C37070   5.532   2.336   6.182  0.6417  0.0779  0.1365
 1016MOL0     C37071   5.661   2.381   6.162  0.1610  0.3468 -0.9946
 1016MOL0     O37072   5.821   2.500   6.373  0.5080 -1.0005  0.1134
 1016MOL0     C37073   6.120   2.568   6.180  0.3382 -0.9690 -0.1491
 1016MOL0     C37074   6.254   2.585   6.209  0.3253 -0.1430  0.0552
 1016MOL0     N37075   6.928   2.765   6.713 -0.2613  0.5976  0.1755
 1016MOL0     N37076   7.009   2.845   6.655 -0.0450  0.3380  0.3108
 1016MOL0     C37077   6.368   2.762   5.939 -0.9841 -0.0730  0.0336
 1016MOL0     C37078   6.311   2.686   5.838  0.1717 -1.0842  1.0311
 1016MOL0     C37079   5.984   2.504   5.595 -0.1669 -0.6627 -0.5266
 1016MOL0     C37080   5.923   2.608   5.535  0.4573 -0.1563 -0.0741
 1016MOL0     C37081   5.825   2.588   5.432 -0.1026 -0.3166  0.0059
 1016MOL0     C37082   5.788   2.460   5.395  0.2384  0.7092 -0.2039
 1016MOL0     O37083   5.698   2.442   5.292 -0.4873  0.2756  0.4704
 1016MOL0     C37084   5.736   2.340   5.204  0.1091 -1.2441  0.6055
 1016MOL0     C37085   5.626   2.341   5.102  0.1412 -0.1946  0.8605
 1016MOL0     C37086   5.669   2.257   4.975 -0.5794  0.7359  0.1747
 1016MOL0     C37087   5.651   2.103   4.992 -0.1064 -0.3325  0.6654
 1016MOL0     C37088   5.695   2.029   4.869  0.9576 -0.2308 -1.5787
 1016MOL0     C37089   5.726   1.987   4.764 -0.2151 -0.0646  0.2764
 1016MOL0     C37090   5.841   2.355   5.465 -0.6241 -1.3358 -0.1441
 1016MOL0     C37091   5.942   2.373   5.566 -0.3553 -0.0320 -0.4241
 1016MOL0     C37092   5.998   2.252   5.624 -0.1495 -0.5129 -0.6547
 1016MOL0     H37093   6.000   2.813   5.843 -0.6589 -1.4552 -0.9443
 1016MOL0     H37094   6.088   2.930   6.031  0.7559  2.2296 -1.8556
 1016MOL0     H37095   6.532   2.830   6.166 -1.5940 -0.4099  2.6508
 1016MOL0     H37096   6.547   2.964   6.038 -2.1660  0.0707 -0.1561
 1016MOL0     H37097   6.448   2.993   6.315 -1.0913 -3.2089 -1.8699
 1016MOL0     H37098   6.507   3.128   6.212 -0.9419  0.0221 -0.4080
 1016MOL0     H37099   6.684   2.888   6.320  0.4608 -0.2630  1.9700
 1016MOL0     H37100   6.675   3.045   6.400 -1.0895 -0.5937  0.7800
 1016MOL0     H37101   6.766   3.001   6.104  0.7145 -1.9405 -0.6935
 1016MOL0     H37102   6.769   3.148   6.196  0.0663 -1.2704 -3.6295
 1016MOL0     H37103   6.973   3.064   6.180  0.0547  0.7947  0.3774
 1016MOL0     H37104   6.921   3.056   6.357 -1.7948 -1.9659  1.1934
 1016MOL0     H37105   6.888   2.810   6.327 -1.1498  1.0685 -1.0337
 1016MOL0     H37106   6.950   2.820   6.161 -1.2846  1.1826 -0.4578
 1016MOL0     H37107   7.167   2.907   6.247  0.2284 -1.0152 -0.5905
 1016MOL0     H37108   7.121   2.741   6.266 -3.7081 -0.4227 -2.9897
 1016MOL0     H37109   7.250   2.806   6.449  1.6220  2.0829 -0.4080
 1016MOL0     H37110   7.141   2.951   6.474 -2.1292 -0.2596  0.6815
 1016MOL0     H37111   6.990   2.594   6.447  0.6406 -0.5171  1.0755
 1016MOL0     H37112   6.852   2.463   6.586  1.1137  0.4699 -1.4460
 1016MOL0     H37113   6.833   2.509   6.754  0.8358 -3.2038 -2.2095
 1016MOL0     H37114   6.637   2.462   6.676 -2.8404 -1.2693 -3.3631
 1016MOL0     H37115   6.633   2.646   6.686 -1.0415  0.4303 -1.4821
 1016MOL0     H37116   6.609   2.480   6.430 -1.5351  1.5330 -2.2748
 1016MOL0     H37117   6.691   2.630   6.424  0.5920 -0.5483  2.3370
 1016MOL0     H37118   6.492   2.737   6.524 -0.7469 -2.1535  3.9322
 1016MOL0     H37119   6.422   2.579   6.542  0.8914 -0.3422  1.2117
 1016MOL0     H37120   6.224   2.656   6.539 -2.0919  0.3806  1.4751
 1016MOL0     H37121   5.993   2.627   6.488  1.5511  0.6934  1.2564
 1016MOL0     H37122   5.602   2.698   6.046  1.2039 -0.2348 -0.6935
 1016MOL0     H37123   5.378   2.623   6.061  0.3040  0.5045 -1.5506
 1016MOL0     H37124   5.193   2.546   6.158 -1.4118 -0.0541  1.1030
 1016MOL0     H37125   5.217   2.482   5.998 -0.3611 -3.6524 -0.6701
 1016MOL0     H37126   5.036   2.368   6.208  3.3478 -2.2006  0.5354
 1016MOL0     H37127   4.991   2.452   6.055 -1.0555 -0.2590  1.1211
 1016MOL0     H37128   5.135   2.275   5.937 -0.0745  1.0425  0.6854
 1016MOL0     H37129   5.093   2.171   6.085 -1.5862 -0.1348  2.4667
 1016MOL0     H37130   4.839   2.219   6.033  0.3574  2.6573  0.3770
 1016MOL0     H37131   4.922   2.114   5.932  1.6584  0.4497 -2.4938
 1016MOL0     H37132   4.971   2.263   5.760  1.5053 -0.3768  1.7555
 1016MOL0     H37133   4.946   2.403   5.853 -1.6934 -0.2052  0.1603
 1016MOL0     H37134   4.702   2.390   5.878  1.2033 -0.5498  1.5035
 1016MOL0     H37135   4.767   2.406   5.710  3.4638  0.7443  0.7169
 1016MOL0     H37136   4.675   2.155   5.843  1.2545  0.0813  0.2625
 1016MOL0     H37137   4.763   2.153   5.686 -0.9691 -0.1004 -0.4301
 1016MOL0     H37138   4.569   2.291   5.590  0.5533  1.0615  0.5345
 1016MOL0     H37139   4.499   2.144   5.663  0.2402  1.0633 -1.3567
 1016MOL0     H37140   5.511   2.240   6.227  1.1821  0.6045  1.5662
 1016MOL0     H37141   5.736   2.315   6.205 -0.5580 -0.0925 -0.4065
 1016MOL0     H37142   6.075   2.550   6.083 -0.6722 -0.2829  0.1873
 1016MOL0     H37143   6.336   2.562   6.141  1.0211 -2.3730  1.5423
 1016MOL0     H37144   6.470   2.735   5.963 -0.8965 -1.2257 -1.4505
 1016MOL0     H37145   6.374   2.627   5.771  0.1086  1.3535 -1.3596
 1016MOL0     H37146   5.942   2.712   5.558 -1.0728 -0.2452  1.8820
 1016MOL0     H37147   5.787   2.672   5.375  0.5052  0.9852  1.4585
 1016MOL0     H37148   5.750   2.243   5.253  1.0906 -1.4366 -0.0454
 1016MOL0     H37149   5.833   2.366   5.163 -0.0289 -0.5493  0.7125
 1016MOL0     H37150   5.604   2.441   5.062 -3.7126 -0.9305  0.7327
 1016MOL0     H37151   5.531   2.305   5.143  0.5017 -0.3590  1.5627
 1016MOL0     H37152   5.766   2.269   4.927 -2.4997  1.5931 -3.9213
 1016MOL0     H37153   5.607   2.294   4.893  0.5285 -1.4912 -1.7842
 1016MOL0     H37154   5.699   2.065   5.083  1.2170  2.2518  1.1699
 1016MOL0     H37155   5.544   2.083   4.993 -0.1452 -0.1282  0.6775
 1016MOL0     H37156   5.763   1.945   4.672 -1.5159 -2.0943  0.6269
 1016MOL0     H37157   5.801   2.259   5.433  0.9110 -1.9059 -0.4572
 1016MOL0     H37158   5.971   2.163   5.568  3.4620 -1.1024 -1.7502
 1016MOL0     H37159   6.107   2.248   5.640 -0.3536  1.2043  1.8960
 1016MOL0     H37160   5.957   2.250   5.726  4.4306 -0.2199  1.4541
 1017MOL0     O37161   6.488   2.102   1.453  0.0501 -0.5382 -0.2562
 1017MOL0     C37162   6.467   2.195   1.376 -0.9592  0.5153  0.2837
 1017MOL0     O37163   6.424   2.181   1.249  0.2357 -0.5067 -0.2470
 1017MOL0     C37164   6.370   2.060   1.209 -0.7078  0.2204 -0.2387
 1017MOL0     C37165   6.442   1.971   1.131 -0.0555 -0.3820  0.6173
 1017MOL0     C37166   6.393   1.842   1.102  0.6644  0.8430 -0.3222
 1017MOL0     C37167   6.265   1.799   1.127 -0.4709 -0.6007 -0.5800
 1017MOL0     O37168   6.223   1.686   1.053 -0.4553  0.4704 -0.0409
 1017MOL0     C37169   6.091   1.639   1.081  0.2458 -0.0425 -0.2341
 1017MOL0     C37170   6.053   1.515   0.996 -0.2817  0.2135 -0.3363
 1017MOL0     C37171   5.926   1.442   1.043 -0.8177  0.8092 -1.9770
 1017MOL0     C37172   5.802   1.530   1.043  0.1494 -0.8656 -0.0892
 1017MOL0     C37173   5.745   1.569   0.903 -0.3050  0.0936 -0.5207
 1017MOL0     C37174   5.593   1.567   0.888 -0.6581  0.0957 -0.4098
 1017MOL0     C37175   5.540   1.437   0.816 -0.7140 -0.3956 -1.1743
 1017MOL0     C37176   5.396   1.443   0.792  0.3559  0.7701  0.0316
 1017MOL0     N37177   5.326   1.318   0.814  0.2869  0.2677  0.5601
 1017MOL0     C37178   5.360   1.211   0.736  0.2868  0.7717 -0.3115
 1017MOL0     C37179   5.260   1.120   0.758  0.4908  0.4519 -0.1135
 1017MOL0     C37180   5.268   0.983   0.707 -0.5995 -0.4053  0.0769
 1017MOL0     C37181   5.146   0.922   0.659 -0.3886  0.4356 -0.8548
 1017MOL0     C37182   5.163   0.771   0.624 -0.2041  0.6741  0.3108
 1017MOL0     C37183   5.055   0.735   0.518  0.4782 -0.3211 -0.3657
 1017MOL0     O37184   4.919   0.737   0.571 -0.2598 -0.2225  1.2836
 1017MOL0     C37185   4.810   0.691   0.493 -0.4396  0.9015  0.1101
 1017MOL0     C37186   4.829   0.672   0.359  0.2941 -0.5569 -1.0374
 1017MOL0     C37187   4.723   0.636   0.286  0.1195 -1.0892 -0.5276
 1017MOL0     C37188   4.596   0.609   0.342  0.5032 -0.6829  0.4939
 1017MOL0     C37189   4.477   0.583   0.253 -0.4286 -0.2746  0.3057
 1017MOL0     O37190   4.350   0.602   0.293  0.3258 -0.3255 -0.5731
 1017MOL0     C37191   4.257   0.602   0.193  0.4961 -0.4087  0.0560
 1017MOL0     C37192   4.246   0.703   0.093 -0.1432  1.0307 -0.4300
 1017MOL0     C37193   4.130   0.701   0.017  0.1521 -0.5319 -0.5552
 1017MOL0     C37194   4.038   0.602   0.022  0.0302 -0.1324 -0.1360
 1017MOL0     O37195   3.929   0.599  -0.058  0.0203  0.2561 -0.0258
 1017MOL0     C37196   3.947   0.578  -0.202 -0.2922 -0.8723 -0.7278
 1017MOL0     C37197   3.822   0.614  -0.287 -0.0594 -0.7545 -0.5952
 1017MOL0     C37198   3.847   0.636  -0.438  0.7464  0.7244 -0.3306
 1017MOL0     C37199   3.928   0.771  -0.456 -0.3671 -0.6867 -0.2388
 1017MOL0     C37200   3.908   0.801  -0.600  0.0940 -0.4253 -0.5713
 1017MOL0     C37201   4.022   0.893  -0.653  0.8394  0.0548  0.0305
 1017MOL0     C37202   3.976   0.971  -0.774  0.4977 -0.4937 -0.3814
 1017MOL0     C37203   4.075   1.081  -0.820 -0.4996  0.3773 -0.9346
 1017MOL0    Cl37204   4.248   1.039  -0.835  0.2914 -0.2112 -0.2464
 1017MOL0     C37205   4.043   0.506   0.123 -0.2051  0.0875  0.2675
 1017MOL0     C37206   4.153   0.505   0.205 -0.3416 -0.2939  0.9471
 1017MOL0     O37207   4.508   0.548   0.139 -0.3436 -0.0365 -0.0466
 1017MOL0     C37208   4.577   0.611   0.473 -0.5615 -0.0238 -0.2376
 1017MOL0     C37209   4.686   0.665   0.550  0.5458 -0.3584  0.2340
 1017MOL0     N37210   5.187   1.169   0.853  0.0137 -0.0643 -0.5570
 1017MOL0     N37211   5.212   1.294   0.878 -0.4723  0.9092  0.6771
 1017MOL0     C37212   6.193   1.889   1.215 -0.5684  0.5224 -0.5361
 1017MOL0     C37213   6.245   2.013   1.257  0.1608 -0.7492  0.7259
 1017MOL0     C37214   6.512   2.332   1.418  0.0481 -0.1538  0.2255
 1017MOL0     C37215   6.515   2.440   1.327  0.2975  0.5603  0.0949
 1017MOL0     C37216   6.559   2.558   1.360 -1.0510 -0.4251 -0.4785
 1017MOL0     C37217   6.611   2.588   1.484 -0.1290  0.7645 -0.1813
 1017MOL0     O37218   6.668   2.713   1.511 -0.0837  0.0847 -0.3750
 1017MOL0     C37219   6.725   2.736   1.639  0.5235 -0.1069  0.1080
 1017MOL0     C37220   6.778   2.875   1.655 -0.0369  0.2710  1.5926
 1017MOL0     C37221   6.866   2.937   1.541 -0.4425 -0.3717  0.4284
 1017MOL0     C37222   6.910   3.086   1.547 -1.1333 -0.3897 -0.5672
 1017MOL0     C37223   6.979   3.122   1.677 -0.1604  0.3502  0.1889
 1017MOL0     C37224   7.052   3.117   1.778  0.2007 -0.3081  0.7982
 1017MOL0     C37225   6.613   2.486   1.585  0.1584 -0.2865  0.7866
 1017MOL0     C37226   6.557   2.359   1.549  0.9306 -0.4274 -1.4126
 1017MOL0     C37227   6.572   2.265   1.669 -0.1642 -0.1163  0.1471
 1017MOL0     H37228   6.539   1.996   1.090 -1.0165  0.6336 -1.2055
 1017MOL0     H37229   6.450   1.786   1.028 -0.5896  0.2556 -0.8611
 1017MOL0     H37230   6.077   1.616   1.187  1.1772  1.0329  0.1407
 1017MOL0     H37231   6.024   1.713   1.036  2.1673  1.6466 -0.4296
 1017MOL0     H37232   6.140   1.449   0.989 -0.6040 -0.1143 -1.3486
 1017MOL0     H37233   6.033   1.550   0.894 -0.4542  2.9751  0.5399
 1017MOL0     H37234   5.944   1.406   1.145 -0.2176  0.8167 -2.0805
 1017MOL0     H37235   5.905   1.358   0.976 -1.7154 -1.8755  1.3412
 1017MOL0     H37236   5.728   1.476   1.103  1.5496 -0.4241  2.1630
 1017MOL0     H37237   5.822   1.625   1.095  1.6182 -0.6334 -1.0223
 1017MOL0     H37238   5.781   1.667   0.870 -0.2715 -0.4077 -2.0525
 1017MOL0     H37239   5.774   1.501   0.823 -4.6693 -0.8637 -1.5669
 1017MOL0     H37240   5.537   1.569   0.981  0.4807 -2.4645  0.4474
 1017MOL0     H37241   5.572   1.653   0.824 -1.3283  0.1470 -0.1230
 1017MOL0     H37242   5.563   1.354   0.884 -1.1302  1.0618  0.8589
 1017MOL0     H37243   5.591   1.431   0.720 -0.0607  2.0647 -1.0580
 1017MOL0     H37244   5.355   1.518   0.860  0.4475 -0.0783  1.0475
 1017MOL0     H37245   5.381   1.472   0.687 -1.3071  0.2855  0.0997
 1017MOL0     H37246   5.441   1.200   0.666 -2.1008 -0.7353 -3.0317
 1017MOL0     H37247   5.353   0.973   0.639 -0.3194 -1.0104  0.5025
 1017MOL0     H37248   5.300   0.921   0.792  2.2180  0.8584  0.0742
 1017MOL0     H37249   5.077   0.923   0.744 -1.1253 -2.0063 -1.3501
 1017MOL0     H37250   5.100   0.982   0.580 -0.3037 -0.3060 -1.4756
 1017MOL0     H37251   5.170   0.709   0.714 -0.0561  2.5909  1.6889
 1017MOL0     H37252   5.255   0.757   0.566  0.4264  2.3775  0.8368
 1017MOL0     H37253   5.079   0.636   0.479  0.2600 -0.7278  0.5173
 1017MOL0     H37254   5.065   0.799   0.429  0.8568 -0.1557 -0.2063
 1017MOL0     H37255   4.923   0.677   0.305 -0.1301  0.5811 -1.7160
 1017MOL0     H37256   4.737   0.631   0.178  1.0064  1.1323 -0.5820
 1017MOL0     H37257   4.321   0.781   0.086  3.0007 -1.8374 -1.8810
 1017MOL0     H37258   4.129   0.773  -0.064  0.2204  0.3060  0.1635
 1017MOL0     H37259   4.026   0.648  -0.230 -2.3347  1.1578 -1.7119
 1017MOL0     H37260   3.983   0.477  -0.225  0.3070 -1.1370  1.1739
 1017MOL0     H37261   3.774   0.516  -0.279  1.2653 -1.4556 -0.9070
 1017MOL0     H37262   3.745   0.679  -0.244 -2.8913 -3.2931 -1.5166
 1017MOL0     H37263   3.912   0.549  -0.448  2.0990  1.4119  1.8538
 1017MOL0     H37264   3.766   0.630  -0.511 -0.1555 -0.8046  0.7661
 1017MOL0     H37265   4.037   0.765  -0.446 -0.5327 -1.8914  1.5121
 1017MOL0     H37266   3.873   0.850  -0.403 -2.6492 -0.2010 -3.0888
 1017MOL0     H37267   3.812   0.853  -0.601  0.6995  0.7046 -1.3542
 1017MOL0     H37268   3.906   0.714  -0.666  2.2157 -0.4395 -0.6695
 1017MOL0     H37269   4.056   0.958  -0.572  3.5898 -2.1082  0.7638
 1017MOL0     H37270   4.110   0.831  -0.672  1.6268  0.2677  2.6234
 1017MOL0     H37271   3.878   1.015  -0.757  0.0757 -2.0261  1.5029
 1017MOL0     H37272   3.958   0.897  -0.852 -2.3716 -1.2676  0.8952
 1017MOL0     H37273   4.042   1.125  -0.914  1.9232  0.1512 -1.9451
 1017MOL0     H37274   4.068   1.164  -0.749  3.1308  0.5463 -0.5937
 1017MOL0     H37275   3.965   0.432   0.136  0.1584 -0.3583 -0.0645
 1017MOL0     H37276   4.165   0.430   0.283 -1.2620  1.8375  3.2759
 1017MOL0     H37277   4.481   0.599   0.522  0.0444 -1.2932  0.6900
 1017MOL0     H37278   4.675   0.681   0.656  0.8847  1.3951  0.0422
 1017MOL0     H37279   6.093   1.866   1.249 -0.1408 -1.0210 -0.2325
 1017MOL0     H37280   6.184   2.083   1.313  1.1813 -0.5542  1.6126
 1017MOL0     H37281   6.485   2.423   1.224 -0.9308 -3.0136  0.8896
 1017MOL0     H37282   6.559   2.638   1.288 -0.6121  1.6506  1.7032
 1017MOL0     H37283   6.803   2.663   1.662 -1.5709 -2.1590  1.0789
 1017MOL0     H37284   6.654   2.714   1.718 -0.8566 -1.0890 -1.3347
 1017MOL0     H37285   6.825   2.900   1.751 -0.2767  2.9951  1.0740
 1017MOL0     H37286   6.690   2.939   1.652 -0.2267 -0.0119 -1.6859
 1017MOL0     H37287   6.817   2.922   1.445 -2.3573  1.6242  1.0075
 1017MOL0     H37288   6.956   2.878   1.525 -1.5484 -1.5298 -1.8807
 1017MOL0     H37289   6.982   3.098   1.465  0.4483 -1.3052  0.6397
 1017MOL0     H37290   6.826   3.155   1.536 -0.7799 -0.0866 -1.4713
 1017MOL0     H37291   7.109   3.140   1.866 -1.8815 -0.7440  2.3523
 1017MOL0     H37292   6.634   2.506   1.690  0.3464 -1.5581  1.0024
 1017MOL0     H37293   6.602   2.315   1.761  1.5470 -0.3218 -0.2671
 1017MOL0     H37294   6.482   2.204   1.682 -0.0486 -0.4222 -0.4582
 1017MOL0     H37295   6.653   2.193   1.655 -0.5473 -0.7333  1.0155
 1018MOL0     O37296  10.523   3.212   5.659  0.6776  0.5591  0.0202
 1018MOL0     C37297  10.574   3.172   5.767  0.8453 -0.1557  0.0244
 1018MOL0     O37298  10.679   3.090   5.775  0.3946  0.7103  0.3423
 1018MOL0     C37299  10.746   3.051   5.658  0.2169 -0.5344  0.5486
 1018MOL0     C37300  10.713   2.929   5.591  0.4523  0.2249  0.5156
 1018MOL0     C37301  10.802   2.863   5.505 -0.3126  0.5463  0.1903
 1018MOL0     C37302  10.927   2.921   5.486  0.3050  1.1642  0.2516
 1018MOL0     O37303  11.032   2.879   5.406 -0.1206 -0.0286 -0.1310
 1018MOL0     C37304  11.032   2.746   5.369  0.2875  0.3705  0.8098
 1018MOL0     C37305  10.960   2.723   5.235 -0.0493 -0.5385  0.4882
 1018MOL0     C37306  11.028   2.801   5.115 -0.0134 -0.5146 -0.5451
 1018MOL0     C37307  10.965   2.768   4.977  0.0077  0.0392 -0.7448
 1018MOL0     C37308  11.016   2.854   4.859  0.7253  0.3629 -0.1178
 1018MOL0     C37309  10.933   2.871   4.733  0.0022  0.2542  0.2341
 1018MOL0     C37310  10.882   2.740   4.670 -1.0117  0.0633  1.0538
 1018MOL0     C37311  10.995   2.635   4.672 -0.5044 -0.3218 -0.3012
 1018MOL0     N37312  10.957   2.502   4.622 -0.3716  0.1853  0.4607
 1018MOL0     C37313  10.969   2.456   4.487 -0.7672 -0.0014 -1.0862
 1018MOL0     C37314  10.908   2.342   4.486 -0.3006  0.7710  0.0683
 1018MOL0     C37315  10.910   2.244   4.375 -1.4091 -0.2704 -0.3975
 1018MOL0     C37316  10.868   2.289   4.233 -0.8222 -0.6331 -0.1446
 1018MOL0     C37317  10.727   2.346   4.225  0.2218 -0.1694  0.1374
 1018MOL0     C37318  10.687   2.383   4.088  0.7468 -0.4709 -0.3025
 1018MOL0     O37319  10.653   2.270   4.004  0.1753  0.2857 -0.2357
 1018MOL0     C37320  10.520   2.239   3.991 -0.4844  0.8269  0.0494
 1018MOL0     C37321  10.481   2.173   3.875  0.3566 -0.2919 -0.5597
 1018MOL0     C37322  10.344   2.162   3.846  0.1056  0.3219  0.0288
 1018MOL0     C37323  10.247   2.218   3.927 -0.6750  0.4398 -0.0527
 1018MOL0     C37324  10.110   2.230   3.878 -0.4526  0.6053 -0.1750
 1018MOL0     O37325  10.015   2.251   3.979 -0.3991 -0.2362 -0.6135
 1018MOL0     C37326   9.876   2.251   3.958  0.4007  0.0439  1.5105
 1018MOL0     C37327   9.790   2.326   4.030 -0.9452 -0.4427  0.4903
 1018MOL0     C37328   9.656   2.326   4.013  0.1078 -0.4391 -0.1700
 1018MOL0     C37329   9.598   2.259   3.909  0.8923 -0.4728  0.6772
 1018MOL0     O37330   9.469   2.244   3.895 -0.1536  0.5747  0.0871
 1018MOL0     C37331   9.403   2.374   3.879 -0.7919  0.3165 -0.1528
 1018MOL0     C37332   9.258   2.344   3.834  0.4481 -0.1412 -0.8417
 1018MOL0     C37333   9.185   2.478   3.821 -0.1303 -0.6705 -0.6859
 1018MOL0     C37334   9.239   2.561   3.709 -0.5199 -0.0268  0.3154
 1018MOL0     C37335   9.136   2.662   3.664  0.0416 -0.0298 -0.2988
 1018MOL0     C37336   9.196   2.770   3.566  0.1666  0.4892 -0.6757
 1018MOL0     C37337   9.234   2.702   3.442  0.1864  0.1345  0.1797
 1018MOL0     C37338   9.388   2.654   3.430  0.3103  0.7574 -0.9856
 1018MOL0    Cl37339   9.513   2.773   3.387 -0.3866 -0.5727  0.2375
 1018MOL0     C37340   9.681   2.186   3.822 -0.1350 -0.2327 -0.1483
 1018MOL0     C37341   9.816   2.184   3.849 -0.0901  0.7593  0.1586
 1018MOL0     O37342  10.088   2.241   3.757 -0.0097  0.7665  0.4722
 1018MOL0     C37343  10.290   2.269   4.048  0.7106 -0.4692 -0.3152
 1018MOL0     C37344  10.422   2.277   4.083  0.3662  0.8268 -0.2266
 1018MOL0     N37345  10.862   2.308   4.612  0.0049 -0.4049  0.0684
 1018MOL0     N37346  10.897   2.405   4.699  0.2505 -1.0497  0.1357
 1018MOL0     C37347  10.958   3.036   5.549 -0.7173  0.3877 -0.3759
 1018MOL0     C37348  10.869   3.108   5.636 -0.2007 -0.0886  0.6938
 1018MOL0     C37349  10.525   3.208   5.904  0.8912  0.2287  0.7735
 1018MOL0     C37350  10.608   3.177   6.015  0.2265  0.4251  0.0204
 1018MOL0     C37351  10.582   3.214   6.146 -0.5858 -0.1826 -0.7358
 1018MOL0     C37352  10.456   3.270   6.161 -0.2093  0.3279  0.2188
 1018MOL0     O37353  10.421   3.318   6.283  0.2818  0.0928 -0.7722
 1018MOL0     C37354  10.530   3.377   6.361  0.6751  0.0005 -0.5305
 1018MOL0     C37355  10.468   3.472   6.463 -0.7470  0.7793  0.0212
 1018MOL0     C37356  10.360   3.557   6.405 -0.1935 -0.5241  0.7812
 1018MOL0     C37357  10.280   3.638   6.509 -0.6411  0.8223  0.2383
 1018MOL0     C37358  10.182   3.552   6.579  0.2295 -1.4317  0.0806
 1018MOL0     C37359  10.101   3.487   6.647  0.4199 -0.2606  0.5035
 1018MOL0     C37360  10.364   3.299   6.060  0.0265  0.2184  0.6863
 1018MOL0     C37361  10.392   3.267   5.930 -0.4073 -0.7446  1.1515
 1018MOL0     C37362  10.292   3.293   5.820 -0.1861  0.8934 -0.6443
 1018MOL0     H37363  10.616   2.882   5.600  0.2044  0.7165  0.4676
 1018MOL0     H37364  10.763   2.766   5.475 -2.3035  0.6317  2.2078
 1018MOL0     H37365  11.138   2.726   5.351  0.8808  2.4611  1.6221
 1018MOL0     H37366  10.985   2.682   5.444  0.8367  1.4185  2.0962
 1018MOL0     H37367  10.851   2.730   5.243  0.0571  2.6504  0.1353
 1018MOL0     H37368  10.964   2.616   5.212  0.2248 -0.4881  0.2943
 1018MOL0     H37369  11.131   2.766   5.111  0.1853  0.1558 -1.7109
 1018MOL0     H37370  11.033   2.909   5.133  2.0733 -1.0181  2.6736
 1018MOL0     H37371  10.964   2.658   4.973  1.7259 -0.2506  2.7719
 1018MOL0     H37372  10.863   2.804   4.992 -0.3155 -0.5378 -1.4454
 1018MOL0     H37373  11.039   2.956   4.891  1.0869  1.9678 -4.7448
 1018MOL0     H37374  11.116   2.812   4.846  0.5978 -0.0575  0.2341
 1018MOL0     H37375  10.847   2.928   4.769 -0.7511 -1.9569  2.1835
 1018MOL0     H37376  10.995   2.928   4.663 -0.0204 -0.1007 -0.0824
 1018MOL0     H37377  10.848   2.769   4.571 -0.1397  3.5890  1.6534
 1018MOL0     H37378  10.795   2.706   4.727 -2.5432  1.8181 -0.1565
 1018MOL0     H37379  11.080   2.668   4.610 -0.7327  0.1271 -0.3856
 1018MOL0     H37380  11.026   2.615   4.775 -0.8408 -0.5061 -0.2372
 1018MOL0     H37381  11.023   2.500   4.404  2.4454  0.0792  0.8886
 1018MOL0     H37382  11.014   2.211   4.359 -0.4376  2.8185 -1.1915
 1018MOL0     H37383  10.861   2.149   4.396 -0.3670 -1.3821 -2.5759
 1018MOL0     H37384  10.942   2.360   4.194  1.1269 -1.3364  2.0425
 1018MOL0     H37385  10.869   2.195   4.176  1.3417 -0.7748  0.0374
 1018MOL0     H37386  10.722   2.436   4.288  2.6593 -0.6081  1.0645
 1018MOL0     H37387  10.659   2.268   4.259  2.0716 -2.2987 -0.8235
 1018MOL0     H37388  10.762   2.454   4.051 -1.6600  2.8471  0.7136
 1018MOL0     H37389  10.604   2.455   4.091 -0.5146 -1.8983  0.2938
 1018MOL0     H37390  10.555   2.151   3.798  0.5771 -1.6052  0.0057
 1018MOL0     H37391  10.313   2.106   3.758  2.2924 -3.4155  1.3852
 1018MOL0     H37392   9.837   2.380   4.111 -0.3147  2.2464 -1.5414
 1018MOL0     H37393   9.587   2.366   4.087 -2.4126  0.5223 -2.8421
 1018MOL0     H37394   9.420   2.434   3.968  0.9157  4.7779 -3.1438
 1018MOL0     H37395   9.459   2.420   3.797 -0.4590  1.8006  0.8600
 1018MOL0     H37396   9.252   2.290   3.739 -2.8831 -0.3055 -0.6525
 1018MOL0     H37397   9.219   2.290   3.920  1.3071  0.8168  0.1966
 1018MOL0     H37398   9.077   2.463   3.815  0.1647 -2.7045 -1.3582
 1018MOL0     H37399   9.193   2.540   3.912 -0.0425 -1.4175 -0.1733
 1018MOL0     H37400   9.261   2.489   3.630 -0.1756  0.0284  0.3558
 1018MOL0     H37401   9.331   2.605   3.749  0.8803 -1.7528 -0.8582
 1018MOL0     H37402   9.104   2.715   3.754 -0.8562  0.5021 -0.9168
 1018MOL0     H37403   9.051   2.610   3.618  0.7609 -1.5636  0.0492
 1018MOL0     H37404   9.127   2.853   3.549  0.2981  0.4174 -1.6041
 1018MOL0     H37405   9.286   2.823   3.599 -1.3793  0.5702  4.3754
 1018MOL0     H37406   9.214   2.769   3.358 -4.9497 -3.3317 -1.8264
 1018MOL0     H37407   9.172   2.613   3.426  0.1816  0.7178 -4.4681
 1018MOL0     H37408   9.417   2.599   3.520  3.1420 -1.3158 -2.9811
 1018MOL0     H37409   9.384   2.575   3.354  1.6235 -0.5347  0.2280
 1018MOL0     H37410   9.632   2.127   3.745  1.8751 -0.8691 -1.0161
 1018MOL0     H37411   9.873   2.116   3.786 -0.6933  2.1720 -2.0436
 1018MOL0     H37412  10.222   2.314   4.119  1.0010 -0.0927 -0.2693
 1018MOL0     H37413  10.446   2.304   4.185 -4.3373  2.0155  0.7905
 1018MOL0     H37414  11.060   3.071   5.539  0.5412 -2.9098 -0.1173
 1018MOL0     H37415  10.890   3.200   5.690  0.7961  0.2667 -0.2761
 1018MOL0     H37416  10.696   3.116   5.995 -2.5583 -3.0364 -2.9683
 1018MOL0     H37417  10.647   3.194   6.230 -1.4469 -0.7141 -0.1852
 1018MOL0     H37418  10.605   3.432   6.304  2.4905  0.7549  2.3520
 1018MOL0     H37419  10.590   3.298   6.408  0.9550 -0.9016 -2.3161
 1018MOL0     H37420  10.546   3.533   6.510 -0.2907 -0.5804  1.0881
 1018MOL0     H37421  10.421   3.414   6.543  1.1428  0.1892  0.7559
 1018MOL0     H37422  10.285   3.504   6.345 -1.1097  1.5202  0.0643
 1018MOL0     H37423  10.405   3.623   6.330  0.2229  2.8856  3.7642
 1018MOL0     H37424  10.355   3.676   6.578  1.1643  0.2179 -1.2928
 1018MOL0     H37425  10.233   3.729   6.471  1.8266  1.6700 -0.9742
 1018MOL0     H37426  10.028   3.426   6.698 -0.6674  0.1492 -0.5218
 1018MOL0     H37427  10.275   3.360   6.070 -2.8105 -3.0483 -1.9689
 1018MOL0     H37428  10.206   3.355   5.844 -1.1135 -1.7384  4.2423
 1018MOL0     H37429  10.335   3.337   5.729  0.8704 -1.0002 -1.1215
 1018MOL0     H37430  10.242   3.199   5.794  0.4953  1.0934 -2.9221
 1019MOL0     O37431   8.861  10.761   6.369 -0.0072  0.2312  0.5654
 1019MOL0     C37432   8.804  10.731   6.270 -0.9094 -0.4566  0.2583
 1019MOL0     O37433   8.861  10.744   6.139 -0.7553  0.8634 -0.6802
 1019MOL0     C37434   8.995  10.772   6.132  0.1032  0.3070 -0.5138
 1019MOL0     C37435   9.051  10.891   6.156 -0.0525  0.2769  0.9332
 1019MOL0     C37436   9.189  10.909   6.133 -0.3308 -0.6108  0.2043
 1019MOL0     C37437   9.272  10.809   6.074 -1.1584 -0.3210  0.2936
 1019MOL0     O37438   9.406  10.819   6.026 -0.2198 -0.3531  0.3158
 1019MOL0     C37439   9.465  10.952   5.985 -0.7968 -0.4541 -0.8591
 1019MOL0     C37440   9.545  11.014   6.103  0.7649  0.6778 -0.6171
 1019MOL0     C37441   9.682  10.948   6.129  0.0178 -0.5180 -0.3042
 1019MOL0     C37442   9.775  10.955   6.011 -1.2893 -0.4263 -0.5348
 1019MOL0     C37443   9.915  10.913   6.040 -0.6077 -0.8113 -0.3201
 1019MOL0     C37444   9.999  10.923   5.912  0.3181 -0.5718  0.9904
 1019MOL0     C37445  10.141  10.896   5.943  0.1557 -0.8865  0.1737
 1019MOL0     C37446  10.177  10.745   5.897  0.5856 -0.2031  0.5910
 1019MOL0     N37447  10.321  10.716   5.922 -0.0358 -0.3044 -0.3586
 1019MOL0     C37448  10.361  10.584   5.928  0.1838 -0.4398  0.5717
 1019MOL0     C37449  10.497  10.596   5.917 -0.7193  0.1120  0.6272
 1019MOL0     C37450  10.598  10.480   5.908  0.6988 -0.2041  0.8167
 1019MOL0     C37451  10.696  10.478   5.786 -1.3172 -0.4170  0.2040
 1019MOL0     C37452  10.828  10.551   5.793 -0.3715  0.9687 -0.7810
 1019MOL0     C37453  10.891  10.560   5.661 -0.1609  0.0458 -0.6213
 1019MOL0     O37454  10.929  10.423   5.623 -0.0188  0.6008  0.3156
 1019MOL0     C37455  11.027  10.433   5.531  0.0213  0.9554 -0.0450
 1019MOL0     C37456  11.109  10.317   5.534 -0.6744 -0.3118  0.2018
 1019MOL0     C37457  11.221  10.308   5.448 -0.3289 -0.0583  0.4505
 1019MOL0     C37458  11.242  10.408   5.353  0.1546  0.2704  0.1710
 1019MOL0     C37459  11.368  10.413   5.274  0.3806  0.0609 -0.5060
 1019MOL0     O37460  11.402  10.289   5.232  0.0733 -0.5669  0.3299
 1019MOL0     C37461  11.504  10.275   5.135 -0.0610 -1.0694  0.5167
 1019MOL0     C37462  11.637  10.286   5.174  0.4310 -0.2454 -0.4567
 1019MOL0     C37463  11.735  10.268   5.073 -0.7425  0.1519  0.4456
 1019MOL0     C37464  11.703  10.241   4.937  0.6277  0.2740 -0.0025
 1019MOL0     O37465  11.796  10.229   4.843 -0.8903  0.3125  0.0534
 1019MOL0     C37466  11.801  10.109   4.774 -0.9789  0.6101  0.3854
 1019MOL0     C37467  11.955  10.074   4.759  0.4728 -0.8157  0.2017
 1019MOL0     C37468  12.027  10.146   4.645  0.3863 -0.0450 -0.2163
 1019MOL0     C37469  12.180  10.143   4.660 -0.1138  0.1458 -0.2100
 1019MOL0     C37470  12.239  10.214   4.535  0.0734  0.0278 -0.2159
 1019MOL0     C37471  12.376  10.277   4.556 -0.2902  1.0624 -0.0594
 1019MOL0     C37472  12.414  10.358   4.437  0.2851 -0.6369  0.1123
 1019MOL0     C37473  12.544  10.442   4.465  1.3205  1.0954  0.5199
 1019MOL0    Cl37474  12.688  10.339   4.503 -0.0834 -0.0805 -0.3814
 1019MOL0     C37475  11.567  10.221   4.901 -2.2235 -0.1650  0.5296
 1019MOL0     C37476  11.473  10.250   4.995 -1.0808 -0.0343  0.0272
 1019MOL0     O37477  11.417  10.523   5.234 -1.1795  0.1450  0.6350
 1019MOL0     C37478  11.160  10.518   5.351 -0.6590 -0.4410 -0.8601
 1019MOL0     C37479  11.045  10.523   5.428  0.3952  0.3907  0.4532
 1019MOL0     N37480  10.528  10.731   5.920 -0.1844 -0.1586  0.1544
 1019MOL0     N37481  10.420  10.808   5.914 -0.3821 -0.0684 -0.0378
 1019MOL0     C37482   9.214  10.687   6.050  0.5883 -0.2738  0.1262
 1019MOL0     C37483   9.080  10.668   6.082  0.9681 -0.2685  0.8648
 1019MOL0     C37484   8.665  10.686   6.279  0.8550  0.0403  0.2822
 1019MOL0     C37485   8.595  10.703   6.403 -0.4854  0.5490  0.3397
 1019MOL0     C37486   8.464  10.672   6.417 -0.0702  0.0718 -0.3740
 1019MOL0     C37487   8.389  10.626   6.313 -0.2304 -0.0637  0.1700
 1019MOL0     O37488   8.260  10.593   6.331  0.1881 -0.5508 -0.6185
 1019MOL0     C37489   8.233  10.451   6.357  0.4920 -0.6531  0.5752
 1019MOL0     C37490   8.273  10.404   6.503 -0.2810  0.3446 -0.6157
 1019MOL0     C37491   8.174  10.457   6.606 -0.1778  0.0287 -0.0966
 1019MOL0     C37492   8.210  10.396   6.731  0.2395  0.8400 -1.4690
 1019MOL0     C37493   8.158  10.258   6.751 -0.1276  1.2473  0.1587
 1019MOL0     C37494   8.112  10.151   6.773  0.2686 -0.3130 -0.1202
 1019MOL0     C37495   8.454  10.608   6.185 -0.3618  0.3625 -0.1568
 1019MOL0     C37496   8.582  10.653   6.170 -0.0866  0.7246  0.1368
 1019MOL0     C37497   8.633  10.637   6.028  0.0619 -0.1470  0.2224
 1019MOL0     H37498   8.993  10.964   6.211 -0.1913 -0.5984  1.9860
 1019MOL0     H37499   9.238  11.003   6.155  2.1470 -1.1414 -2.4965
 1019MOL0     H37500   9.522  10.959   5.892  0.1572 -3.3889 -0.6007
 1019MOL0     H37501   9.384  11.023   5.968  1.7655  2.8925  0.0130
 1019MOL0     H37502   9.489  10.989   6.194  0.2364  3.7086 -0.0001
 1019MOL0     H37503   9.564  11.122   6.104  0.6939  0.7091  1.0325
 1019MOL0     H37504   9.657  10.850   6.171 -2.3513 -0.2473 -0.9692
 1019MOL0     H37505   9.718  11.001   6.217  0.0521 -1.6736  0.4028
 1019MOL0     H37506   9.734  10.896   5.929 -2.2494  1.6663 -1.6323
 1019MOL0     H37507   9.775  11.059   5.978  1.5765 -1.3046 -3.9431
 1019MOL0     H37508   9.958  10.979   6.116 -1.1910  0.7117 -1.2727
 1019MOL0     H37509   9.902  10.809   6.072 -3.2685 -2.4261 -5.5269
 1019MOL0     H37510   9.960  10.861   5.830  0.0561  1.1082 -0.2075
 1019MOL0     H37511  10.002  11.024   5.870  0.5000 -2.0559 -3.0926
 1019MOL0     H37512  10.154  10.917   6.049  1.1625 -0.3987 -0.0371
 1019MOL0     H37513  10.203  10.969   5.890  0.1728  0.2208  1.6496
 1019MOL0     H37514  10.123  10.675   5.961  0.6298 -0.4711  0.3399
 1019MOL0     H37515  10.138  10.723   5.797  0.6354  2.9997 -0.2478
 1019MOL0     H37516  10.306  10.493   5.949 -1.1716 -0.1792 -1.6326
 1019MOL0     H37517  10.657  10.471   6.000  0.6106  1.0321  1.0023
 1019MOL0     H37518  10.547  10.383   5.899 -0.4963  0.2937  1.8835
 1019MOL0     H37519  10.716  10.371   5.782 -5.7394 -1.4972  0.9991
 1019MOL0     H37520  10.644  10.503   5.693 -1.2539 -2.1046 -0.3027
 1019MOL0     H37521  10.896  10.501   5.862 -2.1254 -1.8515 -0.9203
 1019MOL0     H37522  10.810  10.649   5.838 -2.3651  0.7233 -0.9523
 1019MOL0     H37523  10.978  10.619   5.689  1.2917 -2.0917 -0.4244
 1019MOL0     H37524  10.839  10.609   5.579 -1.6895 -0.7624 -0.1885
 1019MOL0     H37525  11.087  10.233   5.600 -3.1566 -1.9356 -2.4774
 1019MOL0     H37526  11.285  10.221   5.454 -0.5500 -0.1624  1.5936
 1019MOL0     H37527  11.669  10.306   5.276  2.9325 -0.4587 -1.1231
 1019MOL0     H37528  11.838  10.277   5.105  0.1800  2.3064 -2.6268
 1019MOL0     H37529  11.746  10.024   4.817 -0.4030 -0.3897 -0.7819
 1019MOL0     H37530  11.760  10.108   4.673 -0.6734 -4.2062  0.0678
 1019MOL0     H37531  12.006  10.107   4.850  2.9285 -0.3795 -1.2301
 1019MOL0     H37532  11.968   9.967   4.741 -1.2933 -0.9221 -0.5916
 1019MOL0     H37533  11.999  10.114   4.545  0.9098  0.1151 -0.4169
 1019MOL0     H37534  11.990  10.248   4.658  2.1217  0.9675 -2.6476
 1019MOL0     H37535  12.214  10.039   4.670 -0.3282 -0.5962 -4.7391
 1019MOL0     H37536  12.199  10.197   4.753 -0.6967  3.7777 -2.0138
 1019MOL0     H37537  12.181  10.306   4.543 -3.3264 -2.0602  1.2724
 1019MOL0     H37538  12.225  10.166   4.438  1.3967 -2.2580  0.6279
 1019MOL0     H37539  12.373  10.332   4.651 -0.9777  1.4592 -0.3105
 1019MOL0     H37540  12.442  10.190   4.563  0.4585  1.4659 -1.6589
 1019MOL0     H37541  12.326  10.417   4.407 -0.3767 -0.4318  2.3363
 1019MOL0     H37542  12.442  10.294   4.353  0.6289  1.6186 -1.6252
 1019MOL0     H37543  12.565  10.516   4.388  2.0369  0.5140  0.1409
 1019MOL0     H37544  12.522  10.514   4.544 -3.0195  0.1160  0.4233
 1019MOL0     H37545  11.538  10.201   4.799  0.2368 -2.8659  0.2403
 1019MOL0     H37546  11.368  10.263   4.973 -1.1886  1.6950  1.3264
 1019MOL0     H37547  11.190  10.608   5.299  1.3943  0.2755  1.3880
 1019MOL0     H37548  10.976  10.606   5.423 -1.0920 -0.6222  2.6456
 1019MOL0     H37549   9.266  10.599   6.014 -1.8926 -2.7105  2.1184
 1019MOL0     H37550   9.031  10.574   6.062 -0.4341  0.6276 -0.0942
 1019MOL0     H37551   8.645  10.744   6.490  0.7882  2.4234 -1.1818
 1019MOL0     H37552   8.410  10.675   6.511  0.3894 -0.0467 -0.1029
 1019MOL0     H37553   8.276  10.395   6.274  0.1380  1.0424 -0.7870
 1019MOL0     H37554   8.127  10.426   6.350  0.9786 -2.2914 -2.1149
 1019MOL0     H37555   8.377  10.433   6.523 -0.1784  0.5821 -1.4600
 1019MOL0     H37556   8.269  10.295   6.509  0.3128  0.3072 -0.7927
 1019MOL0     H37557   8.077  10.434   6.561 -0.5519  2.1055 -0.4645
 1019MOL0     H37558   8.186  10.566   6.616 -0.1814  0.0579 -0.4064
 1019MOL0     H37559   8.318  10.401   6.749 -0.1972  1.2708  1.5058
 1019MOL0     H37560   8.168  10.456   6.813 -0.7802 -0.8995 -0.6687
 1019MOL0     H37561   8.061  10.062   6.806 -1.1679 -0.4647 -2.5224
 1019MOL0     H37562   8.401  10.571   6.097  0.6987 -1.2285 -0.1751
 1019MOL0     H37563   8.663  10.738   6.000 -3.2426  0.3678 -2.1156
 1019MOL0     H37564   8.722  10.574   6.022  1.1605  1.3274  0.5780
 1019MOL0     H37565   8.561  10.591   5.959 -0.8543  2.6585 -0.8086
 1020MOL0     O37566   9.683   0.029   9.394  0.0690 -0.0960  0.5842
 1020MOL0     C37567   9.779   0.011   9.462  0.4177 -0.0993  0.3408
 1020MOL0     O37568   9.778  -0.035   9.586  0.0787 -0.5257  0.0226
 1020MOL0     C37569   9.667  -0.059   9.664 -0.3313 -0.6884 -0.9739
 1020MOL0     C37570   9.565   0.037   9.681  0.4292 -0.4500 -1.2776
 1020MOL0     C37571   9.445   0.005   9.748 -0.4308  0.3630  0.2134
 1020MOL0     C37572   9.440  -0.119   9.815  0.4231 -0.4095 -0.4245
 1020MOL0     O37573   9.316  -0.132   9.877  0.2759 -0.8566  0.2643
 1020MOL0     C37574   9.304  -0.251   9.947  0.1747  0.5509 -0.3668
 1020MOL0     C37575   9.178  -0.253  10.028  0.4816 -0.7737  0.3290
 1020MOL0     C37576   9.052  -0.248   9.935 -0.0384 -1.0510 -0.6035
 1020MOL0     C37577   8.938  -0.276  10.027  0.4362  0.0788 -0.5086
 1020MOL0     C37578   8.800  -0.252   9.965  0.8118  0.4099 -0.2707
 1020MOL0     C37579   8.752  -0.364   9.876  0.3768  0.7846 -0.5807
 1020MOL0     C37580   8.592  -0.361   9.879 -0.6359  0.0045 -0.2074
 1020MOL0     C37581   8.533  -0.222   9.836 -0.4965 -0.1832  0.6651
 1020MOL0     N37582   8.563  -0.177   9.699  0.2717 -0.4484 -0.4335
 1020MOL0     C37583   8.692  -0.166   9.641 -0.2174 -0.4127  0.0253
 1020MOL0     C37584   8.668  -0.104   9.524  0.0173 -0.1444 -0.1835
 1020MOL0     C37585   8.759  -0.072   9.403  0.4825 -0.1658 -0.7936
 1020MOL0     C37586   8.835  -0.195   9.337  0.8785  0.0230 -0.2585
 1020MOL0     C37587   8.874  -0.322   9.420 -0.5392 -0.3451  0.0181
 1020MOL0     C37588   8.945  -0.421   9.319  0.2194  0.1721 -0.1870
 1020MOL0     O37589   9.061  -0.380   9.248  0.0011  0.6241 -0.2199
 1020MOL0     C37590   9.127  -0.470   9.167 -0.2622  0.5100 -0.1547
 1020MOL0     C37591   9.073  -0.598   9.129  0.3128  0.1418 -0.3885
 1020MOL0     C37592   9.145  -0.681   9.052  1.0580  0.2344 -0.3639
 1020MOL0     C37593   9.264  -0.632   8.996 -0.4204  0.3741  0.6525
 1020MOL0     C37594   9.349  -0.715   8.909  0.3367  1.3139 -0.3930
 1020MOL0     O37595   9.458  -0.658   8.846  0.2122  0.4488 -0.6346
 1020MOL0     C37596   9.545  -0.745   8.787 -0.8543 -0.0613 -0.1339
 1020MOL0     C37597   9.508  -0.783   8.655  0.7146 -0.9281 -1.4260
 1020MOL0     C37598   9.592  -0.863   8.575 -0.9142 -0.5988 -0.3783
 1020MOL0     C37599   9.710  -0.906   8.626  0.0182  1.1738 -0.2815
 1020MOL0     O37600   9.789  -0.986   8.543  0.3385  0.1429  0.6174
 1020MOL0     C37601   9.910  -1.050   8.591  0.4331  0.2556  0.0634
 1020MOL0     C37602   9.890  -1.180   8.673 -0.1027 -0.9437  0.4135
 1020MOL0     C37603  10.008  -1.211   8.761 -0.0519 -0.4821 -0.4827
 1020MOL0     C37604   9.979  -1.338   8.846 -0.6934 -0.2184 -0.3194
 1020MOL0     C37605  10.099  -1.381   8.943 -0.3801  0.5570 -0.9591
 1020MOL0     C37606  10.044  -1.448   9.064 -0.8398 -0.2693 -0.0296
 1020MOL0     C37607  10.144  -1.437   9.174  0.4818  0.5488  0.2418
 1020MOL0     C37608  10.084  -1.485   9.303  0.3421 -1.0882  0.5404
 1020MOL0    Cl37609  10.205  -1.466   9.435  0.0329 -0.5463 -0.0538
 1020MOL0     C37610   9.744  -0.871   8.756 -0.6541 -0.2710  0.3311
 1020MOL0     C37611   9.672  -0.786   8.839  0.4889 -0.2852  0.2615
 1020MOL0     O37612   9.308  -0.830   8.899  0.2157 -0.0432 -0.5483
 1020MOL0     C37613   9.312  -0.500   9.015  0.4064 -1.1241  0.0528
 1020MOL0     C37614   9.244  -0.423   9.108  0.6751  0.1943  1.2535
 1020MOL0     N37615   8.537  -0.062   9.511  0.1292 -0.1320  0.5636
 1020MOL0     N37616   8.472  -0.106   9.619 -0.4853  0.1712 -0.6008
 1020MOL0     C37617   9.547  -0.211   9.805 -0.2617 -0.2176  0.4413
 1020MOL0     C37618   9.651  -0.184   9.722 -1.1432  0.1445 -0.3211
 1020MOL0     C37619   9.924   0.030   9.410 -0.2855  0.5680 -0.2387
 1020MOL0     C37620  10.020  -0.063   9.454  0.1313 -0.6723 -0.8803
 1020MOL0     C37621  10.151  -0.064   9.411 -0.4631  0.1766  0.1381
 1020MOL0     C37622  10.187   0.038   9.319  0.2720  0.5448 -0.1013
 1020MOL0     O37623  10.312   0.053   9.258  0.4521 -0.4098 -0.5543
 1020MOL0     C37624  10.420  -0.030   9.301  1.1538 -0.4173  0.3285
 1020MOL0     C37625  10.547   0.017   9.224 -0.1269  0.4573  0.1115
 1020MOL0     C37626  10.599   0.156   9.273  0.2613  0.2009  0.3825
 1020MOL0     C37627  10.755   0.166   9.244 -1.0731 -0.9884 -0.5297
 1020MOL0     C37628  10.821   0.102   9.359  0.7651 -0.5132  0.0011
 1020MOL0     C37629  10.869   0.038   9.455 -0.9502  0.2543  0.8407
 1020MOL0     C37630  10.093   0.138   9.283  0.1255  0.1310 -0.5533
 1020MOL0     C37631   9.957   0.127   9.317  0.7870  0.1449 -0.9114
 1020MOL0     C37632   9.859   0.232   9.271 -0.0593 -0.2604 -0.4253
 1020MOL0     H37633   9.588   0.135   9.640 -1.6960  0.5263 -0.2905
 1020MOL0     H37634   9.357   0.069   9.750 -0.9601  0.1249 -4.4275
 1020MOL0     H37635   9.309  -0.342   9.886  0.4942 -0.9146  1.7405
 1020MOL0     H37636   9.387  -0.273  10.015 -0.5760 -2.2549 -0.2055
 1020MOL0     H37637   9.178  -0.161  10.087 -2.6879 -0.2086 -0.3833
 1020MOL0     H37638   9.174  -0.344  10.088  2.8994  1.7416  4.8149
 1020MOL0     H37639   9.062  -0.324   9.857 -2.2592 -0.5711 -1.4121
 1020MOL0     H37640   9.051  -0.150   9.887 -1.2067 -0.4300  0.6404
 1020MOL0     H37641   8.944  -0.375  10.073  2.8135  0.5468  0.3530
 1020MOL0     H37642   8.950  -0.219  10.120  0.8983  1.0323 -1.1324
 1020MOL0     H37643   8.728  -0.223  10.042 -1.4271  0.1216 -2.1367
 1020MOL0     H37644   8.794  -0.162   9.902 -2.0452  0.6079  0.1307
 1020MOL0     H37645   8.786  -0.367   9.772 -1.2568 -0.8606 -1.1208
 1020MOL0     H37646   8.788  -0.460   9.915 -0.0658  0.6566 -0.4868
 1020MOL0     H37647   8.564  -0.384   9.982 -1.4751  1.1972 -0.1527
 1020MOL0     H37648   8.566  -0.435   9.803  3.6627 -0.5652 -1.4150
 1020MOL0     H37649   8.426  -0.236   9.851 -0.9754 -0.2294 -2.1894
 1020MOL0     H37650   8.569  -0.150   9.910 -0.4412  0.6391 -0.1460
 1020MOL0     H37651   8.788  -0.202   9.677  0.4894 -0.1436 -1.4833
 1020MOL0     H37652   8.699  -0.014   9.332 -0.4340 -1.3643 -1.0221
 1020MOL0     H37653   8.844  -0.014   9.442  0.7458  0.2358 -1.9336
 1020MOL0     H37654   8.792  -0.223   9.240  1.0245 -0.6844 -0.1280
 1020MOL0     H37655   8.926  -0.145   9.303  1.4030  0.2940  1.4549
 1020MOL0     H37656   8.778  -0.357   9.460 -0.9030  2.3430  1.8012
 1020MOL0     H37657   8.938  -0.296   9.505 -0.0289  1.6548 -0.9056
 1020MOL0     H37658   8.867  -0.461   9.254 -1.4605  1.7634  0.7592
 1020MOL0     H37659   8.963  -0.516   9.370  0.9975 -1.1608 -2.7679
 1020MOL0     H37660   8.975  -0.640   9.152  0.8244 -1.5201 -1.1505
 1020MOL0     H37661   9.112  -0.784   9.044 -0.2916  0.4435  1.6142
 1020MOL0     H37662   9.419  -0.741   8.611 -0.7096 -0.9463  1.2656
 1020MOL0     H37663   9.567  -0.896   8.475 -0.4400  0.6022 -0.9220
 1020MOL0     H37664   9.968  -1.086   8.505 -0.0198  0.7387 -0.4559
 1020MOL0     H37665   9.964  -0.976   8.650 -2.0754  1.7183  0.6662
 1020MOL0     H37666   9.797  -1.152   8.724 -2.3701 -4.4880 -1.2802
 1020MOL0     H37667   9.858  -1.257   8.602 -2.9281 -0.1190  0.6354
 1020MOL0     H37668  10.101  -1.223   8.705 -0.6878  0.7091 -1.8508
 1020MOL0     H37669  10.032  -1.125   8.824  0.7113 -1.3579  0.4690
 1020MOL0     H37670   9.973  -1.424   8.779  0.5461 -0.2965 -0.3684
 1020MOL0     H37671   9.892  -1.324   8.911  0.4530  0.4282  1.1500
 1020MOL0     H37672  10.151  -1.292   8.979 -1.3776  1.5564 -1.9454
 1020MOL0     H37673  10.180  -1.438   8.896 -0.3455 -1.2103  1.0925
 1020MOL0     H37674   9.958  -1.397   9.110 -0.1102  0.3019  0.7383
 1020MOL0     H37675  10.017  -1.551   9.040 -1.3162 -0.1057 -0.2100
 1020MOL0     H37676  10.174  -1.334   9.193  0.2474  0.5581  0.5679
 1020MOL0     H37677  10.238  -1.489   9.149  0.6050  0.8167  0.1511
 1020MOL0     H37678   9.993  -1.427   9.319  0.0595 -1.7746  1.5025
 1020MOL0     H37679  10.056  -1.590   9.310 -0.7444 -1.2668 -3.7369
 1020MOL0     H37680   9.837  -0.912   8.796  0.5724  2.8217  0.9410
 1020MOL0     H37681   9.696  -0.761   8.942  0.3031  2.9547 -0.3898
 1020MOL0     H37682   9.407  -0.472   8.971  0.0278 -0.5683 -0.4272
 1020MOL0     H37683   9.271  -0.319   9.124  1.6959  0.2549 -0.5791
 1020MOL0     H37684   9.546  -0.309   9.853 -1.3349 -1.3580 -1.7269
 1020MOL0     H37685   9.729  -0.260   9.712 -0.2283  0.4495  3.1378
 1020MOL0     H37686   9.992  -0.148   9.515 -1.0298 -1.4064 -2.3890
 1020MOL0     H37687  10.218  -0.144   9.443 -1.4212 -0.9576 -0.6322
 1020MOL0     H37688  10.393  -0.134   9.282 -1.0984  0.6877 -3.6322
 1020MOL0     H37689  10.424  -0.019   9.410 -1.2686 -0.1714  0.4540
 1020MOL0     H37690  10.532   0.018   9.116  1.9222 -3.0944 -0.3581
 1020MOL0     H37691  10.614  -0.067   9.247 -0.7536 -0.7935 -2.2520
 1020MOL0     H37692  10.573   0.181   9.377 -1.1782  1.9371 -0.3391
 1020MOL0     H37693  10.550   0.229   9.208 -2.3008  0.0163  1.9843
 1020MOL0     H37694  10.798   0.115   9.157 -1.0875 -2.4665  0.2919
 1020MOL0     H37695  10.780   0.271   9.227 -5.2469  0.5382  1.4656
 1020MOL0     H37696  10.907  -0.030   9.529  0.7317 -0.7374 -0.8356
 1020MOL0     H37697  10.128   0.214   9.213 -1.0004 -0.1373 -1.4330
 1020MOL0     H37698   9.769   0.190   9.224 -1.1163  0.9025  0.4657
 1020MOL0     H37699   9.823   0.293   9.355 -2.9918 -0.6441 -1.2987
 1020MOL0     H37700   9.920   0.290   9.201  1.0640  0.6765  1.2650
 1021MOL0     O37701   5.372  11.390   2.251  0.0647 -0.0802  0.1244
 1021MOL0     C37702   5.324  11.280   2.241 -0.4907  0.3778 -0.1351
 1021MOL0     O37703   5.375  11.168   2.301 -0.1680  0.3808  1.4393
 1021MOL0     C37704   5.511  11.184   2.337 -0.3891  0.1294  0.1616
 1021MOL0     C37705   5.605  11.202   2.235  0.7741  0.2963 -0.4402
 1021MOL0     C37706   5.740  11.194   2.255  0.3267  0.2889  0.3745
 1021MOL0     C37707   5.792  11.187   2.380 -0.4560 -0.4953 -0.5452
 1021MOL0     O37708   5.924  11.193   2.393  0.1828 -0.5455 -0.5009
 1021MOL0     C37709   5.981  11.228   2.525  0.0042  0.0545  0.5407
 1021MOL0     C37710   6.137  11.237   2.496  0.1777  0.0438  0.7164
 1021MOL0     C37711   6.219  11.265   2.616 -0.7953  0.0310  0.5223
 1021MOL0     C37712   6.239  11.156   2.712  0.5009 -0.6492  0.0844
 1021MOL0     C37713   6.316  11.200   2.844 -0.1360  0.5543 -0.6662
 1021MOL0     C37714   6.354  11.106   2.954  0.5681 -0.1888 -0.2054
 1021MOL0     C37715   6.415  10.971   2.903  0.1984  0.1896  0.7212
 1021MOL0     C37716   6.303  10.858   2.869  0.0673 -1.3881  0.0007
 1021MOL0     N37717   6.363  10.770   2.769  0.0615  1.4053  0.6622
 1021MOL0     C37718   6.342  10.767   2.630 -0.0726  0.3138 -0.2528
 1021MOL0     C37719   6.421  10.666   2.588 -0.5562 -0.0116 -0.1717
 1021MOL0     C37720   6.415  10.613   2.449  0.6560  0.6518 -1.0897
 1021MOL0     C37721   6.323  10.497   2.415 -0.7442  0.1773  0.4602
 1021MOL0     C37722   6.310  10.386   2.523 -1.0009  0.2627  0.2885
 1021MOL0     C37723   6.199  10.283   2.491 -0.0933 -0.1574 -0.7078
 1021MOL0     O37724   6.178  10.206   2.612  0.1870 -0.0629 -0.4956
 1021MOL0     C37725   6.162  10.070   2.617 -1.0047  0.6410 -0.6306
 1021MOL0     C37726   6.165   9.985   2.511 -0.3016 -0.7000  0.3175
 1021MOL0     C37727   6.139   9.854   2.524  0.0228  0.0774 -0.0958
 1021MOL0     C37728   6.106   9.794   2.649  0.4441 -0.3190 -0.4552
 1021MOL0     C37729   6.083   9.650   2.669 -0.1835 -0.1820 -0.4317
 1021MOL0     O37730   6.114   9.602   2.800  0.0059 -1.0509  0.2228
 1021MOL0     C37731   6.101   9.460   2.830  0.2891 -0.1183  1.4070
 1021MOL0     C37732   6.214   9.377   2.850  0.1157 -0.1574  0.5330
 1021MOL0     C37733   6.200   9.238   2.876 -0.0933  0.1020 -0.4507
 1021MOL0     C37734   6.070   9.181   2.888  0.4955  0.5957 -0.5424
 1021MOL0     O37735   6.046   9.048   2.894  0.0121 -0.7498  0.5060
 1021MOL0     C37736   6.154   8.963   2.856  0.1390 -0.2326  0.0094
 1021MOL0     C37737   6.096   8.820   2.843 -0.0010 -0.3388  0.2344
 1021MOL0     C37738   6.206   8.730   2.773 -1.6379  0.5804  1.1703
 1021MOL0     C37739   6.231   8.602   2.858  0.3900 -0.6972  0.0652
 1021MOL0     C37740   6.318   8.485   2.800 -0.5065  0.6785 -0.2414
 1021MOL0     C37741   6.367   8.400   2.914 -0.7351  0.3866  0.0631
 1021MOL0     C37742   6.457   8.294   2.869  0.9110  0.3134 -0.6400
 1021MOL0     C37743   6.534   8.241   2.990 -0.0923 -0.1837  0.7837
 1021MOL0    Cl37744   6.655   8.114   2.939  0.4146  0.4250 -0.1223
 1021MOL0     C37745   5.962   9.266   2.874 -1.4447 -0.0713 -0.5642
 1021MOL0     C37746   5.979   9.409   2.848 -0.3186 -0.5863 -0.6458
 1021MOL0     O37747   6.039   9.576   2.574 -1.0808 -0.4177 -0.7510
 1021MOL0     C37748   6.099   9.879   2.755  0.2249  0.1229 -0.3956
 1021MOL0     C37749   6.129  10.016   2.741  0.2426 -0.5314  0.1778
 1021MOL0     N37750   6.481  10.613   2.706 -0.4500 -1.2780  0.9038
 1021MOL0     N37751   6.453  10.680   2.813 -0.6996  0.2776  0.6900
 1021MOL0     C37752   5.710  11.149   2.491 -0.4791  0.3336 -0.4522
 1021MOL0     C37753   5.567  11.143   2.467  1.2219 -0.3130 -0.3642
 1021MOL0     C37754   5.202  11.251   2.168  0.3048 -0.3269 -0.4282
 1021MOL0     C37755   5.104  11.173   2.233 -0.0992 -0.4313 -0.5790
 1021MOL0     C37756   4.985  11.137   2.168  0.7173  0.5889 -0.0315
 1021MOL0     C37757   4.948  11.196   2.054  0.7924  0.3197 -0.3709
 1021MOL0     O37758   4.810  11.164   2.025 -0.0347 -0.7395  0.0738
 1021MOL0     C37759   4.745  11.228   1.919 -0.0401 -0.5223  0.7164
 1021MOL0     C37760   4.599  11.203   1.919 -0.6633  0.2731  0.6087
 1021MOL0     C37761   4.519  11.288   2.022 -0.2056  0.9185 -0.3175
 1021MOL0     C37762   4.371  11.274   2.015  0.0172 -0.8071  0.1623
 1021MOL0     C37763   4.337  11.133   2.037 -0.0764 -0.0697  0.2579
 1021MOL0     C37764   4.312  11.013   2.039  0.3395  0.0923  0.9506
 1021MOL0     C37765   5.036  11.279   1.992  0.6214 -0.5408  0.3034
 1021MOL0     C37766   5.169  11.306   2.039 -0.1120  0.4655 -0.1683
 1021MOL0     C37767   5.246  11.404   1.956  0.1620  0.8830  0.3788
 1021MOL0     H37768   5.563  11.217   2.136 -2.0152 -3.4655 -0.0289
 1021MOL0     H37769   5.794  11.203   2.161 -0.7295  2.1201 -0.0937
 1021MOL0     H37770   5.934  11.325   2.543  0.6055  1.1296 -2.8419
 1021MOL0     H37771   5.962  11.153   2.602  0.2145 -2.3217 -1.5886
 1021MOL0     H37772   6.162  11.311   2.419  3.9715 -1.3031  0.4124
 1021MOL0     H37773   6.176  11.150   2.442 -0.7461  0.6442 -0.9832
 1021MOL0     H37774   6.183  11.350   2.675 -0.2318  0.0909  0.7861
 1021MOL0     H37775   6.313  11.299   2.572 -2.0131  1.2025 -1.3246
 1021MOL0     H37776   6.140  11.118   2.740  1.2766 -1.6264  1.6287
 1021MOL0     H37777   6.288  11.072   2.663  0.3828 -0.5748 -0.1654
 1021MOL0     H37778   6.415  11.236   2.813  0.4047  0.3451  0.7598
 1021MOL0     H37779   6.268  11.283   2.897  3.3882  0.3414  3.4568
 1021MOL0     H37780   6.431  11.152   3.016  2.9266 -2.7231 -1.0741
 1021MOL0     H37781   6.268  11.096   3.021 -0.3116  2.3942 -0.8283
 1021MOL0     H37782   6.483  10.937   2.981  0.4622 -0.1381  0.3556
 1021MOL0     H37783   6.473  10.999   2.815 -0.5884  1.2255  0.5157
 1021MOL0     H37784   6.289  10.795   2.958  1.2926 -1.3482  0.2368
 1021MOL0     H37785   6.209  10.892   2.824 -0.9975 -2.9490  0.9600
 1021MOL0     H37786   6.266  10.817   2.571 -1.1421 -1.8956 -0.8854
 1021MOL0     H37787   6.376  10.690   2.382 -4.9469 -0.1351  0.7847
 1021MOL0     H37788   6.517  10.592   2.415  0.9897  2.1569 -1.0991
 1021MOL0     H37789   6.225  10.542   2.399 -0.1043  1.4116 -0.1216
 1021MOL0     H37790   6.358  10.443   2.326 -0.1593  1.8022 -0.3239
 1021MOL0     H37791   6.289  10.434   2.619  0.9152 -0.4127  1.0944
 1021MOL0     H37792   6.401  10.327   2.530 -0.4683  1.1408  0.9848
 1021MOL0     H37793   6.227  10.223   2.405 -1.0289  0.1776 -1.2650
 1021MOL0     H37794   6.113  10.345   2.461  1.3803  1.5374 -1.6317
 1021MOL0     H37795   6.178  10.021   2.409 -0.1901 -0.9250  0.2514
 1021MOL0     H37796   6.127   9.794   2.435 -1.8719 -0.0951  0.2421
 1021MOL0     H37797   6.316   9.414   2.843  1.8905 -4.3182  1.1717
 1021MOL0     H37798   6.287   9.176   2.858 -0.0419  0.8205 -3.0353
 1021MOL0     H37799   6.197   9.001   2.763  1.5107  2.1421  1.5163
 1021MOL0     H37800   6.237   8.956   2.927  0.9394 -1.5398 -1.0040
 1021MOL0     H37801   6.067   8.781   2.942 -0.3097  2.5498  1.3810
 1021MOL0     H37802   6.004   8.811   2.784  0.2126 -1.4794  0.0477
 1021MOL0     H37803   6.167   8.704   2.675 -0.6850  1.7900  0.4437
 1021MOL0     H37804   6.296   8.788   2.752 -0.1785 -1.9706  0.0540
 1021MOL0     H37805   6.134   8.553   2.871 -0.2126 -1.5309 -5.4092
 1021MOL0     H37806   6.282   8.635   2.950  3.1920 -3.7560 -0.1949
 1021MOL0     H37807   6.412   8.527   2.762 -0.2535  2.0927  1.7889
 1021MOL0     H37808   6.260   8.438   2.720 -0.3213 -1.2211  0.6950
 1021MOL0     H37809   6.409   8.463   2.993  0.4031 -0.6331  0.2969
 1021MOL0     H37810   6.282   8.352   2.964 -1.9791  2.5902  0.1929
 1021MOL0     H37811   6.535   8.335   2.804 -0.9080  4.2863 -0.5975
 1021MOL0     H37812   6.410   8.227   2.796  0.5232  1.6079 -1.6156
 1021MOL0     H37813   6.591   8.329   3.021  0.5383  0.1872 -1.2759
 1021MOL0     H37814   6.460   8.206   3.063 -3.3514  4.3608  0.0924
 1021MOL0     H37815   5.868   9.217   2.898 -1.5195  1.5136  3.0579
 1021MOL0     H37816   5.898   9.479   2.831 -1.7202 -2.0421 -0.3293
 1021MOL0     H37817   6.063   9.847   2.852 -0.7452 -4.5740 -2.0181
 1021MOL0     H37818   6.136  10.086   2.824 -0.7635 -0.9599  0.6486
 1021MOL0     H37819   5.749  11.127   2.590  3.5320 -0.6842 -2.0408
 1021MOL0     H37820   5.497  11.112   2.544 -0.0972 -0.3719 -1.5521
 1021MOL0     H37821   5.130  11.145   2.334  2.3467 -0.7484 -1.2319
 1021MOL0     H37822   4.912  11.088   2.231  1.0891 -1.4555 -1.0654
 1021MOL0     H37823   4.775  11.194   1.819 -1.1450  1.1429 -0.2316
 1021MOL0     H37824   4.760  11.336   1.921 -2.6203 -0.0790 -0.0359
 1021MOL0     H37825   4.588  11.095   1.923 -0.5305  0.2108 -0.3937
 1021MOL0     H37826   4.556  11.218   1.820  1.6791 -0.5533 -0.6079
 1021MOL0     H37827   4.549  11.391   2.001  0.5713  1.0772  1.3881
 1021MOL0     H37828   4.544  11.256   2.123 -1.8177 -1.4699 -0.6031
 1021MOL0     H37829   4.334  11.341   2.093  0.6975  1.6552 -1.4906
 1021MOL0     H37830   4.341  11.310   1.916  0.7215 -2.0849 -0.5434
 1021MOL0     H37831   4.286  10.909   2.038 -1.3393  0.4527 -1.6477
 1021MOL0     H37832   4.998  11.324   1.901 -0.8379 -0.0429  1.1263
 1021MOL0     H37833   5.191  11.428   1.864 -1.9167 -3.1929  0.3686
 1021MOL0     H37834   5.270  11.495   2.012  2.0050  0.7864 -0.1938
 1021MOL0     H37835   5.346  11.362   1.944 -0.5510 -0.4988 -1.1582
 1022MOL0     O37836   9.330   4.442   4.418  0.4569 -0.2817  0.6603
 1022MOL0     C37837   9.247   4.527   4.440 -0.2485  1.0485 -0.7724
 1022MOL0     O37838   9.259   4.659   4.402  0.8717 -0.2739 -0.2808
 1022MOL0     C37839   9.356   4.695   4.306  0.6876  1.2638 -0.4939
 1022MOL0     C37840   9.346   4.643   4.176  0.0879 -0.4407  1.2950
 1022MOL0     C37841   9.448   4.654   4.072  0.1200 -0.6020 -0.7416
 1022MOL0     C37842   9.561   4.730   4.105 -0.3062 -0.9738 -0.1942
 1022MOL0     O37843   9.662   4.755   4.015  0.5512  0.4436 -0.4797
 1022MOL0     C37844   9.751   4.646   4.017 -0.0578  0.0586  0.6101
 1022MOL0     C37845   9.885   4.722   4.005 -0.7245  1.1104 -0.4169
 1022MOL0     C37846   9.995   4.623   4.011 -0.1312  0.3045 -1.0953
 1022MOL0     C37847  10.142   4.672   4.026  0.1794  0.5001 -1.0165
 1022MOL0     C37848  10.163   4.753   4.154 -0.2515 -0.1367 -0.2290
 1022MOL0     C37849  10.314   4.784   4.180  0.0043  0.1515 -0.5360
 1022MOL0     C37850  10.394   4.655   4.207  0.3974  0.5731 -0.3673
 1022MOL0     C37851  10.542   4.676   4.264 -0.3572 -0.0307 -0.1461
 1022MOL0     N37852  10.611   4.545   4.293  1.3802 -0.0830 -0.2573
 1022MOL0     C37853  10.662   4.478   4.193  0.2985  0.2325  0.2988
 1022MOL0     C37854  10.713   4.372   4.248  0.8796  0.2647 -1.1625
 1022MOL0     C37855  10.794   4.260   4.185  0.3897 -0.7352  0.0831
 1022MOL0     C37856  10.778   4.238   4.029 -0.6448 -0.4141  0.3483
 1022MOL0     C37857  10.866   4.342   3.958  0.8335  0.6240 -0.8816
 1022MOL0     C37858  10.793   4.385   3.820 -0.3709  0.2383 -0.0244
 1022MOL0     O37859  10.789   4.282   3.719  0.6394  0.3420  0.2519
 1022MOL0     C37860  10.668   4.243   3.680 -0.6359 -0.3318 -0.1663
 1022MOL0     C37861  10.554   4.317   3.635 -0.3917  0.6661 -0.0103
 1022MOL0     C37862  10.432   4.245   3.600  0.3403  0.7296  0.0239
 1022MOL0     C37863  10.430   4.106   3.572  0.7064 -0.2310 -0.2782
 1022MOL0     C37864  10.316   4.044   3.497  0.8488 -0.2128 -0.1274
 1022MOL0     O37865  10.226   4.131   3.438  0.4344  0.8663 -0.2765
 1022MOL0     C37866  10.149   4.082   3.329  0.1700 -0.3391 -0.2559
 1022MOL0     C37867  10.078   3.967   3.350  0.4174 -0.7178  0.5401
 1022MOL0     C37868   9.992   3.926   3.249  0.3265  0.4166 -1.0700
 1022MOL0     C37869   9.979   3.994   3.122 -0.7448  0.0950 -0.7524
 1022MOL0     O37870   9.901   3.942   3.025 -0.5586 -0.4806 -0.1591
 1022MOL0     C37871   9.793   4.027   2.990 -0.5246  0.2403  0.1018
 1022MOL0     C37872   9.673   3.955   2.920 -0.3229  0.0443 -0.5851
 1022MOL0     C37873   9.540   4.043   2.908  0.0928  0.0382 -0.8387
 1022MOL0     C37874   9.447   3.970   2.806  1.1701  0.5940  0.3190
 1022MOL0     C37875   9.320   4.054   2.793 -0.9835  0.0443 -0.3220
 1022MOL0     C37876   9.207   3.983   2.718 -0.5662 -0.2125  0.6652
 1022MOL0     C37877   9.268   3.961   2.576  0.3246  0.2586  0.0368
 1022MOL0     C37878   9.157   3.945   2.473 -0.3198  0.0920  0.1686
 1022MOL0    Cl37879   9.097   4.094   2.403 -0.1483 -0.5507  0.0400
 1022MOL0     C37880  10.056   4.106   3.103  0.1799 -0.1948 -0.5681
 1022MOL0     C37881  10.145   4.148   3.203  0.1023  0.0063 -0.6074
 1022MOL0     O37882  10.329   3.927   3.461 -0.1309  0.0851 -0.1274
 1022MOL0     C37883  10.540   4.038   3.618  0.8224  0.2112 -0.1913
 1022MOL0     C37884  10.643   4.104   3.682  0.0048  0.4250 -0.3704
 1022MOL0     N37885  10.698   4.372   4.386  0.3349 -0.0154  0.2571
 1022MOL0     N37886  10.620   4.473   4.412  0.0306 -0.5093  0.5803
 1022MOL0     C37887   9.567   4.793   4.237  0.4967  0.4619 -0.8854
 1022MOL0     C37888   9.467   4.766   4.338  0.5052  0.1585  0.5280
 1022MOL0     C37889   9.127   4.478   4.502  0.0297 -0.4553  0.4328
 1022MOL0     C37890   9.079   4.344   4.492 -0.6814 -0.4878 -0.3312
 1022MOL0     C37891   8.957   4.306   4.549 -0.5726 -0.0835  0.3813
 1022MOL0     C37892   8.868   4.392   4.599 -0.9202  0.5938 -0.2402
 1022MOL0     O37893   8.746   4.354   4.634  0.1343 -0.0823  1.0740
 1022MOL0     C37894   8.681   4.260   4.542  0.7469 -0.7055  0.4333
 1022MOL0     C37895   8.666   4.127   4.612  0.1627  0.3757  0.9349
 1022MOL0     C37896   8.599   4.035   4.523 -0.0708 -0.1640  0.8700
 1022MOL0     C37897   8.571   3.901   4.596  0.7433 -0.2773  0.1316
 1022MOL0     C37898   8.692   3.829   4.628  0.0200 -0.5012  0.5549
 1022MOL0     C37899   8.802   3.780   4.651 -0.3230 -0.0869 -0.2315
 1022MOL0     C37900   8.912   4.522   4.620 -0.0483 -0.2114  0.0299
 1022MOL0     C37901   9.036   4.563   4.579 -0.0733  0.2112  0.4532
 1022MOL0     C37902   9.068   4.707   4.611 -0.6459 -1.0152  0.4317
 1022MOL0     H37903   9.256   4.582   4.171  1.3979 -2.5132  1.5458
 1022MOL0     H37904   9.425   4.592   3.985 -1.3135 -1.0134 -0.0917
 1022MOL0     H37905   9.745   4.586   4.108  4.5103  0.4358  1.4014
 1022MOL0     H37906   9.746   4.567   3.940 -3.5200  1.2678 -0.5958
 1022MOL0     H37907   9.896   4.797   4.083  3.6512  1.2722 -0.9359
 1022MOL0     H37908   9.886   4.772   3.908 -1.0633  1.0885 -0.4354
 1022MOL0     H37909  10.000   4.565   3.919  1.0279  2.2788 -2.3470
 1022MOL0     H37910   9.974   4.552   4.092 -1.8500 -2.1504 -3.5240
 1022MOL0     H37911  10.196   4.576   4.029 -1.0434 -0.1877  0.1636
 1022MOL0     H37912  10.185   4.739   3.951 -4.1455  1.5160 -2.8544
 1022MOL0     H37913  10.110   4.849   4.149  1.6134  1.1058  1.8915
 1022MOL0     H37914  10.118   4.714   4.246  2.6119  1.4998  2.0446
 1022MOL0     H37915  10.360   4.834   4.094 -0.2376 -2.4689 -2.2946
 1022MOL0     H37916  10.319   4.847   4.270 -1.3095 -0.1678 -0.2234
 1022MOL0     H37917  10.401   4.577   4.131  0.7220  1.7369 -1.5545
 1022MOL0     H37918  10.338   4.594   4.278  0.1263 -0.8440 -1.7451
 1022MOL0     H37919  10.604   4.738   4.198 -1.3962  0.6327 -0.5281
 1022MOL0     H37920  10.536   4.720   4.364  0.6712 -1.6519  0.6599
 1022MOL0     H37921  10.631   4.487   4.089 -4.0273 -4.7072  0.7107
 1022MOL0     H37922  10.897   4.280   4.215  0.4329  3.0850 -1.9767
 1022MOL0     H37923  10.758   4.165   4.225 -0.6462 -1.7377 -2.9114
 1022MOL0     H37924  10.814   4.138   4.003 -0.3007 -0.6741  1.7188
 1022MOL0     H37925  10.674   4.256   4.002  0.0079 -0.5537 -2.5140
 1022MOL0     H37926  10.967   4.303   3.943  0.4043 -1.2018  0.5364
 1022MOL0     H37927  10.886   4.436   4.010  3.0902  0.9803 -2.2558
 1022MOL0     H37928  10.832   4.474   3.769 -2.8167  1.2136 -0.3549
 1022MOL0     H37929  10.694   4.420   3.852  0.1662  2.5493 -0.7234
 1022MOL0     H37930  10.551   4.425   3.639  0.4446  0.8152  5.6715
 1022MOL0     H37931  10.346   4.299   3.561  1.6914  1.6947 -1.7777
 1022MOL0     H37932  10.086   3.925   3.449  0.5863  1.2899  1.4275
 1022MOL0     H37933   9.932   3.840   3.275  2.3932 -0.9490 -0.5814
 1022MOL0     H37934   9.754   4.066   3.084 -0.5934  0.0891  0.1378
 1022MOL0     H37935   9.816   4.115   2.931 -0.4346  0.0620 -0.1307
 1022MOL0     H37936   9.708   3.930   2.820 -2.1771 -0.1874 -1.2158
 1022MOL0     H37937   9.648   3.869   2.983 -0.3068  3.0609  4.0120
 1022MOL0     H37938   9.493   4.051   3.006  5.0368  0.4531  1.8331
 1022MOL0     H37939   9.557   4.148   2.880  2.3568 -0.0357  0.0288
 1022MOL0     H37940   9.414   3.868   2.827  0.0909  0.8053 -0.2743
 1022MOL0     H37941   9.495   3.963   2.708  0.2923 -0.1551 -0.0721
 1022MOL0     H37942   9.345   4.147   2.742 -0.0792 -1.1194 -2.0887
 1022MOL0     H37943   9.283   4.086   2.891 -1.1270 -2.2186  0.4176
 1022MOL0     H37944   9.181   3.884   2.757  0.1424 -0.7797 -0.2482
 1022MOL0     H37945   9.114   4.040   2.716 -0.7714 -0.5523  0.5309
 1022MOL0     H37946   9.313   3.861   2.576  0.0688  0.1370  0.6254
 1022MOL0     H37947   9.339   4.040   2.549  0.2669  0.6299  0.9444
 1022MOL0     H37948   9.193   3.892   2.384 -3.5784  1.1895 -1.9732
 1022MOL0     H37949   9.070   3.897   2.520  0.1862 -0.8005  0.2105
 1022MOL0     H37950  10.060   4.162   3.010  1.3811  0.0249 -0.4075
 1022MOL0     H37951  10.202   4.237   3.177  2.4145 -1.5715 -1.2917
 1022MOL0     H37952  10.545   3.930   3.611 -0.7180  0.2241 -3.1877
 1022MOL0     H37953  10.718   4.044   3.734  0.5009  2.6646  1.6655
 1022MOL0     H37954   9.655   4.850   4.266  2.3658 -2.3912 -0.5134
 1022MOL0     H37955   9.448   4.801   4.439 -3.0883  2.4132 -0.7489
 1022MOL0     H37956   9.132   4.264   4.442  1.5672 -0.9960  2.6098
 1022MOL0     H37957   8.928   4.201   4.546  3.5745 -1.3943 -0.7820
 1022MOL0     H37958   8.727   4.253   4.442 -1.9390  1.7217 -1.1148
 1022MOL0     H37959   8.581   4.298   4.522  0.4551 -2.1023 -0.9667
 1022MOL0     H37960   8.628   4.140   4.714  0.2341  2.6405  0.7245
 1022MOL0     H37961   8.767   4.089   4.633 -0.3009 -1.1142  0.5956
 1022MOL0     H37962   8.658   4.012   4.434 -3.7501 -0.6884 -1.6842
 1022MOL0     H37963   8.503   4.068   4.482  1.6784  0.3406 -3.2244
 1022MOL0     H37964   8.523   3.905   4.694  0.0239 -2.4045 -0.0770
 1022MOL0     H37965   8.505   3.846   4.528  1.8707 -0.0387 -1.2166
 1022MOL0     H37966   8.896   3.737   4.678 -0.3497 -0.2137 -0.3392
 1022MOL0     H37967   8.846   4.605   4.644  2.4891  1.8338  0.3659
 1022MOL0     H37968   9.020   4.742   4.703 -0.0123 -2.1417  1.2160
 1022MOL0     H37969   9.170   4.719   4.648 -0.5209 -1.7545  0.3522
 1022MOL0     H37970   9.042   4.760   4.520 -0.8713 -0.8819  0.5729
 1023MOL0     O37971   7.815  10.554   3.169 -0.5155 -0.0247 -0.5814
 1023MOL0     C37972   7.908  10.481   3.204  1.1557  1.1053 -0.1959
 1023MOL0     O37973   8.035  10.513   3.236 -0.2080  0.5358  1.0098
 1023MOL0     C37974   8.063  10.644   3.233 -0.3252 -0.1513 -0.9560
 1023MOL0     C37975   8.050  10.731   3.123  0.0616 -0.4423  0.3035
 1023MOL0     C37976   8.089  10.865   3.138  0.0662 -0.6794  0.1655
 1023MOL0     C37977   8.141  10.919   3.253 -0.1596  0.5268 -0.5839
 1023MOL0     O37978   8.143  11.051   3.265 -0.1489 -0.2993 -0.3323
 1023MOL0     C37979   8.018  11.089   3.320 -0.9024  0.6639  0.0360
 1023MOL0     C37980   7.995  11.232   3.263 -0.7451 -0.1246 -0.2222
 1023MOL0     C37981   8.087  11.331   3.327 -0.5150 -0.3019 -1.7020
 1023MOL0     C37982   8.217  11.348   3.260  0.0512 -0.6579 -0.4463
 1023MOL0     C37983   8.325  11.433   3.345 -0.1321 -0.0418  0.1042
 1023MOL0     C37984   8.398  11.360   3.464  0.3299  0.1931  0.4045
 1023MOL0     C37985   8.527  11.435   3.493 -0.3320 -0.0917  0.3766
 1023MOL0     C37986   8.611  11.363   3.603  0.3971  0.8916  0.6129
 1023MOL0     N37987   8.741  11.421   3.615 -0.1447  0.0034 -0.2636
 1023MOL0     C37988   8.836  11.425   3.515 -0.5551  0.4856  0.0144
 1023MOL0     C37989   8.951  11.451   3.579  0.8140  1.0295 -0.4762
 1023MOL0     C37990   9.089  11.450   3.526  0.7563  0.7776  0.7525
 1023MOL0     C37991   9.099  11.493   3.374 -0.3341 -0.5079  1.2814
 1023MOL0     C37992   9.239  11.527   3.318  0.1868  0.5954 -0.7105
 1023MOL0     C37993   9.354  11.438   3.369 -0.5393  0.8591  0.4221
 1023MOL0     O37994   9.334  11.296   3.340 -0.6921  0.0946 -0.5198
 1023MOL0     C37995   9.424  11.204   3.398  0.1584 -0.2460 -0.7840
 1023MOL0     C37996   9.400  11.073   3.367  0.4553 -0.1000 -0.0951
 1023MOL0     C37997   9.480  10.972   3.409 -0.4546 -0.1691 -0.5687
 1023MOL0     C37998   9.587  11.007   3.500 -0.2171 -0.1092 -0.1314
 1023MOL0     C37999   9.673  10.896   3.563  0.4191 -0.9591  0.1766
 1023MOL0     O38000   9.744  10.923   3.673  0.5799 -0.5569  0.7191
 1023MOL0     C38001   9.802  10.819   3.737  0.3107 -0.1486 -0.8378
 1023MOL0     C38002   9.907  10.757   3.667 -0.4791 -0.3574  0.6433
 1023MOL0     C38003   9.992  10.671   3.732  1.1401 -0.5272 -0.4030
 1023MOL0     C38004   9.971  10.640   3.864  0.4961 -0.4016 -0.7167
 1023MOL0     O38005  10.045  10.559   3.938  0.5499 -0.9705  0.0907
 1023MOL0     C38006  10.173  10.520   3.896  0.0783  0.0588  0.0806
 1023MOL0     C38007  10.235  10.419   3.995  0.4369  0.2330  0.4002
 1023MOL0     C38008  10.368  10.388   3.938  0.9168  0.4237 -0.2627
 1023MOL0     C38009  10.468  10.325   4.051  1.2785  0.2494  0.9070
 1023MOL0     C38010  10.598  10.397   4.050  0.2460  1.0407 -0.4165
 1023MOL0     C38011  10.574  10.530   4.126 -0.3406 -0.0737 -0.7449
 1023MOL0     C38012  10.698  10.617   4.127  0.5072 -0.2951 -0.5986
 1023MOL0     C38013  10.824  10.548   4.182 -0.0342  0.6376  0.7784
 1023MOL0    Cl38014  10.977  10.642   4.157  0.3579 -0.1986  0.1749
 1023MOL0     C38015   9.859  10.705   3.930 -0.3228  0.2915 -0.1370
 1023MOL0     C38016   9.776  10.794   3.864 -0.2554 -0.1538 -0.5967
 1023MOL0     O38017   9.657  10.795   3.502  0.0047  0.1695  0.2445
 1023MOL0     C38018   9.610  11.137   3.539 -0.0534  0.4663 -0.3246
 1023MOL0     C38019   9.518  11.234   3.495  0.4659  0.3657 -0.7595
 1023MOL0     N38020   8.921  11.463   3.716 -0.1700  0.2286  0.1551
 1023MOL0     N38021   8.800  11.439   3.733 -0.6108 -0.1437 -1.1758
 1023MOL0     C38022   8.164  10.832   3.360 -0.5649  0.4807 -0.8075
 1023MOL0     C38023   8.130  10.697   3.349  0.5101 -0.3274  0.1302
 1023MOL0     C38024   7.877  10.347   3.199 -0.1447  0.8759 -0.5529
 1023MOL0     C38025   7.851  10.266   3.304 -0.6045  0.3774  0.0806
 1023MOL0     C38026   7.858  10.127   3.275 -0.9350 -0.5569 -0.2582
 1023MOL0     C38027   7.886  10.076   3.153 -1.4616  0.2666 -0.1753
 1023MOL0     O38028   7.901   9.936   3.130  0.2164  0.6481  0.6996
 1023MOL0     C38029   7.966   9.886   3.013  0.3640  0.4289 -0.0368
 1023MOL0     C38030   7.857   9.848   2.919  0.9791 -0.1163 -0.6006
 1023MOL0     C38031   7.899   9.773   2.799 -0.2194 -0.1679  0.4611
 1023MOL0     C38032   7.789   9.781   2.686  0.4497 -0.2001  0.2269
 1023MOL0     C38033   7.751   9.917   2.651 -0.1800 -0.2956  0.0236
 1023MOL0     C38034   7.703  10.024   2.618 -0.8098  0.0345  0.6961
 1023MOL0     C38035   7.897  10.158   3.046  0.1701 -0.8463  0.2125
 1023MOL0     C38036   7.890  10.294   3.071  0.5703 -0.0296 -0.9137
 1023MOL0     C38037   7.906  10.379   2.944  0.0177  0.6871 -0.5095
 1023MOL0     H38038   8.009  10.699   3.028  0.9838 -0.3860 -0.1274
 1023MOL0     H38039   8.059  10.926   3.054  1.1888 -0.0340  0.2148
 1023MOL0     H38040   7.935  11.028   3.282  1.0066 -1.4177 -1.0245
 1023MOL0     H38041   8.020  11.075   3.428 -2.5908  0.0714  0.0206
 1023MOL0     H38042   7.891  11.259   3.284 -1.6422 -0.3424 -3.7595
 1023MOL0     H38043   8.002  11.242   3.154 -2.2497  2.1396 -0.1574
 1023MOL0     H38044   8.097  11.295   3.429 -1.6868  1.6614 -0.8467
 1023MOL0     H38045   8.036  11.427   3.319  0.8921  0.5564 -0.6184
 1023MOL0     H38046   8.271  11.255   3.244 -0.8418 -0.9488 -1.9424
 1023MOL0     H38047   8.208  11.383   3.157  0.7723  2.0264  0.3145
 1023MOL0     H38048   8.408  11.468   3.282  1.5554 -1.0483  1.6633
 1023MOL0     H38049   8.281  11.524   3.384 -0.9855 -0.6083  0.4934
 1023MOL0     H38050   8.329  11.359   3.549 -0.2198 -0.5656 -0.0343
 1023MOL0     H38051   8.418  11.262   3.421 -2.9196 -0.5283  0.2612
 1023MOL0     H38052   8.517  11.538   3.528 -0.0267 -0.0630  0.3723
 1023MOL0     H38053   8.580  11.431   3.398 -2.1800 -0.0547 -0.7134
 1023MOL0     H38054   8.557  11.362   3.698  0.6516 -3.0039  0.8542
 1023MOL0     H38055   8.622  11.263   3.560  1.2989  1.9023 -1.6822
 1023MOL0     H38056   8.828  11.419   3.407  2.5581 -2.7416 -0.2302
 1023MOL0     H38057   9.153  11.524   3.577 -1.3184  0.2031  4.5946
 1023MOL0     H38058   9.128  11.349   3.540  0.8295  0.5686 -0.7728
 1023MOL0     H38059   9.044  11.428   3.305 -0.4734  0.8349  0.0661
 1023MOL0     H38060   9.042  11.587   3.368 -0.3978 -0.5968  0.1816
 1023MOL0     H38061   9.269  11.629   3.342 -2.3040  1.0476  0.8903
 1023MOL0     H38062   9.246  11.500   3.212  2.3401 -1.5692 -0.1022
 1023MOL0     H38063   9.355  11.444   3.478 -3.0015  3.7614  0.4373
 1023MOL0     H38064   9.449  11.483   3.337  0.7597 -0.2981  2.4423
 1023MOL0     H38065   9.321  11.055   3.295 -0.1912  2.7133 -0.2056
 1023MOL0     H38066   9.471  10.875   3.362  1.5022  0.1176 -1.5979
 1023MOL0     H38067   9.903  10.757   3.559  0.9705 -0.2486  0.5786
 1023MOL0     H38068  10.056  10.599   3.681 -1.9155 -4.8593  1.2574
 1023MOL0     H38069  10.174  10.457   3.806  1.2521 -0.5003  0.4597
 1023MOL0     H38070  10.238  10.609   3.900 -0.0079  0.1225  0.0422
 1023MOL0     H38071  10.220  10.477   4.087 -5.5416  0.8055 -0.5336
 1023MOL0     H38072  10.170  10.331   4.003  0.7309  0.1408  2.3196
 1023MOL0     H38073  10.351  10.328   3.848  1.6745  0.3535 -0.3651
 1023MOL0     H38074  10.422  10.476   3.903  0.8652  0.3819 -0.4522
 1023MOL0     H38075  10.493  10.223   4.021 -0.8635 -0.2230  0.5116
 1023MOL0     H38076  10.417  10.326   4.148 -0.2570 -0.2410  0.1526
 1023MOL0     H38077  10.623  10.397   3.943 -2.2737  0.8635 -1.0761
 1023MOL0     H38078  10.673  10.334   4.099 -0.6939 -0.1213 -0.4185
 1023MOL0     H38079  10.497  10.596   4.086  0.7386  2.2053  0.7397
 1023MOL0     H38080  10.552  10.499   4.228  0.4934 -0.8607 -0.7877
 1023MOL0     H38081  10.676  10.702   4.192  1.5485 -0.3505 -0.1550
 1023MOL0     H38082  10.712  10.662   4.029 -0.0697 -1.3745 -1.1949
 1023MOL0     H38083  10.815  10.536   4.290 -1.4727 -0.3435  0.5711
 1023MOL0     H38084  10.845  10.451   4.135  1.8856  1.5531 -0.3746
 1023MOL0     H38085   9.836  10.675   4.032  0.1161 -1.6321 -0.5682
 1023MOL0     H38086   9.692  10.840   3.916 -0.0609 -0.8019  0.3213
 1023MOL0     H38087   9.691  11.176   3.600 -0.2961  2.0625 -0.9650
 1023MOL0     H38088   9.526  11.337   3.529  2.2352 -0.8452  2.9685
 1023MOL0     H38089   8.205  10.876   3.450 -0.8539 -0.4243 -0.2140
 1023MOL0     H38090   8.164  10.625   3.422  0.9545 -2.3086 -1.9185
 1023MOL0     H38091   7.840  10.313   3.401  0.3940 -0.3359  0.5611
 1023MOL0     H38092   7.843  10.049   3.349 -1.9941 -3.1334 -2.9950
 1023MOL0     H38093   8.024   9.797   3.038 -1.1926 -0.8207 -0.6821
 1023MOL0     H38094   8.045   9.956   2.982  1.5823 -0.7432  0.3467
 1023MOL0     H38095   7.807   9.943   2.897 -1.3773 -1.0935  0.1990
 1023MOL0     H38096   7.780   9.805   2.984 -2.7795  4.3209 -1.5370
 1023MOL0     H38097   7.907   9.668   2.829  1.0075 -0.6624 -1.4402
 1023MOL0     H38098   7.997   9.809   2.764 -2.1373  2.9107 -2.2555
 1023MOL0     H38099   7.820   9.719   2.602 -0.7560 -0.4704 -0.0407
 1023MOL0     H38100   7.699   9.735   2.726 -2.3019  1.5694 -3.3141
 1023MOL0     H38101   7.667  10.121   2.591 -0.5340  1.7553  5.4470
 1023MOL0     H38102   7.922  10.122   2.947  0.2998  0.7802 -0.3917
 1023MOL0     H38103   7.984  10.453   2.963  1.7575 -0.9921 -0.8340
 1023MOL0     H38104   7.931  10.340   2.845 -1.2778 -1.3005 -0.1218
 1023MOL0     H38105   7.817  10.442   2.932 -0.2483  0.9828  2.3884
 1024MOL0     O38106   7.003   6.337   9.686 -0.0562 -0.7356  0.2546
 1024MOL0     C38107   7.028   6.223   9.648  0.5974 -1.1422 -0.4283
 1024MOL0     O38108   6.935   6.117   9.629 -0.3698 -1.0888  0.3019
 1024MOL0     C38109   6.802   6.126   9.676  0.0438  0.0267  1.0854
 1024MOL0     C38110   6.760   6.202   9.786 -0.5852  0.2501  0.1613
 1024MOL0     C38111   6.622   6.222   9.815  0.7829  0.1563 -0.9273
 1024MOL0     C38112   6.524   6.154   9.746 -1.2960 -0.2398 -0.0355
 1024MOL0     O38113   6.391   6.159   9.779 -0.0957  0.4925  0.0132
 1024MOL0     C38114   6.339   6.295   9.800 -0.1786  0.0817 -0.0054
 1024MOL0     C38115   6.314   6.312   9.955  1.0781 -0.0404 -0.0531
 1024MOL0     C38116   6.310   6.464   9.985  0.6153 -0.3996 -0.0840
 1024MOL0     C38117   6.177   6.537   9.951  0.2580  0.0553 -1.8116
 1024MOL0     C38118   6.057   6.453   9.993 -0.6839  0.0859  0.2063
 1024MOL0     C38119   5.938   6.527   9.931  0.0863 -0.1382  0.3078
 1024MOL0     C38120   5.933   6.491   9.780  0.9420  0.0290  0.6509
 1024MOL0     C38121   5.805   6.552   9.716 -0.3976  0.0647 -0.2627
 1024MOL0     N38122   5.803   6.698   9.727 -0.1002  0.0456 -0.1945
 1024MOL0     C38123   5.725   6.778   9.810  0.3874 -1.2455  0.4249
 1024MOL0     C38124   5.762   6.905   9.787  0.1472  0.2813 -0.1627
 1024MOL0     C38125   5.702   7.022   9.859 -0.3132  0.6844  0.8550
 1024MOL0     C38126   5.801   7.104   9.946 -0.7022  0.2767 -0.6684
 1024MOL0     C38127   5.746   7.191  10.056  0.3124  0.4285  0.0963
 1024MOL0     C38128   5.847   7.305  10.076  0.8227 -0.2476 -0.3095
 1024MOL0     O38129   5.965   7.244  10.140 -0.2900 -0.2661 -0.5924
 1024MOL0     C38130   6.034   7.316  10.236  0.1411  0.6885  0.3162
 1024MOL0     C38131   5.979   7.422  10.320 -0.0451  1.2436  0.2414
 1024MOL0     C38132   6.069   7.481  10.413  0.5186 -0.3064  1.1662
 1024MOL0     C38133   6.202   7.442  10.428  0.5254  0.4860  0.7507
 1024MOL0     C38134   6.295   7.526  10.501  0.5548 -0.3641 -0.0195
 1024MOL0     O38135   6.239   7.637  10.560  0.6236  0.6558  0.1842
 1024MOL0     C38136   6.301   7.723  10.647 -0.4686 -0.2543  0.7379
 1024MOL0     C38137   6.406   7.797  10.595  0.9093  0.5875 -0.5578
 1024MOL0     C38138   6.471   7.897  10.676 -0.1217 -0.2902  0.0532
 1024MOL0     C38139   6.432   7.926  10.806 -0.6669 -0.5465 -0.6760
 1024MOL0     O38140   6.496   8.019  10.890  0.0649  0.9566  0.8371
 1024MOL0     C38141   6.598   8.107  10.840  0.5533 -0.6366 -0.3019
 1024MOL0     C38142   6.625   8.217  10.937  0.0352  0.2496 -0.1158
 1024MOL0     C38143   6.709   8.321  10.869 -0.0723  0.5946 -0.8878
 1024MOL0     C38144   6.786   8.406  10.971 -1.0860  0.7011 -0.0449
 1024MOL0     C38145   6.882   8.511  10.905  0.1391  0.8390  0.7138
 1024MOL0     C38146   6.989   8.561  11.007 -0.8748 -0.4246 -0.2589
 1024MOL0     C38147   7.089   8.658  10.931 -0.2544 -0.8398 -0.0743
 1024MOL0     C38148   7.204   8.705  11.014  0.5492 -0.9265  0.6176
 1024MOL0    Cl38149   7.313   8.571  11.049  0.4033  0.2866  0.1610
 1024MOL0     C38150   6.330   7.850  10.858 -0.1369 -0.2641  0.0361
 1024MOL0     C38151   6.259   7.750  10.786  0.2554  0.9686  1.4052
 1024MOL0     O38152   6.411   7.502  10.489 -0.1017  0.2702  0.2095
 1024MOL0     C38153   6.243   7.330  10.356  0.4170 -0.6234 -1.3466
 1024MOL0     C38154   6.159   7.257  10.271 -0.0940  0.2133  0.3940
 1024MOL0     N38155   5.853   6.903   9.682  0.1875  0.3170 -0.0067
 1024MOL0     N38156   5.881   6.780   9.651 -0.0934 -0.2230 -0.2109
 1024MOL0     C38157   6.563   6.079   9.632 -0.0051  0.2892 -0.4279
 1024MOL0     C38158   6.698   6.059   9.595 -0.3988  0.7122 -1.0600
 1024MOL0     C38159   7.178   6.195   9.621  0.5043 -1.0732 -0.3942
 1024MOL0     C38160   7.201   6.070   9.566  0.1299 -0.1928 -0.6966
 1024MOL0     C38161   7.331   6.030   9.542 -0.5104  0.4226 -0.3707
 1024MOL0     C38162   7.433   6.111   9.551  0.9348  0.2422 -1.5356
 1024MOL0     O38163   7.550   6.061   9.513  0.4671 -0.1408  0.5993
 1024MOL0     C38164   7.630   6.013   9.625 -0.0630  0.3200 -0.7614
 1024MOL0     C38165   7.742   5.935   9.570 -0.9366  0.3472  0.4435
 1024MOL0     C38166   7.708   5.822   9.477  0.2366  0.6217  0.7661
 1024MOL0     C38167   7.669   5.684   9.542 -0.1690 -0.8658  0.7706
 1024MOL0     C38168   7.541   5.692   9.621 -0.2709  0.1107 -0.1256
 1024MOL0     C38169   7.435   5.680   9.679 -0.1112  0.4021  0.2721
 1024MOL0     C38170   7.414   6.249   9.599  0.4828 -0.1822  0.8294
 1024MOL0     C38171   7.284   6.290   9.644 -0.2440 -0.0286  0.3812
 1024MOL0     C38172   7.277   6.425   9.693 -0.2201  0.5264 -0.5433
 1024MOL0     H38173   6.843   6.245   9.840 -0.5683  4.1177 -2.5417
 1024MOL0     H38174   6.588   6.287   9.895  0.1628  0.1393 -1.1653
 1024MOL0     H38175   6.403   6.369   9.751  0.4065 -0.1204  0.4426
 1024MOL0     H38176   6.239   6.306   9.756 -0.3141  0.3803  0.3661
 1024MOL0     H38177   6.385   6.253  10.014 -1.3506 -1.9564  1.1252
 1024MOL0     H38178   6.222   6.254   9.965  1.4775 -0.5269  1.0560
 1024MOL0     H38179   6.383   6.515   9.921 -1.3423 -1.0648 -3.0950
 1024MOL0     H38180   6.338   6.475  10.090  2.7666 -0.3659 -0.6154
 1024MOL0     H38181   6.166   6.641   9.983 -0.1813  0.0184 -1.8436
 1024MOL0     H38182   6.188   6.537   9.842 -0.8526  3.5203 -2.0210
 1024MOL0     H38183   6.059   6.353   9.951 -1.3504 -1.6105  3.8141
 1024MOL0     H38184   6.052   6.442  10.102  4.0065  0.6004  0.6710
 1024MOL0     H38185   5.852   6.477   9.978  1.2869 -2.0308  0.6018
 1024MOL0     H38186   5.925   6.631   9.963 -0.9434 -0.8707  2.4915
 1024MOL0     H38187   5.948   6.383   9.765  3.3939  0.3451  0.4991
 1024MOL0     H38188   6.014   6.526   9.716  0.4724  1.3273  0.7349
 1024MOL0     H38189   5.811   6.524   9.611 -0.9325 -0.5112 -0.1478
 1024MOL0     H38190   5.717   6.510   9.766  0.0280  0.6904  1.0618
 1024MOL0     H38191   5.649   6.741   9.878  0.0462  0.9340  1.3236
 1024MOL0     H38192   5.647   7.087   9.790  0.6649  0.2378 -0.3728
 1024MOL0     H38193   5.622   6.984   9.924  0.6667 -2.8245  0.2013
 1024MOL0     H38194   5.878   7.040   9.991 -1.6255  1.2211  2.5154
 1024MOL0     H38195   5.852   7.170   9.874 -1.4775  1.2352 -0.3605
 1024MOL0     H38196   5.731   7.130  10.145 -0.6189 -1.5875 -1.3859
 1024MOL0     H38197   5.650   7.237  10.030 -2.5006 -3.2068  2.8727
 1024MOL0     H38198   5.787   7.370  10.139 -0.7691 -1.8445 -0.0833
 1024MOL0     H38199   5.874   7.352   9.981 -0.7581  2.7647  0.6313
 1024MOL0     H38200   5.877   7.458  10.311 -0.8537 -0.9285  0.0101
 1024MOL0     H38201   6.028   7.573  10.454  0.8639  0.5786 -0.3945
 1024MOL0     H38202   6.448   7.795  10.495  2.1079  0.9097 -0.0842
 1024MOL0     H38203   6.545   7.960  10.628  1.0168  0.1795  2.2808
 1024MOL0     H38204   6.691   8.052  10.823  0.5114 -0.6264 -0.5753
 1024MOL0     H38205   6.567   8.146  10.743 -1.1596 -1.8025 -0.2693
 1024MOL0     H38206   6.529   8.252  10.974  1.1420  0.0376  3.2357
 1024MOL0     H38207   6.678   8.183  11.026 -0.7000  0.7692  0.5287
 1024MOL0     H38208   6.789   8.277  10.808 -1.4160 -3.0068 -0.2685
 1024MOL0     H38209   6.654   8.392  10.806  2.8075  2.5680 -1.3940
 1024MOL0     H38210   6.845   8.352  11.045 -0.9925 -0.6026 -1.0346
 1024MOL0     H38211   6.711   8.462  11.028  1.1911  1.9396  1.9294
 1024MOL0     H38212   6.817   8.588  10.862 -2.2291 -0.4286  1.8335
 1024MOL0     H38213   6.918   8.457  10.817 -2.4674 -0.9249  0.6068
 1024MOL0     H38214   6.933   8.606  11.089 -0.0833  1.5574 -0.7380
 1024MOL0     H38215   7.038   8.469  11.041 -0.5852 -0.7174 -1.4160
 1024MOL0     H38216   7.036   8.740  10.883  1.1711 -0.3258 -0.8253
 1024MOL0     H38217   7.131   8.592  10.854  3.2905  0.0538  0.9254
 1024MOL0     H38218   7.263   8.778  10.958  0.2375 -0.6296  0.6714
 1024MOL0     H38219   7.172   8.751  11.108  1.6915  1.2860  0.0056
 1024MOL0     H38220   6.289   7.877  10.955 -1.1201  0.6750 -0.6132
 1024MOL0     H38221   6.188   7.695  10.847  0.4828  0.3452  1.1212
 1024MOL0     H38222   6.349   7.307  10.348  0.6356  0.3614 -1.2990
 1024MOL0     H38223   6.197   7.175  10.212  0.4151 -0.0415  1.0570
 1024MOL0     H38224   6.489   6.036   9.565 -0.2674  0.9101 -0.5364
 1024MOL0     H38225   6.745   6.006   9.513  0.7531 -1.0889  0.6904
 1024MOL0     H38226   7.127   5.991   9.557  0.0152 -0.1128 -0.4728
 1024MOL0     H38227   7.350   5.936   9.491 -3.3930  0.6595 -2.1343
 1024MOL0     H38228   7.580   5.954   9.701 -0.0613  0.3751 -0.7174
 1024MOL0     H38229   7.671   6.108   9.661  0.1395  1.6530 -4.1492
 1024MOL0     H38230   7.795   5.887   9.652 -1.3796 -0.4000  0.2999
 1024MOL0     H38231   7.806   6.005   9.515 -0.5326 -2.5448 -3.1220
 1024MOL0     H38232   7.796   5.804   9.414 -2.0385  1.2352 -2.9051
 1024MOL0     H38233   7.622   5.846   9.413  0.6529  1.1331  0.3934
 1024MOL0     H38234   7.655   5.612   9.461  4.3919  0.0230 -1.1191
 1024MOL0     H38235   7.755   5.644   9.595  0.6710  2.0419  1.8000
 1024MOL0     H38236   7.332   5.681   9.709  0.0656  0.6131  0.8789
 1024MOL0     H38237   7.506   6.307   9.605  0.3984  0.0781 -0.2626
 1024MOL0     H38238   7.249   6.504   9.622  0.4001  1.1189 -0.1445
 1024MOL0     H38239   7.201   6.423   9.771  1.4242  0.4391  1.1334
 1024MOL0     H38240   7.376   6.460   9.723 -0.3429  1.3973 -1.0993
  11.47364  11.47364  11.47364
